 Entering Gaussian System, Link 0=g16
 Initial command:
 /data0/home/software/g16/l1.exe "/data0/home/software/g16/scratch/Gau-2524514.inp" -scrdir="/data0/home/software/g16/scratch/"
 Default is to use a total of  22 processors:
                               22 via shared-memory
                                1 via Linda
 Entering Link 1 = /data0/home/software/g16/l1.exe PID=   2524515.
  
 Copyright (c) 1988,1990,1992,1993,1995,1998,2003,2009,2016,
            Gaussian, Inc.  All Rights Reserved.
  
 This is part of the Gaussian(R) 16 program.  It is based on
 the Gaussian(R) 09 system (copyright 2009, Gaussian, Inc.),
 the Gaussian(R) 03 system (copyright 2003, Gaussian, Inc.),
 the Gaussian(R) 98 system (copyright 1998, Gaussian, Inc.),
 the Gaussian(R) 94 system (copyright 1995, Gaussian, Inc.),
 the Gaussian 92(TM) system (copyright 1992, Gaussian, Inc.),
 the Gaussian 90(TM) system (copyright 1990, Gaussian, Inc.),
 the Gaussian 88(TM) system (copyright 1988, Gaussian, Inc.),
 the Gaussian 86(TM) system (copyright 1986, Carnegie Mellon
 University), and the Gaussian 82(TM) system (copyright 1983,
 Carnegie Mellon University). Gaussian is a federally registered
 trademark of Gaussian, Inc.
  
 This software contains proprietary and confidential information,
 including trade secrets, belonging to Gaussian, Inc.
  
 This software is provided under written license and may be
 used, copied, transmitted, or stored only in accord with that
 written license.
  
 The following legend is applicable only to US Government
 contracts under FAR:
  
                    RESTRICTED RIGHTS LEGEND
  
 Use, reproduction and disclosure by the US Government is
 subject to restrictions as set forth in subparagraphs (a)
 and (c) of the Commercial Computer Software - Restricted
 Rights clause in FAR 52.227-19.
  
 Gaussian, Inc.
 340 Quinnipiac St., Bldg. 40, Wallingford CT 06492
  
  
 ---------------------------------------------------------------
 Warning -- This program may not be used in any manner that
 competes with the business of Gaussian, Inc. or will provide
 assistance to any competitor of Gaussian, Inc.  The licensee
 of this program is prohibited from giving any competitor of
 Gaussian, Inc. access to this program.  By using this program,
 the user acknowledges that Gaussian, Inc. is engaged in the
 business of creating and licensing software in the field of
 computational chemistry and represents and warrants to the
 licensee that it is not a competitor of Gaussian, Inc. and that
 it will not use this program in any manner prohibited above.
 ---------------------------------------------------------------
  

 Cite this work as:
 Gaussian 16, Revision A.03,
 M. J. Frisch, G. W. Trucks, H. B. Schlegel, G. E. Scuseria, 
 M. A. Robb, J. R. Cheeseman, G. Scalmani, V. Barone, 
 G. A. Petersson, H. Nakatsuji, X. Li, M. Caricato, A. V. Marenich, 
 J. Bloino, B. G. Janesko, R. Gomperts, B. Mennucci, H. P. Hratchian, 
 J. V. Ortiz, A. F. Izmaylov, J. L. Sonnenberg, D. Williams-Young, 
 F. Ding, F. Lipparini, F. Egidi, J. Goings, B. Peng, A. Petrone, 
 T. Henderson, D. Ranasinghe, V. G. Zakrzewski, J. Gao, N. Rega, 
 G. Zheng, W. Liang, M. Hada, M. Ehara, K. Toyota, R. Fukuda, 
 J. Hasegawa, M. Ishida, T. Nakajima, Y. Honda, O. Kitao, H. Nakai, 
 T. Vreven, K. Throssell, J. A. Montgomery, Jr., J. E. Peralta, 
 F. Ogliaro, M. J. Bearpark, J. J. Heyd, E. N. Brothers, K. N. Kudin, 
 V. N. Staroverov, T. A. Keith, R. Kobayashi, J. Normand, 
 K. Raghavachari, A. P. Rendell, J. C. Burant, S. S. Iyengar, 
 J. Tomasi, M. Cossi, J. M. Millam, M. Klene, C. Adamo, R. Cammi, 
 J. W. Ochterski, R. L. Martin, K. Morokuma, O. Farkas, 
 J. B. Foresman, and D. J. Fox, Gaussian, Inc., Wallingford CT, 2016.
 
 ******************************************
 Gaussian 16:  ES64L-G16RevA.03 25-Dec-2016
                11-Oct-2023 
 ******************************************
 %mem=50GB
 %nprocshared=24
 Will use up to   24 processors via shared memory.
 -----------------------------------------------------------------
 #p opt freq b3lyp/6-311+g(2d,p) scrf=(smd,solvent=water) em=gd3bj
 -----------------------------------------------------------------
 1/18=20,19=15,26=3,38=1/1,3;
 2/9=110,12=2,17=6,18=5,40=1/2;
 3/5=4,6=6,7=112,11=2,25=1,30=1,70=32201,71=1,72=1,74=-5,124=41/1,2,3;
 4//1;
 5/5=2,38=5,53=1/2;
 6/7=2,8=2,9=2,10=2,28=1/1;
 7//1,2,3,16;
 1/18=20,19=15,26=3/3(2);
 2/9=110/2;
 99//99;
 2/9=110/2;
 3/5=4,6=6,7=112,11=2,25=1,30=1,70=32205,71=1,72=1,74=-5,124=41/1,2,3;
 4/5=5,16=3,69=1/1;
 5/5=2,38=5,53=1/2;
 7//1,2,3,16;
 1/18=20,19=15,26=3/3(-5);
 2/9=110/2;
 6/7=2,8=2,9=2,10=2,19=2,28=1/1;
 99/9=1/99;
 Leave Link    1 at Wed Oct 11 20:11:47 2023, MaxMem=  6710886400 cpu:               0.9 elap:               0.0
 (Enter /data0/home/software/g16/l101.exe)
 -------------------
 Title Card Required
 -------------------
 Symbolic Z-matrix:
 Charge =  0 Multiplicity = 1
 C                     2.48744  -0.95947   1.17551 
 H                     3.54015  -1.11333   0.95 
 H                     2.37705  -0.44025   2.12486 
 H                     1.96421  -1.91244   1.20309 
 C                     2.62094   1.19596   0.04175 
 H                     3.67798   0.98536  -0.10529 
 H                     2.24622   1.78929  -0.78667 
 H                     2.46775   1.71729   0.98415 
 C                     2.04013  -0.82354  -1.2198 
 H                     1.46193  -1.74412  -1.18594 
 H                     1.68676  -0.18287  -2.02196 
 H                     3.09541  -1.04502  -1.3631 
 C                     0.41561   0.09939   0.43232 
 H                     0.41001   0.57656   1.41227 
 H                    -0.00665  -0.90014   0.52966 
 C                    -0.38392   0.92251  -0.56624 
 H                    -0.40051   0.43637  -1.5416 
 H                     0.06261   1.91015  -0.69119 
 C                    -1.81901   1.09657  -0.06247 
 H                    -2.35409   1.7641   -0.74567 
 H                    -1.82645   1.58123   0.91608 
 N                     1.88511  -0.11095   0.0917 
 C                    -2.65441  -0.18852   0.01966 
 O                    -2.4009   -1.12426  -0.79028 
 O                    -3.57896  -0.21361   0.88466 
 
 ITRead=  0  0  0  0  0  0  0  0  0  0  0  0  0  0  0  0  0  0  0  0
 ITRead=  0  0  0  0  0
 MicOpt= -1 -1 -1 -1 -1 -1 -1 -1 -1 -1 -1 -1 -1 -1 -1 -1 -1 -1 -1 -1
 MicOpt= -1 -1 -1 -1 -1
 NAtoms=     25 NQM=       25 NQMF=       0 NMMI=      0 NMMIF=      0
                NMic=       0 NMicF=      0.
                    Isotopes and Nuclear Properties:
 (Nuclear quadrupole moments (NQMom) in fm**2, nuclear magnetic moments (NMagM)
  in nuclear magnetons)

  Atom         1           2           3           4           5           6           7           8           9          10
 IAtWgt=          12           1           1           1          12           1           1           1          12           1
 AtmWgt=  12.0000000   1.0078250   1.0078250   1.0078250  12.0000000   1.0078250   1.0078250   1.0078250  12.0000000   1.0078250
 NucSpn=           0           1           1           1           0           1           1           1           0           1
 AtZEff=  -0.0000000  -0.0000000  -0.0000000  -0.0000000  -0.0000000  -0.0000000  -0.0000000  -0.0000000  -0.0000000  -0.0000000
 NQMom=    0.0000000   0.0000000   0.0000000   0.0000000   0.0000000   0.0000000   0.0000000   0.0000000   0.0000000   0.0000000
 NMagM=    0.0000000   2.7928460   2.7928460   2.7928460   0.0000000   2.7928460   2.7928460   2.7928460   0.0000000   2.7928460
 AtZNuc=   6.0000000   1.0000000   1.0000000   1.0000000   6.0000000   1.0000000   1.0000000   1.0000000   6.0000000   1.0000000

  Atom        11          12          13          14          15          16          17          18          19          20
 IAtWgt=           1           1          12           1           1          12           1           1          12           1
 AtmWgt=   1.0078250   1.0078250  12.0000000   1.0078250   1.0078250  12.0000000   1.0078250   1.0078250  12.0000000   1.0078250
 NucSpn=           1           1           0           1           1           0           1           1           0           1
 AtZEff=  -0.0000000  -0.0000000  -0.0000000  -0.0000000  -0.0000000  -0.0000000  -0.0000000  -0.0000000  -0.0000000  -0.0000000
 NQMom=    0.0000000   0.0000000   0.0000000   0.0000000   0.0000000   0.0000000   0.0000000   0.0000000   0.0000000   0.0000000
 NMagM=    2.7928460   2.7928460   0.0000000   2.7928460   2.7928460   0.0000000   2.7928460   2.7928460   0.0000000   2.7928460
 AtZNuc=   1.0000000   1.0000000   6.0000000   1.0000000   1.0000000   6.0000000   1.0000000   1.0000000   6.0000000   1.0000000

  Atom        21          22          23          24          25
 IAtWgt=           1          14          12          16          16
 AtmWgt=   1.0078250  14.0030740  12.0000000  15.9949146  15.9949146
 NucSpn=           1           2           0           0           0
 AtZEff=  -0.0000000  -0.0000000  -0.0000000  -0.0000000  -0.0000000
 NQMom=    0.0000000   2.0440000   0.0000000   0.0000000   0.0000000
 NMagM=    2.7928460   0.4037610   0.0000000   0.0000000   0.0000000
 AtZNuc=   1.0000000   7.0000000   6.0000000   8.0000000   8.0000000
 Leave Link  101 at Wed Oct 11 20:11:47 2023, MaxMem=  6710886400 cpu:               7.8 elap:               0.3
 (Enter /data0/home/software/g16/l103.exe)

 GradGradGradGradGradGradGradGradGradGradGradGradGradGradGradGradGradGrad
 Berny optimization.
 Initialization pass.
                           ----------------------------
                           !    Initial Parameters    !
                           ! (Angstroms and Degrees)  !
 --------------------------                            --------------------------
 ! Name  Definition              Value          Derivative Info.                !
 --------------------------------------------------------------------------------
 ! R1    R(1,2)                  1.0875         estimate D2E/DX2                !
 ! R2    R(1,3)                  1.0877         estimate D2E/DX2                !
 ! R3    R(1,4)                  1.0875         estimate D2E/DX2                !
 ! R4    R(1,22)                 1.5025         estimate D2E/DX2                !
 ! R5    R(5,6)                  1.0878         estimate D2E/DX2                !
 ! R6    R(5,7)                  1.0857         estimate D2E/DX2                !
 ! R7    R(5,8)                  1.0878         estimate D2E/DX2                !
 ! R8    R(5,22)                 1.5007         estimate D2E/DX2                !
 ! R9    R(9,10)                 1.0876         estimate D2E/DX2                !
 ! R10   R(9,11)                 1.0857         estimate D2E/DX2                !
 ! R11   R(9,12)                 1.0878         estimate D2E/DX2                !
 ! R12   R(9,22)                 1.5006         estimate D2E/DX2                !
 ! R13   R(13,14)                1.09           estimate D2E/DX2                !
 ! R14   R(13,15)                1.0894         estimate D2E/DX2                !
 ! R15   R(13,16)                1.5211         estimate D2E/DX2                !
 ! R16   R(13,22)                1.523          estimate D2E/DX2                !
 ! R17   R(16,17)                1.0899         estimate D2E/DX2                !
 ! R18   R(16,18)                1.0911         estimate D2E/DX2                !
 ! R19   R(16,19)                1.5309         estimate D2E/DX2                !
 ! R20   R(19,20)                1.0948         estimate D2E/DX2                !
 ! R21   R(19,21)                1.092          estimate D2E/DX2                !
 ! R22   R(19,23)                1.535          estimate D2E/DX2                !
 ! R23   R(23,24)                1.2633         estimate D2E/DX2                !
 ! R24   R(23,25)                1.2663         estimate D2E/DX2                !
 ! A1    A(2,1,3)              110.2893         estimate D2E/DX2                !
 ! A2    A(2,1,4)              110.3045         estimate D2E/DX2                !
 ! A3    A(2,1,22)             108.565          estimate D2E/DX2                !
 ! A4    A(3,1,4)              110.3246         estimate D2E/DX2                !
 ! A5    A(3,1,22)             108.6225         estimate D2E/DX2                !
 ! A6    A(4,1,22)             108.6809         estimate D2E/DX2                !
 ! A7    A(6,5,7)              109.7577         estimate D2E/DX2                !
 ! A8    A(6,5,8)              110.2875         estimate D2E/DX2                !
 ! A9    A(6,5,22)             108.2016         estimate D2E/DX2                !
 ! A10   A(7,5,8)              110.519          estimate D2E/DX2                !
 ! A11   A(7,5,22)             109.3963         estimate D2E/DX2                !
 ! A12   A(8,5,22)             108.6316         estimate D2E/DX2                !
 ! A13   A(10,9,11)            110.4529         estimate D2E/DX2                !
 ! A14   A(10,9,12)            110.3346         estimate D2E/DX2                !
 ! A15   A(10,9,22)            108.6512         estimate D2E/DX2                !
 ! A16   A(11,9,12)            109.79           estimate D2E/DX2                !
 ! A17   A(11,9,22)            109.383          estimate D2E/DX2                !
 ! A18   A(12,9,22)            108.1826         estimate D2E/DX2                !
 ! A19   A(14,13,15)           108.6226         estimate D2E/DX2                !
 ! A20   A(14,13,16)           110.5241         estimate D2E/DX2                !
 ! A21   A(14,13,22)           105.4553         estimate D2E/DX2                !
 ! A22   A(15,13,16)           110.5727         estimate D2E/DX2                !
 ! A23   A(15,13,22)           105.5005         estimate D2E/DX2                !
 ! A24   A(16,13,22)           115.7884         estimate D2E/DX2                !
 ! A25   A(13,16,17)           110.7381         estimate D2E/DX2                !
 ! A26   A(13,16,18)           110.4808         estimate D2E/DX2                !
 ! A27   A(13,16,19)           109.7691         estimate D2E/DX2                !
 ! A28   A(17,16,18)           107.9082         estimate D2E/DX2                !
 ! A29   A(17,16,19)           109.3252         estimate D2E/DX2                !
 ! A30   A(18,16,19)           108.5668         estimate D2E/DX2                !
 ! A31   A(16,19,20)           108.7915         estimate D2E/DX2                !
 ! A32   A(16,19,21)           110.593          estimate D2E/DX2                !
 ! A33   A(16,19,23)           115.6335         estimate D2E/DX2                !
 ! A34   A(20,19,21)           106.5737         estimate D2E/DX2                !
 ! A35   A(20,19,23)           106.132          estimate D2E/DX2                !
 ! A36   A(21,19,23)           108.6583         estimate D2E/DX2                !
 ! A37   A(1,22,5)             108.6189         estimate D2E/DX2                !
 ! A38   A(1,22,9)             108.7141         estimate D2E/DX2                !
 ! A39   A(1,22,13)            107.6659         estimate D2E/DX2                !
 ! A40   A(5,22,9)             109.5006         estimate D2E/DX2                !
 ! A41   A(5,22,13)            111.1167         estimate D2E/DX2                !
 ! A42   A(9,22,13)            111.1438         estimate D2E/DX2                !
 ! A43   A(19,23,24)           118.4649         estimate D2E/DX2                !
 ! A44   A(19,23,25)           116.7749         estimate D2E/DX2                !
 ! A45   A(24,23,25)           124.7346         estimate D2E/DX2                !
 ! D1    D(2,1,22,5)           -59.2009         estimate D2E/DX2                !
 ! D2    D(2,1,22,9)            59.8799         estimate D2E/DX2                !
 ! D3    D(2,1,22,13)         -179.6172         estimate D2E/DX2                !
 ! D4    D(3,1,22,5)            60.7449         estimate D2E/DX2                !
 ! D5    D(3,1,22,9)           179.8257         estimate D2E/DX2                !
 ! D6    D(3,1,22,13)          -59.6713         estimate D2E/DX2                !
 ! D7    D(4,1,22,5)          -179.1991         estimate D2E/DX2                !
 ! D8    D(4,1,22,9)           -60.1183         estimate D2E/DX2                !
 ! D9    D(4,1,22,13)           60.3847         estimate D2E/DX2                !
 ! D10   D(6,5,22,1)            56.176          estimate D2E/DX2                !
 ! D11   D(6,5,22,9)           -62.4099         estimate D2E/DX2                !
 ! D12   D(6,5,22,13)          174.4305         estimate D2E/DX2                !
 ! D13   D(7,5,22,1)           175.7159         estimate D2E/DX2                !
 ! D14   D(7,5,22,9)            57.13           estimate D2E/DX2                !
 ! D15   D(7,5,22,13)          -66.0295         estimate D2E/DX2                !
 ! D16   D(8,5,22,1)           -63.5625         estimate D2E/DX2                !
 ! D17   D(8,5,22,9)           177.8516         estimate D2E/DX2                !
 ! D18   D(8,5,22,13)           54.6921         estimate D2E/DX2                !
 ! D19   D(10,9,22,1)           64.2436         estimate D2E/DX2                !
 ! D20   D(10,9,22,5)         -177.2296         estimate D2E/DX2                !
 ! D21   D(10,9,22,13)         -54.0861         estimate D2E/DX2                !
 ! D22   D(11,9,22,1)         -175.1115         estimate D2E/DX2                !
 ! D23   D(11,9,22,5)          -56.5847         estimate D2E/DX2                !
 ! D24   D(11,9,22,13)          66.5588         estimate D2E/DX2                !
 ! D25   D(12,9,22,1)          -55.5515         estimate D2E/DX2                !
 ! D26   D(12,9,22,5)           62.9753         estimate D2E/DX2                !
 ! D27   D(12,9,22,13)        -173.8812         estimate D2E/DX2                !
 ! D28   D(14,13,16,17)       -178.6502         estimate D2E/DX2                !
 ! D29   D(14,13,16,18)         61.8513         estimate D2E/DX2                !
 ! D30   D(14,13,16,19)        -57.8463         estimate D2E/DX2                !
 ! D31   D(15,13,16,17)        -58.3379         estimate D2E/DX2                !
 ! D32   D(15,13,16,18)       -177.8364         estimate D2E/DX2                !
 ! D33   D(15,13,16,19)         62.466          estimate D2E/DX2                !
 ! D34   D(22,13,16,17)         61.5546         estimate D2E/DX2                !
 ! D35   D(22,13,16,18)        -57.944          estimate D2E/DX2                !
 ! D36   D(22,13,16,19)       -177.6416         estimate D2E/DX2                !
 ! D37   D(14,13,22,1)          58.4811         estimate D2E/DX2                !
 ! D38   D(14,13,22,5)         -60.3477         estimate D2E/DX2                !
 ! D39   D(14,13,22,9)         177.4414         estimate D2E/DX2                !
 ! D40   D(15,13,22,1)         -56.3849         estimate D2E/DX2                !
 ! D41   D(15,13,22,5)        -175.2136         estimate D2E/DX2                !
 ! D42   D(15,13,22,9)          62.5754         estimate D2E/DX2                !
 ! D43   D(16,13,22,1)        -179.0            estimate D2E/DX2                !
 ! D44   D(16,13,22,5)          62.1713         estimate D2E/DX2                !
 ! D45   D(16,13,22,9)         -60.0397         estimate D2E/DX2                !
 ! D46   D(13,16,19,20)        174.9836         estimate D2E/DX2                !
 ! D47   D(13,16,19,21)         58.2576         estimate D2E/DX2                !
 ! D48   D(13,16,19,23)        -65.7542         estimate D2E/DX2                !
 ! D49   D(17,16,19,20)        -63.3628         estimate D2E/DX2                !
 ! D50   D(17,16,19,21)        179.9111         estimate D2E/DX2                !
 ! D51   D(17,16,19,23)         55.8993         estimate D2E/DX2                !
 ! D52   D(18,16,19,20)         54.1235         estimate D2E/DX2                !
 ! D53   D(18,16,19,21)        -62.6025         estimate D2E/DX2                !
 ! D54   D(18,16,19,23)        173.3857         estimate D2E/DX2                !
 ! D55   D(16,19,23,24)        -29.5465         estimate D2E/DX2                !
 ! D56   D(16,19,23,25)        152.2058         estimate D2E/DX2                !
 ! D57   D(20,19,23,24)         91.1655         estimate D2E/DX2                !
 ! D58   D(20,19,23,25)        -87.0822         estimate D2E/DX2                !
 ! D59   D(21,19,23,24)       -154.5617         estimate D2E/DX2                !
 ! D60   D(21,19,23,25)         27.1906         estimate D2E/DX2                !
 --------------------------------------------------------------------------------
 Trust Radius=3.00D-01 FncErr=1.00D-07 GrdErr=1.00D-06 EigMax=2.50D+02 EigMin=1.00D-04
 Number of steps in this run=    139 maximum allowed number of steps=    150.
 GradGradGradGradGradGradGradGradGradGradGradGradGradGradGradGradGradGrad

 Leave Link  103 at Wed Oct 11 20:11:47 2023, MaxMem=  6710886400 cpu:               0.2 elap:               0.0
 (Enter /data0/home/software/g16/l202.exe)
                          Input orientation:                          
 ---------------------------------------------------------------------
 Center     Atomic      Atomic             Coordinates (Angstroms)
 Number     Number       Type             X           Y           Z
 ---------------------------------------------------------------------
      1          6           0        2.487439   -0.959473    1.175506
      2          1           0        3.540152   -1.113333    0.950002
      3          1           0        2.377048   -0.440250    2.124864
      4          1           0        1.964211   -1.912435    1.203090
      5          6           0        2.620939    1.195962    0.041753
      6          1           0        3.677982    0.985355   -0.105290
      7          1           0        2.246223    1.789291   -0.786669
      8          1           0        2.467745    1.717289    0.984147
      9          6           0        2.040128   -0.823536   -1.219797
     10          1           0        1.461929   -1.744119   -1.185937
     11          1           0        1.686761   -0.182865   -2.021956
     12          1           0        3.095412   -1.045022   -1.363095
     13          6           0        0.415614    0.099390    0.432315
     14          1           0        0.410014    0.576555    1.412268
     15          1           0       -0.006647   -0.900138    0.529656
     16          6           0       -0.383915    0.922508   -0.566238
     17          1           0       -0.400507    0.436370   -1.541602
     18          1           0        0.062606    1.910147   -0.691188
     19          6           0       -1.819008    1.096571   -0.062466
     20          1           0       -2.354087    1.764099   -0.745670
     21          1           0       -1.826445    1.581234    0.916075
     22          7           0        1.885108   -0.110949    0.091697
     23          6           0       -2.654410   -0.188519    0.019663
     24          8           0       -2.400902   -1.124261   -0.790284
     25          8           0       -3.578956   -0.213609    0.884659
 ---------------------------------------------------------------------
                    Distance matrix (angstroms):
                    1          2          3          4          5
     1  C    0.000000
     2  H    1.087534   0.000000
     3  H    1.087685   1.784980   0.000000
     4  H    1.087504   1.784995   1.785338   0.000000
     5  C    2.439081   2.646264   2.660080   3.382621   0.000000
     6  H    2.615375   2.353111   2.949299   3.611932   1.087804
     7  H    3.385856   3.621533   3.669468   4.212060   1.085695
     8  H    2.683666   3.027151   2.442219   3.671019   1.087822
     9  C    2.440500   2.653692   3.383368   2.657413   2.450963
    10  H    2.691422   3.046168   3.674088   2.447053   3.390369
    11  H    3.386439   3.623998   4.211753   3.670056   2.651933
    12  H    2.611790   2.356454   3.612154   2.935528   2.687142
    13  C    2.442536   3.391377   2.646348   2.653241   2.493685
    14  H    2.594443   3.587084   2.326136   2.941829   2.673979
    15  H    2.577035   3.577978   2.904856   2.315716   3.396453
    16  C    3.849701   4.673536   4.089261   4.084253   3.077918
    17  H    4.203723   4.913091   4.682547   4.317651   3.494729
    18  H    4.195126   4.891652   4.337183   4.670816   2.755418
    19  C    4.930048   5.884672   4.975250   4.996849   4.442282
    20  H    5.877851   6.774730   5.956741   5.996855   5.068895
    21  H    5.013192   6.005182   4.818394   5.163059   4.548857
    22  N    1.502477   2.116750   2.117596   2.118208   1.500653
    23  C    5.326251   6.331936   5.459928   5.069916   5.454043
    24  O    5.271372   6.190706   5.638685   4.863021   5.594158
    25  O    6.118991   7.176035   6.087977   5.806385   6.413741
                    6          7          8          9         10
     6  H    0.000000
     7  H    1.777786   0.000000
     8  H    1.785294   1.786070   0.000000
     9  C    2.682681   2.656490   3.390578   0.000000
    10  H    3.678140   3.641362   4.207407   1.087628   0.000000
    11  H    3.000551   2.393393   3.641041   1.085719   1.785215
    12  H    2.458433   3.014419   3.678841   1.087757   1.785606
    13  C    3.423010   2.773593   2.670835   2.494055   2.666841
    14  H    3.626254   3.110903   2.391405   3.397836   3.639055
    15  H    4.187449   3.747154   3.630441   2.693648   2.410867
    16  C    4.088451   2.778044   3.341756   3.058070   3.301828
    17  H    4.358721   3.066839   4.030761   2.765433   2.889584
    18  H    3.777494   2.189042   2.937454   3.415120   3.944178
    19  C    5.498282   4.186936   4.456113   4.463088   4.482885
    20  H    6.115749   4.600562   5.122941   5.121501   5.202250
    21  H    5.630007   4.419191   4.296884   5.029439   5.127361
    22  N    2.110707   2.124345   2.116220   1.500609   2.116288
    23  C    6.441489   5.345850   5.549667   4.896753   4.562632
    24  O    6.470898   5.484940   5.909885   4.471875   3.932204
    25  O    7.421635   6.382606   6.348296   6.031157   5.660420
                   11         12         13         14         15
    11  H    0.000000
    12  H    1.778120   0.000000
    13  C    2.778296   3.422644   0.000000
    14  H    3.741750   4.188498   1.089966   0.000000
    15  H    3.145288   3.636794   1.089420   1.770094   0.000000
    16  C    2.762004   4.075766   1.521144   2.159744   2.159943
    17  H    2.229547   3.801031   2.162396   3.066259   2.496295
    18  H    2.964713   4.287470   2.160027   2.514694   3.064793
    19  C    4.215089   5.516301   2.496540   2.722829   2.760816
    20  H    4.663478   6.161933   3.439498   3.702325   3.772942
    21  H    4.907819   6.026318   2.730698   2.501467   3.101321
    22  N    2.124157   2.110390   1.523048   2.095822   2.096035
    23  C    4.797292   5.975456   3.110984   3.451866   2.788753
    24  O    4.371754   5.526650   3.305273   3.955409   2.743161
    25  O    6.014743   7.091603   4.032266   4.100562   3.654961
                   16         17         18         19         20
    16  C    0.000000
    17  H    1.089927   0.000000
    18  H    1.091066   1.763433   0.000000
    19  C    1.530874   2.153103   2.144217   0.000000
    20  H    2.149895   2.492558   2.421715   1.094838   0.000000
    21  H    2.170729   3.063362   2.501998   1.092015   1.753066
    22  N    2.578639   2.862038   2.831828   3.899019   4.710389
    23  C    2.594766   2.812137   3.505978   1.534959   2.118642
    24  O    2.882307   2.646059   3.909773   2.408405   2.889084
    25  O    3.688381   4.051142   4.500512   2.389777   2.840705
                   21         22         23         24         25
    21  H    0.000000
    22  N    4.161575   0.000000
    23  C    2.149676   4.540752   0.000000
    24  O    3.249825   4.491611   1.263287   0.000000
    25  O    2.508733   5.522257   1.266346   2.241101   0.000000
 Stoichiometry    C7H15NO2
 Framework group  C1[X(C7H15NO2)]
 Deg. of freedom    69
 Full point group                 C1      NOp   1
 Largest Abelian subgroup         C1      NOp   1
 Largest concise Abelian subgroup C1      NOp   1
                         Standard orientation:                         
 ---------------------------------------------------------------------
 Center     Atomic      Atomic             Coordinates (Angstroms)
 Number     Number       Type             X           Y           Z
 ---------------------------------------------------------------------
      1          6           0       -2.487439   -0.959473   -1.175506
      2          1           0       -3.540152   -1.113333   -0.950002
      3          1           0       -2.377048   -0.440250   -2.124864
      4          1           0       -1.964211   -1.912435   -1.203090
      5          6           0       -2.620939    1.195962   -0.041753
      6          1           0       -3.677982    0.985355    0.105290
      7          1           0       -2.246223    1.789291    0.786669
      8          1           0       -2.467745    1.717289   -0.984147
      9          6           0       -2.040128   -0.823536    1.219797
     10          1           0       -1.461929   -1.744119    1.185937
     11          1           0       -1.686761   -0.182865    2.021956
     12          1           0       -3.095412   -1.045022    1.363095
     13          6           0       -0.415614    0.099390   -0.432315
     14          1           0       -0.410014    0.576555   -1.412268
     15          1           0        0.006647   -0.900138   -0.529656
     16          6           0        0.383915    0.922508    0.566238
     17          1           0        0.400507    0.436370    1.541602
     18          1           0       -0.062606    1.910147    0.691188
     19          6           0        1.819008    1.096571    0.062466
     20          1           0        2.354087    1.764099    0.745670
     21          1           0        1.826445    1.581234   -0.916075
     22          7           0       -1.885108   -0.110949   -0.091697
     23          6           0        2.654410   -0.188519   -0.019663
     24          8           0        2.400902   -1.124261    0.790284
     25          8           0        3.578956   -0.213609   -0.884659
 ---------------------------------------------------------------------
 Rotational constants (GHZ):           2.5869891           0.6044897           0.5875045
 Leave Link  202 at Wed Oct 11 20:11:47 2023, MaxMem=  6710886400 cpu:               0.1 elap:               0.0
 (Enter /data0/home/software/g16/l301.exe)
 Standard basis: 6-311+G(2d,p) (5D, 7F)
 Ernie: Thresh=  0.10000D-02 Tol=  0.10000D-05 Strict=F.
 There are   380 symmetry adapted cartesian basis functions of A   symmetry.
 There are   360 symmetry adapted basis functions of A   symmetry.
   360 basis functions,   540 primitive gaussians,   380 cartesian basis functions
    40 alpha electrons       40 beta electrons
       nuclear repulsion energy       571.4045825559 Hartrees.
 IExCor=  402 DFT=T Ex+Corr=B3LYP ExCW=0 ScaHFX=  0.200000
 ScaDFX=  0.800000  0.720000  1.000000  0.810000 ScalE2=  1.000000  1.000000
 IRadAn=      5 IRanWt=     -1 IRanGd=            0 ICorTp=0 IEmpDi=141
 NAtoms=   25 NActive=   25 NUniq=   25 SFac= 1.00D+00 NAtFMM=   60 NAOKFM=F Big=F
 Integral buffers will be    131072 words long.
 Raffenetti 2 integral format.
 Two-electron integral symmetry is turned on.
 R6Disp:  Grimme-D3(BJ) Dispersion energy=       -0.0408197322 Hartrees.
 Nuclear repulsion after empirical dispersion term =      571.3637628237 Hartrees.
 ------------------------------------------------------------------------------
 Polarizable Continuum Model (PCM)
 =================================
 Model                : PCM.
 Atomic radii         : SMD-Coulomb.
 Polarization charges : Total charges.
 Charge compensation  : None.
 Solution method      : On-the-fly selection.
 Cavity type          : VdW (van der Waals Surface) (Alpha=1.000).
 Cavity algorithm     : GePol (No added spheres)
                        Default sphere list used, NSphG=   25.
                        Lebedev-Laikov grids with approx.  5.0 points / Ang**2.
                        Smoothing algorithm: York/Karplus (Gamma=1.0000).
                        Polarization charges: spherical gaussians, with
                                              point-specific exponents (IZeta= 3).
                        Self-potential: point-specific (ISelfS= 7).
                        Self-field    : sphere-specific E.n sum rule (ISelfD= 2).
 1st derivatives      : Analytical E(r).r(x)/FMM algorithm (CHGder, D1EAlg=3).
                        Cavity 1st derivative terms included.
 Solvent              : Water, Eps=  78.355300 Eps(inf)=   1.777849
 ------------------------------------------------------------------------------
 GePol: Number of generator spheres                  =      25
 GePol: Total number of spheres                      =      25
 GePol: Number of exposed spheres                    =      25 (100.00%)
 GePol: Number of points                             =    1655
 GePol: Average weight of points                     =       0.12
 GePol: Minimum weight of points                     =   0.11D-09
 GePol: Maximum weight of points                     =    0.21991
 GePol: Number of points with low weight             =      97
 GePol: Fraction of low-weight points (<1% of avg)   =       5.86%
 GePol: Cavity surface area                          =    193.616 Ang**2
 GePol: Cavity volume                                =    160.564 Ang**3
 ------------------------------------------------------------------------------
 Atomic radii for non-electrostatic terms: SMD-CDS.
 ------------------------------------------------------------------------------
 PCM non-electrostatic energy =         0.0108709374 Hartrees.
 Nuclear repulsion after PCM non-electrostatic terms =      571.3746337612 Hartrees.
 Leave Link  301 at Wed Oct 11 20:11:47 2023, MaxMem=  6710886400 cpu:               1.6 elap:               0.1
 (Enter /data0/home/software/g16/l302.exe)
 NPDir=0 NMtPBC=     1 NCelOv=     1 NCel=       1 NClECP=     1 NCelD=      1
         NCelK=      1 NCelE2=     1 NClLst=     1 CellRange=     0.0.
 One-electron integrals computed using PRISM.
 One-electron integral symmetry used in STVInt
 NBasis=   360 RedAO= T EigKep=  1.59D-05  NBF=   360
 NBsUse=   360 1.00D-06 EigRej= -1.00D+00 NBFU=   360
 Precomputing XC quadrature grid using
 IXCGrd= 4 IRadAn=           5 IRanWt=          -1 IRanGd=           0 AccXCQ= 0.00D+00.
 Generated NRdTot=       0 NPtTot=           0 NUsed=           0 NTot=          32
 NSgBfM=   380   380   380   380   380 MxSgAt=    25 MxSgA2=    25.
 Leave Link  302 at Wed Oct 11 20:11:47 2023, MaxMem=  6710886400 cpu:               7.0 elap:               0.3
 (Enter /data0/home/software/g16/l303.exe)
 DipDrv:  MaxL=1.
 Leave Link  303 at Wed Oct 11 20:11:47 2023, MaxMem=  6710886400 cpu:               0.9 elap:               0.1
 (Enter /data0/home/software/g16/l401.exe)
 ExpMin= 4.38D-02 ExpMax= 8.59D+03 ExpMxC= 1.30D+03 IAcc=3 IRadAn=         5 AccDes= 0.00D+00
 Harris functional with IExCor=  402 and IRadAn=       5 diagonalized for initial guess.
 HarFok:  IExCor=  402 AccDes= 0.00D+00 IRadAn=         5 IDoV= 1 UseB2=F ITyADJ=14
 ICtDFT=  3500011 ScaDFX=  1.000000  1.000000  1.000000  1.000000
 FoFCou: FMM=F IPFlag=           0 FMFlag=      100000 FMFlg1=           0
         NFxFlg=           0 DoJE=T BraDBF=F KetDBF=T FulRan=T
         wScrn=  0.000000 ICntrl=       500 IOpCl=  0 I1Cent=   200000004 NGrid=           0
         NMat0=    1 NMatS0=      1 NMatT0=    0 NMatD0=    1 NMtDS0=    0 NMtDT0=    0
 Petite list used in FoFCou.
 Harris En= -481.235315052798    
 JPrj=0 DoOrth=F DoCkMO=F.
 Leave Link  401 at Wed Oct 11 20:11:49 2023, MaxMem=  6710886400 cpu:              26.5 elap:               1.1
 (Enter /data0/home/software/g16/l502.exe)
 Integral symmetry usage will be decided dynamically.
 Closed shell SCF:
 Using DIIS extrapolation, IDIIS=  1040.
 NGot=  6710886400 LenX=  6710584763 LenY=  6710439922
 Requested convergence on RMS density matrix=1.00D-08 within 128 cycles.
 Requested convergence on MAX density matrix=1.00D-06.
 Requested convergence on             energy=1.00D-06.
 No special actions if energy rises.
 Fock matrices will be formed incrementally for  20 cycles.

 Cycle   1  Pass 1  IDiag  1:
 FoFJK:  IHMeth= 1 ICntrl=       0 DoSepK=F KAlg= 0 I1Cent=           0 FoldK=F
 IRaf= 930000000 NMat=       1 IRICut=       1 DoRegI=T DoRafI=F ISym2E= 0 IDoP0=0 IntGTp=1.
 FoFCou: FMM=F IPFlag=           0 FMFlag=      100000 FMFlg1=           0
         NFxFlg=           0 DoJE=F BraDBF=F KetDBF=F FulRan=T
         wScrn=  0.000000 ICntrl=         0 IOpCl=  0 I1Cent=           0 NGrid=           0
         NMat0=    1 NMatS0=      1 NMatT0=    0 NMatD0=    1 NMtDS0=    0 NMtDT0=    0
 Symmetry not used in FoFCou.
 Inv3:  Mode=1 IEnd=     8217075.
 Iteration    1 A*A^-1 deviation from unit magnitude is 3.55D-15 for   1633.
 Iteration    1 A*A^-1 deviation from orthogonality  is 2.84D-15 for   1618    317.
 Iteration    1 A^-1*A deviation from unit magnitude is 3.55D-15 for   1633.
 Iteration    1 A^-1*A deviation from orthogonality  is 1.92D-14 for   1026   1014.
 E= -480.829971783290    
 DIIS: error= 4.09D-02 at cycle   1 NSaved=   1.
 NSaved= 1 IEnMin= 1 EnMin= -480.829971783290     IErMin= 1 ErrMin= 4.09D-02
 ErrMax= 4.09D-02  0.00D+00 EMaxC= 1.00D-01 BMatC= 4.69D-01 BMatP= 4.69D-01
 IDIUse=3 WtCom= 5.91D-01 WtEn= 4.09D-01
 Coeff-Com:  0.100D+01
 Coeff-En:   0.100D+01
 Coeff:      0.100D+01
 Gap=     0.182 Goal=   None    Shift=    0.000
 GapD=    0.182 DampG=1.000 DampE=0.500 DampFc=0.5000 IDamp=-1.
 Damping current iteration by 5.00D-01
 RMSDP=8.18D-03 MaxDP=1.40D+00              OVMax= 2.73D-01

 Cycle   2  Pass 1  IDiag  1:
 RMSU=  4.09D-03    CP:  9.88D-01
 E= -480.953206011229     Delta-E=       -0.123234227939 Rises=F Damp=T
 DIIS: error= 1.20D-02 at cycle   2 NSaved=   2.
 NSaved= 2 IEnMin= 2 EnMin= -480.953206011229     IErMin= 2 ErrMin= 1.20D-02
 ErrMax= 1.20D-02  0.00D+00 EMaxC= 1.00D-01 BMatC= 4.55D-02 BMatP= 4.69D-01
 IDIUse=3 WtCom= 8.80D-01 WtEn= 1.20D-01
 Coeff-Com:  0.171D+00 0.829D+00
 Coeff-En:   0.287D+00 0.713D+00
 Coeff:      0.185D+00 0.815D+00
 Gap=     0.263 Goal=   None    Shift=    0.000
 RMSDP=3.74D-03 MaxDP=7.72D-01 DE=-1.23D-01 OVMax= 1.77D-01

 Cycle   3  Pass 1  IDiag  1:
 RMSU=  1.60D-03    CP:  9.51D-01  1.78D-01
 E= -481.183154560178     Delta-E=       -0.229948548949 Rises=F Damp=F
 DIIS: error= 8.19D-03 at cycle   3 NSaved=   3.
 NSaved= 3 IEnMin= 3 EnMin= -481.183154560178     IErMin= 3 ErrMin= 8.19D-03
 ErrMax= 8.19D-03  0.00D+00 EMaxC= 1.00D-01 BMatC= 1.85D-02 BMatP= 4.55D-02
 IDIUse=3 WtCom= 9.18D-01 WtEn= 8.19D-02
 Coeff-Com:  0.306D-01 0.385D+00 0.584D+00
 Coeff-En:   0.000D+00 0.000D+00 0.100D+01
 Coeff:      0.281D-01 0.354D+00 0.618D+00
 Gap=     0.264 Goal=   None    Shift=    0.000
 RMSDP=4.15D-04 MaxDP=2.32D-02 DE=-2.30D-01 OVMax= 2.80D-02

 Cycle   4  Pass 1  IDiag  1:
 RMSU=  4.01D-04    CP:  9.57D-01  1.85D-01  9.48D-01
 E= -481.194580318827     Delta-E=       -0.011425758650 Rises=F Damp=F
 DIIS: error= 2.47D-03 at cycle   4 NSaved=   4.
 NSaved= 4 IEnMin= 4 EnMin= -481.194580318827     IErMin= 4 ErrMin= 2.47D-03
 ErrMax= 2.47D-03  0.00D+00 EMaxC= 1.00D-01 BMatC= 3.55D-03 BMatP= 1.85D-02
 IDIUse=3 WtCom= 9.75D-01 WtEn= 2.47D-02
 Coeff-Com: -0.550D-02 0.807D-01 0.331D+00 0.594D+00
 Coeff-En:   0.000D+00 0.000D+00 0.170D+00 0.830D+00
 Coeff:     -0.536D-02 0.787D-01 0.327D+00 0.600D+00
 Gap=     0.255 Goal=   None    Shift=    0.000
 RMSDP=1.91D-04 MaxDP=1.74D-02 DE=-1.14D-02 OVMax= 9.79D-03

 Cycle   5  Pass 1  IDiag  1:
 RMSU=  1.09D-04    CP:  9.51D-01  1.76D-01  9.80D-01  6.72D-01
 E= -481.197555289645     Delta-E=       -0.002974970817 Rises=F Damp=F
 DIIS: error= 4.73D-04 at cycle   5 NSaved=   5.
 NSaved= 5 IEnMin= 5 EnMin= -481.197555289645     IErMin= 5 ErrMin= 4.73D-04
 ErrMax= 4.73D-04  0.00D+00 EMaxC= 1.00D-01 BMatC= 1.01D-04 BMatP= 3.55D-03
 IDIUse=3 WtCom= 9.95D-01 WtEn= 4.73D-03
 Coeff-Com: -0.418D-02 0.159D-01 0.110D+00 0.257D+00 0.622D+00
 Coeff-En:   0.000D+00 0.000D+00 0.000D+00 0.000D+00 0.100D+01
 Coeff:     -0.416D-02 0.159D-01 0.109D+00 0.255D+00 0.624D+00
 Gap=     0.255 Goal=   None    Shift=    0.000
 RMSDP=3.24D-05 MaxDP=2.11D-03 DE=-2.97D-03 OVMax= 1.67D-03

 Cycle   6  Pass 1  IDiag  1:
 RMSU=  2.87D-05    CP:  9.51D-01  1.73D-01  9.80D-01  6.93D-01  1.01D+00
 E= -481.197614419647     Delta-E=       -0.000059130002 Rises=F Damp=F
 DIIS: error= 3.03D-04 at cycle   6 NSaved=   6.
 NSaved= 6 IEnMin= 6 EnMin= -481.197614419647     IErMin= 6 ErrMin= 3.03D-04
 ErrMax= 3.03D-04  0.00D+00 EMaxC= 1.00D-01 BMatC= 2.38D-05 BMatP= 1.01D-04
 IDIUse=3 WtCom= 9.97D-01 WtEn= 3.03D-03
 Coeff-Com: -0.146D-02 0.226D-02 0.295D-01 0.850D-01 0.377D+00 0.507D+00
 Coeff-En:   0.000D+00 0.000D+00 0.000D+00 0.000D+00 0.199D+00 0.801D+00
 Coeff:     -0.146D-02 0.225D-02 0.294D-01 0.848D-01 0.377D+00 0.508D+00
 Gap=     0.255 Goal=   None    Shift=    0.000
 RMSDP=1.42D-05 MaxDP=1.20D-03 DE=-5.91D-05 OVMax= 7.31D-04

 Cycle   7  Pass 1  IDiag  1:
 RMSU=  1.11D-05    CP:  9.51D-01  1.72D-01  9.80D-01  7.04D-01  9.91D-01
                    CP:  8.20D-01
 E= -481.197634447809     Delta-E=       -0.000020028162 Rises=F Damp=F
 DIIS: error= 2.61D-05 at cycle   7 NSaved=   7.
 NSaved= 7 IEnMin= 7 EnMin= -481.197634447809     IErMin= 7 ErrMin= 2.61D-05
 ErrMax= 2.61D-05  0.00D+00 EMaxC= 1.00D-01 BMatC= 3.46D-07 BMatP= 2.38D-05
 IDIUse=1 WtCom= 1.00D+00 WtEn= 0.00D+00
 Coeff-Com: -0.269D-03-0.294D-03 0.637D-02 0.203D-01 0.113D+00 0.178D+00
 Coeff-Com:  0.683D+00
 Coeff:     -0.269D-03-0.294D-03 0.637D-02 0.203D-01 0.113D+00 0.178D+00
 Coeff:      0.683D+00
 Gap=     0.255 Goal=   None    Shift=    0.000
 RMSDP=2.41D-06 MaxDP=1.62D-04 DE=-2.00D-05 OVMax= 9.67D-05

 Cycle   8  Pass 1  IDiag  1:
 RMSU=  1.63D-06    CP:  9.51D-01  1.72D-01  9.81D-01  7.03D-01  1.00D+00
                    CP:  8.32D-01  1.04D+00
 E= -481.197634669074     Delta-E=       -0.000000221265 Rises=F Damp=F
 DIIS: error= 1.16D-05 at cycle   8 NSaved=   8.
 NSaved= 8 IEnMin= 8 EnMin= -481.197634669074     IErMin= 8 ErrMin= 1.16D-05
 ErrMax= 1.16D-05  0.00D+00 EMaxC= 1.00D-01 BMatC= 7.36D-08 BMatP= 3.46D-07
 IDIUse=1 WtCom= 1.00D+00 WtEn= 0.00D+00
 Coeff-Com:  0.592D-04-0.323D-03 0.333D-03 0.140D-02 0.168D-01 0.351D-01
 Coeff-Com:  0.353D+00 0.594D+00
 Coeff:      0.592D-04-0.323D-03 0.333D-03 0.140D-02 0.168D-01 0.351D-01
 Coeff:      0.353D+00 0.594D+00
 Gap=     0.255 Goal=   None    Shift=    0.000
 RMSDP=1.37D-06 MaxDP=9.66D-05 DE=-2.21D-07 OVMax= 7.97D-05

 Cycle   9  Pass 1  IDiag  1:
 RMSU=  6.33D-07    CP:  9.51D-01  1.71D-01  9.81D-01  7.03D-01  1.00D+00
                    CP:  8.48D-01  1.09D+00  8.04D-01
 E= -481.197634727271     Delta-E=       -0.000000058197 Rises=F Damp=F
 DIIS: error= 5.06D-06 at cycle   9 NSaved=   9.
 NSaved= 9 IEnMin= 9 EnMin= -481.197634727271     IErMin= 9 ErrMin= 5.06D-06
 ErrMax= 5.06D-06  0.00D+00 EMaxC= 1.00D-01 BMatC= 9.24D-09 BMatP= 7.36D-08
 IDIUse=1 WtCom= 1.00D+00 WtEn= 0.00D+00
 Coeff-Com:  0.515D-04-0.181D-03-0.100D-03-0.138D-03 0.466D-02 0.128D-01
 Coeff-Com:  0.179D+00 0.365D+00 0.439D+00
 Coeff:      0.515D-04-0.181D-03-0.100D-03-0.138D-03 0.466D-02 0.128D-01
 Coeff:      0.179D+00 0.365D+00 0.439D+00
 Gap=     0.255 Goal=   None    Shift=    0.000
 RMSDP=3.29D-07 MaxDP=1.97D-05 DE=-5.82D-08 OVMax= 3.93D-05

 Cycle  10  Pass 1  IDiag  1:
 RMSU=  2.22D-07    CP:  9.51D-01  1.71D-01  9.81D-01  7.03D-01  1.00D+00
                    CP:  8.51D-01  1.10D+00  8.50D-01  8.35D-01
 E= -481.197634733192     Delta-E=       -0.000000005921 Rises=F Damp=F
 DIIS: error= 1.40D-06 at cycle  10 NSaved=  10.
 NSaved=10 IEnMin=10 EnMin= -481.197634733192     IErMin=10 ErrMin= 1.40D-06
 ErrMax= 1.40D-06  0.00D+00 EMaxC= 1.00D-01 BMatC= 8.61D-10 BMatP= 9.24D-09
 IDIUse=1 WtCom= 1.00D+00 WtEn= 0.00D+00
 Coeff-Com:  0.156D-04-0.453D-04-0.961D-04-0.260D-03-0.284D-03 0.106D-02
 Coeff-Com:  0.326D-01 0.942D-01 0.255D+00 0.617D+00
 Coeff:      0.156D-04-0.453D-04-0.961D-04-0.260D-03-0.284D-03 0.106D-02
 Coeff:      0.326D-01 0.942D-01 0.255D+00 0.617D+00
 Gap=     0.255 Goal=   None    Shift=    0.000
 RMSDP=1.19D-07 MaxDP=8.14D-06 DE=-5.92D-09 OVMax= 8.85D-06

 Cycle  11  Pass 1  IDiag  1:
 RMSU=  5.18D-08    CP:  9.51D-01  1.71D-01  9.81D-01  7.03D-01  1.00D+00
                    CP:  8.52D-01  1.11D+00  8.57D-01  9.00D-01  8.59D-01
 E= -481.197634733840     Delta-E=       -0.000000000648 Rises=F Damp=F
 DIIS: error= 2.12D-07 at cycle  11 NSaved=  11.
 NSaved=11 IEnMin=11 EnMin= -481.197634733840     IErMin=11 ErrMin= 2.12D-07
 ErrMax= 2.12D-07  0.00D+00 EMaxC= 1.00D-01 BMatC= 1.48D-11 BMatP= 8.61D-10
 IDIUse=1 WtCom= 1.00D+00 WtEn= 0.00D+00
 Coeff-Com: -0.101D-06-0.228D-05-0.163D-04-0.386D-04-0.240D-03-0.234D-03
 Coeff-Com: -0.212D-02 0.456D-02 0.451D-01 0.173D+00 0.780D+00
 Coeff:     -0.101D-06-0.228D-05-0.163D-04-0.386D-04-0.240D-03-0.234D-03
 Coeff:     -0.212D-02 0.456D-02 0.451D-01 0.173D+00 0.780D+00
 Gap=     0.255 Goal=   None    Shift=    0.000
 RMSDP=2.75D-08 MaxDP=1.30D-06 DE=-6.48D-10 OVMax= 1.01D-06

 Cycle  12  Pass 1  IDiag  1:
 RMSU=  1.29D-08    CP:  9.51D-01  1.71D-01  9.81D-01  7.03D-01  1.00D+00
                    CP:  8.53D-01  1.11D+00  8.62D-01  9.14D-01  8.88D-01
                    CP:  9.91D-01
 E= -481.197634733862     Delta-E=       -0.000000000022 Rises=F Damp=F
 DIIS: error= 7.00D-08 at cycle  12 NSaved=  12.
 NSaved=12 IEnMin=12 EnMin= -481.197634733862     IErMin=12 ErrMin= 7.00D-08
 ErrMax= 7.00D-08  0.00D+00 EMaxC= 1.00D-01 BMatC= 2.46D-12 BMatP= 1.48D-11
 IDIUse=1 WtCom= 1.00D+00 WtEn= 0.00D+00
 Coeff-Com: -0.724D-06 0.165D-05-0.601D-05-0.153D-04-0.143D-03-0.214D-03
 Coeff-Com: -0.269D-02-0.230D-02 0.926D-02 0.509D-01 0.366D+00 0.580D+00
 Coeff:     -0.724D-06 0.165D-05-0.601D-05-0.153D-04-0.143D-03-0.214D-03
 Coeff:     -0.269D-02-0.230D-02 0.926D-02 0.509D-01 0.366D+00 0.580D+00
 Gap=     0.255 Goal=   None    Shift=    0.000
 RMSDP=9.55D-09 MaxDP=4.43D-07 DE=-2.18D-11 OVMax= 3.63D-07

 Error on total polarization charges =  0.06674
 SCF Done:  E(RB3LYP) =  -481.197634734     A.U. after   12 cycles
            NFock= 12  Conv=0.95D-08     -V/T= 2.0045
 KE= 4.790186607241D+02 PE=-2.264392362628D+03 EE= 7.328014334088D+02
 SMD-CDS (non-electrostatic) energy       (kcal/mol) =       6.82
 (included in total energy above)
 Leave Link  502 at Wed Oct 11 20:12:20 2023, MaxMem=  6710886400 cpu:             745.7 elap:              31.7
 (Enter /data0/home/software/g16/l601.exe)
 Copying SCF densities to generalized density rwf, IOpCl= 0 IROHF=0.

 **********************************************************************

            Population analysis using the SCF density.

 **********************************************************************

 Orbital symmetries:
       Occupied  (A) (A) (A) (A) (A) (A) (A) (A) (A) (A) (A) (A)
                 (A) (A) (A) (A) (A) (A) (A) (A) (A) (A) (A) (A)
                 (A) (A) (A) (A) (A) (A) (A) (A) (A) (A) (A) (A)
                 (A) (A) (A) (A)
       Virtual   (A) (A) (A) (A) (A) (A) (A) (A) (A) (A) (A) (A)
                 (A) (A) (A) (A) (A) (A) (A) (A) (A) (A) (A) (A)
                 (A) (A) (A) (A) (A) (A) (A) (A) (A) (A) (A) (A)
                 (A) (A) (A) (A) (A) (A) (A) (A) (A) (A) (A) (A)
                 (A) (A) (A) (A) (A) (A) (A) (A) (A) (A) (A) (A)
                 (A) (A) (A) (A) (A) (A) (A) (A) (A) (A) (A) (A)
                 (A) (A) (A) (A) (A) (A) (A) (A) (A) (A) (A) (A)
                 (A) (A) (A) (A) (A) (A) (A) (A) (A) (A) (A) (A)
                 (A) (A) (A) (A) (A) (A) (A) (A) (A) (A) (A) (A)
                 (A) (A) (A) (A) (A) (A) (A) (A) (A) (A) (A) (A)
                 (A) (A) (A) (A) (A) (A) (A) (A) (A) (A) (A) (A)
                 (A) (A) (A) (A) (A) (A) (A) (A) (A) (A) (A) (A)
                 (A) (A) (A) (A) (A) (A) (A) (A) (A) (A) (A) (A)
                 (A) (A) (A) (A) (A) (A) (A) (A) (A) (A) (A) (A)
                 (A) (A) (A) (A) (A) (A) (A) (A) (A) (A) (A) (A)
                 (A) (A) (A) (A) (A) (A) (A) (A) (A) (A) (A) (A)
                 (A) (A) (A) (A) (A) (A) (A) (A) (A) (A) (A) (A)
                 (A) (A) (A) (A) (A) (A) (A) (A) (A) (A) (A) (A)
                 (A) (A) (A) (A) (A) (A) (A) (A) (A) (A) (A) (A)
                 (A) (A) (A) (A) (A) (A) (A) (A) (A) (A) (A) (A)
                 (A) (A) (A) (A) (A) (A) (A) (A) (A) (A) (A) (A)
                 (A) (A) (A) (A) (A) (A) (A) (A) (A) (A) (A) (A)
                 (A) (A) (A) (A) (A) (A) (A) (A) (A) (A) (A) (A)
                 (A) (A) (A) (A) (A) (A) (A) (A) (A) (A) (A) (A)
                 (A) (A) (A) (A) (A) (A) (A) (A) (A) (A) (A) (A)
                 (A) (A) (A) (A) (A) (A) (A) (A) (A) (A) (A) (A)
                 (A) (A) (A) (A) (A) (A) (A) (A)
 The electronic state is 1-A.
 Alpha  occ. eigenvalues --  -19.07409 -19.07306 -14.43480 -10.26386 -10.21391
 Alpha  occ. eigenvalues --  -10.20838 -10.20799 -10.20773 -10.16951 -10.16336
 Alpha  occ. eigenvalues --   -1.03479  -1.01060  -0.94482  -0.79983  -0.74081
 Alpha  occ. eigenvalues --   -0.74057  -0.71940  -0.64245  -0.59867  -0.52310
 Alpha  occ. eigenvalues --   -0.51979  -0.51055  -0.49778  -0.46907  -0.44352
 Alpha  occ. eigenvalues --   -0.43372  -0.43188  -0.42606  -0.40793  -0.39748
 Alpha  occ. eigenvalues --   -0.39536  -0.39464  -0.39320  -0.38247  -0.36579
 Alpha  occ. eigenvalues --   -0.34718  -0.33980  -0.27019  -0.25658  -0.24882
 Alpha virt. eigenvalues --    0.00631   0.01681   0.02426   0.02865   0.03493
 Alpha virt. eigenvalues --    0.04474   0.04524   0.04766   0.05409   0.05856
 Alpha virt. eigenvalues --    0.06102   0.07407   0.07818   0.08532   0.08653
 Alpha virt. eigenvalues --    0.09085   0.10574   0.11033   0.11468   0.11803
 Alpha virt. eigenvalues --    0.12284   0.12662   0.13254   0.14099   0.15037
 Alpha virt. eigenvalues --    0.15213   0.15526   0.16182   0.16754   0.17017
 Alpha virt. eigenvalues --    0.17443   0.17916   0.18981   0.19094   0.19898
 Alpha virt. eigenvalues --    0.20643   0.21587   0.21902   0.22787   0.23121
 Alpha virt. eigenvalues --    0.24226   0.24634   0.25105   0.25269   0.25615
 Alpha virt. eigenvalues --    0.26409   0.26696   0.27460   0.27995   0.28541
 Alpha virt. eigenvalues --    0.28726   0.30013   0.30060   0.30689   0.31411
 Alpha virt. eigenvalues --    0.31725   0.32538   0.33069   0.33416   0.34524
 Alpha virt. eigenvalues --    0.35647   0.36524   0.38484   0.39404   0.41479
 Alpha virt. eigenvalues --    0.43700   0.45687   0.46534   0.47482   0.49010
 Alpha virt. eigenvalues --    0.49591   0.50329   0.50478   0.51346   0.52093
 Alpha virt. eigenvalues --    0.52721   0.53627   0.54456   0.56252   0.57577
 Alpha virt. eigenvalues --    0.58719   0.60149   0.60707   0.60812   0.61748
 Alpha virt. eigenvalues --    0.62792   0.63344   0.63399   0.64151   0.66195
 Alpha virt. eigenvalues --    0.66527   0.67515   0.68237   0.69440   0.69986
 Alpha virt. eigenvalues --    0.70998   0.71993   0.72840   0.73470   0.74025
 Alpha virt. eigenvalues --    0.74702   0.75354   0.76369   0.76575   0.77731
 Alpha virt. eigenvalues --    0.81010   0.83377   0.84870   0.86077   0.86516
 Alpha virt. eigenvalues --    0.89416   0.90455   0.91257   0.93114   0.96082
 Alpha virt. eigenvalues --    0.96755   0.97878   1.00262   1.02383   1.05729
 Alpha virt. eigenvalues --    1.06295   1.07635   1.09266   1.10495   1.12450
 Alpha virt. eigenvalues --    1.13313   1.14509   1.14920   1.15901   1.16781
 Alpha virt. eigenvalues --    1.17343   1.17643   1.18675   1.20064   1.21745
 Alpha virt. eigenvalues --    1.23379   1.24788   1.25932   1.26568   1.27055
 Alpha virt. eigenvalues --    1.29355   1.32168   1.33012   1.34606   1.37148
 Alpha virt. eigenvalues --    1.37785   1.38119   1.41145   1.42279   1.44899
 Alpha virt. eigenvalues --    1.46143   1.47763   1.50065   1.53330   1.53611
 Alpha virt. eigenvalues --    1.56695   1.61025   1.62853   1.63812   1.66279
 Alpha virt. eigenvalues --    1.67393   1.69504   1.71358   1.72380   1.74868
 Alpha virt. eigenvalues --    1.75659   1.77548   1.78216   1.81245   1.83808
 Alpha virt. eigenvalues --    1.84282   1.86324   1.90726   1.91350   1.92587
 Alpha virt. eigenvalues --    1.93805   1.94842   1.95539   1.97050   1.99150
 Alpha virt. eigenvalues --    2.01485   2.04494   2.08889   2.10700   2.12107
 Alpha virt. eigenvalues --    2.16571   2.18842   2.21524   2.21702   2.25434
 Alpha virt. eigenvalues --    2.27206   2.28954   2.29571   2.31687   2.33237
 Alpha virt. eigenvalues --    2.34728   2.36540   2.37129   2.38964   2.39500
 Alpha virt. eigenvalues --    2.39824   2.40587   2.41982   2.42154   2.43734
 Alpha virt. eigenvalues --    2.46186   2.46989   2.48215   2.49646   2.50324
 Alpha virt. eigenvalues --    2.53932   2.55187   2.56665   2.64737   2.67292
 Alpha virt. eigenvalues --    2.67469   2.69684   2.71218   2.75146   2.76818
 Alpha virt. eigenvalues --    2.79207   2.79861   2.83654   2.84453   2.87130
 Alpha virt. eigenvalues --    2.92168   2.95596   3.00010   3.00954   3.03924
 Alpha virt. eigenvalues --    3.07835   3.12106   3.12500   3.15104   3.16976
 Alpha virt. eigenvalues --    3.18453   3.20467   3.24379   3.28777   3.30756
 Alpha virt. eigenvalues --    3.34723   3.35850   3.36474   3.37077   3.37699
 Alpha virt. eigenvalues --    3.38965   3.42147   3.43213   3.45483   3.46899
 Alpha virt. eigenvalues --    3.51481   3.53678   3.55973   3.57843   3.58648
 Alpha virt. eigenvalues --    3.60758   3.61544   3.61796   3.63045   3.65184
 Alpha virt. eigenvalues --    3.66527   3.67680   3.70036   3.70214   3.74896
 Alpha virt. eigenvalues --    3.77259   3.79882   3.81163   3.83422   3.85662
 Alpha virt. eigenvalues --    3.87570   3.90127   3.92018   4.08440   4.20950
 Alpha virt. eigenvalues --    4.22321   4.22583   4.24267   4.24663   4.26167
 Alpha virt. eigenvalues --    4.26836   4.28025   4.30392   4.36326   4.42937
 Alpha virt. eigenvalues --    4.54480   4.79073   4.79495   4.79690   5.07999
 Alpha virt. eigenvalues --    5.10109   5.20591   5.28222   5.29944   5.30893
 Alpha virt. eigenvalues --    5.54077   5.56415   5.59906   5.75743   6.08868
 Alpha virt. eigenvalues --    6.79471   6.85367   6.88608   6.89643   7.05257
 Alpha virt. eigenvalues --    7.12664   7.14202   7.25265   7.25835   7.37490
 Alpha virt. eigenvalues --   23.89676  23.93966  24.02903  24.05231  24.06698
 Alpha virt. eigenvalues --   24.09163  24.10556  35.43206  49.99213  50.05925
          Condensed to atoms (all electrons):
               1          2          3          4          5          6
     1  C    5.213617   0.403461   0.417102   0.418599  -0.109438  -0.012549
     2  H    0.403461   0.470476  -0.020120  -0.020118  -0.016461   0.001264
     3  H    0.417102  -0.020120   0.468233  -0.021693  -0.017829  -0.000196
     4  H    0.418599  -0.020118  -0.021693   0.468825   0.016664   0.000162
     5  C   -0.109438  -0.016461  -0.017829   0.016664   5.312320   0.404153
     6  H   -0.012549   0.001264  -0.000196   0.000162   0.404153   0.471260
     7  H    0.010964   0.000155   0.000104  -0.000333   0.410216  -0.020481
     8  H   -0.010273   0.000180   0.001491   0.000026   0.405150  -0.020449
     9  C   -0.093502  -0.019897   0.016236  -0.015440  -0.178817  -0.018957
    10  H   -0.012874   0.000102   0.000037   0.001501   0.014003   0.000147
    11  H    0.010608   0.000144  -0.000333   0.000111  -0.007159   0.000032
    12  H   -0.012048   0.001174   0.000212  -0.000294  -0.018421   0.001134
    13  C   -0.153627   0.029674  -0.008311  -0.010447  -0.238305   0.025228
    14  H    0.000551   0.000241   0.001506  -0.000573  -0.015828   0.000078
    15  H   -0.002133   0.000227  -0.000468   0.001650   0.009893  -0.000177
    16  C   -0.043359   0.002801  -0.005787  -0.007326   0.000315   0.002309
    17  H   -0.000447  -0.000001   0.000018   0.000027   0.005942  -0.000090
    18  H   -0.000395   0.000008   0.000044   0.000007  -0.004103   0.000168
    19  C   -0.010891   0.000657  -0.001655  -0.000108   0.000117   0.000404
    20  H    0.000131  -0.000001  -0.000001  -0.000000  -0.000021  -0.000001
    21  H   -0.000297   0.000000   0.000014  -0.000003   0.002073  -0.000005
    22  N    0.289082  -0.023310  -0.021842  -0.023337   0.309640  -0.021105
    23  C    0.002890  -0.000121   0.000707  -0.000282  -0.006298  -0.000048
    24  O    0.000406  -0.000005   0.000006  -0.000126  -0.001562  -0.000002
    25  O    0.000315  -0.000000  -0.000010   0.000005  -0.000543  -0.000000
               7          8          9         10         11         12
     1  C    0.010964  -0.010273  -0.093502  -0.012874   0.010608  -0.012048
     2  H    0.000155   0.000180  -0.019897   0.000102   0.000144   0.001174
     3  H    0.000104   0.001491   0.016236   0.000037  -0.000333   0.000212
     4  H   -0.000333   0.000026  -0.015440   0.001501   0.000111  -0.000294
     5  C    0.410216   0.405150  -0.178817   0.014003  -0.007159  -0.018421
     6  H   -0.020481  -0.020449  -0.018957   0.000147   0.000032   0.001134
     7  H    0.474533  -0.021605  -0.006851   0.000191   0.002084   0.000038
     8  H   -0.021605   0.463507   0.012994  -0.000316   0.000196   0.000158
     9  C   -0.006851   0.012994   5.304006   0.409749   0.408714   0.402745
    10  H    0.000191  -0.000316   0.409749   0.459787  -0.021318  -0.020035
    11  H    0.002084   0.000196   0.408714  -0.021318   0.472921  -0.020246
    12  H    0.000038   0.000158   0.402745  -0.020035  -0.020246   0.469561
    13  C   -0.028642  -0.003767  -0.202004  -0.004414  -0.026188   0.024241
    14  H   -0.000173   0.000412   0.011085   0.000297  -0.000076  -0.000145
    15  H   -0.000102   0.000312  -0.015437  -0.000280  -0.000152  -0.000008
    16  C    0.010684  -0.004269  -0.006506  -0.008719   0.012613   0.004440
    17  H   -0.000435   0.000038  -0.002077   0.000131  -0.001388   0.000082
    18  H   -0.001007   0.000152   0.003341   0.000050  -0.000714  -0.000083
    19  C    0.007141  -0.001970  -0.037576   0.000413   0.005654   0.000283
    20  H   -0.000000  -0.000007   0.001046   0.000003   0.000024  -0.000001
    21  H   -0.000002   0.000045  -0.001114  -0.000007  -0.000021   0.000002
    22  N   -0.025512  -0.015905   0.294898  -0.014592  -0.025513  -0.021775
    23  C   -0.000916   0.000461   0.005120  -0.001492   0.000065  -0.000004
    24  O    0.000016  -0.000014   0.006487   0.000172  -0.000399  -0.000037
    25  O   -0.000002  -0.000001  -0.000152   0.000003   0.000002   0.000000
              13         14         15         16         17         18
     1  C   -0.153627   0.000551  -0.002133  -0.043359  -0.000447  -0.000395
     2  H    0.029674   0.000241   0.000227   0.002801  -0.000001   0.000008
     3  H   -0.008311   0.001506  -0.000468  -0.005787   0.000018   0.000044
     4  H   -0.010447  -0.000573   0.001650  -0.007326   0.000027   0.000007
     5  C   -0.238305  -0.015828   0.009893   0.000315   0.005942  -0.004103
     6  H    0.025228   0.000078  -0.000177   0.002309  -0.000090   0.000168
     7  H   -0.028642  -0.000173  -0.000102   0.010684  -0.000435  -0.001007
     8  H   -0.003767   0.000412   0.000312  -0.004269   0.000038   0.000152
     9  C   -0.202004   0.011085  -0.015437  -0.006506  -0.002077   0.003341
    10  H   -0.004414   0.000297  -0.000280  -0.008719   0.000131   0.000050
    11  H   -0.026188  -0.000076  -0.000152   0.012613  -0.001388  -0.000714
    12  H    0.024241  -0.000145  -0.000008   0.004440   0.000082  -0.000083
    13  C    6.056482   0.446249   0.447455  -0.127893  -0.072333  -0.061558
    14  H    0.446249   0.485914  -0.026542  -0.051333   0.005638  -0.005413
    15  H    0.447455  -0.026542   0.478506  -0.058585  -0.007104   0.005635
    16  C   -0.127893  -0.051333  -0.058585   5.751452   0.477373   0.425262
    17  H   -0.072333   0.005638  -0.007104   0.477373   0.541427  -0.037495
    18  H   -0.061558  -0.005413   0.005635   0.425262  -0.037495   0.550163
    19  C   -0.005526  -0.015466  -0.003695   0.010010  -0.055530  -0.013208
    20  H    0.018042  -0.000160  -0.000141  -0.039334  -0.005074  -0.006842
    21  H   -0.006857   0.003362  -0.000608  -0.068475   0.007056  -0.005363
    22  N    0.084007  -0.015727  -0.020306  -0.054086   0.005067   0.006472
    23  C   -0.005073  -0.000178   0.010723  -0.070938  -0.008055   0.007555
    24  O    0.006217   0.001030  -0.000319  -0.023600   0.002049  -0.000434
    25  O   -0.001374  -0.000647  -0.000663  -0.003653  -0.000166  -0.000831
              19         20         21         22         23         24
     1  C   -0.010891   0.000131  -0.000297   0.289082   0.002890   0.000406
     2  H    0.000657  -0.000001   0.000000  -0.023310  -0.000121  -0.000005
     3  H   -0.001655  -0.000001   0.000014  -0.021842   0.000707   0.000006
     4  H   -0.000108  -0.000000  -0.000003  -0.023337  -0.000282  -0.000126
     5  C    0.000117  -0.000021   0.002073   0.309640  -0.006298  -0.001562
     6  H    0.000404  -0.000001  -0.000005  -0.021105  -0.000048  -0.000002
     7  H    0.007141  -0.000000  -0.000002  -0.025512  -0.000916   0.000016
     8  H   -0.001970  -0.000007   0.000045  -0.015905   0.000461  -0.000014
     9  C   -0.037576   0.001046  -0.001114   0.294898   0.005120   0.006487
    10  H    0.000413   0.000003  -0.000007  -0.014592  -0.001492   0.000172
    11  H    0.005654   0.000024  -0.000021  -0.025513   0.000065  -0.000399
    12  H    0.000283  -0.000001   0.000002  -0.021775  -0.000004  -0.000037
    13  C   -0.005526   0.018042  -0.006857   0.084007  -0.005073   0.006217
    14  H   -0.015466  -0.000160   0.003362  -0.015727  -0.000178   0.001030
    15  H   -0.003695  -0.000141  -0.000608  -0.020306   0.010723  -0.000319
    16  C    0.010010  -0.039334  -0.068475  -0.054086  -0.070938  -0.023600
    17  H   -0.055530  -0.005074   0.007056   0.005067  -0.008055   0.002049
    18  H   -0.013208  -0.006842  -0.005363   0.006472   0.007555  -0.000434
    19  C    5.525256   0.402210   0.469730  -0.015860   0.266905  -0.093497
    20  H    0.402210   0.546604  -0.033693  -0.000094  -0.034236  -0.003443
    21  H    0.469730  -0.033693   0.552161  -0.000661  -0.056198   0.006435
    22  N   -0.015860  -0.000094  -0.000661   6.368607  -0.004408  -0.004688
    23  C    0.266905  -0.034236  -0.056198  -0.004408   4.684137   0.365955
    24  O   -0.093497  -0.003443   0.006435  -0.004688   0.365955   8.595983
    25  O   -0.056832   0.003346  -0.010141   0.000545   0.351992  -0.085268
              25
     1  C    0.000315
     2  H   -0.000000
     3  H   -0.000010
     4  H    0.000005
     5  C   -0.000543
     6  H   -0.000000
     7  H   -0.000002
     8  H   -0.000001
     9  C   -0.000152
    10  H    0.000003
    11  H    0.000002
    12  H    0.000000
    13  C   -0.001374
    14  H   -0.000647
    15  H   -0.000663
    16  C   -0.003653
    17  H   -0.000166
    18  H   -0.000831
    19  C   -0.056832
    20  H    0.003346
    21  H   -0.010141
    22  N    0.000545
    23  C    0.351992
    24  O   -0.085268
    25  O    8.592356
 Mulliken charges:
               1
     1  C   -0.305893
     2  H    0.189471
     3  H    0.192533
     4  H    0.192505
     5  C   -0.275702
     6  H    0.187722
     7  H    0.189939
     8  H    0.193456
     9  C   -0.278089
    10  H    0.197461
    11  H    0.190339
    12  H    0.189027
    13  C   -0.181275
    14  H    0.175900
    15  H    0.182321
    16  C   -0.123396
    17  H    0.145348
    18  H    0.138588
    19  C   -0.376969
    20  H    0.151644
    21  H    0.142568
    22  N   -0.049597
    23  C    0.491739
    24  O   -0.771362
    25  O   -0.788278
 Sum of Mulliken charges =  -0.00000
 Mulliken charges with hydrogens summed into heavy atoms:
               1
     1  C    0.268616
     5  C    0.295415
     9  C    0.298738
    13  C    0.176946
    16  C    0.160540
    19  C   -0.082757
    22  N   -0.049597
    23  C    0.491739
    24  O   -0.771362
    25  O   -0.788278
 Electronic spatial extent (au):  <R**2>=           2066.8906
 Charge=             -0.0000 electrons
 Dipole moment (field-independent basis, Debye):
    X=            -24.2019    Y=              4.6404    Z=              0.1130  Tot=             24.6430
 Quadrupole moment (field-independent basis, Debye-Ang):
   XX=            -92.7190   YY=            -61.8737   ZZ=            -62.6350
   XY=             14.4468   XZ=              6.7356   YZ=              3.2023
 Traceless Quadrupole moment (field-independent basis, Debye-Ang):
   XX=            -20.3098   YY=             10.5355   ZZ=              9.7743
   XY=             14.4468   XZ=              6.7356   YZ=              3.2023
 Octapole moment (field-independent basis, Debye-Ang**2):
  XXX=           -264.2452  YYY=              7.2474  ZZZ=             -0.4445  XYY=            -29.8958
  XXY=             33.8342  XXZ=             27.8207  XZZ=            -33.2305  YZZ=              3.3648
  YYZ=             -3.8288  XYZ=              6.8752
 Hexadecapole moment (field-independent basis, Debye-Ang**3):
 XXXX=          -2484.4119 YYYY=           -379.6338 ZZZZ=           -304.6058 XXXY=            119.3854
 XXXZ=            137.7536 YYYX=             22.8652 YYYZ=              8.4317 ZZZX=             13.4182
 ZZZY=              0.3643 XXYY=           -414.8002 XXZZ=           -424.4488 YYZZ=           -113.4389
 XXYZ=             16.1894 YYXZ=             -4.2012 ZZXY=             16.0629
 N-N= 5.713746337612D+02 E-N=-2.264392372539D+03  KE= 4.790186607241D+02
 No NMR shielding tensors so no spin-rotation constants.
 Leave Link  601 at Wed Oct 11 20:12:20 2023, MaxMem=  6710886400 cpu:               3.4 elap:               0.2
 (Enter /data0/home/software/g16/l701.exe)
 ... and contract with generalized density number  0.
 Compute integral first derivatives.
 R6Disp: Adding Grimme-D3(BJ) dispersion energy 1st derivatives to the gradient.
 D1PCM: PCM CHGder 1st derivatives, ID1Alg=3 FixD1E=F DoIter=F DoCFld=F I1PDM=0.
 GePol: Maximum number of non-zero 1st derivatives   =     230
 Leave Link  701 at Wed Oct 11 20:12:21 2023, MaxMem=  6710886400 cpu:              19.9 elap:               0.9
 (Enter /data0/home/software/g16/l702.exe)
 L702 exits ... SP integral derivatives will be done elsewhere.
 Leave Link  702 at Wed Oct 11 20:12:21 2023, MaxMem=  6710886400 cpu:               0.4 elap:               0.0
 (Enter /data0/home/software/g16/l703.exe)
 Integral derivatives from FoFJK, PRISM(SPDF).
 Compute integral first derivatives, UseDBF=F ICtDFT=           0.
 Calling FoFJK, ICntrl=      2127 FMM=F ISym2X=0 I1Cent= 0 IOpClX= 0 NMat=1 NMatS=1 NMatT=0.
 FoFJK:  IHMeth= 1 ICntrl=    2127 DoSepK=F KAlg= 0 I1Cent=           0 FoldK=F
 IRaf=         0 NMat=       1 IRICut=       1 DoRegI=T DoRafI=F ISym2E= 0 IDoP0=0 IntGTp=1.
 FoFCou: FMM=F IPFlag=           0 FMFlag=      100000 FMFlg1=         800
         NFxFlg=           0 DoJE=F BraDBF=F KetDBF=F FulRan=T
         wScrn=  0.000000 ICntrl=      2127 IOpCl=  0 I1Cent=           0 NGrid=           0
         NMat0=    1 NMatS0=      1 NMatT0=    0 NMatD0=    1 NMtDS0=    0 NMtDT0=    0
 Symmetry not used in FoFCou.
 Leave Link  703 at Wed Oct 11 20:12:28 2023, MaxMem=  6710886400 cpu:             158.4 elap:               6.6
 (Enter /data0/home/software/g16/l716.exe)
 Dipole        =-9.52174654D+00 1.82565479D+00 4.44724105D-02
 ***** Axes restored to original set *****
 -------------------------------------------------------------------
 Center     Atomic                   Forces (Hartrees/Bohr)
 Number     Number              X              Y              Z
 -------------------------------------------------------------------
      1        6          -0.000444832    0.000504713   -0.000717313
      2        1          -0.000371407    0.000341489   -0.000358057
      3        1          -0.000230195    0.000149522   -0.000447387
      4        1          -0.000139828    0.000423629   -0.000308480
      5        6          -0.000621817   -0.000749709   -0.000013381
      6        1          -0.000380995   -0.000349872    0.000077399
      7        1          -0.000242493   -0.000397629    0.000127196
      8        1          -0.000144334   -0.000414390   -0.000181564
      9        6          -0.000194140    0.000572091    0.000830601
     10        1           0.000096637    0.000308605    0.000340586
     11        1          -0.000099159    0.000101866    0.000468774
     12        1          -0.000205190    0.000201385    0.000454056
     13        6           0.000226453    0.000072455   -0.000262116
     14        1           0.000440569   -0.000137730   -0.000338985
     15        1           0.000661797    0.000154139   -0.000052351
     16        6           0.000374457   -0.000494865    0.000367365
     17        1           0.000238857    0.000131539    0.000122607
     18        1          -0.000005683   -0.000181131    0.000064947
     19        6           0.000174728   -0.000669450   -0.000018171
     20        1           0.000242283    0.000021036    0.000032546
     21        1           0.000121016   -0.000139766   -0.000213434
     22        7           0.000014554    0.000074276    0.000002286
     23        6           0.000630972    0.000388952   -0.000004632
     24        8          -0.000392007    0.000178300    0.000257131
     25        8           0.000249757   -0.000089456   -0.000229621
 -------------------------------------------------------------------
 Cartesian Forces:  Max     0.000830601 RMS     0.000337004
 Leave Link  716 at Wed Oct 11 20:12:28 2023, MaxMem=  6710886400 cpu:               0.5 elap:               0.0
 (Enter /data0/home/software/g16/l103.exe)

 GradGradGradGradGradGradGradGradGradGradGradGradGradGradGradGradGradGrad
 Berny optimization.
 FormGI is forming the generalized inverse of G from B-inverse, IUseBI=4.
 Internal  Forces:  Max     0.003036942 RMS     0.000564040
 Search for a local minimum.
 Step number   1 out of a maximum of  139
 All quantities printed in internal units (Hartrees-Bohrs-Radians)
 RMS Force = .56404D-03 SwitMx=.10000D-02 MixMth= 2
 Mixed Optimization -- En-DIIS/RFO-DIIS
 Second derivative matrix not updated -- first step.
 ITU=  0
     Eigenvalues ---    0.00230   0.00304   0.00308   0.00336   0.00358
     Eigenvalues ---    0.00360   0.00361   0.00486   0.03343   0.03675
     Eigenvalues ---    0.03889   0.04399   0.04775   0.04968   0.04984
     Eigenvalues ---    0.05065   0.05247   0.05872   0.05875   0.05934
     Eigenvalues ---    0.05947   0.05994   0.05995   0.07861   0.08783
     Eigenvalues ---    0.09808   0.11832   0.12490   0.13126   0.14255
     Eigenvalues ---    0.14576   0.16000   0.16000   0.16000   0.16000
     Eigenvalues ---    0.16000   0.16000   0.16000   0.16000   0.16000
     Eigenvalues ---    0.21890   0.21999   0.22053   0.25000   0.25000
     Eigenvalues ---    0.28970   0.29343   0.30075   0.30257   0.32119
     Eigenvalues ---    0.32309   0.32313   0.34259   0.34581   0.34690
     Eigenvalues ---    0.34817   0.34821   0.34880   0.35066   0.35068
     Eigenvalues ---    0.35073   0.35082   0.35088   0.35099   0.35103
     Eigenvalues ---    0.35312   0.35315   0.77478   0.78515
 RFO step:  Lambda=-1.76604065D-04 EMin= 2.30000000D-03
 Linear search not attempted -- first point.
 Iteration  1 RMS(Cart)=  0.01252035 RMS(Int)=  0.00013742
 Iteration  2 RMS(Cart)=  0.00012493 RMS(Int)=  0.00002163
 Iteration  3 RMS(Cart)=  0.00000000 RMS(Int)=  0.00002163
 ITry= 1 IFail=0 DXMaxC= 5.95D-02 DCOld= 1.00D+10 DXMaxT= 3.00D-01 DXLimC= 3.00D+00 Rises=F
 Variable       Old X    -DE/DX   Delta X   Delta X   Delta X     New X
                                 (Linear)    (Quad)   (Total)
    R1        2.05514  -0.00034   0.00000  -0.00096  -0.00096   2.05418
    R2        2.05543  -0.00030   0.00000  -0.00085  -0.00085   2.05458
    R3        2.05508  -0.00030   0.00000  -0.00085  -0.00085   2.05423
    R4        2.83927  -0.00258   0.00000  -0.00804  -0.00804   2.83123
    R5        2.05565  -0.00031   0.00000  -0.00088  -0.00088   2.05477
    R6        2.05167  -0.00024   0.00000  -0.00068  -0.00068   2.05099
    R7        2.05569  -0.00034   0.00000  -0.00096  -0.00096   2.05473
    R8        2.83582  -0.00237   0.00000  -0.00732  -0.00732   2.82850
    R9        2.05532  -0.00030   0.00000  -0.00085  -0.00085   2.05447
   R10        2.05171  -0.00026   0.00000  -0.00072  -0.00072   2.05099
   R11        2.05556  -0.00030   0.00000  -0.00086  -0.00086   2.05470
   R12        2.83574  -0.00243   0.00000  -0.00751  -0.00751   2.82823
   R13        2.05974  -0.00037   0.00000  -0.00106  -0.00106   2.05868
   R14        2.05871  -0.00040   0.00000  -0.00115  -0.00115   2.05755
   R15        2.87454  -0.00152   0.00000  -0.00501  -0.00501   2.86954
   R16        2.87814  -0.00304   0.00000  -0.01009  -0.01009   2.86805
   R17        2.05966  -0.00017   0.00000  -0.00050  -0.00050   2.05916
   R18        2.06182  -0.00017   0.00000  -0.00048  -0.00048   2.06133
   R19        2.89293  -0.00106   0.00000  -0.00362  -0.00362   2.88931
   R20        2.06894  -0.00012   0.00000  -0.00035  -0.00035   2.06859
   R21        2.06361  -0.00025   0.00000  -0.00073  -0.00073   2.06288
   R22        2.90065  -0.00070   0.00000  -0.00241  -0.00241   2.89824
   R23        2.38727  -0.00038   0.00000  -0.00049  -0.00049   2.38678
   R24        2.39305  -0.00034   0.00000  -0.00044  -0.00044   2.39261
    A1        1.92491   0.00050   0.00000   0.00335   0.00334   1.92825
    A2        1.92518   0.00051   0.00000   0.00319   0.00318   1.92836
    A3        1.89482  -0.00056   0.00000  -0.00341  -0.00342   1.89140
    A4        1.92553   0.00041   0.00000   0.00231   0.00230   1.92783
    A5        1.89582  -0.00042   0.00000  -0.00266  -0.00267   1.89315
    A6        1.89684  -0.00047   0.00000  -0.00307  -0.00307   1.89377
    A7        1.91563   0.00047   0.00000   0.00311   0.00311   1.91874
    A8        1.92488   0.00038   0.00000   0.00225   0.00225   1.92713
    A9        1.88847  -0.00047   0.00000  -0.00289  -0.00290   1.88558
   A10        1.92892   0.00037   0.00000   0.00223   0.00222   1.93114
   A11        1.90933  -0.00044   0.00000  -0.00271  -0.00271   1.90661
   A12        1.89598  -0.00034   0.00000  -0.00221  -0.00221   1.89377
   A13        1.92777   0.00038   0.00000   0.00233   0.00233   1.93010
   A14        1.92570   0.00037   0.00000   0.00204   0.00203   1.92773
   A15        1.89632  -0.00036   0.00000  -0.00243  -0.00243   1.89389
   A16        1.91620   0.00048   0.00000   0.00334   0.00333   1.91953
   A17        1.90909  -0.00042   0.00000  -0.00247  -0.00247   1.90662
   A18        1.88814  -0.00049   0.00000  -0.00303  -0.00304   1.88511
   A19        1.89582  -0.00014   0.00000   0.00314   0.00312   1.89894
   A20        1.92901   0.00056   0.00000   0.00334   0.00331   1.93232
   A21        1.84054   0.00020   0.00000  -0.00232  -0.00232   1.83823
   A22        1.92986   0.00072   0.00000   0.00557   0.00555   1.93541
   A23        1.84133   0.00014   0.00000  -0.00176  -0.00174   1.83959
   A24        2.02089  -0.00147   0.00000  -0.00795  -0.00795   2.01294
   A25        1.93274   0.00007   0.00000   0.00101   0.00101   1.93375
   A26        1.92825   0.00001   0.00000  -0.00186  -0.00187   1.92639
   A27        1.91583  -0.00038   0.00000  -0.00172  -0.00172   1.91411
   A28        1.88335  -0.00009   0.00000  -0.00037  -0.00036   1.88299
   A29        1.90808   0.00031   0.00000   0.00364   0.00364   1.91172
   A30        1.89485   0.00009   0.00000  -0.00064  -0.00065   1.89420
   A31        1.89877  -0.00016   0.00000  -0.00050  -0.00051   1.89826
   A32        1.93021  -0.00023   0.00000  -0.00248  -0.00248   1.92773
   A33        2.01819   0.00029   0.00000   0.00139   0.00138   2.01957
   A34        1.86006   0.00008   0.00000   0.00016   0.00016   1.86022
   A35        1.85235   0.00007   0.00000   0.00204   0.00204   1.85439
   A36        1.89645  -0.00004   0.00000  -0.00049  -0.00049   1.89596
   A37        1.89576   0.00012   0.00000   0.00182   0.00182   1.89758
   A38        1.89742  -0.00002   0.00000   0.00051   0.00051   1.89793
   A39        1.87912  -0.00001   0.00000  -0.00015  -0.00014   1.87898
   A40        1.91115   0.00002   0.00000   0.00022   0.00022   1.91136
   A41        1.93935  -0.00010   0.00000  -0.00134  -0.00134   1.93801
   A42        1.93983  -0.00001   0.00000  -0.00096  -0.00096   1.93886
   A43        2.06760   0.00039   0.00000   0.00128   0.00114   2.06874
   A44        2.03811  -0.00011   0.00000  -0.00070  -0.00084   2.03727
   A45        2.17703  -0.00029   0.00000  -0.00143  -0.00157   2.17546
    D1       -1.03325  -0.00005   0.00000   0.00105   0.00105  -1.03220
    D2        1.04510   0.00003   0.00000   0.00266   0.00266   1.04776
    D3       -3.13491   0.00001   0.00000   0.00171   0.00171  -3.13320
    D4        1.06020  -0.00002   0.00000   0.00155   0.00155   1.06175
    D5        3.13855   0.00006   0.00000   0.00316   0.00316  -3.14148
    D6       -1.04146   0.00004   0.00000   0.00221   0.00221  -1.03925
    D7       -3.12761  -0.00005   0.00000   0.00099   0.00099  -3.12663
    D8       -1.04926   0.00003   0.00000   0.00259   0.00259  -1.04667
    D9        1.05391   0.00001   0.00000   0.00164   0.00164   1.05556
   D10        0.98046   0.00001   0.00000   0.00244   0.00244   0.98290
   D11       -1.08926  -0.00005   0.00000   0.00062   0.00062  -1.08864
   D12        3.04439   0.00002   0.00000   0.00260   0.00260   3.04698
   D13        3.06682   0.00004   0.00000   0.00292   0.00292   3.06975
   D14        0.99711  -0.00002   0.00000   0.00111   0.00111   0.99822
   D15       -1.15243   0.00005   0.00000   0.00308   0.00308  -1.14935
   D16       -1.10937   0.00003   0.00000   0.00266   0.00266  -1.10671
   D17        3.10410  -0.00004   0.00000   0.00085   0.00085   3.10494
   D18        0.95456   0.00003   0.00000   0.00282   0.00282   0.95738
   D19        1.12126  -0.00009   0.00000  -0.00546  -0.00546   1.11580
   D20       -3.09324   0.00006   0.00000  -0.00284  -0.00284  -3.09608
   D21       -0.94398  -0.00006   0.00000  -0.00504  -0.00503  -0.94902
   D22       -3.05627  -0.00009   0.00000  -0.00558  -0.00558  -3.06185
   D23       -0.98759   0.00006   0.00000  -0.00296  -0.00296  -0.99054
   D24        1.16167  -0.00007   0.00000  -0.00515  -0.00515   1.15652
   D25       -0.96956  -0.00005   0.00000  -0.00477  -0.00477  -0.97433
   D26        1.09913   0.00011   0.00000  -0.00215  -0.00215   1.09698
   D27       -3.03480  -0.00002   0.00000  -0.00434  -0.00434  -3.03914
   D28       -3.11803  -0.00040   0.00000  -0.00336  -0.00338  -3.12141
   D29        1.07951  -0.00034   0.00000  -0.00235  -0.00236   1.07715
   D30       -1.00961  -0.00021   0.00000   0.00070   0.00069  -1.00892
   D31       -1.01819   0.00026   0.00000   0.00639   0.00641  -1.01178
   D32       -3.10383   0.00032   0.00000   0.00741   0.00742  -3.09641
   D33        1.09024   0.00044   0.00000   0.01046   0.01047   1.10071
   D34        1.07433  -0.00005   0.00000   0.00274   0.00274   1.07707
   D35       -1.01131   0.00001   0.00000   0.00375   0.00375  -1.00756
   D36       -3.10043   0.00014   0.00000   0.00680   0.00680  -3.09363
   D37        1.02069   0.00006   0.00000   0.00378   0.00378   1.02446
   D38       -1.05327  -0.00002   0.00000   0.00243   0.00242  -1.05084
   D39        3.09694   0.00003   0.00000   0.00377   0.00376   3.10069
   D40       -0.98410   0.00008   0.00000   0.00202   0.00202  -0.98208
   D41       -3.05805  -0.00001   0.00000   0.00067   0.00067  -3.05738
[...]
 0487102,-0.10782937,-0.00181455,0.11014435,-0.00005887,-0.00007800,0.0
 0005848,-0.00007638,0.00009110,0.00003718,-0.00002777,0.00006065,0.000
 13437,0.00000785,-0.00000694,-0.00000980,-0.00005520,0.00015784,-0.000
 00501,-0.00004350,-0.00003235,-0.00000751,-0.00004238,-0.00001269,-0.0
 0005525,0.00005178,0.00003811,0.00002483,0.00072851,-0.00004498,-0.000
 59077,-0.00005000,0.00007826,-0.00007242,0.00089912,-0.00077315,0.0006
 1604,0.00015886,-0.00010814,0.00051824,-0.00060113,-0.00927765,-0.0211
 5101,-0.00220747,0.00261690,-0.00139436,0.00028417,-0.00014027,0.00094
 242,-0.00580918,-0.10380083,-0.25657811,0.00512161,0.11623942,0.280652
 31,0.00017427,-0.00014819,-0.00015277,-0.00003922,-0.00010882,0.000068
 25,0.00001253,0.00000325,-0.00000342,0.00003133,-0.00008320,0.00005551
 ,-0.00185514,0.00012361,-0.00011509,0.00003443,0.00014351,-0.00002572,
 -0.00248717,-0.00010234,-0.00046053,-0.00002027,-0.00005840,-0.0000177
 2,0.00001820,0.00008736,0.00007636,0.00002281,-0.00004204,-0.00004996,
 -0.00000916,0.00000674,0.00004986,0.00000648,-0.00002327,0.00002821,0.
 00741529,0.01855371,-0.00228214,0.00043475,-0.00069868,0.00056733,-0.0
 0182192,0.00199467,-0.00252863,-0.08855063,-0.09772833,0.01042658,-0.0
 0044155,0.00040962,-0.00048769,0.10467358,0.00008030,-0.00000470,-0.00
 006339,0.00010705,0.00003504,0.00002350,-0.00001415,-0.00000853,-0.000
 01641,0.00006186,0.00011683,-0.00002776,-0.00073606,-0.00033070,0.0006
 7916,-0.00006713,0.00046582,-0.00033365,-0.00030735,0.00053002,-0.0009
 4036,0.00002134,-0.00006806,0.00002083,0.00008979,-0.00002383,0.000040
 67,-0.00003507,0.00008514,0.00002183,-0.00000174,-0.00009256,-0.000019
 73,0.00003237,-0.00003282,-0.00002298,-0.00628706,-0.01784650,0.002696
 14,0.00025710,0.00094627,-0.00004299,0.00207034,-0.00026361,0.00253340
 ,-0.09734880,-0.26258325,0.02492699,-0.00543841,-0.01213890,0.00128076
 ,0.10513452,0.28473769,0.00018858,-0.00006054,0.00005466,-0.00007626,-
 0.00007464,0.00001642,0.00001143,0.00001339,-0.00001376,-0.00003077,-0
 .00009306,0.00001730,-0.00021542,0.00022288,0.00017037,0.00000057,-0.0
 0009512,0.00004510,-0.00001876,-0.00036509,0.00025248,-0.00003094,-0.0
 0003145,-0.00005178,-0.00014203,-0.00003421,-0.00012521,0.00002511,-0.
 00000107,-0.00003767,-0.00003562,0.00002595,-0.00000098,0.00000388,0.0
 0001946,0.00004467,0.01066124,0.02209148,-0.00359154,0.00065603,-0.000
 50291,0.00089914,-0.00284587,0.00223460,-0.00207123,0.00851187,0.02372
 246,-0.05366431,-0.01203104,-0.02505608,0.00472438,-0.01087991,-0.0297
 4067,0.05383653,-0.00042203,0.00002565,0.00019399,-0.00004655,0.000084
 14,-0.00010815,-0.00000640,-0.00001612,-0.00001463,0.00000078,0.000021
 85,-0.00000200,0.00023081,0.00006925,-0.00000876,-0.00003166,0.0000144
 1,-0.00003213,-0.00002329,0.00002181,-0.00004987,-0.00000659,-0.000022
 75,0.00000959,0.00030845,-0.00006093,-0.00029404,-0.00003294,0.0000209
 4,0.00001163,-0.00009568,-0.00005788,0.00013374,0.00001614,-0.00000684
 ,0.00013145,-0.02660996,0.00723934,0.00174996,0.00092573,-0.00077221,0
 .00108294,0.00127320,-0.00062117,0.00058904,-0.16469770,0.00945392,0.0
 3212453,-0.00095727,0.00100351,0.00215927,-0.01674200,0.00311149,0.006
 82704,0.46611885,0.00077054,0.00015550,-0.00042820,0.00015394,-0.00017
 079,0.00025275,-0.00000759,0.00001278,0.00003627,-0.00000317,-0.000020
 77,-0.00001672,-0.00075085,-0.00050044,0.00044397,-0.00001977,0.000265
 48,-0.00018965,0.00013471,0.00025734,-0.00042228,0.00004625,0.00003627
 ,0.00001266,0.00009798,0.00018923,0.00031580,-0.00003306,0.00003073,-0
 .00005668,-0.00004290,-0.00012117,0.00010308,0.00006017,-0.00007317,0.
 00005444,0.01870066,-0.00348879,-0.00601078,-0.00043514,0.00083813,-0.
 00047386,-0.00008912,0.00037630,-0.00076801,0.01397838,-0.08017512,-0.
 00955392,0.01552420,-0.00211458,-0.00436726,-0.02914018,0.00510579,0.0
 0993051,-0.03167578,0.48187229,-0.00128160,-0.00032097,0.00114886,-0.0
 0030753,0.00040540,-0.00048752,0.00000167,-0.00001501,-0.00003256,0.00
 002264,0.00004854,-0.00001719,0.00043492,0.00098023,-0.00000866,-0.000
 11800,-0.00010412,-0.00002181,0.00006328,-0.00004583,-0.00006065,0.000
 00298,-0.00007000,0.00000923,0.00044815,-0.00046352,-0.00135150,-0.000
 00351,0.00006846,0.00004895,-0.00001001,-0.00017418,0.00036896,0.00003
 847,0.00000013,0.00035545,-0.01691394,-0.00114254,0.00878560,-0.001287
 66,0.00015098,0.00089566,0.00016716,0.00005991,0.00072562,0.03174186,-
 0.00979486,-0.08907733,0.02962748,-0.00417617,-0.00975887,0.00228027,-
 0.00059390,-0.00180472,0.01604357,0.02359321,0.57706517,-0.00053375,-0
 .00019471,0.00053146,-0.00013675,0.00016164,-0.00020800,0.00000399,0.0
 0000383,-0.00001297,0.00000807,0.00000792,-0.00000665,0.00022565,0.000
 43330,-0.00000108,-0.00005872,-0.00007591,0.00000669,0.00002846,-0.000
 02941,-0.00000188,-0.00000159,-0.00002686,0.00000454,0.00000569,-0.000
 23480,-0.00042597,0.00001061,0.00000879,0.00002718,0.00004524,-0.00000
 324,0.00001266,-0.00002665,0.00004572,0.00008673,-0.00401723,-0.000781
 88,0.00414732,0.00000281,-0.00030196,0.00016485,0.00010330,0.00011302,
 0.00009161,-0.01824669,0.01883161,-0.01974317,0.00148848,-0.00001467,0
 .00013816,0.00158520,-0.00042006,-0.00061233,-0.09904075,0.07187713,-0
 .07611058,0.11488021,0.00005129,0.00004274,-0.00009483,0.00000924,-0.0
 0002631,0.00002602,0.00000018,-0.00000189,0.00000069,-0.00000260,-0.00
 000366,0.00000462,0.00003045,-0.00007545,-0.00001529,0.00001763,0.0000
 2017,0.00000366,-0.00001732,-0.00000498,0.00000872,0.00000046,0.000005
 38,-0.00000009,-0.00002422,0.00005210,0.00007407,-0.00000392,0.0000005
 1,-0.00000216,-0.00001091,-0.00000124,0.00000336,0.00000166,-0.0000049
 8,-0.00000295,0.00006937,0.00092123,-0.00080123,-0.00000996,-0.0000394
 4,0.00019931,-0.00014887,0.00018408,-0.00021344,0.00200312,-0.00271422
 ,0.00185990,-0.00006255,0.00006586,0.00011250,-0.00013436,0.00076250,-
 0.00045108,0.07785580,-0.14196012,0.10251501,-0.08120921,0.15159629,0.
 00018403,0.00000899,-0.00009117,0.00004421,-0.00004709,0.00004944,-0.0
 0000038,0.00000431,-0.00000291,-0.00000341,-0.00000069,-0.00000341,-0.
 00005032,-0.00007417,0.00001378,0.00000953,0.00001729,-0.00000672,-0.0
 0000208,0.00001383,-0.00001304,0.00000395,0.00000563,-0.00000124,-0.00
 009151,0.00005376,0.00010988,-0.00000130,-0.00000003,-0.00000404,-0.00
 000002,0.00000390,-0.00002343,-0.00000068,0.00000716,-0.00000518,0.001
 45124,-0.00016054,-0.00050466,0.00008319,0.00002396,0.00028732,0.00000
 796,0.00000667,-0.00012022,0.00741339,-0.00788254,0.00713803,-0.000634
 68,0.00003455,0.00071583,-0.00072718,-0.00021075,0.00038581,-0.0805126
 2,0.10034316,-0.14790775,0.08401273,-0.11012732,0.15850101,0.00000638,
 -0.00002130,-0.00000080,-0.00000063,-0.00000295,-0.00000194,-0.0000029
 0,0.00000504,-0.00000525,-0.00000089,-0.00000617,0.00000152,0.00001438
 ,-0.00000579,0.00003755,-0.00000588,0.00000150,-0.00001015,0.00003011,
 0.00002054,-0.00001321,0.00000083,-0.00000475,-0.00000404,-0.00015659,
 -0.00002315,0.00018142,0.00001321,-0.00002280,0.00000677,0.00005768,0.
 00005816,-0.00017581,-0.00004568,0.00005382,-0.00010368,0.00147461,0.0
 0003721,0.00170717,-0.00003710,-0.00008844,-0.00054158,-0.00006632,0.0
 0007355,-0.00008480,-0.00181334,0.01448094,0.02843180,-0.00575604,0.00
 094644,0.00174171,0.00124994,-0.00035996,-0.00055142,-0.04853590,-0.00
 110566,-0.00077107,-0.00036118,-0.00710853,-0.01322878,0.05451925,0.00
 001569,-0.00001056,0.00000492,-0.00000548,0.00000003,0.00000657,0.0000
 0078,0.00000237,0.00000319,-0.00000178,0.00000064,-0.00000171,0.000017
 50,0.00000930,-0.00002060,-0.00000012,-0.00000680,0.00000494,-0.000011
 12,-0.00000954,0.00001084,0.00000169,0.00000110,0.00000158,-0.00003085
 ,0.00001421,-0.00001417,-0.00000172,0.00000340,0.00000042,-0.00000128,
 -0.00001052,0.00001891,-0.00000384,0.00000829,0.00002174,-0.00030083,-
 0.00007433,-0.00070898,0.00020157,-0.00008439,0.00014850,0.00000464,-0
 .00001457,-0.00000079,0.00025666,-0.00185696,-0.00249439,0.00023729,0.
 00056670,-0.00039190,0.00030024,0.00028904,0.00026103,-0.00228361,-0.0
 9505278,-0.10253008,-0.00036608,0.00952092,0.01753771,0.00216844,0.103
 70155,0.00006002,0.00002838,-0.00007360,0.00001871,-0.00002212,0.00002
 114,-0.00000044,-0.00000166,-0.00000141,-0.00000154,0.00000170,0.00000
 053,0.00000767,-0.00004952,-0.00004576,0.00001266,0.00000525,0.0000128
 2,-0.00002291,-0.00001752,0.00001888,0.00000012,0.00000399,0.00000620,
 -0.00011132,0.00010964,-0.00002430,-0.00000436,-0.00000299,-0.00000446
 ,-0.00002377,-0.00003470,0.00004530,-0.00000161,0.00000855,0.00004547,
 -0.00107047,0.00072834,0.00046168,0.00032684,-0.00029367,0.00045922,0.
 00003193,-0.00002007,-0.00001888,0.00125400,-0.00414080,-0.00929432,0.
 00213147,0.00019232,0.00061887,0.00010461,0.00030137,0.00025900,-0.002
 40847,-0.10591707,-0.25629385,-0.00063983,-0.00862101,-0.01767888,-0.0
 0200023,0.11362019,0.27820919,-0.09755680,0.01353527,-0.01634530,-0.01
 506391,0.02164842,-0.02872863,-0.00117403,-0.00128030,0.00078509,0.005
 01079,-0.00751595,0.01125495,-0.10421108,-0.02353683,0.00009118,-0.019
 53046,-0.03624329,0.00103400,0.00546286,0.00947692,0.00124270,-0.00046
 801,0.00222013,-0.00081433,-0.09164156,0.00179927,0.00243095,0.0014964
 1,-0.00791419,-0.01746359,0.00051845,-0.00764114,-0.01023530,-0.003543
 76,0.01750573,0.03283714,-0.11602299,-0.00170199,0.01412178,-0.0118729
 1,0.00027903,0.00322078,-0.02539693,0.00248705,0.00746669,-0.02448473,
 0.00434509,0.00482458,0.00096843,-0.00025208,0.00027151,0.00104823,-0.
 00083283,0.00008498,0.00066620,0.00220354,-0.00545550,-0.00152687,0.00
 004227,0.00067039,0.00031429,-0.00001639,0.00021038,0.49653844,0.01511
 408,-0.10948308,0.02576016,0.00303212,-0.00693937,0.00640348,-0.006238
 66,0.00737232,-0.00948623,0.01586688,-0.02008639,0.02623058,-0.0282032
 2,-0.14006972,0.00157780,-0.00026699,-0.00072817,0.00024113,-0.0133180
 9,-0.02266970,-0.00087834,-0.01191202,-0.02137144,0.00138293,0.0028234
 1,-0.10383775,-0.02575000,0.00559947,-0.01699502,-0.03112911,-0.003447
 24,0.00901941,0.01567069,0.00052890,-0.00657457,-0.00923367,0.00326582
 ,-0.08808494,-0.00108899,0.01829528,-0.00299226,-0.00478394,-0.0316056
 0,0.00305365,0.00893107,0.01855322,-0.00207659,-0.00869160,-0.00076768
 ,0.00058210,-0.00023199,-0.00042759,-0.00011410,-0.00051093,0.00106827
 ,-0.00251685,0.00404331,0.00157537,0.00009783,-0.00029584,-0.00028106,
 0.00007777,0.00006355,0.01097533,0.52456942,-0.01962724,0.02640284,-0.
 12167791,0.00089808,-0.00171487,0.00040197,-0.01509113,0.02201321,-0.0
 2650412,-0.00198987,0.00271621,-0.00546681,0.00163795,0.00124034,-0.08
 962046,0.00288786,0.00532921,-0.00195681,0.01560348,0.02349350,-0.0006
 3308,-0.01678527,-0.02769097,0.00097030,0.00689633,-0.02745437,-0.1392
 4235,0.00057320,-0.00209816,-0.00489483,0.00459161,-0.01695318,-0.0278
 2617,0.00123709,-0.00551320,-0.01227495,0.00552806,0.00093068,-0.09297
 697,0.03386365,-0.00285359,-0.00974790,0.00374193,-0.00055947,-0.00249
 542,-0.02014479,-0.00164900,0.01029988,0.00001107,-0.00079448,-0.00005
 501,0.00077523,0.00003346,0.00078947,-0.00168776,0.00236834,-0.0040163
 9,-0.00150960,0.00033592,0.00061452,-0.00000158,0.00013367,0.00027968,
 -0.00145977,0.00206251,0.52607252,0.00020108,0.00025426,-0.00050715,0.
 00012600,-0.00010954,0.00013911,0.00000542,-0.00001669,0.00000855,0.00
 000176,0.00001314,0.00000993,0.00001978,-0.00049575,-0.00005485,0.0001
 1312,0.00014157,-0.00000920,-0.00004499,0.00003050,0.00000192,-0.00000
 191,0.00001638,-0.00000883,0.00010587,0.00025090,0.00034354,-0.0000163
 9,0.00002201,-0.00002550,-0.00005688,-0.00004700,0.00006543,0.00006173
 ,-0.00007539,-0.00005443,-0.00215336,-0.00136722,-0.00120463,0.0001746
 1,0.00016293,0.00003328,-0.00142334,0.00089730,-0.00046727,-0.01877912
 ,-0.02247410,0.00475977,0.00127865,-0.00009656,-0.00031918,-0.00181127
 ,0.00145667,0.00098878,-0.10579892,-0.03082906,-0.00990742,0.00981798,
 0.01598665,0.00013622,-0.00091541,0.00043263,0.00321319,0.00127831,-0.
 00019602,0.00065217,0.47232192,0.00043224,0.00027690,-0.00060396,0.000
 13941,-0.00017221,0.00020256,-0.00000089,-0.00002418,0.00000488,-0.000
 00725,-0.00002003,0.00002337,0.00000221,-0.00040185,-0.00019673,0.0001
 2506,-0.00001692,0.00011856,-0.00015059,-0.00011176,0.00020916,-0.0000
 1517,0.00003177,-0.00001212,0.00012463,0.00041453,0.00035871,-0.000008
 48,-0.00005080,-0.00001187,-0.00010223,-0.00000927,0.00012965,0.000059
 55,-0.00011662,-0.00006284,-0.00157272,0.00279758,-0.00304632,-0.00004
 120,-0.00011692,0.00001255,0.00029191,-0.00065992,0.00032846,-0.003825
 72,0.01074665,0.00663113,-0.00000151,-0.00147551,-0.00188862,0.0055211
 3,-0.00003517,-0.00286025,-0.02802455,-0.12992408,0.00449422,-0.009793
 25,-0.01902977,0.00036988,-0.00236922,-0.01043977,0.00257040,0.0013884
 6,-0.00126116,0.00090279,0.05350669,0.54311305,-0.00000556,-0.00005202
 ,0.00011362,-0.00001906,0.00002658,-0.00003076,-0.00000641,-0.00000518
 ,-0.00001029,-0.00000101,-0.00000077,0.00000250,-0.00005394,0.00017302
 ,-0.00001558,-0.00004690,-0.00005978,0.00001792,0.00000186,-0.00000217
 ,0.00001958,-0.00000307,-0.00000249,0.00000351,0.00002254,0.00002543,-
 0.00005511,0.00000765,-0.00005599,0.00002369,0.00002373,0.00002432,-0.
 00002250,-0.00002796,-0.00000707,-0.00000220,-0.00118738,-0.00065387,0
 .00037620,-0.00012303,-0.00021258,-0.00013789,0.00009186,-0.00059680,0
 .00060510,0.00477368,0.00702978,-0.00307691,0.00019832,-0.00029178,-0.
 00110643,0.00133361,-0.00098513,-0.00045562,-0.00630615,0.00817813,-0.
 08117085,0.01282098,0.02040639,-0.00172554,-0.01483639,-0.02617020,-0.
 00025020,-0.00024966,-0.00022191,-0.00026370,-0.18912595,0.13304854,0.
 52030482,-0.00000615,-0.00012806,0.00025392,-0.00005743,0.00004190,-0.
 00005589,0.00000087,0.00001209,-0.00000172,0.00000946,-0.00001709,-0.0
 0000184,-0.00012798,0.00029466,0.00008136,-0.00007885,-0.00007833,0.00
 000389,0.00003478,0.00001409,-0.00003211,0.00001000,0.00000419,0.00001
 201,0.00003770,-0.00008288,-0.00017370,0.00000383,-0.00004041,0.000007
 44,0.00006368,0.00001337,-0.00004360,-0.00003208,0.00003213,0.00002474
 ,0.00002977,0.00044025,-0.00023742,-0.00030941,-0.00027855,-0.00007047
 ,-0.00052479,-0.00128423,0.00026973,-0.00007521,-0.00037178,0.00033485
 ,-0.00011437,-0.00106725,-0.00182056,-0.00008754,-0.00068965,-0.001014
 20,0.01302809,-0.01524396,-0.00269742,-0.00120332,-0.00362857,-0.00023
 824,0.00002777,-0.00308450,-0.00079696,-0.00029334,-0.00035067,-0.0002
 3199,-0.09157111,0.03150408,0.03951463,0.09075570,-0.00020926,-0.00012
 538,0.00026028,-0.00006500,0.00007406,-0.00008860,0.00000417,0.0000118
 6,0.00000354,0.00000174,0.00000812,-0.00001058,0.00006089,0.00015180,0
 .00007402,-0.00004141,0.00000693,-0.00004141,0.00006136,0.00003848,-0.
 00007954,0.00001079,-0.00001037,0.00001047,-0.00007068,-0.00023707,-0.
 00014631,0.00000449,0.00004558,-0.00000337,0.00005422,0.00000455,-0.00
 006670,-0.00002156,0.00006947,0.00002671,0.00120687,-0.00092559,0.0012
 1954,-0.00002376,0.00009434,0.00002284,-0.00020795,0.00038823,-0.00022
 247,0.00195278,-0.00146152,-0.00198305,-0.00016070,0.00028262,-0.00001
 704,-0.00112333,0.00016023,0.00043461,-0.00293039,-0.03567182,-0.03439
 155,0.00024835,-0.00016025,-0.00042648,-0.00552347,-0.00842287,0.00003
 365,-0.00050183,0.00067357,-0.00034632,0.00609751,-0.29355632,-0.14716
 307,-0.04431426,0.32756565,-0.00004514,-0.00004086,0.00009242,-0.00002
 378,0.00001703,-0.00002824,0.00000611,0.00000611,0.00000113,0.00000738
 ,-0.00000473,-0.00000506,-0.00002684,0.00009179,0.00002479,-0.00001660
 ,-0.00002208,-0.00000384,0.00001257,-0.00000344,-0.00001289,0.00000460
 ,0.00000182,0.00000370,-0.00003104,-0.00007987,-0.00009718,0.00000028,
 0.00002440,-0.00000909,-0.00000866,-0.00000258,-0.00000394,-0.00000703
 ,0.00001989,0.00001970,0.00004698,0.00046595,0.00019293,0.00001117,-0.
 00016304,0.00007761,-0.00029341,-0.00032646,-0.00008645,0.00229470,0.0
 0194631,-0.00105243,-0.00036867,0.00106588,0.00139898,-0.00011463,0.00
 042687,0.00069601,0.00617574,-0.01829332,0.00571965,-0.00173221,-0.003
 17967,-0.00031722,-0.00025013,-0.00042416,0.00099783,-0.00024864,0.000
 07690,-0.00011468,0.02206636,-0.17158121,-0.20647047,-0.09257436,0.237
 29997,0.26895822,-0.00014295,-0.00013988,0.00030475,-0.00007311,0.0000
 7339,-0.00008784,-0.00000045,0.00001009,-0.00000240,0.00000320,-0.0000
 0456,-0.00000933,-0.00003379,0.00021986,0.00012673,-0.00007641,-0.0000
 0271,-0.00004736,0.00006852,0.00005577,-0.00011134,0.00000876,-0.00001
 197,0.00000771,-0.00004753,-0.00015364,-0.00016155,0.00001769,-0.00002
 148,0.00001775,0.00006365,0.00001969,-0.00007532,-0.00004127,0.0000433
 3,0.00001586,0.00113496,-0.00084738,0.00104080,-0.00014007,-0.00002297
 ,-0.00009910,0.00019438,0.00014401,0.00004448,-0.00075543,-0.00639125,
 0.00006138,0.00009174,0.00023378,0.00003678,-0.00284118,0.00011544,0.0
 0052505,-0.01952062,-0.01417128,0.03399178,-0.00305218,-0.00370709,0.0
 0147438,-0.00001058,0.00247047,-0.00028967,-0.00051502,0.00031669,-0.0
 0036870,-0.26293352,-0.04718258,0.15320362,-0.00952005,0.04549043,0.06
 511525,0.29812127,-0.00014875,-0.00011529,0.00024235,-0.00005417,0.000
 06588,-0.00007805,-0.00000078,0.00000833,-0.00000281,0.00000023,0.0000
 0597,-0.00000767,-0.00001181,0.00015822,0.00010632,-0.00004962,0.00000
 903,-0.00004461,0.00006050,0.00005010,-0.00009622,0.00000637,-0.000010
 60,0.00000434,-0.00004834,-0.00015665,-0.00012990,0.00000313,0.0000109
 2,0.00000631,0.00004652,0.00000710,-0.00006452,-0.00002798,0.00004513,
 0.00001470,0.00096005,-0.00089812,0.00108074,-0.00004225,0.00000963,-0
 .00008659,-0.00007483,0.00011020,-0.00013393,-0.00140647,-0.00652997,0
 .00025076,-0.00019272,0.00043279,0.00049624,-0.00245963,0.00030836,0.0
 0092074,-0.03351817,0.00265065,0.01746331,0.00014535,0.00075270,0.0007
 9462,-0.00092241,0.00178777,0.00145379,-0.00046971,0.00035504,-0.00033
 505,-0.02356180,-0.09995822,0.00756861,0.03830346,0.01099571,-0.047321
 51,0.02346382,0.08990532,0.00010269,0.00010113,-0.00022937,0.00004751,
 -0.00005684,0.00006891,0.00000534,-0.00000216,0.00000702,0.00000164,-0
 .00000199,0.00000287,0.00004307,-0.00017964,-0.00009293,0.00005856,0.0
 0001109,0.00003044,-0.00004547,-0.00004139,0.00007726,-0.00000250,0.00
 000953,-0.00000571,0.00001140,0.00007723,0.00011749,-0.00000835,0.0000
 3627,-0.00001968,-0.00004930,-0.00001443,0.00004988,0.00003292,-0.0000
 1880,-0.00001241,-0.00038762,0.00075240,-0.00079894,0.00012120,0.00008
 552,0.00009911,-0.00027636,0.00005737,-0.00019113,0.00059535,0.0052275
 7,0.00212702,-0.00044802,-0.00007907,0.00034263,0.00207957,0.00001273,
 -0.00037452,0.02419210,0.00086542,-0.00311351,-0.00104066,-0.00204109,
 0.00058979,0.00047292,0.00098277,0.00224983,0.00045363,-0.00014155,0.0
 0033922,0.16926617,0.03085906,-0.22667290,0.05948794,-0.05439915,-0.06
 998148,-0.25471371,0.01789802,0.29539112\\-0.00000622,-0.00000651,-0.0
 0000619,-0.00000479,-0.00001131,-0.00000234,-0.00000391,-0.00001039,-0
 .00000031,-0.00000911,-0.00000730,-0.00000489,0.00000193,-0.00000875,0
 .00000148,0.00000333,-0.00001220,0.00000245,0.00000489,-0.00000418,0.0
 0000353,0.00000524,-0.00001002,0.00000397,-0.00000300,0.00000301,0.000
 00471,-0.00000673,-0.00000065,-0.00000242,-0.00000039,0.00000034,-0.00
 000029,-0.00000299,-0.00000656,-0.00000092,0.00000908,0.00000113,-0.00
 000110,0.00000105,-0.00000137,0.00000196,-0.00000202,0.00000030,-0.000
 00195,-0.00000356,0.00000487,0.00000205,0.00000254,0.00000875,-0.00000
 035,0.00000830,0.00000515,0.00000234,0.00000658,-0.00000182,0.00000108
 ,0.00000587,0.00001417,0.00000371,0.00000526,0.00000881,0.00000300,-0.
 00000731,-0.00000916,0.00000010,0.00000861,0.00000256,-0.00002102,-0.0
 0000534,0.00002371,0.00000837,-0.00000732,0.00001741,0.00000302\\\@


 A MAN IS NEVER SO BRILLIANT AS WHEN HE TAKES THE WORDS RIGHT OUT
 OF YOUR MOUTH. -- ARNOT SHEPPARD, JR.
 Job cpu time:       0 days  1 hours 56 minutes 31.4 seconds.
 Elapsed time:       0 days  0 hours  4 minutes 54.0 seconds.
 File lengths (MBytes):  RWF=    321 Int=      0 D2E=      0 Chk=     19 Scr=      1
 Normal termination of Gaussian 16 at Wed Oct 11 20:21:07 2023.
