 Entering Gaussian System, Link 0=g16
 Initial command:
 /data0/home/software/g16/l1.exe "/data0/home/software/g16/scratch/Gau-306702.inp" -scrdir="/data0/home/software/g16/scratch/"
 Default is to use a total of  22 processors:
                               22 via shared-memory
                                1 via Linda
 Entering Link 1 = /data0/home/software/g16/l1.exe PID=    306703.
  
 Copyright (c) 1988,1990,1992,1993,1995,1998,2003,2009,2016,
            Gaussian, Inc.  All Rights Reserved.
  
 This is part of the Gaussian(R) 16 program.  It is based on
 the Gaussian(R) 09 system (copyright 2009, Gaussian, Inc.),
 the Gaussian(R) 03 system (copyright 2003, Gaussian, Inc.),
 the Gaussian(R) 98 system (copyright 1998, Gaussian, Inc.),
 the Gaussian(R) 94 system (copyright 1995, Gaussian, Inc.),
 the Gaussian 92(TM) system (copyright 1992, Gaussian, Inc.),
 the Gaussian 90(TM) system (copyright 1990, Gaussian, Inc.),
 the Gaussian 88(TM) system (copyright 1988, Gaussian, Inc.),
 the Gaussian 86(TM) system (copyright 1986, Carnegie Mellon
 University), and the Gaussian 82(TM) system (copyright 1983,
 Carnegie Mellon University). Gaussian is a federally registered
 trademark of Gaussian, Inc.
  
 This software contains proprietary and confidential information,
 including trade secrets, belonging to Gaussian, Inc.
  
 This software is provided under written license and may be
 used, copied, transmitted, or stored only in accord with that
 written license.
  
 The following legend is applicable only to US Government
 contracts under FAR:
  
                    RESTRICTED RIGHTS LEGEND
  
 Use, reproduction and disclosure by the US Government is
 subject to restrictions as set forth in subparagraphs (a)
 and (c) of the Commercial Computer Software - Restricted
 Rights clause in FAR 52.227-19.
  
 Gaussian, Inc.
 340 Quinnipiac St., Bldg. 40, Wallingford CT 06492
  
  
 ---------------------------------------------------------------
 Warning -- This program may not be used in any manner that
 competes with the business of Gaussian, Inc. or will provide
 assistance to any competitor of Gaussian, Inc.  The licensee
 of this program is prohibited from giving any competitor of
 Gaussian, Inc. access to this program.  By using this program,
 the user acknowledges that Gaussian, Inc. is engaged in the
 business of creating and licensing software in the field of
 computational chemistry and represents and warrants to the
 licensee that it is not a competitor of Gaussian, Inc. and that
 it will not use this program in any manner prohibited above.
 ---------------------------------------------------------------
  

 Cite this work as:
 Gaussian 16, Revision A.03,
 M. J. Frisch, G. W. Trucks, H. B. Schlegel, G. E. Scuseria, 
 M. A. Robb, J. R. Cheeseman, G. Scalmani, V. Barone, 
 G. A. Petersson, H. Nakatsuji, X. Li, M. Caricato, A. V. Marenich, 
 J. Bloino, B. G. Janesko, R. Gomperts, B. Mennucci, H. P. Hratchian, 
 J. V. Ortiz, A. F. Izmaylov, J. L. Sonnenberg, D. Williams-Young, 
 F. Ding, F. Lipparini, F. Egidi, J. Goings, B. Peng, A. Petrone, 
 T. Henderson, D. Ranasinghe, V. G. Zakrzewski, J. Gao, N. Rega, 
 G. Zheng, W. Liang, M. Hada, M. Ehara, K. Toyota, R. Fukuda, 
 J. Hasegawa, M. Ishida, T. Nakajima, Y. Honda, O. Kitao, H. Nakai, 
 T. Vreven, K. Throssell, J. A. Montgomery, Jr., J. E. Peralta, 
 F. Ogliaro, M. J. Bearpark, J. J. Heyd, E. N. Brothers, K. N. Kudin, 
 V. N. Staroverov, T. A. Keith, R. Kobayashi, J. Normand, 
 K. Raghavachari, A. P. Rendell, J. C. Burant, S. S. Iyengar, 
 J. Tomasi, M. Cossi, J. M. Millam, M. Klene, C. Adamo, R. Cammi, 
 J. W. Ochterski, R. L. Martin, K. Morokuma, O. Farkas, 
 J. B. Foresman, and D. J. Fox, Gaussian, Inc., Wallingford CT, 2016.
 
 ******************************************
 Gaussian 16:  ES64L-G16RevA.03 25-Dec-2016
                19-Feb-2023 
 ******************************************
 %nproc=24
 Will use up to   24 processors via shared memory.
 %mem=50GB
 ---------------------------------------------------
 #p M062X/6-311+G(2d,p) nosymm em=GD3 counterpoise=4
 ---------------------------------------------------
 1/38=1,62=4,172=1/1;
 2/12=2,15=1,17=6,18=5,40=1/2;
 1/38=1,53=2,62=4,63=1/22;
 3/5=4,6=6,7=112,11=2,25=1,30=1,74=-55,124=31/1,2,3;
 4//1;
 5/5=2,38=5/2;
 6/7=2,8=2,9=2,10=2,28=1/1;
 1/53=2,62=4,63=1/22;
 3/5=7,6=11,7=112,11=2,25=1,30=1,74=-55,82=7,124=31/1,2,3;
 4//1;
 5/5=2,38=5/2;
 6/7=2,8=2,9=2,10=2,28=1/1;
 1/53=2,62=4,63=1/22(-4);
 99/5=1,9=1/99;
 Leave Link    1 at Sun Feb 19 15:07:18 2023, MaxMem=  6710886400 cpu:               0.7 elap:               0.0
 (Enter /data0/home/software/g16/l101.exe)
 -------------------
 Title Card Required
 -------------------
 Symbolic Z-matrix:
 Charge =  0 Multiplicity = 1 in supermolecule
 Charge =  0 Multiplicity = 1 in fragment      1.
 Charge =  0 Multiplicity = 1 in fragment      2.
 Charge =  0 Multiplicity = 1 in fragment      3.
 Charge =  0 Multiplicity = 1 in fragment      4.
 P                     10.13086   7.44911   7.47456    
 O                     11.15321   6.81341   8.29833    
 O                     8.73998   7.40761   8.23734    
 H                     8.01817   7.96195   7.73662    
 O                     10.38225   8.91622   6.94903    
 H                     10.55828   9.58684   7.77861    
 O                     9.77018   6.69905   6.10435    
 H                     10.4622   6.98263   5.4023     
 O                     6.67216   9.02304   7.14036    
 H                     6.18033   8.62141   6.43313    
 H                     7.17018   9.77239   6.71438    
 O                     8.20171   10.86733   5.94532    
 H                     8.35715   11.58384   6.60916    
 H                     9.00746   10.34266   6.01278    
 O                     6.62265   9.2895    10.09019    
 H                     6.49962   9.18369   9.14203    
 H                     7.22573   10.05638   10.15051    
 
 ITRead=  0  0  0  0  0  0  0  0  0  0  0  0  0  0  0  0  0
 MicOpt= -1 -1 -1 -1 -1 -1 -1 -1 -1 -1 -1 -1 -1 -1 -1 -1 -1
 NAtoms=     17 NQM=       17 NQMF=       0 NMMI=      0 NMMIF=      0
                NMic=       0 NMicF=      0.
                    Isotopes and Nuclear Properties:
 (Nuclear quadrupole moments (NQMom) in fm**2, nuclear magnetic moments (NMagM)
  in nuclear magnetons)

  Atom         1           2           3           4           5           6           7           8           9          10
 IAtWgt=          31          16          16           1          16           1          16           1          16           1
 AtmWgt=  30.9737634  15.9949146  15.9949146   1.0078250  15.9949146   1.0078250  15.9949146   1.0078250  15.9949146   1.0078250
 NucSpn=           1           0           0           1           0           1           0           1           0           1
 AtZEff=  -0.0000000  -0.0000000  -0.0000000  -0.0000000  -0.0000000  -0.0000000  -0.0000000  -0.0000000  -0.0000000  -0.0000000
 NQMom=    0.0000000   0.0000000   0.0000000   0.0000000   0.0000000   0.0000000   0.0000000   0.0000000   0.0000000   0.0000000
 NMagM=    1.1316000   0.0000000   0.0000000   2.7928460   0.0000000   2.7928460   0.0000000   2.7928460   0.0000000   2.7928460
 AtZNuc=  15.0000000   8.0000000   8.0000000   1.0000000   8.0000000   1.0000000   8.0000000   1.0000000   8.0000000   1.0000000

  Atom        11          12          13          14          15          16          17
 IAtWgt=           1          16           1           1          16           1           1
 AtmWgt=   1.0078250  15.9949146   1.0078250   1.0078250  15.9949146   1.0078250   1.0078250
 NucSpn=           1           0           1           1           0           1           1
 AtZEff=  -0.0000000  -0.0000000  -0.0000000  -0.0000000  -0.0000000  -0.0000000  -0.0000000
 NQMom=    0.0000000   0.0000000   0.0000000   0.0000000   0.0000000   0.0000000   0.0000000
 NMagM=    2.7928460   0.0000000   2.7928460   2.7928460   0.0000000   2.7928460   2.7928460
 AtZNuc=   1.0000000   8.0000000   1.0000000   1.0000000   8.0000000   1.0000000   1.0000000
 Leave Link  101 at Sun Feb 19 15:07:18 2023, MaxMem=  6710886400 cpu:               2.0 elap:               0.1
 (Enter /data0/home/software/g16/l202.exe)
                          Input orientation:                          
 ---------------------------------------------------------------------
 Center     Atomic      Atomic             Coordinates (Angstroms)
 Number     Number       Type             X           Y           Z
 ---------------------------------------------------------------------
      1         15           0       10.130861    7.449115    7.474560
      2          8           0       11.153215    6.813412    8.298325
      3          8           0        8.739975    7.407611    8.237345
      4          1           0        8.018170    7.961954    7.736617
      5          8           0       10.382252    8.916224    6.949025
      6          1           0       10.558283    9.586841    7.778612
      7          8           0        9.770184    6.699050    6.104347
      8          1           0       10.462198    6.982634    5.402295
      9          8           0        6.672164    9.023042    7.140364
     10          1           0        6.180332    8.621413    6.433125
     11          1           0        7.170178    9.772395    6.714376
     12          8           0        8.201705   10.867328    5.945323
     13          1           0        8.357150   11.583840    6.609160
     14          1           0        9.007458   10.342656    6.012781
     15          8           0        6.622647    9.289502   10.090189
     16          1           0        6.499619    9.183694    9.142028
     17          1           0        7.225727   10.056383   10.150510
 ---------------------------------------------------------------------
                    Distance matrix (angstroms):
                    1          2          3          4          5
     1  P    0.000000
     2  O    1.458737   0.000000
     3  O    1.586861   2.486065   0.000000
     4  H    2.189781   3.385731   1.038762   0.000000
     5  O    1.578542   2.614730   2.575414   2.668298   0.000000
     6  H    2.201138   2.883740   2.875017   3.015658   1.081170
     7  O    1.603175   2.596034   2.472462   2.707173   2.450300
     8  H    2.149807   2.982135   3.344274   3.518721   2.477405
     9  O    3.814645   5.128660   2.844086   1.814706   3.716554
    10  H    4.250359   5.610473   3.358615   2.347685   4.243725
    11  H    3.839421   5.208556   3.221164   2.245387   3.332493
    12  O    4.212409   5.539157   4.184823   3.418131   3.093382
    13  H    4.581585   5.781716   4.498714   3.808428   3.366411
    14  H    3.430949   4.720545   3.692522   3.101297   2.191191
    15  O    4.747221   5.465148   3.384911   3.041245   4.913337
    16  H    4.356045   5.290182   2.998686   2.402879   4.467174
    17  H    4.732690   5.419651   3.601269   3.292640   4.638224
                    6          7          8          9         10
     6  H    0.000000
     7  O    3.429811   0.000000
     8  H    3.526756   1.025758   0.000000
     9  O    3.978335   4.008990   4.642037   0.000000
    10  H    4.680688   4.085415   4.699211   0.950469   0.000000
    11  H    3.556161   4.071562   4.510179   0.995497   1.543910
    12  O    3.248701   4.456451   4.527202   2.677501   3.060724
    13  H    3.193839   5.110056   5.201812   3.111116   3.680421
    14  H    2.468699   3.723708   3.711968   2.909712   3.336466
    15  O    4.573951   5.701260   6.483837   2.962249   3.743809
    16  H    4.300487   5.108577   5.876419   2.015500   2.785006
    17  H    4.117317   5.841009   6.516765   3.230357   4.119580
                   11         12         13         14         15
    11  H    0.000000
    12  O    1.689488   0.000000
    13  H    2.168250   0.989056   0.000000
    14  H    2.047689   0.963882   1.522861   0.000000
    15  O    3.453851   4.707746   4.515534   4.839598   0.000000
    16  H    2.586448   3.993826   3.953042   4.174283   0.961946
    17  H    3.448297   4.392467   4.019254   4.514124   0.977472
                   16         17
    16  H    0.000000
    17  H    1.518504   0.000000
 Symmetry turned off by external request.
 Stoichiometry    H9O7P
 Framework group  C1[X(H9O7P)]
 Deg. of freedom    45
 Full point group                 C1      NOp   1
 Rotational constants (GHZ):           1.4973240           0.8234958           0.6526378
 Leave Link  202 at Sun Feb 19 15:07:18 2023, MaxMem=  6710886400 cpu:               0.1 elap:               0.0
 (Enter /data0/home/software/g16/l122.exe)
 Counterpoise: doing full-system calculation.
 Leave Link  122 at Sun Feb 19 15:07:18 2023, MaxMem=  6710886400 cpu:               0.1 elap:               0.0
 (Enter /data0/home/software/g16/l301.exe)
 Standard basis: 6-311+G(2d,p) (5D, 7F)
 Ernie: Thresh=  0.10000D-02 Tol=  0.10000D-05 Strict=F.
   278 basis functions,   422 primitive gaussians,   294 cartesian basis functions
    40 alpha electrons       40 beta electrons
       nuclear repulsion energy       549.7160570026 Hartrees.
 IExCor= 4336 DFT=T Ex+Corr=M062X ExCW=0 ScaHFX=  0.540000
 ScaDFX=  1.000000  1.000000  1.000000  1.000000 ScalE2=  1.000000  1.000000
 IRadAn=      5 IRanWt=     -1 IRanGd=            0 ICorTp=0 IEmpDi=131
 NAtoms=   17 NActive=   17 NUniq=   17 SFac= 1.00D+00 NAtFMM=   60 NAOKFM=F Big=F
 Integral buffers will be    131072 words long.
 Raffenetti 2 integral format.
 Two-electron integral symmetry is turned off.
 R6Disp:  Grimme-D3 Dispersion energy=       -0.0006535782 Hartrees.
 Nuclear repulsion after empirical dispersion term =      549.7154034244 Hartrees.
 Leave Link  301 at Sun Feb 19 15:07:18 2023, MaxMem=  6710886400 cpu:               1.1 elap:               0.1
 (Enter /data0/home/software/g16/l302.exe)
 NPDir=0 NMtPBC=     1 NCelOv=     1 NCel=       1 NClECP=     1 NCelD=      1
         NCelK=      1 NCelE2=     1 NClLst=     1 CellRange=     0.0.
 One-electron integrals computed using PRISM.
 NBasis=   278 RedAO= T EigKep=  3.41D-04  NBF=   278
 NBsUse=   278 1.00D-06 EigRej= -1.00D+00 NBFU=   278
 Precomputing XC quadrature grid using
 IXCGrd= 4 IRadAn=           5 IRanWt=          -1 IRanGd=           0 AccXCQ= 0.00D+00.
 Generated NRdTot=       0 NPtTot=           0 NUsed=           0 NTot=          32
 NSgBfM=   294   294   294   294   294 MxSgAt=    17 MxSgA2=    17.
 Leave Link  302 at Sun Feb 19 15:07:19 2023, MaxMem=  6710886400 cpu:               4.4 elap:               0.2
 (Enter /data0/home/software/g16/l303.exe)
 DipDrv:  MaxL=1.
 Leave Link  303 at Sun Feb 19 15:07:19 2023, MaxMem=  6710886400 cpu:               0.7 elap:               0.0
 (Enter /data0/home/software/g16/l401.exe)
 ExpMin= 3.48D-02 ExpMax= 7.75D+04 ExpMxC= 2.65D+03 IAcc=3 IRadAn=         5 AccDes= 0.00D+00
 Harris functional with IExCor= 1009 and IRadAn=       5 diagonalized for initial guess.
 HarFok:  IExCor= 1009 AccDes= 0.00D+00 IRadAn=         5 IDoV= 1 UseB2=F ITyADJ=14
 ICtDFT=  3500011 ScaDFX=  1.000000  1.000000  1.000000  1.000000
 FoFCou: FMM=F IPFlag=           0 FMFlag=      100000 FMFlg1=           0
         NFxFlg=           0 DoJE=T BraDBF=F KetDBF=T FulRan=T
         wScrn=  0.000000 ICntrl=       500 IOpCl=  0 I1Cent=   200000004 NGrid=           0
         NMat0=    1 NMatS0=      1 NMatT0=    0 NMatD0=    1 NMtDS0=    0 NMtDT0=    0
 Symmetry not used in FoFCou.
 Harris En= -873.197229248082    
 JPrj=0 DoOrth=F DoCkMO=F.
 Leave Link  401 at Sun Feb 19 15:07:19 2023, MaxMem=  6710886400 cpu:              13.1 elap:               0.6
 (Enter /data0/home/software/g16/l502.exe)
 Two-electron integral symmetry not used.
 Closed shell SCF:
 Using DIIS extrapolation, IDIIS=  1040.
 NGot=  6710886400 LenX=  6710704303 LenY=  6710617426
 Requested convergence on RMS density matrix=1.00D-08 within 128 cycles.
 Requested convergence on MAX density matrix=1.00D-06.
 Requested convergence on             energy=1.00D-06.
 No special actions if energy rises.
 Fock matrices will be formed incrementally for  20 cycles.

 Cycle   1  Pass 1  IDiag  1:
 FoFJK:  IHMeth= 1 ICntrl=       0 DoSepK=F KAlg= 0 I1Cent=           0 FoldK=F
 IRaf= 900000000 NMat=       1 IRICut=       1 DoRegI=T DoRafI=F ISym2E= 0 IDoP0=0 IntGTp=1.
 FoFCou: FMM=F IPFlag=           0 FMFlag=      100000 FMFlg1=           0
         NFxFlg=           0 DoJE=F BraDBF=F KetDBF=F FulRan=T
         wScrn=  0.000000 ICntrl=         0 IOpCl=  0 I1Cent=           0 NGrid=           0
         NMat0=    1 NMatS0=      1 NMatT0=    0 NMatD0=    1 NMtDS0=    0 NMtDT0=    0
 Symmetry not used in FoFCou.
 E= -872.963322192591    
 DIIS: error= 3.18D-02 at cycle   1 NSaved=   1.
 NSaved= 1 IEnMin= 1 EnMin= -872.963322192591     IErMin= 1 ErrMin= 3.18D-02
 ErrMax= 3.18D-02  0.00D+00 EMaxC= 1.00D-01 BMatC= 8.24D-01 BMatP= 8.24D-01
 IDIUse=3 WtCom= 6.82D-01 WtEn= 3.18D-01
 Coeff-Com:  0.100D+01
 Coeff-En:   0.100D+01
 Coeff:      0.100D+01
 Gap=     0.238 Goal=   None    Shift=    0.000
 GapD=    0.238 DampG=1.000 DampE=0.500 DampFc=0.5000 IDamp=-1.
 Damping current iteration by 5.00D-01
 RMSDP=6.14D-03 MaxDP=2.10D-01              OVMax= 2.48D-01

 Cycle   2  Pass 1  IDiag  1:
 RMSU=  3.07D-03    CP:  1.00D+00
 E= -873.163336102137     Delta-E=       -0.200013909546 Rises=F Damp=T
 DIIS: error= 8.73D-03 at cycle   2 NSaved=   2.
 NSaved= 2 IEnMin= 2 EnMin= -873.163336102137     IErMin= 2 ErrMin= 8.73D-03
 ErrMax= 8.73D-03  0.00D+00 EMaxC= 1.00D-01 BMatC= 3.98D-02 BMatP= 8.24D-01
 IDIUse=3 WtCom= 9.13D-01 WtEn= 8.73D-02
 Coeff-Com:  0.637D-01 0.936D+00
 Coeff-En:   0.180D+00 0.820D+00
 Coeff:      0.739D-01 0.926D+00
 Gap=     0.334 Goal=   None    Shift=    0.000
 RMSDP=1.31D-03 MaxDP=7.45D-02 DE=-2.00D-01 OVMax= 1.64D-01

 Cycle   3  Pass 1  IDiag  1:
 RMSU=  9.89D-04    CP:  9.94D-01  7.23D-01
 E= -873.433755637009     Delta-E=       -0.270419534872 Rises=F Damp=F
 DIIS: error= 6.19D-03 at cycle   3 NSaved=   3.
 NSaved= 3 IEnMin= 3 EnMin= -873.433755637009     IErMin= 3 ErrMin= 6.19D-03
 ErrMax= 6.19D-03  0.00D+00 EMaxC= 1.00D-01 BMatC= 1.29D-02 BMatP= 3.98D-02
 IDIUse=3 WtCom= 9.38D-01 WtEn= 6.19D-02
 Coeff-Com: -0.165D-01 0.311D+00 0.705D+00
 Coeff-En:   0.000D+00 0.000D+00 0.100D+01
 Coeff:     -0.155D-01 0.292D+00 0.723D+00
 Gap=     0.333 Goal=   None    Shift=    0.000
 RMSDP=4.78D-04 MaxDP=1.83D-02 DE=-2.70D-01 OVMax= 4.04D-02

 Cycle   4  Pass 1  IDiag  1:
 RMSU=  4.21D-04    CP:  9.95D-01  7.80D-01  8.57D-01
 E= -873.438771285404     Delta-E=       -0.005015648395 Rises=F Damp=F
 DIIS: error= 4.04D-03 at cycle   4 NSaved=   4.
 NSaved= 4 IEnMin= 4 EnMin= -873.438771285404     IErMin= 4 ErrMin= 4.04D-03
 ErrMax= 4.04D-03  0.00D+00 EMaxC= 1.00D-01 BMatC= 6.09D-03 BMatP= 1.29D-02
 IDIUse=3 WtCom= 9.60D-01 WtEn= 4.04D-02
 Coeff-Com: -0.199D-01 0.410D-01 0.429D+00 0.550D+00
 Coeff-En:   0.000D+00 0.000D+00 0.323D+00 0.677D+00
 Coeff:     -0.191D-01 0.393D-01 0.425D+00 0.555D+00
 Gap=     0.331 Goal=   None    Shift=    0.000
 RMSDP=2.05D-04 MaxDP=8.50D-03 DE=-5.02D-03 OVMax= 1.47D-02

 Cycle   5  Pass 1  IDiag  1:
 RMSU=  6.06D-05    CP:  9.94D-01  7.62D-01  9.54D-01  6.16D-01
 E= -873.442826532004     Delta-E=       -0.004055246599 Rises=F Damp=F
 DIIS: error= 2.52D-04 at cycle   5 NSaved=   5.
 NSaved= 5 IEnMin= 5 EnMin= -873.442826532004     IErMin= 5 ErrMin= 2.52D-04
 ErrMax= 2.52D-04  0.00D+00 EMaxC= 1.00D-01 BMatC= 3.03D-05 BMatP= 6.09D-03
 IDIUse=3 WtCom= 9.97D-01 WtEn= 2.52D-03
 Coeff-Com: -0.360D-02 0.267D-02 0.899D-01 0.144D+00 0.767D+00
 Coeff-En:   0.000D+00 0.000D+00 0.000D+00 0.000D+00 0.100D+01
 Coeff:     -0.359D-02 0.266D-02 0.897D-01 0.144D+00 0.768D+00
 Gap=     0.329 Goal=   None    Shift=    0.000
 RMSDP=2.12D-05 MaxDP=8.42D-04 DE=-4.06D-03 OVMax= 1.18D-03

 Cycle   6  Pass 1  IDiag  1:
 RMSU=  1.80D-05    CP:  9.94D-01  7.60D-01  9.56D-01  6.36D-01  9.86D-01
 E= -873.442844657858     Delta-E=       -0.000018125854 Rises=F Damp=F
 DIIS: error= 1.39D-04 at cycle   6 NSaved=   6.
 NSaved= 6 IEnMin= 6 EnMin= -873.442844657858     IErMin= 6 ErrMin= 1.39D-04
 ErrMax= 1.39D-04  0.00D+00 EMaxC= 1.00D-01 BMatC= 6.25D-06 BMatP= 3.03D-05
 IDIUse=3 WtCom= 9.99D-01 WtEn= 1.39D-03
 Coeff-Com: -0.108D-03-0.168D-02 0.821D-02 0.225D-01 0.339D+00 0.633D+00
 Coeff-En:   0.000D+00 0.000D+00 0.000D+00 0.000D+00 0.000D+00 0.100D+01
 Coeff:     -0.108D-03-0.168D-02 0.820D-02 0.225D-01 0.338D+00 0.633D+00
 Gap=     0.330 Goal=   None    Shift=    0.000
 RMSDP=8.92D-06 MaxDP=2.54D-04 DE=-1.81D-05 OVMax= 3.89D-04

 Cycle   7  Pass 1  IDiag  1:
 RMSU=  4.83D-06    CP:  9.94D-01  7.59D-01  9.58D-01  6.38D-01  1.07D+00
                    CP:  8.48D-01
 E= -873.442848851993     Delta-E=       -0.000004194135 Rises=F Damp=F
 DIIS: error= 3.67D-05 at cycle   7 NSaved=   7.
 NSaved= 7 IEnMin= 7 EnMin= -873.442848851993     IErMin= 7 ErrMin= 3.67D-05
 ErrMax= 3.67D-05  0.00D+00 EMaxC= 1.00D-01 BMatC= 4.68D-07 BMatP= 6.25D-06
 IDIUse=1 WtCom= 1.00D+00 WtEn= 0.00D+00
 Coeff-Com:  0.446D-03-0.828D-03-0.108D-01-0.144D-01-0.664D-02 0.198D+00
 Coeff-Com:  0.834D+00
 Coeff:      0.446D-03-0.828D-03-0.108D-01-0.144D-01-0.664D-02 0.198D+00
 Coeff:      0.834D+00
 Gap=     0.330 Goal=   None    Shift=    0.000
 RMSDP=4.16D-06 MaxDP=1.58D-04 DE=-4.19D-06 OVMax= 1.22D-04

 Cycle   8  Pass 1  IDiag  1:
 RMSU=  2.16D-06    CP:  9.94D-01  7.58D-01  9.58D-01  6.41D-01  1.10D+00
                    CP:  9.24D-01  9.03D-01
 E= -873.442849213093     Delta-E=       -0.000000361100 Rises=F Damp=F
 DIIS: error= 8.92D-06 at cycle   8 NSaved=   8.
 NSaved= 8 IEnMin= 8 EnMin= -873.442849213093     IErMin= 8 ErrMin= 8.92D-06
 ErrMax= 8.92D-06  0.00D+00 EMaxC= 1.00D-01 BMatC= 5.33D-08 BMatP= 4.68D-07
 IDIUse=1 WtCom= 1.00D+00 WtEn= 0.00D+00
 Coeff-Com:  0.174D-03-0.211D-03-0.487D-02-0.692D-02-0.190D-01 0.425D-01
 Coeff-Com:  0.336D+00 0.652D+00
 Coeff:      0.174D-03-0.211D-03-0.487D-02-0.692D-02-0.190D-01 0.425D-01
 Coeff:      0.336D+00 0.652D+00
 Gap=     0.330 Goal=   None    Shift=    0.000
 RMSDP=7.29D-07 MaxDP=3.84D-05 DE=-3.61D-07 OVMax= 4.00D-05

 Cycle   9  Pass 1  IDiag  1:
 RMSU=  4.98D-07    CP:  9.94D-01  7.58D-01  9.58D-01  6.41D-01  1.11D+00
                    CP:  9.36D-01  9.93D-01  9.13D-01
 E= -873.442849253978     Delta-E=       -0.000000040885 Rises=F Damp=F
 DIIS: error= 2.92D-06 at cycle   9 NSaved=   9.
 NSaved= 9 IEnMin= 9 EnMin= -873.442849253978     IErMin= 9 ErrMin= 2.92D-06
 ErrMax= 2.92D-06  0.00D+00 EMaxC= 1.00D-01 BMatC= 3.08D-09 BMatP= 5.33D-08
 IDIUse=1 WtCom= 1.00D+00 WtEn= 0.00D+00
 Coeff-Com:  0.748D-05 0.105D-04-0.578D-03-0.801D-03-0.442D-02-0.265D-02
 Coeff-Com:  0.307D-01 0.177D+00 0.801D+00
 Coeff:      0.748D-05 0.105D-04-0.578D-03-0.801D-03-0.442D-02-0.265D-02
 Coeff:      0.307D-01 0.177D+00 0.801D+00
 Gap=     0.330 Goal=   None    Shift=    0.000
 RMSDP=2.81D-07 MaxDP=9.63D-06 DE=-4.09D-08 OVMax= 1.33D-05

 Cycle  10  Pass 1  IDiag  1:
 RMSU=  1.85D-07    CP:  9.94D-01  7.58D-01  9.58D-01  6.41D-01  1.11D+00
                    CP:  9.38D-01  1.01D+00  9.85D-01  9.53D-01
 E= -873.442849256184     Delta-E=       -0.000000002206 Rises=F Damp=F
 DIIS: error= 1.94D-06 at cycle  10 NSaved=  10.
 NSaved=10 IEnMin=10 EnMin= -873.442849256184     IErMin=10 ErrMin= 1.94D-06
 ErrMax= 1.94D-06  0.00D+00 EMaxC= 1.00D-01 BMatC= 1.07D-09 BMatP= 3.08D-09
 IDIUse=1 WtCom= 1.00D+00 WtEn= 0.00D+00
 Coeff-Com: -0.247D-04 0.420D-04 0.456D-03 0.654D-03 0.203D-03-0.886D-02
 Coeff-Com: -0.383D-01-0.140D-01 0.416D+00 0.643D+00
 Coeff:     -0.247D-04 0.420D-04 0.456D-03 0.654D-03 0.203D-03-0.886D-02
 Coeff:     -0.383D-01-0.140D-01 0.416D+00 0.643D+00
 Gap=     0.330 Goal=   None    Shift=    0.000
 RMSDP=1.13D-07 MaxDP=4.40D-06 DE=-2.21D-09 OVMax= 5.45D-06

 Cycle  11  Pass 1  IDiag  1:
 RMSU=  6.12D-08    CP:  9.94D-01  7.58D-01  9.58D-01  6.41D-01  1.11D+00
                    CP:  9.38D-01  1.01D+00  1.01D+00  1.08D+00  8.39D-01
 E= -873.442849256988     Delta-E=       -0.000000000803 Rises=F Damp=F
 DIIS: error= 1.17D-07 at cycle  11 NSaved=  11.
 NSaved=11 IEnMin=11 EnMin= -873.442849256988     IErMin=11 ErrMin= 1.17D-07
 ErrMax= 1.17D-07  0.00D+00 EMaxC= 1.00D-01 BMatC= 1.14D-11 BMatP= 1.07D-09
 IDIUse=1 WtCom= 1.00D+00 WtEn= 0.00D+00
 Coeff-Com: -0.364D-06 0.262D-06 0.493D-04 0.655D-04 0.263D-03-0.292D-03
 Coeff-Com: -0.439D-02-0.115D-01-0.195D-01 0.441D-01 0.991D+00
 Coeff:     -0.364D-06 0.262D-06 0.493D-04 0.655D-04 0.263D-03-0.292D-03
 Coeff:     -0.439D-02-0.115D-01-0.195D-01 0.441D-01 0.991D+00
 Gap=     0.330 Goal=   None    Shift=    0.000
 RMSDP=2.64D-08 MaxDP=6.60D-07 DE=-8.03D-10 OVMax= 1.36D-06

 Cycle  12  Pass 1  IDiag  1:
 RMSU=  1.66D-08    CP:  9.94D-01  7.58D-01  9.58D-01  6.41D-01  1.11D+00
                    CP:  9.38D-01  1.01D+00  1.01D+00  1.09D+00  9.19D-01
                    CP:  1.10D+00
 E= -873.442849256997     Delta-E=       -0.000000000009 Rises=F Damp=F
 DIIS: error= 8.98D-08 at cycle  12 NSaved=  12.
 NSaved=12 IEnMin=12 EnMin= -873.442849256997     IErMin=12 ErrMin= 8.98D-08
 ErrMax= 8.98D-08  0.00D+00 EMaxC= 1.00D-01 BMatC= 3.15D-12 BMatP= 1.14D-11
 IDIUse=1 WtCom= 1.00D+00 WtEn= 0.00D+00
 Coeff-Com:  0.117D-05-0.209D-05-0.997D-06-0.391D-05 0.104D-03 0.319D-03
 Coeff-Com:  0.863D-04-0.404D-02-0.299D-01-0.165D-01 0.435D+00 0.615D+00
 Coeff:      0.117D-05-0.209D-05-0.997D-06-0.391D-05 0.104D-03 0.319D-03
 Coeff:      0.863D-04-0.404D-02-0.299D-01-0.165D-01 0.435D+00 0.615D+00
 Gap=     0.330 Goal=   None    Shift=    0.000
 RMSDP=7.18D-09 MaxDP=2.31D-07 DE=-9.09D-12 OVMax= 2.97D-07

 SCF Done:  E(RM062X) =  -873.442849257     A.U. after   12 cycles
            NFock= 12  Conv=0.72D-08     -V/T= 2.0026
 KE= 8.711640758044D+02 PE=-3.169027206509D+03 EE= 8.747048780233D+02
 Leave Link  502 at Sun Feb 19 15:07:35 2023, MaxMem=  6710886400 cpu:             378.6 elap:              15.8
 (Enter /data0/home/software/g16/l601.exe)
 Copying SCF densities to generalized density rwf, IOpCl= 0 IROHF=0.

 **********************************************************************

            Population analysis using the SCF density.

 **********************************************************************

 Alpha  occ. eigenvalues --  -78.16336 -19.71424 -19.69211 -19.67744 -19.66107
 Alpha  occ. eigenvalues --  -19.65170 -19.60662 -19.58010  -6.97141  -5.09090
 Alpha  occ. eigenvalues --   -5.09022  -5.08791  -1.24687  -1.20100  -1.17598
 Alpha  occ. eigenvalues --   -1.16948  -1.14829  -1.11388  -1.08555  -0.72983
 Alpha  occ. eigenvalues --   -0.66723  -0.66458  -0.65262  -0.62897  -0.59187
 Alpha  occ. eigenvalues --   -0.57702  -0.55906  -0.54944  -0.51879  -0.51453
 Alpha  occ. eigenvalues --   -0.47764  -0.47347  -0.46279  -0.45328  -0.44817
 Alpha  occ. eigenvalues --   -0.43826  -0.43606  -0.38090  -0.37730  -0.37164
 Alpha virt. eigenvalues --   -0.04197   0.00429   0.01551   0.03831   0.06008
 Alpha virt. eigenvalues --    0.06912   0.07623   0.09146   0.10601   0.11650
 Alpha virt. eigenvalues --    0.12192   0.12982   0.14199   0.15107   0.15635
 Alpha virt. eigenvalues --    0.15867   0.16695   0.17356   0.17986   0.19405
 Alpha virt. eigenvalues --    0.19745   0.20391   0.20866   0.21663   0.22943
 Alpha virt. eigenvalues --    0.23612   0.24407   0.25489   0.26050   0.26237
 Alpha virt. eigenvalues --    0.26484   0.27465   0.28231   0.29230   0.29625
 Alpha virt. eigenvalues --    0.30550   0.32080   0.32913   0.34423   0.35009
 Alpha virt. eigenvalues --    0.35660   0.36768   0.38020   0.40634   0.41743
 Alpha virt. eigenvalues --    0.43809   0.44897   0.45725   0.47127   0.50088
 Alpha virt. eigenvalues --    0.52143   0.53285   0.55414   0.56348   0.58026
 Alpha virt. eigenvalues --    0.58909   0.61635   0.64643   0.67071   0.75593
 Alpha virt. eigenvalues --    0.77028   0.79883   0.87885   0.93878   0.94824
 Alpha virt. eigenvalues --    0.98735   0.99542   1.01419   1.02609   1.04036
 Alpha virt. eigenvalues --    1.04888   1.06140   1.06979   1.09584   1.10230
 Alpha virt. eigenvalues --    1.11784   1.12293   1.13255   1.14306   1.16291
 Alpha virt. eigenvalues --    1.17030   1.18540   1.19118   1.20444   1.20630
 Alpha virt. eigenvalues --    1.22672   1.23197   1.23718   1.25645   1.26951
 Alpha virt. eigenvalues --    1.28516   1.29005   1.31944   1.34277   1.35866
 Alpha virt. eigenvalues --    1.36529   1.38087   1.39384   1.39849   1.44758
 Alpha virt. eigenvalues --    1.45562   1.46026   1.50044   1.51967   1.52677
 Alpha virt. eigenvalues --    1.53288   1.58984   1.60611   1.62816   1.64613
 Alpha virt. eigenvalues --    1.67223   1.68215   1.69180   1.71368   1.73342
 Alpha virt. eigenvalues --    1.73382   1.74453   1.75351   1.77432   1.78614
 Alpha virt. eigenvalues --    1.82776   1.84346   1.85763   1.89919   1.90988
 Alpha virt. eigenvalues --    1.93580   1.96468   1.99526   2.02460   2.03376
 Alpha virt. eigenvalues --    2.06173   2.07146   2.09761   2.09958   2.10370
 Alpha virt. eigenvalues --    2.13027   2.15527   2.17603   2.19360   2.23466
 Alpha virt. eigenvalues --    2.24129   2.28425   2.31594   2.35279   2.37068
 Alpha virt. eigenvalues --    2.41288   2.43153   2.45446   2.48088   2.50107
 Alpha virt. eigenvalues --    2.52446   2.55541   2.57994   2.59061   2.60130
 Alpha virt. eigenvalues --    2.61559   2.66406   2.69453   2.71787   2.79297
 Alpha virt. eigenvalues --    2.82527   2.86705   2.89795   2.92355   2.93530
 Alpha virt. eigenvalues --    2.99422   3.03004   3.04662   3.08865   3.15479
 Alpha virt. eigenvalues --    5.04191   5.07939   5.08475   5.09416   5.11403
 Alpha virt. eigenvalues --    5.11676   5.13576   5.15359   5.17672   5.19827
 Alpha virt. eigenvalues --    5.23870   5.37652   5.40749   5.45992   5.51419
 Alpha virt. eigenvalues --    5.54262   5.58327   5.63765   5.83654   5.91561
 Alpha virt. eigenvalues --    5.95994   6.72316   6.73175   6.73776   6.74033
 Alpha virt. eigenvalues --    6.75287   6.76400   6.76914   6.79781   6.80638
 Alpha virt. eigenvalues --    6.80942   6.81382   6.83623   6.84302   6.85049
 Alpha virt. eigenvalues --    6.87363   6.88820   6.89774   6.92753   6.94072
 Alpha virt. eigenvalues --    6.95643   6.96209   6.97065   6.98972   7.00395
 Alpha virt. eigenvalues --    7.03846   7.04555   7.06501   7.10628   7.15044
 Alpha virt. eigenvalues --    7.19000   7.20994   7.27045   7.31860   7.35116
 Alpha virt. eigenvalues --    7.42873   7.66374  14.22667  14.26849  14.37334
 Alpha virt. eigenvalues --   49.94427  49.97098  49.99837  50.01021  50.01763
 Alpha virt. eigenvalues --   50.05349  50.11748 163.88052
          Condensed to atoms (all electrons):
               1          2          3          4          5          6
     1  P   12.608691   0.517613   0.202930   0.026170   0.170220  -0.011558
     2  O    0.517613   8.177030  -0.067227   0.004200  -0.006833  -0.014505
     3  O    0.202930  -0.067227   8.164045   0.224583   0.055653  -0.011584
     4  H    0.026170   0.004200   0.224583   0.400567  -0.024460   0.000611
     5  O    0.170220  -0.006833   0.055653  -0.024460   8.191813   0.258116
     6  H   -0.011558  -0.014505  -0.011584   0.000611   0.258116   0.428167
     7  O    0.199579  -0.037660   0.004690  -0.005087   0.020613   0.006455
     8  H    0.015179  -0.007730  -0.004410   0.001997  -0.009565   0.001332
     9  O    0.029501   0.003391  -0.022197  -0.029050   0.008566  -0.000737
    10  H   -0.001725  -0.000150   0.002325   0.000321  -0.000856  -0.000031
    11  H    0.007400   0.000233   0.002780   0.007914  -0.012551  -0.000523
    12  O   -0.016257  -0.001481  -0.007304   0.001877   0.040809   0.003396
    13  H    0.000198   0.000010   0.000597  -0.000299  -0.002499  -0.001326
    14  H    0.012439   0.001735  -0.000490   0.000217   0.004771  -0.008009
    15  O   -0.000570  -0.000955   0.016317  -0.004551   0.000145   0.000073
    16  H    0.000845  -0.000030   0.001254  -0.002680  -0.000260   0.000094
    17  H    0.001387  -0.000017  -0.000468  -0.000980  -0.000488   0.000090
               7          8          9         10         11         12
     1  P    0.199579   0.015179   0.029501  -0.001725   0.007400  -0.016257
     2  O   -0.037660  -0.007730   0.003391  -0.000150   0.000233  -0.001481
     3  O    0.004690  -0.004410  -0.022197   0.002325   0.002780  -0.007304
     4  H   -0.005087   0.001997  -0.029050   0.000321   0.007914   0.001877
     5  O    0.020613  -0.009565   0.008566  -0.000856  -0.012551   0.040809
     6  H    0.006455   0.001332  -0.000737  -0.000031  -0.000523   0.003396
     7  O    8.083878   0.244115  -0.006679  -0.000427  -0.002092   0.001855
     8  H    0.244115   0.448257   0.000100  -0.000053  -0.000156   0.000964
     9  O   -0.006679   0.000100   8.285159   0.293062   0.227816   0.009889
    10  H   -0.000427  -0.000053   0.293062   0.388453  -0.013316   0.011102
    11  H   -0.002092  -0.000156   0.227816  -0.013316   0.393374  -0.075496
    12  O    0.001855   0.000964   0.009889   0.011102  -0.075496   8.070224
    13  H    0.000059  -0.000029  -0.001123   0.000198   0.004294   0.321432
    14  H   -0.002001  -0.000708  -0.011030  -0.000856   0.023206   0.268852
    15  O    0.000188  -0.000015   0.025648   0.001476  -0.010383   0.002238
    16  H   -0.000057   0.000006  -0.025607   0.001933   0.005628  -0.005477
    17  H   -0.000026   0.000000   0.007704   0.000628  -0.001462  -0.000382
              13         14         15         16         17
     1  P    0.000198   0.012439  -0.000570   0.000845   0.001387
     2  O    0.000010   0.001735  -0.000955  -0.000030  -0.000017
     3  O    0.000597  -0.000490   0.016317   0.001254  -0.000468
     4  H   -0.000299   0.000217  -0.004551  -0.002680  -0.000980
     5  O   -0.002499   0.004771   0.000145  -0.000260  -0.000488
     6  H   -0.001326  -0.008009   0.000073   0.000094   0.000090
     7  O    0.000059  -0.002001   0.000188  -0.000057  -0.000026
     8  H   -0.000029  -0.000708  -0.000015   0.000006   0.000000
     9  O   -0.001123  -0.011030   0.025648  -0.025607   0.007704
    10  H    0.000198  -0.000856   0.001476   0.001933   0.000628
    11  H    0.004294   0.023206  -0.010383   0.005628  -0.001462
    12  O    0.321432   0.268852   0.002238  -0.005477  -0.000382
    13  H    0.399124  -0.020427  -0.000036   0.000339   0.000057
    14  H   -0.020427   0.378494  -0.000411   0.000666   0.000088
    15  O   -0.000036  -0.000411   7.885449   0.341472   0.317816
    16  H    0.000339   0.000666   0.341472   0.354016  -0.040607
    17  H    0.000057   0.000088   0.317816  -0.040607   0.472257
 Mulliken charges:
               1
     1  P    1.237958
     2  O   -0.567626
     3  O   -0.561494
     4  H    0.398650
     5  O   -0.693195
     6  H    0.349937
     7  O   -0.507402
     8  H    0.310715
     9  O   -0.794414
    10  H    0.317917
    11  H    0.443334
    12  O   -0.626241
    13  H    0.299431
    14  H    0.353463
    15  O   -0.573901
    16  H    0.368464
    17  H    0.244404
 Sum of Mulliken charges =  -0.00000
 Mulliken charges with hydrogens summed into heavy atoms:
               1
     1  P    1.237958
     2  O   -0.567626
     3  O   -0.162845
     5  O   -0.343258
     7  O   -0.196687
     9  O   -0.033163
    12  O    0.026653
    15  O    0.038967
         Mulliken charges condensed to fragments:
      1     -0.032457
      2     -0.033163
      3      0.026653
      4      0.038967
 Electronic spatial extent (au):  <R**2>=          60761.3560
 Charge=              0.0000 electrons
 Dipole moment (field-independent basis, Debye):
    X=              0.4041    Y=              6.5116    Z=             -5.2331  Tot=              8.3636
 Quadrupole moment (field-independent basis, Debye-Ang):
   XX=            -56.2558   YY=             57.3595   ZZ=           -141.6110
   XY=             70.1615   XZ=            -40.0387   YZ=             13.9398
 Traceless Quadrupole moment (field-independent basis, Debye-Ang):
   XX=             -9.4201   YY=            104.1953   ZZ=            -94.7752
   XY=             70.1615   XZ=            -40.0387   YZ=             13.9398
 Octapole moment (field-independent basis, Debye-Ang**2):
  XXX=          -1626.5469  YYY=            129.4483  ZZZ=          -2339.4228  XYY=            674.5392
  XXY=            211.9361  XXZ=           -821.5107  XZZ=          -1161.7691  YZZ=           -687.9427
  YYZ=            220.0567  XYZ=            257.8711
 Hexadecapole moment (field-independent basis, Debye-Ang**3):
 XXXX=         -30982.6741 YYYY=          -5071.9518 ZZZZ=         -31822.7992 XXXY=          -6375.5239
 XXXZ=         -16172.9021 YYYX=           3172.5837 YYYZ=             13.9091 ZZZX=         -19401.3584
 ZZZY=         -15318.8185 XXYY=           2904.2917 XXZZ=         -14030.2836 YYZZ=          -4602.3275
 XXYZ=           -797.0077 YYXZ=           3654.6046 ZZXY=          -4524.3699
 N-N= 5.497154034244D+02 E-N=-3.169027210362D+03  KE= 8.711640758044D+02
 No NMR shielding tensors so no spin-rotation constants.
 Leave Link  601 at Sun Feb 19 15:07:35 2023, MaxMem=  6710886400 cpu:               2.3 elap:               0.1
 (Enter /data0/home/software/g16/l122.exe)
 CPIOFr:  IOpCl= 0 IRwI=-1 IRwCP=  731 ICalc= -1 LCPTot=      120517 Len1MO=      315166 IndFrg=      120517
 CPIOFr:  IOpCl= 0 IRwI=-1 IRwCP=  731 ICalc=  0 LCPTot=      120517 Len1MO=      315166 IndFrg=      435683
 Counterpoise: doing calculation for fragment   1 using the basis set of the full-system, NewBq=T
 Leave Link  122 at Sun Feb 19 15:07:35 2023, MaxMem=  6710886400 cpu:               0.2 elap:               0.0
 (Enter /data0/home/software/g16/l301.exe)
 Basis read from rwf:  (5D, 7F)
 No pseudopotential information found on rwf file.
   278 basis functions,   422 primitive gaussians,   294 cartesian basis functions
    25 alpha electrons       25 beta electrons
       nuclear repulsion energy       280.1642004929 Hartrees.
 IExCor= 4336 DFT=T Ex+Corr=M062X ExCW=0 ScaHFX=  0.540000
 ScaDFX=  1.000000  1.000000  1.000000  1.000000 ScalE2=  1.000000  1.000000
 IRadAn=      5 IRanWt=     -1 IRanGd=            0 ICorTp=0 IEmpDi=131
 NAtoms=   17 NActive=   17 NUniq=   17 SFac= 1.00D+00 NAtFMM=   60 NAOKFM=F Big=F
 Integral buffers will be    131072 words long.
 Raffenetti 2 integral format.
 Two-electron integral symmetry is turned off.
 R6Disp:  Grimme-D3 Dispersion energy=       -0.0000446290 Hartrees.
 Nuclear repulsion after empirical dispersion term =      280.1641558639 Hartrees.
 No density basis found on file   718.
 Leave Link  301 at Sun Feb 19 15:07:35 2023, MaxMem=  6710886400 cpu:               1.3 elap:               0.1
 (Enter /data0/home/software/g16/l302.exe)
 NPDir=0 NMtPBC=     1 NCelOv=     1 NCel=       1 NClECP=     1 NCelD=      1
         NCelK=      1 NCelE2=     1 NClLst=     1 CellRange=     0.0.
 One-electron integrals computed using PRISM.
 NBasis=   278 RedAO= T EigKep=  3.41D-04  NBF=   278
 NBsUse=   278 1.00D-06 EigRej= -1.00D+00 NBFU=   278
 Precomputing XC quadrature grid using
 IXCGrd= 4 IRadAn=           5 IRanWt=          -1 IRanGd=           0 AccXCQ= 0.00D+00.
 Generated NRdTot=       0 NPtTot=           0 NUsed=           0 NTot=          32
 NSgBfM=   294   294   294   294   294 MxSgAt=    17 MxSgA2=    17.
 Leave Link  302 at Sun Feb 19 15:07:36 2023, MaxMem=  6710886400 cpu:               4.4 elap:               0.2
 (Enter /data0/home/software/g16/l303.exe)
 DipDrv:  MaxL=1.
 Leave Link  303 at Sun Feb 19 15:07:36 2023, MaxMem=  6710886400 cpu:               0.6 elap:               0.0
 (Enter /data0/home/software/g16/l401.exe)
 ExpMin= 3.48D-02 ExpMax= 7.75D+04 ExpMxC= 2.65D+03 IAcc=3 IRadAn=         5 AccDes= 0.00D+00
 Harris functional with IExCor= 1009 and IRadAn=       5 diagonalized for initial guess.
 HarFok:  IExCor= 1009 AccDes= 0.00D+00 IRadAn=         5 IDoV= 1 UseB2=F ITyADJ=14
 ICtDFT=  3500011 ScaDFX=  1.000000  1.000000  1.000000  1.000000
 FoFCou: FMM=F IPFlag=           0 FMFlag=      100000 FMFlg1=           0
         NFxFlg=           0 DoJE=T BraDBF=F KetDBF=T FulRan=T
         wScrn=  0.000000 ICntrl=       500 IOpCl=  0 I1Cent=   200000004 NGrid=           0
         NMat0=    1 NMatS0=      1 NMatT0=    0 NMatD0=    1 NMtDS0=    0 NMtDT0=    0
 Symmetry not used in FoFCou.
 Harris En= -643.942010056609    
 JPrj=0 DoOrth=F DoCkMO=F.
 Leave Link  401 at Sun Feb 19 15:07:36 2023, MaxMem=  6710886400 cpu:              13.2 elap:               0.6
 (Enter /data0/home/software/g16/l502.exe)
 Two-electron integral symmetry not used.
 Closed shell SCF:
 Using DIIS extrapolation, IDIIS=  1040.
 NGot=  6710886400 LenX=  6710704303 LenY=  6710617426
 Requested convergence on RMS density matrix=1.00D-08 within 128 cycles.
 Requested convergence on MAX density matrix=1.00D-06.
 Requested convergence on             energy=1.00D-06.
 No special actions if energy rises.
 Fock matrices will be formed incrementally for  20 cycles.

 Cycle   1  Pass 1  IDiag  1:
 FoFJK:  IHMeth= 1 ICntrl=       0 DoSepK=F KAlg= 0 I1Cent=           0 FoldK=F
 IRaf= 900000000 NMat=       1 IRICut=       1 DoRegI=T DoRafI=F ISym2E= 0 IDoP0=0 IntGTp=1.
 FoFCou: FMM=F IPFlag=           0 FMFlag=      100000 FMFlg1=           0
         NFxFlg=           0 DoJE=F BraDBF=F KetDBF=F FulRan=T
         wScrn=  0.000000 ICntrl=         0 IOpCl=  0 I1Cent=           0 NGrid=           0
         NMat0=    1 NMatS0=      1 NMatT0=    0 NMatD0=    1 NMtDS0=    0 NMtDT0=    0
 Symmetry not used in FoFCou.
 E= -643.856763002582    
 DIIS: error= 3.02D-02 at cycle   1 NSaved=   1.
 NSaved= 1 IEnMin= 1 EnMin= -643.856763002582     IErMin= 1 ErrMin= 3.02D-02
 ErrMax= 3.02D-02  0.00D+00 EMaxC= 1.00D-01 BMatC= 5.08D-01 BMatP= 5.08D-01
 IDIUse=3 WtCom= 6.98D-01 WtEn= 3.02D-01
 Coeff-Com:  0.100D+01
 Coeff-En:   0.100D+01
 Coeff:      0.100D+01
 Gap=     0.256 Goal=   None    Shift=    0.000
 GapD=    0.256 DampG=1.000 DampE=0.500 DampFc=0.5000 IDamp=-1.
 Damping current iteration by 5.00D-01
 RMSDP=4.41D-03 MaxDP=1.63D-01              OVMax= 2.58D-01

 Cycle   2  Pass 1  IDiag  1:
 RMSU=  2.20D-03    CP:  9.98D-01
 E= -643.973218658243     Delta-E=       -0.116455655661 Rises=F Damp=T
 DIIS: error= 8.72D-03 at cycle   2 NSaved=   2.
 NSaved= 2 IEnMin= 2 EnMin= -643.973218658243     IErMin= 2 ErrMin= 8.72D-03
 ErrMax= 8.72D-03  0.00D+00 EMaxC= 1.00D-01 BMatC= 2.72D-02 BMatP= 5.08D-01
 IDIUse=3 WtCom= 9.13D-01 WtEn= 8.72D-02
 Coeff-Com:  0.720D-01 0.928D+00
 Coeff-En:   0.204D+00 0.796D+00
 Coeff:      0.835D-01 0.917D+00
 Gap=     0.351 Goal=   None    Shift=    0.000
 RMSDP=1.02D-03 MaxDP=5.76D-02 DE=-1.16D-01 OVMax= 1.68D-01

 Cycle   3  Pass 1  IDiag  1:
 RMSU=  7.57D-04    CP:  9.89D-01  6.94D-01
 E= -644.138996636400     Delta-E=       -0.165777978157 Rises=F Damp=F
 DIIS: error= 5.62D-03 at cycle   3 NSaved=   3.
 NSaved= 3 IEnMin= 3 EnMin= -644.138996636400     IErMin= 3 ErrMin= 5.62D-03
 ErrMax= 5.62D-03  0.00D+00 EMaxC= 1.00D-01 BMatC= 1.03D-02 BMatP= 2.72D-02
 IDIUse=3 WtCom= 9.44D-01 WtEn= 5.62D-02
 Coeff-Com: -0.158D-01 0.340D+00 0.676D+00
 Coeff-En:   0.000D+00 0.000D+00 0.100D+01
 Coeff:     -0.149D-01 0.321D+00 0.694D+00
 Gap=     0.342 Goal=   None    Shift=    0.000
 RMSDP=3.93D-04 MaxDP=1.52D-02 DE=-1.66D-01 OVMax= 3.42D-02

 Cycle   4  Pass 1  IDiag  1:
 RMSU=  3.27D-04    CP:  9.89D-01  7.80D-01  8.59D-01
 E= -644.143705624495     Delta-E=       -0.004708988095 Rises=F Damp=F
 DIIS: error= 2.93D-03 at cycle   4 NSaved=   4.
 NSaved= 4 IEnMin= 4 EnMin= -644.143705624495     IErMin= 4 ErrMin= 2.93D-03
 ErrMax= 2.93D-03  0.00D+00 EMaxC= 1.00D-01 BMatC= 3.80D-03 BMatP= 1.03D-02
 IDIUse=3 WtCom= 9.71D-01 WtEn= 2.93D-02
 Coeff-Com: -0.218D-01 0.496D-01 0.401D+00 0.572D+00
 Coeff-En:   0.000D+00 0.000D+00 0.268D+00 0.732D+00
 Coeff:     -0.212D-01 0.481D-01 0.397D+00 0.576D+00
 Gap=     0.347 Goal=   None    Shift=    0.000
 RMSDP=1.51D-04 MaxDP=6.13D-03 DE=-4.71D-03 OVMax= 1.09D-02

 Cycle   5  Pass 1  IDiag  1:
 RMSU=  4.41D-05    CP:  9.89D-01  7.61D-01  9.54D-01  6.41D-01
 E= -644.146214253509     Delta-E=       -0.002508629013 Rises=F Damp=F
 DIIS: error= 1.55D-04 at cycle   5 NSaved=   5.
 NSaved= 5 IEnMin= 5 EnMin= -644.146214253509     IErMin= 5 ErrMin= 1.55D-04
 ErrMax= 1.55D-04  0.00D+00 EMaxC= 1.00D-01 BMatC= 1.46D-05 BMatP= 3.80D-03
 IDIUse=3 WtCom= 9.98D-01 WtEn= 1.55D-03
 Coeff-Com: -0.268D-02 0.757D-03 0.591D-01 0.118D+00 0.825D+00
 Coeff-En:   0.000D+00 0.000D+00 0.000D+00 0.000D+00 0.100D+01
 Coeff:     -0.268D-02 0.756D-03 0.590D-01 0.118D+00 0.825D+00
 Gap=     0.346 Goal=   None    Shift=    0.000
 RMSDP=1.50D-05 MaxDP=7.96D-04 DE=-2.51D-03 OVMax= 7.01D-04

 Cycle   6  Pass 1  IDiag  1:
 RMSU=  1.17D-05    CP:  9.88D-01  7.58D-01  9.58D-01  6.63D-01  1.03D+00
 E= -644.146224069200     Delta-E=       -0.000009815692 Rises=F Damp=F
 DIIS: error= 4.71D-05 at cycle   6 NSaved=   6.
 NSaved= 6 IEnMin= 6 EnMin= -644.146224069200     IErMin= 6 ErrMin= 4.71D-05
 ErrMax= 4.71D-05  0.00D+00 EMaxC= 1.00D-01 BMatC= 1.22D-06 BMatP= 1.46D-05
 IDIUse=1 WtCom= 1.00D+00 WtEn= 0.00D+00
 Coeff-Com: -0.246D-04-0.141D-02 0.232D-02 0.114D-01 0.225D+00 0.763D+00
 Coeff:     -0.246D-04-0.141D-02 0.232D-02 0.114D-01 0.225D+00 0.763D+00
 Gap=     0.346 Goal=   None    Shift=    0.000
 RMSDP=5.89D-06 MaxDP=2.19D-04 DE=-9.82D-06 OVMax= 2.44D-04

 Cycle   7  Pass 1  IDiag  1:
 RMSU=  3.07D-06    CP:  9.89D-01  7.57D-01  9.58D-01  6.65D-01  1.12D+00
                    CP:  8.94D-01
 E= -644.146224928625     Delta-E=       -0.000000859424 Rises=F Damp=F
 DIIS: error= 2.14D-05 at cycle   7 NSaved=   7.
 NSaved= 7 IEnMin= 7 EnMin= -644.146224928625     IErMin= 7 ErrMin= 2.14D-05
 ErrMax= 2.14D-05  0.00D+00 EMaxC= 1.00D-01 BMatC= 2.67D-07 BMatP= 1.22D-06
 IDIUse=1 WtCom= 1.00D+00 WtEn= 0.00D+00
 Coeff-Com:  0.384D-03-0.673D-03-0.827D-02-0.132D-01-0.213D-01 0.313D+00
 Coeff-Com:  0.730D+00
 Coeff:      0.384D-03-0.673D-03-0.827D-02-0.132D-01-0.213D-01 0.313D+00
 Coeff:      0.730D+00
 Gap=     0.346 Goal=   None    Shift=    0.000
 RMSDP=1.99D-06 MaxDP=7.85D-05 DE=-8.59D-07 OVMax= 9.98D-05

 Cycle   8  Pass 1  IDiag  1:
 RMSU=  1.39D-06    CP:  9.89D-01  7.57D-01  9.59D-01  6.66D-01  1.14D+00
                    CP:  9.77D-01  9.28D-01
 E= -644.146225108588     Delta-E=       -0.000000179964 Rises=F Damp=F
 DIIS: error= 9.37D-06 at cycle   8 NSaved=   8.
 NSaved= 8 IEnMin= 8 EnMin= -644.146225108588     IErMin= 8 ErrMin= 9.37D-06
 ErrMax= 9.37D-06  0.00D+00 EMaxC= 1.00D-01 BMatC= 3.60D-08 BMatP= 2.67D-07
 IDIUse=1 WtCom= 1.00D+00 WtEn= 0.00D+00
 Coeff-Com:  0.162D-03-0.210D-03-0.386D-02-0.629D-02-0.187D-01 0.947D-01
 Coeff-Com:  0.345D+00 0.589D+00
 Coeff:      0.162D-03-0.210D-03-0.386D-02-0.629D-02-0.187D-01 0.947D-01
 Coeff:      0.345D+00 0.589D+00
 Gap=     0.346 Goal=   None    Shift=    0.000
 RMSDP=5.06D-07 MaxDP=2.37D-05 DE=-1.80D-07 OVMax= 3.71D-05

 Cycle   9  Pass 1  IDiag  1:
 RMSU=  3.12D-07    CP:  9.88D-01  7.57D-01  9.59D-01  6.66D-01  1.14D+00
                    CP:  9.86D-01  1.02D+00  8.21D-01
 E= -644.146225134505     Delta-E=       -0.000000025917 Rises=F Damp=F
 DIIS: error= 1.10D-06 at cycle   9 NSaved=   9.
 NSaved= 9 IEnMin= 9 EnMin= -644.146225134505     IErMin= 9 ErrMin= 1.10D-06
 ErrMax= 1.10D-06  0.00D+00 EMaxC= 1.00D-01 BMatC= 7.78D-10 BMatP= 3.60D-08
 IDIUse=1 WtCom= 1.00D+00 WtEn= 0.00D+00
 Coeff-Com: -0.284D-04 0.532D-04 0.306D-03 0.615D-03-0.364D-03-0.212D-01
 Coeff-Com: -0.327D-01 0.591D-01 0.994D+00
 Coeff:     -0.284D-04 0.532D-04 0.306D-03 0.615D-03-0.364D-03-0.212D-01
 Coeff:     -0.327D-01 0.591D-01 0.994D+00
 Gap=     0.346 Goal=   None    Shift=    0.000
 RMSDP=1.98D-07 MaxDP=8.42D-06 DE=-2.59D-08 OVMax= 9.77D-06

 Cycle  10  Pass 1  IDiag  1:
 RMSU=  9.22D-08    CP:  9.89D-01  7.57D-01  9.59D-01  6.66D-01  1.14D+00
                    CP:  9.85D-01  1.04D+00  9.01D-01  1.14D+00
 E= -644.146225135479     Delta-E=       -0.000000000973 Rises=F Damp=F
 DIIS: error= 3.06D-07 at cycle  10 NSaved=  10.
 NSaved=10 IEnMin=10 EnMin= -644.146225135479     IErMin=10 ErrMin= 3.06D-07
 ErrMax= 3.06D-07  0.00D+00 EMaxC= 1.00D-01 BMatC= 4.36D-11 BMatP= 7.78D-10
 IDIUse=1 WtCom= 1.00D+00 WtEn= 0.00D+00
 Coeff-Com: -0.991D-05 0.172D-04 0.178D-03 0.310D-03 0.494D-03-0.810D-02
 Coeff-Com: -0.191D-01-0.524D-02 0.226D+00 0.805D+00
 Coeff:     -0.991D-05 0.172D-04 0.178D-03 0.310D-03 0.494D-03-0.810D-02
 Coeff:     -0.191D-01-0.524D-02 0.226D+00 0.805D+00
 Gap=     0.346 Goal=   None    Shift=    0.000
 RMSDP=3.79D-08 MaxDP=1.25D-06 DE=-9.73D-10 OVMax= 2.19D-06

 Cycle  11  Pass 1  IDiag  1:
 RMSU=  2.82D-08    CP:  9.89D-01  7.57D-01  9.59D-01  6.66D-01  1.14D+00
                    CP:  9.86D-01  1.05D+00  9.11D-01  1.19D+00  1.10D+00
 E= -644.146225135501     Delta-E=       -0.000000000023 Rises=F Damp=F
 DIIS: error= 2.30D-07 at cycle  11 NSaved=  11.
 NSaved=11 IEnMin=11 EnMin= -644.146225135501     IErMin=11 ErrMin= 2.30D-07
 ErrMax= 2.30D-07  0.00D+00 EMaxC= 1.00D-01 BMatC= 2.20D-11 BMatP= 4.36D-11
 IDIUse=1 WtCom= 1.00D+00 WtEn= 0.00D+00
 Coeff-Com:  0.160D-06-0.594D-06 0.380D-04 0.502D-04 0.314D-03-0.731D-03
 Coeff-Com: -0.444D-02-0.123D-01-0.499D-01 0.440D+00 0.627D+00
 Coeff:      0.160D-06-0.594D-06 0.380D-04 0.502D-04 0.314D-03-0.731D-03
 Coeff:     -0.444D-02-0.123D-01-0.499D-01 0.440D+00 0.627D+00
 Gap=     0.346 Goal=   None    Shift=    0.000
 RMSDP=1.69D-08 MaxDP=6.34D-07 DE=-2.26D-11 OVMax= 1.04D-06

 Cycle  12  Pass 1  IDiag  1:
 RMSU=  1.05D-08    CP:  9.89D-01  7.57D-01  9.59D-01  6.66D-01  1.14D+00
                    CP:  9.86D-01  1.05D+00  9.13D-01  1.21D+00  1.19D+00
                    CP:  7.70D-01
 E= -644.146225135510     Delta-E=       -0.000000000008 Rises=F Damp=F
 DIIS: error= 2.61D-08 at cycle  12 NSaved=  12.
 NSaved=12 IEnMin=12 EnMin= -644.146225135510     IErMin=12 ErrMin= 2.61D-08
 ErrMax= 2.61D-08  0.00D+00 EMaxC= 1.00D-01 BMatC= 3.40D-13 BMatP= 2.20D-11
 IDIUse=1 WtCom= 1.00D+00 WtEn= 0.00D+00
 Coeff-Com:  0.717D-06-0.130D-05-0.530D-05-0.116D-04 0.951D-05 0.409D-03
 Coeff-Com:  0.855D-03-0.914D-03-0.233D-01-0.243D-02 0.970D-01 0.928D+00
 Coeff:      0.717D-06-0.130D-05-0.530D-05-0.116D-04 0.951D-05 0.409D-03
 Coeff:      0.855D-03-0.914D-03-0.233D-01-0.243D-02 0.970D-01 0.928D+00
 Gap=     0.346 Goal=   None    Shift=    0.000
 RMSDP=4.35D-09 MaxDP=1.18D-07 DE=-8.41D-12 OVMax= 2.45D-07

 SCF Done:  E(RM062X) =  -644.146225136     A.U. after   12 cycles
            NFock= 12  Conv=0.44D-08     -V/T= 2.0025
 KE= 6.425313753688D+02 PE=-2.088076693932D+03 EE= 5.212349375638D+02
 Leave Link  502 at Sun Feb 19 15:07:52 2023, MaxMem=  6710886400 cpu:             373.9 elap:              15.7
 (Enter /data0/home/software/g16/l601.exe)
 Copying SCF densities to generalized density rwf, IOpCl= 0 IROHF=0.

 **********************************************************************

            Population analysis using the SCF density.

 **********************************************************************

 Alpha  occ. eigenvalues --  -78.16600 -19.69837 -19.67866 -19.67618 -19.58281
 Alpha  occ. eigenvalues --   -6.97400  -5.09329  -5.09299  -5.09056  -1.24347
 Alpha  occ. eigenvalues --   -1.17089  -1.16180  -1.08905  -0.72644  -0.66478
 Alpha  occ. eigenvalues --   -0.63382  -0.56722  -0.55121  -0.51401  -0.47831
 Alpha  occ. eigenvalues --   -0.47329  -0.45312  -0.44695  -0.38101  -0.37434
 Alpha virt. eigenvalues --   -0.02828   0.00900   0.01311   0.04139   0.06397
 Alpha virt. eigenvalues --    0.07168   0.08158   0.09603   0.10731   0.11723
 Alpha virt. eigenvalues --    0.13110   0.14009   0.14603   0.15642   0.16978
 Alpha virt. eigenvalues --    0.17276   0.18123   0.18284   0.18882   0.19575
 Alpha virt. eigenvalues --    0.21340   0.21799   0.23041   0.24282   0.24655
 Alpha virt. eigenvalues --    0.25581   0.26383   0.26736   0.27853   0.28660
 Alpha virt. eigenvalues --    0.29150   0.29822   0.30128   0.30469   0.31529
 Alpha virt. eigenvalues --    0.31998   0.33407   0.34586   0.35423   0.36361
 Alpha virt. eigenvalues --    0.37997   0.38887   0.40161   0.40556   0.41603
 Alpha virt. eigenvalues --    0.44679   0.45416   0.46208   0.48328   0.51882
 Alpha virt. eigenvalues --    0.56543   0.58294   0.62032   0.64198   0.67615
 Alpha virt. eigenvalues --    0.70447   0.73521   0.74386   0.75219   0.76192
 Alpha virt. eigenvalues --    0.77028   0.78676   0.79954   0.80671   0.81406
 Alpha virt. eigenvalues --    0.84132   0.85740   0.88913   0.89805   0.95268
 Alpha virt. eigenvalues --    0.97185   1.00628   1.02188   1.02430   1.03786
 Alpha virt. eigenvalues --    1.07589   1.11751   1.12389   1.13897   1.15598
 Alpha virt. eigenvalues --    1.17308   1.18330   1.19826   1.21317   1.22306
 Alpha virt. eigenvalues --    1.23261   1.25361   1.28022   1.29492   1.30506
 Alpha virt. eigenvalues --    1.33490   1.39321   1.42262   1.44938   1.49566
 Alpha virt. eigenvalues --    1.50983   1.55519   1.58055   1.59821   1.61707
 Alpha virt. eigenvalues --    1.65893   1.68396   1.70571   1.71450   1.73036
 Alpha virt. eigenvalues --    1.75582   1.76575   1.79548   1.81581   1.83580
 Alpha virt. eigenvalues --    1.84779   1.85322   1.87757   1.88698   1.90460
 Alpha virt. eigenvalues --    1.92469   1.95052   1.98929   1.99052   2.02401
 Alpha virt. eigenvalues --    2.02841   2.06548   2.07940   2.11636   2.14640
 Alpha virt. eigenvalues --    2.16712   2.17749   2.20078   2.22831   2.23826
 Alpha virt. eigenvalues --    2.24262   2.26229   2.30764   2.32515   2.39824
 Alpha virt. eigenvalues --    2.43229   2.43482   2.44349   2.44963   2.49809
 Alpha virt. eigenvalues --    2.51518   2.52080   2.55518   2.56247   2.57802
 Alpha virt. eigenvalues --    2.58980   2.61400   2.62128   2.63096   2.64321
 Alpha virt. eigenvalues --    2.64745   2.67157   2.69739   2.70005   2.71678
 Alpha virt. eigenvalues --    2.74365   2.77699   2.82579   2.85324   2.88564
 Alpha virt. eigenvalues --    2.88741   2.91883   2.94058   2.95736   2.98402
 Alpha virt. eigenvalues --    2.99779   3.03816   3.06605   3.12038   3.15966
 Alpha virt. eigenvalues --    3.49453   3.55067   3.56877   3.63245   3.63942
 Alpha virt. eigenvalues --    3.74582   4.49169   4.59113   4.63344   4.99729
 Alpha virt. eigenvalues --    5.05401   5.08375   5.09204   5.10931   5.12863
 Alpha virt. eigenvalues --    5.15440   5.17380   5.19076   5.20296   5.24941
 Alpha virt. eigenvalues --    5.37776   5.42515   5.54311   5.63602   6.73120
 Alpha virt. eigenvalues --    6.73662   6.75592   6.77091   6.77209   6.80258
 Alpha virt. eigenvalues --    6.83882   6.86921   6.89753   6.95228   6.97023
 Alpha virt. eigenvalues --    6.99307   7.02964   7.03518   7.09891   7.20606
 Alpha virt. eigenvalues --    7.27255   7.31546   7.34487   7.41824   7.66098
 Alpha virt. eigenvalues --    9.78446   9.80232   9.88254   9.93828   9.95741
 Alpha virt. eigenvalues --    9.98044  10.04281  10.04535  10.05167  10.07112
 Alpha virt. eigenvalues --   10.15535  10.20520  10.21510  10.26582  10.40379
 Alpha virt. eigenvalues --   12.91332  13.07003  13.17179  13.31430  13.42279
 Alpha virt. eigenvalues --   13.56509  13.71184  13.84827  14.04268  14.22503
 Alpha virt. eigenvalues --   14.26654  14.37137  17.70995  17.92014  18.09839
 Alpha virt. eigenvalues --   49.98620  50.01493  50.02001  50.11424 136.21022
 Alpha virt. eigenvalues --  138.08559 138.89046 163.87791
          Condensed to atoms (all electrons):
               1          2          3          4          5          6
     1  P   12.455003   0.561487   0.201926   0.027664   0.238643  -0.006174
     2  O    0.561487   8.087608  -0.046780   0.007662  -0.006324  -0.011981
     3  O    0.201926  -0.046780   8.122857   0.233743   0.057242  -0.011305
     4  H    0.027664   0.007662   0.233743   0.385588  -0.028412   0.000314
     5  O    0.238643  -0.006324   0.057242  -0.028412   8.064329   0.262849
     6  H   -0.006174  -0.011981  -0.011305   0.000314   0.262849   0.423520
     7  O    0.238011  -0.016474   0.002404  -0.008669   0.009771   0.004890
     8  H    0.012574  -0.006925  -0.004520   0.001983  -0.007921   0.001200
     9  O    0.002658  -0.000447   0.015390   0.003237   0.008638   0.000838
    10  H   -0.000662   0.000045  -0.001603  -0.000120  -0.000634  -0.000072
    11  H   -0.000551   0.000177  -0.001452   0.004247  -0.006745  -0.001048
    12  O   -0.003176  -0.000472  -0.000693  -0.001592   0.022448   0.005392
    13  H    0.000075   0.000014  -0.000027   0.000059  -0.002846  -0.000786
    14  H    0.004826   0.000922  -0.000824   0.000821  -0.014431  -0.004056
    15  O   -0.001683  -0.000324   0.009629  -0.000440   0.000549  -0.000064
    16  H    0.000849   0.000070  -0.004244  -0.000001  -0.000293   0.000001
    17  H    0.000109   0.000048  -0.001305   0.000355  -0.000170   0.000029
               7          8          9         10         11         12
     1  P    0.238011   0.012574   0.002658  -0.000662  -0.000551  -0.003176
     2  O   -0.016474  -0.006925  -0.000447   0.000045   0.000177  -0.000472
     3  O    0.002404  -0.004520   0.015390  -0.001603  -0.001452  -0.000693
     4  H   -0.008669   0.001983   0.003237  -0.000120   0.004247  -0.001592
     5  O    0.009771  -0.007921   0.008638  -0.000634  -0.006745   0.022448
     6  H    0.004890   0.001200   0.000838  -0.000072  -0.001048   0.005392
     7  O    8.039133   0.253229   0.003402  -0.000988  -0.001051   0.000370
     8  H    0.253229   0.433655  -0.000253   0.000020   0.000025   0.000262
     9  O    0.003402  -0.000253   0.026727  -0.009251  -0.014164   0.006388
    10  H   -0.000988   0.000020  -0.009251   0.005026   0.003888  -0.001096
    11  H   -0.001051   0.000025  -0.014164   0.003888   0.011802  -0.008708
    12  O    0.000370   0.000262   0.006388  -0.001096  -0.008708   0.024915
    13  H   -0.000008  -0.000008  -0.001252   0.000178   0.001950  -0.006849
    14  H   -0.000607  -0.000197  -0.002323   0.000179   0.003071  -0.013260
    15  O    0.000026  -0.000013   0.000542  -0.000029   0.000114  -0.000226
    16  H    0.000020   0.000005  -0.001160   0.000145   0.000251  -0.000028
    17  H   -0.000007   0.000001  -0.000002  -0.000005  -0.000015   0.000059
              13         14         15         16         17
     1  P    0.000075   0.004826  -0.001683   0.000849   0.000109
     2  O    0.000014   0.000922  -0.000324   0.000070   0.000048
     3  O   -0.000027  -0.000824   0.009629  -0.004244  -0.001305
     4  H    0.000059   0.000821  -0.000440  -0.000001   0.000355
     5  O   -0.002846  -0.014431   0.000549  -0.000293  -0.000170
     6  H   -0.000786  -0.004056  -0.000064   0.000001   0.000029
     7  O   -0.000008  -0.000607   0.000026   0.000020  -0.000007
     8  H   -0.000008  -0.000197  -0.000013   0.000005   0.000001
     9  O   -0.001252  -0.002323   0.000542  -0.001160  -0.000002
    10  H    0.000178   0.000179  -0.000029   0.000145  -0.000005
    11  H    0.001950   0.003071   0.000114   0.000251  -0.000015
    12  O   -0.006849  -0.013260  -0.000226  -0.000028   0.000059
    13  H    0.003031   0.002366   0.000052   0.000011  -0.000017
    14  H    0.002366   0.011035  -0.000021   0.000034   0.000005
    15  O    0.000052  -0.000021   0.003899  -0.001714  -0.001398
    16  H    0.000011   0.000034  -0.001714   0.001307   0.000372
    17  H   -0.000017   0.000005  -0.001398   0.000372   0.000852
 Mulliken charges:
               1
     1  P    1.268421
     2  O   -0.568306
     3  O   -0.570437
     4  H    0.373561
     5  O   -0.596691
     6  H    0.336455
     7  O   -0.523452
     8  H    0.316883
     9  O   -0.038969
    10  H    0.004979
    11  H    0.008208
    12  O   -0.023735
    13  H    0.004057
    14  H    0.012462
    15  O   -0.008900
    16  H    0.004374
    17  H    0.001089
 Sum of Mulliken charges =  -0.00000
 Mulliken charges with hydrogens summed into heavy atoms:
               1
     1  P    1.268421
     2  O   -0.568306
     3  O   -0.196875
     5  O   -0.260236
     7  O   -0.206569
     9  O   -0.025782
    12  O   -0.007216
    15  O   -0.003436
         Mulliken charges condensed to fragments:
      1      0.036434
      2     -0.025782
      3     -0.007216
      4     -0.003436
 Electronic spatial extent (au):  <R**2>=          38165.6924
 Charge=             -0.0000 electrons
 Dipole moment (field-independent basis, Debye):
    X=             -1.7169    Y=              4.0270    Z=             -2.2443  Tot=              4.9195
 Quadrupole moment (field-independent basis, Debye-Ang):
   XX=            -69.0805   YY=             27.0961   ZZ=            -68.5478
   XY=             27.7501   XZ=            -38.5568   YZ=             17.7411
 Traceless Quadrupole moment (field-independent basis, Debye-Ang):
   XX=            -32.2364   YY=             63.9402   ZZ=            -31.7037
   XY=             27.7501   XZ=            -38.5568   YZ=             17.7411
 Octapole moment (field-independent basis, Debye-Ang**2):
  XXX=          -1576.8660  YYY=            -54.3875  ZZZ=          -1168.0904  XYY=            179.8620
  XXY=           -100.5772  XXZ=           -808.7524  XZZ=           -826.2252  YZZ=           -221.5767
  YYZ=            152.5977  XYZ=             63.6441
 Hexadecapole moment (field-independent basis, Debye-Ang**3):
 XXXX=         -28629.8029 YYYY=          -4107.5191 ZZZZ=         -15831.4264 XXXY=          -7467.8727
 XXXZ=         -15090.3488 YYYX=          -1195.4685 YYYZ=           -377.9049 ZZZX=         -12865.7991
 ZZZY=          -6305.2486 XXYY=          -1001.5813 XXZZ=         -11702.5750 YYZZ=          -1246.8495
 XXYZ=          -2404.1555 YYXZ=            727.6453 ZZXY=          -3187.4079
 N-N= 2.801641558639D+02 E-N=-2.088076698071D+03  KE= 6.425313753688D+02
 No NMR shielding tensors so no spin-rotation constants.
 Leave Link  601 at Sun Feb 19 15:07:52 2023, MaxMem=  6710886400 cpu:               2.3 elap:               0.1
 (Enter /data0/home/software/g16/l122.exe)
 CPIOFr:  IOpCl= 0 IRwI=-1 IRwCP=  731 ICalc=  1 LCPTot=      120517 Len1MO=      315166 IndFrg=      750849
 Counterpoise: doing calculation for fragment   2 using the basis set of the full-system, NewBq=T
 Leave Link  122 at Sun Feb 19 15:07:52 2023, MaxMem=  6710886400 cpu:               0.1 elap:               0.0
 (Enter /data0/home/software/g16/l301.exe)
 Basis read from rwf:  (5D, 7F)
 No pseudopotential information found on rwf file.
   278 basis functions,   422 primitive gaussians,   294 cartesian basis functions
     5 alpha electrons        5 beta electrons
       nuclear repulsion energy         9.0493494283 Hartrees.
 IExCor= 4336 DFT=T Ex+Corr=M062X ExCW=0 ScaHFX=  0.540000
 ScaDFX=  1.000000  1.000000  1.000000  1.000000 ScalE2=  1.000000  1.000000
 IRadAn=      5 IRanWt=     -1 IRanGd=            0 ICorTp=0 IEmpDi=131
 NAtoms=   17 NActive=   17 NUniq=   17 SFac= 1.00D+00 NAtFMM=   60 NAOKFM=F Big=F
 Integral buffers will be    131072 words long.
 Raffenetti 2 integral format.
 Two-electron integral symmetry is turned off.
 R6Disp:  Grimme-D3 Dispersion energy=       -0.0000000085 Hartrees.
 Nuclear repulsion after empirical dispersion term =        9.0493494199 Hartrees.
 No density basis found on file   718.
 Leave Link  301 at Sun Feb 19 15:07:52 2023, MaxMem=  6710886400 cpu:               1.3 elap:               0.1
 (Enter /data0/home/software/g16/l302.exe)
 NPDir=0 NMtPBC=     1 NCelOv=     1 NCel=       1 NClECP=     1 NCelD=      1
         NCelK=      1 NCelE2=     1 NClLst=     1 CellRange=     0.0.
 One-electron integrals computed using PRISM.
 NBasis=   278 RedAO= T EigKep=  3.41D-04  NBF=   278
 NBsUse=   278 1.00D-06 EigRej= -1.00D+00 NBFU=   278
 Precomputing XC quadrature grid using
 IXCGrd= 4 IRadAn=           5 IRanWt=          -1 IRanGd=           0 AccXCQ= 0.00D+00.
 Generated NRdTot=       0 NPtTot=           0 NUsed=           0 NTot=          32
 NSgBfM=   294   294   294   294   294 MxSgAt=    17 MxSgA2=    17.
 Leave Link  302 at Sun Feb 19 15:07:52 2023, MaxMem=  6710886400 cpu:               4.4 elap:               0.2
 (Enter /data0/home/software/g16/l303.exe)
 DipDrv:  MaxL=1.
 Leave Link  303 at Sun Feb 19 15:07:52 2023, MaxMem=  6710886400 cpu:               0.7 elap:               0.0
 (Enter /data0/home/software/g16/l401.exe)
 ExpMin= 3.48D-02 ExpMax= 7.75D+04 ExpMxC= 2.65D+03 IAcc=3 IRadAn=         5 AccDes= 0.00D+00
 Harris functional with IExCor= 1009 and IRadAn=       5 diagonalized for initial guess.
 HarFok:  IExCor= 1009 AccDes= 0.00D+00 IRadAn=         5 IDoV= 1 UseB2=F ITyADJ=14
 ICtDFT=  3500011 ScaDFX=  1.000000  1.000000  1.000000  1.000000
 FoFCou: FMM=F IPFlag=           0 FMFlag=      100000 FMFlg1=           0
         NFxFlg=           0 DoJE=T BraDBF=F KetDBF=T FulRan=T
         wScrn=  0.000000 ICntrl=       500 IOpCl=  0 I1Cent=   200000004 NGrid=           0
         NMat0=    1 NMatS0=      1 NMatT0=    0 NMatD0=    1 NMtDS0=    0 NMtDT0=    0
 Symmetry not used in FoFCou.
 Harris En= -76.4166192253663    
 JPrj=0 DoOrth=F DoCkMO=F.
 Leave Link  401 at Sun Feb 19 15:07:53 2023, MaxMem=  6710886400 cpu:              12.1 elap:               0.5
 (Enter /data0/home/software/g16/l502.exe)
 Two-electron integral symmetry not used.
 Closed shell SCF:
 Using DIIS extrapolation, IDIIS=  1040.
 NGot=  6710886400 LenX=  6710704303 LenY=  6710617426
 Requested convergence on RMS density matrix=1.00D-08 within 128 cycles.
 Requested convergence on MAX density matrix=1.00D-06.
 Requested convergence on             energy=1.00D-06.
 No special actions if energy rises.
 Fock matrices will be formed incrementally for  20 cycles.

 Cycle   1  Pass 1  IDiag  1:
 FoFJK:  IHMeth= 1 ICntrl=       0 DoSepK=F KAlg= 0 I1Cent=           0 FoldK=F
 IRaf= 900000000 NMat=       1 IRICut=       1 DoRegI=T DoRafI=F ISym2E= 0 IDoP0=0 IntGTp=1.
 FoFCou: FMM=F IPFlag=           0 FMFlag=      100000 FMFlg1=           0
         NFxFlg=           0 DoJE=F BraDBF=F KetDBF=F FulRan=T
         wScrn=  0.000000 ICntrl=         0 IOpCl=  0 I1Cent=           0 NGrid=           0
         NMat0=    1 NMatS0=      1 NMatT0=    0 NMatD0=    1 NMtDS0=    0 NMtDT0=    0
 Symmetry not used in FoFCou.
 E= -76.3473091099522    
 DIIS: error= 2.55D-02 at cycle   1 NSaved=   1.
 NSaved= 1 IEnMin= 1 EnMin= -76.3473091099522     IErMin= 1 ErrMin= 2.55D-02
 ErrMax= 2.55D-02  0.00D+00 EMaxC= 1.00D-01 BMatC= 1.20D-01 BMatP= 1.20D-01
 IDIUse=3 WtCom= 7.45D-01 WtEn= 2.55D-01
 Coeff-Com:  0.100D+01
 Coeff-En:   0.100D+01
 Coeff:      0.100D+01
 Gap=     0.274 Goal=   None    Shift=    0.000
 GapD=    0.274 DampG=1.000 DampE=0.500 DampFc=0.5000 IDamp=-1.
 Damping current iteration by 5.00D-01
 RMSDP=2.80D-03 MaxDP=1.48D-01              OVMax= 1.73D-01

 Cycle   2  Pass 1  IDiag  1:
 RMSU=  1.40D-03    CP:  1.01D+00
 E= -76.3778603705009     Delta-E=       -0.030551260549 Rises=F Damp=T
 DIIS: error= 5.60D-03 at cycle   2 NSaved=   2.
 NSaved= 2 IEnMin= 2 EnMin= -76.3778603705009     IErMin= 2 ErrMin= 5.60D-03
 ErrMax= 5.60D-03  0.00D+00 EMaxC= 1.00D-01 BMatC= 5.16D-03 BMatP= 1.20D-01
 IDIUse=3 WtCom= 9.44D-01 WtEn= 5.60D-02
 Coeff-Com:  0.912D-01 0.909D+00
 Coeff-En:   0.204D+00 0.796D+00
 Coeff:      0.975D-01 0.903D+00
 Gap=     0.401 Goal=   None    Shift=    0.000
 RMSDP=4.50D-04 MaxDP=3.48D-02 DE=-3.06D-02 OVMax= 1.05D-01

 Cycle   3  Pass 1  IDiag  1:
 RMSU=  2.92D-04    CP:  1.01D+00  7.55D-01
 E= -76.4223461753571     Delta-E=       -0.044485804856 Rises=F Damp=F
 DIIS: error= 6.61D-04 at cycle   3 NSaved=   3.
 NSaved= 3 IEnMin= 3 EnMin= -76.4223461753571     IErMin= 3 ErrMin= 6.61D-04
 ErrMax= 6.61D-04  0.00D+00 EMaxC= 1.00D-01 BMatC= 1.54D-04 BMatP= 5.16D-03
 IDIUse=3 WtCom= 9.93D-01 WtEn= 6.61D-03
 Coeff-Com: -0.279D-01 0.505D-01 0.977D+00
 Coeff-En:   0.000D+00 0.000D+00 0.100D+01
 Coeff:     -0.277D-01 0.502D-01 0.978D+00
 Gap=     0.403 Goal=   None    Shift=    0.000
 RMSDP=3.10D-05 MaxDP=1.24D-03 DE=-4.45D-02 OVMax= 3.95D-03

 Cycle   4  Pass 1  IDiag  1:
 RMSU=  2.61D-05    CP:  1.01D+00  7.58D-01  1.05D+00
 E= -76.4224693173901     Delta-E=       -0.000123142033 Rises=F Damp=F
 DIIS: error= 1.25D-04 at cycle   4 NSaved=   4.
 NSaved= 4 IEnMin= 4 EnMin= -76.4224693173901     IErMin= 4 ErrMin= 1.25D-04
 ErrMax= 1.25D-04  0.00D+00 EMaxC= 1.00D-01 BMatC= 2.60D-06 BMatP= 1.54D-04
 IDIUse=3 WtCom= 9.99D-01 WtEn= 1.25D-03
 Coeff-Com: -0.295D-02 0.388D-03 0.141D+00 0.862D+00
 Coeff-En:   0.000D+00 0.000D+00 0.000D+00 0.100D+01
 Coeff:     -0.295D-02 0.387D-03 0.141D+00 0.862D+00
 Gap=     0.403 Goal=   None    Shift=    0.000
 RMSDP=7.00D-06 MaxDP=3.91D-04 DE=-1.23D-04 OVMax= 5.20D-04

 Cycle   5  Pass 1  IDiag  1:
 RMSU=  4.12D-06    CP:  1.01D+00  7.54D-01  1.05D+00  1.06D+00
 E= -76.4224710298870     Delta-E=       -0.000001712497 Rises=F Damp=F
 DIIS: error= 2.82D-05 at cycle   5 NSaved=   5.
 NSaved= 5 IEnMin= 5 EnMin= -76.4224710298870     IErMin= 5 ErrMin= 2.82D-05
 ErrMax= 2.82D-05  0.00D+00 EMaxC= 1.00D-01 BMatC= 7.49D-08 BMatP= 2.60D-06
 IDIUse=1 WtCom= 1.00D+00 WtEn= 0.00D+00
 Coeff-Com:  0.146D-02-0.226D-02-0.367D-01-0.424D-01 0.108D+01
 Coeff:      0.146D-02-0.226D-02-0.367D-01-0.424D-01 0.108D+01
 Gap=     0.403 Goal=   None    Shift=    0.000
 RMSDP=5.92D-06 MaxDP=3.32D-04 DE=-1.71D-06 OVMax= 2.15D-04

 Cycle   6  Pass 1  IDiag  1:
 RMSU=  1.10D-06    CP:  1.01D+00  7.51D-01  1.05D+00  1.13D+00  1.32D+00
 E= -76.4224711674060     Delta-E=       -0.000000137519 Rises=F Damp=F
 DIIS: error= 2.31D-06 at cycle   6 NSaved=   6.
 NSaved= 6 IEnMin= 6 EnMin= -76.4224711674060     IErMin= 6 ErrMin= 2.31D-06
 ErrMax= 2.31D-06  0.00D+00 EMaxC= 1.00D-01 BMatC= 2.02D-09 BMatP= 7.49D-08
 IDIUse=1 WtCom= 1.00D+00 WtEn= 0.00D+00
 Coeff-Com: -0.255D-03 0.361D-03 0.315D-02-0.105D-01-0.136D+00 0.114D+01
 Coeff:     -0.255D-03 0.361D-03 0.315D-02-0.105D-01-0.136D+00 0.114D+01
 Gap=     0.403 Goal=   None    Shift=    0.000
 RMSDP=7.66D-07 MaxDP=4.46D-05 DE=-1.38D-07 OVMax= 4.10D-05

 Cycle   7  Pass 1  IDiag  1:
 RMSU=  1.49D-07    CP:  1.01D+00  7.50D-01  1.06D+00  1.14D+00  1.40D+00
                    CP:  1.22D+00
 E= -76.4224711713892     Delta-E=       -0.000000003983 Rises=F Damp=F
 DIIS: error= 4.36D-07 at cycle   7 NSaved=   7.
 NSaved= 7 IEnMin= 7 EnMin= -76.4224711713892     IErMin= 7 ErrMin= 4.36D-07
 ErrMax= 4.36D-07  0.00D+00 EMaxC= 1.00D-01 BMatC= 3.85D-11 BMatP= 2.02D-09
 IDIUse=1 WtCom= 1.00D+00 WtEn= 0.00D+00
 Coeff-Com: -0.191D-04 0.433D-04 0.401D-03 0.910D-03-0.247D-01 0.229D-01
 Coeff-Com:  0.100D+01
 Coeff:     -0.191D-04 0.433D-04 0.401D-03 0.910D-03-0.247D-01 0.229D-01
 Coeff:      0.100D+01
 Gap=     0.403 Goal=   None    Shift=    0.000
 RMSDP=1.02D-07 MaxDP=5.34D-06 DE=-3.98D-09 OVMax= 5.43D-06

 Cycle   8  Pass 1  IDiag  1:
 RMSU=  2.48D-08    CP:  1.01D+00  7.50D-01  1.06D+00  1.14D+00  1.40D+00
                    CP:  1.25D+00  1.15D+00
 E= -76.4224711714595     Delta-E=       -0.000000000070 Rises=F Damp=F
 DIIS: error= 1.34D-07 at cycle   8 NSaved=   8.
 NSaved= 8 IEnMin= 8 EnMin= -76.4224711714595     IErMin= 8 ErrMin= 1.34D-07
 ErrMax= 1.34D-07  0.00D+00 EMaxC= 1.00D-01 BMatC= 2.59D-12 BMatP= 3.85D-11
 IDIUse=1 WtCom= 1.00D+00 WtEn= 0.00D+00
 Coeff-Com:  0.131D-04-0.153D-04-0.131D-03 0.799D-03 0.369D-02-0.541D-01
 Coeff-Com:  0.125D+00 0.925D+00
 Coeff:      0.131D-04-0.153D-04-0.131D-03 0.799D-03 0.369D-02-0.541D-01
 Coeff:      0.125D+00 0.925D+00
 Gap=     0.403 Goal=   None    Shift=    0.000
 RMSDP=1.62D-08 MaxDP=8.75D-07 DE=-7.03D-11 OVMax= 1.03D-06

 Cycle   9  Pass 1  IDiag  1:
 RMSU=  4.85D-09    CP:  1.01D+00  7.50D-01  1.06D+00  1.14D+00  1.41D+00
                    CP:  1.25D+00  1.21D+00  1.07D+00
 E= -76.4224711714627     Delta-E=       -0.000000000003 Rises=F Damp=F
 DIIS: error= 1.45D-08 at cycle   9 NSaved=   9.
 NSaved= 9 IEnMin= 9 EnMin= -76.4224711714627     IErMin= 9 ErrMin= 1.45D-08
 ErrMax= 1.45D-08  0.00D+00 EMaxC= 1.00D-01 BMatC= 5.16D-14 BMatP= 2.59D-12
 IDIUse=1 WtCom= 1.00D+00 WtEn= 0.00D+00
 Coeff-Com: -0.929D-06-0.783D-07 0.171D-04-0.652D-04 0.171D-03 0.466D-02
 Coeff-Com: -0.399D-01-0.893D-01 0.112D+01
 Coeff:     -0.929D-06-0.783D-07 0.171D-04-0.652D-04 0.171D-03 0.466D-02
 Coeff:     -0.399D-01-0.893D-01 0.112D+01
 Gap=     0.403 Goal=   None    Shift=    0.000
 RMSDP=2.30D-09 MaxDP=1.02D-07 DE=-3.20D-12 OVMax= 1.77D-07

 SCF Done:  E(RM062X) =  -76.4224711715     A.U. after    9 cycles
            NFock=  9  Conv=0.23D-08     -V/T= 2.0034
 KE= 7.616301950576D+01 PE=-1.989293236220D+02 EE= 3.729448352492D+01
 Leave Link  502 at Sun Feb 19 15:08:04 2023, MaxMem=  6710886400 cpu:             268.1 elap:              11.2
 (Enter /data0/home/software/g16/l601.exe)
 Copying SCF densities to generalized density rwf, IOpCl= 0 IROHF=0.

 **********************************************************************

            Population analysis using the SCF density.

 **********************************************************************

 Alpha  occ. eigenvalues --  -19.62764  -1.13046  -0.60621  -0.47377  -0.39968
 Alpha virt. eigenvalues --    0.00376   0.03796   0.04984   0.05239   0.08057
 Alpha virt. eigenvalues --    0.09829   0.10596   0.12200   0.13396   0.14000
 Alpha virt. eigenvalues --    0.14902   0.16674   0.17570   0.18345   0.18725
 Alpha virt. eigenvalues --    0.20028   0.20828   0.21099   0.21826   0.22820
 Alpha virt. eigenvalues --    0.23787   0.24287   0.26039   0.26559   0.28467
 Alpha virt. eigenvalues --    0.29048   0.30045   0.30904   0.31690   0.32411
 Alpha virt. eigenvalues --    0.32965   0.34043   0.34783   0.36968   0.37664
 Alpha virt. eigenvalues --    0.38251   0.40368   0.40561   0.40802   0.42419
 Alpha virt. eigenvalues --    0.43806   0.44394   0.45611   0.47647   0.52717
 Alpha virt. eigenvalues --    0.56107   0.61735   0.62792   0.66266   0.69088
 Alpha virt. eigenvalues --    0.71199   0.72269   0.72689   0.73452   0.74060
 Alpha virt. eigenvalues --    0.76558   0.77441   0.79208   0.79525   0.80301
 Alpha virt. eigenvalues --    0.83177   0.84403   0.85861   0.87497   0.88957
 Alpha virt. eigenvalues --    0.90338   0.92395   0.95788   0.96685   0.98348
 Alpha virt. eigenvalues --    0.99100   1.01855   1.03916   1.06850   1.07577
 Alpha virt. eigenvalues --    1.08373   1.11156   1.13554   1.14666   1.16076
 Alpha virt. eigenvalues --    1.16866   1.17949   1.20368   1.21601   1.25853
 Alpha virt. eigenvalues --    1.30247   1.32104   1.38144   1.41739   1.45857
 Alpha virt. eigenvalues --    1.47650   1.49243   1.53902   1.65293   1.70742
 Alpha virt. eigenvalues --    1.75087   1.77149   1.80593   1.81594   1.83518
 Alpha virt. eigenvalues --    1.85544   1.89340   1.92970   1.94536   1.96779
 Alpha virt. eigenvalues --    2.00251   2.01696   2.06907   2.09275   2.11026
 Alpha virt. eigenvalues --    2.14942   2.19503   2.22129   2.22934   2.25358
 Alpha virt. eigenvalues --    2.27642   2.30362   2.31749   2.33910   2.36049
 Alpha virt. eigenvalues --    2.37821   2.38819   2.41235   2.45120   2.46557
 Alpha virt. eigenvalues --    2.48690   2.49896   2.51988   2.53368   2.54758
 Alpha virt. eigenvalues --    2.55901   2.57204   2.59602   2.61144   2.61333
 Alpha virt. eigenvalues --    2.61987   2.63531   2.64327   2.65735   2.66208
 Alpha virt. eigenvalues --    2.66988   2.69172   2.70405   2.71454   2.72639
 Alpha virt. eigenvalues --    2.73399   2.75760   2.78445   2.80050   2.81923
 Alpha virt. eigenvalues --    2.84132   2.90223   2.90970   2.91308   2.92889
 Alpha virt. eigenvalues --    2.95193   2.97111   2.98588   3.02488   3.02702
 Alpha virt. eigenvalues --    3.04804   3.05443   3.07801   3.09958   3.10560
 Alpha virt. eigenvalues --    3.15679   3.18695   3.21174   3.22554   3.23950
 Alpha virt. eigenvalues --    3.29264   3.31352   3.33590   3.43636   3.47790
 Alpha virt. eigenvalues --    3.52335   3.55230   3.61035   3.62417   3.74004
 Alpha virt. eigenvalues --    3.76757   3.82026   4.42798   4.46780   4.49563
 Alpha virt. eigenvalues --    4.52025   4.53786   4.56749   4.64382   4.76125
 Alpha virt. eigenvalues --    4.88623   4.93870   5.00434   5.03110   5.07587
 Alpha virt. eigenvalues --    5.19926   5.63547   5.98704   6.82747   6.85010
 Alpha virt. eigenvalues --    6.96804   7.00543   7.16693   9.73222   9.74208
 Alpha virt. eigenvalues --    9.75764   9.85535   9.86649   9.87822   9.90105
 Alpha virt. eigenvalues --    9.93695   9.94338   9.96700  10.00578  10.02548
 Alpha virt. eigenvalues --   10.03936  10.07633  10.12624  10.13707  10.14550
 Alpha virt. eigenvalues --   10.16483  10.20986  10.21636  10.24423  10.29615
 Alpha virt. eigenvalues --   10.30801  10.32920  10.37316  10.40181  10.43803
 Alpha virt. eigenvalues --   10.47926  10.58117  10.63386  10.68486  10.72298
 Alpha virt. eigenvalues --   10.83987  12.79929  12.90091  13.00308  13.02128
 Alpha virt. eigenvalues --   13.14069  13.29520  13.31983  13.33583  13.37218
 Alpha virt. eigenvalues --   13.39566  13.40752  13.47495  13.48750  13.55237
 Alpha virt. eigenvalues --   13.67010  13.78667  13.85676  13.90575  14.15006
 Alpha virt. eigenvalues --   17.54831  17.79312  17.90666  18.21723  18.37135
 Alpha virt. eigenvalues --   18.50671  50.03917  52.52994  52.56011  52.71550
 Alpha virt. eigenvalues --   70.15766 133.92653 137.21398 138.32789 138.86152
 Alpha virt. eigenvalues --  139.43556 139.73412 481.31745
          Condensed to atoms (all electrons):
               1          2          3          4          5          6
     1  P    0.042824  -0.024213  -0.001358  -0.006921  -0.007990  -0.000154
     2  O   -0.024213   0.038983   0.011259  -0.009578  -0.008847  -0.000213
     3  O   -0.001358   0.011259   0.052936  -0.069888  -0.003984   0.000060
     4  H   -0.006921  -0.009578  -0.069888   0.107293   0.006241  -0.000044
     5  O   -0.007990  -0.008847  -0.003984   0.006241   0.010978   0.000241
     6  H   -0.000154  -0.000213   0.000060  -0.000044   0.000241   0.000056
     7  O   -0.005005  -0.008425  -0.009819   0.011618   0.004905   0.000025
     8  H   -0.000350  -0.000547   0.000103  -0.000099   0.000470   0.000012
     9  O    0.035192   0.005702   0.067489  -0.171590  -0.011526  -0.000021
    10  H   -0.001440  -0.000168  -0.003341   0.012094   0.000566  -0.000006
    11  H   -0.009746  -0.000782  -0.007636   0.022747   0.005140   0.000052
    12  O    0.001886   0.000278   0.001395  -0.002985  -0.001371  -0.000108
    13  H   -0.000553  -0.000033   0.000052   0.000087   0.000466   0.000034
    14  H   -0.000059  -0.000053  -0.000515   0.000762  -0.000061   0.000034
    15  O    0.001470   0.000124  -0.006095   0.005917  -0.000424  -0.000020
    16  H   -0.001910  -0.000184   0.006169  -0.005261   0.000587   0.000015
    17  H   -0.000178  -0.000028   0.000436  -0.000261   0.000069   0.000004
               7          8          9         10         11         12
     1  P   -0.005005  -0.000350   0.035192  -0.001440  -0.009746   0.001886
     2  O   -0.008425  -0.000547   0.005702  -0.000168  -0.000782   0.000278
     3  O   -0.009819   0.000103   0.067489  -0.003341  -0.007636   0.001395
     4  H    0.011618  -0.000099  -0.171590   0.012094   0.022747  -0.002985
     5  O    0.004905   0.000470  -0.011526   0.000566   0.005140  -0.001371
     6  H    0.000025   0.000012  -0.000021  -0.000006   0.000052  -0.000108
     7  O    0.009427   0.000102  -0.013859   0.000938   0.002262  -0.000533
     8  H    0.000102   0.000255   0.000072   0.000003   0.000020  -0.000023
     9  O   -0.013859   0.000072   8.265141   0.277967   0.236741   0.034577
    10  H    0.000938   0.000003   0.277967   0.431924  -0.001584  -0.004021
    11  H    0.002262   0.000020   0.236741  -0.001584   0.392878   0.003131
    12  O   -0.000533  -0.000023   0.034577  -0.004021   0.003131   0.012367
    13  H    0.000040   0.000004  -0.003220   0.000434   0.000914  -0.003633
    14  H    0.000150   0.000008  -0.006528   0.000594  -0.001843  -0.003352
    15  O    0.000022  -0.000003   0.037927  -0.000893  -0.001235   0.000079
    16  H    0.000048   0.000003  -0.067237   0.003480   0.004639  -0.000098
[...]

 Alpha  occ. eigenvalues --  -19.62819  -1.13051  -0.60037  -0.47709  -0.39948
 Alpha virt. eigenvalues --    0.06039   0.13174   0.17454   0.17949   0.18885
 Alpha virt. eigenvalues --    0.23503   0.50112   0.53046   0.98313   1.00453
 Alpha virt. eigenvalues --    1.05978   1.17146   1.20044   1.31650   1.34428
 Alpha virt. eigenvalues --    1.70268   1.73850   1.74875   2.06349   2.09449
 Alpha virt. eigenvalues --    2.36121   2.38283   2.54787   2.86391   3.00256
 Alpha virt. eigenvalues --    5.05546   5.47889   5.87450   6.78584   6.80013
 Alpha virt. eigenvalues --    6.87419   6.91627   7.10049  49.94716
          Condensed to atoms (all electrons):
              12         13         14
    12  O    7.925554   0.311994   0.316129
    13  H    0.311994   0.432405  -0.023048
    14  H    0.316129  -0.023048   0.431894
 Mulliken charges:
               1
     1  P    0.000000
     2  O    0.000000
     3  O    0.000000
     4  H    0.000000
     5  O    0.000000
     6  H    0.000000
     7  O    0.000000
     8  H    0.000000
     9  O    0.000000
    10  H    0.000000
    11  H    0.000000
    12  O   -0.553676
    13  H    0.278650
    14  H    0.275026
    15  O    0.000000
    16  H    0.000000
    17  H    0.000000
 Sum of Mulliken charges =  -0.00000
 Mulliken charges with hydrogens summed into heavy atoms:
               1
     1  P    0.000000
     2  O    0.000000
     3  O    0.000000
     5  O    0.000000
     7  O    0.000000
     9  O    0.000000
    12  O   -0.000000
    15  O    0.000000
         Mulliken charges condensed to fragments:
      1      0.000000
      2      0.000000
      3     -0.000000
      4      0.000000
 Electronic spatial extent (au):  <R**2>=           7967.0011
 Charge=             -0.0000 electrons
 Dipole moment (field-independent basis, Debye):
    X=              1.6974    Y=              0.3247    Z=              1.2802  Tot=              2.1507
 Quadrupole moment (field-independent basis, Debye-Ang):
   XX=             21.9173   YY=              1.5449   ZZ=              8.6632
   XY=             20.1831   XZ=             20.9580   YZ=             17.0734
 Traceless Quadrupole moment (field-independent basis, Debye-Ang):
   XX=             11.2088   YY=             -9.1636   ZZ=             -2.0452
   XY=             20.1831   XZ=             20.9580   YZ=             17.0734
 Octapole moment (field-independent basis, Debye-Ang**2):
  XXX=            196.5292  YYY=            -64.5241  ZZZ=             18.3512  XYY=            193.1871
  XXY=            244.0737  XXZ=            222.2157  XZZ=            135.1261  YZZ=            120.7900
  YYZ=            187.5143  XYZ=            248.2652
 Hexadecapole moment (field-independent basis, Debye-Ang**3):
 XXXX=           1340.4352 YYYY=          -2239.5407 ZZZZ=           -332.0682 XXXY=           2108.7322
 XXXZ=           1943.2361 YYYX=           1327.1456 YYYZ=           1708.6748 ZZZX=            540.9937
 ZZZY=            408.0012 XXYY=           2346.5224 XXZZ=           1419.1092 YYZZ=           1410.0363
 XXYZ=           2534.0501 YYXZ=           2656.5099 ZZXY=           1655.4555
 N-N= 9.019796959892D+00 E-N=-1.988753756345D+02  KE= 7.616563482128D+01
 No NMR shielding tensors so no spin-rotation constants.
 Leave Link  601 at Sun Feb 19 15:08:34 2023, MaxMem=  6710886400 cpu:               1.7 elap:               0.1
 (Enter /data0/home/software/g16/l122.exe)
 CPIOFr:  IOpCl= 0 IRwI=-1 IRwCP=  731 ICalc=  7 LCPTot=      120517 Len1MO=      315166 IndFrg=     2641845
 Counterpoise: doing calculation for fragment   4 using the basis set of the fragment.
 Leave Link  122 at Sun Feb 19 15:08:34 2023, MaxMem=  6710886400 cpu:               0.1 elap:               0.0
 (Enter /data0/home/software/g16/l301.exe)
 Basis read from rwf:  (5D, 7F)
 No pseudopotential information found on rwf file.
    39 basis functions,    58 primitive gaussians,    41 cartesian basis functions
     5 alpha electrons        5 beta electrons
       nuclear repulsion energy         9.0803622873 Hartrees.
 IExCor= 4336 DFT=T Ex+Corr=M062X ExCW=0 ScaHFX=  0.540000
 ScaDFX=  1.000000  1.000000  1.000000  1.000000 ScalE2=  1.000000  1.000000
 IRadAn=      5 IRanWt=     -1 IRanGd=            0 ICorTp=0 IEmpDi=131
 NAtoms=   17 NActive=    3 NUniq=    3 SFac= 1.00D+00 NAtFMM=   60 NAOKFM=F Big=F
 Integral buffers will be    131072 words long.
 Raffenetti 2 integral format.
 Two-electron integral symmetry is turned off.
 R6Disp:  Grimme-D3 Dispersion energy=       -0.0000000075 Hartrees.
 Nuclear repulsion after empirical dispersion term =        9.0803622798 Hartrees.
 No density basis found on file   718.
 Leave Link  301 at Sun Feb 19 15:08:34 2023, MaxMem=  6710886400 cpu:               1.3 elap:               0.1
 (Enter /data0/home/software/g16/l302.exe)
 NPDir=0 NMtPBC=     1 NCelOv=     1 NCel=       1 NClECP=     1 NCelD=      1
         NCelK=      1 NCelE2=     1 NClLst=     1 CellRange=     0.0.
 One-electron integrals computed using PRISM.
 NBasis=    39 RedAO= T EigKep=  3.03D-03  NBF=    39
 NBsUse=    39 1.00D-06 EigRej= -1.00D+00 NBFU=    39
 Precomputing XC quadrature grid using
 IXCGrd= 4 IRadAn=           5 IRanWt=          -1 IRanGd=           0 AccXCQ= 0.00D+00.
 Generated NRdTot=       0 NPtTot=           0 NUsed=           0 NTot=          32
 NSgBfM=    41    41    41    41    41 MxSgAt=     3 MxSgA2=     3.
 Leave Link  302 at Sun Feb 19 15:08:34 2023, MaxMem=  6710886400 cpu:               2.3 elap:               0.1
 (Enter /data0/home/software/g16/l303.exe)
 DipDrv:  MaxL=1.
 Leave Link  303 at Sun Feb 19 15:08:34 2023, MaxMem=  6710886400 cpu:               0.4 elap:               0.0
 (Enter /data0/home/software/g16/l401.exe)
 ExpMin= 8.45D-02 ExpMax= 8.59D+03 ExpMxC= 1.30D+03 IAcc=3 IRadAn=         5 AccDes= 0.00D+00
 Harris functional with IExCor= 1009 and IRadAn=       5 diagonalized for initial guess.
 HarFok:  IExCor= 1009 AccDes= 0.00D+00 IRadAn=         5 IDoV= 1 UseB2=F ITyADJ=14
 ICtDFT=  3500011 ScaDFX=  1.000000  1.000000  1.000000  1.000000
 FoFCou: FMM=F IPFlag=           0 FMFlag=      100000 FMFlg1=           0
         NFxFlg=           0 DoJE=T BraDBF=F KetDBF=T FulRan=T
         wScrn=  0.000000 ICntrl=       500 IOpCl=  0 I1Cent=   200000004 NGrid=           0
         NMat0=    1 NMatS0=      1 NMatT0=    0 NMatD0=    1 NMtDS0=    0 NMtDT0=    0
 Symmetry not used in FoFCou.
 Harris En= -76.4161652102380    
 JPrj=0 DoOrth=F DoCkMO=F.
 Leave Link  401 at Sun Feb 19 15:08:34 2023, MaxMem=  6710886400 cpu:               2.9 elap:               0.1
 (Enter /data0/home/software/g16/l502.exe)
 Keep R1 ints in memory in canonical form, NReq=21038482.
 FoFCou: FMM=F IPFlag=           0 FMFlag=           0 FMFlg1=           0
         NFxFlg=           0 DoJE=F BraDBF=F KetDBF=F FulRan=T
         wScrn=  0.000000 ICntrl=       600 IOpCl=  0 I1Cent=           0 NGrid=           0
         NMat0=    1 NMatS0=    780 NMatT0=    0 NMatD0=    1 NMtDS0=    0 NMtDT0=    0
 Symmetry not used in FoFCou.
 Two-electron integral symmetry not used.
 Closed shell SCF:
 Using DIIS extrapolation, IDIIS=  1040.
 NGot=  6710886400 LenX=  6710576560 LenY=  6710574438
 Requested convergence on RMS density matrix=1.00D-08 within 128 cycles.
 Requested convergence on MAX density matrix=1.00D-06.
 Requested convergence on             energy=1.00D-06.
 No special actions if energy rises.
 Integral accuracy reduced to 1.0D-05 until final iterations.

 Cycle   1  Pass 0  IDiag  1:
 E= -76.3466469831966    
 DIIS: error= 6.98D-02 at cycle   1 NSaved=   1.
 NSaved= 1 IEnMin= 1 EnMin= -76.3466469831966     IErMin= 1 ErrMin= 6.98D-02
 ErrMax= 6.98D-02  0.00D+00 EMaxC= 1.00D-01 BMatC= 1.20D-01 BMatP= 1.20D-01
 IDIUse=3 WtCom= 3.02D-01 WtEn= 6.98D-01
 Coeff-Com:  0.100D+01
 Coeff-En:   0.100D+01
 Coeff:      0.100D+01
 Gap=     0.325 Goal=   None    Shift=    0.000
 GapD=    0.325 DampG=1.000 DampE=0.500 DampFc=0.5000 IDamp=-1.
 Damping current iteration by 5.00D-01
 RMSDP=7.96D-03 MaxDP=1.00D-01              OVMax= 1.67D-01

 Cycle   2  Pass 0  IDiag  1:
 E= -76.3778203201016     Delta-E=       -0.031173336905 Rises=F Damp=T
 DIIS: error= 1.13D-02 at cycle   2 NSaved=   2.
 NSaved= 2 IEnMin= 2 EnMin= -76.3778203201016     IErMin= 2 ErrMin= 1.13D-02
 ErrMax= 1.13D-02  0.00D+00 EMaxC= 1.00D-01 BMatC= 4.86D-03 BMatP= 1.20D-01
 IDIUse=3 WtCom= 8.87D-01 WtEn= 1.13D-01
 Coeff-Com:  0.837D-01 0.916D+00
 Coeff-En:   0.190D+00 0.810D+00
 Coeff:      0.957D-01 0.904D+00
 Gap=     0.457 Goal=   None    Shift=    0.000
 RMSDP=9.51D-04 MaxDP=1.41D-02 DE=-3.12D-02 OVMax= 1.00D-01

 Cycle   3  Pass 0  IDiag  1:
 E= -76.4215910412220     Delta-E=       -0.043770721120 Rises=F Damp=F
 DIIS: error= 2.17D-03 at cycle   3 NSaved=   3.
 NSaved= 3 IEnMin= 3 EnMin= -76.4215910412220     IErMin= 3 ErrMin= 2.17D-03
 ErrMax= 2.17D-03  0.00D+00 EMaxC= 1.00D-01 BMatC= 9.10D-05 BMatP= 4.86D-03
 IDIUse=3 WtCom= 9.78D-01 WtEn= 2.17D-02
 Coeff-Com: -0.199D-01 0.395D-01 0.980D+00
 Coeff-En:   0.000D+00 0.000D+00 0.100D+01
 Coeff:     -0.195D-01 0.387D-01 0.981D+00
 Gap=     0.461 Goal=   None    Shift=    0.000
 RMSDP=1.15D-04 MaxDP=9.83D-04 DE=-4.38D-02 OVMax= 3.33D-03

 Cycle   4  Pass 0  IDiag  1:
 E= -76.4216687826191     Delta-E=       -0.000077741397 Rises=F Damp=F
 DIIS: error= 4.16D-04 at cycle   4 NSaved=   4.
 NSaved= 4 IEnMin= 4 EnMin= -76.4216687826191     IErMin= 4 ErrMin= 4.16D-04
 ErrMax= 4.16D-04  0.00D+00 EMaxC= 1.00D-01 BMatC= 3.30D-06 BMatP= 9.10D-05
 IDIUse=3 WtCom= 9.96D-01 WtEn= 4.16D-03
 Coeff-Com: -0.191D-02-0.226D-02 0.162D+00 0.842D+00
 Coeff-En:   0.000D+00 0.000D+00 0.000D+00 0.100D+01
 Coeff:     -0.190D-02-0.225D-02 0.162D+00 0.842D+00
 Gap=     0.462 Goal=   None    Shift=    0.000
 RMSDP=2.22D-05 MaxDP=3.56D-04 DE=-7.77D-05 OVMax= 5.40D-04

 Cycle   5  Pass 0  IDiag  1:
 E= -76.4216708277560     Delta-E=       -0.000002045137 Rises=F Damp=F
 DIIS: error= 8.95D-05 at cycle   5 NSaved=   5.
 NSaved= 5 IEnMin= 5 EnMin= -76.4216708277560     IErMin= 5 ErrMin= 8.95D-05
 ErrMax= 8.95D-05  0.00D+00 EMaxC= 1.00D-01 BMatC= 8.33D-08 BMatP= 3.30D-06
 IDIUse=1 WtCom= 1.00D+00 WtEn= 0.00D+00
 Coeff-Com:  0.118D-02-0.180D-02-0.369D-01-0.651D-01 0.110D+01
 Coeff:      0.118D-02-0.180D-02-0.369D-01-0.651D-01 0.110D+01
 Gap=     0.462 Goal=   None    Shift=    0.000
 RMSDP=9.04D-06 MaxDP=1.02D-04 DE=-2.05D-06 OVMax= 2.05D-04

 Initial convergence to 1.0D-05 achieved.  Increase integral accuracy.
 Cycle   6  Pass 1  IDiag  1:
 E= -76.4216812312355     Delta-E=       -0.000010403480 Rises=F Damp=F
 DIIS: error= 2.09D-05 at cycle   1 NSaved=   1.
 NSaved= 1 IEnMin= 1 EnMin= -76.4216812312355     IErMin= 1 ErrMin= 2.09D-05
 ErrMax= 2.09D-05  0.00D+00 EMaxC= 1.00D-01 BMatC= 2.44D-08 BMatP= 2.44D-08
 IDIUse=1 WtCom= 1.00D+00 WtEn= 0.00D+00
 Coeff-Com:  0.100D+01
 Coeff:      0.100D+01
 Gap=     0.462 Goal=   None    Shift=    0.000
 RMSDP=9.04D-06 MaxDP=1.02D-04 DE=-1.04D-05 OVMax= 4.41D-05

 Cycle   7  Pass 1  IDiag  1:
 E= -76.4216812506951     Delta-E=       -0.000000019460 Rises=F Damp=F
 DIIS: error= 5.56D-06 at cycle   2 NSaved=   2.
 NSaved= 2 IEnMin= 2 EnMin= -76.4216812506951     IErMin= 2 ErrMin= 5.56D-06
 ErrMax= 5.56D-06  0.00D+00 EMaxC= 1.00D-01 BMatC= 4.98D-10 BMatP= 2.44D-08
 IDIUse=1 WtCom= 1.00D+00 WtEn= 0.00D+00
 Coeff-Com: -0.436D-01 0.104D+01
 Coeff:     -0.436D-01 0.104D+01
 Gap=     0.462 Goal=   None    Shift=    0.000
 RMSDP=6.26D-07 MaxDP=6.50D-06 DE=-1.95D-08 OVMax= 1.39D-05

 Cycle   8  Pass 1  IDiag  1:
 E= -76.4216812508931     Delta-E=       -0.000000000198 Rises=F Damp=F
 DIIS: error= 4.20D-06 at cycle   3 NSaved=   3.
 NSaved= 3 IEnMin= 3 EnMin= -76.4216812508931     IErMin= 3 ErrMin= 4.20D-06
 ErrMax= 4.20D-06  0.00D+00 EMaxC= 1.00D-01 BMatC= 4.43D-10 BMatP= 4.98D-10
 IDIUse=1 WtCom= 1.00D+00 WtEn= 0.00D+00
 Coeff-Com: -0.417D-01 0.527D+00 0.515D+00
 Coeff:     -0.417D-01 0.527D+00 0.515D+00
 Gap=     0.462 Goal=   None    Shift=    0.000
 RMSDP=2.49D-07 MaxDP=3.59D-06 DE=-1.98D-10 OVMax= 5.49D-06

 Cycle   9  Pass 1  IDiag  1:
 E= -76.4216812511769     Delta-E=       -0.000000000284 Rises=F Damp=F
 DIIS: error= 6.92D-07 at cycle   4 NSaved=   4.
 NSaved= 4 IEnMin= 4 EnMin= -76.4216812511769     IErMin= 4 ErrMin= 6.92D-07
 ErrMax= 6.92D-07  0.00D+00 EMaxC= 1.00D-01 BMatC= 5.96D-12 BMatP= 4.43D-10
 IDIUse=1 WtCom= 1.00D+00 WtEn= 0.00D+00
 Coeff-Com: -0.131D-03-0.302D-01 0.638D-01 0.967D+00
 Coeff:     -0.131D-03-0.302D-01 0.638D-01 0.967D+00
 Gap=     0.462 Goal=   None    Shift=    0.000
 RMSDP=6.14D-08 MaxDP=4.19D-07 DE=-2.84D-10 OVMax= 1.32D-06

 Cycle  10  Pass 1  IDiag  1:
 E= -76.4216812511834     Delta-E=       -0.000000000006 Rises=F Damp=F
 DIIS: error= 6.72D-08 at cycle   5 NSaved=   5.
 NSaved= 5 IEnMin= 5 EnMin= -76.4216812511834     IErMin= 5 ErrMin= 6.72D-08
 ErrMax= 6.72D-08  0.00D+00 EMaxC= 1.00D-01 BMatC= 1.65D-13 BMatP= 5.96D-12
 IDIUse=1 WtCom= 1.00D+00 WtEn= 0.00D+00
 Coeff-Com:  0.156D-02-0.239D-01-0.179D-01 0.998D-01 0.940D+00
 Coeff:      0.156D-02-0.239D-01-0.179D-01 0.998D-01 0.940D+00
 Gap=     0.462 Goal=   None    Shift=    0.000
 RMSDP=1.96D-08 MaxDP=1.32D-07 DE=-6.47D-12 OVMax= 3.13D-07

 Cycle  11  Pass 1  IDiag  1:
 E= -76.4216812511839     Delta-E=       -0.000000000000 Rises=F Damp=F
 DIIS: error= 1.14D-08 at cycle   6 NSaved=   6.
 NSaved= 6 IEnMin= 6 EnMin= -76.4216812511839     IErMin= 6 ErrMin= 1.14D-08
 ErrMax= 1.14D-08  0.00D+00 EMaxC= 1.00D-01 BMatC= 6.61D-15 BMatP= 1.65D-13
 IDIUse=1 WtCom= 1.00D+00 WtEn= 0.00D+00
 Coeff-Com:  0.783D-04 0.347D-03-0.470D-02-0.446D-01-0.135D-01 0.106D+01
 Coeff:      0.783D-04 0.347D-03-0.470D-02-0.446D-01-0.135D-01 0.106D+01
 Gap=     0.462 Goal=   None    Shift=    0.000
 RMSDP=4.63D-09 MaxDP=3.22D-08 DE=-4.69D-13 OVMax= 8.15D-08

 SCF Done:  E(RM062X) =  -76.4216812512     A.U. after   11 cycles
            NFock= 11  Conv=0.46D-08     -V/T= 2.0031
 KE= 7.618783959903D+01 PE=-1.990068176501D+02 EE= 3.731693452003D+01
 Leave Link  502 at Sun Feb 19 15:08:35 2023, MaxMem=  6710886400 cpu:               8.7 elap:               0.4
 (Enter /data0/home/software/g16/l601.exe)
 Copying SCF densities to generalized density rwf, IOpCl= 0 IROHF=0.

 **********************************************************************

            Population analysis using the SCF density.

 **********************************************************************

 Alpha  occ. eigenvalues --  -19.62691  -1.13303  -0.60431  -0.47684  -0.39989
 Alpha virt. eigenvalues --    0.06194   0.13286   0.17423   0.17944   0.18902
 Alpha virt. eigenvalues --    0.23405   0.50824   0.53319   0.98128   1.00279
 Alpha virt. eigenvalues --    1.06007   1.17593   1.20100   1.31949   1.34060
 Alpha virt. eigenvalues --    1.70346   1.74221   1.75251   2.07303   2.09468
 Alpha virt. eigenvalues --    2.36283   2.39551   2.54805   2.87642   3.01036
 Alpha virt. eigenvalues --    5.05618   5.48551   5.90421   6.78479   6.80064
 Alpha virt. eigenvalues --    6.87342   6.91591   7.09607  49.95419
          Condensed to atoms (all electrons):
              15         16         17
    15  O    7.919085   0.318602   0.316027
    16  H    0.318602   0.429443  -0.023759
    17  H    0.316027  -0.023759   0.429732
 Mulliken charges:
               1
     1  P    0.000000
     2  O    0.000000
     3  O    0.000000
     4  H    0.000000
     5  O    0.000000
     6  H    0.000000
     7  O    0.000000
     8  H    0.000000
     9  O    0.000000
    10  H    0.000000
    11  H    0.000000
    12  O    0.000000
    13  H    0.000000
    14  H    0.000000
    15  O   -0.553714
    16  H    0.275714
    17  H    0.278000
 Sum of Mulliken charges =  -0.00000
 Mulliken charges with hydrogens summed into heavy atoms:
               1
     1  P    0.000000
     2  O    0.000000
     3  O    0.000000
     5  O    0.000000
     7  O    0.000000
     9  O    0.000000
    12  O    0.000000
    15  O   -0.000000
         Mulliken charges condensed to fragments:
      1      0.000000
      2      0.000000
      3      0.000000
      4     -0.000000
 Electronic spatial extent (au):  <R**2>=           8305.6069
 Charge=             -0.0000 electrons
 Dipole moment (field-independent basis, Debye):
    X=              0.8455    Y=              1.1651    Z=             -1.5784  Tot=              2.1363
 Quadrupole moment (field-independent basis, Debye-Ang):
   XX=              4.5109   YY=             15.5646   ZZ=            -37.0803
   XY=             16.8929   XZ=             -1.4306   YZ=             -2.4150
 Traceless Quadrupole moment (field-independent basis, Debye-Ang):
   XX=             10.1792   YY=             21.2328   ZZ=            -31.4120
   XY=             16.8929   XZ=             -1.4306   YZ=             -2.4150
 Octapole moment (field-independent basis, Debye-Ang**2):
  XXX=            -21.8287  YYY=            132.1633  ZZZ=           -640.9169  XYY=            201.1212
  XXY=            110.7954  XXZ=            -16.7969  XZZ=           -150.0093  YZZ=           -216.4056
  YYZ=             30.4164  XYZ=             81.2070
 Hexadecapole moment (field-independent basis, Debye-Ang**3):
 XXXX=           -790.2978 YYYY=            580.9747 ZZZZ=          -9708.6968 XXXY=            315.2088
 XXXZ=           -606.0013 YYYX=           1909.9840 YYYZ=            207.9020 ZZZX=          -3238.9193
 ZZZY=          -4621.3107 XXYY=           1407.0869 XXZZ=          -1035.9171 YYZZ=          -1433.6639
 XXYZ=            561.1886 YYXZ=           1233.8662 ZZXY=           -410.0888
 N-N= 9.080362279813D+00 E-N=-1.990068175339D+02  KE= 7.618783959903D+01
 No NMR shielding tensors so no spin-rotation constants.
 Leave Link  601 at Sun Feb 19 15:08:35 2023, MaxMem=  6710886400 cpu:               1.8 elap:               0.1
 (Enter /data0/home/software/g16/l122.exe)
 CPIOFr:  IOpCl= 0 IRwI=-1 IRwCP=  731 ICalc=  8 LCPTot=      120517 Len1MO=      315166 IndFrg=     2957011
 Restoring MOs from calculation   1 to rwf.
 CPIOFr:  IOpCl= 0 IRwI=-2 IRwCP=  731 ICalc=  0 LCPTot=      120517 Len1MO=      315166 IndFrg=      435683
 Counterpoise corrected energy =    -873.438716867593
                   BSSE energy =       0.004132389404
              sum of fragments =    -873.409231604893
           complexation energy =     -21.10 kcal/mole (raw)
           complexation energy =     -18.50 kcal/mole (corrected)
 Leave Link  122 at Sun Feb 19 15:08:35 2023, MaxMem=  6710886400 cpu:               0.2 elap:               0.0
 (Enter /data0/home/software/g16/l9999.exe)
 1\1\GINC-LOCALHOST\SP\RM062X\6-311+G(2d,p)\H9O7P1\WUHANYU\19-Feb-2023\
 0\\#p M062X/6-311+G(2d,p) nosymm em=GD3 counterpoise=4\\Title Card Req
 uired\\0,1\P,0,10.130861,7.449115,7.47456\O,0,11.153215,6.813412,8.298
 325\O,0,8.739975,7.407611,8.237345\H,0,8.01817,7.961954,7.736617\O,0,1
 0.382252,8.916224,6.949025\H,0,10.558283,9.586841,7.778612\O,0,9.77018
 4,6.69905,6.104347\H,0,10.462198,6.982634,5.402295\O,0,6.672164,9.0230
 42,7.140364\H,0,6.180332,8.621413,6.433125\H,0,7.170178,9.772395,6.714
 376\O,0,8.201705,10.867328,5.945323\H,0,8.35715,11.58384,6.60916\H,0,9
 .007458,10.342656,6.012781\O,0,6.622647,9.289502,10.090189\H,0,6.49961
 9,9.183694,9.142028\H,0,7.225727,10.056383,10.15051\\Version=ES64L-G16
 RevA.03\HF=-76.4216813\RMSD=4.630e-09\Dipole=0.1981924,2.601468,-2.117
 316\Quadrupole=-6.0335575,78.6167278,-72.5831703,53.4825256,-29.954798
 4,10.00025\PG=C01 [X(H9O7P1)]\\@


 SOME PHYSICISTS WOULD PREFER TO COME BACK TO THE IDEA OF AN OBJECTIVE
 REAL WORLD WHOSE SMALLEST PARTS EXIST OBJECTIVELY IN THE SAME SENSE AS
 STONES OR TREES EXIST INDEPENDENTLY OF WHETHER WE OBSERVE THEM.
 THIS, HOWEVER, IS IMPOSSIBLE.  -- WERNER HEISENBERG
 Job cpu time:       0 days  0 hours 29 minutes 11.3 seconds.
 Elapsed time:       0 days  0 hours  1 minutes 16.3 seconds.
 File lengths (MBytes):  RWF=     75 Int=      0 D2E=      0 Chk=     28 Scr=      1
 Normal termination of Gaussian 16 at Sun Feb 19 15:08:35 2023.
