 Entering Gaussian System, Link 0=g16
 Initial command:
 /data0/home/software/g16/l1.exe "/data0/home/software/g16/scratch/Gau-2482154.inp" -scrdir="/data0/home/software/g16/scratch/"
 Default is to use a total of  22 processors:
                               22 via shared-memory
                                1 via Linda
 Entering Link 1 = /data0/home/software/g16/l1.exe PID=   2482155.
  
 Copyright (c) 1988,1990,1992,1993,1995,1998,2003,2009,2016,
            Gaussian, Inc.  All Rights Reserved.
  
 This is part of the Gaussian(R) 16 program.  It is based on
 the Gaussian(R) 09 system (copyright 2009, Gaussian, Inc.),
 the Gaussian(R) 03 system (copyright 2003, Gaussian, Inc.),
 the Gaussian(R) 98 system (copyright 1998, Gaussian, Inc.),
 the Gaussian(R) 94 system (copyright 1995, Gaussian, Inc.),
 the Gaussian 92(TM) system (copyright 1992, Gaussian, Inc.),
 the Gaussian 90(TM) system (copyright 1990, Gaussian, Inc.),
 the Gaussian 88(TM) system (copyright 1988, Gaussian, Inc.),
 the Gaussian 86(TM) system (copyright 1986, Carnegie Mellon
 University), and the Gaussian 82(TM) system (copyright 1983,
 Carnegie Mellon University). Gaussian is a federally registered
 trademark of Gaussian, Inc.
  
 This software contains proprietary and confidential information,
 including trade secrets, belonging to Gaussian, Inc.
  
 This software is provided under written license and may be
 used, copied, transmitted, or stored only in accord with that
 written license.
  
 The following legend is applicable only to US Government
 contracts under FAR:
  
                    RESTRICTED RIGHTS LEGEND
  
 Use, reproduction and disclosure by the US Government is
 subject to restrictions as set forth in subparagraphs (a)
 and (c) of the Commercial Computer Software - Restricted
 Rights clause in FAR 52.227-19.
  
 Gaussian, Inc.
 340 Quinnipiac St., Bldg. 40, Wallingford CT 06492
  
  
 ---------------------------------------------------------------
 Warning -- This program may not be used in any manner that
 competes with the business of Gaussian, Inc. or will provide
 assistance to any competitor of Gaussian, Inc.  The licensee
 of this program is prohibited from giving any competitor of
 Gaussian, Inc. access to this program.  By using this program,
 the user acknowledges that Gaussian, Inc. is engaged in the
 business of creating and licensing software in the field of
 computational chemistry and represents and warrants to the
 licensee that it is not a competitor of Gaussian, Inc. and that
 it will not use this program in any manner prohibited above.
 ---------------------------------------------------------------
  

 Cite this work as:
 Gaussian 16, Revision A.03,
 M. J. Frisch, G. W. Trucks, H. B. Schlegel, G. E. Scuseria, 
 M. A. Robb, J. R. Cheeseman, G. Scalmani, V. Barone, 
 G. A. Petersson, H. Nakatsuji, X. Li, M. Caricato, A. V. Marenich, 
 J. Bloino, B. G. Janesko, R. Gomperts, B. Mennucci, H. P. Hratchian, 
 J. V. Ortiz, A. F. Izmaylov, J. L. Sonnenberg, D. Williams-Young, 
 F. Ding, F. Lipparini, F. Egidi, J. Goings, B. Peng, A. Petrone, 
 T. Henderson, D. Ranasinghe, V. G. Zakrzewski, J. Gao, N. Rega, 
 G. Zheng, W. Liang, M. Hada, M. Ehara, K. Toyota, R. Fukuda, 
 J. Hasegawa, M. Ishida, T. Nakajima, Y. Honda, O. Kitao, H. Nakai, 
 T. Vreven, K. Throssell, J. A. Montgomery, Jr., J. E. Peralta, 
 F. Ogliaro, M. J. Bearpark, J. J. Heyd, E. N. Brothers, K. N. Kudin, 
 V. N. Staroverov, T. A. Keith, R. Kobayashi, J. Normand, 
 K. Raghavachari, A. P. Rendell, J. C. Burant, S. S. Iyengar, 
 J. Tomasi, M. Cossi, J. M. Millam, M. Klene, C. Adamo, R. Cammi, 
 J. W. Ochterski, R. L. Martin, K. Morokuma, O. Farkas, 
 J. B. Foresman, and D. J. Fox, Gaussian, Inc., Wallingford CT, 2016.
 
 ******************************************
 Gaussian 16:  ES64L-G16RevA.03 25-Dec-2016
                20-Feb-2023 
 ******************************************
 %nproc=24
 Will use up to   24 processors via shared memory.
 %mem=50GB
 ---------------------------------------------------
 #p M062X/6-311+G(2d,p) nosymm em=GD3 counterpoise=2
 ---------------------------------------------------
 1/38=1,62=2,172=1/1;
 2/12=2,15=1,17=6,18=5,40=1/2;
 1/38=1,53=2,62=2,63=1/22;
 3/5=4,6=6,7=112,11=2,25=1,30=1,74=-55,124=31/1,2,3;
 4//1;
 5/5=2,38=5/2;
 6/7=2,8=2,9=2,10=2,28=1/1;
 1/53=2,62=2,63=1/22;
 3/5=7,6=11,7=112,11=2,25=1,30=1,74=-55,82=7,124=31/1,2,3;
 4//1;
 5/5=2,38=5/2;
 6/7=2,8=2,9=2,10=2,28=1/1;
 1/53=2,62=2,63=1/22(-4);
 99/5=1,9=1/99;
 Leave Link    1 at Mon Feb 20 21:20:28 2023, MaxMem=  6710886400 cpu:               0.7 elap:               0.0
 (Enter /data0/home/software/g16/l101.exe)
 -------------------
 Title Card Required
 -------------------
 Symbolic Z-matrix:
 Charge =  0 Multiplicity = 1 in supermolecule
 Charge =  0 Multiplicity = 1 in fragment      1.
 Charge =  0 Multiplicity = 1 in fragment      2.
 C                     5.14299   1.27645   7.80486    
 C                     5.68738   1.14707   9.09922    
 C                     6.83263   1.86187   9.4245     
 C                     7.42533   2.68603   8.45957    
 C                     6.83707   2.82434   7.21312    
 H                     7.25347   1.81002   10.43062    
 H                     4.23736   0.70464   7.5087     
 H                     8.32026   3.26158   8.70268    
 H                     7.23003   3.51733   6.4613     
 C                     4.94008   0.33722   10.08981    
 H                     4.01956   0.89838   10.38098    
 H                     4.60138  -0.62957   9.69362    
 H                     5.50163   0.14423   11.01201    
 N                     5.70319   2.11908   6.90217    
 C                     4.98749   2.42136   5.63792    
 H                     5.66536   2.21721   4.7816     
 H                     4.10558   1.73444   5.53534    
 C                     4.49124   3.88193   5.61346    
 H                     5.31923   4.58419   5.84611    
 H                     4.16407   4.12219   4.58176    
 C                     3.34377   4.13628   6.58792    
 H                     3.01317   5.18831   6.54355    
 H                     2.46063   3.51858   6.35273    
 C                     3.84138   3.84735   8.02423    
 O                     4.6925    4.59025   8.49845    
 O                     3.41076   2.78148   8.54554    
 O                     2.24602   1.07625   6.98728    
 H                     1.39226   0.86493   7.32979    
 H                     2.60419   1.79658   7.61119    
 
 ITRead=  0  0  0  0  0  0  0  0  0  0  0  0  0  0  0  0  0  0  0  0
 ITRead=  0  0  0  0  0  0  0  0  0
 MicOpt= -1 -1 -1 -1 -1 -1 -1 -1 -1 -1 -1 -1 -1 -1 -1 -1 -1 -1 -1 -1
 MicOpt= -1 -1 -1 -1 -1 -1 -1 -1 -1
 NAtoms=     29 NQM=       29 NQMF=       0 NMMI=      0 NMMIF=      0
                NMic=       0 NMicF=      0.
                    Isotopes and Nuclear Properties:
 (Nuclear quadrupole moments (NQMom) in fm**2, nuclear magnetic moments (NMagM)
  in nuclear magnetons)

  Atom         1           2           3           4           5           6           7           8           9          10
 IAtWgt=          12          12          12          12          12           1           1           1           1          12
 AtmWgt=  12.0000000  12.0000000  12.0000000  12.0000000  12.0000000   1.0078250   1.0078250   1.0078250   1.0078250  12.0000000
 NucSpn=           0           0           0           0           0           1           1           1           1           0
 AtZEff=  -0.0000000  -0.0000000  -0.0000000  -0.0000000  -0.0000000  -0.0000000  -0.0000000  -0.0000000  -0.0000000  -0.0000000
 NQMom=    0.0000000   0.0000000   0.0000000   0.0000000   0.0000000   0.0000000   0.0000000   0.0000000   0.0000000   0.0000000
 NMagM=    0.0000000   0.0000000   0.0000000   0.0000000   0.0000000   2.7928460   2.7928460   2.7928460   2.7928460   0.0000000
 AtZNuc=   6.0000000   6.0000000   6.0000000   6.0000000   6.0000000   1.0000000   1.0000000   1.0000000   1.0000000   6.0000000

  Atom        11          12          13          14          15          16          17          18          19          20
 IAtWgt=           1           1           1          14          12           1           1          12           1           1
 AtmWgt=   1.0078250   1.0078250   1.0078250  14.0030740  12.0000000   1.0078250   1.0078250  12.0000000   1.0078250   1.0078250
 NucSpn=           1           1           1           2           0           1           1           0           1           1
 AtZEff=  -0.0000000  -0.0000000  -0.0000000  -0.0000000  -0.0000000  -0.0000000  -0.0000000  -0.0000000  -0.0000000  -0.0000000
 NQMom=    0.0000000   0.0000000   0.0000000   2.0440000   0.0000000   0.0000000   0.0000000   0.0000000   0.0000000   0.0000000
 NMagM=    2.7928460   2.7928460   2.7928460   0.4037610   0.0000000   2.7928460   2.7928460   0.0000000   2.7928460   2.7928460
 AtZNuc=   1.0000000   1.0000000   1.0000000   7.0000000   6.0000000   1.0000000   1.0000000   6.0000000   1.0000000   1.0000000

  Atom        21          22          23          24          25          26          27          28          29
 IAtWgt=          12           1           1          12          16          16          16           1           1
 AtmWgt=  12.0000000   1.0078250   1.0078250  12.0000000  15.9949146  15.9949146  15.9949146   1.0078250   1.0078250
 NucSpn=           0           1           1           0           0           0           0           1           1
 AtZEff=  -0.0000000  -0.0000000  -0.0000000  -0.0000000  -0.0000000  -0.0000000  -0.0000000  -0.0000000  -0.0000000
 NQMom=    0.0000000   0.0000000   0.0000000   0.0000000   0.0000000   0.0000000   0.0000000   0.0000000   0.0000000
 NMagM=    0.0000000   2.7928460   2.7928460   0.0000000   0.0000000   0.0000000   0.0000000   2.7928460   2.7928460
 AtZNuc=   6.0000000   1.0000000   1.0000000   6.0000000   8.0000000   8.0000000   8.0000000   1.0000000   1.0000000
 Leave Link  101 at Mon Feb 20 21:20:28 2023, MaxMem=  6710886400 cpu:               2.2 elap:               0.1
 (Enter /data0/home/software/g16/l202.exe)
                          Input orientation:                          
 ---------------------------------------------------------------------
 Center     Atomic      Atomic             Coordinates (Angstroms)
 Number     Number       Type             X           Y           Z
 ---------------------------------------------------------------------
      1          6           0        5.142990    1.276454    7.804863
      2          6           0        5.687383    1.147066    9.099223
      3          6           0        6.832625    1.861874    9.424499
      4          6           0        7.425326    2.686032    8.459573
      5          6           0        6.837067    2.824342    7.213115
      6          1           0        7.253475    1.810015   10.430616
      7          1           0        4.237359    0.704639    7.508695
      8          1           0        8.320262    3.261581    8.702676
      9          1           0        7.230027    3.517325    6.461297
     10          6           0        4.940082    0.337216   10.089809
     11          1           0        4.019559    0.898382   10.380979
     12          1           0        4.601380   -0.629573    9.693620
     13          1           0        5.501631    0.144229   11.012006
     14          7           0        5.703189    2.119078    6.902165
     15          6           0        4.987492    2.421356    5.637923
     16          1           0        5.665364    2.217211    4.781599
     17          1           0        4.105577    1.734443    5.535344
     18          6           0        4.491238    3.881927    5.613455
     19          1           0        5.319227    4.584188    5.846109
     20          1           0        4.164066    4.122191    4.581764
     21          6           0        3.343772    4.136279    6.587918
     22          1           0        3.013172    5.188314    6.543554
     23          1           0        2.460633    3.518580    6.352732
     24          6           0        3.841383    3.847354    8.024231
     25          8           0        4.692504    4.590255    8.498448
     26          8           0        3.410757    2.781481    8.545537
     27          8           0        2.246019    1.076253    6.987281
     28          1           0        1.392257    0.864934    7.329794
     29          1           0        2.604189    1.796575    7.611186
 ---------------------------------------------------------------------
                    Distance matrix (angstroms):
                    1          2          3          4          5
     1  C    0.000000
     2  C    1.410132   0.000000
     3  C    2.412634   1.388645   0.000000
     4  C    2.761270   2.407907   1.400576   0.000000
     5  C    2.369814   2.773523   2.411759   1.385221   0.000000
     6  H    3.410779   2.159804   1.091822   2.163781   3.399201
     7  H    1.111240   2.197292   3.427084   3.872108   3.367342
     8  H    3.852513   3.400070   2.166396   1.091451   2.147053
     9  H    3.344009   3.867368   3.417457   2.173085   1.095387
    10  C    2.478773   1.481748   2.519710   3.788277   4.249672
    11  H    2.835738   2.118107   3.123541   4.299621   4.656505
    12  H    2.737459   2.165446   3.355322   4.526674   4.804241
    13  H    3.419989   2.167700   2.691102   4.083660   4.837145
    14  N    1.355987   2.402524   2.775599   2.390128   1.371046
    15  C    2.455730   3.754232   4.249199   3.738288   2.462632
    16  H    3.209053   4.448322   4.800550   4.104236   2.766544
    17  H    2.537064   3.943140   4.751690   4.525193   3.385828
    18  C    3.466344   4.589205   4.907827   4.259040   3.029903
    19  H    3.848231   4.746799   4.744074   3.856014   2.696220
    20  H    4.409635   5.619546   5.973468   5.266476   3.969050
    21  C    3.591203   4.553522   5.038969   4.718622   3.783538
    22  H    4.629220   5.478552   5.826943   5.422144   4.545201
    23  H    3.785611   4.855843   5.594170   5.457114   4.513912
    24  C    2.889953   3.443092   3.853623   3.792471   3.267810
    25  O    3.415447   3.634043   3.589116   3.331050   3.060993
    26  O    2.411293   2.856730   3.650676   4.016624   3.676518
    27  O    3.016780   4.038354   5.253017   5.619987   4.917778
    28  H    3.803030   4.653878   5.914329   6.402400   5.787819
    29  H    2.598759   3.484566   4.601308   4.975365   4.374017
                    6          7          8          9         10
     6  H    0.000000
     7  H    4.342400   0.000000
     8  H    2.496168   4.963229   0.000000
     9  H    4.320990   4.238432   2.505553   0.000000
    10  C    2.763526   2.700179   4.679922   5.340697   0.000000
    11  H    3.360320   2.887038   5.186276   5.703497   1.116714
    12  H    3.678092   2.585833   5.472946   5.878304   1.098347
    13  H    2.486326   3.766382   4.795370   5.922338   1.096827
    14  N    3.866377   2.125364   3.375829   2.116765   3.730742
    15  C    5.336508   2.647566   4.605002   2.628318   4.915809
    16  H    5.882117   3.429887   4.849127   2.638153   5.677808
    17  H    5.820538   2.229793   5.488872   3.714599   4.836506
    18  C    5.926872   3.708308   4.958784   2.890110   5.727494
    19  H    5.696934   4.357239   4.349192   2.273282   6.015772
    20  H    7.007116   4.500218   5.915787   3.646728   6.728060
    21  C    5.955133   3.663670   5.477477   3.937273   5.407802
    22  H    6.671006   4.746943   6.044776   4.536611   6.310472
    23  H    6.520711   3.522963   6.318508   4.770630   5.498590
    24  C    4.645838   3.209242   4.567688   3.746277   4.218391
    25  O    4.245183   4.035440   3.868813   3.426395   4.547754
    26  O    4.389049   2.464059   4.935426   4.412748   3.270786
    27  O    6.121240   2.091747   6.679421   5.574570   4.174905
    28  H    6.697921   2.855224   7.458282   6.470628   4.525840
    29  H    5.437392   1.967250   6.000924   5.067702   3.705361
                   11         12         13         14         15
    11  H    0.000000
    12  H    1.773591   0.000000
    13  H    1.778617   1.774081   0.000000
    14  N    4.053006   4.069556   4.564148   0.000000
    15  C    5.074734   5.089787   5.859216   1.483881   0.000000
    16  H    5.983397   5.776174   6.568260   2.123172   1.111070
    17  H    4.917985   4.808914   5.871250   2.137407   1.122562
    18  C    5.643873   6.083873   6.643465   2.497446   1.542768
    19  H    5.986597   6.519352   6.814176   2.709142   2.198006
    20  H    6.636620   6.992966   7.678624   3.430105   2.164796
    21  C    5.032691   5.825831   6.337616   3.120048   2.558372
    22  H    5.843129   6.803905   7.183473   4.096950   3.517693
    23  H    5.051976   5.740340   6.507131   3.574165   2.846027
    24  C    3.779212   4.838112   5.039480   2.777101   3.006909
    25  O    4.198417   5.355683   5.171055   3.110678   3.601908
    26  O    2.699176   3.790906   4.172568   2.897360   3.327161
    27  O    3.833310   3.972636   5.259856   3.612029   3.338524
    28  H    4.026607   4.256724   5.564625   4.509975   4.267387
    29  H    3.237557   3.769814   4.763506   3.195390   3.156620
                   16         17         18         19         20
    16  H    0.000000
    17  H    1.798369   0.000000
    18  C    2.200417   2.183237   0.000000
    19  H    2.618315   3.112968   1.110344   0.000000
    20  H    2.433676   2.571785   1.108672   1.773811   0.000000
    21  C    3.512179   2.730765   1.526745   2.157157   2.167426
    22  H    4.355004   3.760194   2.180920   2.483805   2.511931
    23  H    3.798989   2.560685   2.191326   3.092531   2.530288
    24  C    4.061888   3.275477   2.497068   2.733343   3.468463
    25  O    4.515834   4.156938   2.977486   2.725385   3.979792
    26  O    4.423673   3.261951   3.312933   3.765491   4.251644
    27  O    4.225960   2.449345   3.847104   4.801301   4.329337
    28  H    5.155715   3.367225   4.653144   5.608499   5.083731
    29  H    4.189784   2.562644   3.449721   4.272905   4.125422
                   21         22         23         24         25
    21  C    0.000000
    22  H    1.103649   0.000000
    23  H    1.103086   1.769103   0.000000
    24  C    1.547285   2.162524   2.192823   0.000000
    25  O    2.382288   2.645646   3.276253   1.225231   0.000000
    26  O    2.381646   3.155765   2.500889   1.262254   2.217376
    27  O    3.275410   4.206479   2.532523   3.361466   4.540608
    28  H    3.880785   4.683711   3.022898   3.921134   5.112279
    29  H    2.658623   3.579246   2.137666   2.430422   3.599019
                   26         27         28         29
    26  O    0.000000
    27  O    2.587002   0.000000
    28  H    3.037355   0.943865   0.000000
    29  H    1.579115   1.018041   1.554322   0.000000
 Symmetry turned off by external request.
 Stoichiometry    C10H15NO3
 Framework group  C1[X(C10H15NO3)]
 Deg. of freedom    81
 Full point group                 C1      NOp   1
 Rotational constants (GHZ):           0.8960867           0.6724758           0.5521197
 Leave Link  202 at Mon Feb 20 21:20:28 2023, MaxMem=  6710886400 cpu:               0.1 elap:               0.0
 (Enter /data0/home/software/g16/l122.exe)
 Counterpoise: doing full-system calculation.
 Leave Link  122 at Mon Feb 20 21:20:28 2023, MaxMem=  6710886400 cpu:               0.0 elap:               0.0
 (Enter /data0/home/software/g16/l301.exe)
 Standard basis: 6-311+G(2d,p) (5D, 7F)
 Ernie: Thresh=  0.10000D-02 Tol=  0.10000D-05 Strict=F.
   468 basis functions,   708 primitive gaussians,   496 cartesian basis functions
    53 alpha electrons       53 beta electrons
       nuclear repulsion energy       982.7057784557 Hartrees.
 IExCor= 4336 DFT=T Ex+Corr=M062X ExCW=0 ScaHFX=  0.540000
 ScaDFX=  1.000000  1.000000  1.000000  1.000000 ScalE2=  1.000000  1.000000
 IRadAn=      5 IRanWt=     -1 IRanGd=            0 ICorTp=0 IEmpDi=131
 NAtoms=   29 NActive=   29 NUniq=   29 SFac= 1.00D+00 NAtFMM=   60 NAOKFM=F Big=F
 Integral buffers will be    131072 words long.
 Raffenetti 2 integral format.
 Two-electron integral symmetry is turned off.
 R6Disp:  Grimme-D3 Dispersion energy=       -0.0016268823 Hartrees.
 Nuclear repulsion after empirical dispersion term =      982.7041515734 Hartrees.
 Leave Link  301 at Mon Feb 20 21:20:28 2023, MaxMem=  6710886400 cpu:               1.1 elap:               0.1
 (Enter /data0/home/software/g16/l302.exe)
 NPDir=0 NMtPBC=     1 NCelOv=     1 NCel=       1 NClECP=     1 NCelD=      1
         NCelK=      1 NCelE2=     1 NClLst=     1 CellRange=     0.0.
 One-electron integrals computed using PRISM.
 NBasis=   468 RedAO= T EigKep=  2.31D-06  NBF=   468
 NBsUse=   468 1.00D-06 EigRej= -1.00D+00 NBFU=   468
 Precomputing XC quadrature grid using
 IXCGrd= 4 IRadAn=           5 IRanWt=          -1 IRanGd=           0 AccXCQ= 0.00D+00.
 Generated NRdTot=       0 NPtTot=           0 NUsed=           0 NTot=          32
 NSgBfM=   496   496   496   496   496 MxSgAt=    29 MxSgA2=    29.
 Leave Link  302 at Mon Feb 20 21:20:29 2023, MaxMem=  6710886400 cpu:              10.3 elap:               0.4
 (Enter /data0/home/software/g16/l303.exe)
 DipDrv:  MaxL=1.
 Leave Link  303 at Mon Feb 20 21:20:29 2023, MaxMem=  6710886400 cpu:               1.1 elap:               0.1
 (Enter /data0/home/software/g16/l401.exe)
 ExpMin= 4.38D-02 ExpMax= 8.59D+03 ExpMxC= 1.30D+03 IAcc=3 IRadAn=         5 AccDes= 0.00D+00
 Harris functional with IExCor= 1009 and IRadAn=       5 diagonalized for initial guess.
 HarFok:  IExCor= 1009 AccDes= 0.00D+00 IRadAn=         5 IDoV= 1 UseB2=F ITyADJ=14
 ICtDFT=  3500011 ScaDFX=  1.000000  1.000000  1.000000  1.000000
 FoFCou: FMM=F IPFlag=           0 FMFlag=      100000 FMFlg1=           0
         NFxFlg=           0 DoJE=T BraDBF=F KetDBF=T FulRan=T
         wScrn=  0.000000 ICntrl=       500 IOpCl=  0 I1Cent=   200000004 NGrid=           0
         NMat0=    1 NMatS0=      1 NMatT0=    0 NMatD0=    1 NMtDS0=    0 NMtDT0=    0
 Symmetry not used in FoFCou.
 Harris En= -670.176188217757    
 JPrj=0 DoOrth=F DoCkMO=F.
 Leave Link  401 at Mon Feb 20 21:20:31 2023, MaxMem=  6710886400 cpu:              45.7 elap:               1.9
 (Enter /data0/home/software/g16/l502.exe)
 Two-electron integral symmetry not used.
 Closed shell SCF:
 Using DIIS extrapolation, IDIIS=  1040.
 NGot=  6710886400 LenX=  6710378913 LenY=  6710132401
 Requested convergence on RMS density matrix=1.00D-08 within 128 cycles.
 Requested convergence on MAX density matrix=1.00D-06.
 Requested convergence on             energy=1.00D-06.
 No special actions if energy rises.
 Fock matrices will be formed incrementally for  20 cycles.

 Cycle   1  Pass 1  IDiag  1:
 FoFJK:  IHMeth= 1 ICntrl=       0 DoSepK=F KAlg= 0 I1Cent=           0 FoldK=F
 IRaf= 920000000 NMat=       1 IRICut=       1 DoRegI=T DoRafI=F ISym2E= 0 IDoP0=0 IntGTp=1.
 FoFCou: FMM=F IPFlag=           0 FMFlag=      100000 FMFlg1=           0
         NFxFlg=           0 DoJE=F BraDBF=F KetDBF=F FulRan=T
         wScrn=  0.000000 ICntrl=         0 IOpCl=  0 I1Cent=           0 NGrid=           0
         NMat0=    1 NMatS0=      1 NMatT0=    0 NMatD0=    1 NMtDS0=    0 NMtDT0=    0
 Symmetry not used in FoFCou.
 E= -669.986131342247    
 DIIS: error= 2.17D-02 at cycle   1 NSaved=   1.
 NSaved= 1 IEnMin= 1 EnMin= -669.986131342247     IErMin= 1 ErrMin= 2.17D-02
 ErrMax= 2.17D-02  0.00D+00 EMaxC= 1.00D-01 BMatC= 6.27D-01 BMatP= 6.27D-01
 IDIUse=3 WtCom= 7.83D-01 WtEn= 2.17D-01
 Coeff-Com:  0.100D+01
 Coeff-En:   0.100D+01
 Coeff:      0.100D+01
 Gap=     0.217 Goal=   None    Shift=    0.000
 GapD=    0.217 DampG=1.000 DampE=0.500 DampFc=0.5000 IDamp=-1.
 Damping current iteration by 5.00D-01
 RMSDP=1.63D-02 MaxDP=2.62D+00              OVMax= 2.02D-01

 Cycle   2  Pass 1  IDiag  1:
 RMSU=  6.99D-03    CP:  1.18D+00
 E= -670.191842188616     Delta-E=       -0.205710846369 Rises=F Damp=T
 DIIS: error= 4.91D-03 at cycle   2 NSaved=   2.
 NSaved= 2 IEnMin= 2 EnMin= -670.191842188616     IErMin= 2 ErrMin= 4.91D-03
 ErrMax= 4.91D-03  0.00D+00 EMaxC= 1.00D-01 BMatC= 4.69D-02 BMatP= 6.27D-01
 IDIUse=3 WtCom= 9.51D-01 WtEn= 4.91D-02
 Coeff-Com:  0.699D-02 0.993D+00
 Coeff-En:   0.543D-01 0.946D+00
 Coeff:      0.931D-02 0.991D+00
 Gap=     0.263 Goal=   None    Shift=    0.000
 RMSDP=9.81D-03 MaxDP=2.24D+00 DE=-2.06D-01 OVMax= 1.44D-01

 Cycle   3  Pass 1  IDiag  1:
 RMSU=  4.95D-03    CP:  8.49D-01  5.32D-01
 E= -670.421114372792     Delta-E=       -0.229272184176 Rises=F Damp=F
 DIIS: error= 3.75D-03 at cycle   3 NSaved=   3.
 NSaved= 3 IEnMin= 3 EnMin= -670.421114372792     IErMin= 3 ErrMin= 3.75D-03
 ErrMax= 3.75D-03  0.00D+00 EMaxC= 1.00D-01 BMatC= 2.10D-02 BMatP= 4.69D-02
 IDIUse=3 WtCom= 9.62D-01 WtEn= 3.75D-02
 Coeff-Com: -0.674D-01 0.395D+00 0.672D+00
 Coeff-En:   0.000D+00 0.000D+00 0.100D+01
 Coeff:     -0.649D-01 0.380D+00 0.685D+00
 Gap=     0.229 Goal=   None    Shift=    0.000
 RMSDP=9.49D-04 MaxDP=8.64D-02 DE=-2.29D-01 OVMax= 4.67D-02

 Cycle   4  Pass 1  IDiag  1:
 RMSU=  8.16D-04    CP:  8.60D-01  5.86D-01  1.02D+00
 E= -670.434402204403     Delta-E=       -0.013287831611 Rises=F Damp=F
 DIIS: error= 1.77D-03 at cycle   4 NSaved=   4.
 NSaved= 4 IEnMin= 4 EnMin= -670.434402204403     IErMin= 4 ErrMin= 1.77D-03
 ErrMax= 1.77D-03  0.00D+00 EMaxC= 1.00D-01 BMatC= 4.73D-03 BMatP= 2.10D-02
 IDIUse=3 WtCom= 9.82D-01 WtEn= 1.77D-02
 Coeff-Com: -0.339D-01 0.989D-01 0.371D+00 0.564D+00
 Coeff-En:   0.000D+00 0.000D+00 0.183D+00 0.817D+00
 Coeff:     -0.333D-01 0.972D-01 0.368D+00 0.568D+00
 Gap=     0.225 Goal=   None    Shift=    0.000
 RMSDP=3.61D-04 MaxDP=3.54D-02 DE=-1.33D-02 OVMax= 1.65D-02

 Cycle   5  Pass 1  IDiag  1:
 RMSU=  2.76D-04    CP:  8.57D-01  5.77D-01  1.04D+00  7.56D-01
 E= -670.438519775434     Delta-E=       -0.004117571031 Rises=F Damp=F
 DIIS: error= 3.73D-04 at cycle   5 NSaved=   5.
 NSaved= 5 IEnMin= 5 EnMin= -670.438519775434     IErMin= 5 ErrMin= 3.73D-04
 ErrMax= 3.73D-04  0.00D+00 EMaxC= 1.00D-01 BMatC= 1.98D-04 BMatP= 4.73D-03
 IDIUse=3 WtCom= 9.96D-01 WtEn= 3.73D-03
 Coeff-Com: -0.112D-01 0.225D-01 0.128D+00 0.258D+00 0.603D+00
 Coeff-En:   0.000D+00 0.000D+00 0.000D+00 0.000D+00 0.100D+01
 Coeff:     -0.111D-01 0.224D-01 0.127D+00 0.257D+00 0.604D+00
 Gap=     0.225 Goal=   None    Shift=    0.000
 RMSDP=1.11D-04 MaxDP=1.02D-02 DE=-4.12D-03 OVMax= 3.63D-03

 Cycle   6  Pass 1  IDiag  1:
 RMSU=  9.08D-05    CP:  8.57D-01  5.73D-01  1.04D+00  7.92D-01  8.55D-01
 E= -670.438679164403     Delta-E=       -0.000159388969 Rises=F Damp=F
 DIIS: error= 1.09D-04 at cycle   6 NSaved=   6.
 NSaved= 6 IEnMin= 6 EnMin= -670.438679164403     IErMin= 6 ErrMin= 1.09D-04
 ErrMax= 1.09D-04  0.00D+00 EMaxC= 1.00D-01 BMatC= 1.59D-05 BMatP= 1.98D-04
 IDIUse=3 WtCom= 9.99D-01 WtEn= 1.09D-03
 Coeff-Com: -0.191D-02 0.148D-02 0.246D-01 0.621D-01 0.265D+00 0.649D+00
 Coeff-En:   0.000D+00 0.000D+00 0.000D+00 0.000D+00 0.000D+00 0.100D+01
 Coeff:     -0.191D-02 0.147D-02 0.246D-01 0.621D-01 0.264D+00 0.649D+00
 Gap=     0.226 Goal=   None    Shift=    0.000
 RMSDP=4.80D-05 MaxDP=8.11D-03 DE=-1.59D-04 OVMax= 1.27D-03

 Cycle   7  Pass 1  IDiag  1:
 RMSU=  2.92D-05    CP:  8.58D-01  5.74D-01  1.05D+00  8.08D-01  9.19D-01
                    CP:  1.06D+00
 E= -670.438692488308     Delta-E=       -0.000013323905 Rises=F Damp=F
 DIIS: error= 4.47D-05 at cycle   7 NSaved=   7.
 NSaved= 7 IEnMin= 7 EnMin= -670.438692488308     IErMin= 7 ErrMin= 4.47D-05
 ErrMax= 4.47D-05  0.00D+00 EMaxC= 1.00D-01 BMatC= 1.88D-06 BMatP= 1.59D-05
 IDIUse=1 WtCom= 1.00D+00 WtEn= 0.00D+00
 Coeff-Com:  0.770D-03-0.246D-02-0.639D-02-0.839D-02 0.374D-01 0.274D+00
 Coeff-Com:  0.705D+00
 Coeff:      0.770D-03-0.246D-02-0.639D-02-0.839D-02 0.374D-01 0.274D+00
 Coeff:      0.705D+00
 Gap=     0.226 Goal=   None    Shift=    0.000
 RMSDP=1.74D-05 MaxDP=2.45D-03 DE=-1.33D-05 OVMax= 6.33D-04

 Cycle   8  Pass 1  IDiag  1:
 RMSU=  1.07D-05    CP:  8.58D-01  5.73D-01  1.05D+00  8.08D-01  9.38D-01
                    CP:  1.11D+00  9.73D-01
 E= -670.438694177270     Delta-E=       -0.000001688962 Rises=F Damp=F
 DIIS: error= 2.15D-05 at cycle   8 NSaved=   8.
 NSaved= 8 IEnMin= 8 EnMin= -670.438694177270     IErMin= 8 ErrMin= 2.15D-05
 ErrMax= 2.15D-05  0.00D+00 EMaxC= 1.00D-01 BMatC= 4.46D-07 BMatP= 1.88D-06
 IDIUse=1 WtCom= 1.00D+00 WtEn= 0.00D+00
 Coeff-Com:  0.690D-03-0.150D-02-0.679D-02-0.138D-01-0.181D-01 0.450D-01
 Coeff-Com:  0.374D+00 0.620D+00
 Coeff:      0.690D-03-0.150D-02-0.679D-02-0.138D-01-0.181D-01 0.450D-01
 Coeff:      0.374D+00 0.620D+00
 Gap=     0.226 Goal=   None    Shift=    0.000
 RMSDP=6.14D-06 MaxDP=5.06D-04 DE=-1.69D-06 OVMax= 2.67D-04

 Cycle   9  Pass 1  IDiag  1:
 RMSU=  4.42D-06    CP:  8.58D-01  5.72D-01  1.05D+00  8.08D-01  9.45D-01
                    CP:  1.13D+00  1.05D+00  9.70D-01
 E= -670.438694588847     Delta-E=       -0.000000411578 Rises=F Damp=F
 DIIS: error= 6.36D-06 at cycle   9 NSaved=   9.
 NSaved= 9 IEnMin= 9 EnMin= -670.438694588847     IErMin= 9 ErrMin= 6.36D-06
 ErrMax= 6.36D-06  0.00D+00 EMaxC= 1.00D-01 BMatC= 4.61D-08 BMatP= 4.46D-07
 IDIUse=1 WtCom= 1.00D+00 WtEn= 0.00D+00
 Coeff-Com:  0.201D-03-0.366D-03-0.213D-02-0.519D-02-0.119D-01-0.145D-01
 Coeff-Com:  0.793D-01 0.287D+00 0.668D+00
 Coeff:      0.201D-03-0.366D-03-0.213D-02-0.519D-02-0.119D-01-0.145D-01
 Coeff:      0.793D-01 0.287D+00 0.668D+00
 Gap=     0.226 Goal=   None    Shift=    0.000
 RMSDP=1.82D-06 MaxDP=1.66D-04 DE=-4.12D-07 OVMax= 8.95D-05

 Cycle  10  Pass 1  IDiag  1:
 RMSU=  1.25D-06    CP:  8.58D-01  5.72D-01  1.05D+00  8.08D-01  9.45D-01
                    CP:  1.14D+00  1.07D+00  1.02D+00  1.06D+00
 E= -670.438694641331     Delta-E=       -0.000000052484 Rises=F Damp=F
 DIIS: error= 1.96D-06 at cycle  10 NSaved=  10.
 NSaved=10 IEnMin=10 EnMin= -670.438694641331     IErMin=10 ErrMin= 1.96D-06
 ErrMax= 1.96D-06  0.00D+00 EMaxC= 1.00D-01 BMatC= 5.41D-09 BMatP= 4.61D-08
 IDIUse=1 WtCom= 1.00D+00 WtEn= 0.00D+00
 Coeff-Com: -0.195D-04 0.691D-04 0.113D-03-0.210D-03-0.213D-02-0.127D-01
 Coeff-Com: -0.240D-01 0.250D-01 0.264D+00 0.750D+00
 Coeff:     -0.195D-04 0.691D-04 0.113D-03-0.210D-03-0.213D-02-0.127D-01
 Coeff:     -0.240D-01 0.250D-01 0.264D+00 0.750D+00
 Gap=     0.226 Goal=   None    Shift=    0.000
 RMSDP=9.41D-07 MaxDP=7.21D-05 DE=-5.25D-08 OVMax= 3.62D-05

 Cycle  11  Pass 1  IDiag  1:
 RMSU=  4.77D-07    CP:  8.58D-01  5.73D-01  1.05D+00  8.08D-01  9.46D-01
                    CP:  1.14D+00  1.08D+00  1.06D+00  1.18D+00  1.18D+00
 E= -670.438694648946     Delta-E=       -0.000000007615 Rises=F Damp=F
 DIIS: error= 1.02D-06 at cycle  11 NSaved=  11.
 NSaved=11 IEnMin=11 EnMin= -670.438694648946     IErMin=11 ErrMin= 1.02D-06
 ErrMax= 1.02D-06  0.00D+00 EMaxC= 1.00D-01 BMatC= 9.06D-10 BMatP= 5.41D-09
 IDIUse=1 WtCom= 1.00D+00 WtEn= 0.00D+00
 Coeff-Com: -0.414D-04 0.885D-04 0.401D-03 0.729D-03 0.105D-02-0.342D-02
 Coeff-Com: -0.241D-01-0.341D-01 0.113D-01 0.324D+00 0.724D+00
 Coeff:     -0.414D-04 0.885D-04 0.401D-03 0.729D-03 0.105D-02-0.342D-02
 Coeff:     -0.241D-01-0.341D-01 0.113D-01 0.324D+00 0.724D+00
 Gap=     0.226 Goal=   None    Shift=    0.000
 RMSDP=3.46D-07 MaxDP=3.07D-05 DE=-7.61D-09 OVMax= 2.05D-05

 Cycle  12  Pass 1  IDiag  1:
 RMSU=  1.92D-07    CP:  8.58D-01  5.73D-01  1.05D+00  8.08D-01  9.45D-01
                    CP:  1.14D+00  1.07D+00  1.07D+00  1.23D+00  1.26D+00
                    CP:  1.04D+00
 E= -670.438694650455     Delta-E=       -0.000000001509 Rises=F Damp=F
 DIIS: error= 3.12D-07 at cycle  12 NSaved=  12.
 NSaved=12 IEnMin=12 EnMin= -670.438694650455     IErMin=12 ErrMin= 3.12D-07
 ErrMax= 3.12D-07  0.00D+00 EMaxC= 1.00D-01 BMatC= 1.23D-10 BMatP= 9.06D-10
 IDIUse=1 WtCom= 1.00D+00 WtEn= 0.00D+00
 Coeff-Com: -0.113D-04 0.222D-04 0.130D-03 0.279D-03 0.632D-03 0.434D-03
 Coeff-Com: -0.549D-02-0.142D-01-0.325D-01 0.186D-02 0.265D+00 0.784D+00
 Coeff:     -0.113D-04 0.222D-04 0.130D-03 0.279D-03 0.632D-03 0.434D-03
 Coeff:     -0.549D-02-0.142D-01-0.325D-01 0.186D-02 0.265D+00 0.784D+00
 Gap=     0.226 Goal=   None    Shift=    0.000
 RMSDP=1.38D-07 MaxDP=1.56D-05 DE=-1.51D-09 OVMax= 7.43D-06

 Cycle  13  Pass 1  IDiag  1:
 RMSU=  8.74D-08    CP:  8.58D-01  5.73D-01  1.05D+00  8.08D-01  9.45D-01
                    CP:  1.14D+00  1.07D+00  1.07D+00  1.24D+00  1.29D+00
                    CP:  1.11D+00  1.11D+00
 E= -670.438694650689     Delta-E=       -0.000000000234 Rises=F Damp=F
 DIIS: error= 1.62D-07 at cycle  13 NSaved=  13.
 NSaved=13 IEnMin=13 EnMin= -670.438694650689     IErMin=13 ErrMin= 1.62D-07
 ErrMax= 1.62D-07  0.00D+00 EMaxC= 1.00D-01 BMatC= 1.20D-11 BMatP= 1.23D-10
 IDIUse=1 WtCom= 1.00D+00 WtEn= 0.00D+00
 Coeff-Com:  0.358D-05-0.779D-05-0.198D-04-0.288D-04 0.180D-04 0.629D-03
 Coeff-Com:  0.187D-02 0.149D-02-0.109D-01-0.491D-01-0.295D-01 0.212D+00
 Coeff-Com:  0.874D+00
 Coeff:      0.358D-05-0.779D-05-0.198D-04-0.288D-04 0.180D-04 0.629D-03
 Coeff:      0.187D-02 0.149D-02-0.109D-01-0.491D-01-0.295D-01 0.212D+00
 Coeff:      0.874D+00
 Gap=     0.226 Goal=   None    Shift=    0.000
 RMSDP=4.72D-08 MaxDP=3.16D-06 DE=-2.34D-10 OVMax= 4.93D-06

 Cycle  14  Pass 1  IDiag  1:
 RMSU=  2.54D-08    CP:  8.58D-01  5.73D-01  1.05D+00  8.08D-01  9.45D-01
                    CP:  1.14D+00  1.07D+00  1.07D+00  1.23D+00  1.30D+00
                    CP:  1.13D+00  1.22D+00  1.26D+00
 E= -670.438694650722     Delta-E=       -0.000000000033 Rises=F Damp=F
 DIIS: error= 5.80D-08 at cycle  14 NSaved=  14.
 NSaved=14 IEnMin=14 EnMin= -670.438694650722     IErMin=14 ErrMin= 5.80D-08
 ErrMax= 5.80D-08  0.00D+00 EMaxC= 1.00D-01 BMatC= 2.94D-12 BMatP= 1.20D-11
 IDIUse=1 WtCom= 1.00D+00 WtEn= 0.00D+00
 Coeff-Com:  0.264D-05-0.555D-05-0.208D-04-0.393D-04-0.615D-04 0.224D-03
 Coeff-Com:  0.127D-02 0.208D-02-0.190D-02-0.208D-01-0.423D-01-0.108D-01
 Coeff-Com:  0.375D+00 0.697D+00
 Coeff:      0.264D-05-0.555D-05-0.208D-04-0.393D-04-0.615D-04 0.224D-03
 Coeff:      0.127D-02 0.208D-02-0.190D-02-0.208D-01-0.423D-01-0.108D-01
 Coeff:      0.375D+00 0.697D+00
 Gap=     0.226 Goal=   None    Shift=    0.000
 RMSDP=2.05D-08 MaxDP=2.59D-06 DE=-3.25D-11 OVMax= 1.23D-06

 Cycle  15  Pass 1  IDiag  1:
 RMSU=  1.00D-08    CP:  8.58D-01  5.73D-01  1.05D+00  8.08D-01  9.45D-01
                    CP:  1.14D+00  1.07D+00  1.07D+00  1.24D+00  1.30D+00
                    CP:  1.14D+00  1.26D+00  1.34D+00  1.02D+00
 E= -670.438694650797     Delta-E=       -0.000000000075 Rises=F Damp=F
 DIIS: error= 1.87D-08 at cycle  15 NSaved=  15.
 NSaved=15 IEnMin=15 EnMin= -670.438694650797     IErMin=15 ErrMin= 1.87D-08
 ErrMax= 1.87D-08  0.00D+00 EMaxC= 1.00D-01 BMatC= 3.98D-13 BMatP= 2.94D-12
 IDIUse=1 WtCom= 1.00D+00 WtEn= 0.00D+00
 Coeff-Com:  0.535D-06-0.112D-05-0.564D-05-0.123D-04-0.286D-04 0.349D-05
 Coeff-Com:  0.257D-03 0.789D-03 0.953D-03-0.222D-04-0.127D-01-0.427D-01
 Coeff-Com:  0.256D-01 0.290D+00 0.738D+00
 Coeff:      0.535D-06-0.112D-05-0.564D-05-0.123D-04-0.286D-04 0.349D-05
 Coeff:      0.257D-03 0.789D-03 0.953D-03-0.222D-04-0.127D-01-0.427D-01
 Coeff:      0.256D-01 0.290D+00 0.738D+00
 Gap=     0.226 Goal=   None    Shift=    0.000
 RMSDP=1.14D-08 MaxDP=1.50D-06 DE=-7.53D-11 OVMax= 6.89D-07

 Cycle  16  Pass 1  IDiag  1:
 RMSU=  5.18D-09    CP:  8.58D-01  5.73D-01  1.05D+00  8.08D-01  9.45D-01
                    CP:  1.14D+00  1.07D+00  1.07D+00  1.23D+00  1.30D+00
                    CP:  1.14D+00  1.26D+00  1.40D+00  1.11D+00  8.57D-01
 E= -670.438694650775     Delta-E=        0.000000000022 Rises=F Damp=F
 DIIS: error= 6.25D-09 at cycle  16 NSaved=  16.
 NSaved=16 IEnMin=15 EnMin= -670.438694650797     IErMin=16 ErrMin= 6.25D-09
 ErrMax= 6.25D-09  0.00D+00 EMaxC= 1.00D-01 BMatC= 5.54D-14 BMatP= 3.98D-13
 IDIUse=1 WtCom= 1.00D+00 WtEn= 0.00D+00
 Coeff-Com: -0.235D-06 0.470D-06 0.119D-05 0.170D-05-0.441D-06-0.301D-04
 Coeff-Com: -0.117D-03-0.998D-05 0.408D-03 0.312D-02 0.177D-02-0.137D-01
 Coeff-Com: -0.457D-01-0.168D-01 0.256D+00 0.815D+00
 Coeff:     -0.235D-06 0.470D-06 0.119D-05 0.170D-05-0.441D-06-0.301D-04
 Coeff:     -0.117D-03-0.998D-05 0.408D-03 0.312D-02 0.177D-02-0.137D-01
 Coeff:     -0.457D-01-0.168D-01 0.256D+00 0.815D+00
 Gap=     0.226 Goal=   None    Shift=    0.000
 RMSDP=3.14D-09 MaxDP=2.88D-07 DE= 2.23D-11 OVMax= 2.28D-07

 SCF Done:  E(RM062X) =  -670.438694651     A.U. after   16 cycles
            NFock= 16  Conv=0.31D-08     -V/T= 2.0042
 KE= 6.676033574501D+02 PE=-3.531186948401D+03 EE= 1.210440744727D+03
 Leave Link  502 at Mon Feb 20 21:22:10 2023, MaxMem=  6710886400 cpu:            2385.0 elap:              99.7
 (Enter /data0/home/software/g16/l601.exe)
 Copying SCF densities to generalized density rwf, IOpCl= 0 IROHF=0.

 **********************************************************************

            Population analysis using the SCF density.

 **********************************************************************

 Alpha  occ. eigenvalues --  -19.57956 -19.54376 -19.53483 -14.87234 -10.63346
 Alpha  occ. eigenvalues --  -10.63243 -10.61122 -10.59824 -10.59215 -10.58957
 Alpha  occ. eigenvalues --  -10.58591 -10.55411 -10.54884 -10.51559  -1.15159
 Alpha  occ. eigenvalues --   -1.13381  -1.09067  -1.03880  -0.97013  -0.91809
 Alpha  occ. eigenvalues --   -0.89624  -0.82616  -0.81141  -0.75565  -0.73601
 Alpha  occ. eigenvalues --   -0.68915  -0.63819  -0.61538  -0.60073  -0.58969
 Alpha  occ. eigenvalues --   -0.57021  -0.55294  -0.54634  -0.53007  -0.51800
 Alpha  occ. eigenvalues --   -0.50341  -0.49050  -0.48217  -0.47758  -0.46733
 Alpha  occ. eigenvalues --   -0.46312  -0.45755  -0.44855  -0.44231  -0.42325
 Alpha  occ. eigenvalues --   -0.40265  -0.40193  -0.36997  -0.36056  -0.34691
 Alpha  occ. eigenvalues --   -0.29600  -0.28598  -0.27986
 Alpha virt. eigenvalues --   -0.05391  -0.01819  -0.00143   0.01122   0.01482
 Alpha virt. eigenvalues --    0.02558   0.03210   0.03882   0.04479   0.05276
 Alpha virt. eigenvalues --    0.05640   0.06170   0.06732   0.07291   0.07933
 Alpha virt. eigenvalues --    0.08670   0.09361   0.09718   0.10368   0.10589
 Alpha virt. eigenvalues --    0.11068   0.11569   0.11988   0.12505   0.13104
 Alpha virt. eigenvalues --    0.13335   0.13632   0.14414   0.14940   0.15302
 Alpha virt. eigenvalues --    0.15681   0.16485   0.16703   0.16905   0.17668
 Alpha virt. eigenvalues --    0.17859   0.18347   0.18434   0.18888   0.19098
 Alpha virt. eigenvalues --    0.19989   0.20137   0.20950   0.21014   0.21596
 Alpha virt. eigenvalues --    0.22409   0.22727   0.22964   0.23582   0.23863
 Alpha virt. eigenvalues --    0.24362   0.24745   0.25256   0.25545   0.25856
 Alpha virt. eigenvalues --    0.26802   0.27684   0.28627   0.28922   0.29576
 Alpha virt. eigenvalues --    0.29994   0.30300   0.30699   0.31338   0.31836
 Alpha virt. eigenvalues --    0.32952   0.33378   0.33667   0.33982   0.34926
 Alpha virt. eigenvalues --    0.35251   0.35915   0.36245   0.36809   0.38195
 Alpha virt. eigenvalues --    0.38702   0.39117   0.39843   0.40704   0.41577
 Alpha virt. eigenvalues --    0.42203   0.43719   0.44596   0.44879   0.46904
 Alpha virt. eigenvalues --    0.47821   0.48663   0.49492   0.50910   0.51640
 Alpha virt. eigenvalues --    0.52898   0.53446   0.53733   0.54560   0.55274
 Alpha virt. eigenvalues --    0.56175   0.56797   0.57461   0.58819   0.59149
 Alpha virt. eigenvalues --    0.59627   0.59906   0.60872   0.61729   0.62758
 Alpha virt. eigenvalues --    0.63243   0.64024   0.64907   0.65132   0.65327
 Alpha virt. eigenvalues --    0.66298   0.66874   0.67786   0.67981   0.68983
 Alpha virt. eigenvalues --    0.69079   0.70587   0.71214   0.71379   0.72032
 Alpha virt. eigenvalues --    0.73725   0.74729   0.75435   0.76068   0.76830
 Alpha virt. eigenvalues --    0.77485   0.77934   0.78539   0.80499   0.80580
 Alpha virt. eigenvalues --    0.80909   0.82132   0.83347   0.84448   0.84809
 Alpha virt. eigenvalues --    0.85146   0.86388   0.86763   0.87082   0.88472
 Alpha virt. eigenvalues --    0.88788   0.90247   0.91258   0.92075   0.93561
 Alpha virt. eigenvalues --    0.93868   0.96001   0.97798   0.99852   1.00681
 Alpha virt. eigenvalues --    1.02573   1.04643   1.05111   1.07012   1.08006
 Alpha virt. eigenvalues --    1.08634   1.09368   1.12269   1.13431   1.15114
 Alpha virt. eigenvalues --    1.15700   1.18099   1.18609   1.19791   1.21196
 Alpha virt. eigenvalues --    1.22240   1.22894   1.23377   1.24158   1.25093
 Alpha virt. eigenvalues --    1.25553   1.27577   1.28749   1.29505   1.30151
 Alpha virt. eigenvalues --    1.31028   1.32241   1.32824   1.33546   1.34092
 Alpha virt. eigenvalues --    1.36195   1.36819   1.37678   1.38109   1.38510
 Alpha virt. eigenvalues --    1.38767   1.40628   1.41197   1.42016   1.43629
 Alpha virt. eigenvalues --    1.43986   1.44243   1.44567   1.46845   1.48136
 Alpha virt. eigenvalues --    1.48963   1.49589   1.51178   1.51344   1.52076
 Alpha virt. eigenvalues --    1.52666   1.55513   1.56802   1.58507   1.60462
 Alpha virt. eigenvalues --    1.60816   1.63792   1.64029   1.67549   1.69375
 Alpha virt. eigenvalues --    1.70458   1.73196   1.75174   1.75838   1.77793
 Alpha virt. eigenvalues --    1.78425   1.79356   1.80322   1.82783   1.83218
 Alpha virt. eigenvalues --    1.85127   1.86490   1.87233   1.88492   1.89161
 Alpha virt. eigenvalues --    1.91061   1.92804   1.94424   1.94679   1.96304
 Alpha virt. eigenvalues --    1.98143   2.00693   2.02078   2.03142   2.08788
 Alpha virt. eigenvalues --    2.09685   2.11905   2.13269   2.15573   2.18381
 Alpha virt. eigenvalues --    2.19101   2.22205   2.22574   2.22693   2.24601
 Alpha virt. eigenvalues --    2.28394   2.29114   2.31379   2.31885   2.33784
 Alpha virt. eigenvalues --    2.35040   2.35375   2.36419   2.37394   2.38079
 Alpha virt. eigenvalues --    2.38837   2.40662   2.42578   2.44617   2.48884
 Alpha virt. eigenvalues --    2.50413   2.52632   2.55498   2.56477   2.59684
 Alpha virt. eigenvalues --    2.61009   2.63615   2.64119   2.65164   2.70239
 Alpha virt. eigenvalues --    2.70539   2.72959   2.74556   2.77223   2.78138
 Alpha virt. eigenvalues --    2.80172   2.80503   2.82418   2.82747   2.85983
 Alpha virt. eigenvalues --    2.87748   2.89066   2.89901   2.90549   2.92559
 Alpha virt. eigenvalues --    2.94848   2.95786   2.98405   3.01510   3.02491
 Alpha virt. eigenvalues --    3.03975   3.08734   3.11342   3.11797   3.14006
 Alpha virt. eigenvalues --    3.14975   3.17246   3.19444   3.20984   3.23466
 Alpha virt. eigenvalues --    3.26020   3.27383   3.28034   3.30294   3.31125
 Alpha virt. eigenvalues --    3.32796   3.33393   3.35915   3.37940   3.39207
 Alpha virt. eigenvalues --    3.39765   3.42077   3.43263   3.45052   3.46378
 Alpha virt. eigenvalues --    3.47163   3.48095   3.49159   3.51552   3.52924
 Alpha virt. eigenvalues --    3.54517   3.54787   3.56140   3.58429   3.59343
 Alpha virt. eigenvalues --    3.59995   3.60969   3.61563   3.62787   3.63835
 Alpha virt. eigenvalues --    3.65448   3.65964   3.66956   3.67869   3.68175
 Alpha virt. eigenvalues --    3.69075   3.71282   3.73176   3.74580   3.76240
 Alpha virt. eigenvalues --    3.76362   3.78613   3.79506   3.80515   3.82135
 Alpha virt. eigenvalues --    3.84735   3.87894   3.90298   3.93236   3.94481
 Alpha virt. eigenvalues --    3.98553   4.01919   4.02410   4.04997   4.09391
 Alpha virt. eigenvalues --    4.11670   4.14995   4.20719   4.21865   4.22701
 Alpha virt. eigenvalues --    4.26679   4.29627   4.31073   4.38503   4.43876
 Alpha virt. eigenvalues --    4.51523   4.53386   4.65222   4.73208   4.98073
 Alpha virt. eigenvalues --    5.04990   5.07841   5.15406   5.21996   5.31772
 Alpha virt. eigenvalues --    5.40371   5.44898   5.46651   5.49109   5.52551
 Alpha virt. eigenvalues --    5.58593   5.65351   5.77148   5.99385   6.05910
 Alpha virt. eigenvalues --    6.29550   6.83751   6.88982   6.90841   6.94023
 Alpha virt. eigenvalues --    6.96066   6.97652   7.03334   7.11877   7.15988
 Alpha virt. eigenvalues --    7.19161   7.20786   7.27090   7.32942   7.40119
 Alpha virt. eigenvalues --    7.48428  23.85549  23.98495  23.99680  24.05566
 Alpha virt. eigenvalues --   24.07546  24.08735  24.10571  24.13506  24.24405
 Alpha virt. eigenvalues --   24.30136  35.71076  50.09469  50.25164  50.25747
          Condensed to atoms (all electrons):
               1          2          3          4          5          6
     1  C   13.575724  -5.804442   0.186748  -0.499641  -1.154000  -0.021392
     2  C   -5.804442  12.524386  -1.931910   1.254239   0.099528   0.015328
     3  C    0.186748  -1.931910   8.324944  -0.848698   0.421082   0.330714
     4  C   -0.499641   1.254239  -0.848698   6.244832  -0.303381   0.016229
     5  C   -1.154000   0.099528   0.421082  -0.303381   6.486865   0.003692
     6  H   -0.021392   0.015328   0.330714   0.016229   0.003692   0.513139
     7  H    0.218558   0.147340   0.033297  -0.011311   0.020531  -0.000139
     8  H    0.002088  -0.006048   0.009724   0.330468  -0.001856  -0.004149
     9  H    0.014054   0.006912  -0.011882   0.009962   0.369306  -0.000210
    10  C    0.411102  -0.944847   0.107614  -0.175821   0.062711  -0.004473
    11  H   -0.108268   0.072463   0.032143  -0.001941   0.001396   0.000177
    12  H   -0.061589  -0.000571  -0.026955   0.002120   0.001565  -0.000029
    13  H    0.073553  -0.142193  -0.012163   0.017867   0.000215   0.003322
    14  N   -0.369166   0.236089  -0.127073  -0.060657   0.355787   0.001823
    15  C    0.225751  -0.371686  -0.076062  -0.040682  -0.163724   0.000012
    16  H    0.020082  -0.012691   0.000827   0.012844  -0.024631  -0.000001
    17  H    0.043048  -0.000073  -0.002343  -0.004476  -0.010284  -0.000003
    18  C   -0.069233   0.135516  -0.050765   0.087596  -0.052995  -0.000036
    19  H    0.015473  -0.008413  -0.005777  -0.006160   0.000958   0.000002
    20  H   -0.000169   0.002505   0.001032  -0.001150   0.005029   0.000000
    21  C   -0.082409  -0.150138   0.167555  -0.180839   0.306846   0.000062
    22  H   -0.001341   0.000664   0.002845  -0.002291   0.006250  -0.000000
    23  H   -0.004404  -0.003762  -0.005888   0.001938  -0.005860   0.000001
    24  C   -0.099545   0.412921  -0.322922   0.236540  -0.302477   0.000116
    25  O   -0.013651  -0.034974   0.038852   0.012274  -0.019588   0.000014
    26  O    0.034002  -0.303511   0.144915  -0.081243   0.086375  -0.000000
    27  O    0.044652  -0.047583  -0.018719   0.002311  -0.004484   0.000010
    28  H    0.024703  -0.015857  -0.002728   0.000143  -0.000117   0.000000
    29  H   -0.000281   0.036632   0.006152   0.003112  -0.004345  -0.000011
               7          8          9         10         11         12
     1  C    0.218558   0.002088   0.014054   0.411102  -0.108268  -0.061589
     2  C    0.147340  -0.006048   0.006912  -0.944847   0.072463  -0.000571
     3  C    0.033297   0.009724  -0.011882   0.107614   0.032143  -0.026955
     4  C   -0.011311   0.330468   0.009962  -0.175821  -0.001941   0.002120
     5  C    0.020531  -0.001856   0.369306   0.062711   0.001396   0.001565
     6  H   -0.000139  -0.004149  -0.000210  -0.004473   0.000177  -0.000029
     7  H    0.434200   0.000030  -0.000221  -0.004829   0.000459   0.003433
     8  H    0.000030   0.518126  -0.003941   0.002337   0.000007   0.000010
     9  H   -0.000221  -0.003941   0.492643   0.000744   0.000001  -0.000002
    10  C   -0.004829   0.002337   0.000744   6.123010   0.377534   0.443206
    11  H    0.000459   0.000007   0.000001   0.377534   0.446631  -0.029211
    12  H    0.003433   0.000010  -0.000002   0.443206  -0.029211   0.502194
    13  H   -0.000207  -0.000022  -0.000003   0.426663  -0.020194  -0.020009
    14  N   -0.048000   0.008451  -0.056466  -0.039070  -0.001239   0.004003
    15  C   -0.028831   0.001097   0.022743   0.052821  -0.002688   0.001403
    16  H    0.000543  -0.000004   0.001345  -0.000925   0.000002  -0.000001
    17  H    0.004244   0.000012   0.000098   0.002779   0.000013  -0.000001
    18  C    0.005897  -0.000245  -0.005311  -0.031210   0.000471  -0.000202
    19  H    0.000012   0.000058   0.000293   0.001343   0.000000  -0.000000
    20  H   -0.000140  -0.000003  -0.000304  -0.000520   0.000000  -0.000000
    21  C    0.000028   0.000879  -0.003735   0.047740  -0.001171  -0.000178
    22  H   -0.000012  -0.000001  -0.000038   0.000013   0.000002  -0.000000
    23  H    0.000165  -0.000000   0.000023   0.002204  -0.000004   0.000001
    24  C    0.009161  -0.000588   0.003316  -0.080167   0.000746   0.000034
    25  O   -0.000728  -0.000723  -0.002113  -0.016614  -0.000004  -0.000027
    26  O   -0.023547   0.000056  -0.000735   0.059887  -0.001879  -0.001894
    27  O   -0.013136  -0.000005   0.000017  -0.009991  -0.001667  -0.000570
    28  H   -0.002041  -0.000000   0.000000   0.002744  -0.000127   0.000057
    29  H   -0.004160   0.000004  -0.000002  -0.005922   0.000362   0.000414
              13         14         15         16         17         18
     1  C    0.073553  -0.369166   0.225751   0.020082   0.043048  -0.069233
     2  C   -0.142193   0.236089  -0.371686  -0.012691  -0.000073   0.135516
     3  C   -0.012163  -0.127073  -0.076062   0.000827  -0.002343  -0.050765
     4  C    0.017867  -0.060657  -0.040682   0.012844  -0.004476   0.087596
     5  C    0.000215   0.355787  -0.163724  -0.024631  -0.010284  -0.052995
     6  H    0.003322   0.001823   0.000012  -0.000001  -0.000003  -0.000036
     7  H   -0.000207  -0.048000  -0.028831   0.000543   0.004244   0.005897
     8  H   -0.000022   0.008451   0.001097  -0.000004   0.000012  -0.000245
     9  H   -0.000003  -0.056466   0.022743   0.001345   0.000098  -0.005311
    10  C    0.426663  -0.039070   0.052821  -0.000925   0.002779  -0.031210
    11  H   -0.020194  -0.001239  -0.002688   0.000002   0.000013   0.000471
    12  H   -0.020009   0.004003   0.001403  -0.000001  -0.000001  -0.000202
    13  H    0.513473  -0.002561  -0.000183  -0.000001   0.000000   0.000070
    14  N   -0.002561   6.676147   0.097671  -0.055387  -0.073100   0.009687
    15  C   -0.000183   0.097671   6.126609   0.430971   0.439501  -0.246124
    16  H   -0.000001  -0.055387   0.430971   0.499891  -0.020754  -0.034895
    17  H    0.000000  -0.073100   0.439501  -0.020754   0.410992  -0.029201
    18  C    0.000070   0.009687  -0.246124  -0.034895  -0.029201   5.763303
    19  H   -0.000000  -0.004041  -0.048358  -0.003800   0.003286   0.457714
    20  H    0.000000   0.002530  -0.037774  -0.005082  -0.002564   0.444324
    21  C    0.000244   0.035635  -0.013582  -0.001176  -0.005552  -0.159457
    22  H   -0.000000   0.004648   0.014643  -0.000144  -0.000097  -0.024489
    23  H   -0.000000   0.005079  -0.010581  -0.000320  -0.000630  -0.019770
    24  C    0.000798  -0.077751  -0.041626   0.009340   0.006516   0.150619
    25  O   -0.000034   0.035290   0.014728  -0.000378  -0.001542  -0.023036
    26  O    0.000100   0.067946   0.031993  -0.000055  -0.005429  -0.082177
    27  O   -0.000065   0.023721  -0.025730   0.000472   0.002631   0.043630
    28  H   -0.000002  -0.002028   0.010982  -0.000021  -0.000171  -0.010236
    29  H   -0.000007  -0.008042  -0.006099   0.000066   0.000949  -0.012822
              19         20         21         22         23         24
     1  C    0.015473  -0.000169  -0.082409  -0.001341  -0.004404  -0.099545
     2  C   -0.008413   0.002505  -0.150138   0.000664  -0.003762   0.412921
     3  C   -0.005777   0.001032   0.167555   0.002845  -0.005888  -0.322922
     4  C   -0.006160  -0.001150  -0.180839  -0.002291   0.001938   0.236540
     5  C    0.000958   0.005029   0.306846   0.006250  -0.005860  -0.302477
     6  H    0.000002   0.000000   0.000062  -0.000000   0.000001   0.000116
     7  H    0.000012  -0.000140   0.000028  -0.000012   0.000165   0.009161
     8  H    0.000058  -0.000003   0.000879  -0.000001  -0.000000  -0.000588
     9  H    0.000293  -0.000304  -0.003735  -0.000038   0.000023   0.003316
    10  C    0.001343  -0.000520   0.047740   0.000013   0.002204  -0.080167
    11  H    0.000000   0.000000  -0.001171   0.000002  -0.000004   0.000746
    12  H   -0.000000  -0.000000  -0.000178  -0.000000   0.000001   0.000034
    13  H   -0.000000   0.000000   0.000244  -0.000000  -0.000000   0.000798
    14  N   -0.004041   0.002530   0.035635   0.004648   0.005079  -0.077751
    15  C   -0.048358  -0.037774  -0.013582   0.014643  -0.010581  -0.041626
    16  H   -0.003800  -0.005082  -0.001176  -0.000144  -0.000320   0.009340
    17  H    0.003286  -0.002564  -0.005552  -0.000097  -0.000630   0.006516
    18  C    0.457714   0.444324  -0.159457  -0.024489  -0.019770   0.150619
    19  H    0.497611  -0.030997  -0.014575  -0.006555   0.004876  -0.015894
    20  H   -0.030997   0.526956  -0.082030  -0.004259  -0.005383   0.026463
    21  C   -0.014575  -0.082030   6.253379   0.475942   0.467781  -0.610292
    22  H   -0.006555  -0.004259   0.475942   0.511108  -0.032914  -0.125957
    23  H    0.004876  -0.005383   0.467781  -0.032914   0.493871  -0.061073
    24  C   -0.015894   0.026463  -0.610292  -0.125957  -0.061073   5.904677
    25  O   -0.009691   0.000454  -0.165678  -0.003778   0.006931   0.558508
    26  O    0.000114  -0.002543   0.163164   0.013095  -0.014517  -0.101491
    27  O   -0.000440   0.000330  -0.043997   0.001120  -0.002564   0.029621
    28  H    0.000024   0.000012   0.013980  -0.000094   0.000827  -0.011258
    29  H    0.000296  -0.000194   0.004282  -0.000367  -0.004699   0.017865
              25         26         27         28         29
     1  C   -0.013651   0.034002   0.044652   0.024703  -0.000281
     2  C   -0.034974  -0.303511  -0.047583  -0.015857   0.036632
     3  C    0.038852   0.144915  -0.018719  -0.002728   0.006152
     4  C    0.012274  -0.081243   0.002311   0.000143   0.003112
     5  C   -0.019588   0.086375  -0.004484  -0.000117  -0.004345
     6  H    0.000014  -0.000000   0.000010   0.000000  -0.000011
     7  H   -0.000728  -0.023547  -0.013136  -0.002041  -0.004160
     8  H   -0.000723   0.000056  -0.000005  -0.000000   0.000004
     9  H   -0.002113  -0.000735   0.000017   0.000000  -0.000002
    10  C   -0.016614   0.059887  -0.009991   0.002744  -0.005922
    11  H   -0.000004  -0.001879  -0.001667  -0.000127   0.000362
    12  H   -0.000027  -0.001894  -0.000570   0.000057   0.000414
    13  H   -0.000034   0.000100  -0.000065  -0.000002  -0.000007
    14  N    0.035290   0.067946   0.023721  -0.002028  -0.008042
    15  C    0.014728   0.031993  -0.025730   0.010982  -0.006099
    16  H   -0.000378  -0.000055   0.000472  -0.000021   0.000066
    17  H   -0.001542  -0.005429   0.002631  -0.000171   0.000949
    18  C   -0.023036  -0.082177   0.043630  -0.010236  -0.012822
    19  H   -0.009691   0.000114  -0.000440   0.000024   0.000296
    20  H    0.000454  -0.002543   0.000330   0.000012  -0.000194
    21  C   -0.165678   0.163164  -0.043997   0.013980   0.004282
    22  H   -0.003778   0.013095   0.001120  -0.000094  -0.000367
    23  H    0.006931  -0.014517  -0.002564   0.000827  -0.004699
    24  C    0.558508  -0.101491   0.029621  -0.011258   0.017865
    25  O    8.202135  -0.102648   0.003097   0.000277  -0.002379
    26  O   -0.102648   8.746954  -0.085129   0.000447   0.054690
    27  O    0.003097  -0.085129   8.341781   0.240716   0.213777
    28  H    0.000277   0.000447   0.240716   0.460999  -0.001521
    29  H   -0.002379   0.054690   0.213777  -0.001521   0.335048
 Mulliken charges:
               1
     1  C   -0.600005
     2  C    0.834173
     3  C   -0.364556
     4  C   -0.014184
     5  C   -0.180393
     6  H    0.145803
     7  H    0.259406
     8  H    0.144238
     9  H    0.163504
    10  C   -0.810063
    11  H    0.235986
    12  H    0.182800
    13  H    0.161338
    14  N    0.360073
    15  C   -0.357195
    16  H    0.183883
    17  H    0.242149
    18  C   -0.246623
    19  H    0.172642
    20  H    0.163475
    21  C   -0.422709
    22  H    0.172007
    23  H    0.188671
    24  C    0.483803
    25  O   -0.474973
    26  O   -0.596936
    27  O   -0.693804
    28  H    0.290289
    29  H    0.377201
 Sum of Mulliken charges =  -0.00000
 Mulliken charges with hydrogens summed into heavy atoms:
               1
     1  C   -0.340599
     2  C    0.834173
     3  C   -0.218753
     4  C    0.130054
     5  C   -0.016889
    10  C   -0.229939
    14  N    0.360073
    15  C    0.068836
    18  C    0.089494
    21  C   -0.062032
    24  C    0.483803
    25  O   -0.474973
    26  O   -0.596936
    27  O   -0.026314
         Mulliken charges condensed to fragments:
      1      0.026314
      2     -0.026314
 Electronic spatial extent (au):  <R**2>=          36385.2678
 Charge=              0.0000 electrons
 Dipole moment (field-independent basis, Debye):
    X=              4.4992    Y=             -3.4215    Z=             -2.0992  Tot=              6.0296
 Quadrupole moment (field-independent basis, Debye-Ang):
   XX=            -32.2138   YY=           -107.9392   ZZ=           -109.5844
   XY=             -3.5390   XZ=             26.1861   YZ=            -42.8759
 Traceless Quadrupole moment (field-independent basis, Debye-Ang):
   XX=             51.0320   YY=            -24.6934   ZZ=            -26.3386
   XY=             -3.5390   XZ=             26.1861   YZ=            -42.8759
 Octapole moment (field-independent basis, Debye-Ang**2):
  XXX=           -796.0189  YYY=           -759.5160  ZZZ=          -2166.3889  XYY=           -495.3601
  XXY=           -131.7381  XXZ=           -270.5922  XZZ=           -222.0602  YZZ=           -657.8223
  YYZ=           -908.2900  XYZ=            -98.4991
 Hexadecapole moment (field-independent basis, Debye-Ang**3):
 XXXX=          -9885.9381 YYYY=          -4768.2149 ZZZZ=         -32591.3397 XXXY=          -1961.9866
 XXXZ=          -6233.1211 YYYX=          -3606.4265 YYYZ=          -5986.1716 ZZZX=          -7894.4682
 ZZZY=          -8985.0051 XXYY=          -3027.4288 XXZZ=          -4286.8644 YYZZ=          -8448.0477
 XXYZ=          -1239.3266 YYXZ=          -4212.7874 ZZXY=          -2235.5028
 N-N= 9.827041515734D+02 E-N=-3.531186948556D+03  KE= 6.676033574501D+02
 No NMR shielding tensors so no spin-rotation constants.
 Leave Link  601 at Mon Feb 20 21:22:10 2023, MaxMem=  6710886400 cpu:               3.4 elap:               0.2
 (Enter /data0/home/software/g16/l122.exe)
 CPIOFr:  IOpCl= 0 IRwI=-1 IRwCP=  731 ICalc= -1 LCPTot=      337852 Len1MO=      885816 IndFrg=      337852
 CPIOFr:  IOpCl= 0 IRwI=-1 IRwCP=  731 ICalc=  0 LCPTot=      337852 Len1MO=      885816 IndFrg=     1223668
 Counterpoise: doing calculation for fragment   1 using the basis set of the full-system, NewBq=T
 Leave Link  122 at Mon Feb 20 21:22:11 2023, MaxMem=  6710886400 cpu:               0.4 elap:               0.0
 (Enter /data0/home/software/g16/l301.exe)
 Basis read from rwf:  (5D, 7F)
 No pseudopotential information found on rwf file.
   468 basis functions,   708 primitive gaussians,   496 cartesian basis functions
    48 alpha electrons       48 beta electrons
       nuclear repulsion energy       837.9272598262 Hartrees.
 IExCor= 4336 DFT=T Ex+Corr=M062X ExCW=0 ScaHFX=  0.540000
 ScaDFX=  1.000000  1.000000  1.000000  1.000000 ScalE2=  1.000000  1.000000
 IRadAn=      5 IRanWt=     -1 IRanGd=            0 ICorTp=0 IEmpDi=131
 NAtoms=   29 NActive=   29 NUniq=   29 SFac= 1.00D+00 NAtFMM=   60 NAOKFM=F Big=F
 Integral buffers will be    131072 words long.
 Raffenetti 2 integral format.
 Two-electron integral symmetry is turned off.
 R6Disp:  Grimme-D3 Dispersion energy=       -0.0012068707 Hartrees.
 Nuclear repulsion after empirical dispersion term =      837.9260529555 Hartrees.
 No density basis found on file   718.
 Leave Link  301 at Mon Feb 20 21:22:11 2023, MaxMem=  6710886400 cpu:               1.3 elap:               0.1
 (Enter /data0/home/software/g16/l302.exe)
 NPDir=0 NMtPBC=     1 NCelOv=     1 NCel=       1 NClECP=     1 NCelD=      1
         NCelK=      1 NCelE2=     1 NClLst=     1 CellRange=     0.0.
 One-electron integrals computed using PRISM.
 NBasis=   468 RedAO= T EigKep=  2.31D-06  NBF=   468
 NBsUse=   468 1.00D-06 EigRej= -1.00D+00 NBFU=   468
 Precomputing XC quadrature grid using
 IXCGrd= 4 IRadAn=           5 IRanWt=          -1 IRanGd=           0 AccXCQ= 0.00D+00.
 Generated NRdTot=       0 NPtTot=           0 NUsed=           0 NTot=          32
 NSgBfM=   496   496   496   496   496 MxSgAt=    29 MxSgA2=    29.
 Leave Link  302 at Mon Feb 20 21:22:11 2023, MaxMem=  6710886400 cpu:              10.3 elap:               0.4
 (Enter /data0/home/software/g16/l303.exe)
 DipDrv:  MaxL=1.
 Leave Link  303 at Mon Feb 20 21:22:11 2023, MaxMem=  6710886400 cpu:               1.1 elap:               0.1
 (Enter /data0/home/software/g16/l401.exe)
 ExpMin= 4.38D-02 ExpMax= 8.59D+03 ExpMxC= 1.30D+03 IAcc=3 IRadAn=         5 AccDes= 0.00D+00
 Harris functional with IExCor= 1009 and IRadAn=       5 diagonalized for initial guess.
 HarFok:  IExCor= 1009 AccDes= 0.00D+00 IRadAn=         5 IDoV= 1 UseB2=F ITyADJ=14
 ICtDFT=  3500011 ScaDFX=  1.000000  1.000000  1.000000  1.000000
 FoFCou: FMM=F IPFlag=           0 FMFlag=      100000 FMFlg1=           0
         NFxFlg=           0 DoJE=T BraDBF=F KetDBF=T FulRan=T
         wScrn=  0.000000 ICntrl=       500 IOpCl=  0 I1Cent=   200000004 NGrid=           0
         NMat0=    1 NMatS0=      1 NMatT0=    0 NMatD0=    1 NMtDS0=    0 NMtDT0=    0
 Symmetry not used in FoFCou.
 Harris En= -593.763755884279    
 JPrj=0 DoOrth=F DoCkMO=F.
 Leave Link  401 at Mon Feb 20 21:22:13 2023, MaxMem=  6710886400 cpu:              45.1 elap:               1.9
 (Enter /data0/home/software/g16/l502.exe)
 Two-electron integral symmetry not used.
 Closed shell SCF:
 Using DIIS extrapolation, IDIIS=  1040.
 NGot=  6710886400 LenX=  6710378913 LenY=  6710132401
 Requested convergence on RMS density matrix=1.00D-08 within 128 cycles.
 Requested convergence on MAX density matrix=1.00D-06.
 Requested convergence on             energy=1.00D-06.
 No special actions if energy rises.
 Fock matrices will be formed incrementally for  20 cycles.

 Cycle   1  Pass 1  IDiag  1:
 FoFJK:  IHMeth= 1 ICntrl=       0 DoSepK=F KAlg= 0 I1Cent=           0 FoldK=F
 IRaf= 920000000 NMat=       1 IRICut=       1 DoRegI=T DoRafI=F ISym2E= 0 IDoP0=0 IntGTp=1.
 FoFCou: FMM=F IPFlag=           0 FMFlag=      100000 FMFlg1=           0
         NFxFlg=           0 DoJE=F BraDBF=F KetDBF=F FulRan=T
         wScrn=  0.000000 ICntrl=         0 IOpCl=  0 I1Cent=           0 NGrid=           0
         NMat0=    1 NMatS0=      1 NMatT0=    0 NMatD0=    1 NMtDS0=    0 NMtDT0=    0
 Symmetry not used in FoFCou.
 E= -593.578800910893    
 DIIS: error= 2.16D-02 at cycle   1 NSaved=   1.
 NSaved= 1 IEnMin= 1 EnMin= -593.578800910893     IErMin= 1 ErrMin= 2.16D-02
 ErrMax= 2.16D-02  0.00D+00 EMaxC= 1.00D-01 BMatC= 5.35D-01 BMatP= 5.35D-01
 IDIUse=3 WtCom= 7.84D-01 WtEn= 2.16D-01
 Coeff-Com:  0.100D+01
 Coeff-En:   0.100D+01
 Coeff:      0.100D+01
 Gap=     0.202 Goal=   None    Shift=    0.000
 GapD=    0.202 DampG=1.000 DampE=0.500 DampFc=0.5000 IDamp=-1.
 Damping current iteration by 5.00D-01
 RMSDP=1.93D-02 MaxDP=2.51D+00              OVMax= 2.70D-01

 Cycle   2  Pass 1  IDiag  1:
 RMSU=  8.68D-03    CP:  1.22D+00
 E= -593.751388248960     Delta-E=       -0.172587338068 Rises=F Damp=T
 DIIS: error= 4.81D-03 at cycle   2 NSaved=   2.
 NSaved= 2 IEnMin= 2 EnMin= -593.751388248960     IErMin= 2 ErrMin= 4.81D-03
 ErrMax= 4.81D-03  0.00D+00 EMaxC= 1.00D-01 BMatC= 4.77D-02 BMatP= 5.35D-01
 IDIUse=3 WtCom= 9.52D-01 WtEn= 4.81D-02
 Coeff-Com:  0.316D-01 0.968D+00
 Coeff-En:   0.113D+00 0.887D+00
 Coeff:      0.355D-01 0.964D+00
 Gap=     0.258 Goal=   None    Shift=    0.000
 RMSDP=1.08D-02 MaxDP=2.34D+00 DE=-1.73D-01 OVMax= 2.03D-01

 Cycle   3  Pass 1  IDiag  1:
 RMSU=  4.97D-03    CP:  8.33D-01  3.04D-01
 E= -593.965488793658     Delta-E=       -0.214100544698 Rises=F Damp=F
 DIIS: error= 5.48D-03 at cycle   3 NSaved=   3.
 NSaved= 3 IEnMin= 3 EnMin= -593.965488793658     IErMin= 2 ErrMin= 4.81D-03
 ErrMax= 5.48D-03  0.00D+00 EMaxC= 1.00D-01 BMatC= 2.78D-02 BMatP= 4.77D-02
 IDIUse=3 WtCom= 9.45D-01 WtEn= 5.48D-02
 Coeff-Com: -0.721D-01 0.436D+00 0.636D+00
 Coeff-En:   0.000D+00 0.000D+00 0.100D+01
 Coeff:     -0.682D-01 0.412D+00 0.656D+00
 Gap=     0.211 Goal=   None    Shift=    0.000
 RMSDP=1.66D-03 MaxDP=2.50D-01 DE=-2.14D-01 OVMax= 4.34D-02

 Cycle   4  Pass 1  IDiag  1:
 RMSU=  1.17D-03    CP:  8.78D-01  3.86D-01  1.08D+00
 E= -593.984987243994     Delta-E=       -0.019498450336 Rises=F Damp=F
 DIIS: error= 1.87D-03 at cycle   4 NSaved=   4.
 NSaved= 4 IEnMin= 4 EnMin= -593.984987243994     IErMin= 4 ErrMin= 1.87D-03
 ErrMax= 1.87D-03  0.00D+00 EMaxC= 1.00D-01 BMatC= 3.68D-03 BMatP= 2.78D-02
 IDIUse=3 WtCom= 9.81D-01 WtEn= 1.87D-02
 Coeff-Com: -0.370D-01 0.105D+00 0.318D+00 0.614D+00
 Coeff-En:   0.000D+00 0.000D+00 0.664D-01 0.934D+00
 Coeff:     -0.363D-01 0.103D+00 0.314D+00 0.620D+00
 Gap=     0.206 Goal=   None    Shift=    0.000
 RMSDP=4.54D-04 MaxDP=7.64D-02 DE=-1.95D-02 OVMax= 1.38D-02

 Cycle   5  Pass 1  IDiag  1:
 RMSU=  3.05D-04    CP:  8.66D-01  3.65D-01  1.10D+00  8.95D-01
 E= -593.988206276760     Delta-E=       -0.003219032766 Rises=F Damp=F
 DIIS: error= 4.51D-04 at cycle   5 NSaved=   5.
 NSaved= 5 IEnMin= 5 EnMin= -593.988206276760     IErMin= 5 ErrMin= 4.51D-04
 ErrMax= 4.51D-04  0.00D+00 EMaxC= 1.00D-01 BMatC= 2.64D-04 BMatP= 3.68D-03
 IDIUse=3 WtCom= 9.95D-01 WtEn= 4.51D-03
 Coeff-Com: -0.138D-01 0.273D-01 0.106D+00 0.290D+00 0.590D+00
 Coeff-En:   0.000D+00 0.000D+00 0.000D+00 0.000D+00 0.100D+01
 Coeff:     -0.138D-01 0.272D-01 0.105D+00 0.289D+00 0.592D+00
 Gap=     0.208 Goal=   None    Shift=    0.000
 RMSDP=1.77D-04 MaxDP=2.61D-02 DE=-3.22D-03 OVMax= 4.35D-03

 Cycle   6  Pass 1  IDiag  1:
 RMSU=  9.98D-05    CP:  8.72D-01  3.66D-01  1.11D+00  9.69D-01  1.02D+00
 E= -593.988427616025     Delta-E=       -0.000221339265 Rises=F Damp=F
 DIIS: error= 1.63D-04 at cycle   6 NSaved=   6.
 NSaved= 6 IEnMin= 6 EnMin= -593.988427616025     IErMin= 6 ErrMin= 1.63D-04
 ErrMax= 1.63D-04  0.00D+00 EMaxC= 1.00D-01 BMatC= 3.08D-05 BMatP= 2.64D-04
 IDIUse=3 WtCom= 9.98D-01 WtEn= 1.63D-03
 Coeff-Com: -0.271D-02 0.209D-02 0.151D-01 0.726D-01 0.292D+00 0.621D+00
 Coeff-En:   0.000D+00 0.000D+00 0.000D+00 0.000D+00 0.000D+00 0.100D+01
 Coeff:     -0.270D-02 0.209D-02 0.151D-01 0.725D-01 0.292D+00 0.621D+00
 Gap=     0.209 Goal=   None    Shift=    0.000
 RMSDP=7.32D-05 MaxDP=1.25D-02 DE=-2.21D-04 OVMax= 2.43D-03

 Cycle   7  Pass 1  IDiag  1:
 RMSU=  3.64D-05    CP:  8.73D-01  3.64D-01  1.12D+00  9.99D-01  1.12D+00
                    CP:  1.16D+00
 E= -593.988454389061     Delta-E=       -0.000026773036 Rises=F Damp=F
 DIIS: error= 6.06D-05 at cycle   7 NSaved=   7.
 NSaved= 7 IEnMin= 7 EnMin= -593.988454389061     IErMin= 7 ErrMin= 6.06D-05
 ErrMax= 6.06D-05  0.00D+00 EMaxC= 1.00D-01 BMatC= 3.83D-06 BMatP= 3.08D-05
 IDIUse=1 WtCom= 1.00D+00 WtEn= 0.00D+00
 Coeff-Com:  0.126D-02-0.395D-02-0.122D-01-0.164D-01 0.382D-01 0.286D+00
 Coeff-Com:  0.707D+00
 Coeff:      0.126D-02-0.395D-02-0.122D-01-0.164D-01 0.382D-01 0.286D+00
 Coeff:      0.707D+00
 Gap=     0.208 Goal=   None    Shift=    0.000
 RMSDP=3.13D-05 MaxDP=4.18D-03 DE=-2.68D-05 OVMax= 1.08D-03

 Cycle   8  Pass 1  IDiag  1:
 RMSU=  1.58D-05    CP:  8.73D-01  3.64D-01  1.12D+00  1.01D+00  1.16D+00
                    CP:  1.27D+00  1.07D+00
 E= -593.988458713603     Delta-E=       -0.000004324542 Rises=F Damp=F
 DIIS: error= 2.50D-05 at cycle   8 NSaved=   8.
 NSaved= 8 IEnMin= 8 EnMin= -593.988458713603     IErMin= 8 ErrMin= 2.50D-05
 ErrMax= 2.50D-05  0.00D+00 EMaxC= 1.00D-01 BMatC= 5.17D-07 BMatP= 3.83D-06
 IDIUse=1 WtCom= 1.00D+00 WtEn= 0.00D+00
 Coeff-Com:  0.823D-03-0.171D-02-0.710D-02-0.159D-01-0.178D-01 0.524D-01
 Coeff-Com:  0.323D+00 0.666D+00
 Coeff:      0.823D-03-0.171D-02-0.710D-02-0.159D-01-0.178D-01 0.524D-01
 Coeff:      0.323D+00 0.666D+00
 Gap=     0.208 Goal=   None    Shift=    0.000
 RMSDP=7.41D-06 MaxDP=7.36D-04 DE=-4.32D-06 OVMax= 6.40D-04

 Cycle   9  Pass 1  IDiag  1:
 RMSU=  5.55D-06    CP:  8.73D-01  3.64D-01  1.12D+00  1.01D+00  1.17D+00
                    CP:  1.30D+00  1.10D+00  1.07D+00
 E= -593.988459387717     Delta-E=       -0.000000674113 Rises=F Damp=F
 DIIS: error= 8.24D-06 at cycle   9 NSaved=   9.
 NSaved= 9 IEnMin= 9 EnMin= -593.988459387717     IErMin= 9 ErrMin= 8.24D-06
 ErrMax= 8.24D-06  0.00D+00 EMaxC= 1.00D-01 BMatC= 1.04D-07 BMatP= 5.17D-07
 IDIUse=1 WtCom= 1.00D+00 WtEn= 0.00D+00
 Coeff-Com:  0.229D-03-0.380D-03-0.212D-02-0.580D-02-0.132D-01-0.113D-01
 Coeff-Com:  0.626D-01 0.347D+00 0.623D+00
 Coeff:      0.229D-03-0.380D-03-0.212D-02-0.580D-02-0.132D-01-0.113D-01
 Coeff:      0.626D-01 0.347D+00 0.623D+00
 Gap=     0.208 Goal=   None    Shift=    0.000
 RMSDP=4.08D-06 MaxDP=7.15D-04 DE=-6.74D-07 OVMax= 2.50D-04

 Cycle  10  Pass 1  IDiag  1:
 RMSU=  1.91D-06    CP:  8.73D-01  3.64D-01  1.12D+00  1.01D+00  1.17D+00
                    CP:  1.31D+00  1.11D+00  1.17D+00  1.05D+00
 E= -593.988459531008     Delta-E=       -0.000000143291 Rises=F Damp=F
 DIIS: error= 3.14D-06 at cycle  10 NSaved=  10.
 NSaved=10 IEnMin=10 EnMin= -593.988459531008     IErMin=10 ErrMin= 3.14D-06
 ErrMax= 3.14D-06  0.00D+00 EMaxC= 1.00D-01 BMatC= 8.74D-09 BMatP= 1.04D-07
 IDIUse=1 WtCom= 1.00D+00 WtEn= 0.00D+00
 Coeff-Com: -0.838D-04 0.196D-03 0.434D-03 0.912D-03-0.975D-03-0.127D-01
 Coeff-Com: -0.420D-01-0.798D-02 0.191D+00 0.871D+00
 Coeff:     -0.838D-04 0.196D-03 0.434D-03 0.912D-03-0.975D-03-0.127D-01
 Coeff:     -0.420D-01-0.798D-02 0.191D+00 0.871D+00
 Gap=     0.208 Goal=   None    Shift=    0.000
 RMSDP=2.85D-06 MaxDP=4.31D-04 DE=-1.43D-07 OVMax= 1.68D-04

 Cycle  11  Pass 1  IDiag  1:
 RMSU=  8.54D-07    CP:  8.73D-01  3.64D-01  1.12D+00  1.01D+00  1.17D+00
                    CP:  1.32D+00  1.11D+00  1.23D+00  1.13D+00  1.34D+00
 E= -593.988459557506     Delta-E=       -0.000000026497 Rises=F Damp=F
 DIIS: error= 1.09D-06 at cycle  11 NSaved=  11.
 NSaved=11 IEnMin=11 EnMin= -593.988459557506     IErMin=11 ErrMin= 1.09D-06
 ErrMax= 1.09D-06  0.00D+00 EMaxC= 1.00D-01 BMatC= 8.74D-10 BMatP= 8.74D-09
 IDIUse=1 WtCom= 1.00D+00 WtEn= 0.00D+00
 Coeff-Com: -0.505D-04 0.102D-03 0.297D-03 0.863D-03 0.114D-02-0.174D-02
 Coeff-Com: -0.175D-01-0.374D-01-0.137D-01 0.212D+00 0.856D+00
 Coeff:     -0.505D-04 0.102D-03 0.297D-03 0.863D-03 0.114D-02-0.174D-02
 Coeff:     -0.175D-01-0.374D-01-0.137D-01 0.212D+00 0.856D+00
 Gap=     0.208 Goal=   None    Shift=    0.000
 RMSDP=8.11D-07 MaxDP=1.29D-04 DE=-2.65D-08 OVMax= 5.42D-05

 Cycle  12  Pass 1  IDiag  1:
 RMSU=  2.99D-07    CP:  8.74D-01  3.64D-01  1.12D+00  1.01D+00  1.17D+00
                    CP:  1.31D+00  1.10D+00  1.25D+00  1.17D+00  1.47D+00
                    CP:  1.23D+00
 E= -593.988459560297     Delta-E=       -0.000000002792 Rises=F Damp=F
 DIIS: error= 4.41D-07 at cycle  12 NSaved=  12.
 NSaved=12 IEnMin=12 EnMin= -593.988459560297     IErMin=12 ErrMin= 4.41D-07
 ErrMax= 4.41D-07  0.00D+00 EMaxC= 1.00D-01 BMatC= 1.14D-10 BMatP= 8.74D-10
 IDIUse=1 WtCom= 1.00D+00 WtEn= 0.00D+00
 Coeff-Com: -0.388D-06-0.583D-06 0.185D-05 0.749D-04 0.286D-03 0.111D-02
 Coeff-Com:  0.109D-02-0.819D-02-0.223D-01-0.596D-01 0.197D+00 0.890D+00
 Coeff:     -0.388D-06-0.583D-06 0.185D-05 0.749D-04 0.286D-03 0.111D-02
 Coeff:      0.109D-02-0.819D-02-0.223D-01-0.596D-01 0.197D+00 0.890D+00
 Gap=     0.208 Goal=   None    Shift=    0.000
 RMSDP=3.61D-07 MaxDP=6.65D-05 DE=-2.79D-09 OVMax= 2.15D-05

 Cycle  13  Pass 1  IDiag  1:
 RMSU=  1.11D-07    CP:  8.74D-01  3.64D-01  1.12D+00  1.01D+00  1.17D+00
                    CP:  1.32D+00  1.10D+00  1.25D+00  1.16D+00  1.51D+00
                    CP:  1.39D+00  1.30D+00
 E= -593.988459560686     Delta-E=       -0.000000000389 Rises=F Damp=F
 DIIS: error= 1.92D-07 at cycle  13 NSaved=  13.
 NSaved=13 IEnMin=13 EnMin= -593.988459560686     IErMin=13 ErrMin= 1.92D-07
 ErrMax= 1.92D-07  0.00D+00 EMaxC= 1.00D-01 BMatC= 4.79D-11 BMatP= 1.14D-10
 IDIUse=1 WtCom= 1.00D+00 WtEn= 0.00D+00
 Coeff-Com:  0.769D-05-0.165D-04-0.421D-04-0.847D-04-0.172D-04 0.913D-03
 Coeff-Com:  0.340D-02 0.118D-02-0.863D-02-0.638D-01-0.555D-01 0.451D+00
 Coeff-Com:  0.672D+00
 Coeff:      0.769D-05-0.165D-04-0.421D-04-0.847D-04-0.172D-04 0.913D-03
 Coeff:      0.340D-02 0.118D-02-0.863D-02-0.638D-01-0.555D-01 0.451D+00
 Coeff:      0.672D+00
 Gap=     0.208 Goal=   None    Shift=    0.000
 RMSDP=1.66D-07 MaxDP=2.95D-05 DE=-3.89D-10 OVMax= 5.62D-06

 Cycle  14  Pass 1  IDiag  1:
 RMSU=  3.96D-08    CP:  8.74D-01  3.64D-01  1.12D+00  1.01D+00  1.17D+00
                    CP:  1.32D+00  1.10D+00  1.25D+00  1.16D+00  1.53D+00
                    CP:  1.45D+00  1.52D+00  1.20D+00
 E= -593.988459560800     Delta-E=       -0.000000000114 Rises=F Damp=F
 DIIS: error= 9.57D-08 at cycle  14 NSaved=  14.
 NSaved=14 IEnMin=14 EnMin= -593.988459560800     IErMin=14 ErrMin= 9.57D-08
 ErrMax= 9.57D-08  0.00D+00 EMaxC= 1.00D-01 BMatC= 3.27D-12 BMatP= 4.79D-11
 IDIUse=1 WtCom= 1.00D+00 WtEn= 0.00D+00
 Coeff-Com:  0.242D-05-0.512D-05-0.132D-04-0.351D-04-0.483D-04 0.145D-03
 Coeff-Com:  0.985D-03 0.123D-02 0.913D-03-0.971D-02-0.480D-01 0.365D-01
 Coeff-Com:  0.204D+00 0.814D+00
 Coeff:      0.242D-05-0.512D-05-0.132D-04-0.351D-04-0.483D-04 0.145D-03
 Coeff:      0.985D-03 0.123D-02 0.913D-03-0.971D-02-0.480D-01 0.365D-01
 Coeff:      0.204D+00 0.814D+00
 Gap=     0.208 Goal=   None    Shift=    0.000
 RMSDP=3.25D-08 MaxDP=5.52D-06 DE=-1.14D-10 OVMax= 1.94D-06

 Cycle  15  Pass 1  IDiag  1:
 RMSU=  1.38D-08    CP:  8.74D-01  3.64D-01  1.12D+00  1.01D+00  1.17D+00
                    CP:  1.32D+00  1.10D+00  1.25D+00  1.15D+00  1.53D+00
                    CP:  1.46D+00  1.57D+00  1.32D+00  1.11D+00
 E= -593.988459560821     Delta-E=       -0.000000000022 Rises=F Damp=F
 DIIS: error= 2.83D-08 at cycle  15 NSaved=  15.
 NSaved=15 IEnMin=15 EnMin= -593.988459560821     IErMin=15 ErrMin= 2.83D-08
 ErrMax= 2.83D-08  0.00D+00 EMaxC= 1.00D-01 BMatC= 8.72D-13 BMatP= 3.27D-12
 IDIUse=1 WtCom= 1.00D+00 WtEn= 0.00D+00
 Coeff-Com: -0.182D-06 0.322D-06 0.695D-06-0.120D-05-0.133D-04-0.616D-04
 Coeff-Com: -0.595D-04 0.303D-03 0.138D-02 0.503D-02-0.120D-01-0.485D-01
 Coeff-Com: -0.380D-01 0.343D+00 0.749D+00
 Coeff:     -0.182D-06 0.322D-06 0.695D-06-0.120D-05-0.133D-04-0.616D-04
 Coeff:     -0.595D-04 0.303D-03 0.138D-02 0.503D-02-0.120D-01-0.485D-01
 Coeff:     -0.380D-01 0.343D+00 0.749D+00
 Gap=     0.208 Goal=   None    Shift=    0.000
 RMSDP=1.43D-08 MaxDP=1.69D-06 DE=-2.16D-11 OVMax= 5.73D-07

 Cycle  16  Pass 1  IDiag  1:
 RMSU=  5.39D-09    CP:  8.74D-01  3.64D-01  1.12D+00  1.01D+00  1.17D+00
                    CP:  1.32D+00  1.10D+00  1.25D+00  1.15D+00  1.53D+00
                    CP:  1.47D+00  1.59D+00  1.36D+00  1.28D+00  1.10D+00
 E= -593.988459560758     Delta-E=        0.000000000063 Rises=F Damp=F
 DIIS: error= 9.01D-09 at cycle  16 NSaved=  16.
 NSaved=16 IEnMin=15 EnMin= -593.988459560821     IErMin=16 ErrMin= 9.01D-09
 ErrMax= 9.01D-09  0.00D+00 EMaxC= 1.00D-01 BMatC= 9.00D-14 BMatP= 8.72D-13
 IDIUse=1 WtCom= 1.00D+00 WtEn= 0.00D+00
 Coeff-Com: -0.360D-06 0.698D-06 0.146D-05 0.332D-05 0.174D-05-0.405D-04
 Coeff-Com: -0.139D-03-0.259D-04 0.312D-03 0.306D-02 0.215D-02-0.220D-01
 Coeff-Com: -0.476D-01 0.298D-01 0.279D+00 0.755D+00
 Coeff:     -0.360D-06 0.698D-06 0.146D-05 0.332D-05 0.174D-05-0.405D-04
 Coeff:     -0.139D-03-0.259D-04 0.312D-03 0.306D-02 0.215D-02-0.220D-01
 Coeff:     -0.476D-01 0.298D-01 0.279D+00 0.755D+00
 Gap=     0.208 Goal=   None    Shift=    0.000
 RMSDP=4.80D-09 MaxDP=9.14D-07 DE= 6.28D-11 OVMax= 2.13D-07

 SCF Done:  E(RM062X) =  -593.988459561     A.U. after   16 cycles
            NFock= 16  Conv=0.48D-08     -V/T= 2.0046
 KE= 5.912977813901D+02 PE=-3.060790649605D+03 EE= 1.037578355698D+03
 Leave Link  502 at Mon Feb 20 21:23:54 2023, MaxMem=  6710886400 cpu:            2414.4 elap:             100.9
 (Enter /data0/home/software/g16/l601.exe)
 Copying SCF densities to generalized density rwf, IOpCl= 0 IROHF=0.

 **********************************************************************

            Population analysis using the SCF density.

 **********************************************************************

 Alpha  occ. eigenvalues --  -19.51770 -19.51398 -14.87375 -10.64138 -10.63275
 Alpha  occ. eigenvalues --  -10.61893 -10.59158 -10.59002 -10.58479 -10.57791
 Alpha  occ. eigenvalues --  -10.55338 -10.54779 -10.50959  -1.15042  -1.11183
 Alpha  occ. eigenvalues --   -1.01264  -0.97036  -0.91843  -0.89636  -0.82577
 Alpha  occ. eigenvalues --   -0.81010  -0.75574  -0.73480  -0.68701  -0.63892
 Alpha  occ. eigenvalues --   -0.61590  -0.59382  -0.57092  -0.55391  -0.54969
 Alpha  occ. eigenvalues --   -0.52786  -0.51595  -0.49056  -0.48705  -0.48271
 Alpha  occ. eigenvalues --   -0.47199  -0.45999  -0.45253  -0.44940  -0.44131
 Alpha  occ. eigenvalues --   -0.43062  -0.39626  -0.39438  -0.36707  -0.34313
 Alpha  occ. eigenvalues --   -0.26678  -0.26479  -0.26230
 Alpha virt. eigenvalues --   -0.05408  -0.01835  -0.00455   0.00864   0.01125
 Alpha virt. eigenvalues --    0.02357   0.02960   0.03078   0.04165   0.05051
 Alpha virt. eigenvalues --    0.05577   0.05959   0.06474   0.07470   0.07836
 Alpha virt. eigenvalues --    0.08398   0.09174   0.09344   0.10255   0.10342
 Alpha virt. eigenvalues --    0.11353   0.11700   0.11953   0.12529   0.13296
 Alpha virt. eigenvalues --    0.13350   0.14054   0.14315   0.14518   0.15170
 Alpha virt. eigenvalues --    0.15691   0.16362   0.16706   0.16953   0.17145
 Alpha virt. eigenvalues --    0.17914   0.18003   0.18539   0.18881   0.19367
 Alpha virt. eigenvalues --    0.19980   0.20089   0.20641   0.21152   0.21798
 Alpha virt. eigenvalues --    0.22370   0.22631   0.22805   0.23392   0.23544
 Alpha virt. eigenvalues --    0.24223   0.24854   0.25249   0.25705   0.26359
 Alpha virt. eigenvalues --    0.26506   0.27559   0.28184   0.28985   0.29559
 Alpha virt. eigenvalues --    0.29980   0.30304   0.30656   0.31085   0.32145
 Alpha virt. eigenvalues --    0.32998   0.33611   0.33796   0.34007   0.35218
 Alpha virt. eigenvalues --    0.35483   0.35995   0.36616   0.37199   0.38527
 Alpha virt. eigenvalues --    0.39072   0.39724   0.40921   0.42380   0.42492
 Alpha virt. eigenvalues --    0.42923   0.43786   0.45472   0.46036   0.46776
 Alpha virt. eigenvalues --    0.48139   0.48607   0.49777   0.50799   0.51466
 Alpha virt. eigenvalues --    0.53334   0.53777   0.54212   0.54556   0.55784
 Alpha virt. eigenvalues --    0.56871   0.57113   0.57900   0.58886   0.59800
 Alpha virt. eigenvalues --    0.60305   0.61367   0.62093   0.62332   0.63464
 Alpha virt. eigenvalues --    0.63874   0.65057   0.65246   0.65346   0.66269
 Alpha virt. eigenvalues --    0.67157   0.67774   0.68057   0.69016   0.69443
 Alpha virt. eigenvalues --    0.70633   0.71350   0.71803   0.73253   0.74372
 Alpha virt. eigenvalues --    0.74696   0.74893   0.75464   0.76294   0.77387
 Alpha virt. eigenvalues --    0.78264   0.78492   0.79299   0.80446   0.81029
 Alpha virt. eigenvalues --    0.82550   0.82903   0.83209   0.84136   0.84924
 Alpha virt. eigenvalues --    0.85986   0.86290   0.86741   0.87848   0.88763
 Alpha virt. eigenvalues --    0.89297   0.90406   0.91407   0.92066   0.92670
 Alpha virt. eigenvalues --    0.93740   0.94592   0.96163   0.97366   0.98296
 Alpha virt. eigenvalues --    1.00593   1.01762   1.02190   1.05318   1.05545
 Alpha virt. eigenvalues --    1.06704   1.08105   1.09310   1.10471   1.12397
 Alpha virt. eigenvalues --    1.14125   1.14924   1.16460   1.17063   1.19870
 Alpha virt. eigenvalues --    1.20629   1.21404   1.22726   1.23957   1.24633
[...]
     1  C   -0.443051
     2  C    0.683250
     3  C   -0.313876
     4  C   -0.069088
     5  C   -0.135536
     6  H    0.146250
     7  H    0.191772
     8  H    0.144232
     9  H    0.162015
    10  C   -0.805127
    11  H    0.243608
    12  H    0.168988
    13  H    0.157000
    14  N    0.385726
    15  C   -0.288530
    16  H    0.181640
    17  H    0.186339
    18  C   -0.233200
    19  H    0.173012
    20  H    0.160797
    21  C   -0.397532
    22  H    0.170793
    23  H    0.171209
    24  C    0.407420
    25  O   -0.497577
    26  O   -0.550535
    27  O    0.000000
    28  H    0.000000
    29  H    0.000000
 Sum of Mulliken charges =  -0.00000
 Mulliken charges with hydrogens summed into heavy atoms:
               1
     1  C   -0.251279
     2  C    0.683250
     3  C   -0.167626
     4  C    0.075144
     5  C    0.026480
    10  C   -0.235531
    14  N    0.385726
    15  C    0.079449
    18  C    0.100610
    21  C   -0.055531
    24  C    0.407420
    25  O   -0.497577
    26  O   -0.550535
    27  O    0.000000
         Mulliken charges condensed to fragments:
      1     -0.000000
      2      0.000000
 Electronic spatial extent (au):  <R**2>=          34376.9617
 Charge=             -0.0000 electrons
 Dipole moment (field-independent basis, Debye):
    X=              4.9089    Y=             -4.9069    Z=             -3.8184  Tot=              7.9219
 Quadrupole moment (field-independent basis, Debye-Ang):
   XX=            -25.8513   YY=           -106.6842   ZZ=           -127.6208
   XY=             -8.0126   XZ=             25.5235   YZ=            -56.1642
 Traceless Quadrupole moment (field-independent basis, Debye-Ang):
   XX=             60.8674   YY=            -19.9654   ZZ=            -40.9020
   XY=             -8.0126   XZ=             25.5235   YZ=            -56.1642
 Octapole moment (field-independent basis, Debye-Ang**2):
  XXX=           -761.3181  YYY=           -757.5574  ZZZ=          -2290.5723  XYY=           -499.6856
  XXY=           -139.5105  XXZ=           -233.3143  XZZ=           -238.8320  YZZ=           -766.6682
  YYZ=           -905.8379  XYZ=           -137.0427
 Hexadecapole moment (field-independent basis, Debye-Ang**3):
 XXXX=          -9750.6955 YYYY=          -4799.8997 ZZZZ=         -33117.0876 XXXY=          -1963.8984
 XXXZ=          -6003.1766 YYYX=          -3634.4504 YYYZ=          -5991.6551 ZZZX=          -8001.4215
 ZZZY=          -9825.0506 XXYY=          -3054.1408 XXZZ=          -4048.1633 YYZZ=          -8478.3733
 XXYZ=          -1312.7309 YYXZ=          -4265.4510 ZZXY=          -2549.2714
 N-N= 8.379260529555D+02 E-N=-3.060794508621D+03  KE= 5.913023314285D+02
 No NMR shielding tensors so no spin-rotation constants.
 Leave Link  601 at Mon Feb 20 21:26:15 2023, MaxMem=  6710886400 cpu:               3.1 elap:               0.2
 (Enter /data0/home/software/g16/l122.exe)
 CPIOFr:  IOpCl= 0 IRwI=-1 IRwCP=  731 ICalc=  3 LCPTot=      337852 Len1MO=      885816 IndFrg=     3881116
 Counterpoise: doing calculation for fragment   2 using the basis set of the fragment.
 Leave Link  122 at Mon Feb 20 21:26:15 2023, MaxMem=  6710886400 cpu:               0.2 elap:               0.0
 (Enter /data0/home/software/g16/l301.exe)
 Basis read from rwf:  (5D, 7F)
 No pseudopotential information found on rwf file.
    39 basis functions,    58 primitive gaussians,    41 cartesian basis functions
     5 alpha electrons        5 beta electrons
       nuclear repulsion energy         8.9840483261 Hartrees.
 IExCor= 4336 DFT=T Ex+Corr=M062X ExCW=0 ScaHFX=  0.540000
 ScaDFX=  1.000000  1.000000  1.000000  1.000000 ScalE2=  1.000000  1.000000
 IRadAn=      5 IRanWt=     -1 IRanGd=            0 ICorTp=0 IEmpDi=131
 NAtoms=   29 NActive=    3 NUniq=    3 SFac= 1.00D+00 NAtFMM=   60 NAOKFM=F Big=F
 Integral buffers will be    131072 words long.
 Raffenetti 2 integral format.
 Two-electron integral symmetry is turned off.
 R6Disp:  Grimme-D3 Dispersion energy=       -0.0000000090 Hartrees.
 Nuclear repulsion after empirical dispersion term =        8.9840483171 Hartrees.
 No density basis found on file   718.
 Leave Link  301 at Mon Feb 20 21:26:16 2023, MaxMem=  6710886400 cpu:               1.2 elap:               0.1
 (Enter /data0/home/software/g16/l302.exe)
 NPDir=0 NMtPBC=     1 NCelOv=     1 NCel=       1 NClECP=     1 NCelD=      1
         NCelK=      1 NCelE2=     1 NClLst=     1 CellRange=     0.0.
 One-electron integrals computed using PRISM.
 NBasis=    39 RedAO= T EigKep=  3.20D-03  NBF=    39
 NBsUse=    39 1.00D-06 EigRej= -1.00D+00 NBFU=    39
 Precomputing XC quadrature grid using
 IXCGrd= 4 IRadAn=           5 IRanWt=          -1 IRanGd=           0 AccXCQ= 0.00D+00.
 Generated NRdTot=       0 NPtTot=           0 NUsed=           0 NTot=          32
 NSgBfM=    41    41    41    41    41 MxSgAt=     3 MxSgA2=     3.
 Leave Link  302 at Mon Feb 20 21:26:16 2023, MaxMem=  6710886400 cpu:               2.2 elap:               0.1
 (Enter /data0/home/software/g16/l303.exe)
 DipDrv:  MaxL=1.
 Leave Link  303 at Mon Feb 20 21:26:16 2023, MaxMem=  6710886400 cpu:               0.4 elap:               0.0
 (Enter /data0/home/software/g16/l401.exe)
 ExpMin= 8.45D-02 ExpMax= 8.59D+03 ExpMxC= 1.30D+03 IAcc=3 IRadAn=         5 AccDes= 0.00D+00
 Harris functional with IExCor= 1009 and IRadAn=       5 diagonalized for initial guess.
 HarFok:  IExCor= 1009 AccDes= 0.00D+00 IRadAn=         5 IDoV= 1 UseB2=F ITyADJ=14
 ICtDFT=  3500011 ScaDFX=  1.000000  1.000000  1.000000  1.000000
 FoFCou: FMM=F IPFlag=           0 FMFlag=      100000 FMFlg1=           0
         NFxFlg=           0 DoJE=T BraDBF=F KetDBF=T FulRan=T
         wScrn=  0.000000 ICntrl=       500 IOpCl=  0 I1Cent=   200000004 NGrid=           0
         NMat0=    1 NMatS0=      1 NMatT0=    0 NMatD0=    1 NMtDS0=    0 NMtDT0=    0
 Symmetry not used in FoFCou.
 Harris En= -76.4134362257936    
 JPrj=0 DoOrth=F DoCkMO=F.
 Leave Link  401 at Mon Feb 20 21:26:16 2023, MaxMem=  6710886400 cpu:               2.9 elap:               0.1
 (Enter /data0/home/software/g16/l502.exe)
 Keep R1 ints in memory in canonical form, NReq=21041686.
 FoFCou: FMM=F IPFlag=           0 FMFlag=           0 FMFlg1=           0
         NFxFlg=           0 DoJE=F BraDBF=F KetDBF=F FulRan=T
         wScrn=  0.000000 ICntrl=       600 IOpCl=  0 I1Cent=           0 NGrid=           0
         NMat0=    1 NMatS0=    780 NMatT0=    0 NMatD0=    1 NMtDS0=    0 NMtDT0=    0
 Symmetry not used in FoFCou.
 Two-electron integral symmetry not used.
 Closed shell SCF:
 Using DIIS extrapolation, IDIIS=  1040.
 NGot=  6710886400 LenX=  6710576188 LenY=  6710574066
 Requested convergence on RMS density matrix=1.00D-08 within 128 cycles.
 Requested convergence on MAX density matrix=1.00D-06.
 Requested convergence on             energy=1.00D-06.
 No special actions if energy rises.
 Integral accuracy reduced to 1.0D-05 until final iterations.

 Cycle   1  Pass 0  IDiag  1:
 E= -76.3437615849176    
 DIIS: error= 6.91D-02 at cycle   1 NSaved=   1.
 NSaved= 1 IEnMin= 1 EnMin= -76.3437615849176     IErMin= 1 ErrMin= 6.91D-02
 ErrMax= 6.91D-02  0.00D+00 EMaxC= 1.00D-01 BMatC= 1.19D-01 BMatP= 1.19D-01
 IDIUse=3 WtCom= 3.09D-01 WtEn= 6.91D-01
 Coeff-Com:  0.100D+01
 Coeff-En:   0.100D+01
 Coeff:      0.100D+01
 Gap=     0.320 Goal=   None    Shift=    0.000
 GapD=    0.320 DampG=1.000 DampE=0.500 DampFc=0.5000 IDamp=-1.
 Damping current iteration by 5.00D-01
 RMSDP=7.92D-03 MaxDP=9.99D-02              OVMax= 1.68D-01

 Cycle   2  Pass 0  IDiag  1:
 E= -76.3745677491071     Delta-E=       -0.030806164190 Rises=F Damp=T
 DIIS: error= 1.11D-02 at cycle   2 NSaved=   2.
 NSaved= 2 IEnMin= 2 EnMin= -76.3745677491071     IErMin= 2 ErrMin= 1.11D-02
 ErrMax= 1.11D-02  0.00D+00 EMaxC= 1.00D-01 BMatC= 5.07D-03 BMatP= 1.19D-01
 IDIUse=3 WtCom= 8.89D-01 WtEn= 1.11D-01
 Coeff-Com:  0.892D-01 0.911D+00
 Coeff-En:   0.199D+00 0.801D+00
 Coeff:      0.101D+00 0.899D+00
 Gap=     0.452 Goal=   None    Shift=    0.000
 RMSDP=9.76D-04 MaxDP=1.46D-02 DE=-3.08D-02 OVMax= 1.01D-01

 Cycle   3  Pass 0  IDiag  1:
 E= -76.4187721918776     Delta-E=       -0.044204442770 Rises=F Damp=F
 DIIS: error= 2.23D-03 at cycle   3 NSaved=   3.
 NSaved= 3 IEnMin= 3 EnMin= -76.4187721918776     IErMin= 3 ErrMin= 2.23D-03
 ErrMax= 2.23D-03  0.00D+00 EMaxC= 1.00D-01 BMatC= 9.57D-05 BMatP= 5.07D-03
 IDIUse=3 WtCom= 9.78D-01 WtEn= 2.23D-02
 Coeff-Com: -0.197D-01 0.419D-01 0.978D+00
 Coeff-En:   0.000D+00 0.000D+00 0.100D+01
 Coeff:     -0.192D-01 0.409D-01 0.978D+00
 Gap=     0.457 Goal=   None    Shift=    0.000
 RMSDP=1.19D-04 MaxDP=9.21D-04 DE=-4.42D-02 OVMax= 3.43D-03

 Cycle   4  Pass 0  IDiag  1:
 E= -76.4188545749052     Delta-E=       -0.000082383028 Rises=F Damp=F
 DIIS: error= 4.42D-04 at cycle   4 NSaved=   4.
 NSaved= 4 IEnMin= 4 EnMin= -76.4188545749052     IErMin= 4 ErrMin= 4.42D-04
 ErrMax= 4.42D-04  0.00D+00 EMaxC= 1.00D-01 BMatC= 3.76D-06 BMatP= 9.57D-05
 IDIUse=3 WtCom= 9.96D-01 WtEn= 4.42D-03
 Coeff-Com: -0.211D-02-0.233D-02 0.170D+00 0.835D+00
 Coeff-En:   0.000D+00 0.000D+00 0.000D+00 0.100D+01
 Coeff:     -0.210D-02-0.232D-02 0.169D+00 0.835D+00
 Gap=     0.457 Goal=   None    Shift=    0.000
 RMSDP=2.34D-05 MaxDP=3.66D-04 DE=-8.24D-05 OVMax= 5.70D-04

 Cycle   5  Pass 0  IDiag  1:
 E= -76.4188569200914     Delta-E=       -0.000002345186 Rises=F Damp=F
 DIIS: error= 9.82D-05 at cycle   5 NSaved=   5.
 NSaved= 5 IEnMin= 5 EnMin= -76.4188569200914     IErMin= 5 ErrMin= 9.82D-05
 ErrMax= 9.82D-05  0.00D+00 EMaxC= 1.00D-01 BMatC= 9.92D-08 BMatP= 3.76D-06
 IDIUse=1 WtCom= 1.00D+00 WtEn= 0.00D+00
 Coeff-Com:  0.124D-02-0.190D-02-0.382D-01-0.767D-01 0.112D+01
 Coeff:      0.124D-02-0.190D-02-0.382D-01-0.767D-01 0.112D+01
 Gap=     0.457 Goal=   None    Shift=    0.000
 RMSDP=9.74D-06 MaxDP=1.09D-04 DE=-2.35D-06 OVMax= 2.26D-04

 Initial convergence to 1.0D-05 achieved.  Increase integral accuracy.
 Cycle   6  Pass 1  IDiag  1:
 E= -76.4188432304857     Delta-E=        0.000013689606 Rises=F Damp=F
 DIIS: error= 1.97D-05 at cycle   1 NSaved=   1.
 NSaved= 1 IEnMin= 1 EnMin= -76.4188432304857     IErMin= 1 ErrMin= 1.97D-05
 ErrMax= 1.97D-05  0.00D+00 EMaxC= 1.00D-01 BMatC= 1.36D-08 BMatP= 1.36D-08
 IDIUse=1 WtCom= 1.00D+00 WtEn= 0.00D+00
 Coeff-Com:  0.100D+01
 Coeff:      0.100D+01
 Gap=     0.457 Goal=   None    Shift=    0.000
 RMSDP=9.74D-06 MaxDP=1.09D-04 DE= 1.37D-05 OVMax= 4.53D-05

 Cycle   7  Pass 1  IDiag  1:
 E= -76.4188432414127     Delta-E=       -0.000000010927 Rises=F Damp=F
 DIIS: error= 1.52D-05 at cycle   2 NSaved=   2.
 NSaved= 2 IEnMin= 2 EnMin= -76.4188432414127     IErMin= 2 ErrMin= 1.52D-05
 ErrMax= 1.52D-05  0.00D+00 EMaxC= 1.00D-01 BMatC= 2.86D-09 BMatP= 1.36D-08
 IDIUse=1 WtCom= 1.00D+00 WtEn= 0.00D+00
 Coeff-Com:  0.202D+00 0.798D+00
 Coeff:      0.202D+00 0.798D+00
 Gap=     0.457 Goal=   None    Shift=    0.000
 RMSDP=9.82D-07 MaxDP=1.51D-05 DE=-1.09D-08 OVMax= 2.74D-05

 Cycle   8  Pass 1  IDiag  1:
 E= -76.4188432425395     Delta-E=       -0.000000001127 Rises=F Damp=F
 DIIS: error= 7.14D-06 at cycle   3 NSaved=   3.
 NSaved= 3 IEnMin= 3 EnMin= -76.4188432425395     IErMin= 3 ErrMin= 7.14D-06
 ErrMax= 7.14D-06  0.00D+00 EMaxC= 1.00D-01 BMatC= 1.60D-09 BMatP= 2.86D-09
 IDIUse=1 WtCom= 1.00D+00 WtEn= 0.00D+00
 Coeff-Com: -0.583D-01 0.431D+00 0.627D+00
 Coeff:     -0.583D-01 0.431D+00 0.627D+00
 Gap=     0.457 Goal=   None    Shift=    0.000
 RMSDP=4.47D-07 MaxDP=6.27D-06 DE=-1.13D-09 OVMax= 1.09D-05

 Cycle   9  Pass 1  IDiag  1:
 E= -76.4188432436245     Delta-E=       -0.000000001085 Rises=F Damp=F
 DIIS: error= 5.34D-07 at cycle   4 NSaved=   4.
 NSaved= 4 IEnMin= 4 EnMin= -76.4188432436245     IErMin= 4 ErrMin= 5.34D-07
 ErrMax= 5.34D-07  0.00D+00 EMaxC= 1.00D-01 BMatC= 3.38D-12 BMatP= 1.60D-09
 IDIUse=1 WtCom= 1.00D+00 WtEn= 0.00D+00
 Coeff-Com:  0.436D-02-0.795D-01-0.108D+00 0.118D+01
 Coeff:      0.436D-02-0.795D-01-0.108D+00 0.118D+01
 Gap=     0.457 Goal=   None    Shift=    0.000
 RMSDP=8.60D-08 MaxDP=6.45D-07 DE=-1.08D-09 OVMax= 2.11D-06

 Cycle  10  Pass 1  IDiag  1:
 E= -76.4188432436341     Delta-E=       -0.000000000010 Rises=F Damp=F
 DIIS: error= 8.14D-08 at cycle   5 NSaved=   5.
 NSaved= 5 IEnMin= 5 EnMin= -76.4188432436341     IErMin= 5 ErrMin= 8.14D-08
 ErrMax= 8.14D-08  0.00D+00 EMaxC= 1.00D-01 BMatC= 1.76D-13 BMatP= 3.38D-12
 IDIUse=1 WtCom= 1.00D+00 WtEn= 0.00D+00
 Coeff-Com:  0.269D-02-0.265D-01-0.342D-01 0.133D+00 0.925D+00
 Coeff:      0.269D-02-0.265D-01-0.342D-01 0.133D+00 0.925D+00
 Gap=     0.457 Goal=   None    Shift=    0.000
 RMSDP=1.47D-08 MaxDP=1.09D-07 DE=-9.69D-12 OVMax= 3.49D-07

 Cycle  11  Pass 1  IDiag  1:
 E= -76.4188432436346     Delta-E=       -0.000000000000 Rises=F Damp=F
 DIIS: error= 1.31D-08 at cycle   6 NSaved=   6.
 NSaved= 6 IEnMin= 6 EnMin= -76.4188432436346     IErMin= 6 ErrMin= 1.31D-08
 ErrMax= 1.31D-08  0.00D+00 EMaxC= 1.00D-01 BMatC= 5.67D-15 BMatP= 1.76D-13
 IDIUse=1 WtCom= 1.00D+00 WtEn= 0.00D+00
 Coeff-Com: -0.160D-03 0.241D-02 0.433D-02-0.427D-01 0.119D-01 0.102D+01
 Coeff:     -0.160D-03 0.241D-02 0.433D-02-0.427D-01 0.119D-01 0.102D+01
 Gap=     0.457 Goal=   None    Shift=    0.000
 RMSDP=3.33D-09 MaxDP=2.61D-08 DE=-4.55D-13 OVMax= 7.38D-08

 SCF Done:  E(RM062X) =  -76.4188432436     A.U. after   11 cycles
            NFock= 11  Conv=0.33D-08     -V/T= 2.0035
 KE= 7.615347222780D+01 PE=-1.988015374003D+02 EE= 3.724517361180D+01
 Leave Link  502 at Mon Feb 20 21:26:16 2023, MaxMem=  6710886400 cpu:               8.8 elap:               0.4
 (Enter /data0/home/software/g16/l601.exe)
 Copying SCF densities to generalized density rwf, IOpCl= 0 IROHF=0.

 **********************************************************************

            Population analysis using the SCF density.

 **********************************************************************

 Alpha  occ. eigenvalues --  -19.62769  -1.12799  -0.60257  -0.47220  -0.39862
 Alpha virt. eigenvalues --    0.05878   0.13106   0.17433   0.17967   0.18978
 Alpha virt. eigenvalues --    0.23341   0.48456   0.54250   0.97776   1.00921
 Alpha virt. eigenvalues --    1.05975   1.18914   1.19464   1.32446   1.34517
 Alpha virt. eigenvalues --    1.68085   1.72672   1.75747   2.04233   2.10571
 Alpha virt. eigenvalues --    2.34211   2.41249   2.53792   2.85259   3.01152
 Alpha virt. eigenvalues --    5.05632   5.44320   5.88908   6.78207   6.80359
 Alpha virt. eigenvalues --    6.87091   6.91098   7.10553  49.95006
          Condensed to atoms (all electrons):
              27         28         29
    27  O    7.928876   0.322968   0.310565
    28  H    0.322968   0.424904  -0.023555
    29  H    0.310565  -0.023555   0.426265
 Mulliken charges:
               1
     1  C    0.000000
     2  C    0.000000
     3  C    0.000000
     4  C    0.000000
     5  C    0.000000
     6  H    0.000000
     7  H    0.000000
     8  H    0.000000
     9  H    0.000000
    10  C    0.000000
    11  H    0.000000
    12  H    0.000000
    13  H    0.000000
    14  N    0.000000
    15  C    0.000000
    16  H    0.000000
    17  H    0.000000
    18  C    0.000000
    19  H    0.000000
    20  H    0.000000
    21  C    0.000000
    22  H    0.000000
    23  H    0.000000
    24  C    0.000000
    25  O    0.000000
    26  O    0.000000
    27  O   -0.562409
    28  H    0.275683
    29  H    0.286725
 Sum of Mulliken charges =   0.00000
 Mulliken charges with hydrogens summed into heavy atoms:
               1
     1  C    0.000000
     2  C    0.000000
     3  C    0.000000
     4  C    0.000000
     5  C    0.000000
    10  C    0.000000
    14  N    0.000000
    15  C    0.000000
    18  C    0.000000
    21  C    0.000000
    24  C    0.000000
    25  O    0.000000
    26  O    0.000000
    27  O    0.000000
         Mulliken charges condensed to fragments:
      1      0.000000
      2      0.000000
 Electronic spatial extent (au):  <R**2>=           2013.3733
 Charge=              0.0000 electrons
 Dipole moment (field-independent basis, Debye):
    X=             -0.9118    Y=              0.8748    Z=              1.7031  Tot=              2.1206
 Quadrupole moment (field-independent basis, Debye-Ang):
   XX=             -9.4022   YY=             -4.3431   ZZ=             17.3486
   XY=              2.2602   XZ=             -2.7267   YZ=              8.9294
 Traceless Quadrupole moment (field-independent basis, Debye-Ang):
   XX=            -10.6033   YY=             -5.5442   ZZ=             16.1475
   XY=              2.2602   XZ=             -2.7267   YZ=              8.9294
 Octapole moment (field-independent basis, Debye-Ang**2):
  XXX=            -50.1703  YYY=            -17.0878  ZZZ=            113.4536  XYY=             -7.5654
  XXY=             -0.3503  XXZ=            -57.6835  XZZ=             -7.8010  YZZ=             75.3947
  YYZ=            -26.0043  XYZ=             22.3896
 Hexadecapole moment (field-independent basis, Debye-Ang**3):
 XXXX=           -214.0082 YYYY=            -46.3117 ZZZZ=            405.2070 XXXY=            -27.0512
 XXXZ=           -332.8562 YYYX=            -33.2801 YYYZ=           -112.7781 ZZZX=            -76.7968
 ZZZY=            570.2435 XXYY=            -21.4116 XXZZ=           -380.7033 YYZZ=           -160.4293
 XXYZ=             13.1471 YYXZ=            -42.0536 ZZXY=            188.0659
 N-N= 8.984048317110D+00 E-N=-1.988015376505D+02  KE= 7.615347222780D+01
 No NMR shielding tensors so no spin-rotation constants.
 Leave Link  601 at Mon Feb 20 21:26:16 2023, MaxMem=  6710886400 cpu:               1.8 elap:               0.1
 (Enter /data0/home/software/g16/l122.exe)
 CPIOFr:  IOpCl= 0 IRwI=-1 IRwCP=  731 ICalc=  4 LCPTot=      337852 Len1MO=      885816 IndFrg=     4766932
 Restoring MOs from calculation   1 to rwf.
 CPIOFr:  IOpCl= 0 IRwI=-2 IRwCP=  731 ICalc=  0 LCPTot=      337852 Len1MO=      885816 IndFrg=     1223668
 Counterpoise corrected energy =    -670.437118851290
                   BSSE energy =       0.001575799485
              sum of fragments =    -670.406974148046
           complexation energy =     -19.90 kcal/mole (raw)
           complexation energy =     -18.92 kcal/mole (corrected)
 Leave Link  122 at Mon Feb 20 21:26:16 2023, MaxMem=  6710886400 cpu:               0.3 elap:               0.0
 (Enter /data0/home/software/g16/l9999.exe)
 1\1\GINC-LOCALHOST\SP\RM062X\6-311+G(2d,p)\C10H15N1O3\WUHANYU\20-Feb-2
 023\0\\#p M062X/6-311+G(2d,p) nosymm em=GD3 counterpoise=2\\Title Card
  Required\\0,1\C,0,5.14299,1.276454,7.804863\C,0,5.687383,1.147066,9.0
 99223\C,0,6.832625,1.861874,9.424499\C,0,7.425326,2.686032,8.459573\C,
 0,6.837067,2.824342,7.213115\H,0,7.253475,1.810015,10.430616\H,0,4.237
 359,0.704639,7.508695\H,0,8.320262,3.261581,8.702676\H,0,7.230027,3.51
 7325,6.461297\C,0,4.940082,0.337216,10.089809\H,0,4.019559,0.898382,10
 .380979\H,0,4.60138,-0.629573,9.69362\H,0,5.501631,0.144229,11.012006\
 N,0,5.703189,2.119078,6.902165\C,0,4.987492,2.421356,5.637923\H,0,5.66
 5364,2.217211,4.781599\H,0,4.105577,1.734443,5.535344\C,0,4.491238,3.8
 81927,5.613455\H,0,5.319227,4.584188,5.846109\H,0,4.164066,4.122191,4.
 581764\C,0,3.343772,4.136279,6.587918\H,0,3.013172,5.188314,6.543554\H
 ,0,2.460633,3.51858,6.352732\C,0,3.841383,3.847354,8.024231\O,0,4.6925
 04,4.590255,8.498448\O,0,3.410757,2.781481,8.545537\O,0,2.246019,1.076
 253,6.987281\H,0,1.392257,0.864934,7.329794\H,0,2.604189,1.796575,7.61
 1186\\Version=ES64L-G16RevA.03\HF=-76.4188432\RMSD=3.332e-09\Dipole=1.
 7529127,-1.3299735,-0.7899567\Quadrupole=37.4921507,-18.5800911,-18.91
 20596,-2.6023655,19.4094046,-31.5806338\PG=C01 [X(C10H15N1O3)]\\@


 CURIOUSER AND CURIOUSER

                  -- ALICE, IN WONDERLAND
 Job cpu time:       0 days  2 hours 18 minutes 35.7 seconds.
 Elapsed time:       0 days  0 hours  5 minutes 48.4 seconds.
 File lengths (MBytes):  RWF=    174 Int=      0 D2E=      0 Chk=     49 Scr=      1
 Normal termination of Gaussian 16 at Mon Feb 20 21:26:16 2023.
