          45
 Energy =     -0.79489000 a.u.  #Cluster:    1
C          11.50458200      8.18575600     11.44782500
C          12.02789900      9.40059700     11.87495600
C           9.78092900      9.54844600     11.93784900
N          10.11573900      8.29670000     11.50073100
H          12.01167300      7.30504300     11.08104900
H          13.05850700      9.72075500     11.94032800
H           8.76742500      9.93907900     12.04763600
C           9.15742800      7.28495900     11.09515900
H           8.54633300      6.94772700     11.94915300
H           8.46706500      7.68838800     10.31336300
H           9.66773200      6.40756500     10.64531800
N          10.94730100     10.23320300     12.17324800
C          11.02956600     11.64111200     12.56877900
H          11.56053000     11.69475400     13.54836100
H           9.99357300     12.03230900     12.73208300
C          11.76320300     12.51180300     11.52583100
H          12.32424400     13.30399900     12.06556100
H          12.55397200     11.91527000     11.01016900
C          10.84327200     13.16693700     10.50020200
H          11.42856000     13.83908000      9.84224500
H          10.09553700     13.81555000     10.99112800
S           9.98918200     11.95529300      9.48273300
O           9.33199700     12.62594400      8.35923500
O          11.04644400     10.99283700      9.05832400
O           9.02736500     11.32921400     10.44675500
P          11.17419400      7.66026200      7.66062000
O          12.30287600      7.44603400      8.56389200
O           9.81938800      7.18636900      8.33058200
H           8.98478200      7.69404800      7.95478000
O          10.90406000      9.12191600      7.10424600
H          11.04901600      9.83492400      7.87609500
O          11.33446800      6.81426500      6.32327500
H          10.62510000      7.13031300      5.64819200
O           7.52493300      8.55190900      7.70322900
H           7.74412900      9.34495300      7.17566400
H           7.28000600      8.89865700      8.57335100
O           6.99303900      9.64033500     10.26034400
H           7.74318100     10.29634900     10.28350400
H           6.20990100     10.17618100     10.19615700
O           8.45509100     10.82619000      6.34699900
H           8.61569700     11.59307200      6.93331600
H           9.31477400     10.39922400      6.30432100
O          13.60378800     10.03500100      9.81178500
H          12.77443100     10.44571300      9.50094600
H          13.58710400      9.18198400      9.37069900
          45
 Energy =     -0.79436300 a.u.  #Cluster:    2
C          11.85762400      7.79482500     11.25625700
C          12.13215400      9.03603800     11.81596400
C           9.95718400      9.00921200     11.23053800
N          10.50733600      7.79718100     10.90379800
H          12.51066100      6.95464600     11.08149600
H          13.05752000      9.43286600     12.18293000
H           8.90995200      9.30384200     11.06580300
C           9.81119300      6.73651900     10.19898700
H           9.17941500      6.15212000     10.89130000
H           9.16568700      7.15145100      9.39122600
H          10.53385000      6.04565700      9.70726200
N          10.94188600      9.77034100     11.79770400
C          10.80064200     11.14413800     12.27982900
H          11.45837900     11.27702200     13.16860900
H           9.75467700     11.29290500     12.65845700
C          11.16003800     12.16963200     11.18208200
H          12.01146500     12.78978600     11.52895300
H          11.55569600     11.64464500     10.28038600
C          10.00071300     13.08118400     10.79472600
H          10.34025900     13.81993200     10.04167500
H           9.66779600     13.68228700     11.66135300
S           8.58336000     12.18511900     10.13139100
O           8.05827000     12.93875500      8.99339800
O           9.16609300     10.85432200      9.67570900
O           7.69988900     11.95851500     11.29181800
P          11.77475000      9.22354000      7.76382200
O          12.39842800      8.67167300      8.96899600
O          10.69720800      8.26293200      7.10396900
H           9.72121000      8.52786400      7.40331300
O          11.11283000     10.65779300      7.85698000
H          10.37640900     10.68187100      8.63202500
O          12.86263800      9.40405900      6.61879000
H          12.38184800      9.77647500      5.78346100
O           8.19179000      8.98624300      7.95621700
H           8.42277200      9.59956200      8.69208200
H           7.91049400      9.62281200      7.26838900
O           8.19337300     11.40635100      6.58506900
H           7.94685100     12.03329400      7.29626400
H           9.14728600     11.35301900      6.67160900
O           7.83075400      9.76060200     12.87169700
H           6.99942100      9.62261400     13.30874600
H           7.69290600     10.58026100     12.33228800
O          12.63926200      5.67181300      9.02098900
H          12.73062200      5.38542700      8.11417300
H          12.66742800      6.63888400      8.96949200
          45
 Energy =     -0.79275600 a.u.  #Cluster:    3
C          11.08143600      7.55710400     11.61965200
C          11.83935000      8.68404100     11.92220500
C           9.80215700      9.37465400     11.25774300
N           9.82341900      8.00688100     11.22051500
H          11.36057800      6.51920900     11.61567300
H          12.86253900      8.76149500     12.24804500
H           8.95350000     10.01928400     10.99008100
C           8.74957400      7.16532600     10.72868000
H           9.14731000      6.22804800     10.29155700
H           8.03141000      6.92757100     11.53213400
H           8.19027300      7.67708000      9.90173700
N          11.02865800      9.79741000     11.69690000
C          11.47435100     11.18976000     11.78695600
H          12.29299400     11.24858400     12.54125300
H          10.63288800     11.81832800     12.17624100
C          11.98038500     11.69710700     10.42011800
H          13.04378800     12.00656200     10.52358500
H          12.03036600     10.85826100      9.68876900
C          11.16461400     12.84654500      9.84852100
H          11.67059000     13.25398100      8.95087200
H          11.11558700     13.69022600     10.56133100
S           9.48170700     12.39460400      9.39295400
O           8.98061900     13.45034100      8.53342900
O           9.55554400     11.02771600      8.75193000
O           8.77833800     12.20614900     10.70198000
P          11.44045600      8.05402300      8.04072900
O          12.00402300      8.23218800      9.38406000
O          10.22955100      7.02887600      8.08045800
H           9.44320400      7.34968600      7.46930200
O          10.95718600      9.31765300      7.22872800
H          10.44495000     10.00902000      7.87027800
O          12.53057600      7.40396900      7.08018400
H          12.14411100      7.35844200      6.12809800
O           7.98951900      7.92724300      6.66810400
H           7.59574600      8.35182200      7.45566000
H           8.27872900      8.67268100      6.13378700
O           6.56924200     10.80198500     11.20432100
H           7.36770800     11.39095400     11.10103400
H           5.83210800     11.40018600     11.16685700
O           7.43072100      9.34496600      9.00187800
H           6.91372200      9.78847500      9.68792700
H           8.18932100      9.95373500      8.83915600
O          14.27061600      9.79467800     10.49975000
H          15.03058400      9.58638600      9.96147100
H          13.54596800      9.29678100     10.09537200
          45
 Energy =     -0.79136500 a.u.  #Cluster:    4
C          11.65490100      7.78280900     11.51061800
C          12.02454800      8.99208600     12.08865500
C           9.78646200      9.00025400     11.82396200
N          10.26721200      7.80112900     11.37589600
H          12.26607500      6.96685900     11.16136100
H          13.00451200      9.36510300     12.34057900
H           8.74476900      9.33457800     11.78637300
C           9.46188900      6.71243300     10.85478100
H           8.56649100      7.09231900     10.31369800
H          10.03788400      6.11302900     10.11356400
H           9.12666800      6.04642600     11.66836200
N          10.85619100      9.73194100     12.27632500
C          10.78275200     11.08309800     12.83700700
H          11.16165000     11.04198600     13.88530000
H           9.70815300     11.39527200     12.88968800
C          11.59617300     12.11019200     12.02178300
H          12.11146500     12.79448500     12.72796800
H          12.42658100     11.60370500     11.47280800
C          10.75073200     12.93338200     11.05678800
H          11.36925500     13.72516400     10.59057000
H           9.94198100     13.46852500     11.58532900
S          10.03377200     11.92260600      9.75156900
O           9.33739500     12.81231100      8.81513400
O          11.19873200     11.21481300      9.13785500
O           9.13265200     10.98864800     10.48502100
P          10.93287900      8.02907900      7.64018200
O          11.77113200      7.57162200      8.74998600
O           9.40073900      7.84772000      8.03000500
H           8.76521600      8.39073900      7.40202400
O          11.08912200      9.49564900      7.08770900
H          11.19597300     10.17933800      7.91123900
O          11.16164400      7.13078400      6.34594100
H          10.76912500      7.62183900      5.53141000
O           7.42861400      9.37422000      6.87768000
H           6.96795100      9.46818300      7.72093900
H           7.70248400     10.28882300      6.65112200
O           8.24216900     11.98655100      6.42101600
H           9.05350100     11.97805000      5.91795200
H           8.51148900     12.37445600      7.28601800
O           7.29644600      9.14038200      9.77105500
H           7.94438800      8.66539300      9.24730600
H           7.78930000      9.95084200     10.03484700
O          13.52465700      9.89876400     10.05790900
H          12.80782000     10.45985600      9.70401200
H          13.36647300      9.06457700      9.61067000
          45
 Energy =     -0.79045200 a.u.  #Cluster:    5
C          11.77671200      7.72031200     11.53906100
C          12.25265200      8.93407900     12.02255300
C          10.00508900      9.05594300     11.92154200
N          10.38571800      7.81143500     11.50245900
H          12.31617900      6.85291000     11.19680600
H          13.26697300      9.26311900     12.18182500
H           8.98120200      9.43885200     11.94666100
C           9.47747300      6.77102800     11.05596100
H           8.69482900      7.18933100     10.37933000
H          10.01614100      6.00012100     10.46405300
H           8.98013300      6.28569700     11.91269300
N          11.14299100      9.74866700     12.25388600
C          11.18023700     11.14187100     12.70526900
H          11.63604900     11.16147800     13.72306700
H          10.12981100     11.51546400     12.80744700
C          11.97798200     12.05988200     11.75403000
H          12.56906100     12.77240500     12.36702200
H          12.74684300     11.47124700     11.19825400
C          11.10776000     12.84641500     10.77897200
H          11.72567300     13.58400000     10.23054300
H          10.34414800     13.44131300     11.31021800
S          10.29528200     11.77405800      9.58307100
O           9.45037600     12.58711300      8.70334600
O          11.41359300     11.06785900      8.89354200
O           9.48130300     10.85940900     10.44242800
P          10.81754400      7.81251700      7.66159700
O          11.46692400      7.39910200      8.90594900
O           9.23784400      7.88093900      7.84066500
H           8.81091700      8.49339400      7.10179400
O          11.23080500      9.17604000      6.98128200
H          11.36165000      9.92647100      7.73492100
O          11.08290300      6.74044900      6.51523500
H          10.80981400      7.14740200      5.61147400
O           8.12684200      9.68139300      6.05666600
H           8.85595200     10.21813200      5.73892700
H           7.62287200     10.29517100      6.64600100
O           7.01562100     11.37108900      7.86587600
H           7.77210800     11.94371600      8.10969800
H           6.94499900     10.74728600      8.60170800
O           7.42051800      9.25135400      9.84665800
H           7.85884300      8.73710100      9.16696400
H           8.11566600      9.89677000     10.11538700
O          13.66704600      9.63997100      9.84352400
H          12.98226900     10.22451700      9.46395100
H          13.42467100      8.78320100      9.48770500
          45
 Energy =     -0.78835500 a.u.  #Cluster:    6
C          11.93111000      8.81621800     11.70066900
C          12.11097000     10.16443200     11.99157500
C           9.89807500      9.74916800     11.94816400
N          10.55947500      8.57957800     11.68817000
H          12.66229400      8.04857100     11.48627800
H          13.01627200     10.73388000     12.06260000
H           8.81254300      9.88670600     11.94904600
C           9.90830500      7.31105800     11.42207200
H           9.60229600      6.81877400     12.35991700
H           9.00042300      7.46042700     10.78189600
H          10.58046400      6.62155400     10.86722000
N          10.84094700     10.72403000     12.15005400
C          10.55178000     12.12551500     12.45502100
H          11.00085700     12.36536100     13.44705200
H           9.44312600     12.24906900     12.55812300
C          11.09042100     13.09554800     11.38165000
H          11.46651600     14.00883300     11.88651900
H          11.98293400     12.65754800     10.87462300
C          10.04315400     13.48931300     10.34547500
H          10.43405200     14.28818800      9.68777200
H           9.14019900     13.91085700     10.81763700
S           9.58003400     12.07691900      9.32035900
O           8.74484000     12.58054600      8.21518300
O          10.88580300     11.51091700      8.89597800
O           8.83937800     11.19163300     10.26167600
P          11.58313800      8.18815200      7.96967100
O          12.66138300      7.93122600      8.92901200
O          10.19845700      7.88416100      8.68288600
H           9.39965300      8.12574400      8.06635800
O          11.53135900      9.56932100      7.23200000
H          11.32925300     10.36362400      7.95022400
O          11.57125100      7.15688400      6.73976700
H          12.00023800      7.61727600      5.93143100
O           7.84707600      8.52482500      7.17714400
H           7.71823600      9.47077700      6.92274400
H           7.92003900      8.05930600      6.34928700
O           7.47710100      8.77563800     10.12083100
H           7.87494100      9.66874300     10.15726400
H           7.48010500      8.57538300      9.18237200
O           7.38707900     11.09373400      6.41385600
H           7.97668400     11.67435800      6.96852100
H           6.51198200     11.37526300      6.66436500
O          12.80691800      5.64736900     10.76027800
H          12.84592600      4.87029300     10.20860200
H          12.81293100      6.38330000     10.12867700
          45
 Energy =     -0.78743500 a.u.  #Cluster:    7
C          12.46237500      8.59059500     11.72264400
C          12.47295200      9.89234900     12.20895100
C          10.34274200      9.15968300     12.21941500
N          11.13995900      8.15464100     11.74538600
H          13.27657800      7.97671100     11.35456800
H          13.29238500     10.57289800     12.33080000
H           9.24998300      9.13048600     12.31635800
C          10.66440000      6.86985500     11.26662700
H           9.74056700      6.55799400     11.79219200
H          10.39385400      6.93468200     10.18325700
H          11.44058400      6.09025100     11.37543200
N          11.15192800     10.22716300     12.51598600
C          10.69397000     11.54214100     12.96634500
H          11.18723100     11.77137500     13.93928400
H           9.59089500     11.49593600     13.16093500
C          11.00683700     12.64799800     11.93456200
H          11.28022100     13.57441400     12.48107600
H          11.91471200     12.38110100     11.34488600
C           9.84699100     12.94557200     10.99232500
H          10.09835100     13.79813100     10.33253600
H           8.94687300     13.26362800     11.54848700
S           9.42992000     11.52206500      9.96711500
O           8.60627300     12.02514800      8.84743200
O          10.73422600     10.96843800      9.51055000
O           8.73496700     10.60322900     10.90490400
P          10.46048900      8.25321400      7.13170700
O          11.15955800      7.20487700      7.87333700
O           8.95372700      8.30535500      7.61352400
H           8.42424000      9.10528700      7.19204200
O          11.04278300      9.72439700      7.15374900
H          11.01621100     10.13270500      8.13993500
O          10.45572500      7.92994900      5.57175700
H          10.32978600      8.80702800      5.05072500
O           7.50697800     10.50803800      6.75614000
H           7.62566600     11.02133700      7.58420100
H           8.01453200     11.04110200      6.12338000
O           9.60239500     12.26676500      6.19861400
H           9.24677900     12.42500400      7.09350900
H          10.26188000     11.58549900      6.35363900
O           8.06768000      7.90823700     10.55487600
H           8.18184700      7.81001400      9.60687200
H           8.13454800      8.87378100     10.67933300
O          13.31358500      6.55713500      9.80644500
H          14.00845000      6.22715800      9.24075200
H          12.62339000      6.84665400      9.19343200
          45
 Energy =     -0.78626400 a.u.  #Cluster:    8
C          11.96829400      8.80694300     11.67722900
C          12.07271700     10.15251000     12.01482400
C           9.88524200      9.64273400     11.86326500
N          10.61046800      8.50944800     11.60348400
H          12.74276400      8.07868800     11.47815400
H          12.94728300     10.75978200     12.14279500
H           8.79473500      9.73599800     11.81221400
C          10.04313100      7.20657000     11.30861000
H          10.75207200      6.58755900     10.71194200
H           9.80765900      6.66023300     12.23863100
H           9.11803700      7.29629300     10.69752400
N          10.77343400     10.64982800     12.13407300
C          10.41659400     12.01877000     12.51163900
H          10.82633000     12.21360000     13.53061800
H           9.30084900     12.09228600     12.59042500
C          10.94807400     13.07273900     11.51721300
H          11.31557700     13.94896800     12.08985500
H          11.84542100     12.68284900     10.97981200
C           9.89834700     13.53422500     10.51110300
H          10.28801500     14.37608000      9.90778400
H           8.99657100     13.92452000     11.01321900
S           9.43949600     12.18902100      9.40503300
O           8.60554000     12.71613400      8.32015400
O          10.75148600     11.65895900      8.92858800
O           8.73767600     11.22673200     10.30392200
P          11.30423700      8.36864100      7.89044500
O          12.20215400      8.22281000      9.04029000
O           9.85514500      7.86712000      8.31424400
H           9.12457800      8.11197500      7.60693200
O          11.13097700      9.76170000      7.19214400
H          11.08206500     10.54976400      7.96011500
O          11.76141100      7.40940400      6.70165700
H          11.36512800      7.75911000      5.82072500
O           7.64631800      8.68596200      6.91469000
H           7.85028200      9.56268500      6.52027900
H           7.15143600      8.88204700      7.71918700
O           7.44571400      8.90546700      9.83112000
H           7.72796800      9.83372400      9.99544600
H           8.20485800      8.52436200      9.38913900
O           8.52921600     11.13510700      6.02207000
H           9.44784500     10.88191600      6.14235000
H           8.39314800     11.81679100      6.71649500
O          13.05643000      5.80938400     10.45624900
H          13.27880100      5.12988900      9.82401900
H          12.84649900      6.58068300      9.91030700
          45
 Energy =     -0.78124400 a.u.  #Cluster:    9
C          11.96366500      8.45942700     11.04662000
C          12.13208500      9.61443900     11.79871600
C          10.00196200      8.92409600     12.05071900
N          10.64008900      8.05343700     11.20924400
H          12.67040600      7.92738700     10.42421900
H          12.98933900     10.25236400     11.89115100
H           8.97003300      8.84264400     12.38754600
C           9.96597200      7.00730700     10.46311600
H           9.23408300      7.46399500      9.75320700
H          10.69047600      6.42366500      9.84966600
H           9.43787500      6.30988600     11.13190100
N          10.90816100      9.88536800     12.42065300
C          10.59091700     11.10122900     13.16761700
H          11.25247400     11.14887300     14.06368600
H           9.53779300     11.04215800     13.54754500
C          10.77325300     12.36933100     12.30597900
H          10.92642900     13.22889600     12.99320100
H          11.71395100     12.29936500     11.71279700
C           9.59274400     12.67100800     11.39172300
H           9.67491900     13.69963800     10.99117600
H           8.64126400     12.65576800     11.95901500
S           9.45142400     11.52940200      9.99596400
O           8.75326900     12.25240600      8.92532000
O          10.85321800     11.15119300      9.64707500
O           8.69401100     10.37902600     10.57128600
P          11.71877400      8.68580500      7.20454600
O          12.82540900      8.09964500      7.96621500
O          10.35568900      7.98901100      7.60357200
H           9.56255400      8.37664000      7.02749500
O          11.55080800     10.24935800      7.25641900
H          11.36446200     10.56930200      8.27922300
O          11.78085200      8.43102600      5.62288100
H          12.53041400      9.01764300      5.24227700
O           8.21773400      9.00022200      6.12552700
H           8.39296400      8.84542800      5.19929900
H           8.33997500      9.97940700      6.22826700
O           8.93388600     11.60373100      6.26723600
H           9.86410800     11.39578600      6.40108300
H           8.67391400     11.95289000      7.15386400
O           7.27771900     10.48614700     12.84946100
H           6.34823600     10.48184100     12.65921900
H           7.71778400     10.44123500     11.96503100
O          12.66692800      5.57257500      9.42915900
H          12.70563600      4.88611500      8.76791400
H          12.77237000      6.39390500      8.92218800
          45
 Energy =     -0.78007700 a.u.  #Cluster:   10
C          11.79800600      7.24851100     11.97721300
C          12.12459400      8.54420800     12.36108600
C          10.21895100      8.63681800     11.13842200
N          10.61504600      7.32125500     11.22078800
H          12.32340000      6.32816200     12.17019000
H          13.00151200      8.90612700     12.88686400
H           9.35694000      9.04371600     10.57061000
C           9.95090600      6.19995800     10.54968300
H          10.67865700      5.42057700     10.26078600
H           9.16960100      5.75483000     11.18835600
H           9.47762300      6.55056400      9.59206900
N          11.12769100      9.39471600     11.85615300
C          11.10775900     10.87383300     11.94917400
H          11.67351600     11.17936100     12.85752600
H          10.04127400     11.19190800     12.09730700
C          11.71699700     11.52011800     10.69181300
H          12.70321000     11.96172200     10.95203100
H          11.99390200     10.73027700      9.93823900
C          10.82943200     12.57965200     10.05275000
H          11.41665900     13.11397300      9.27137200
H          10.59366700     13.38262600     10.78380700
S           9.35720400     11.91645600      9.36060400
O           8.38254100     13.00248000      9.16291500
O           9.68611100     11.23196900      8.05906200
O           8.80198500     10.88392500     10.30753800
P          11.47879300      8.52776100      7.97111800
O          12.34402000      8.95573600      9.10732700
O          10.03261000      8.08349600      8.35303200
H           9.00566700      8.61487300      7.67568200
O          11.34385400      9.62696200      6.75220600
H          10.94018700     10.53328500      6.98673200
O          12.17128500      7.31156900      7.09492500
H          12.04358300      7.36261900      6.11307600
O           8.12953400      9.31224700      7.28131500
H           7.50561700      9.40711600      8.18157800
H           8.62329500     10.21595000      7.26222800
O           6.10205600     12.27778500      8.75959000
H           6.69160000     12.57501300      8.04362800
H           6.46785500     12.74128900      9.54162700
O           6.68073000      9.76073400      9.31785800
H           6.18434900     10.58977300      9.02889400
H           7.33379700     10.10327300     10.00490500
O          14.26289100      9.61363500     11.07440000
H          15.13252300      9.65138600     10.69826800
H          13.67859900      9.27777600     10.35527700
          45
 Energy =     -0.77956800 a.u.  #Cluster:   11
C          12.48699900      7.52189900     12.46529700
C          12.34813600      8.75775400     13.08689200
C          10.86179800      8.65968600     11.37690000
N          11.55476400      7.47200400     11.41505200
H          13.17190800      6.71915200     12.68728700
H          12.89404600      9.16728700     13.92014600
H          10.07298200      8.95229400     10.63620300
C          11.38632300      6.36283900     10.47327600
H          10.33144900      6.29874200     10.12228300
H          12.00023200      6.54278400      9.54615100
H          11.67921700      5.39995100     10.91462000
N          11.32704400      9.45077300     12.41425000
C          10.85892800     10.82149000     12.71679100
H          10.96064900     11.00525400     13.80869100
H           9.75682500     10.86527700     12.48266500
C          11.63402800     11.88094200     11.90839600
H          12.24168300     12.49990300     12.59986900
H          12.38721000     11.38864100     11.23994500
C          10.72250500     12.78630800     11.08500500
H          11.31165300     13.63932600     10.68218000
H           9.96068900     13.27706300     11.72292200
S           9.97776000     11.87327300      9.77120300
O           9.10788800     12.73369800      8.95619400
O          11.12618300     11.30898000      8.97085500
O           9.19661100     10.76433200     10.41477500
P          10.37079800      8.24378700      7.60082900
O          11.74901300      7.78436000      7.89635100
O           9.43471100      8.07430100      8.91377200
H           8.49089800      8.68125200      8.96808600
O          10.18919700      9.82038200      7.20195700
H          10.87001900     10.51360800      7.66244100
O           9.57363400      7.52605900      6.38923600
H           8.62846000      7.91179500      6.16357400
O           7.11654200      8.69552200      6.32329900
H           6.75209200      8.61106300      7.21470100
H           7.17792500      9.65158000      6.15577200
O           7.92849500     11.25596900      7.18247100
H           8.83073700     11.01962900      6.87179000
H           8.04039200     12.14885900      7.61281200
O           7.38850400      9.57145400      9.12619800
H           7.61377000     10.32999500      8.46709800
H           7.66675500      9.96735800     10.00325800
O          13.04436600      9.54992900      9.82322200
H          12.62949700     10.33045300      9.41044000
H          12.98670500      8.85301300      9.14486000
          45
 Energy =     -0.77838700 a.u.  #Cluster:   12
C          11.50754200      8.14785900     11.48899400
C          11.92261700      9.39824200     11.92781900
C           9.65559300      9.37726200     11.92326700
N          10.10221500      8.14511900     11.50010200
H          12.10638400      7.32223300     11.11223900
H          12.93065500      9.80080500     11.99714800
H           8.60539900      9.69057800     11.97118700
C           9.23233300      7.03448600     11.10633600
H           8.17448600      7.37119400     11.02285400
H           9.52013800      6.64725100     10.09365300
H           9.29041600      6.20296300     11.82733700
N          10.76789000     10.15496900     12.20038200
C          10.74155600     11.57674700     12.61074900
H          11.39696200     11.68717700     13.50923900
H           9.70753300     11.84283500     12.93293500
C          11.22871100     12.52247000     11.49864700
H          11.72619300     13.39321700     11.97883300
H          12.04820700     12.03089000     10.90575300
C          10.12813600     13.02801800     10.57165600
H          10.44688300     13.99217900     10.11453700
H           9.21853800     13.30608100     11.14164400
S           9.75949900     11.85323600      9.31288100
O           8.96065600     12.45707000      8.24059500
O          11.08177100     11.34068900      8.81353300
O           8.98011200     10.74107900      9.97857200
P          11.25722300      7.99207700      7.86532600
O          12.26757200      8.07111200      8.94445300
O           9.85768300      7.29682400      8.21640100
H           8.90164700      7.95289200      8.18988400
O          10.75904900      9.41384600      7.23288200
H          11.18068600     10.30437400      7.66030600
O          11.78152000      7.15480200      6.55425900
H          11.09439500      6.88787200      5.89232600
O           7.89087300      8.83186600      8.51655900
H           8.41843300      9.46623600      9.12869700
H           7.79083200      9.39211600      7.64825700
O           6.89599100      9.17333700     10.81497800