 Entering Gaussian System, Link 0=g16
 Initial command:
 /data0/home/software/g16/l1.exe "/data0/home/software/g16/scratch/Gau-241927.inp" -scrdir="/data0/home/software/g16/scratch/"
 Default is to use a total of  22 processors:
                               22 via shared-memory
                                1 via Linda
 Entering Link 1 = /data0/home/software/g16/l1.exe PID=    241928.
  
 Copyright (c) 1988,1990,1992,1993,1995,1998,2003,2009,2016,
            Gaussian, Inc.  All Rights Reserved.
  
 This is part of the Gaussian(R) 16 program.  It is based on
 the Gaussian(R) 09 system (copyright 2009, Gaussian, Inc.),
 the Gaussian(R) 03 system (copyright 2003, Gaussian, Inc.),
 the Gaussian(R) 98 system (copyright 1998, Gaussian, Inc.),
 the Gaussian(R) 94 system (copyright 1995, Gaussian, Inc.),
 the Gaussian 92(TM) system (copyright 1992, Gaussian, Inc.),
 the Gaussian 90(TM) system (copyright 1990, Gaussian, Inc.),
 the Gaussian 88(TM) system (copyright 1988, Gaussian, Inc.),
 the Gaussian 86(TM) system (copyright 1986, Carnegie Mellon
 University), and the Gaussian 82(TM) system (copyright 1983,
 Carnegie Mellon University). Gaussian is a federally registered
 trademark of Gaussian, Inc.
  
 This software contains proprietary and confidential information,
 including trade secrets, belonging to Gaussian, Inc.
  
 This software is provided under written license and may be
 used, copied, transmitted, or stored only in accord with that
 written license.
  
 The following legend is applicable only to US Government
 contracts under FAR:
  
                    RESTRICTED RIGHTS LEGEND
  
 Use, reproduction and disclosure by the US Government is
 subject to restrictions as set forth in subparagraphs (a)
 and (c) of the Commercial Computer Software - Restricted
 Rights clause in FAR 52.227-19.
  
 Gaussian, Inc.
 340 Quinnipiac St., Bldg. 40, Wallingford CT 06492
  
  
 ---------------------------------------------------------------
 Warning -- This program may not be used in any manner that
 competes with the business of Gaussian, Inc. or will provide
 assistance to any competitor of Gaussian, Inc.  The licensee
 of this program is prohibited from giving any competitor of
 Gaussian, Inc. access to this program.  By using this program,
 the user acknowledges that Gaussian, Inc. is engaged in the
 business of creating and licensing software in the field of
 computational chemistry and represents and warrants to the
 licensee that it is not a competitor of Gaussian, Inc. and that
 it will not use this program in any manner prohibited above.
 ---------------------------------------------------------------
  

 Cite this work as:
 Gaussian 16, Revision A.03,
 M. J. Frisch, G. W. Trucks, H. B. Schlegel, G. E. Scuseria, 
 M. A. Robb, J. R. Cheeseman, G. Scalmani, V. Barone, 
 G. A. Petersson, H. Nakatsuji, X. Li, M. Caricato, A. V. Marenich, 
 J. Bloino, B. G. Janesko, R. Gomperts, B. Mennucci, H. P. Hratchian, 
 J. V. Ortiz, A. F. Izmaylov, J. L. Sonnenberg, D. Williams-Young, 
 F. Ding, F. Lipparini, F. Egidi, J. Goings, B. Peng, A. Petrone, 
 T. Henderson, D. Ranasinghe, V. G. Zakrzewski, J. Gao, N. Rega, 
 G. Zheng, W. Liang, M. Hada, M. Ehara, K. Toyota, R. Fukuda, 
 J. Hasegawa, M. Ishida, T. Nakajima, Y. Honda, O. Kitao, H. Nakai, 
 T. Vreven, K. Throssell, J. A. Montgomery, Jr., J. E. Peralta, 
 F. Ogliaro, M. J. Bearpark, J. J. Heyd, E. N. Brothers, K. N. Kudin, 
 V. N. Staroverov, T. A. Keith, R. Kobayashi, J. Normand, 
 K. Raghavachari, A. P. Rendell, J. C. Burant, S. S. Iyengar, 
 J. Tomasi, M. Cossi, J. M. Millam, M. Klene, C. Adamo, R. Cammi, 
 J. W. Ochterski, R. L. Martin, K. Morokuma, O. Farkas, 
 J. B. Foresman, and D. J. Fox, Gaussian, Inc., Wallingford CT, 2016.
 
 ******************************************
 Gaussian 16:  ES64L-G16RevA.03 25-Dec-2016
                17-Feb-2023 
 ******************************************
 %nproc=24
 Will use up to   24 processors via shared memory.
 %mem=50GB
 ---------------------------------------------------
 #p M062X/6-311+G(2d,p) nosymm em=GD3 counterpoise=2
 ---------------------------------------------------
 1/38=1,62=2,172=1/1;
 2/12=2,15=1,17=6,18=5,40=1/2;
 1/38=1,53=2,62=2,63=1/22;
 3/5=4,6=6,7=112,11=2,25=1,30=1,74=-55,124=31/1,2,3;
 4//1;
 5/5=2,38=5/2;
 6/7=2,8=2,9=2,10=2,28=1/1;
 1/53=2,62=2,63=1/22;
 3/5=7,6=11,7=112,11=2,25=1,30=1,74=-55,82=7,124=31/1,2,3;
 4//1;
 5/5=2,38=5/2;
 6/7=2,8=2,9=2,10=2,28=1/1;
 1/53=2,62=2,63=1/22(-4);
 99/5=1,9=1/99;
 Leave Link    1 at Fri Feb 17 23:46:03 2023, MaxMem=  6710886400 cpu:               0.7 elap:               0.0
 (Enter /data0/home/software/g16/l101.exe)
 -------------------
 Title Card Required
 -------------------
 Symbolic Z-matrix:
 Charge =  0 Multiplicity = 1 in supermolecule
 Charge =  0 Multiplicity = 1 in fragment      1.
 Charge =  0 Multiplicity = 1 in fragment      2.
 C                     7.98594   12.72277   14.01329    
 C                     6.94908   11.83256   14.3243    
 C                     5.65622   12.33272   14.45765    
 C                     5.42947   13.69669   14.27737    
 C                     6.51772   14.52016   13.96781    
 N                     7.76993   14.04045   13.84229    
 H                     4.82919   11.6657   14.69936    
 H                     9.02604   12.38163   13.89192    
 H                     7.15616   10.77471   14.45593    
 H                     4.43172   14.11369   14.37333    
 H                     6.40153   15.5989   13.81088    
 P                     10.87657   14.65175   11.97969    
 O                     10.9275   13.19636   12.10783    
 O                     10.22076   15.20662   10.63263    
 H                     10.34629   14.49813   9.891      
 O                     10.12245   15.50604   13.07767    
 H                     9.19689   15.02733   13.29028    
 O                     12.3372   15.28948   12.00587    
 H                     12.24237   16.31309   12.01891    
 
 ITRead=  0  0  0  0  0  0  0  0  0  0  0  0  0  0  0  0  0  0  0
 MicOpt= -1 -1 -1 -1 -1 -1 -1 -1 -1 -1 -1 -1 -1 -1 -1 -1 -1 -1 -1
 NAtoms=     19 NQM=       19 NQMF=       0 NMMI=      0 NMMIF=      0
                NMic=       0 NMicF=      0.
                    Isotopes and Nuclear Properties:
 (Nuclear quadrupole moments (NQMom) in fm**2, nuclear magnetic moments (NMagM)
  in nuclear magnetons)

  Atom         1           2           3           4           5           6           7           8           9          10
 IAtWgt=          12          12          12          12          12          14           1           1           1           1
 AtmWgt=  12.0000000  12.0000000  12.0000000  12.0000000  12.0000000  14.0030740   1.0078250   1.0078250   1.0078250   1.0078250
 NucSpn=           0           0           0           0           0           2           1           1           1           1
 AtZEff=  -0.0000000  -0.0000000  -0.0000000  -0.0000000  -0.0000000  -0.0000000  -0.0000000  -0.0000000  -0.0000000  -0.0000000
 NQMom=    0.0000000   0.0000000   0.0000000   0.0000000   0.0000000   2.0440000   0.0000000   0.0000000   0.0000000   0.0000000
 NMagM=    0.0000000   0.0000000   0.0000000   0.0000000   0.0000000   0.4037610   2.7928460   2.7928460   2.7928460   2.7928460
 AtZNuc=   6.0000000   6.0000000   6.0000000   6.0000000   6.0000000   7.0000000   1.0000000   1.0000000   1.0000000   1.0000000

  Atom        11          12          13          14          15          16          17          18          19
 IAtWgt=           1          31          16          16           1          16           1          16           1
 AtmWgt=   1.0078250  30.9737634  15.9949146  15.9949146   1.0078250  15.9949146   1.0078250  15.9949146   1.0078250
 NucSpn=           1           1           0           0           1           0           1           0           1
 AtZEff=  -0.0000000  -0.0000000  -0.0000000  -0.0000000  -0.0000000  -0.0000000  -0.0000000  -0.0000000  -0.0000000
 NQMom=    0.0000000   0.0000000   0.0000000   0.0000000   0.0000000   0.0000000   0.0000000   0.0000000   0.0000000
 NMagM=    2.7928460   1.1316000   0.0000000   0.0000000   2.7928460   0.0000000   2.7928460   0.0000000   2.7928460
 AtZNuc=   1.0000000  15.0000000   8.0000000   8.0000000   1.0000000   8.0000000   1.0000000   8.0000000   1.0000000
 Leave Link  101 at Fri Feb 17 23:46:03 2023, MaxMem=  6710886400 cpu:               2.1 elap:               0.1
 (Enter /data0/home/software/g16/l202.exe)
                          Input orientation:                          
 ---------------------------------------------------------------------
 Center     Atomic      Atomic             Coordinates (Angstroms)
 Number     Number       Type             X           Y           Z
 ---------------------------------------------------------------------
      1          6           0        7.985942   12.722765   14.013287
      2          6           0        6.949082   11.832562   14.324303
      3          6           0        5.656219   12.332715   14.457650
      4          6           0        5.429465   13.696686   14.277371
      5          6           0        6.517722   14.520160   13.967808
      6          7           0        7.769928   14.040455   13.842294
      7          1           0        4.829188   11.665702   14.699362
      8          1           0        9.026037   12.381632   13.891924
      9          1           0        7.156161   10.774712   14.455931
     10          1           0        4.431720   14.113685   14.373329
     11          1           0        6.401533   15.598899   13.810883
     12         15           0       10.876570   14.651748   11.979689
     13          8           0       10.927497   13.196358   12.107827
     14          8           0       10.220757   15.206617   10.632632
     15          1           0       10.346293   14.498131    9.890996
     16          8           0       10.122449   15.506035   13.077668
     17          1           0        9.196895   15.027331   13.290280
     18          8           0       12.337200   15.289483   12.005871
     19          1           0       12.242368   16.313086   12.018911
 ---------------------------------------------------------------------
                    Distance matrix (angstroms):
                    1          2          3          4          5
     1  C    0.000000
     2  C    1.401525   0.000000
     3  C    2.403582   1.392634   0.000000
     4  C    2.748424   2.405493   1.394394   0.000000
     5  C    2.321286   2.745240   2.401468   1.399372   0.000000
     6  N    1.346183   2.404353   2.786181   2.405252   1.346808
     7  H    3.398996   2.159274   1.089638   2.159469   3.396211
     8  H    1.101317   2.191386   3.417325   3.848801   3.297075
     9  H    2.163188   1.085935   2.162684   3.398720   3.830698
    10  H    3.833638   3.397505   2.162952   1.085629   2.163579
    11  H    3.289904   3.840404   3.412002   2.186536   1.096268
    12  P    4.026441   5.373098   6.226578   5.988526   4.792649
    13  O    3.536639   4.753997   5.835574   5.931746   4.965692
    14  O    4.753183   5.976332   6.612494   6.206488   5.030615
    15  H    5.071140   6.188741   6.894936   6.637605   5.592749
    16  O    3.631341   5.011862   5.649913   5.170796   3.841661
    17  H    2.701883   4.040843   4.600010   4.115640   2.809668
    18  O    5.436102   6.808616   7.706439   7.444026   6.189296
    19  H    5.914821   7.308133   8.072680   7.639492   6.307484
                    6          7          8          9         10
     6  N    0.000000
     7  H    3.875819   0.000000
     8  H    2.081338   4.333365   0.000000
     9  H    3.379103   2.503582   2.529176   0.000000
    10  H    3.380975   2.501379   4.933509   4.310237   0.000000
    11  H    2.074184   4.328014   4.152758   4.925275   2.530290
    12  P    3.673445   7.272133   3.497791   5.916471   6.896022
    13  O    3.700151   6.800613   2.731727   5.059737   6.940397
    14  O    4.203383   7.625312   4.475587   6.606901   6.978557
    15  H    4.739186   7.847387   4.714877   6.699211   7.431102
    16  O    2.875227   6.737704   3.409843   5.751860   6.000148
    17  H    1.820681   5.688842   2.718619   4.858817   4.971382
    18  O    5.078631   8.761103   4.793391   7.295829   8.335705
    19  H    5.337818   9.150860   5.413806   7.904565   8.449075
                   11         12         13         14         15
    11  H    0.000000
    12  P    4.927101   0.000000
    13  O    5.399718   1.461907   0.000000
    14  O    4.984138   1.597665   2.591683   0.000000
    15  H    5.669068   2.160424   2.635669   1.033313   0.000000
    16  O    3.793606   1.582423   2.631217   2.465262   3.349754
    17  H    2.900304   2.163335   2.783099   2.853687   3.627161
    18  O    6.211759   1.593999   2.525635   2.524279   3.010423
    19  H    6.151145   2.151043   3.383901   2.689415   3.378932
                   16         17         18         19
    16  O    0.000000
    17  H    1.063490   0.000000
    18  O    2.469973   3.402932   0.000000
    19  H    2.503269   3.541815   1.028069   0.000000
 Symmetry turned off by external request.
 Stoichiometry    C5H8NO4P
 Framework group  C1[X(C5H8NO4P)]
 Deg. of freedom    51
 Full point group                 C1      NOp   1
 Rotational constants (GHZ):           2.4731116           0.3972224           0.3729126
 Leave Link  202 at Fri Feb 17 23:46:03 2023, MaxMem=  6710886400 cpu:               0.1 elap:               0.0
 (Enter /data0/home/software/g16/l122.exe)
 Counterpoise: doing full-system calculation.
 Leave Link  122 at Fri Feb 17 23:46:03 2023, MaxMem=  6710886400 cpu:               0.0 elap:               0.0
 (Enter /data0/home/software/g16/l301.exe)
 Standard basis: 6-311+G(2d,p) (5D, 7F)
 Ernie: Thresh=  0.10000D-02 Tol=  0.10000D-05 Strict=F.
   353 basis functions,   540 primitive gaussians,   375 cartesian basis functions
    46 alpha electrons       46 beta electrons
       nuclear repulsion energy       711.5247203310 Hartrees.
 IExCor= 4336 DFT=T Ex+Corr=M062X ExCW=0 ScaHFX=  0.540000
 ScaDFX=  1.000000  1.000000  1.000000  1.000000 ScalE2=  1.000000  1.000000
 IRadAn=      5 IRanWt=     -1 IRanGd=            0 ICorTp=0 IEmpDi=131
 NAtoms=   19 NActive=   19 NUniq=   19 SFac= 1.00D+00 NAtFMM=   60 NAOKFM=F Big=F
 Integral buffers will be    131072 words long.
 Raffenetti 2 integral format.
 Two-electron integral symmetry is turned off.
 R6Disp:  Grimme-D3 Dispersion energy=       -0.0006351720 Hartrees.
 Nuclear repulsion after empirical dispersion term =      711.5240851590 Hartrees.
 Leave Link  301 at Fri Feb 17 23:46:03 2023, MaxMem=  6710886400 cpu:               1.1 elap:               0.1
 (Enter /data0/home/software/g16/l302.exe)
 NPDir=0 NMtPBC=     1 NCelOv=     1 NCel=       1 NClECP=     1 NCelD=      1
         NCelK=      1 NCelE2=     1 NClLst=     1 CellRange=     0.0.
 One-electron integrals computed using PRISM.
 NBasis=   353 RedAO= T EigKep=  1.05D-05  NBF=   353
 NBsUse=   353 1.00D-06 EigRej= -1.00D+00 NBFU=   353
 Precomputing XC quadrature grid using
 IXCGrd= 4 IRadAn=           5 IRanWt=          -1 IRanGd=           0 AccXCQ= 0.00D+00.
 Generated NRdTot=       0 NPtTot=           0 NUsed=           0 NTot=          32
 NSgBfM=   375   375   375   375   375 MxSgAt=    19 MxSgA2=    19.
 Leave Link  302 at Fri Feb 17 23:46:04 2023, MaxMem=  6710886400 cpu:               5.8 elap:               0.3
 (Enter /data0/home/software/g16/l303.exe)
 DipDrv:  MaxL=1.
 Leave Link  303 at Fri Feb 17 23:46:04 2023, MaxMem=  6710886400 cpu:               0.8 elap:               0.1
 (Enter /data0/home/software/g16/l401.exe)
 ExpMin= 3.48D-02 ExpMax= 7.75D+04 ExpMxC= 2.65D+03 IAcc=3 IRadAn=         5 AccDes= 0.00D+00
 Harris functional with IExCor= 1009 and IRadAn=       5 diagonalized for initial guess.
 HarFok:  IExCor= 1009 AccDes= 0.00D+00 IRadAn=         5 IDoV= 1 UseB2=F ITyADJ=14
 ICtDFT=  3500011 ScaDFX=  1.000000  1.000000  1.000000  1.000000
 FoFCou: FMM=F IPFlag=           0 FMFlag=      100000 FMFlg1=           0
         NFxFlg=           0 DoJE=T BraDBF=F KetDBF=T FulRan=T
         wScrn=  0.000000 ICntrl=       500 IOpCl=  0 I1Cent=   200000004 NGrid=           0
         NMat0=    1 NMatS0=      1 NMatT0=    0 NMatD0=    1 NMtDS0=    0 NMtDT0=    0
 Symmetry not used in FoFCou.
 Harris En= -892.073873853760    
 JPrj=0 DoOrth=F DoCkMO=F.
 Leave Link  401 at Fri Feb 17 23:46:05 2023, MaxMem=  6710886400 cpu:              19.4 elap:               0.8
 (Enter /data0/home/software/g16/l502.exe)
 Two-electron integral symmetry not used.
 Closed shell SCF:
 Using DIIS extrapolation, IDIIS=  1040.
 NGot=  6710886400 LenX=  6710593514 LenY=  6710452448
 Requested convergence on RMS density matrix=1.00D-08 within 128 cycles.
 Requested convergence on MAX density matrix=1.00D-06.
 Requested convergence on             energy=1.00D-06.
 No special actions if energy rises.
 Fock matrices will be formed incrementally for  20 cycles.

 Cycle   1  Pass 1  IDiag  1:
 FoFJK:  IHMeth= 1 ICntrl=       0 DoSepK=F KAlg= 0 I1Cent=           0 FoldK=F
 IRaf= 860000000 NMat=       1 IRICut=       1 DoRegI=T DoRafI=F ISym2E= 0 IDoP0=0 IntGTp=1.
 FoFCou: FMM=F IPFlag=           0 FMFlag=      100000 FMFlg1=           0
         NFxFlg=           0 DoJE=F BraDBF=F KetDBF=F FulRan=T
         wScrn=  0.000000 ICntrl=         0 IOpCl=  0 I1Cent=           0 NGrid=           0
         NMat0=    1 NMatS0=      1 NMatT0=    0 NMatD0=    1 NMtDS0=    0 NMtDT0=    0
 Symmetry not used in FoFCou.
 E= -892.033142985644    
 DIIS: error= 3.40D-02 at cycle   1 NSaved=   1.
 NSaved= 1 IEnMin= 1 EnMin= -892.033142985644     IErMin= 1 ErrMin= 3.40D-02
 ErrMax= 3.40D-02  0.00D+00 EMaxC= 1.00D-01 BMatC= 6.48D-01 BMatP= 6.48D-01
 IDIUse=3 WtCom= 6.60D-01 WtEn= 3.40D-01
 Coeff-Com:  0.100D+01
 Coeff-En:   0.100D+01
 Coeff:      0.100D+01
 Gap=     0.315 Goal=   None    Shift=    0.000
 GapD=    0.315 DampG=1.000 DampE=0.500 DampFc=0.5000 IDamp=-1.
 Damping current iteration by 5.00D-01
 RMSDP=5.65D-03 MaxDP=4.71D-01              OVMax= 2.29D-01

 Cycle   2  Pass 1  IDiag  1:
 RMSU=  2.77D-03    CP:  1.04D+00
 E= -892.209028944156     Delta-E=       -0.175885958512 Rises=F Damp=T
 DIIS: error= 7.59D-03 at cycle   2 NSaved=   2.
 NSaved= 2 IEnMin= 2 EnMin= -892.209028944156     IErMin= 2 ErrMin= 7.59D-03
 ErrMax= 7.59D-03  0.00D+00 EMaxC= 1.00D-01 BMatC= 3.97D-02 BMatP= 6.48D-01
 IDIUse=3 WtCom= 9.24D-01 WtEn= 7.59D-02
 Coeff-Com:  0.174D-01 0.983D+00
 Coeff-En:   0.948D-01 0.905D+00
 Coeff:      0.233D-01 0.977D+00
 Gap=     0.377 Goal=   None    Shift=    0.000
 RMSDP=1.57D-03 MaxDP=1.32D-01 DE=-1.76D-01 OVMax= 1.30D-01

 Cycle   3  Pass 1  IDiag  1:
 RMSU=  1.31D-03    CP:  9.96D-01  7.85D-01
 E= -892.414805477587     Delta-E=       -0.205776533432 Rises=F Damp=F
 DIIS: error= 6.43D-03 at cycle   3 NSaved=   3.
 NSaved= 3 IEnMin= 3 EnMin= -892.414805477587     IErMin= 3 ErrMin= 6.43D-03
 ErrMax= 6.43D-03  0.00D+00 EMaxC= 1.00D-01 BMatC= 1.52D-02 BMatP= 3.97D-02
 IDIUse=3 WtCom= 9.36D-01 WtEn= 6.43D-02
 Coeff-Com: -0.538D-01 0.355D+00 0.699D+00
 Coeff-En:   0.000D+00 0.000D+00 0.100D+01
 Coeff:     -0.503D-01 0.332D+00 0.718D+00
 Gap=     0.314 Goal=   None    Shift=    0.000
 RMSDP=5.90D-04 MaxDP=3.41D-02 DE=-2.06D-01 OVMax= 3.83D-02

 Cycle   4  Pass 1  IDiag  1:
 RMSU=  5.61D-04    CP:  9.94D-01  8.29D-01  8.98D-01
 E= -892.422555247767     Delta-E=       -0.007749770180 Rises=F Damp=F
 DIIS: error= 3.49D-03 at cycle   4 NSaved=   4.
 NSaved= 4 IEnMin= 4 EnMin= -892.422555247767     IErMin= 4 ErrMin= 3.49D-03
 ErrMax= 3.49D-03  0.00D+00 EMaxC= 1.00D-01 BMatC= 4.62D-03 BMatP= 1.52D-02
 IDIUse=3 WtCom= 9.65D-01 WtEn= 3.49D-02
 Coeff-Com: -0.303D-01 0.883D-01 0.400D+00 0.542D+00
 Coeff-En:   0.000D+00 0.000D+00 0.222D+00 0.778D+00
 Coeff:     -0.293D-01 0.852D-01 0.394D+00 0.550D+00
 Gap=     0.314 Goal=   None    Shift=    0.000
 RMSDP=2.01D-04 MaxDP=8.87D-03 DE=-7.75D-03 OVMax= 1.26D-02

 Cycle   5  Pass 1  IDiag  1:
 RMSU=  1.18D-04    CP:  9.95D-01  8.27D-01  9.29D-01  7.21D-01
 E= -892.425781257173     Delta-E=       -0.003226009406 Rises=F Damp=F
 DIIS: error= 4.01D-04 at cycle   5 NSaved=   5.
 NSaved= 5 IEnMin= 5 EnMin= -892.425781257173     IErMin= 5 ErrMin= 4.01D-04
 ErrMax= 4.01D-04  0.00D+00 EMaxC= 1.00D-01 BMatC= 9.47D-05 BMatP= 4.62D-03
 IDIUse=3 WtCom= 9.96D-01 WtEn= 4.01D-03
 Coeff-Com: -0.731D-02 0.128D-01 0.104D+00 0.207D+00 0.684D+00
 Coeff-En:   0.000D+00 0.000D+00 0.000D+00 0.000D+00 0.100D+01
 Coeff:     -0.728D-02 0.128D-01 0.103D+00 0.206D+00 0.685D+00
 Gap=     0.313 Goal=   None    Shift=    0.000
 RMSDP=3.54D-05 MaxDP=1.72D-03 DE=-3.23D-03 OVMax= 1.56D-03

 Cycle   6  Pass 1  IDiag  1:
 RMSU=  2.55D-05    CP:  9.94D-01  8.25D-01  9.31D-01  7.42D-01  8.42D-01
 E= -892.425850200250     Delta-E=       -0.000068943076 Rises=F Damp=F
 DIIS: error= 1.49D-04 at cycle   6 NSaved=   6.
 NSaved= 6 IEnMin= 6 EnMin= -892.425850200250     IErMin= 6 ErrMin= 1.49D-04
 ErrMax= 1.49D-04  0.00D+00 EMaxC= 1.00D-01 BMatC= 5.58D-06 BMatP= 9.47D-05
 IDIUse=3 WtCom= 9.99D-01 WtEn= 1.49D-03
 Coeff-Com: -0.142D-02 0.106D-02 0.214D-01 0.533D-01 0.267D+00 0.658D+00
 Coeff-En:   0.000D+00 0.000D+00 0.000D+00 0.000D+00 0.000D+00 0.100D+01
 Coeff:     -0.142D-02 0.105D-02 0.214D-01 0.532D-01 0.267D+00 0.659D+00
 Gap=     0.314 Goal=   None    Shift=    0.000
 RMSDP=1.01D-05 MaxDP=4.44D-04 DE=-6.89D-05 OVMax= 4.93D-04

 Cycle   7  Pass 1  IDiag  1:
 RMSU=  8.45D-06    CP:  9.94D-01  8.24D-01  9.31D-01  7.47D-01  8.67D-01
                    CP:  1.01D+00
 E= -892.425855190001     Delta-E=       -0.000004989751 Rises=F Damp=F
 DIIS: error= 3.43D-05 at cycle   7 NSaved=   7.
 NSaved= 7 IEnMin= 7 EnMin= -892.425855190001     IErMin= 7 ErrMin= 3.43D-05
 ErrMax= 3.43D-05  0.00D+00 EMaxC= 1.00D-01 BMatC= 2.94D-07 BMatP= 5.58D-06
 IDIUse=1 WtCom= 1.00D+00 WtEn= 0.00D+00
 Coeff-Com:  0.478D-03-0.112D-02-0.668D-02-0.111D-01-0.117D-01 0.140D+00
 Coeff-Com:  0.890D+00
 Coeff:      0.478D-03-0.112D-02-0.668D-02-0.111D-01-0.117D-01 0.140D+00
 Coeff:      0.890D+00
 Gap=     0.314 Goal=   None    Shift=    0.000
 RMSDP=4.83D-06 MaxDP=2.04D-04 DE=-4.99D-06 OVMax= 2.59D-04

 Cycle   8  Pass 1  IDiag  1:
 RMSU=  2.87D-06    CP:  9.94D-01  8.23D-01  9.31D-01  7.51D-01  8.83D-01
                    CP:  1.09D+00  1.07D+00
 E= -892.425855421341     Delta-E=       -0.000000231340 Rises=F Damp=F
 DIIS: error= 2.69D-05 at cycle   8 NSaved=   8.
 NSaved= 8 IEnMin= 8 EnMin= -892.425855421341     IErMin= 8 ErrMin= 2.69D-05
 ErrMax= 2.69D-05  0.00D+00 EMaxC= 1.00D-01 BMatC= 1.29D-07 BMatP= 2.94D-07
 IDIUse=1 WtCom= 1.00D+00 WtEn= 0.00D+00
 Coeff-Com:  0.367D-03-0.718D-03-0.538D-02-0.102D-01-0.263D-01 0.255D-01
 Coeff-Com:  0.485D+00 0.532D+00
 Coeff:      0.367D-03-0.718D-03-0.538D-02-0.102D-01-0.263D-01 0.255D-01
 Coeff:      0.485D+00 0.532D+00
 Gap=     0.314 Goal=   None    Shift=    0.000
 RMSDP=1.38D-06 MaxDP=8.83D-05 DE=-2.31D-07 OVMax= 1.22D-04

 Cycle   9  Pass 1  IDiag  1:
 RMSU=  1.06D-06    CP:  9.94D-01  8.23D-01  9.31D-01  7.51D-01  8.82D-01
                    CP:  1.09D+00  1.09D+00  8.25D-01
 E= -892.425855535777     Delta-E=       -0.000000114436 Rises=F Damp=F
 DIIS: error= 6.25D-06 at cycle   9 NSaved=   9.
 NSaved= 9 IEnMin= 9 EnMin= -892.425855535777     IErMin= 9 ErrMin= 6.25D-06
 ErrMax= 6.25D-06  0.00D+00 EMaxC= 1.00D-01 BMatC= 4.58D-09 BMatP= 1.29D-07
 IDIUse=1 WtCom= 1.00D+00 WtEn= 0.00D+00
 Coeff-Com:  0.403D-04-0.606D-04-0.779D-03-0.161D-02-0.583D-02-0.586D-02
 Coeff-Com:  0.450D-01 0.162D+00 0.807D+00
 Coeff:      0.403D-04-0.606D-04-0.779D-03-0.161D-02-0.583D-02-0.586D-02
 Coeff:      0.450D-01 0.162D+00 0.807D+00
 Gap=     0.314 Goal=   None    Shift=    0.000
 RMSDP=4.28D-07 MaxDP=3.06D-05 DE=-1.14D-07 OVMax= 2.70D-05

 Cycle  10  Pass 1  IDiag  1:
 RMSU=  2.71D-07    CP:  9.94D-01  8.23D-01  9.31D-01  7.52D-01  8.82D-01
                    CP:  1.10D+00  1.11D+00  9.10D-01  1.05D+00
 E= -892.425855540291     Delta-E=       -0.000000004513 Rises=F Damp=F
 DIIS: error= 2.54D-06 at cycle  10 NSaved=  10.
 NSaved=10 IEnMin=10 EnMin= -892.425855540291     IErMin=10 ErrMin= 2.54D-06
 ErrMax= 2.54D-06  0.00D+00 EMaxC= 1.00D-01 BMatC= 8.88D-10 BMatP= 4.58D-09
 IDIUse=1 WtCom= 1.00D+00 WtEn= 0.00D+00
 Coeff-Com: -0.175D-04 0.402D-04 0.159D-03 0.245D-03-0.346D-03-0.576D-02
 Coeff-Com: -0.286D-01 0.188D-01 0.357D+00 0.658D+00
 Coeff:     -0.175D-04 0.402D-04 0.159D-03 0.245D-03-0.346D-03-0.576D-02
 Coeff:     -0.286D-01 0.188D-01 0.357D+00 0.658D+00
 Gap=     0.314 Goal=   None    Shift=    0.000
 RMSDP=1.74D-07 MaxDP=1.17D-05 DE=-4.51D-09 OVMax= 1.37D-05

 Cycle  11  Pass 1  IDiag  1:
 RMSU=  1.37D-07    CP:  9.94D-01  8.23D-01  9.31D-01  7.52D-01  8.82D-01
                    CP:  1.10D+00  1.11D+00  9.31D-01  1.11D+00  9.78D-01
 E= -892.425855541037     Delta-E=       -0.000000000747 Rises=F Damp=F
 DIIS: error= 7.63D-07 at cycle  11 NSaved=  11.
 NSaved=11 IEnMin=11 EnMin= -892.425855541037     IErMin=11 ErrMin= 7.63D-07
 ErrMax= 7.63D-07  0.00D+00 EMaxC= 1.00D-01 BMatC= 1.41D-10 BMatP= 8.88D-10
 IDIUse=1 WtCom= 1.00D+00 WtEn= 0.00D+00
 Coeff-Com: -0.125D-04 0.257D-04 0.171D-03 0.311D-03 0.503D-03-0.200D-02
 Coeff-Com: -0.189D-01-0.142D-01 0.466D-01 0.321D+00 0.666D+00
 Coeff:     -0.125D-04 0.257D-04 0.171D-03 0.311D-03 0.503D-03-0.200D-02
 Coeff:     -0.189D-01-0.142D-01 0.466D-01 0.321D+00 0.666D+00
 Gap=     0.314 Goal=   None    Shift=    0.000
 RMSDP=6.41D-08 MaxDP=2.41D-06 DE=-7.47D-10 OVMax= 3.18D-06

 Cycle  12  Pass 1  IDiag  1:
 RMSU=  3.23D-08    CP:  9.94D-01  8.23D-01  9.31D-01  7.52D-01  8.82D-01
                    CP:  1.10D+00  1.11D+00  9.40D-01  1.13D+00  1.06D+00
                    CP:  8.75D-01
 E= -892.425855541168     Delta-E=       -0.000000000131 Rises=F Damp=F
 DIIS: error= 1.83D-07 at cycle  12 NSaved=  12.
 NSaved=12 IEnMin=12 EnMin= -892.425855541168     IErMin=12 ErrMin= 1.83D-07
 ErrMax= 1.83D-07  0.00D+00 EMaxC= 1.00D-01 BMatC= 7.08D-12 BMatP= 1.41D-10
 IDIUse=1 WtCom= 1.00D+00 WtEn= 0.00D+00
 Coeff-Com: -0.101D-05 0.183D-05 0.303D-04 0.606D-04 0.179D-03 0.158D-03
 Coeff-Com: -0.174D-02-0.648D-02-0.324D-01 0.313D-01 0.195D+00 0.814D+00
 Coeff:     -0.101D-05 0.183D-05 0.303D-04 0.606D-04 0.179D-03 0.158D-03
 Coeff:     -0.174D-02-0.648D-02-0.324D-01 0.313D-01 0.195D+00 0.814D+00
 Gap=     0.314 Goal=   None    Shift=    0.000
 RMSDP=2.05D-08 MaxDP=1.91D-06 DE=-1.31D-10 OVMax= 1.40D-06

 Cycle  13  Pass 1  IDiag  1:
 RMSU=  1.07D-08    CP:  9.94D-01  8.23D-01  9.31D-01  7.52D-01  8.82D-01
                    CP:  1.10D+00  1.11D+00  9.41D-01  1.13D+00  1.11D+00
                    CP:  9.38D-01  1.00D+00
 E= -892.425855541183     Delta-E=       -0.000000000015 Rises=F Damp=F
 DIIS: error= 1.00D-07 at cycle  13 NSaved=  13.
 NSaved=13 IEnMin=13 EnMin= -892.425855541183     IErMin=13 ErrMin= 1.00D-07
 ErrMax= 1.00D-07  0.00D+00 EMaxC= 1.00D-01 BMatC= 9.67D-13 BMatP= 7.08D-12
 IDIUse=1 WtCom= 1.00D+00 WtEn= 0.00D+00
 Coeff-Com:  0.750D-06-0.158D-05-0.332D-05-0.517D-05 0.143D-04 0.218D-03
 Coeff-Com:  0.102D-02-0.839D-03-0.154D-01-0.150D-01 0.303D-02 0.306D+00
 Coeff-Com:  0.721D+00
 Coeff:      0.750D-06-0.158D-05-0.332D-05-0.517D-05 0.143D-04 0.218D-03
 Coeff:      0.102D-02-0.839D-03-0.154D-01-0.150D-01 0.303D-02 0.306D+00
 Coeff:      0.721D+00
 Gap=     0.314 Goal=   None    Shift=    0.000
 RMSDP=5.27D-09 MaxDP=2.81D-07 DE=-1.46D-11 OVMax= 6.21D-07

 SCF Done:  E(RM062X) =  -892.425855541     A.U. after   13 cycles
            NFock= 13  Conv=0.53D-08     -V/T= 2.0031
 KE= 8.896265005930D+02 PE=-3.527721174873D+03 EE= 1.034144733580D+03
 Leave Link  502 at Fri Feb 17 23:46:34 2023, MaxMem=  6710886400 cpu:             705.9 elap:              29.5
 (Enter /data0/home/software/g16/l601.exe)
 Copying SCF densities to generalized density rwf, IOpCl= 0 IROHF=0.

 **********************************************************************

            Population analysis using the SCF density.

 **********************************************************************

 Alpha  occ. eigenvalues --  -78.14431 -19.65945 -19.65275 -19.63770 -19.57456
 Alpha  occ. eigenvalues --  -14.78382 -10.60567 -10.60111 -10.58351 -10.57430
 Alpha  occ. eigenvalues --  -10.57213  -6.95194  -5.07097  -5.07066  -5.06924
 Alpha  occ. eigenvalues --   -1.21452  -1.14284  -1.12925  -1.07804  -1.07590
 Alpha  occ. eigenvalues --   -0.92616  -0.88081  -0.73852  -0.73272  -0.70062
 Alpha  occ. eigenvalues --   -0.63030  -0.62981  -0.60164  -0.57243  -0.56183
 Alpha  occ. eigenvalues --   -0.54141  -0.52678  -0.51718  -0.50157  -0.49451
 Alpha  occ. eigenvalues --   -0.48059  -0.45854  -0.45086  -0.44703  -0.43479
 Alpha  occ. eigenvalues --   -0.40382  -0.37307  -0.36882  -0.36758  -0.35927
 Alpha  occ. eigenvalues --   -0.33717
 Alpha virt. eigenvalues --   -0.02358  -0.00845  -0.00062   0.00711   0.01970
 Alpha virt. eigenvalues --    0.02757   0.03020   0.04283   0.05122   0.05476
 Alpha virt. eigenvalues --    0.06329   0.07181   0.08403   0.08859   0.09015
 Alpha virt. eigenvalues --    0.10129   0.12334   0.12375   0.12844   0.13353
 Alpha virt. eigenvalues --    0.13867   0.14413   0.14999   0.15524   0.16449
 Alpha virt. eigenvalues --    0.16761   0.17912   0.18249   0.18556   0.18655
 Alpha virt. eigenvalues --    0.19819   0.20324   0.20844   0.21343   0.21814
 Alpha virt. eigenvalues --    0.21920   0.22474   0.22613   0.23217   0.24276
 Alpha virt. eigenvalues --    0.24857   0.25015   0.25459   0.27302   0.27933
 Alpha virt. eigenvalues --    0.28652   0.28872   0.29291   0.30297   0.31292
 Alpha virt. eigenvalues --    0.31596   0.32027   0.32374   0.33026   0.33809
 Alpha virt. eigenvalues --    0.34031   0.34597   0.34866   0.35722   0.37980
 Alpha virt. eigenvalues --    0.38598   0.40066   0.41578   0.44159   0.44292
 Alpha virt. eigenvalues --    0.45283   0.47855   0.49617   0.49872   0.50741
 Alpha virt. eigenvalues --    0.52032   0.52520   0.53276   0.54139   0.55220
 Alpha virt. eigenvalues --    0.56089   0.57993   0.59088   0.60167   0.61374
 Alpha virt. eigenvalues --    0.63697   0.63946   0.64610   0.65584   0.66795
 Alpha virt. eigenvalues --    0.67949   0.69739   0.71094   0.72950   0.73500
 Alpha virt. eigenvalues --    0.75640   0.77719   0.78412   0.79017   0.79610
 Alpha virt. eigenvalues --    0.80197   0.81613   0.82489   0.82731   0.83435
 Alpha virt. eigenvalues --    0.84101   0.86295   0.87420   0.88521   0.89465
 Alpha virt. eigenvalues --    0.90976   0.92148   0.93548   0.94112   1.00966
 Alpha virt. eigenvalues --    1.02783   1.05664   1.06297   1.08825   1.10585
 Alpha virt. eigenvalues --    1.12319   1.15004   1.15144   1.17032   1.17408
 Alpha virt. eigenvalues --    1.19051   1.19673   1.20046   1.22045   1.22096
 Alpha virt. eigenvalues --    1.24415   1.25511   1.26571   1.28446   1.29097
 Alpha virt. eigenvalues --    1.29962   1.32019   1.33394   1.33645   1.34744
 Alpha virt. eigenvalues --    1.36754   1.36889   1.37550   1.38464   1.41233
 Alpha virt. eigenvalues --    1.43770   1.45300   1.46812   1.48226   1.49303
 Alpha virt. eigenvalues --    1.50230   1.51610   1.52340   1.53528   1.56749
 Alpha virt. eigenvalues --    1.58410   1.59104   1.61600   1.62202   1.63065
 Alpha virt. eigenvalues --    1.64195   1.67163   1.67750   1.69553   1.71728
 Alpha virt. eigenvalues --    1.72302   1.75034   1.78872   1.81946   1.82603
 Alpha virt. eigenvalues --    1.82860   1.87274   1.87703   1.89188   1.90677
 Alpha virt. eigenvalues --    1.93739   1.95941   1.99036   2.00867   2.01065
 Alpha virt. eigenvalues --    2.04128   2.06292   2.10061   2.13572   2.14996
 Alpha virt. eigenvalues --    2.16773   2.18772   2.21121   2.24710   2.26530
 Alpha virt. eigenvalues --    2.29865   2.33622   2.38952   2.40464   2.41732
 Alpha virt. eigenvalues --    2.47334   2.50635   2.52559   2.55080   2.62322
 Alpha virt. eigenvalues --    2.63229   2.64775   2.67294   2.69121   2.69686
 Alpha virt. eigenvalues --    2.74336   2.75308   2.75733   2.77769   2.81345
 Alpha virt. eigenvalues --    2.82324   2.84078   2.86017   2.86768   2.87126
 Alpha virt. eigenvalues --    2.88558   2.89867   2.96584   2.99934   3.01466
 Alpha virt. eigenvalues --    3.07106   3.07378   3.11185   3.12430   3.13336
 Alpha virt. eigenvalues --    3.21333   3.22192   3.27360   3.28106   3.28646
 Alpha virt. eigenvalues --    3.31005   3.35769   3.40893   3.44194   3.45747
 Alpha virt. eigenvalues --    3.54006   3.54522   3.55213   3.56201   3.56861
 Alpha virt. eigenvalues --    3.58017   3.63957   3.67551   3.71513   3.72840
 Alpha virt. eigenvalues --    3.75106   3.79643   3.82934   3.86302   3.91255
 Alpha virt. eigenvalues --    3.94724   3.95177   3.98478   4.02365   4.47208
 Alpha virt. eigenvalues --    4.49427   4.54185   4.80636   4.94402   4.97692
 Alpha virt. eigenvalues --    5.01931   5.07412   5.10886   5.11018   5.12403
 Alpha virt. eigenvalues --    5.14405   5.15529   5.19525   5.22059   5.25047
 Alpha virt. eigenvalues --    5.26360   5.37848   5.49283   5.54324   5.56190
 Alpha virt. eigenvalues --    5.59080   5.81870   6.74930   6.76908   6.79842
 Alpha virt. eigenvalues --    6.80316   6.81020   6.83524   6.83707   6.88871
 Alpha virt. eigenvalues --    6.92375   6.98133   6.98430   6.99619   7.05059
 Alpha virt. eigenvalues --    7.08974   7.14679   7.25085   7.29325   7.31917
 Alpha virt. eigenvalues --    7.37837   7.42171   7.68011  14.25851  14.27249
 Alpha virt. eigenvalues --   14.39099  23.82169  24.03841  24.04893  24.08423
 Alpha virt. eigenvalues --   24.12240  35.72076  50.03631  50.04501  50.06321
 Alpha virt. eigenvalues --   50.11449 163.90936
          Condensed to atoms (all electrons):
               1          2          3          4          5          6
     1  C    6.798900  -0.879637   0.058042   0.068635  -0.598614   0.295518
     2  C   -0.879637   6.053078   0.376346   0.003227   0.039548   0.072254
     3  C    0.058042   0.376346   5.021323   0.383843   0.131298  -0.099537
     4  C    0.068635   0.003227   0.383843   5.308624  -0.185810   0.083417
     5  C   -0.598614   0.039548   0.131298  -0.185810   6.170134   0.186787
     6  N    0.295518   0.072254  -0.099537   0.083417   0.186787   6.772957
     7  H   -0.003080  -0.010349   0.372760  -0.013469  -0.000778   0.000350
     8  H    0.427582  -0.046851   0.009558  -0.007552   0.012757  -0.051587
     9  H   -0.008227   0.372223  -0.029831   0.005527  -0.002298   0.007168
    10  H   -0.003339   0.008332  -0.023955   0.378832  -0.023225   0.008020
    11  H    0.012033  -0.007772   0.016840  -0.051617   0.431109  -0.058696
    12  P    0.033344  -0.022062  -0.000045   0.008101  -0.018815  -0.002930
    13  O    0.026746  -0.025962  -0.003718   0.000038   0.005266  -0.006431
    14  O   -0.014303   0.005965   0.000452  -0.003855   0.008268   0.000336
    15  H    0.000294   0.000180   0.000032   0.000171   0.000112  -0.000616
    16  O    0.003655  -0.006199  -0.001257  -0.002034  -0.006764   0.004096
    17  H   -0.011685   0.007223  -0.003250   0.021818  -0.025056   0.057156
    18  O   -0.003447  -0.002189  -0.000139   0.000079   0.000446   0.000339
    19  H    0.000879   0.000575  -0.000029   0.000075  -0.000364  -0.000280
               7          8          9         10         11         12
     1  C   -0.003080   0.427582  -0.008227  -0.003339   0.012033   0.033344
     2  C   -0.010349  -0.046851   0.372223   0.008332  -0.007772  -0.022062
     3  C    0.372760   0.009558  -0.029831  -0.023955   0.016840  -0.000045
     4  C   -0.013469  -0.007552   0.005527   0.378832  -0.051617   0.008101
     5  C   -0.000778   0.012757  -0.002298  -0.023225   0.431109  -0.018815
     6  N    0.000350  -0.051587   0.007168   0.008020  -0.058696  -0.002930
     7  H    0.524656  -0.000225  -0.004671  -0.004519  -0.000262   0.000009
     8  H   -0.000225   0.469359  -0.002137   0.000071  -0.000113  -0.000220
     9  H   -0.004671  -0.002137   0.520247  -0.000186   0.000082   0.000031
    10  H   -0.004519   0.000071  -0.000186   0.523666  -0.002698  -0.000025
    11  H   -0.000262  -0.000113   0.000082  -0.002698   0.520050  -0.000298
    12  P    0.000009  -0.000220   0.000031  -0.000025  -0.000298  12.533117
    13  O    0.000000  -0.001524   0.000058  -0.000000   0.000054   0.532804
    14  O   -0.000000  -0.000034   0.000002   0.000001   0.000020   0.283668
    15  H    0.000000  -0.000019  -0.000000  -0.000000  -0.000004   0.007118
    16  O   -0.000008   0.002695   0.000060   0.000045   0.001338   0.274239
    17  H    0.000015  -0.000635  -0.000048  -0.000047  -0.001160   0.010174
    18  O   -0.000000   0.000019   0.000000   0.000000   0.000010   0.191091
    19  H    0.000000   0.000023  -0.000000   0.000000  -0.000002   0.027297
              13         14         15         16         17         18
     1  C    0.026746  -0.014303   0.000294   0.003655  -0.011685  -0.003447
     2  C   -0.025962   0.005965   0.000180  -0.006199   0.007223  -0.002189
     3  C   -0.003718   0.000452   0.000032  -0.001257  -0.003250  -0.000139
     4  C    0.000038  -0.003855   0.000171  -0.002034   0.021818   0.000079
     5  C    0.005266   0.008268   0.000112  -0.006764  -0.025056   0.000446
     6  N   -0.006431   0.000336  -0.000616   0.004096   0.057156   0.000339
     7  H    0.000000  -0.000000   0.000000  -0.000008   0.000015  -0.000000
     8  H   -0.001524  -0.000034  -0.000019   0.002695  -0.000635   0.000019
     9  H    0.000058   0.000002  -0.000000   0.000060  -0.000048   0.000000
    10  H   -0.000000   0.000001  -0.000000   0.000045  -0.000047   0.000000
    11  H    0.000054   0.000020  -0.000004   0.001338  -0.001160   0.000010
    12  P    0.532804   0.283668   0.007118   0.274239   0.010174   0.191091
    13  O    8.200552  -0.027979  -0.017358  -0.067911  -0.000408   0.006423
    14  O   -0.027979   8.020884   0.266658  -0.004412  -0.000443  -0.003811
    15  H   -0.017358   0.266658   0.419695   0.003550   0.002001  -0.005981
    16  O   -0.067911  -0.004412   0.003550   8.220925   0.232189  -0.006789
    17  H   -0.000408  -0.000443   0.002001   0.232189   0.253255   0.001534
    18  O    0.006423  -0.003811  -0.005981  -0.006789   0.001534   8.046424
    19  H    0.000834  -0.011097   0.001007  -0.013406   0.001119   0.239974
              19
     1  C    0.000879
     2  C    0.000575
     3  C   -0.000029
     4  C    0.000075
     5  C   -0.000364
     6  N   -0.000280
     7  H    0.000000
     8  H    0.000023
     9  H   -0.000000
    10  H    0.000000
    11  H   -0.000002
    12  P    0.027297
    13  O    0.000834
    14  O   -0.011097
    15  H    0.001007
    16  O   -0.013406
    17  H    0.001119
    18  O    0.239974
    19  H    0.446591
 Mulliken charges:
               1
     1  C   -0.203298
     2  C    0.062070
     3  C   -0.208733
     4  C    0.001949
     5  C   -0.124001
     6  N   -0.268320
     7  H    0.139570
     8  H    0.188832
     9  H    0.142002
    10  H    0.139029
    11  H    0.141087
    12  P    1.143401
    13  O   -0.621484
    14  O   -0.520318
    15  H    0.323158
    16  O   -0.634011
    17  H    0.456245
    18  O   -0.463985
    19  H    0.306805
 Sum of Mulliken charges =  -0.00000
 Mulliken charges with hydrogens summed into heavy atoms:
               1
     1  C   -0.014466
     2  C    0.204072
     3  C   -0.069162
     4  C    0.140978
     5  C    0.017086
     6  N   -0.268320
    12  P    1.143401
    13  O   -0.621484
    14  O   -0.197160
    16  O   -0.177766
    18  O   -0.157179
         Mulliken charges condensed to fragments:
      1      0.010188
      2     -0.010188
 Electronic spatial extent (au):  <R**2>=         149346.6505
 Charge=             -0.0000 electrons
 Dipole moment (field-independent basis, Debye):
    X=             -4.9333    Y=              0.1989    Z=              0.2624  Tot=              4.9442
 Quadrupole moment (field-independent basis, Debye-Ang):
   XX=           -152.8830   YY=            -58.4624   ZZ=            -59.2494
   XY=            -58.4613   XZ=            -68.2508   YZ=              1.9117
 Traceless Quadrupole moment (field-independent basis, Debye-Ang):
   XX=            -62.6848   YY=             31.7359   ZZ=             30.9489
   XY=            -58.4613   XZ=            -68.2508   YZ=              1.9117
 Octapole moment (field-independent basis, Debye-Ang**2):
  XXX=          -2965.6399  YYY=          -2571.8447  ZZZ=          -2488.4570  XYY=          -1237.7679
  XXY=          -1951.0870  XXZ=          -2064.8473  XZZ=          -1512.8183  YZZ=           -913.7214
  YYZ=           -821.1441  XYZ=           -857.3870
 Hexadecapole moment (field-independent basis, Debye-Ang**3):
 XXXX=         -48986.1796 YYYY=         -73698.7238 ZZZZ=         -67651.5313 XXXY=         -39092.2296
 XXXZ=         -39023.4372 YYYX=         -31400.7975 YYYZ=         -34725.1113 ZZZX=         -35153.8325
 ZZZY=         -36575.7556 XXYY=         -30095.0150 XXZZ=         -33276.9570 YYZZ=         -24797.5216
 XXYZ=         -26790.1408 YYXZ=         -17797.8524 ZZXY=         -20572.0950
 N-N= 7.115240851590D+02 E-N=-3.527721179358D+03  KE= 8.896265005930D+02
 No NMR shielding tensors so no spin-rotation constants.
 Leave Link  601 at Fri Feb 17 23:46:34 2023, MaxMem=  6710886400 cpu:               2.5 elap:               0.1
 (Enter /data0/home/software/g16/l122.exe)
 CPIOFr:  IOpCl= 0 IRwI=-1 IRwCP=  731 ICalc= -1 LCPTot=      192217 Len1MO=      505607 IndFrg=      192217
 CPIOFr:  IOpCl= 0 IRwI=-1 IRwCP=  731 ICalc=  0 LCPTot=      192217 Len1MO=      505607 IndFrg=      697824
 Counterpoise: doing calculation for fragment   1 using the basis set of the full-system, NewBq=T
 Leave Link  122 at Fri Feb 17 23:46:34 2023, MaxMem=  6710886400 cpu:               0.2 elap:               0.0
 (Enter /data0/home/software/g16/l301.exe)
 Basis read from rwf:  (5D, 7F)
 No pseudopotential information found on rwf file.
   353 basis functions,   540 primitive gaussians,   375 cartesian basis functions
    21 alpha electrons       21 beta electrons
       nuclear repulsion energy       205.2295186574 Hartrees.
 IExCor= 4336 DFT=T Ex+Corr=M062X ExCW=0 ScaHFX=  0.540000
 ScaDFX=  1.000000  1.000000  1.000000  1.000000 ScalE2=  1.000000  1.000000
 IRadAn=      5 IRanWt=     -1 IRanGd=            0 ICorTp=0 IEmpDi=131
 NAtoms=   19 NActive=   19 NUniq=   19 SFac= 1.00D+00 NAtFMM=   60 NAOKFM=F Big=F
 Integral buffers will be    131072 words long.
 Raffenetti 2 integral format.
 Two-electron integral symmetry is turned off.
 R6Disp:  Grimme-D3 Dispersion energy=       -0.0000989618 Hartrees.
 Nuclear repulsion after empirical dispersion term =      205.2294196956 Hartrees.
 No density basis found on file   718.
 Leave Link  301 at Fri Feb 17 23:46:34 2023, MaxMem=  6710886400 cpu:               1.3 elap:               0.1
 (Enter /data0/home/software/g16/l302.exe)
 NPDir=0 NMtPBC=     1 NCelOv=     1 NCel=       1 NClECP=     1 NCelD=      1
         NCelK=      1 NCelE2=     1 NClLst=     1 CellRange=     0.0.
 One-electron integrals computed using PRISM.
 NBasis=   353 RedAO= T EigKep=  1.05D-05  NBF=   353
 NBsUse=   353 1.00D-06 EigRej= -1.00D+00 NBFU=   353
 Precomputing XC quadrature grid using
 IXCGrd= 4 IRadAn=           5 IRanWt=          -1 IRanGd=           0 AccXCQ= 0.00D+00.
 Generated NRdTot=       0 NPtTot=           0 NUsed=           0 NTot=          32
 NSgBfM=   375   375   375   375   375 MxSgAt=    19 MxSgA2=    19.
 Leave Link  302 at Fri Feb 17 23:46:35 2023, MaxMem=  6710886400 cpu:               5.7 elap:               0.3
 (Enter /data0/home/software/g16/l303.exe)
 DipDrv:  MaxL=1.
 Leave Link  303 at Fri Feb 17 23:46:35 2023, MaxMem=  6710886400 cpu:               0.8 elap:               0.1
 (Enter /data0/home/software/g16/l401.exe)
 ExpMin= 3.48D-02 ExpMax= 7.75D+04 ExpMxC= 2.65D+03 IAcc=3 IRadAn=         5 AccDes= 0.00D+00
 Harris functional with IExCor= 1009 and IRadAn=       5 diagonalized for initial guess.
 HarFok:  IExCor= 1009 AccDes= 0.00D+00 IRadAn=         5 IDoV= 1 UseB2=F ITyADJ=14
 ICtDFT=  3500011 ScaDFX=  1.000000  1.000000  1.000000  1.000000
 FoFCou: FMM=F IPFlag=           0 FMFlag=      100000 FMFlg1=           0
         NFxFlg=           0 DoJE=T BraDBF=F KetDBF=T FulRan=T
         wScrn=  0.000000 ICntrl=       500 IOpCl=  0 I1Cent=   200000004 NGrid=           0
         NMat0=    1 NMatS0=      1 NMatT0=    0 NMatD0=    1 NMtDS0=    0 NMtDT0=    0
 Symmetry not used in FoFCou.
 Harris En= -248.119104255829    
 JPrj=0 DoOrth=F DoCkMO=F.
 Leave Link  401 at Fri Feb 17 23:46:35 2023, MaxMem=  6710886400 cpu:              18.3 elap:               0.8
 (Enter /data0/home/software/g16/l502.exe)
 Two-electron integral symmetry not used.
 Closed shell SCF:
 Using DIIS extrapolation, IDIIS=  1040.
 NGot=  6710886400 LenX=  6710593514 LenY=  6710452448
 Requested convergence on RMS density matrix=1.00D-08 within 128 cycles.
 Requested convergence on MAX density matrix=1.00D-06.
 Requested convergence on             energy=1.00D-06.
 No special actions if energy rises.
 Fock matrices will be formed incrementally for  20 cycles.

 Cycle   1  Pass 1  IDiag  1:
 FoFJK:  IHMeth= 1 ICntrl=       0 DoSepK=F KAlg= 0 I1Cent=           0 FoldK=F
 IRaf= 860000000 NMat=       1 IRICut=       1 DoRegI=T DoRafI=F ISym2E= 0 IDoP0=0 IntGTp=1.
 FoFCou: FMM=F IPFlag=           0 FMFlag=      100000 FMFlg1=           0
         NFxFlg=           0 DoJE=F BraDBF=F KetDBF=F FulRan=T
         wScrn=  0.000000 ICntrl=         0 IOpCl=  0 I1Cent=           0 NGrid=           0
         NMat0=    1 NMatS0=      1 NMatT0=    0 NMatD0=    1 NMtDS0=    0 NMtDT0=    0
 Symmetry not used in FoFCou.
 E= -248.122011802255    
 DIIS: error= 2.56D-02 at cycle   1 NSaved=   1.
 NSaved= 1 IEnMin= 1 EnMin= -248.122011802255     IErMin= 1 ErrMin= 2.56D-02
 ErrMax= 2.56D-02  0.00D+00 EMaxC= 1.00D-01 BMatC= 1.51D-01 BMatP= 1.51D-01
 IDIUse=3 WtCom= 7.44D-01 WtEn= 2.56D-01
 Coeff-Com:  0.100D+01
 Coeff-En:   0.100D+01
 Coeff:      0.100D+01
 Gap=     0.339 Goal=   None    Shift=    0.000
 GapD=    0.339 DampG=1.000 DampE=0.500 DampFc=0.5000 IDamp=-1.
 Damping current iteration by 5.00D-01
 RMSDP=2.59D-03 MaxDP=1.38D-01              OVMax= 1.39D-01

 Cycle   2  Pass 1  IDiag  1:
 RMSU=  1.30D-03    CP:  9.95D-01
 E= -248.185929686127     Delta-E=       -0.063917883872 Rises=F Damp=T
 DIIS: error= 7.25D-03 at cycle   2 NSaved=   2.
 NSaved= 2 IEnMin= 2 EnMin= -248.185929686127     IErMin= 2 ErrMin= 7.25D-03
 ErrMax= 7.25D-03  0.00D+00 EMaxC= 1.00D-01 BMatC= 1.47D-02 BMatP= 1.51D-01
 IDIUse=3 WtCom= 9.28D-01 WtEn= 7.25D-02
 Coeff-Com: -0.223D+00 0.122D+01
 Coeff-En:   0.000D+00 0.100D+01
 Coeff:     -0.207D+00 0.121D+01
 Gap=     0.337 Goal=   None    Shift=    0.000
 RMSDP=9.34D-04 MaxDP=5.93D-02 DE=-6.39D-02 OVMax= 7.67D-02

 Cycle   3  Pass 1  IDiag  1:
 RMSU=  8.96D-04    CP:  9.58D-01  1.06D+00
 E= -248.242304947123     Delta-E=       -0.056375260996 Rises=F Damp=F
 DIIS: error= 4.70D-03 at cycle   3 NSaved=   3.
 NSaved= 3 IEnMin= 3 EnMin= -248.242304947123     IErMin= 3 ErrMin= 4.70D-03
 ErrMax= 4.70D-03  0.00D+00 EMaxC= 1.00D-01 BMatC= 2.70D-03 BMatP= 1.47D-02
 IDIUse=3 WtCom= 9.53D-01 WtEn= 4.70D-02
 Coeff-Com: -0.135D+00 0.398D+00 0.737D+00
 Coeff-En:   0.000D+00 0.000D+00 0.100D+01
 Coeff:     -0.129D+00 0.379D+00 0.749D+00
 Gap=     0.324 Goal=   None    Shift=    0.000
 RMSDP=1.98D-04 MaxDP=1.48D-02 DE=-5.64D-02 OVMax= 2.32D-02

 Cycle   4  Pass 1  IDiag  1:
 RMSU=  1.84D-04    CP:  9.49D-01  1.03D+00  1.02D+00
 E= -248.244636563569     Delta-E=       -0.002331616446 Rises=F Damp=F
 DIIS: error= 2.20D-03 at cycle   4 NSaved=   4.
 NSaved= 4 IEnMin= 4 EnMin= -248.244636563569     IErMin= 4 ErrMin= 2.20D-03
 ErrMax= 2.20D-03  0.00D+00 EMaxC= 1.00D-01 BMatC= 2.71D-04 BMatP= 2.70D-03
 IDIUse=3 WtCom= 9.78D-01 WtEn= 2.20D-02
 Coeff-Com: -0.462D-01 0.114D+00 0.319D+00 0.613D+00
 Coeff-En:   0.000D+00 0.000D+00 0.000D+00 0.100D+01
 Coeff:     -0.451D-01 0.112D+00 0.312D+00 0.621D+00
 Gap=     0.317 Goal=   None    Shift=    0.000
 RMSDP=6.15D-05 MaxDP=3.01D-03 DE=-2.33D-03 OVMax= 9.03D-03

 Cycle   5  Pass 1  IDiag  1:
 RMSU=  4.18D-05    CP:  9.51D-01  1.04D+00  9.94D-01  8.05D-01
 E= -248.244879950049     Delta-E=       -0.000243386480 Rises=F Damp=F
 DIIS: error= 8.22D-04 at cycle   5 NSaved=   5.
 NSaved= 5 IEnMin= 5 EnMin= -248.244879950049     IErMin= 5 ErrMin= 8.22D-04
 ErrMax= 8.22D-04  0.00D+00 EMaxC= 1.00D-01 BMatC= 3.80D-05 BMatP= 2.71D-04
 IDIUse=3 WtCom= 9.92D-01 WtEn= 8.22D-03
 Coeff-Com: -0.118D-01 0.239D-01 0.948D-01 0.319D+00 0.574D+00
 Coeff-En:   0.000D+00 0.000D+00 0.000D+00 0.678D-01 0.932D+00
 Coeff:     -0.117D-01 0.237D-01 0.940D-01 0.317D+00 0.577D+00
 Gap=     0.317 Goal=   None    Shift=    0.000
 RMSDP=3.20D-05 MaxDP=1.31D-03 DE=-2.43D-04 OVMax= 2.52D-03

 Cycle   6  Pass 1  IDiag  1:
 RMSU=  1.92D-05    CP:  9.50D-01  1.03D+00  1.01D+00  8.31D-01  7.41D-01
 E= -248.244918392957     Delta-E=       -0.000038442908 Rises=F Damp=F
 DIIS: error= 1.19D-04 at cycle   6 NSaved=   6.
 NSaved= 6 IEnMin= 6 EnMin= -248.244918392957     IErMin= 6 ErrMin= 1.19D-04
 ErrMax= 1.19D-04  0.00D+00 EMaxC= 1.00D-01 BMatC= 1.72D-06 BMatP= 3.80D-05
 IDIUse=3 WtCom= 9.99D-01 WtEn= 1.19D-03
 Coeff-Com: -0.371D-02 0.683D-02 0.319D-01 0.122D+00 0.271D+00 0.573D+00
 Coeff-En:   0.000D+00 0.000D+00 0.000D+00 0.000D+00 0.000D+00 0.100D+01
 Coeff:     -0.371D-02 0.682D-02 0.319D-01 0.122D+00 0.270D+00 0.573D+00
 Gap=     0.317 Goal=   None    Shift=    0.000
 RMSDP=4.26D-06 MaxDP=2.44D-04 DE=-3.84D-05 OVMax= 6.14D-04

 Cycle   7  Pass 1  IDiag  1:
 RMSU=  3.52D-06    CP:  9.50D-01  1.03D+00  1.01D+00  8.26D-01  7.82D-01
                    CP:  1.04D+00
 E= -248.244919847998     Delta-E=       -0.000001455041 Rises=F Damp=F
 DIIS: error= 2.80D-05 at cycle   7 NSaved=   7.
 NSaved= 7 IEnMin= 7 EnMin= -248.244919847998     IErMin= 7 ErrMin= 2.80D-05
 ErrMax= 2.80D-05  0.00D+00 EMaxC= 1.00D-01 BMatC= 1.86D-07 BMatP= 1.72D-06
 IDIUse=1 WtCom= 1.00D+00 WtEn= 0.00D+00
 Coeff-Com:  0.151D-02-0.330D-02-0.104D-01-0.315D-01-0.319D-01 0.226D+00
 Coeff-Com:  0.850D+00
 Coeff:      0.151D-02-0.330D-02-0.104D-01-0.315D-01-0.319D-01 0.226D+00
 Coeff:      0.850D+00
 Gap=     0.317 Goal=   None    Shift=    0.000
 RMSDP=4.46D-06 MaxDP=1.98D-04 DE=-1.46D-06 OVMax= 1.28D-04

 Cycle   8  Pass 1  IDiag  1:
 RMSU=  1.11D-06    CP:  9.50D-01  1.02D+00  1.01D+00  8.28D-01  7.93D-01
                    CP:  1.17D+00  9.48D-01
 E= -248.244920017341     Delta-E=       -0.000000169343 Rises=F Damp=F
 DIIS: error= 4.47D-06 at cycle   8 NSaved=   8.
 NSaved= 8 IEnMin= 8 EnMin= -248.244920017341     IErMin= 8 ErrMin= 4.47D-06
 ErrMax= 4.47D-06  0.00D+00 EMaxC= 1.00D-01 BMatC= 3.46D-09 BMatP= 1.86D-07
 IDIUse=1 WtCom= 1.00D+00 WtEn= 0.00D+00
 Coeff-Com:  0.384D-03-0.826D-03-0.279D-02-0.951D-02-0.141D-01 0.378D-01
 Coeff-Com:  0.134D+00 0.856D+00
 Coeff:      0.384D-03-0.826D-03-0.279D-02-0.951D-02-0.141D-01 0.378D-01
 Coeff:      0.134D+00 0.856D+00
 Gap=     0.317 Goal=   None    Shift=    0.000
 RMSDP=3.46D-07 MaxDP=1.65D-05 DE=-1.69D-07 OVMax= 2.36D-05

 Cycle   9  Pass 1  IDiag  1:
 RMSU=  2.16D-07    CP:  9.50D-01  1.02D+00  1.01D+00  8.28D-01  7.93D-01
                    CP:  1.18D+00  9.55D-01  1.11D+00
 E= -248.244920020785     Delta-E=       -0.000000003444 Rises=F Damp=F
 DIIS: error= 2.83D-06 at cycle   9 NSaved=   9.
 NSaved= 9 IEnMin= 9 EnMin= -248.244920020785     IErMin= 9 ErrMin= 2.83D-06
 ErrMax= 2.83D-06  0.00D+00 EMaxC= 1.00D-01 BMatC= 1.06D-09 BMatP= 3.46D-09
 IDIUse=1 WtCom= 1.00D+00 WtEn= 0.00D+00
 Coeff-Com: -0.734D-04 0.163D-03 0.486D-03 0.767D-03-0.738D-03-0.104D-01
 Coeff-Com: -0.711D-01 0.363D+00 0.718D+00
 Coeff:     -0.734D-04 0.163D-03 0.486D-03 0.767D-03-0.738D-03-0.104D-01
 Coeff:     -0.711D-01 0.363D+00 0.718D+00
 Gap=     0.317 Goal=   None    Shift=    0.000
 RMSDP=1.28D-07 MaxDP=4.29D-06 DE=-3.44D-09 OVMax= 1.85D-05

 Cycle  10  Pass 1  IDiag  1:
 RMSU=  8.86D-08    CP:  9.50D-01  1.02D+00  1.01D+00  8.28D-01  7.92D-01
                    CP:  1.18D+00  9.50D-01  1.17D+00  1.04D+00
 E= -248.244920022084     Delta-E=       -0.000000001299 Rises=F Damp=F
 DIIS: error= 5.59D-07 at cycle  10 NSaved=  10.
 NSaved=10 IEnMin=10 EnMin= -248.244920022084     IErMin=10 ErrMin= 5.59D-07
 ErrMax= 5.59D-07  0.00D+00 EMaxC= 1.00D-01 BMatC= 6.95D-11 BMatP= 1.06D-09
 IDIUse=1 WtCom= 1.00D+00 WtEn= 0.00D+00
 Coeff-Com: -0.142D-04 0.327D-04 0.147D-03 0.329D-03 0.652D-03 0.135D-03
 Coeff-Com: -0.866D-02-0.103D+00 0.495D-01 0.106D+01
 Coeff:     -0.142D-04 0.327D-04 0.147D-03 0.329D-03 0.652D-03 0.135D-03
 Coeff:     -0.866D-02-0.103D+00 0.495D-01 0.106D+01
 Gap=     0.317 Goal=   None    Shift=    0.000
 RMSDP=4.44D-08 MaxDP=2.01D-06 DE=-1.30D-09 OVMax= 5.54D-06

 Cycle  11  Pass 1  IDiag  1:
 RMSU=  2.80D-08    CP:  9.50D-01  1.02D+00  1.01D+00  8.28D-01  7.92D-01
                    CP:  1.18D+00  9.48D-01  1.19D+00  1.15D+00  1.13D+00
 E= -248.244920022164     Delta-E=       -0.000000000080 Rises=F Damp=F
 DIIS: error= 3.47D-07 at cycle  11 NSaved=  11.
 NSaved=11 IEnMin=11 EnMin= -248.244920022164     IErMin=11 ErrMin= 3.47D-07
 ErrMax= 3.47D-07  0.00D+00 EMaxC= 1.00D-01 BMatC= 1.04D-11 BMatP= 6.95D-11
 IDIUse=1 WtCom= 1.00D+00 WtEn= 0.00D+00
 Coeff-Com: -0.237D-05 0.614D-05 0.481D-04 0.124D-03 0.395D-03 0.954D-03
 Coeff-Com: -0.212D-03-0.828D-01-0.145D-01 0.564D+00 0.532D+00
 Coeff:     -0.237D-05 0.614D-05 0.481D-04 0.124D-03 0.395D-03 0.954D-03
 Coeff:     -0.212D-03-0.828D-01-0.145D-01 0.564D+00 0.532D+00
 Gap=     0.317 Goal=   None    Shift=    0.000
 RMSDP=9.51D-09 MaxDP=5.29D-07 DE=-8.00D-11 OVMax= 1.61D-06

 SCF Done:  E(RM062X) =  -248.244920022     A.U. after   11 cycles
            NFock= 11  Conv=0.95D-08     -V/T= 2.0048
 KE= 2.470612833605D+02 PE=-9.869325427232D+02 EE= 2.863969196450D+02
 Leave Link  502 at Fri Feb 17 23:46:59 2023, MaxMem=  6710886400 cpu:             573.3 elap:              24.0
 (Enter /data0/home/software/g16/l601.exe)
 Copying SCF densities to generalized density rwf, IOpCl= 0 IROHF=0.

 **********************************************************************

            Population analysis using the SCF density.

 **********************************************************************

 Alpha  occ. eigenvalues --  -14.75044 -10.58405 -10.58330 -10.56649 -10.55700
 Alpha  occ. eigenvalues --  -10.55696  -1.04985  -0.90685  -0.86237  -0.71814
 Alpha  occ. eigenvalues --   -0.71440  -0.60852  -0.55189  -0.54687  -0.50122
 Alpha  occ. eigenvalues --   -0.47396  -0.47249  -0.43071  -0.34789  -0.32529
 Alpha  occ. eigenvalues --   -0.32088
 Alpha virt. eigenvalues --   -0.00348   0.00685   0.00898   0.02187   0.02558
 Alpha virt. eigenvalues --    0.04155   0.04383   0.04624   0.06234   0.06793
 Alpha virt. eigenvalues --    0.07348   0.07879   0.09167   0.09584   0.10613
 Alpha virt. eigenvalues --    0.11240   0.13229   0.13479   0.13614   0.14226
 Alpha virt. eigenvalues --    0.14805   0.14886   0.15854   0.17108   0.18515
 Alpha virt. eigenvalues --    0.18973   0.19332   0.19854   0.20181   0.20758
 Alpha virt. eigenvalues --    0.21371   0.22024   0.22702   0.22807   0.23185
 Alpha virt. eigenvalues --    0.24585   0.25092   0.25465   0.26208   0.26255
 Alpha virt. eigenvalues --    0.27549   0.28496   0.29275   0.30407   0.30488
 Alpha virt. eigenvalues --    0.30967   0.31736   0.32473   0.33603   0.34824
 Alpha virt. eigenvalues --    0.35226   0.35908   0.36214   0.37648   0.37754
 Alpha virt. eigenvalues --    0.38086   0.39102   0.39612   0.41336   0.43767
 Alpha virt. eigenvalues --    0.44760   0.46823   0.48623   0.51033   0.51505
 Alpha virt. eigenvalues --    0.51922   0.53253   0.54825   0.55581   0.56447
 Alpha virt. eigenvalues --    0.57464   0.60131   0.62214   0.64477   0.64536
 Alpha virt. eigenvalues --    0.66064   0.66605   0.67519   0.68131   0.68512
 Alpha virt. eigenvalues --    0.70255   0.72534   0.72689   0.73656   0.73970
 Alpha virt. eigenvalues --    0.75372   0.76235   0.77721   0.78238   0.78751
 Alpha virt. eigenvalues --    0.80104   0.80808   0.82112   0.82786   0.83485
 Alpha virt. eigenvalues --    0.84062   0.84388   0.84819   0.86090   0.87272
 Alpha virt. eigenvalues --    0.87634   0.88756   0.90401   0.91513   0.91899
 Alpha virt. eigenvalues --    0.93471   0.94676   0.95423   0.97185   0.98809
 Alpha virt. eigenvalues --    1.00365   1.03696   1.05519   1.06733   1.08389
 Alpha virt. eigenvalues --    1.09619   1.11014   1.14755   1.16530   1.17116
 Alpha virt. eigenvalues --    1.18573   1.20864   1.21260   1.21886   1.25657
 Alpha virt. eigenvalues --    1.26662   1.28345   1.29955   1.31401   1.32791
 Alpha virt. eigenvalues --    1.35380   1.35724   1.37872   1.39038   1.39353
 Alpha virt. eigenvalues --    1.39753   1.44211   1.46650   1.48580   1.50307
 Alpha virt. eigenvalues --    1.51904   1.53140   1.53822   1.54890   1.58081
 Alpha virt. eigenvalues --    1.60913   1.63220   1.65127   1.68705   1.73971
 Alpha virt. eigenvalues --    1.84176   1.87381   1.90185   1.92626   1.94242
 Alpha virt. eigenvalues --    1.95125   2.01781   2.02124   2.02287   2.06255
 Alpha virt. eigenvalues --    2.08857   2.16537   2.17531   2.18073   2.20050
 Alpha virt. eigenvalues --    2.24109   2.27384   2.32390   2.33027   2.36468
 Alpha virt. eigenvalues --    2.40017   2.41925   2.43097   2.45646   2.48041
 Alpha virt. eigenvalues --    2.49769   2.52684   2.54111   2.55770   2.56822
 Alpha virt. eigenvalues --    2.62695   2.63350   2.64520   2.65183   2.66982
 Alpha virt. eigenvalues --    2.68444   2.69572   2.70612   2.72606   2.75133
 Alpha virt. eigenvalues --    2.76085   2.76255   2.76612   2.78515   2.81342
 Alpha virt. eigenvalues --    2.82793   2.83793   2.86922   2.87249   2.87754
 Alpha virt. eigenvalues --    2.88640   2.89105   2.90418   2.92018   2.94357
 Alpha virt. eigenvalues --    2.98106   2.99765   3.01514   3.04894   3.06618
 Alpha virt. eigenvalues --    3.07553   3.08795   3.09266   3.10517   3.12559
 Alpha virt. eigenvalues --    3.12952   3.14444   3.15485   3.20984   3.23083
 Alpha virt. eigenvalues --    3.23630   3.24237   3.26496   3.29016   3.29493
 Alpha virt. eigenvalues --    3.29778   3.30530   3.31378   3.35579   3.37746
 Alpha virt. eigenvalues --    3.39984   3.42780   3.44949   3.46240   3.47997
 Alpha virt. eigenvalues --    3.55402   3.56268   3.56888   3.57989   3.59147
 Alpha virt. eigenvalues --    3.59591   3.65555   3.68777   3.70280   3.72268
 Alpha virt. eigenvalues --    3.73565   3.76703   3.80530   3.81463   3.85397
 Alpha virt. eigenvalues --    3.86409   3.89659   3.93583   3.96350   3.97192
 Alpha virt. eigenvalues --    4.00883   4.05841   4.43642   4.45333   4.48300
 Alpha virt. eigenvalues --    4.49493   4.51245   4.56319   4.60782   4.66677
 Alpha virt. eigenvalues --    4.79518   4.83272   4.92978   4.94804   4.96963
 Alpha virt. eigenvalues --    4.97746   5.02544   5.05511   5.24694   5.28847
 Alpha virt. eigenvalues --    5.61746   5.70868   9.70686   9.78792   9.81164
 Alpha virt. eigenvalues --    9.91549   9.98462  10.02025  10.10211  10.11475
 Alpha virt. eigenvalues --   10.15805  10.17055  10.20636  10.24128  10.27529
 Alpha virt. eigenvalues --   10.31480  10.36381  10.37328  10.43341  10.45283
 Alpha virt. eigenvalues --   10.53238  10.58787  10.63933  10.70279  10.82970
 Alpha virt. eigenvalues --   12.67768  12.80209  13.13667  13.17918  13.24633
 Alpha virt. eigenvalues --   13.26384  13.33294  13.45365  13.52794  13.62317
 Alpha virt. eigenvalues --   13.74816  13.92875  14.05167  17.45222  18.14702
 Alpha virt. eigenvalues --   18.26168  18.51770  23.83927  24.05559  24.06689
 Alpha virt. eigenvalues --   24.10251  24.14024  35.75460  52.02549  52.04255
 Alpha virt. eigenvalues --   52.17041  69.55268 129.61569 137.65057 138.41328
 Alpha virt. eigenvalues --  139.69396 471.42821
          Condensed to atoms (all electrons):
               1          2          3          4          5          6
     1  C    5.027097   0.328600   0.140448  -0.116366   0.068719   0.307315
     2  C    0.328600   5.055739   0.393908   0.056525  -0.216249   0.089338
     3  C    0.140448   0.393908   4.835956   0.467112   0.123731  -0.116194
     4  C   -0.116366   0.056525   0.467112   4.873803   0.348454   0.092788
     5  C    0.068719  -0.216249   0.123731   0.348454   5.153540   0.200725
     6  N    0.307315   0.089338  -0.116194   0.092788   0.200725   6.787910
     7  H   -0.001855  -0.007081   0.368061  -0.013818  -0.001042   0.000336
     8  H    0.444717  -0.071410   0.022620  -0.012764   0.015334  -0.071122
     9  H   -0.019079   0.365033  -0.014416   0.005098  -0.000626   0.005822
    10  H   -0.003439   0.008260  -0.016295   0.368643  -0.021183   0.006183
    11  H    0.014684  -0.012272   0.023240  -0.074798   0.450217  -0.070505
    12  P   -0.001246  -0.003326   0.000574  -0.000138   0.001095  -0.004388
    13  O   -0.000462   0.000969  -0.000150   0.000282  -0.000599   0.001898
    14  O    0.001152  -0.000734   0.000180  -0.000638   0.000554  -0.003496
    15  H   -0.000110   0.000006   0.000004  -0.000009   0.000006   0.000013
    16  O   -0.002538   0.004137  -0.001309   0.004406  -0.005284   0.043557
    17  H    0.007761  -0.006240   0.001887  -0.008302   0.012775  -0.091552
    18  O   -0.000054   0.000259  -0.000053   0.000125  -0.000016   0.000564
    19  H    0.000002   0.000004   0.000000   0.000002  -0.000001   0.000001
               7          8          9         10         11         12
     1  C   -0.001855   0.444717  -0.019079  -0.003439   0.014684  -0.001246
     2  C   -0.007081  -0.071410   0.365033   0.008260  -0.012272  -0.003326
     3  C    0.368061   0.022620  -0.014416  -0.016295   0.023240   0.000574
     4  C   -0.013818  -0.012764   0.005098   0.368643  -0.074798  -0.000138
     5  C   -0.001042   0.015334  -0.000626  -0.021183   0.450217   0.001095
     6  N    0.000336  -0.071122   0.005822   0.006183  -0.070505  -0.004388
     7  H    0.532444  -0.000290  -0.004793  -0.004723  -0.000287   0.000010
     8  H   -0.000290   0.536591  -0.001859   0.000101  -0.000045  -0.000045
     9  H   -0.004793  -0.001859   0.532178  -0.000200   0.000100   0.000003
    10  H   -0.004723   0.000101  -0.000200   0.532029  -0.002016  -0.000005
    11  H   -0.000287  -0.000045   0.000100  -0.002016   0.538827  -0.000112
    12  P    0.000010  -0.000045   0.000003  -0.000005  -0.000112   0.005518
    13  O    0.000000  -0.000873   0.000002  -0.000000   0.000004  -0.001725
    14  O   -0.000000   0.000181   0.000003   0.000000   0.000064  -0.000218
    15  H    0.000000  -0.000004  -0.000000  -0.000000  -0.000001  -0.000022
    16  O   -0.000004  -0.000200  -0.000014  -0.000003  -0.000106  -0.001529
    17  H    0.000007   0.001419   0.000063   0.000047   0.001290   0.001121
    18  O   -0.000000  -0.000021  -0.000000   0.000000  -0.000004  -0.001887
    19  H   -0.000000   0.000002   0.000000   0.000000  -0.000000  -0.000010
              13         14         15         16         17         18
     1  C   -0.000462   0.001152  -0.000110  -0.002538   0.007761  -0.000054
     2  C    0.000969  -0.000734   0.000006   0.004137  -0.006240   0.000259
     3  C   -0.000150   0.000180   0.000004  -0.001309   0.001887  -0.000053
     4  C    0.000282  -0.000638  -0.000009   0.004406  -0.008302   0.000125
     5  C   -0.000599   0.000554   0.000006  -0.005284   0.012775  -0.000016
     6  N    0.001898  -0.003496   0.000013   0.043557  -0.091552   0.000564
     7  H    0.000000  -0.000000   0.000000  -0.000004   0.000007  -0.000000
     8  H   -0.000873   0.000181  -0.000004  -0.000200   0.001419  -0.000021
     9  H    0.000002   0.000003  -0.000000  -0.000014   0.000063  -0.000000
    10  H   -0.000000   0.000000  -0.000000  -0.000003   0.000047   0.000000
    11  H    0.000004   0.000064  -0.000001  -0.000106   0.001290  -0.000004
    12  P   -0.001725  -0.000218  -0.000022  -0.001529   0.001121  -0.001887
    13  O    0.001523  -0.000145  -0.000017   0.000466  -0.000481   0.000229
    14  O   -0.000145   0.001907  -0.000106  -0.001809   0.001701  -0.000897
    15  H   -0.000017  -0.000106   0.000175  -0.000028   0.000015  -0.000048
    16  O    0.000466  -0.001809  -0.000028   0.010602  -0.012302   0.000997
    17  H   -0.000481   0.001701   0.000015  -0.012302   0.017520  -0.000751
    18  O    0.000229  -0.000897  -0.000048   0.000997  -0.000751   0.002236
    19  H   -0.000003  -0.000031  -0.000000   0.000043  -0.000024  -0.000011
              19
     1  C    0.000002
     2  C    0.000004
     3  C    0.000000
     4  C    0.000002
     5  C   -0.000001
     6  N    0.000001
     7  H   -0.000000
     8  H    0.000002
     9  H    0.000000
    10  H    0.000000
    11  H   -0.000000
    12  P   -0.000010
    13  O   -0.000003
    14  O   -0.000031
    15  H   -0.000000
    16  O    0.000043
    17  H   -0.000024
    18  O   -0.000011
    19  H    0.000037
 Mulliken charges:
               1
     1  C   -0.195346
     2  C    0.014534
     3  C   -0.229304
     4  C    0.009595
     5  C   -0.130150
     6  N   -0.179192
     7  H    0.133034
     8  H    0.137669
     9  H    0.132684
    10  H    0.132601
    11  H    0.131720
    12  P    0.006331
    13  O   -0.000920
    14  O    0.002331
    15  H    0.000127
    16  O   -0.039083
    17  H    0.074045
    18  O   -0.000666
    19  H   -0.000012
 Sum of Mulliken charges =   0.00000
 Mulliken charges with hydrogens summed into heavy atoms:
               1
     1  C   -0.057677
     2  C    0.147218
     3  C   -0.096270
     4  C    0.142196
     5  C    0.001570
     6  N   -0.179192
    12  P    0.006331
    13  O   -0.000920
    14  O    0.002458
    16  O    0.034963
    18  O   -0.000678
         Mulliken charges condensed to fragments:
      1     -0.042153
      2      0.042153
 Electronic spatial extent (au):  <R**2>=          63288.4907
 Charge=              0.0000 electrons
 Dipole moment (field-independent basis, Debye):
    X=             -1.7033    Y=             -1.3772    Z=              0.4847  Tot=              2.2434
 Quadrupole moment (field-independent basis, Debye-Ang):
   XX=            -56.2617   YY=            -68.3047   ZZ=            -24.7096
   XY=            -35.2901   XZ=            -21.1391   YZ=            -13.5615
 Traceless Quadrupole moment (field-independent basis, Debye-Ang):
   XX=             -6.5030   YY=            -18.5460   ZZ=             25.0490
   XY=            -35.2901   XZ=            -21.1391   YZ=            -13.5615
 Octapole moment (field-independent basis, Debye-Ang**2):
  XXX=           -906.2814  YYY=          -1983.6597  ZZZ=          -1340.9181  XYY=           -853.5570
  XXY=           -858.4142  XXZ=           -776.1234  XZZ=           -514.4921  YZZ=           -614.1866
  YYZ=           -893.4483  XYZ=           -461.2654
 Hexadecapole moment (field-independent basis, Debye-Ang**3):
 XXXX=         -11439.1301 YYYY=         -46248.3276 ZZZZ=         -40775.7044 XXXY=         -12987.2288
 XXXZ=         -12661.2328 YYYX=         -19264.7291 YYYZ=         -27146.5923 ZZZX=         -13953.7311
 ZZZY=         -21819.5258 XXYY=         -14447.6573 XXZZ=         -12481.8620 YYZZ=         -18334.8483
 XXYZ=         -11867.9066 YYXZ=         -11574.9051 ZZXY=          -9374.8507
 N-N= 2.052294196956D+02 E-N=-9.869325438354D+02  KE= 2.470612833605D+02
 No NMR shielding tensors so no spin-rotation constants.
 Leave Link  601 at Fri Feb 17 23:47:00 2023, MaxMem=  6710886400 cpu:               2.5 elap:               0.1
 (Enter /data0/home/software/g16/l122.exe)
 CPIOFr:  IOpCl= 0 IRwI=-1 IRwCP=  731 ICalc=  1 LCPTot=      192217 Len1MO=      505607 IndFrg=     1203431
 Counterpoise: doing calculation for fragment   2 using the basis set of the full-system, NewBq=T
 Leave Link  122 at Fri Feb 17 23:47:00 2023, MaxMem=  6710886400 cpu:               0.1 elap:               0.0
 (Enter /data0/home/software/g16/l301.exe)
 Basis read from rwf:  (5D, 7F)
 No pseudopotential information found on rwf file.
   353 basis functions,   540 primitive gaussians,   375 cartesian basis functions
    25 alpha electrons       25 beta electrons
       nuclear repulsion energy       280.0870413345 Hartrees.
 IExCor= 4336 DFT=T Ex+Corr=M062X ExCW=0 ScaHFX=  0.540000
 ScaDFX=  1.000000  1.000000  1.000000  1.000000 ScalE2=  1.000000  1.000000
 IRadAn=      5 IRanWt=     -1 IRanGd=            0 ICorTp=0 IEmpDi=131
 NAtoms=   19 NActive=   19 NUniq=   19 SFac= 1.00D+00 NAtFMM=   60 NAOKFM=F Big=F
 Integral buffers will be    131072 words long.
 Raffenetti 2 integral format.
 Two-electron integral symmetry is turned off.
 R6Disp:  Grimme-D3 Dispersion energy=       -0.0000466012 Hartrees.
 Nuclear repulsion after empirical dispersion term =      280.0869947333 Hartrees.
 No density basis found on file   718.
 Leave Link  301 at Fri Feb 17 23:47:00 2023, MaxMem=  6710886400 cpu:               1.3 elap:               0.1
 (Enter /data0/home/software/g16/l302.exe)
 NPDir=0 NMtPBC=     1 NCelOv=     1 NCel=       1 NClECP=     1 NCelD=      1
         NCelK=      1 NCelE2=     1 NClLst=     1 CellRange=     0.0.
 One-electron integrals computed using PRISM.
 NBasis=   353 RedAO= T EigKep=  1.05D-05  NBF=   353
 NBsUse=   353 1.00D-06 EigRej= -1.00D+00 NBFU=   353
 Precomputing XC quadrature grid using
 IXCGrd= 4 IRadAn=           5 IRanWt=          -1 IRanGd=           0 AccXCQ= 0.00D+00.
 Generated NRdTot=       0 NPtTot=           0 NUsed=           0 NTot=          32
 NSgBfM=   375   375   375   375   375 MxSgAt=    19 MxSgA2=    19.
 Leave Link  302 at Fri Feb 17 23:47:00 2023, MaxMem=  6710886400 cpu:               5.7 elap:               0.3
 (Enter /data0/home/software/g16/l303.exe)
 DipDrv:  MaxL=1.
 Leave Link  303 at Fri Feb 17 23:47:00 2023, MaxMem=  6710886400 cpu:               0.8 elap:               0.1
 (Enter /data0/home/software/g16/l401.exe)
 ExpMin= 3.48D-02 ExpMax= 7.75D+04 ExpMxC= 2.65D+03 IAcc=3 IRadAn=         5 AccDes= 0.00D+00
 Harris functional with IExCor= 1009 and IRadAn=       5 diagonalized for initial guess.
 HarFok:  IExCor= 1009 AccDes= 0.00D+00 IRadAn=         5 IDoV= 1 UseB2=F ITyADJ=14
 ICtDFT=  3500011 ScaDFX=  1.000000  1.000000  1.000000  1.000000
 FoFCou: FMM=F IPFlag=           0 FMFlag=      100000 FMFlg1=           0
         NFxFlg=           0 DoJE=T BraDBF=F KetDBF=T FulRan=T
         wScrn=  0.000000 ICntrl=       500 IOpCl=  0 I1Cent=   200000004 NGrid=           0
         NMat0=    1 NMatS0=      1 NMatT0=    0 NMatD0=    1 NMtDS0=    0 NMtDT0=    0
 Symmetry not used in FoFCou.
 Harris En= -643.943320609502    
 JPrj=0 DoOrth=F DoCkMO=F.
 Leave Link  401 at Fri Feb 17 23:47:01 2023, MaxMem=  6710886400 cpu:              19.3 elap:               0.8
 (Enter /data0/home/software/g16/l502.exe)
 Two-electron integral symmetry not used.
 Closed shell SCF:
 Using DIIS extrapolation, IDIIS=  1040.
 NGot=  6710886400 LenX=  6710593514 LenY=  6710452448
 Requested convergence on RMS density matrix=1.00D-08 within 128 cycles.
 Requested convergence on MAX density matrix=1.00D-06.
 Requested convergence on             energy=1.00D-06.
 No special actions if energy rises.
 Fock matrices will be formed incrementally for  20 cycles.

 Cycle   1  Pass 1  IDiag  1:
 FoFJK:  IHMeth= 1 ICntrl=       0 DoSepK=F KAlg= 0 I1Cent=           0 FoldK=F
 IRaf= 860000000 NMat=       1 IRICut=       1 DoRegI=T DoRafI=F ISym2E= 0 IDoP0=0 IntGTp=1.
 FoFCou: FMM=F IPFlag=           0 FMFlag=      100000 FMFlg1=           0
         NFxFlg=           0 DoJE=F BraDBF=F KetDBF=F FulRan=T
         wScrn=  0.000000 ICntrl=         0 IOpCl=  0 I1Cent=           0 NGrid=           0
         NMat0=    1 NMatS0=      1 NMatT0=    0 NMatD0=    1 NMtDS0=    0 NMtDT0=    0
 Symmetry not used in FoFCou.
 E= -643.872008201540    
 DIIS: error= 3.27D-02 at cycle   1 NSaved=   1.
 NSaved= 1 IEnMin= 1 EnMin= -643.872008201540     IErMin= 1 ErrMin= 3.27D-02
 ErrMax= 3.27D-02  0.00D+00 EMaxC= 1.00D-01 BMatC= 5.02D-01 BMatP= 5.02D-01
 IDIUse=3 WtCom= 6.73D-01 WtEn= 3.27D-01
 Coeff-Com:  0.100D+01
 Coeff-En:   0.100D+01
 Coeff:      0.100D+01
 Gap=     0.311 Goal=   None    Shift=    0.000
 GapD=    0.311 DampG=1.000 DampE=0.500 DampFc=0.5000 IDamp=-1.
 Damping current iteration by 5.00D-01
 RMSDP=5.01D-03 MaxDP=4.30D-01              OVMax= 2.43D-01

 Cycle   2  Pass 1  IDiag  1:
 RMSU=  2.46D-03    CP:  1.05D+00
 E= -643.988565720522     Delta-E=       -0.116557518982 Rises=F Damp=T
 DIIS: error= 6.89D-03 at cycle   2 NSaved=   2.
 NSaved= 2 IEnMin= 2 EnMin= -643.988565720522     IErMin= 2 ErrMin= 6.89D-03
 ErrMax= 6.89D-03  0.00D+00 EMaxC= 1.00D-01 BMatC= 2.56D-02 BMatP= 5.02D-01
 IDIUse=3 WtCom= 9.31D-01 WtEn= 6.89D-02
 Coeff-Com:  0.635D-01 0.937D+00
 Coeff-En:   0.188D+00 0.812D+00
 Coeff:      0.720D-01 0.928D+00
 Gap=     0.366 Goal=   None    Shift=    0.000
 RMSDP=1.12D-03 MaxDP=9.15D-02 DE=-1.17D-01 OVMax= 1.43D-01

 Cycle   3  Pass 1  IDiag  1:
 RMSU=  8.42D-04    CP:  1.01D+00  7.46D-01
 E= -644.147552134865     Delta-E=       -0.158986414343 Rises=F Damp=F
 DIIS: error= 5.71D-03 at cycle   3 NSaved=   3.
 NSaved= 3 IEnMin= 3 EnMin= -644.147552134865     IErMin= 3 ErrMin= 5.71D-03
 ErrMax= 5.71D-03  0.00D+00 EMaxC= 1.00D-01 BMatC= 9.08D-03 BMatP= 2.56D-02
 IDIUse=3 WtCom= 9.43D-01 WtEn= 5.71D-02
 Coeff-Com: -0.205D-01 0.328D+00 0.693D+00
 Coeff-En:   0.000D+00 0.000D+00 0.100D+01
 Coeff:     -0.194D-01 0.309D+00 0.710D+00
 Gap=     0.358 Goal=   None    Shift=    0.000
 RMSDP=3.99D-04 MaxDP=1.64D-02 DE=-1.59D-01 OVMax= 3.37D-02

 Cycle   4  Pass 1  IDiag  1:
 RMSU=  3.84D-04    CP:  1.00D+00  7.69D-01  8.97D-01
 E= -644.151427026591     Delta-E=       -0.003874891726 Rises=F Damp=F
 DIIS: error= 3.19D-03 at cycle   4 NSaved=   4.
 NSaved= 4 IEnMin= 4 EnMin= -644.151427026591     IErMin= 4 ErrMin= 3.19D-03
 ErrMax= 3.19D-03  0.00D+00 EMaxC= 1.00D-01 BMatC= 3.74D-03 BMatP= 9.08D-03
 IDIUse=3 WtCom= 9.68D-01 WtEn= 3.19D-02
 Coeff-Com: -0.218D-01 0.506D-01 0.416D+00 0.555D+00
 Coeff-En:   0.000D+00 0.000D+00 0.294D+00 0.706D+00
 Coeff:     -0.211D-01 0.489D-01 0.412D+00 0.560D+00
 Gap=     0.363 Goal=   None    Shift=    0.000
 RMSDP=1.67D-04 MaxDP=7.94D-03 DE=-3.87D-03 OVMax= 1.14D-02

 Cycle   5  Pass 1  IDiag  1:
 RMSU=  5.46D-05    CP:  1.01D+00  7.70D-01  9.57D-01  6.12D-01
 E= -644.153913245228     Delta-E=       -0.002486218637 Rises=F Damp=F
 DIIS: error= 1.69D-04 at cycle   5 NSaved=   5.
 NSaved= 5 IEnMin= 5 EnMin= -644.153913245228     IErMin= 5 ErrMin= 1.69D-04
 ErrMax= 1.69D-04  0.00D+00 EMaxC= 1.00D-01 BMatC= 1.50D-05 BMatP= 3.74D-03
 IDIUse=3 WtCom= 9.98D-01 WtEn= 1.69D-03
 Coeff-Com: -0.270D-02 0.132D-02 0.661D-01 0.122D+00 0.813D+00
 Coeff-En:   0.000D+00 0.000D+00 0.000D+00 0.000D+00 0.100D+01
 Coeff:     -0.269D-02 0.131D-02 0.660D-01 0.122D+00 0.813D+00
 Gap=     0.361 Goal=   None    Shift=    0.000
 RMSDP=1.96D-05 MaxDP=1.42D-03 DE=-2.49D-03 OVMax= 7.57D-04

 Cycle   6  Pass 1  IDiag  1:
 RMSU=  1.48D-05    CP:  1.01D+00  7.68D-01  9.61D-01  6.34D-01  1.02D+00
 E= -644.153923504891     Delta-E=       -0.000010259663 Rises=F Damp=F
 DIIS: error= 4.74D-05 at cycle   6 NSaved=   6.
 NSaved= 6 IEnMin= 6 EnMin= -644.153923504891     IErMin= 6 ErrMin= 4.74D-05
 ErrMax= 4.74D-05  0.00D+00 EMaxC= 1.00D-01 BMatC= 1.06D-06 BMatP= 1.50D-05
 IDIUse=1 WtCom= 1.00D+00 WtEn= 0.00D+00
 Coeff-Com: -0.226D-04-0.134D-02 0.362D-02 0.131D-01 0.219D+00 0.765D+00
 Coeff:     -0.226D-04-0.134D-02 0.362D-02 0.131D-01 0.219D+00 0.765D+00
 Gap=     0.362 Goal=   None    Shift=    0.000
 RMSDP=7.49D-06 MaxDP=5.41D-04 DE=-1.03D-05 OVMax= 2.05D-04

 Cycle   7  Pass 1  IDiag  1:
 RMSU=  3.42D-06    CP:  1.01D+00  7.66D-01  9.60D-01  6.38D-01  1.10D+00
                    CP:  8.60D-01
 E= -644.153924288488     Delta-E=       -0.000000783597 Rises=F Damp=F
 DIIS: error= 1.85D-05 at cycle   7 NSaved=   7.
 NSaved= 7 IEnMin= 7 EnMin= -644.153924288488     IErMin= 7 ErrMin= 1.85D-05
 ErrMax= 1.85D-05  0.00D+00 EMaxC= 1.00D-01 BMatC= 1.61D-07 BMatP= 1.06D-06
 IDIUse=1 WtCom= 1.00D+00 WtEn= 0.00D+00
 Coeff-Com:  0.360D-03-0.646D-03-0.805D-02-0.121D-01-0.210D-01 0.262D+00
 Coeff-Com:  0.779D+00
 Coeff:      0.360D-03-0.646D-03-0.805D-02-0.121D-01-0.210D-01 0.262D+00
 Coeff:      0.779D+00
 Gap=     0.362 Goal=   None    Shift=    0.000
 RMSDP=2.43D-06 MaxDP=1.51D-04 DE=-7.84D-07 OVMax= 8.40D-05

 Cycle   8  Pass 1  IDiag  1:
 RMSU=  1.72D-06    CP:  1.01D+00  7.66D-01  9.60D-01  6.39D-01  1.11D+00
                    CP:  9.27D-01  9.48D-01
 E= -644.153924395427     Delta-E=       -0.000000106939 Rises=F Damp=F
 DIIS: error= 7.96D-06 at cycle   8 NSaved=   8.
 NSaved= 8 IEnMin= 8 EnMin= -644.153924395427     IErMin= 8 ErrMin= 7.96D-06
 ErrMax= 7.96D-06  0.00D+00 EMaxC= 1.00D-01 BMatC= 3.39D-08 BMatP= 1.61D-07
 IDIUse=1 WtCom= 1.00D+00 WtEn= 0.00D+00
 Coeff-Com:  0.165D-03-0.228D-03-0.406D-02-0.625D-02-0.191D-01 0.824D-01
 Coeff-Com:  0.392D+00 0.555D+00
 Coeff:      0.165D-03-0.228D-03-0.406D-02-0.625D-02-0.191D-01 0.824D-01
 Coeff:      0.392D+00 0.555D+00
 Gap=     0.362 Goal=   None    Shift=    0.000
 RMSDP=7.58D-07 MaxDP=4.01D-05 DE=-1.07D-07 OVMax= 3.13D-05

 Cycle   9  Pass 1  IDiag  1:
 RMSU=  3.64D-07    CP:  1.01D+00  7.66D-01  9.60D-01  6.40D-01  1.11D+00
                    CP:  9.29D-01  1.07D+00  7.54D-01
 E= -644.153924418792     Delta-E=       -0.000000023365 Rises=F Damp=F
 DIIS: error= 1.16D-06 at cycle   9 NSaved=   9.
 NSaved= 9 IEnMin= 9 EnMin= -644.153924418792     IErMin= 9 ErrMin= 1.16D-06
 ErrMax= 1.16D-06  0.00D+00 EMaxC= 1.00D-01 BMatC= 5.80D-10 BMatP= 3.39D-08
 IDIUse=1 WtCom= 1.00D+00 WtEn= 0.00D+00
 Coeff-Com: -0.250D-04 0.465D-04 0.302D-03 0.551D-03-0.210D-03-0.182D-01
 Coeff-Com: -0.342D-01 0.577D-01 0.994D+00
 Coeff:     -0.250D-04 0.465D-04 0.302D-03 0.551D-03-0.210D-03-0.182D-01
 Coeff:     -0.342D-01 0.577D-01 0.994D+00
 Gap=     0.362 Goal=   None    Shift=    0.000
 RMSDP=2.54D-07 MaxDP=2.14D-05 DE=-2.34D-08 OVMax= 7.51D-06

 Cycle  10  Pass 1  IDiag  1:
 RMSU=  8.82D-08    CP:  1.01D+00  7.66D-01  9.60D-01  6.40D-01  1.11D+00
                    CP:  9.29D-01  1.09D+00  8.47D-01  1.09D+00
 E= -644.153924419512     Delta-E=       -0.000000000720 Rises=F Damp=F
 DIIS: error= 1.48D-07 at cycle  10 NSaved=  10.
 NSaved=10 IEnMin=10 EnMin= -644.153924419512     IErMin=10 ErrMin= 1.48D-07
 ErrMax= 1.48D-07  0.00D+00 EMaxC= 1.00D-01 BMatC= 1.06D-11 BMatP= 5.80D-10
 IDIUse=1 WtCom= 1.00D+00 WtEn= 0.00D+00
 Coeff-Com: -0.338D-05 0.543D-05 0.105D-03 0.157D-03 0.491D-03-0.299D-02
 Coeff-Com: -0.131D-01-0.166D-01 0.233D-01 0.101D+01
 Coeff:     -0.338D-05 0.543D-05 0.105D-03 0.157D-03 0.491D-03-0.299D-02
 Coeff:     -0.131D-01-0.166D-01 0.233D-01 0.101D+01
 Gap=     0.362 Goal=   None    Shift=    0.000
 RMSDP=4.44D-08 MaxDP=3.09D-06 DE=-7.20D-10 OVMax= 1.72D-06

 Cycle  11  Pass 1  IDiag  1:
 RMSU=  2.08D-08    CP:  1.01D+00  7.66D-01  9.60D-01  6.40D-01  1.11D+00
                    CP:  9.29D-01  1.10D+00  8.54D-01  1.15D+00  1.09D+00
 E= -644.153924419511     Delta-E=        0.000000000001 Rises=F Damp=F
 DIIS: error= 5.61D-08 at cycle  11 NSaved=  11.
 NSaved=11 IEnMin=10 EnMin= -644.153924419512     IErMin=11 ErrMin= 5.61D-08
 ErrMax= 5.61D-08  0.00D+00 EMaxC= 1.00D-01 BMatC= 1.73D-12 BMatP= 1.06D-11
 IDIUse=1 WtCom= 1.00D+00 WtEn= 0.00D+00
 Coeff-Com:  0.516D-06-0.107D-05 0.139D-04 0.153D-04 0.135D-03 0.159D-04
 Coeff-Com: -0.157D-02-0.648D-02-0.425D-01 0.267D+00 0.784D+00
 Coeff:      0.516D-06-0.107D-05 0.139D-04 0.153D-04 0.135D-03 0.159D-04
 Coeff:     -0.157D-02-0.648D-02-0.425D-01 0.267D+00 0.784D+00
 Gap=     0.362 Goal=   None    Shift=    0.000
 RMSDP=9.39D-09 MaxDP=3.55D-07 DE= 9.09D-13 OVMax= 3.86D-07

 SCF Done:  E(RM062X) =  -644.153924420     A.U. after   11 cycles
            NFock= 11  Conv=0.94D-08     -V/T= 2.0025
 KE= 6.425355450005D+02 PE=-2.087896211736D+03 EE= 5.211197475831D+02
[...]
 Integral buffers will be    131072 words long.
 Raffenetti 2 integral format.
 Two-electron integral symmetry is turned off.
 R6Disp:  Grimme-D3 Dispersion energy=       -0.0000466012 Hartrees.
 Nuclear repulsion after empirical dispersion term =      280.0869947333 Hartrees.
 No density basis found on file   718.
 Leave Link  301 at Fri Feb 17 23:47:36 2023, MaxMem=  6710886400 cpu:               1.3 elap:               0.1
 (Enter /data0/home/software/g16/l302.exe)
 NPDir=0 NMtPBC=     1 NCelOv=     1 NCel=       1 NClECP=     1 NCelD=      1
         NCelK=      1 NCelE2=     1 NClLst=     1 CellRange=     0.0.
 One-electron integrals computed using PRISM.
 NBasis=   161 RedAO= T EigKep=  5.12D-04  NBF=   161
 NBsUse=   161 1.00D-06 EigRej= -1.00D+00 NBFU=   161
 Precomputing XC quadrature grid using
 IXCGrd= 4 IRadAn=           5 IRanWt=          -1 IRanGd=           0 AccXCQ= 0.00D+00.
 Generated NRdTot=       0 NPtTot=           0 NUsed=           0 NTot=          32
 NSgBfM=   171   171   171   171   171 MxSgAt=     8 MxSgA2=     8.
 Leave Link  302 at Fri Feb 17 23:47:36 2023, MaxMem=  6710886400 cpu:               2.9 elap:               0.1
 (Enter /data0/home/software/g16/l303.exe)
 DipDrv:  MaxL=1.
 Leave Link  303 at Fri Feb 17 23:47:36 2023, MaxMem=  6710886400 cpu:               0.5 elap:               0.0
 (Enter /data0/home/software/g16/l401.exe)
 ExpMin= 3.48D-02 ExpMax= 7.75D+04 ExpMxC= 2.65D+03 IAcc=3 IRadAn=         5 AccDes= 0.00D+00
 Harris functional with IExCor= 1009 and IRadAn=       5 diagonalized for initial guess.
 HarFok:  IExCor= 1009 AccDes= 0.00D+00 IRadAn=         5 IDoV= 1 UseB2=F ITyADJ=14
 ICtDFT=  3500011 ScaDFX=  1.000000  1.000000  1.000000  1.000000
 FoFCou: FMM=F IPFlag=           0 FMFlag=      100000 FMFlg1=           0
         NFxFlg=           0 DoJE=T BraDBF=F KetDBF=T FulRan=T
         wScrn=  0.000000 ICntrl=       500 IOpCl=  0 I1Cent=   200000004 NGrid=           0
         NMat0=    1 NMatS0=      1 NMatT0=    0 NMatD0=    1 NMtDS0=    0 NMtDT0=    0
 Symmetry not used in FoFCou.
 Harris En= -643.942441877574    
 JPrj=0 DoOrth=F DoCkMO=F.
 Leave Link  401 at Fri Feb 17 23:47:37 2023, MaxMem=  6710886400 cpu:               6.1 elap:               0.3
 (Enter /data0/home/software/g16/l502.exe)
 Keep R1 ints in memory in canonical form, NReq=108962347.
 FoFCou: FMM=F IPFlag=           0 FMFlag=           0 FMFlg1=           0
         NFxFlg=           0 DoJE=F BraDBF=F KetDBF=F FulRan=T
         wScrn=  0.000000 ICntrl=       600 IOpCl=  0 I1Cent=           0 NGrid=           0
         NMat0=    1 NMatS0=  13041 NMatT0=    0 NMatD0=    1 NMtDS0=    0 NMtDT0=    0
 Symmetry not used in FoFCou.
 Two-electron integral symmetry not used.
 Closed shell SCF:
 Using DIIS extrapolation, IDIIS=  1040.
 NGot=  6710886400 LenX=  6625781837 LenY=  6625752155
 Requested convergence on RMS density matrix=1.00D-08 within 128 cycles.
 Requested convergence on MAX density matrix=1.00D-06.
 Requested convergence on             energy=1.00D-06.
 No special actions if energy rises.

 Cycle   1  Pass 1  IDiag  1:
 E= -643.871208532372    
 DIIS: error= 3.81D-02 at cycle   1 NSaved=   1.
 NSaved= 1 IEnMin= 1 EnMin= -643.871208532372     IErMin= 1 ErrMin= 3.81D-02
 ErrMax= 3.81D-02  0.00D+00 EMaxC= 1.00D-01 BMatC= 5.02D-01 BMatP= 5.02D-01
 IDIUse=3 WtCom= 6.19D-01 WtEn= 3.81D-01
 Coeff-Com:  0.100D+01
 Coeff-En:   0.100D+01
 Coeff:      0.100D+01
 Gap=     0.313 Goal=   None    Shift=    0.000
 GapD=    0.313 DampG=1.000 DampE=0.500 DampFc=0.5000 IDamp=-1.
 Damping current iteration by 5.00D-01
 RMSDP=6.58D-03 MaxDP=1.42D-01              OVMax= 2.43D-01

 Cycle   2  Pass 1  IDiag  1:
 E= -643.987811297436     Delta-E=       -0.116602765064 Rises=F Damp=T
 DIIS: error= 1.03D-02 at cycle   2 NSaved=   2.
 NSaved= 2 IEnMin= 2 EnMin= -643.987811297436     IErMin= 2 ErrMin= 1.03D-02
 ErrMax= 1.03D-02  0.00D+00 EMaxC= 1.00D-01 BMatC= 2.55D-02 BMatP= 5.02D-01
 IDIUse=3 WtCom= 8.97D-01 WtEn= 1.03D-01
 Coeff-Com:  0.632D-01 0.937D+00
 Coeff-En:   0.188D+00 0.812D+00
 Coeff:      0.760D-01 0.924D+00
 Gap=     0.370 Goal=   None    Shift=    0.000
 RMSDP=1.43D-03 MaxDP=4.25D-02 DE=-1.17D-01 OVMax= 1.43D-01

 Cycle   3  Pass 1  IDiag  1:
 E= -644.146992491556     Delta-E=       -0.159181194120 Rises=F Damp=F
 DIIS: error= 6.02D-03 at cycle   3 NSaved=   3.
 NSaved= 3 IEnMin= 3 EnMin= -644.146992491556     IErMin= 3 ErrMin= 6.02D-03
 ErrMax= 6.02D-03  0.00D+00 EMaxC= 1.00D-01 BMatC= 8.70D-03 BMatP= 2.55D-02
 IDIUse=3 WtCom= 9.40D-01 WtEn= 6.02D-02
 Coeff-Com: -0.174D-01 0.323D+00 0.695D+00
 Coeff-En:   0.000D+00 0.000D+00 0.100D+01
 Coeff:     -0.164D-01 0.303D+00 0.713D+00
 Gap=     0.361 Goal=   None    Shift=    0.000
 RMSDP=6.21D-04 MaxDP=1.44D-02 DE=-1.59D-01 OVMax= 3.32D-02

 Cycle   4  Pass 1  IDiag  1:
 E= -644.150587533675     Delta-E=       -0.003595042120 Rises=F Damp=F
 DIIS: error= 3.42D-03 at cycle   4 NSaved=   4.
 NSaved= 4 IEnMin= 4 EnMin= -644.150587533675     IErMin= 4 ErrMin= 3.42D-03
 ErrMax= 3.42D-03  0.00D+00 EMaxC= 1.00D-01 BMatC= 3.76D-03 BMatP= 8.70D-03
 IDIUse=3 WtCom= 9.66D-01 WtEn= 3.42D-02
 Coeff-Com: -0.200D-01 0.470D-01 0.418D+00 0.555D+00
 Coeff-En:   0.000D+00 0.000D+00 0.305D+00 0.695D+00
 Coeff:     -0.193D-01 0.454D-01 0.414D+00 0.560D+00
 Gap=     0.367 Goal=   None    Shift=    0.000
 RMSDP=2.50D-04 MaxDP=6.20D-03 DE=-3.60D-03 OVMax= 1.14D-02

 Cycle   5  Pass 1  IDiag  1:
 E= -644.153089281709     Delta-E=       -0.002501748034 Rises=F Damp=F
 DIIS: error= 1.92D-04 at cycle   5 NSaved=   5.
 NSaved= 5 IEnMin= 5 EnMin= -644.153089281709     IErMin= 5 ErrMin= 1.92D-04
 ErrMax= 1.92D-04  0.00D+00 EMaxC= 1.00D-01 BMatC= 1.47D-05 BMatP= 3.76D-03
 IDIUse=3 WtCom= 9.98D-01 WtEn= 1.92D-03
 Coeff-Com: -0.236D-02 0.643D-03 0.669D-01 0.121D+00 0.813D+00
 Coeff-En:   0.000D+00 0.000D+00 0.000D+00 0.000D+00 0.100D+01
 Coeff:     -0.236D-02 0.642D-03 0.667D-01 0.121D+00 0.814D+00
 Gap=     0.365 Goal=   None    Shift=    0.000
 RMSDP=2.35D-05 MaxDP=9.17D-04 DE=-2.50D-03 OVMax= 7.60D-04

 Cycle   6  Pass 1  IDiag  1:
 E= -644.153099389265     Delta-E=       -0.000010107556 Rises=F Damp=F
 DIIS: error= 6.99D-05 at cycle   6 NSaved=   6.
 NSaved= 6 IEnMin= 6 EnMin= -644.153099389265     IErMin= 6 ErrMin= 6.99D-05
 ErrMax= 6.99D-05  0.00D+00 EMaxC= 1.00D-01 BMatC= 1.04D-06 BMatP= 1.47D-05
 IDIUse=1 WtCom= 1.00D+00 WtEn= 0.00D+00
 Coeff-Com:  0.849D-05-0.142D-02 0.380D-02 0.129D-01 0.220D+00 0.765D+00
 Coeff:      0.849D-05-0.142D-02 0.380D-02 0.129D-01 0.220D+00 0.765D+00
 Gap=     0.366 Goal=   None    Shift=    0.000
 RMSDP=8.77D-06 MaxDP=2.32D-04 DE=-1.01D-05 OVMax= 2.04D-04

 Cycle   7  Pass 1  IDiag  1:
 E= -644.153100170829     Delta-E=       -0.000000781564 Rises=F Damp=F
 DIIS: error= 2.23D-05 at cycle   7 NSaved=   7.
 NSaved= 7 IEnMin= 7 EnMin= -644.153100170829     IErMin= 7 ErrMin= 2.23D-05
 ErrMax= 2.23D-05  0.00D+00 EMaxC= 1.00D-01 BMatC= 1.51D-07 BMatP= 1.04D-06
 IDIUse=1 WtCom= 1.00D+00 WtEn= 0.00D+00
 Coeff-Com:  0.322D-03-0.571D-03-0.802D-02-0.119D-01-0.215D-01 0.255D+00
 Coeff-Com:  0.786D+00
 Coeff:      0.322D-03-0.571D-03-0.802D-02-0.119D-01-0.215D-01 0.255D+00
 Coeff:      0.786D+00
 Gap=     0.366 Goal=   None    Shift=    0.000
 RMSDP=2.79D-06 MaxDP=5.87D-05 DE=-7.82D-07 OVMax= 8.26D-05

 Cycle   8  Pass 1  IDiag  1:
 E= -644.153100271606     Delta-E=       -0.000000100777 Rises=F Damp=F
 DIIS: error= 1.10D-05 at cycle   8 NSaved=   8.
 NSaved= 8 IEnMin= 8 EnMin= -644.153100271606     IErMin= 8 ErrMin= 1.10D-05
 ErrMax= 1.10D-05  0.00D+00 EMaxC= 1.00D-01 BMatC= 3.32D-08 BMatP= 1.51D-07
 IDIUse=1 WtCom= 1.00D+00 WtEn= 0.00D+00
 Coeff-Com:  0.145D-03-0.190D-03-0.407D-02-0.621D-02-0.193D-01 0.805D-01
 Coeff-Com:  0.397D+00 0.552D+00
 Coeff:      0.145D-03-0.190D-03-0.407D-02-0.621D-02-0.193D-01 0.805D-01
 Coeff:      0.397D+00 0.552D+00
 Gap=     0.366 Goal=   None    Shift=    0.000
 RMSDP=7.88D-07 MaxDP=2.35D-05 DE=-1.01D-07 OVMax= 3.06D-05

 Cycle   9  Pass 1  IDiag  1:
 E= -644.153100294389     Delta-E=       -0.000000022783 Rises=F Damp=F
 DIIS: error= 1.12D-06 at cycle   9 NSaved=   9.
 NSaved= 9 IEnMin= 9 EnMin= -644.153100294389     IErMin= 9 ErrMin= 1.12D-06
 ErrMax= 1.12D-06  0.00D+00 EMaxC= 1.00D-01 BMatC= 5.88D-10 BMatP= 3.32D-08
 IDIUse=1 WtCom= 1.00D+00 WtEn= 0.00D+00
 Coeff-Com: -0.233D-04 0.442D-04 0.282D-03 0.526D-03-0.291D-03-0.176D-01
 Coeff-Com: -0.331D-01 0.611D-01 0.989D+00
 Coeff:     -0.233D-04 0.442D-04 0.282D-03 0.526D-03-0.291D-03-0.176D-01
 Coeff:     -0.331D-01 0.611D-01 0.989D+00
 Gap=     0.366 Goal=   None    Shift=    0.000
 RMSDP=2.78D-07 MaxDP=6.44D-06 DE=-2.28D-08 OVMax= 7.39D-06

 Cycle  10  Pass 1  IDiag  1:
 E= -644.153100295097     Delta-E=       -0.000000000708 Rises=F Damp=F
 DIIS: error= 2.05D-07 at cycle  10 NSaved=  10.
 NSaved=10 IEnMin=10 EnMin= -644.153100295097     IErMin=10 ErrMin= 2.05D-07
 ErrMax= 2.05D-07  0.00D+00 EMaxC= 1.00D-01 BMatC= 1.05D-11 BMatP= 5.88D-10
 IDIUse=1 WtCom= 1.00D+00 WtEn= 0.00D+00
 Coeff-Com: -0.265D-05 0.409D-05 0.103D-03 0.151D-03 0.498D-03-0.285D-02
 Coeff-Com: -0.130D-01-0.167D-01 0.174D-01 0.101D+01
 Coeff:     -0.265D-05 0.409D-05 0.103D-03 0.151D-03 0.498D-03-0.285D-02
 Coeff:     -0.130D-01-0.167D-01 0.174D-01 0.101D+01
 Gap=     0.366 Goal=   None    Shift=    0.000
 RMSDP=5.30D-08 MaxDP=8.19D-07 DE=-7.08D-10 OVMax= 1.74D-06

 Cycle  11  Pass 1  IDiag  1:
 E= -644.153100295130     Delta-E=       -0.000000000033 Rises=F Damp=F
 DIIS: error= 7.56D-08 at cycle  11 NSaved=  11.
 NSaved=11 IEnMin=11 EnMin= -644.153100295130     IErMin=11 ErrMin= 7.56D-08
 ErrMax= 7.56D-08  0.00D+00 EMaxC= 1.00D-01 BMatC= 1.76D-12 BMatP= 1.05D-11
 IDIUse=1 WtCom= 1.00D+00 WtEn= 0.00D+00
 Coeff-Com:  0.564D-06-0.123D-05 0.158D-04 0.171D-04 0.146D-03-0.193D-04
 Coeff-Com: -0.176D-02-0.680D-02-0.427D-01 0.277D+00 0.774D+00
 Coeff:      0.564D-06-0.123D-05 0.158D-04 0.171D-04 0.146D-03-0.193D-04
 Coeff:     -0.176D-02-0.680D-02-0.427D-01 0.277D+00 0.774D+00
 Gap=     0.366 Goal=   None    Shift=    0.000
 RMSDP=1.22D-08 MaxDP=2.23D-07 DE=-3.32D-11 OVMax= 3.86D-07

 Cycle  12  Pass 1  IDiag  1:
 E= -644.153100295133     Delta-E=       -0.000000000003 Rises=F Damp=F
 DIIS: error= 4.21D-08 at cycle  12 NSaved=  12.
 NSaved=12 IEnMin=12 EnMin= -644.153100295133     IErMin=12 ErrMin= 4.21D-08
 ErrMax= 4.21D-08  0.00D+00 EMaxC= 1.00D-01 BMatC= 6.08D-13 BMatP= 1.76D-12
 IDIUse=1 WtCom= 1.00D+00 WtEn= 0.00D+00
 Coeff-Com:  0.706D-06-0.127D-05-0.633D-05-0.125D-04 0.410D-05 0.409D-03
 Coeff-Com:  0.104D-02-0.109D-02-0.259D-01 0.121D-02 0.395D+00 0.629D+00
 Coeff:      0.706D-06-0.127D-05-0.633D-05-0.125D-04 0.410D-05 0.409D-03
 Coeff:      0.104D-02-0.109D-02-0.259D-01 0.121D-02 0.395D+00 0.629D+00
 Gap=     0.366 Goal=   None    Shift=    0.000
 RMSDP=4.65D-09 MaxDP=1.02D-07 DE=-2.73D-12 OVMax= 1.92D-07

 SCF Done:  E(RM062X) =  -644.153100295     A.U. after   12 cycles
            NFock= 12  Conv=0.46D-08     -V/T= 2.0025
 KE= 6.425413750230D+02 PE=-2.087899014819D+03 EE= 5.211175447672D+02
 Leave Link  502 at Fri Feb 17 23:47:42 2023, MaxMem=  6710886400 cpu:              99.3 elap:               5.4
 (Enter /data0/home/software/g16/l601.exe)
 Copying SCF densities to generalized density rwf, IOpCl= 0 IROHF=0.

 **********************************************************************

            Population analysis using the SCF density.

 **********************************************************************

 Alpha  occ. eigenvalues --  -78.16844 -19.68972 -19.67901 -19.67447 -19.59240
 Alpha  occ. eigenvalues --   -6.97627  -5.09527  -5.09501  -5.09342  -1.24206
 Alpha  occ. eigenvalues --   -1.16781  -1.16244  -1.09619  -0.72828  -0.65135
 Alpha  occ. eigenvalues --   -0.63634  -0.56847  -0.54840  -0.51351  -0.48653
 Alpha  occ. eigenvalues --   -0.47470  -0.46140  -0.42891  -0.39034  -0.38432
 Alpha virt. eigenvalues --   -0.01854   0.01391   0.01933   0.04618   0.09646
 Alpha virt. eigenvalues --    0.10079   0.11830   0.14300   0.15447   0.17065
 Alpha virt. eigenvalues --    0.17584   0.18316   0.19219   0.19868   0.21580
 Alpha virt. eigenvalues --    0.21900   0.23817   0.25157   0.25970   0.27387
 Alpha virt. eigenvalues --    0.28514   0.29113   0.30113   0.30608   0.33514
 Alpha virt. eigenvalues --    0.34753   0.36088   0.37928   0.40849   0.43210
 Alpha virt. eigenvalues --    0.44659   0.48081   0.52803   0.56310   0.56782
 Alpha virt. eigenvalues --    0.74439   0.76561   0.77084   0.85885   0.96740
 Alpha virt. eigenvalues --    0.99372   1.01666   1.06002   1.08387   1.11587
 Alpha virt. eigenvalues --    1.13762   1.15011   1.18225   1.19130   1.19778
 Alpha virt. eigenvalues --    1.21771   1.23583   1.25111   1.26568   1.33862
 Alpha virt. eigenvalues --    1.37892   1.42028   1.44164   1.46702   1.50507
 Alpha virt. eigenvalues --    1.52546   1.56088   1.60194   1.63785   1.64559
 Alpha virt. eigenvalues --    1.65292   1.69724   1.71381   1.75063   1.80148
 Alpha virt. eigenvalues --    1.83980   1.84904   1.86911   1.90432   1.96125
 Alpha virt. eigenvalues --    2.01589   2.04505   2.05879   2.11804   2.14557
 Alpha virt. eigenvalues --    2.20836   2.23051   2.27074   2.38441   2.45861
 Alpha virt. eigenvalues --    2.49482   2.57400   2.60630   2.62682   2.69440
 Alpha virt. eigenvalues --    2.74604   2.82620   2.84237   2.89552   2.93694
 Alpha virt. eigenvalues --    5.02363   5.05365   5.06916   5.07927   5.09102
 Alpha virt. eigenvalues --    5.12427   5.19391   5.21826   5.34972   5.44959
 Alpha virt. eigenvalues --    5.51817   5.53876   6.72300   6.73918   6.76188
 Alpha virt. eigenvalues --    6.77077   6.77902   6.79625   6.81442   6.86158
 Alpha virt. eigenvalues --    6.89707   6.94201   6.95492   6.97074   7.00000
 Alpha virt. eigenvalues --    7.05787   7.09651   7.21400   7.25783   7.28335
 Alpha virt. eigenvalues --    7.32284   7.38974   7.64162  14.22323  14.23512
 Alpha virt. eigenvalues --   14.36196  49.98415  50.00295  50.01495  50.08859
 Alpha virt. eigenvalues --  163.85489
          Condensed to atoms (all electrons):
              12         13         14         15         16         17
    12  P   12.470491   0.527845   0.292749   0.003065   0.249722  -0.004557
    13  O    0.527845   8.174596  -0.024032  -0.016146  -0.034304  -0.014283
    14  O    0.292749  -0.024032   8.004256   0.273578   0.010255  -0.007378
    15  H    0.003065  -0.016146   0.273578   0.403193   0.004356   0.000796
    16  O    0.249722  -0.034304   0.010255   0.004356   8.070066   0.275051
    17  H   -0.004557  -0.014283  -0.007378   0.000796   0.275051   0.409974
    18  O    0.202985  -0.011797   0.009190  -0.003453  -0.007800   0.003641
    19  H    0.039107   0.003713  -0.012058   0.000801  -0.015340   0.000855
              18         19
    12  P    0.202985   0.039107
    13  O   -0.011797   0.003713
    14  O    0.009190  -0.012058
    15  H   -0.003453   0.000801
    16  O   -0.007800  -0.015340
    17  H    0.003641   0.000855
    18  O    8.062856   0.236384
    19  H    0.236384   0.438673
 Mulliken charges:
               1
     1  C    0.000000
     2  C    0.000000
     3  C    0.000000
     4  C    0.000000
     5  C    0.000000
     6  N    0.000000
     7  H    0.000000
     8  H    0.000000
     9  H    0.000000
    10  H    0.000000
    11  H    0.000000
    12  P    1.218593
    13  O   -0.605593
    14  O   -0.546560
    15  H    0.333808
    16  O   -0.552007
    17  H    0.335899
    18  O   -0.492006
    19  H    0.307864
 Sum of Mulliken charges =  -0.00000
 Mulliken charges with hydrogens summed into heavy atoms:
               1
     1  C    0.000000
     2  C    0.000000
     3  C    0.000000
     4  C    0.000000
     5  C    0.000000
     6  N    0.000000
    12  P    1.218593
    13  O   -0.605593
    14  O   -0.212752
    16  O   -0.216107
    18  O   -0.184141
         Mulliken charges condensed to fragments:
      1      0.000000
      2     -0.000000
 Electronic spatial extent (au):  <R**2>=          86033.0412
 Charge=             -0.0000 electrons
 Dipole moment (field-independent basis, Debye):
    X=             -1.7370    Y=              2.5996    Z=             -0.9706  Tot=              3.2737
 Quadrupole moment (field-independent basis, Debye-Ang):
   XX=            -70.8770   YY=             37.4729   ZZ=            -54.1294
   XY=              6.5440   XZ=            -34.0077   YZ=             19.0199
 Traceless Quadrupole moment (field-independent basis, Debye-Ang):
   XX=            -41.6992   YY=             66.6508   ZZ=            -24.9516
   XY=              6.5440   XZ=            -34.0077   YZ=             19.0199
 Octapole moment (field-independent basis, Debye-Ang**2):
  XXX=          -1708.5196  YYY=            -23.0255  ZZZ=          -1536.7797  XYY=            151.7258
  XXY=           -651.4897  XXZ=          -1013.0977  XZZ=           -907.0774  YZZ=           -380.0582
  YYZ=            301.9262  XYZ=            -93.4435
 Hexadecapole moment (field-independent basis, Debye-Ang**3):
 XXXX=         -33106.6275 YYYY=         -17073.8021 ZZZZ=         -33826.0685 XXXY=         -20413.6570
 XXXZ=         -22398.7418 YYYX=          -2949.7885 YYYZ=          -1983.8315 ZZZX=         -21045.3930
 ZZZY=         -17509.2711 XXYY=          -8325.6464 XXZZ=         -17921.8830 YYZZ=          -5132.7505
 XXYZ=          -9984.7426 YYXZ=           -385.2400 ZZXY=          -8292.6750
 N-N= 2.800869947333D+02 E-N=-2.087899017030D+03  KE= 6.425413750230D+02
 No NMR shielding tensors so no spin-rotation constants.
 Leave Link  601 at Fri Feb 17 23:47:42 2023, MaxMem=  6710886400 cpu:               1.9 elap:               0.1
 (Enter /data0/home/software/g16/l122.exe)
 CPIOFr:  IOpCl= 0 IRwI=-1 IRwCP=  731 ICalc=  4 LCPTot=      192217 Len1MO=      505607 IndFrg=     2720252
 Restoring MOs from calculation   1 to rwf.
 CPIOFr:  IOpCl= 0 IRwI=-2 IRwCP=  731 ICalc=  0 LCPTot=      192217 Len1MO=      505607 IndFrg=      697824
 Counterpoise corrected energy =    -892.424829213862
                   BSSE energy =       0.001026327321
              sum of fragments =    -892.397818114354
           complexation energy =     -17.59 kcal/mole (raw)
           complexation energy =     -16.95 kcal/mole (corrected)
 Leave Link  122 at Fri Feb 17 23:47:42 2023, MaxMem=  6710886400 cpu:               0.2 elap:               0.0
 (Enter /data0/home/software/g16/l9999.exe)
 1\1\GINC-LOCALHOST\SP\RM062X\6-311+G(2d,p)\C5H8N1O4P1\WUHANYU\17-Feb-2
 023\0\\#p M062X/6-311+G(2d,p) nosymm em=GD3 counterpoise=2\\Title Card
  Required\\0,1\C,0,7.985942,12.722765,14.013287\C,0,6.949082,11.832562
 ,14.324303\C,0,5.656219,12.332715,14.45765\C,0,5.429465,13.696686,14.2
 77371\C,0,6.517722,14.52016,13.967808\N,0,7.769928,14.040455,13.842294
 \H,0,4.829188,11.665702,14.699362\H,0,9.026037,12.381632,13.891924\H,0
 ,7.156161,10.774712,14.455931\H,0,4.43172,14.113685,14.373329\H,0,6.40
 1533,15.598899,13.810883\P,0,10.87657,14.651748,11.979689\O,0,10.92749
 7,13.196358,12.107827\O,0,10.220757,15.206617,10.632632\H,0,10.346293,
 14.498131,9.890996\O,0,10.122449,15.506035,13.077668\H,0,9.196895,15.0
 27331,13.29028\O,0,12.3372,15.289483,12.005871\H,0,12.242368,16.313086
 ,12.018911\\Version=ES64L-G16RevA.03\HF=-644.1531003\RMSD=4.650e-09\Di
 pole=-1.9541441,0.0709361,0.1066877\Quadrupole=-46.8474278,23.4301149,
 23.4173128,-43.940168,-51.0249496,1.3276846\PG=C01 [X(C5H8N1O4P1)]\\@


 KNIGHT- SIRE, I'VE JUST RETURNED FROM THE FRONT
 KING-   HOW GOES THE BATTLE                    
 KNIGHT- THE SITUATION IS QUITE FLUID           
 KING-   WHAT DOES *THAT* MEAN                  
 KNIGHT- WE'RE UP THE CREEK                     
                THE WIZARD OF ID                
 Job cpu time:       0 days  0 hours 37 minutes 37.8 seconds.
 Elapsed time:       0 days  0 hours  1 minutes 38.9 seconds.
 File lengths (MBytes):  RWF=     98 Int=      0 D2E=      0 Chk=     29 Scr=      1
 Normal termination of Gaussian 16 at Fri Feb 17 23:47:42 2023.
