 Entering Gaussian System, Link 0=g16
 Initial command:
 /data0/home/software/g16/l1.exe "/data0/home/software/g16/scratch/Gau-363174.inp" -scrdir="/data0/home/software/g16/scratch/"
 Default is to use a total of  22 processors:
                               22 via shared-memory
                                1 via Linda
 Entering Link 1 = /data0/home/software/g16/l1.exe PID=    363175.
  
 Copyright (c) 1988,1990,1992,1993,1995,1998,2003,2009,2016,
            Gaussian, Inc.  All Rights Reserved.
  
 This is part of the Gaussian(R) 16 program.  It is based on
 the Gaussian(R) 09 system (copyright 2009, Gaussian, Inc.),
 the Gaussian(R) 03 system (copyright 2003, Gaussian, Inc.),
 the Gaussian(R) 98 system (copyright 1998, Gaussian, Inc.),
 the Gaussian(R) 94 system (copyright 1995, Gaussian, Inc.),
 the Gaussian 92(TM) system (copyright 1992, Gaussian, Inc.),
 the Gaussian 90(TM) system (copyright 1990, Gaussian, Inc.),
 the Gaussian 88(TM) system (copyright 1988, Gaussian, Inc.),
 the Gaussian 86(TM) system (copyright 1986, Carnegie Mellon
 University), and the Gaussian 82(TM) system (copyright 1983,
 Carnegie Mellon University). Gaussian is a federally registered
 trademark of Gaussian, Inc.
  
 This software contains proprietary and confidential information,
 including trade secrets, belonging to Gaussian, Inc.
  
 This software is provided under written license and may be
 used, copied, transmitted, or stored only in accord with that
 written license.
  
 The following legend is applicable only to US Government
 contracts under FAR:
  
                    RESTRICTED RIGHTS LEGEND
  
 Use, reproduction and disclosure by the US Government is
 subject to restrictions as set forth in subparagraphs (a)
 and (c) of the Commercial Computer Software - Restricted
 Rights clause in FAR 52.227-19.
  
 Gaussian, Inc.
 340 Quinnipiac St., Bldg. 40, Wallingford CT 06492
  
  
 ---------------------------------------------------------------
 Warning -- This program may not be used in any manner that
 competes with the business of Gaussian, Inc. or will provide
 assistance to any competitor of Gaussian, Inc.  The licensee
 of this program is prohibited from giving any competitor of
 Gaussian, Inc. access to this program.  By using this program,
 the user acknowledges that Gaussian, Inc. is engaged in the
 business of creating and licensing software in the field of
 computational chemistry and represents and warrants to the
 licensee that it is not a competitor of Gaussian, Inc. and that
 it will not use this program in any manner prohibited above.
 ---------------------------------------------------------------
  

 Cite this work as:
 Gaussian 16, Revision A.03,
 M. J. Frisch, G. W. Trucks, H. B. Schlegel, G. E. Scuseria, 
 M. A. Robb, J. R. Cheeseman, G. Scalmani, V. Barone, 
 G. A. Petersson, H. Nakatsuji, X. Li, M. Caricato, A. V. Marenich, 
 J. Bloino, B. G. Janesko, R. Gomperts, B. Mennucci, H. P. Hratchian, 
 J. V. Ortiz, A. F. Izmaylov, J. L. Sonnenberg, D. Williams-Young, 
 F. Ding, F. Lipparini, F. Egidi, J. Goings, B. Peng, A. Petrone, 
 T. Henderson, D. Ranasinghe, V. G. Zakrzewski, J. Gao, N. Rega, 
 G. Zheng, W. Liang, M. Hada, M. Ehara, K. Toyota, R. Fukuda, 
 J. Hasegawa, M. Ishida, T. Nakajima, Y. Honda, O. Kitao, H. Nakai, 
 T. Vreven, K. Throssell, J. A. Montgomery, Jr., J. E. Peralta, 
 F. Ogliaro, M. J. Bearpark, J. J. Heyd, E. N. Brothers, K. N. Kudin, 
 V. N. Staroverov, T. A. Keith, R. Kobayashi, J. Normand, 
 K. Raghavachari, A. P. Rendell, J. C. Burant, S. S. Iyengar, 
 J. Tomasi, M. Cossi, J. M. Millam, M. Klene, C. Adamo, R. Cammi, 
 J. W. Ochterski, R. L. Martin, K. Morokuma, O. Farkas, 
 J. B. Foresman, and D. J. Fox, Gaussian, Inc., Wallingford CT, 2016.
 
 ******************************************
 Gaussian 16:  ES64L-G16RevA.03 25-Dec-2016
                20-Feb-2023 
 ******************************************
 %nproc=24
 Will use up to   24 processors via shared memory.
 %mem=50GB
 ---------------------------------------------------
 #p M062X/6-311+G(2d,p) nosymm em=GD3 counterpoise=2
 ---------------------------------------------------
 1/38=1,62=2,172=1/1;
 2/12=2,15=1,17=6,18=5,40=1/2;
 1/38=1,53=2,62=2,63=1/22;
 3/5=4,6=6,7=112,11=2,25=1,30=1,74=-55,124=31/1,2,3;
 4//1;
 5/5=2,38=5/2;
 6/7=2,8=2,9=2,10=2,28=1/1;
 1/53=2,62=2,63=1/22;
 3/5=7,6=11,7=112,11=2,25=1,30=1,74=-55,82=7,124=31/1,2,3;
 4//1;
 5/5=2,38=5/2;
 6/7=2,8=2,9=2,10=2,28=1/1;
 1/53=2,62=2,63=1/22(-4);
 99/5=1,9=1/99;
 Leave Link    1 at Mon Feb 20 01:22:00 2023, MaxMem=  6710886400 cpu:               0.7 elap:               0.0
 (Enter /data0/home/software/g16/l101.exe)
 -------------------
 Title Card Required
 -------------------
 Symbolic Z-matrix:
 Charge =  0 Multiplicity = 1 in supermolecule
 Charge =  0 Multiplicity = 1 in fragment      1.
 Charge =  0 Multiplicity = 1 in fragment      2.
 C                     10.39885   9.6639    11.86697    
 H                     11.34178   9.46478   11.30901    
 H                     10.66204   9.95254   12.89288    
 H                     9.83914   8.70759   11.90626    
 C                     8.39509   11.06436   12.0184    
 H                     7.75911   11.81659   11.52088    
 H                     7.773     10.15931   12.18524    
 H                     8.68964   11.45921   13.00246    
 C                     10.44874   11.9535   11.01435    
 H                     9.8403    12.84392   10.75392    
 H                     11.00897   12.18758   11.93021    
 H                     11.18556   11.81252   10.19174    
 C                     9.15337   10.18994   9.83404    
 H                     8.43244   9.35684   10.00129    
 H                     10.05558   9.72374   9.3605     
 C                     8.54133   11.21878   8.88044    
 H                     9.27197   12.01955   8.63007    
 H                     7.6704    11.72812   9.32821    
 C                     8.1239    10.50702   7.58848    
 H                     7.82077   11.2403   6.81914    
 H                     7.25396   9.84419   7.7545     
 N                     9.5932    10.73426   11.17915    
 C                     9.31659   9.69261   7.07607    
 O                     10.21489   10.28656   6.4585     
 O                     9.34362   8.47628   7.38501    
 P                     12.74805   8.79265   8.23733    
 O                     12.56458   9.92173   9.16071    
 O                     14.17187   8.12024   8.45264    
 H                     14.24093   7.33645   7.7794     
 O                     11.72712   7.59615   8.46561    
 H                     10.82158   7.82884   7.97304    
 O                     12.70255   9.14065   6.69383    
 H                     11.73977   9.55435   6.47838    
 
 ITRead=  0  0  0  0  0  0  0  0  0  0  0  0  0  0  0  0  0  0  0  0
 ITRead=  0  0  0  0  0  0  0  0  0  0  0  0  0
 MicOpt= -1 -1 -1 -1 -1 -1 -1 -1 -1 -1 -1 -1 -1 -1 -1 -1 -1 -1 -1 -1
 MicOpt= -1 -1 -1 -1 -1 -1 -1 -1 -1 -1 -1 -1 -1
 NAtoms=     33 NQM=       33 NQMF=       0 NMMI=      0 NMMIF=      0
                NMic=       0 NMicF=      0.
                    Isotopes and Nuclear Properties:
 (Nuclear quadrupole moments (NQMom) in fm**2, nuclear magnetic moments (NMagM)
  in nuclear magnetons)

  Atom         1           2           3           4           5           6           7           8           9          10
 IAtWgt=          12           1           1           1          12           1           1           1          12           1
 AtmWgt=  12.0000000   1.0078250   1.0078250   1.0078250  12.0000000   1.0078250   1.0078250   1.0078250  12.0000000   1.0078250
 NucSpn=           0           1           1           1           0           1           1           1           0           1
 AtZEff=  -0.0000000  -0.0000000  -0.0000000  -0.0000000  -0.0000000  -0.0000000  -0.0000000  -0.0000000  -0.0000000  -0.0000000
 NQMom=    0.0000000   0.0000000   0.0000000   0.0000000   0.0000000   0.0000000   0.0000000   0.0000000   0.0000000   0.0000000
 NMagM=    0.0000000   2.7928460   2.7928460   2.7928460   0.0000000   2.7928460   2.7928460   2.7928460   0.0000000   2.7928460
 AtZNuc=   6.0000000   1.0000000   1.0000000   1.0000000   6.0000000   1.0000000   1.0000000   1.0000000   6.0000000   1.0000000

  Atom        11          12          13          14          15          16          17          18          19          20
 IAtWgt=           1           1          12           1           1          12           1           1          12           1
 AtmWgt=   1.0078250   1.0078250  12.0000000   1.0078250   1.0078250  12.0000000   1.0078250   1.0078250  12.0000000   1.0078250
 NucSpn=           1           1           0           1           1           0           1           1           0           1
 AtZEff=  -0.0000000  -0.0000000  -0.0000000  -0.0000000  -0.0000000  -0.0000000  -0.0000000  -0.0000000  -0.0000000  -0.0000000
 NQMom=    0.0000000   0.0000000   0.0000000   0.0000000   0.0000000   0.0000000   0.0000000   0.0000000   0.0000000   0.0000000
 NMagM=    2.7928460   2.7928460   0.0000000   2.7928460   2.7928460   0.0000000   2.7928460   2.7928460   0.0000000   2.7928460
 AtZNuc=   1.0000000   1.0000000   6.0000000   1.0000000   1.0000000   6.0000000   1.0000000   1.0000000   6.0000000   1.0000000

  Atom        21          22          23          24          25          26          27          28          29          30
 IAtWgt=           1          14          12          16          16          31          16          16           1          16
 AtmWgt=   1.0078250  14.0030740  12.0000000  15.9949146  15.9949146  30.9737634  15.9949146  15.9949146   1.0078250  15.9949146
 NucSpn=           1           2           0           0           0           1           0           0           1           0
 AtZEff=  -0.0000000  -0.0000000  -0.0000000  -0.0000000  -0.0000000  -0.0000000  -0.0000000  -0.0000000  -0.0000000  -0.0000000
 NQMom=    0.0000000   2.0440000   0.0000000   0.0000000   0.0000000   0.0000000   0.0000000   0.0000000   0.0000000   0.0000000
 NMagM=    2.7928460   0.4037610   0.0000000   0.0000000   0.0000000   1.1316000   0.0000000   0.0000000   2.7928460   0.0000000
 AtZNuc=   1.0000000   7.0000000   6.0000000   8.0000000   8.0000000  15.0000000   8.0000000   8.0000000   1.0000000   8.0000000

  Atom        31          32          33
 IAtWgt=           1          16           1
 AtmWgt=   1.0078250  15.9949146   1.0078250
 NucSpn=           1           0           1
 AtZEff=  -0.0000000  -0.0000000  -0.0000000
 NQMom=    0.0000000   0.0000000   0.0000000
 NMagM=    2.7928460   0.0000000   2.7928460
 AtZNuc=   1.0000000   8.0000000   1.0000000
 Leave Link  101 at Mon Feb 20 01:22:00 2023, MaxMem=  6710886400 cpu:               2.2 elap:               0.1
 (Enter /data0/home/software/g16/l202.exe)
                          Input orientation:                          
 ---------------------------------------------------------------------
 Center     Atomic      Atomic             Coordinates (Angstroms)
 Number     Number       Type             X           Y           Z
 ---------------------------------------------------------------------
      1          6           0       10.398852    9.663905   11.866971
      2          1           0       11.341780    9.464781   11.309012
      3          1           0       10.662036    9.952543   12.892875
      4          1           0        9.839135    8.707591   11.906264
      5          6           0        8.395089   11.064359   12.018397
      6          1           0        7.759114   11.816586   11.520879
      7          1           0        7.773002   10.159306   12.185243
      8          1           0        8.689639   11.459210   13.002461
      9          6           0       10.448735   11.953498   11.014350
     10          1           0        9.840296   12.843915   10.753923
     11          1           0       11.008968   12.187578   11.930211
     12          1           0       11.185560   11.812520   10.191740
     13          6           0        9.153373   10.189935    9.834037
     14          1           0        8.432440    9.356841   10.001289
     15          1           0       10.055576    9.723737    9.360501
     16          6           0        8.541331   11.218783    8.880438
     17          1           0        9.271969   12.019552    8.630067
     18          1           0        7.670397   11.728117    9.328206
     19          6           0        8.123897   10.507023    7.588481
     20          1           0        7.820769   11.240302    6.819144
     21          1           0        7.253963    9.844194    7.754497
     22          7           0        9.593202   10.734258   11.179150
     23          6           0        9.316587    9.692607    7.076068
     24          8           0       10.214891   10.286564    6.458500
     25          8           0        9.343624    8.476280    7.385010
     26         15           0       12.748051    8.792650    8.237331
     27          8           0       12.564578    9.921727    9.160709
     28          8           0       14.171871    8.120238    8.452644
     29          1           0       14.240930    7.336449    7.779402
     30          8           0       11.727118    7.596153    8.465613
     31          1           0       10.821583    7.828835    7.973039
     32          8           0       12.702548    9.140649    6.693832
     33          1           0       11.739772    9.554351    6.478378
 ---------------------------------------------------------------------
                    Distance matrix (angstroms):
                    1          2          3          4          5
     1  C    0.000000
     2  H    1.113590   0.000000
     3  H    1.097751   1.791253   0.000000
     4  H    1.108767   1.785494   1.788987   0.000000
     5  C    2.449340   3.427078   2.672058   2.766261   0.000000
     6  H    3.423745   4.290847   3.712679   3.760433   1.103555
     7  H    2.691061   3.739829   2.981612   2.540514   1.110833
     8  H    2.726512   3.725502   2.484432   3.177168   1.100477
     9  C    2.443704   2.660464   2.752848   3.420970   2.452782
    10  H    3.415161   3.739134   3.689228   4.293841   2.618079
    11  H    2.597146   2.812521   2.458143   3.671429   2.846359
    12  H    2.835816   2.604723   3.321103   3.793816   3.418062
    13  C    2.441464   2.736882   3.418905   2.638511   2.472052
    14  H    2.727972   3.191559   3.699625   2.455452   2.643055
    15  H    2.530575   2.349058   3.591352   2.749602   3.408650
    16  C    3.845440   4.100855   4.711730   4.140773   3.145158
    17  H    4.158904   4.241193   4.937241   4.692998   3.627960
    18  H    4.260372   4.746086   4.980907   4.524752   2.864067
    19  C    4.918510   5.028259   5.906454   4.982293   4.473067
    20  H    5.883205   5.975693   6.827981   6.030524   5.233835
    21  H    5.180277   5.430357   6.166817   5.021170   4.579499
    22  N    1.505930   2.164708   2.165719   2.167154   1.499592
    23  C    4.911708   4.697992   5.976039   4.957228   5.211284
    24  O    5.447302   5.047046   6.458536   5.684407   5.901618
    25  O    4.755201   4.513043   5.852704   4.554204   5.391303
    26  P    4.410454   3.444500   5.231721   4.682958   6.197209
    27  O    3.475729   2.513810   4.189234   4.054656   5.182338
    28  O    5.317538   4.239817   5.949112   5.571811   7.399571
    29  H    6.073453   5.039148   6.767572   6.187634   8.126515
    30  O    4.196323   3.424204   5.127146   4.078953   5.979393
    31  H    4.325377   3.751752   5.361005   4.148213   5.720263
    32  O    5.687018   4.822514   6.576549   5.962895   7.113779
    33  H    5.554008   4.847829   6.516582   5.813034   6.645212
                    6          7          8          9         10
     6  H    0.000000
     7  H    1.785539   0.000000
     8  H    1.785687   1.788245   0.000000
     9  C    2.740324   3.427778   2.700245   0.000000
    10  H    2.444370   3.678248   2.880511   1.109443   0.000000
    11  H    3.296474   3.827585   2.656977   1.098843   1.783319
    12  H    3.675209   4.284008   3.775527   1.113316   1.785934
    13  C    2.726791   2.726634   3.444564   2.486213   2.891654
    14  H    2.968647   2.418360   3.673301   3.440111   3.835127
    15  H    3.784308   3.657736   4.259287   2.803859   3.423957
    16  C    2.818006   3.554512   4.131691   2.954924   2.799698
    17  H    3.269055   4.283304   4.446450   2.659689   2.348049
    18  H    2.196250   3.261036   3.822475   3.257766   2.825975
    19  C    4.160742   4.623230   5.526111   4.385629   4.292681
    20  H    4.737322   5.474107   6.247901   5.001461   4.704524
    21  H    4.281488   4.472159   5.675436   5.028158   4.968300
    22  N    2.156871   2.157758   2.160195   1.498547   2.166224
    23  C    5.166561   5.357624   6.215793   4.680112   4.871512
    24  O    5.830908   6.226926   6.820918   4.856863   5.013085
    25  O    5.547407   5.323689   6.393850   5.146302   5.538275
    26  P    6.694428   6.496528   6.803507   4.794752   5.585788
    27  O    5.679206   5.671283   5.669044   3.469996   4.301073
    28  O    8.012522   7.683464   7.867937   5.926041   6.809666
    29  H    8.722627   8.319498   8.665699   6.794319   7.651506
    30  O    6.549180   6.003369   6.688234   5.207377   6.027891
    31  H    6.153702   5.698035   6.558955   5.138232   5.817840
    32  O    7.409356   7.449408   7.828024   5.626604   6.196047
    33  H    6.811032   6.976356   7.449527   5.291288   5.719224
                   11         12         13         14         15
    11  H    0.000000
    12  H    1.787214   0.000000
    13  C    3.439150   2.624980   0.000000
    14  H    4.286293   3.694090   1.114344   0.000000
    15  H    3.685496   2.516115   1.120512   1.783197   0.000000
    16  C    4.040905   3.010645   1.530515   2.176004   2.181413
    17  H    3.733142   2.478612   2.193424   3.110480   2.533444
    18  H    4.257651   3.620661   2.195697   2.580058   3.115712
    19  C    5.477090   4.225525   2.490560   2.690680   2.735868
    20  H    6.097946   4.798297   3.459579   3.748015   3.708480
    21  H    6.085072   5.027118   2.837566   2.583485   3.231531
    22  N    2.163475   2.161766   1.516267   2.152209   2.131297
    23  C    5.714170   4.206483   2.807199   3.074308   2.401189
    24  O    5.846711   4.148231   3.539832   4.073435   2.960366
    25  O    6.099668   4.732965   2.995086   2.906985   2.442456
    26  P    5.309172   3.921825   4.174157   4.696207   3.062328
    27  O    3.901813   2.557306   3.487352   4.254437   2.524719
    28  O    6.216163   5.057218   5.601537   6.071948   4.509911
    29  H    7.155994   5.932105   6.184428   6.538908   5.071115
    30  O    5.796582   4.588088   3.901852   4.038963   2.849823
    31  H    5.890073   4.574370   3.438173   3.486632   2.470318
    32  O    6.290600   4.655696   4.853713   5.405537   3.802312
    33  H    6.098397   4.381271   4.284142   4.836151   3.342430
                   16         17         18         19         20
    16  C    0.000000
    17  H    1.112541   0.000000
    18  H    1.103831   1.771261   0.000000
    19  C    1.532973   2.165806   2.173333   0.000000
    20  H    2.183714   2.447990   2.560462   1.105199   0.000000
    21  H    2.194209   3.093728   2.489808   1.106205   1.773491
    22  N    2.573961   2.872803   2.847969   3.886309   4.733630
    23  C    2.487164   2.798495   3.453313   1.532433   2.167681
    24  O    3.087980   2.933948   4.097284   2.386989   2.602211
    25  O    3.225105   3.756338   4.141273   2.377615   3.206105
    26  P    4.898592   4.759231   5.965697   4.974222   5.681581
    27  O    4.236440   3.940016   5.219589   4.747012   5.452090
    28  O    6.441038   6.264596   7.486826   6.559078   7.262205
    29  H    6.983568   6.880818   8.053412   6.892538   7.575000
    30  O    4.841980   5.061745   5.854415   4.714417   5.590192
    31  H    4.185053   4.516093   5.193347   3.820744   4.687693
    32  O    5.139612   4.879135   6.241591   4.861216   5.315638
    33  H    4.332465   4.098418   5.422784   3.900572   4.279852
                   21         22         23         24         25
    21  H    0.000000
    22  N    4.241757   0.000000
    23  C    2.176617   4.242268   0.000000
    24  O    3.262268   4.782412   1.241421   0.000000
    25  O    2.524756   4.422245   1.255240   2.212387   0.000000
    26  P    5.614613   4.730456   3.732747   3.436993   3.523729
    27  O    5.494186   3.682850   3.866222   3.599454   3.951831
    28  O    7.163580   5.935583   5.285933   4.932268   4.957679
    29  H    7.423417   6.686162   5.504118   5.163037   5.043646
    30  O    5.056529   4.665253   3.483764   3.681527   2.761045
    31  H    4.103333   4.497727   2.557971   2.949972   1.717360
    32  O    5.595272   5.685569   3.451883   2.748989   3.493062
    33  H    4.672790   5.300679   2.499635   1.691684   2.779522
                   26         27         28         29         30
    26  P    0.000000
    27  O    1.470069   0.000000
    28  O    1.589264   2.515971   0.000000
    29  H    2.135160   3.376659   1.035543   0.000000
    30  O    1.589346   2.567643   2.500330   2.618699   0.000000
    31  H    2.170269   2.971328   3.396964   3.460039   1.056770
    32  O    1.582897   2.591255   2.508699   2.607723   2.544826
    33  H    2.165809   2.830224   3.445216   3.587136   2.789947
                   31         32         33
    31  H    0.000000
    32  O    2.625882   0.000000
    33  H    2.460587   1.069817   0.000000
 Symmetry turned off by external request.
 Stoichiometry    C7H18NO6P
 Framework group  C1[X(C7H18NO6P)]
 Deg. of freedom    93
 Full point group                 C1      NOp   1
 Rotational constants (GHZ):           0.6759685           0.3739452           0.2831702
 Leave Link  202 at Mon Feb 20 01:22:00 2023, MaxMem=  6710886400 cpu:               0.1 elap:               0.0
 (Enter /data0/home/software/g16/l122.exe)
 Counterpoise: doing full-system calculation.
 Leave Link  122 at Mon Feb 20 01:22:00 2023, MaxMem=  6710886400 cpu:               0.0 elap:               0.0
 (Enter /data0/home/software/g16/l301.exe)
 Standard basis: 6-311+G(2d,p) (5D, 7F)
 Ernie: Thresh=  0.10000D-02 Tol=  0.10000D-05 Strict=F.
   521 basis functions,   788 primitive gaussians,   551 cartesian basis functions
    65 alpha electrons       65 beta electrons
       nuclear repulsion energy      1333.2384256605 Hartrees.
 IExCor= 4336 DFT=T Ex+Corr=M062X ExCW=0 ScaHFX=  0.540000
 ScaDFX=  1.000000  1.000000  1.000000  1.000000 ScalE2=  1.000000  1.000000
 IRadAn=      5 IRanWt=     -1 IRanGd=            0 ICorTp=0 IEmpDi=131
 NAtoms=   33 NActive=   33 NUniq=   33 SFac= 1.00D+00 NAtFMM=   60 NAOKFM=F Big=F
 Integral buffers will be    131072 words long.
 Raffenetti 2 integral format.
 Two-electron integral symmetry is turned off.
 R6Disp:  Grimme-D3 Dispersion energy=       -0.0021355555 Hartrees.
 Nuclear repulsion after empirical dispersion term =     1333.2362901050 Hartrees.
 Leave Link  301 at Mon Feb 20 01:22:00 2023, MaxMem=  6710886400 cpu:               1.1 elap:               0.1
 (Enter /data0/home/software/g16/l302.exe)
 NPDir=0 NMtPBC=     1 NCelOv=     1 NCel=       1 NClECP=     1 NCelD=      1
         NCelK=      1 NCelE2=     1 NClLst=     1 CellRange=     0.0.
 One-electron integrals computed using PRISM.
 NBasis=   521 RedAO= T EigKep=  9.80D-06  NBF=   521
 NBsUse=   521 1.00D-06 EigRej= -1.00D+00 NBFU=   521
 Precomputing XC quadrature grid using
 IXCGrd= 4 IRadAn=           5 IRanWt=          -1 IRanGd=           0 AccXCQ= 0.00D+00.
 Generated NRdTot=       0 NPtTot=           0 NUsed=           0 NTot=          32
 NSgBfM=   551   551   551   551   551 MxSgAt=    33 MxSgA2=    33.
 Leave Link  302 at Mon Feb 20 01:22:01 2023, MaxMem=  6710886400 cpu:              12.5 elap:               0.5
 (Enter /data0/home/software/g16/l303.exe)
 DipDrv:  MaxL=1.
 Leave Link  303 at Mon Feb 20 01:22:01 2023, MaxMem=  6710886400 cpu:               1.3 elap:               0.1
 (Enter /data0/home/software/g16/l401.exe)
 ExpMin= 3.48D-02 ExpMax= 7.75D+04 ExpMxC= 2.65D+03 IAcc=3 IRadAn=         5 AccDes= 0.00D+00
 Harris functional with IExCor= 1009 and IRadAn=       5 diagonalized for initial guess.
 HarFok:  IExCor= 1009 AccDes= 0.00D+00 IRadAn=         5 IDoV= 1 UseB2=F ITyADJ=14
 ICtDFT=  3500011 ScaDFX=  1.000000  1.000000  1.000000  1.000000
 FoFCou: FMM=F IPFlag=           0 FMFlag=      100000 FMFlg1=           0
         NFxFlg=           0 DoJE=T BraDBF=F KetDBF=T FulRan=T
         wScrn=  0.000000 ICntrl=       500 IOpCl=  0 I1Cent=   200000004 NGrid=           0
         NMat0=    1 NMatS0=      1 NMatT0=    0 NMatD0=    1 NMtDS0=    0 NMtDT0=    0
 Symmetry not used in FoFCou.
 Harris En= -1124.68090532388    
 JPrj=0 DoOrth=F DoCkMO=F.
 Leave Link  401 at Mon Feb 20 01:22:03 2023, MaxMem=  6710886400 cpu:              50.3 elap:               2.1
 (Enter /data0/home/software/g16/l502.exe)
 Two-electron integral symmetry not used.
 Closed shell SCF:
 Using DIIS extrapolation, IDIIS=  1040.
 NGot=  6710886400 LenX=  6710262024 LenY=  6709957872
 Requested convergence on RMS density matrix=1.00D-08 within 128 cycles.
 Requested convergence on MAX density matrix=1.00D-06.
 Requested convergence on             energy=1.00D-06.
 No special actions if energy rises.
 Fock matrices will be formed incrementally for  20 cycles.

 Cycle   1  Pass 1  IDiag  1:
 FoFJK:  IHMeth= 1 ICntrl=       0 DoSepK=F KAlg= 0 I1Cent=           0 FoldK=F
 IRaf= 860000000 NMat=       1 IRICut=       1 DoRegI=T DoRafI=F ISym2E= 0 IDoP0=0 IntGTp=1.
 FoFCou: FMM=F IPFlag=           0 FMFlag=      100000 FMFlg1=           0
         NFxFlg=           0 DoJE=F BraDBF=F KetDBF=F FulRan=T
         wScrn=  0.000000 ICntrl=         0 IOpCl=  0 I1Cent=           0 NGrid=           0
         NMat0=    1 NMatS0=      1 NMatT0=    0 NMatD0=    1 NMtDS0=    0 NMtDT0=    0
 Symmetry not used in FoFCou.
 E= -1124.48786920559    
 DIIS: error= 3.41D-02 at cycle   1 NSaved=   1.
 NSaved= 1 IEnMin= 1 EnMin= -1124.48786920559     IErMin= 1 ErrMin= 3.41D-02
 ErrMax= 3.41D-02  0.00D+00 EMaxC= 1.00D-01 BMatC= 9.45D-01 BMatP= 9.45D-01
 IDIUse=3 WtCom= 6.59D-01 WtEn= 3.41D-01
 Coeff-Com:  0.100D+01
 Coeff-En:   0.100D+01
 Coeff:      0.100D+01
 Gap=     0.331 Goal=   None    Shift=    0.000
 GapD=    0.331 DampG=1.000 DampE=0.500 DampFc=0.5000 IDamp=-1.
 Damping current iteration by 5.00D-01
 RMSDP=6.51D-03 MaxDP=1.39D+00              OVMax= 2.21D-01

 Cycle   2  Pass 1  IDiag  1:
 RMSU=  3.19D-03    CP:  1.06D+00
 E= -1124.76317984712     Delta-E=       -0.275310641533 Rises=F Damp=T
 DIIS: error= 6.40D-03 at cycle   2 NSaved=   2.
 NSaved= 2 IEnMin= 2 EnMin= -1124.76317984712     IErMin= 2 ErrMin= 6.40D-03
 ErrMax= 6.40D-03  0.00D+00 EMaxC= 1.00D-01 BMatC= 5.52D-02 BMatP= 9.45D-01
 IDIUse=3 WtCom= 9.36D-01 WtEn= 6.40D-02
 Coeff-Com:  0.135D-01 0.986D+00
 Coeff-En:   0.658D-01 0.934D+00
 Coeff:      0.169D-01 0.983D+00
 Gap=     0.270 Goal=   None    Shift=    0.000
 RMSDP=1.95D-03 MaxDP=2.91D-01 DE=-2.75D-01 OVMax= 1.33D-01

 Cycle   3  Pass 1  IDiag  1:
 RMSU=  1.68D-03    CP:  9.86D-01  8.15D-01
 E= -1125.07296420025     Delta-E=       -0.309784353134 Rises=F Damp=F
 DIIS: error= 4.08D-03 at cycle   3 NSaved=   3.
 NSaved= 3 IEnMin= 3 EnMin= -1125.07296420025     IErMin= 3 ErrMin= 4.08D-03
 ErrMax= 4.08D-03  0.00D+00 EMaxC= 1.00D-01 BMatC= 1.78D-02 BMatP= 5.52D-02
 IDIUse=3 WtCom= 9.59D-01 WtEn= 4.08D-02
 Coeff-Com: -0.479D-01 0.327D+00 0.721D+00
 Coeff-En:   0.000D+00 0.000D+00 0.100D+01
 Coeff:     -0.460D-01 0.314D+00 0.732D+00
 Gap=     0.281 Goal=   None    Shift=    0.000
 RMSDP=5.24D-04 MaxDP=6.47D-02 DE=-3.10D-01 OVMax= 3.98D-02

 Cycle   4  Pass 1  IDiag  1:
 RMSU=  4.03D-04    CP:  9.93D-01  9.09D-01  9.23D-01
 E= -1125.08188544860     Delta-E=       -0.008921248345 Rises=F Damp=F
 DIIS: error= 2.97D-03 at cycle   4 NSaved=   4.
 NSaved= 4 IEnMin= 4 EnMin= -1125.08188544860     IErMin= 4 ErrMin= 2.97D-03
 ErrMax= 2.97D-03  0.00D+00 EMaxC= 1.00D-01 BMatC= 5.44D-03 BMatP= 1.78D-02
 IDIUse=3 WtCom= 9.70D-01 WtEn= 2.97D-02
 Coeff-Com: -0.253D-01 0.721D-01 0.395D+00 0.559D+00
 Coeff-En:   0.000D+00 0.000D+00 0.223D+00 0.777D+00
 Coeff:     -0.246D-01 0.700D-01 0.390D+00 0.565D+00
 Gap=     0.276 Goal=   None    Shift=    0.000
 RMSDP=2.44D-04 MaxDP=4.69D-02 DE=-8.92D-03 OVMax= 1.53D-02

 Cycle   5  Pass 1  IDiag  1:
 RMSU=  1.17D-04    CP:  9.87D-01  8.66D-01  9.54D-01  6.44D-01
 E= -1125.08571894971     Delta-E=       -0.003833501109 Rises=F Damp=F
 DIIS: error= 4.76D-04 at cycle   5 NSaved=   5.
 NSaved= 5 IEnMin= 5 EnMin= -1125.08571894971     IErMin= 5 ErrMin= 4.76D-04
 ErrMax= 4.76D-04  0.00D+00 EMaxC= 1.00D-01 BMatC= 1.52D-04 BMatP= 5.44D-03
 IDIUse=3 WtCom= 9.95D-01 WtEn= 4.76D-03
 Coeff-Com: -0.737D-02 0.135D-01 0.125D+00 0.237D+00 0.631D+00
 Coeff-En:   0.000D+00 0.000D+00 0.000D+00 0.000D+00 0.100D+01
 Coeff:     -0.734D-02 0.135D-01 0.125D+00 0.236D+00 0.633D+00
 Gap=     0.276 Goal=   None    Shift=    0.000
 RMSDP=3.21D-05 MaxDP=1.61D-03 DE=-3.83D-03 OVMax= 2.21D-03

 Cycle   6  Pass 1  IDiag  1:
 RMSU=  2.62D-05    CP:  9.87D-01  8.67D-01  9.54D-01  6.82D-01  9.32D-01
 E= -1125.08582086965     Delta-E=       -0.000101919945 Rises=F Damp=F
 DIIS: error= 1.20D-04 at cycle   6 NSaved=   6.
 NSaved= 6 IEnMin= 6 EnMin= -1125.08582086965     IErMin= 6 ErrMin= 1.20D-04
 ErrMax= 1.20D-04  0.00D+00 EMaxC= 1.00D-01 BMatC= 1.12D-05 BMatP= 1.52D-04
 IDIUse=3 WtCom= 9.99D-01 WtEn= 1.20D-03
 Coeff-Com: -0.924D-03 0.136D-03 0.184D-01 0.497D-01 0.263D+00 0.670D+00
 Coeff-En:   0.000D+00 0.000D+00 0.000D+00 0.000D+00 0.000D+00 0.100D+01
 Coeff:     -0.923D-03 0.136D-03 0.184D-01 0.496D-01 0.262D+00 0.671D+00
 Gap=     0.276 Goal=   None    Shift=    0.000
 RMSDP=1.69D-05 MaxDP=3.52D-03 DE=-1.02D-04 OVMax= 5.79D-04

 Cycle   7  Pass 1  IDiag  1:
 RMSU=  1.27D-05    CP:  9.87D-01  8.70D-01  9.55D-01  6.86D-01  9.11D-01
                    CP:  7.80D-01
 E= -1125.08583081340     Delta-E=       -0.000009943744 Rises=F Damp=F
 DIIS: error= 3.54D-05 at cycle   7 NSaved=   7.
 NSaved= 7 IEnMin= 7 EnMin= -1125.08583081340     IErMin= 7 ErrMin= 3.54D-05
 ErrMax= 3.54D-05  0.00D+00 EMaxC= 1.00D-01 BMatC= 6.50D-07 BMatP= 1.12D-05
 IDIUse=1 WtCom= 1.00D+00 WtEn= 0.00D+00
 Coeff-Com:  0.382D-03-0.128D-02-0.549D-02-0.595D-02 0.241D-01 0.191D+00
 Coeff-Com:  0.797D+00
 Coeff:      0.382D-03-0.128D-02-0.549D-02-0.595D-02 0.241D-01 0.191D+00
 Coeff:      0.797D+00
 Gap=     0.276 Goal=   None    Shift=    0.000
 RMSDP=5.73D-06 MaxDP=1.33D-03 DE=-9.94D-06 OVMax= 1.74D-04

 Cycle   8  Pass 1  IDiag  1:
 RMSU=  2.78D-06    CP:  9.87D-01  8.68D-01  9.55D-01  6.87D-01  9.32D-01
                    CP:  8.27D-01  9.56D-01
 E= -1125.08583133961     Delta-E=       -0.000000526209 Rises=F Damp=F
 DIIS: error= 1.35D-05 at cycle   8 NSaved=   8.
 NSaved= 8 IEnMin= 8 EnMin= -1125.08583133961     IErMin= 8 ErrMin= 1.35D-05
 ErrMax= 1.35D-05  0.00D+00 EMaxC= 1.00D-01 BMatC= 1.99D-07 BMatP= 6.50D-07
 IDIUse=1 WtCom= 1.00D+00 WtEn= 0.00D+00
 Coeff-Com:  0.317D-03-0.599D-03-0.527D-02-0.987D-02-0.229D-01 0.882D-02
 Coeff-Com:  0.395D+00 0.634D+00
 Coeff:      0.317D-03-0.599D-03-0.527D-02-0.987D-02-0.229D-01 0.882D-02
 Coeff:      0.395D+00 0.634D+00
 Gap=     0.276 Goal=   None    Shift=    0.000
 RMSDP=1.36D-06 MaxDP=8.41D-05 DE=-5.26D-07 OVMax= 8.24D-05

 Cycle   9  Pass 1  IDiag  1:
 RMSU=  1.08D-06    CP:  9.87D-01  8.68D-01  9.55D-01  6.87D-01  9.34D-01
                    CP:  8.36D-01  1.01D+00  1.03D+00
 E= -1125.08583149189     Delta-E=       -0.000000152289 Rises=F Damp=F
 DIIS: error= 2.45D-06 at cycle   9 NSaved=   9.
 NSaved= 9 IEnMin= 9 EnMin= -1125.08583149189     IErMin= 9 ErrMin= 2.45D-06
 ErrMax= 2.45D-06  0.00D+00 EMaxC= 1.00D-01 BMatC= 9.11D-09 BMatP= 1.99D-07
 IDIUse=1 WtCom= 1.00D+00 WtEn= 0.00D+00
 Coeff-Com:  0.693D-04-0.103D-03-0.130D-02-0.274D-02-0.898D-02-0.892D-02
 Coeff-Com:  0.704D-01 0.209D+00 0.743D+00
 Coeff:      0.693D-04-0.103D-03-0.130D-02-0.274D-02-0.898D-02-0.892D-02
 Coeff:      0.704D-01 0.209D+00 0.743D+00
 Gap=     0.276 Goal=   None    Shift=    0.000
 RMSDP=4.29D-07 MaxDP=3.30D-05 DE=-1.52D-07 OVMax= 4.03D-05

 Cycle  10  Pass 1  IDiag  1:
 RMSU=  3.49D-07    CP:  9.87D-01  8.68D-01  9.55D-01  6.88D-01  9.34D-01
                    CP:  8.37D-01  1.02D+00  1.09D+00  9.73D-01
 E= -1125.08583149854     Delta-E=       -0.000000006642 Rises=F Damp=F
 DIIS: error= 1.79D-06 at cycle  10 NSaved=  10.
 NSaved=10 IEnMin=10 EnMin= -1125.08583149854     IErMin=10 ErrMin= 1.79D-06
 ErrMax= 1.79D-06  0.00D+00 EMaxC= 1.00D-01 BMatC= 2.89D-09 BMatP= 9.11D-09
 IDIUse=1 WtCom= 1.00D+00 WtEn= 0.00D+00
 Coeff-Com: -0.108D-04 0.318D-04 0.871D-04-0.161D-04-0.159D-02-0.606D-02
 Coeff-Com: -0.224D-01 0.117D-01 0.386D+00 0.633D+00
 Coeff:     -0.108D-04 0.318D-04 0.871D-04-0.161D-04-0.159D-02-0.606D-02
 Coeff:     -0.224D-01 0.117D-01 0.386D+00 0.633D+00
 Gap=     0.276 Goal=   None    Shift=    0.000
 RMSDP=1.98D-07 MaxDP=1.29D-05 DE=-6.64D-09 OVMax= 1.61D-05

 Cycle  11  Pass 1  IDiag  1:
 RMSU=  1.12D-07    CP:  9.87D-01  8.68D-01  9.55D-01  6.88D-01  9.35D-01
                    CP:  8.37D-01  1.02D+00  1.11D+00  1.10D+00  9.21D-01
 E= -1125.08583150068     Delta-E=       -0.000000002147 Rises=F Damp=F
 DIIS: error= 5.38D-07 at cycle  11 NSaved=  11.
 NSaved=11 IEnMin=11 EnMin= -1125.08583150068     IErMin=11 ErrMin= 5.38D-07
 ErrMax= 5.38D-07  0.00D+00 EMaxC= 1.00D-01 BMatC= 3.95D-10 BMatP= 2.89D-09
 IDIUse=1 WtCom= 1.00D+00 WtEn= 0.00D+00
 Coeff-Com: -0.150D-04 0.310D-04 0.229D-03 0.376D-03 0.468D-03-0.156D-02
 Coeff-Com: -0.211D-01-0.266D-01 0.817D-01 0.323D+00 0.643D+00
 Coeff:     -0.150D-04 0.310D-04 0.229D-03 0.376D-03 0.468D-03-0.156D-02
 Coeff:     -0.211D-01-0.266D-01 0.817D-01 0.323D+00 0.643D+00
 Gap=     0.276 Goal=   None    Shift=    0.000
 RMSDP=7.70D-08 MaxDP=4.50D-06 DE=-2.15D-09 OVMax= 7.37D-06

 Cycle  12  Pass 1  IDiag  1:
 RMSU=  4.75D-08    CP:  9.87D-01  8.68D-01  9.55D-01  6.87D-01  9.34D-01
                    CP:  8.37D-01  1.02D+00  1.13D+00  1.12D+00  9.86D-01
                    CP:  8.81D-01
 E= -1125.08583150099     Delta-E=       -0.000000000308 Rises=F Damp=F
 DIIS: error= 1.08D-07 at cycle  12 NSaved=  12.
 NSaved=12 IEnMin=12 EnMin= -1125.08583150099     IErMin=12 ErrMin= 1.08D-07
 ErrMax= 1.08D-07  0.00D+00 EMaxC= 1.00D-01 BMatC= 1.93D-11 BMatP= 3.95D-10
 IDIUse=1 WtCom= 1.00D+00 WtEn= 0.00D+00
 Coeff-Com: -0.376D-05 0.733D-05 0.705D-04 0.127D-03 0.309D-03 0.575D-04
 Coeff-Com: -0.489D-02-0.107D-01-0.941D-02 0.490D-01 0.217D+00 0.758D+00
 Coeff:     -0.376D-05 0.733D-05 0.705D-04 0.127D-03 0.309D-03 0.575D-04
 Coeff:     -0.489D-02-0.107D-01-0.941D-02 0.490D-01 0.217D+00 0.758D+00
 Gap=     0.276 Goal=   None    Shift=    0.000
 RMSDP=1.85D-08 MaxDP=8.41D-07 DE=-3.08D-10 OVMax= 1.54D-06

 Cycle  13  Pass 1  IDiag  1:
 RMSU=  1.28D-08    CP:  9.87D-01  8.68D-01  9.55D-01  6.87D-01  9.34D-01
                    CP:  8.37D-01  1.02D+00  1.13D+00  1.13D+00  1.01D+00
                    CP:  9.40D-01  1.01D+00
 E= -1125.08583150103     Delta-E=       -0.000000000035 Rises=F Damp=F
 DIIS: error= 3.73D-08 at cycle  13 NSaved=  13.
 NSaved=13 IEnMin=13 EnMin= -1125.08583150103     IErMin=13 ErrMin= 3.73D-08
 ErrMax= 3.73D-08  0.00D+00 EMaxC= 1.00D-01 BMatC= 2.23D-12 BMatP= 1.93D-11
 IDIUse=1 WtCom= 1.00D+00 WtEn= 0.00D+00
 Coeff-Com:  0.523D-06-0.115D-05-0.916D-06 0.856D-06 0.530D-04 0.187D-03
 Coeff-Com:  0.714D-03-0.904D-03-0.126D-01-0.205D-01 0.439D-02 0.278D+00
 Coeff-Com:  0.751D+00
 Coeff:      0.523D-06-0.115D-05-0.916D-06 0.856D-06 0.530D-04 0.187D-03
 Coeff:      0.714D-03-0.904D-03-0.126D-01-0.205D-01 0.439D-02 0.278D+00
 Coeff:      0.751D+00
 Gap=     0.276 Goal=   None    Shift=    0.000
 RMSDP=7.59D-09 MaxDP=9.59D-07 DE=-3.55D-11 OVMax= 5.21D-07

 SCF Done:  E(RM062X) =  -1125.08583150     A.U. after   13 cycles
            NFock= 13  Conv=0.76D-08     -V/T= 2.0035
 KE= 1.121110338777D+03 PE=-5.316431518317D+03 EE= 1.736999057933D+03
 Leave Link  502 at Mon Feb 20 01:23:41 2023, MaxMem=  6710886400 cpu:            2337.0 elap:              97.7
 (Enter /data0/home/software/g16/l601.exe)
 Copying SCF densities to generalized density rwf, IOpCl= 0 IROHF=0.

 **********************************************************************

            Population analysis using the SCF density.

 **********************************************************************

 Alpha  occ. eigenvalues --  -78.11991 -19.63856 -19.60944 -19.60362 -19.55923
 Alpha  occ. eigenvalues --  -19.55456 -19.55315 -14.92427 -10.64787 -10.63106
 Alpha  occ. eigenvalues --  -10.63011 -10.62114 -10.61722 -10.57364 -10.53969
 Alpha  occ. eigenvalues --   -6.92711  -5.04651  -5.04574  -5.04431  -1.18602
 Alpha  occ. eigenvalues --   -1.17088  -1.15271  -1.11263  -1.09365  -1.05416
 Alpha  occ. eigenvalues --   -1.04975  -0.92403  -0.88756  -0.87832  -0.83662
 Alpha  occ. eigenvalues --   -0.76099  -0.71231  -0.66874  -0.64053  -0.63917
 Alpha  occ. eigenvalues --   -0.62485  -0.59881  -0.59091  -0.58212  -0.56268
 Alpha  occ. eigenvalues --   -0.54612  -0.53662  -0.52396  -0.51948  -0.50844
 Alpha  occ. eigenvalues --   -0.50367  -0.50313  -0.49856  -0.49369  -0.47919
 Alpha  occ. eigenvalues --   -0.47266  -0.47144  -0.45799  -0.45355  -0.44039
 Alpha  occ. eigenvalues --   -0.41989  -0.41879  -0.41409  -0.40296  -0.38349
 Alpha  occ. eigenvalues --   -0.35192  -0.33357  -0.31293  -0.30939  -0.30404
 Alpha virt. eigenvalues --   -0.02803  -0.00529  -0.00290   0.00964   0.01883
 Alpha virt. eigenvalues --    0.02453   0.02757   0.03028   0.03659   0.04442
 Alpha virt. eigenvalues --    0.06097   0.06530   0.07047   0.07077   0.07444
 Alpha virt. eigenvalues --    0.07889   0.08136   0.08962   0.09879   0.09978
 Alpha virt. eigenvalues --    0.10774   0.10941   0.11372   0.11781   0.11841
 Alpha virt. eigenvalues --    0.12638   0.13149   0.13502   0.14222   0.14512
 Alpha virt. eigenvalues --    0.15088   0.15299   0.15821   0.16148   0.16378
 Alpha virt. eigenvalues --    0.16915   0.17245   0.17813   0.18653   0.18968
 Alpha virt. eigenvalues --    0.19368   0.20391   0.20775   0.21086   0.21662
 Alpha virt. eigenvalues --    0.22072   0.22275   0.22981   0.23403   0.23645
 Alpha virt. eigenvalues --    0.24090   0.24346   0.24644   0.24930   0.25575
 Alpha virt. eigenvalues --    0.26089   0.26230   0.27295   0.27547   0.27874
 Alpha virt. eigenvalues --    0.28450   0.28798   0.28994   0.29767   0.29927
 Alpha virt. eigenvalues --    0.30882   0.31101   0.31626   0.31984   0.32284
 Alpha virt. eigenvalues --    0.33041   0.33702   0.33949   0.34157   0.35382
 Alpha virt. eigenvalues --    0.35795   0.36197   0.36486   0.37646   0.38300
 Alpha virt. eigenvalues --    0.38424   0.39235   0.39790   0.40183   0.40757
 Alpha virt. eigenvalues --    0.41915   0.42839   0.43810   0.44549   0.45178
 Alpha virt. eigenvalues --    0.46064   0.46344   0.47252   0.47743   0.48596
 Alpha virt. eigenvalues --    0.48893   0.49820   0.50400   0.51369   0.52918
 Alpha virt. eigenvalues --    0.53368   0.53902   0.54150   0.54712   0.55558
 Alpha virt. eigenvalues --    0.55994   0.56272   0.57507   0.58374   0.59156
 Alpha virt. eigenvalues --    0.59758   0.59836   0.60833   0.61795   0.62574
 Alpha virt. eigenvalues --    0.63393   0.63554   0.64854   0.65091   0.65434
 Alpha virt. eigenvalues --    0.67521   0.67896   0.68752   0.69378   0.69890
 Alpha virt. eigenvalues --    0.70850   0.71368   0.72081   0.72606   0.73693
 Alpha virt. eigenvalues --    0.74013   0.74924   0.75550   0.76775   0.77218
 Alpha virt. eigenvalues --    0.77593   0.79512   0.80265   0.80776   0.82063
 Alpha virt. eigenvalues --    0.83487   0.83978   0.85091   0.86127   0.86875
 Alpha virt. eigenvalues --    0.88225   0.88606   0.90767   0.91607   0.92611
 Alpha virt. eigenvalues --    0.93350   0.95672   0.96824   0.98465   0.99596
 Alpha virt. eigenvalues --    1.02180   1.03180   1.06915   1.09416   1.09891
 Alpha virt. eigenvalues --    1.10253   1.11950   1.13112   1.13694   1.14349
 Alpha virt. eigenvalues --    1.15530   1.16202   1.16991   1.18090   1.18705
 Alpha virt. eigenvalues --    1.19288   1.19856   1.20035   1.21208   1.22576
 Alpha virt. eigenvalues --    1.23626   1.23682   1.24664   1.25424   1.25664
 Alpha virt. eigenvalues --    1.26243   1.26784   1.27500   1.28417   1.28874
 Alpha virt. eigenvalues --    1.29677   1.30255   1.30659   1.31236   1.32722
 Alpha virt. eigenvalues --    1.33238   1.34224   1.35133   1.35894   1.37183
 Alpha virt. eigenvalues --    1.38007   1.38507   1.40068   1.40421   1.41291
 Alpha virt. eigenvalues --    1.41869   1.43059   1.44252   1.44528   1.46573
 Alpha virt. eigenvalues --    1.47446   1.47566   1.48945   1.50798   1.51291
 Alpha virt. eigenvalues --    1.52698   1.55653   1.57556   1.58631   1.59526
 Alpha virt. eigenvalues --    1.61834   1.62035   1.64774   1.65996   1.66586
 Alpha virt. eigenvalues --    1.68553   1.69646   1.70639   1.71601   1.73655
 Alpha virt. eigenvalues --    1.74726   1.75029   1.75381   1.75724   1.77541
 Alpha virt. eigenvalues --    1.77892   1.78628   1.79430   1.80242   1.81085
 Alpha virt. eigenvalues --    1.82532   1.83624   1.85453   1.86461   1.87335
 Alpha virt. eigenvalues --    1.88266   1.89085   1.89644   1.90562   1.92040
 Alpha virt. eigenvalues --    1.92641   1.95195   1.96046   1.97114   1.97952
 Alpha virt. eigenvalues --    1.99223   2.00424   2.03329   2.04519   2.05134
 Alpha virt. eigenvalues --    2.08653   2.09148   2.12077   2.13954   2.15882
 Alpha virt. eigenvalues --    2.17087   2.17362   2.18792   2.19426   2.19533
 Alpha virt. eigenvalues --    2.21128   2.21938   2.23472   2.23863   2.25907
 Alpha virt. eigenvalues --    2.26765   2.28183   2.29107   2.29969   2.30115
 Alpha virt. eigenvalues --    2.31512   2.32718   2.33496   2.33999   2.35371
 Alpha virt. eigenvalues --    2.35887   2.36885   2.37206   2.38456   2.39893
 Alpha virt. eigenvalues --    2.40459   2.42392   2.42793   2.43614   2.46930
 Alpha virt. eigenvalues --    2.47565   2.48830   2.51381   2.52679   2.56041
 Alpha virt. eigenvalues --    2.57018   2.60390   2.62584   2.65148   2.65632
 Alpha virt. eigenvalues --    2.67043   2.68544   2.68685   2.69818   2.71375
 Alpha virt. eigenvalues --    2.75591   2.76094   2.77840   2.79305   2.81238
 Alpha virt. eigenvalues --    2.83890   2.84728   2.85042   2.87615   2.89286
 Alpha virt. eigenvalues --    2.89595   2.94207   2.96076   2.98615   3.00104
 Alpha virt. eigenvalues --    3.01864   3.02551   3.02942   3.07984   3.09981
 Alpha virt. eigenvalues --    3.11307   3.14557   3.16955   3.17900   3.21926
 Alpha virt. eigenvalues --    3.22351   3.24124   3.27533   3.30175   3.33409
 Alpha virt. eigenvalues --    3.34096   3.35016   3.35560   3.37307   3.38632
 Alpha virt. eigenvalues --    3.39743   3.46188   3.47734   3.48277   3.52221
 Alpha virt. eigenvalues --    3.53047   3.54155   3.56144   3.57399   3.57562
 Alpha virt. eigenvalues --    3.58761   3.61546   3.62591   3.63806   3.65288
 Alpha virt. eigenvalues --    3.67579   3.69195   3.70219   3.71077   3.73123
 Alpha virt. eigenvalues --    3.73899   3.76774   3.81771   3.83084   3.85902
 Alpha virt. eigenvalues --    3.87559   3.92607   3.98745   4.07847   4.11512
 Alpha virt. eigenvalues --    4.12128   4.13172   4.15110   4.15753   4.17943
 Alpha virt. eigenvalues --    4.19093   4.24518   4.27785   4.37159   4.42643
 Alpha virt. eigenvalues --    4.47707   4.77560   4.78441   4.80226   5.11582
 Alpha virt. eigenvalues --    5.12528   5.15900   5.19034   5.22065   5.22945
 Alpha virt. eigenvalues --    5.23428   5.24228   5.29509   5.32003   5.32971
 Alpha virt. eigenvalues --    5.36917   5.42662   5.44516   5.45119   5.46129
 Alpha virt. eigenvalues --    5.48858   5.49553   5.57121   5.62835   5.66157
 Alpha virt. eigenvalues --    5.95656   6.25037   6.78893   6.80150   6.81342
 Alpha virt. eigenvalues --    6.83773   6.85690   6.86245   6.86723   6.88625
 Alpha virt. eigenvalues --    6.91200   6.94845   6.96823   6.97950   7.01925
 Alpha virt. eigenvalues --    7.02495   7.04467   7.05959   7.06723   7.08671
 Alpha virt. eigenvalues --    7.09706   7.18097   7.20902   7.22625   7.30687
 Alpha virt. eigenvalues --    7.31797   7.32816   7.34490   7.39144   7.40745
 Alpha virt. eigenvalues --    7.42573   7.47271   7.73822  14.30017  14.34242
 Alpha virt. eigenvalues --   14.42105  23.93815  23.98678  24.03704  24.05878
 Alpha virt. eigenvalues --   24.07565  24.09777  24.25371  35.50080  50.06135
 Alpha virt. eigenvalues --   50.10715  50.12315  50.16023  50.19108  50.21846
 Alpha virt. eigenvalues --  163.99099
          Condensed to atoms (all electrons):
               1          2          3          4          5          6
     1  C    5.679288   0.405532   0.380939   0.416090  -0.098497   0.021472
     2  H    0.405532   0.368981  -0.014845  -0.013282   0.015445  -0.000098
     3  H    0.380939  -0.014845   0.469044  -0.020668  -0.013450   0.000164
     4  H    0.416090  -0.013282  -0.020668   0.440285  -0.023185   0.000151
     5  C   -0.098497   0.015445  -0.013450  -0.023185   5.548039   0.419953
     6  H    0.021472  -0.000098   0.000164   0.000151   0.419953   0.451519
     7  H   -0.009072   0.000254   0.000371   0.001089   0.408718  -0.019729
     8  H   -0.023698   0.000053  -0.000534   0.000115   0.386537  -0.018894
     9  C   -0.117997  -0.003011  -0.045295   0.031617  -0.188374  -0.024491
    10  H    0.023536   0.000244   0.000279  -0.000264   0.007459   0.001180
    11  H   -0.018405  -0.000361  -0.001073   0.000281  -0.023455   0.000478
    12  H   -0.014458   0.000638  -0.000089   0.000179   0.008573   0.000339
    13  C   -0.629585  -0.059322   0.080347  -0.052762  -0.452056  -0.055955
    14  H   -0.006745  -0.000341  -0.000070  -0.000275  -0.018270  -0.000691
    15  H    0.011701   0.006571   0.000518   0.000498   0.009058   0.000433
    16  C    0.087663   0.007046  -0.003606   0.006942   0.041185   0.020473
    17  H   -0.002582   0.000033  -0.000031   0.000023  -0.002195  -0.000549
    18  H    0.007073   0.000043   0.000011   0.000063  -0.007317   0.000933
    19  C   -0.076474  -0.003128   0.002922  -0.008550  -0.037302   0.005840
    20  H    0.000310   0.000002  -0.000001   0.000003   0.001346   0.000017
    21  H    0.000981   0.000005  -0.000002   0.000028  -0.000611  -0.000033
    22  N    0.350015  -0.006849  -0.030937  -0.002957   0.372701  -0.010115
    23  C    0.035491  -0.001927  -0.001057   0.005214  -0.009387  -0.000431
    24  O    0.002616  -0.000077  -0.000003  -0.000037   0.000017  -0.000005
    25  O    0.000229   0.001016  -0.000024   0.000612   0.003406   0.000010
    26  P   -0.009090   0.007420   0.000935  -0.001313  -0.001768  -0.000113
    27  O   -0.006544   0.014181  -0.000373   0.000299   0.006771  -0.000005
    28  O   -0.000481  -0.000422   0.000003   0.000026  -0.000106   0.000000
    29  H    0.000050   0.000048  -0.000000  -0.000001   0.000014  -0.000000
    30  O   -0.000491   0.002533   0.000034   0.000051  -0.000200  -0.000001
    31  H   -0.002254  -0.000519   0.000003  -0.000112   0.000142  -0.000001
    32  O   -0.000567   0.000366  -0.000004  -0.000033  -0.000164   0.000000
    33  H   -0.000600   0.000018   0.000001  -0.000003  -0.000017   0.000000
               7          8          9         10         11         12
     1  C   -0.009072  -0.023698  -0.117997   0.023536  -0.018405  -0.014458
     2  H    0.000254   0.000053  -0.003011   0.000244  -0.000361   0.000638
     3  H    0.000371  -0.000534  -0.045295   0.000279  -0.001073  -0.000089
     4  H    0.001089   0.000115   0.031617  -0.000264   0.000281   0.000179
     5  C    0.408718   0.386537  -0.188374   0.007459  -0.023455   0.008573
     6  H   -0.019729  -0.018894  -0.024491   0.001180   0.000478   0.000339
     7  H    0.447019  -0.018658   0.026883   0.000301   0.000043  -0.000135
     8  H   -0.018658   0.455768  -0.020825  -0.000074  -0.000050   0.000029
     9  C    0.026883  -0.020825   5.877873   0.380701   0.390447   0.397423
    10  H    0.000301  -0.000074   0.380701   0.467631  -0.019128  -0.017977
    11  H    0.000043  -0.000050   0.390447  -0.019128   0.455359  -0.009554
    12  H   -0.000135   0.000029   0.397423  -0.017977  -0.009554   0.356083
    13  C   -0.047127   0.070758  -0.444100  -0.082322   0.052926   0.020319
    14  H   -0.000067   0.000038   0.018242  -0.000068  -0.000069   0.000170
    15  H    0.000883  -0.000234  -0.016365   0.000647   0.000169   0.003457
    16  C    0.009889  -0.005317  -0.014026   0.028503   0.003390  -0.011442
    17  H    0.000057  -0.000073   0.009948  -0.002431   0.000423   0.000286
    18  H    0.000056   0.000057  -0.002865  -0.002261  -0.000173  -0.000054
    19  C   -0.002485   0.000564  -0.116796   0.007562   0.001449  -0.009535
    20  H   -0.000002  -0.000000   0.002426   0.000022   0.000001   0.000026
    21  H    0.000064  -0.000005  -0.000391  -0.000007   0.000003   0.000022
    22  N   -0.013192  -0.030605   0.284014   0.003931  -0.035363  -0.028506
    23  C   -0.000073   0.000157   0.017861  -0.001976  -0.000030   0.001668
    24  O    0.000004  -0.000002   0.000459   0.000070  -0.000043  -0.000838
    25  O    0.000111   0.000007   0.005635   0.000079   0.000026   0.000121
    26  P   -0.000020   0.000030  -0.026266   0.000048   0.000625   0.000861
    27  O   -0.000000   0.000010   0.003536   0.000676  -0.001523   0.006447
    28  O    0.000000  -0.000000  -0.001331   0.000002   0.000001   0.000105
    29  H   -0.000000  -0.000000  -0.000053  -0.000000   0.000000  -0.000013
    30  O    0.000022  -0.000003   0.002226   0.000033   0.000009   0.000010
    31  H   -0.000010  -0.000000  -0.001156  -0.000004   0.000001   0.000100
    32  O    0.000000   0.000000   0.001634  -0.000001  -0.000010  -0.000454
    33  H    0.000000   0.000000  -0.000869  -0.000004  -0.000000   0.000136
              13         14         15         16         17         18
     1  C   -0.629585  -0.006745   0.011701   0.087663  -0.002582   0.007073
     2  H   -0.059322  -0.000341   0.006571   0.007046   0.000033   0.000043
     3  H    0.080347  -0.000070   0.000518  -0.003606  -0.000031   0.000011
     4  H   -0.052762  -0.000275   0.000498   0.006942   0.000023   0.000063
     5  C   -0.452056  -0.018270   0.009058   0.041185  -0.002195  -0.007317
     6  H   -0.055955  -0.000691   0.000433   0.020473  -0.000549   0.000933
     7  H   -0.047127  -0.000067   0.000883   0.009889   0.000057   0.000056
     8  H    0.070758   0.000038  -0.000234  -0.005317  -0.000073   0.000057
     9  C   -0.444100   0.018242  -0.016365  -0.014026   0.009948  -0.002865
    10  H   -0.082322  -0.000068   0.000647   0.028503  -0.002431  -0.002261
    11  H    0.052926  -0.000069   0.000169   0.003390   0.000423  -0.000173
    12  H    0.020319   0.000170   0.003457  -0.011442   0.000286  -0.000054
    13  C    9.211692   0.413653   0.282241  -1.383178  -0.067642  -0.075221
    14  H    0.413653   0.431774  -0.022880  -0.051448   0.004217  -0.005215
    15  H    0.282241  -0.022880   0.491113   0.030465  -0.003640   0.004569
    16  C   -1.383178  -0.051448   0.030465   6.965764   0.462043   0.427815
    17  H   -0.067642   0.004217  -0.003640   0.462043   0.483467  -0.038693
    18  H   -0.075221  -0.005215   0.004569   0.427815  -0.038693   0.553481
    19  C    0.580448  -0.027143  -0.024774  -0.743226  -0.029141  -0.075605
    20  H    0.044991  -0.000057   0.000027  -0.027540  -0.005900  -0.002398
    21  H   -0.023938   0.001669   0.002027   0.007438   0.005063  -0.007646
    22  N   -0.717759   0.014554  -0.020275   0.174203  -0.009522   0.039520
    23  C   -0.326501   0.022464   0.004505   0.147000   0.001299   0.035052
    24  O    0.052577  -0.000531  -0.006180  -0.023516  -0.004622  -0.000386
    25  O   -0.017403   0.000190   0.015483   0.045765   0.002569  -0.001756
    26  P   -0.001940  -0.000295   0.009527   0.050257  -0.000145  -0.000262
    27  O   -0.089297   0.001100   0.013597  -0.016488  -0.000409   0.000036
    28  O   -0.004459   0.000009  -0.000356   0.002588   0.000004  -0.000000
    29  H    0.000536  -0.000001  -0.000115   0.000130  -0.000000   0.000000
    30  O    0.002834   0.000352   0.019801  -0.007210   0.000325   0.000014
    31  H    0.000288  -0.000744   0.000865   0.011093  -0.000245   0.000011
    32  O    0.000331  -0.000059  -0.001278  -0.012609   0.000102  -0.000009
    33  H   -0.009071   0.000008   0.000198   0.009256   0.000118   0.000003
              19         20         21         22         23         24
     1  C   -0.076474   0.000310   0.000981   0.350015   0.035491   0.002616
     2  H   -0.003128   0.000002   0.000005  -0.006849  -0.001927  -0.000077
     3  H    0.002922  -0.000001  -0.000002  -0.030937  -0.001057  -0.000003
     4  H   -0.008550   0.000003   0.000028  -0.002957   0.005214  -0.000037
     5  C   -0.037302   0.001346  -0.000611   0.372701  -0.009387   0.000017
     6  H    0.005840   0.000017  -0.000033  -0.010115  -0.000431  -0.000005
     7  H   -0.002485  -0.000002   0.000064  -0.013192  -0.000073   0.000004
     8  H    0.000564  -0.000000  -0.000005  -0.030605   0.000157  -0.000002
     9  C   -0.116796   0.002426  -0.000391   0.284014   0.017861   0.000459
    10  H    0.007562   0.000022  -0.000007   0.003931  -0.001976   0.000070
    11  H    0.001449   0.000001   0.000003  -0.035363  -0.000030  -0.000043
    12  H   -0.009535   0.000026   0.000022  -0.028506   0.001668  -0.000838
    13  C    0.580448   0.044991  -0.023938  -0.717759  -0.326501   0.052577
    14  H   -0.027143  -0.000057   0.001669   0.014554   0.022464  -0.000531
    15  H   -0.024774   0.000027   0.002027  -0.020275   0.004505  -0.006180
    16  C   -0.743226  -0.027540   0.007438   0.174203   0.147000  -0.023516
    17  H   -0.029141  -0.005900   0.005063  -0.009522   0.001299  -0.004622
    18  H   -0.075605  -0.002398  -0.007646   0.039520   0.035052  -0.000386
    19  C    7.169736   0.382514   0.436840  -0.224376  -0.569382  -0.150013
    20  H    0.382514   0.508683  -0.031816   0.000217  -0.057548  -0.003931
    21  H    0.436840  -0.031816   0.506589   0.001572  -0.073911   0.006103
    22  N   -0.224376   0.000217   0.001572   6.893130   0.087697  -0.000255
    23  C   -0.569382  -0.057548  -0.073911   0.087697   5.633621   0.496823
    24  O   -0.150013  -0.003931   0.006103  -0.000255   0.496823   8.171122
    25  O   -0.083823   0.008360  -0.009742  -0.002236   0.277832  -0.090178
    26  P   -0.033886  -0.000319   0.000174  -0.010691   0.053680   0.019823
    27  O   -0.017791   0.000079  -0.000010   0.079142   0.018918   0.003713
    28  O   -0.003332   0.000001   0.000001   0.000174   0.005252   0.002279
    29  H    0.000284  -0.000000  -0.000000  -0.000099  -0.000975  -0.000046
    30  O   -0.002789   0.000056   0.000166  -0.011686  -0.013564  -0.013581
    31  H   -0.001395  -0.000103  -0.000050  -0.000407   0.009722   0.002000
    32  O    0.034376   0.000076  -0.000029  -0.001112  -0.024417  -0.050776
    33  H    0.007374  -0.000289   0.000041   0.000764  -0.007161   0.080481
              25         26         27         28         29         30
     1  C    0.000229  -0.009090  -0.006544  -0.000481   0.000050  -0.000491
     2  H    0.001016   0.007420   0.014181  -0.000422   0.000048   0.002533
     3  H   -0.000024   0.000935  -0.000373   0.000003  -0.000000   0.000034
     4  H    0.000612  -0.001313   0.000299   0.000026  -0.000001   0.000051
     5  C    0.003406  -0.001768   0.006771  -0.000106   0.000014  -0.000200
     6  H    0.000010  -0.000113  -0.000005   0.000000  -0.000000  -0.000001
     7  H    0.000111  -0.000020  -0.000000   0.000000  -0.000000   0.000022
     8  H    0.000007   0.000030   0.000010  -0.000000  -0.000000  -0.000003
     9  C    0.005635  -0.026266   0.003536  -0.001331  -0.000053   0.002226
    10  H    0.000079   0.000048   0.000676   0.000002  -0.000000   0.000033
    11  H    0.000026   0.000625  -0.001523   0.000001   0.000000   0.000009
    12  H    0.000121   0.000861   0.006447   0.000105  -0.000013   0.000010
    13  C   -0.017403  -0.001940  -0.089297  -0.004459   0.000536   0.002834
    14  H    0.000190  -0.000295   0.001100   0.000009  -0.000001   0.000352
    15  H    0.015483   0.009527   0.013597  -0.000356  -0.000115   0.019801
    16  C    0.045765   0.050257  -0.016488   0.002588   0.000130  -0.007210
    17  H    0.002569  -0.000145  -0.000409   0.000004  -0.000000   0.000325
    18  H   -0.001756  -0.000262   0.000036  -0.000000   0.000000   0.000014
    19  C   -0.083823  -0.033886  -0.017791  -0.003332   0.000284  -0.002789
    20  H    0.008360  -0.000319   0.000079   0.000001  -0.000000   0.000056
    21  H   -0.009742   0.000174  -0.000010   0.000001  -0.000000   0.000166
    22  N   -0.002236  -0.010691   0.079142   0.000174  -0.000099  -0.011686
    23  C    0.277832   0.053680   0.018918   0.005252  -0.000975  -0.013564
    24  O   -0.090178   0.019823   0.003713   0.002279  -0.000046  -0.013581
    25  O    8.358769   0.013069  -0.016372   0.001815   0.000437  -0.015159
    26  P    0.013069  12.439888   0.442602   0.216414   0.007007   0.297803
    27  O   -0.016372   0.442602   8.335060  -0.010388  -0.008953  -0.034929
    28  O    0.001815   0.216414  -0.010388   8.030887   0.238673   0.009980
    29  H    0.000437   0.007007  -0.008953   0.238673   0.464436  -0.008124
    30  O   -0.015159   0.297803  -0.034929   0.009980  -0.008124   8.186663
    31  H    0.063677   0.026735  -0.005100   0.001475  -0.000030   0.224353
    32  O   -0.013653   0.282039  -0.001987  -0.007565  -0.004816   0.012409
    33  H    0.017976   0.014286  -0.003942   0.001683   0.000799  -0.016198
              31         32         33
     1  C   -0.002254  -0.000567  -0.000600
     2  H   -0.000519   0.000366   0.000018
     3  H    0.000003  -0.000004   0.000001
     4  H   -0.000112  -0.000033  -0.000003
     5  C    0.000142  -0.000164  -0.000017
     6  H   -0.000001   0.000000   0.000000
     7  H   -0.000010   0.000000   0.000000
     8  H   -0.000000   0.000000   0.000000
     9  C   -0.001156   0.001634  -0.000869
    10  H   -0.000004  -0.000001  -0.000004
    11  H    0.000001  -0.000010  -0.000000
    12  H    0.000100  -0.000454   0.000136
    13  C    0.000288   0.000331  -0.009071
    14  H   -0.000744  -0.000059   0.000008
    15  H    0.000865  -0.001278   0.000198
    16  C    0.011093  -0.012609   0.009256
    17  H   -0.000245   0.000102   0.000118
    18  H    0.000011  -0.000009   0.000003
    19  C   -0.001395   0.034376   0.007374
    20  H   -0.000103   0.000076  -0.000289
    21  H   -0.000050  -0.000029   0.000041
    22  N   -0.000407  -0.001112   0.000764
    23  C    0.009722  -0.024417  -0.007161
    24  O    0.002000  -0.050776   0.080481
    25  O    0.063677  -0.013653   0.017976
    26  P    0.026735   0.282039   0.014286
    27  O   -0.005100  -0.001987  -0.003942
    28  O    0.001475  -0.007565   0.001683
    29  H   -0.000030  -0.004816   0.000799
    30  O    0.224353   0.012409  -0.016198
    31  H    0.281019  -0.012656   0.005987
    32  O   -0.012656   8.160057   0.217655
    33  H    0.005987   0.217655   0.271155
 Mulliken charges:
               1
     1  C   -0.405447
     2  H    0.273758
     3  H    0.196489
     4  H    0.219875
     5  C   -0.353010
     6  H    0.208147
     7  H    0.214806
     8  H    0.204851
     9  C   -0.426714
    10  H    0.203614
    11  H    0.203609
    12  H    0.296062
    13  C   -0.274301
    14  H    0.226529
    15  H    0.187744
    16  C   -0.239302
    17  H    0.197846
    18  H    0.151127
    19  C   -0.388962
    20  H    0.180746
    21  H    0.179404
    22  N   -0.144690
    23  C    0.234081
    24  O   -0.493067
    25  O   -0.566851
    26  P    1.202885
    27  O   -0.712058
    28  O   -0.482932
    29  H    0.310815
    30  O   -0.635737
    31  H    0.397314
    32  O   -0.576847
    33  H    0.410217
 Sum of Mulliken charges =  -0.00000
 Mulliken charges with hydrogens summed into heavy atoms:
               1
     1  C    0.284675
     5  C    0.274794
     9  C    0.276571
    13  C    0.139972
    16  C    0.109671
    19  C   -0.028811
    22  N   -0.144690
    23  C    0.234081
    24  O   -0.493067
    25  O   -0.566851
    26  P    1.202885
    27  O   -0.712058
    28  O   -0.172117
    30  O   -0.238423
    32  O   -0.166630
         Mulliken charges condensed to fragments:
      1      0.086343
      2     -0.086343
 Electronic spatial extent (au):  <R**2>=         138102.4312
 Charge=             -0.0000 electrons
 Dipole moment (field-independent basis, Debye):
    X=             -6.2742    Y=              4.3652    Z=             11.4504  Tot=             13.7670
 Quadrupole moment (field-independent basis, Debye-Ang):
   XX=           -231.9028   YY=             -8.4827   ZZ=            118.0114
   XY=            -26.3554   XZ=             53.0348   YZ=            160.3861
 Traceless Quadrupole moment (field-independent basis, Debye-Ang):
   XX=           -191.1114   YY=             32.3087   ZZ=            158.8027
   XY=            -26.3554   XZ=             53.0348   YZ=            160.3861
 Octapole moment (field-independent basis, Debye-Ang**2):
  XXX=          -5298.5966  YYY=          -1487.5976  ZZZ=            510.9893  XYY=           -896.4287
  XXY=          -2021.6512  XXZ=          -1042.6749  XZZ=            507.6277  YZZ=           1685.9310
  YYZ=           1214.6497  XYZ=            940.6438
 Hexadecapole moment (field-independent basis, Debye-Ang**3):
 XXXX=        -100355.9747 YYYY=         -37950.6276 ZZZZ=          -7453.9538 XXXY=         -50271.8077
 XXXZ=         -37588.5940 YYYX=         -24115.7796 YYYZ=            210.7213 ZZZX=          -2427.3998
 ZZZY=          10549.6660 XXYY=         -28058.9320 XXZZ=         -10969.5632 YYZZ=          13937.2035
 XXYZ=          -6780.9554 YYXZ=           4701.2071 ZZXY=           9966.2896
 N-N= 1.333236290105D+03 E-N=-5.316431507710D+03  KE= 1.121110338777D+03
 No NMR shielding tensors so no spin-rotation constants.
 Leave Link  601 at Mon Feb 20 01:23:41 2023, MaxMem=  6710886400 cpu:               3.7 elap:               0.2
 (Enter /data0/home/software/g16/l122.exe)
 CPIOFr:  IOpCl= 0 IRwI=-1 IRwCP=  731 ICalc= -1 LCPTot=      418338 Len1MO=     1096859 IndFrg=      418338
 CPIOFr:  IOpCl= 0 IRwI=-1 IRwCP=  731 ICalc=  0 LCPTot=      418338 Len1MO=     1096859 IndFrg=     1515197
 Counterpoise: doing calculation for fragment   1 using the basis set of the full-system, NewBq=T
 Leave Link  122 at Mon Feb 20 01:23:41 2023, MaxMem=  6710886400 cpu:               0.4 elap:               0.0
 (Enter /data0/home/software/g16/l301.exe)
 Basis read from rwf:  (5D, 7F)
 No pseudopotential information found on rwf file.
   521 basis functions,   788 primitive gaussians,   551 cartesian basis functions
    40 alpha electrons       40 beta electrons
       nuclear repulsion energy       579.2564976959 Hartrees.
 IExCor= 4336 DFT=T Ex+Corr=M062X ExCW=0 ScaHFX=  0.540000
 ScaDFX=  1.000000  1.000000  1.000000  1.000000 ScalE2=  1.000000  1.000000
 IRadAn=      5 IRanWt=     -1 IRanGd=            0 ICorTp=0 IEmpDi=131
 NAtoms=   33 NActive=   33 NUniq=   33 SFac= 1.00D+00 NAtFMM=   60 NAOKFM=F Big=F
 Integral buffers will be    131072 words long.
 Raffenetti 2 integral format.
 Two-electron integral symmetry is turned off.
 R6Disp:  Grimme-D3 Dispersion energy=       -0.0010298144 Hartrees.
 Nuclear repulsion after empirical dispersion term =      579.2554678816 Hartrees.
 No density basis found on file   718.
 Leave Link  301 at Mon Feb 20 01:23:41 2023, MaxMem=  6710886400 cpu:               1.3 elap:               0.1
 (Enter /data0/home/software/g16/l302.exe)
 NPDir=0 NMtPBC=     1 NCelOv=     1 NCel=       1 NClECP=     1 NCelD=      1
         NCelK=      1 NCelE2=     1 NClLst=     1 CellRange=     0.0.
 One-electron integrals computed using PRISM.
 NBasis=   521 RedAO= T EigKep=  9.80D-06  NBF=   521
 NBsUse=   521 1.00D-06 EigRej= -1.00D+00 NBFU=   521
 Precomputing XC quadrature grid using
 IXCGrd= 4 IRadAn=           5 IRanWt=          -1 IRanGd=           0 AccXCQ= 0.00D+00.
 Generated NRdTot=       0 NPtTot=           0 NUsed=           0 NTot=          32
 NSgBfM=   551   551   551   551   551 MxSgAt=    33 MxSgA2=    33.
 Leave Link  302 at Mon Feb 20 01:23:42 2023, MaxMem=  6710886400 cpu:              12.8 elap:               0.6
 (Enter /data0/home/software/g16/l303.exe)
 DipDrv:  MaxL=1.
 Leave Link  303 at Mon Feb 20 01:23:42 2023, MaxMem=  6710886400 cpu:               1.3 elap:               0.1
 (Enter /data0/home/software/g16/l401.exe)
 ExpMin= 3.48D-02 ExpMax= 7.75D+04 ExpMxC= 2.65D+03 IAcc=3 IRadAn=         5 AccDes= 0.00D+00
 Harris functional with IExCor= 1009 and IRadAn=       5 diagonalized for initial guess.
 HarFok:  IExCor= 1009 AccDes= 0.00D+00 IRadAn=         5 IDoV= 1 UseB2=F ITyADJ=14
 ICtDFT=  3500011 ScaDFX=  1.000000  1.000000  1.000000  1.000000
 FoFCou: FMM=F IPFlag=           0 FMFlag=      100000 FMFlg1=           0
         NFxFlg=           0 DoJE=T BraDBF=F KetDBF=T FulRan=T
         wScrn=  0.000000 ICntrl=       500 IOpCl=  0 I1Cent=   200000004 NGrid=           0
         NMat0=    1 NMatS0=      1 NMatT0=    0 NMatD0=    1 NMtDS0=    0 NMtDT0=    0
 Symmetry not used in FoFCou.
 Harris En= -480.728337757223    
 JPrj=0 DoOrth=F DoCkMO=F.
 Leave Link  401 at Mon Feb 20 01:23:44 2023, MaxMem=  6710886400 cpu:              51.7 elap:               2.2
 (Enter /data0/home/software/g16/l502.exe)
 Two-electron integral symmetry not used.
 Closed shell SCF:
 Using DIIS extrapolation, IDIIS=  1040.
 NGot=  6710886400 LenX=  6710262024 LenY=  6709957872
 Requested convergence on RMS density matrix=1.00D-08 within 128 cycles.
 Requested convergence on MAX density matrix=1.00D-06.
 Requested convergence on             energy=1.00D-06.
 No special actions if energy rises.
 Fock matrices will be formed incrementally for  20 cycles.

 Cycle   1  Pass 1  IDiag  1:
 FoFJK:  IHMeth= 1 ICntrl=       0 DoSepK=F KAlg= 0 I1Cent=           0 FoldK=F
 IRaf= 860000000 NMat=       1 IRICut=       1 DoRegI=T DoRafI=F ISym2E= 0 IDoP0=0 IntGTp=1.
 FoFCou: FMM=F IPFlag=           0 FMFlag=      100000 FMFlg1=           0
         NFxFlg=           0 DoJE=F BraDBF=F KetDBF=F FulRan=T
         wScrn=  0.000000 ICntrl=         0 IOpCl=  0 I1Cent=           0 NGrid=           0
         NMat0=    1 NMatS0=      1 NMatT0=    0 NMatD0=    1 NMtDS0=    0 NMtDT0=    0
 Symmetry not used in FoFCou.
 E= -480.465015738244    
 DIIS: error= 1.64D-02 at cycle   1 NSaved=   1.
 NSaved= 1 IEnMin= 1 EnMin= -480.465015738244     IErMin= 1 ErrMin= 1.64D-02
 ErrMax= 1.64D-02  0.00D+00 EMaxC= 1.00D-01 BMatC= 4.97D-01 BMatP= 4.97D-01
 IDIUse=3 WtCom= 8.36D-01 WtEn= 1.64D-01
 Coeff-Com:  0.100D+01
 Coeff-En:   0.100D+01
 Coeff:      0.100D+01
 Gap=     0.301 Goal=   None    Shift=    0.000
 GapD=    0.301 DampG=1.000 DampE=0.500 DampFc=0.5000 IDamp=-1.
 Damping current iteration by 5.00D-01
 RMSDP=6.99D-02 MaxDP=9.43D+00              OVMax= 9.89D-01

 Cycle   2  Pass 1  IDiag  1:
 RMSU=  3.47D-02    CP:  1.48D+00
 E= -480.291403615386     Delta-E=        0.173612122858 Rises=F Damp=T
 DIIS: error= 1.23D-02 at cycle   2 NSaved=   2.
 NSaved= 2 IEnMin= 1 EnMin= -480.465015738244     IErMin= 2 ErrMin= 1.23D-02
 ErrMax= 1.23D-02  0.00D+00 EMaxC= 1.00D-01 BMatC= 1.18D-01 BMatP= 4.97D-01
 IDIUse=3 WtCom= 8.77D-01 WtEn= 1.23D-01
 Coeff-Com:  0.243D+00 0.757D+00
 Coeff-En:   0.657D+00 0.343D+00
 Coeff:      0.294D+00 0.706D+00
 Gap=    -0.317 Goal=   None    Shift=    0.000
 RMSDP=3.47D-02 MaxDP=4.70D+00 DE= 1.74D-01 OVMax= 9.67D-01

 Cycle   3  Pass 1  IDiag  1:
 RMSU=  2.24D-03    CP:  9.30D-01  1.03D-02
 E= -480.739326362324     Delta-E=       -0.447922746938 Rises=F Damp=F
 DIIS: error= 1.15D-02 at cycle   3 NSaved=   3.
 NSaved= 3 IEnMin= 3 EnMin= -480.739326362324     IErMin= 3 ErrMin= 1.15D-02
 ErrMax= 1.15D-02  0.00D+00 EMaxC= 1.00D-01 BMatC= 1.07D-01 BMatP= 1.18D-01
 IDIUse=3 WtCom= 8.85D-01 WtEn= 1.15D-01
 Coeff-Com:  0.171D-01 0.483D+00 0.500D+00
 Coeff-En:   0.000D+00 0.000D+00 0.100D+01
 Coeff:      0.151D-01 0.428D+00 0.557D+00
 Gap=     0.233 Goal=   None    Shift=    0.000
 RMSDP=8.25D-04 MaxDP=6.61D-02 DE=-4.48D-01 OVMax= 5.46D-02

 Cycle   4  Pass 1  IDiag  1:
 RMSU=  8.14D-04    CP:  9.31D-01  1.36D-02  1.03D+00
 E= -480.829198193565     Delta-E=       -0.089871831241 Rises=F Damp=F
 DIIS: error= 3.57D-03 at cycle   4 NSaved=   4.
 NSaved= 4 IEnMin= 4 EnMin= -480.829198193565     IErMin= 4 ErrMin= 3.57D-03
 ErrMax= 3.57D-03  0.00D+00 EMaxC= 1.00D-01 BMatC= 1.11D-02 BMatP= 1.07D-01
 IDIUse=3 WtCom= 9.64D-01 WtEn= 3.57D-02
 Coeff-Com: -0.696D-01 0.205D+00 0.123D+00 0.742D+00
 Coeff-En:   0.000D+00 0.000D+00 0.000D+00 0.100D+01
 Coeff:     -0.671D-01 0.198D+00 0.118D+00 0.751D+00
 Gap=     0.204 Goal=   None    Shift=    0.000
 RMSDP=4.21D-04 MaxDP=3.83D-02 DE=-8.99D-02 OVMax= 1.79D-02

 Cycle   5  Pass 1  IDiag  1:
 RMSU=  3.32D-04    CP:  9.29D-01  1.62D-02  1.07D+00  1.27D+00
 E= -480.839251429102     Delta-E=       -0.010053235537 Rises=F Damp=F
 DIIS: error= 2.48D-03 at cycle   5 NSaved=   5.
 NSaved= 5 IEnMin= 5 EnMin= -480.839251429102     IErMin= 5 ErrMin= 2.48D-03
 ErrMax= 2.48D-03  0.00D+00 EMaxC= 1.00D-01 BMatC= 3.79D-03 BMatP= 1.11D-02
 IDIUse=3 WtCom= 9.75D-01 WtEn= 2.48D-02
 Coeff-Com: -0.437D-01 0.864D-01-0.592D-01 0.273D+00 0.743D+00
 Coeff-En:   0.000D+00 0.000D+00 0.000D+00 0.000D+00 0.100D+01
 Coeff:     -0.426D-01 0.843D-01-0.577D-01 0.266D+00 0.750D+00
 Gap=     0.195 Goal=   None    Shift=    0.000
 RMSDP=2.26D-04 MaxDP=1.88D-02 DE=-1.01D-02 OVMax= 1.42D-02

 Cycle   6  Pass 1  IDiag  1:
 RMSU=  1.10D-04    CP:  9.29D-01  1.75D-02  1.08D+00  1.47D+00  1.30D+00
 E= -480.842439747417     Delta-E=       -0.003188318315 Rises=F Damp=F
 DIIS: error= 8.74D-04 at cycle   6 NSaved=   6.
 NSaved= 6 IEnMin= 6 EnMin= -480.842439747417     IErMin= 6 ErrMin= 8.74D-04
 ErrMax= 8.74D-04  0.00D+00 EMaxC= 1.00D-01 BMatC= 5.79D-04 BMatP= 3.79D-03
 IDIUse=3 WtCom= 9.91D-01 WtEn= 8.74D-03
 Coeff-Com: -0.416D-02 0.946D-02-0.738D-01-0.106D+00 0.302D+00 0.873D+00
 Coeff-En:   0.000D+00 0.000D+00 0.000D+00 0.000D+00 0.000D+00 0.100D+01
 Coeff:     -0.412D-02 0.938D-02-0.732D-01-0.105D+00 0.299D+00 0.874D+00
 Gap=     0.191 Goal=   None    Shift=    0.000
 RMSDP=1.85D-04 MaxDP=3.32D-02 DE=-3.19D-03 OVMax= 6.73D-03

 Cycle   7  Pass 1  IDiag  1:
 RMSU=  7.43D-05    CP:  9.33D-01  1.90D-02  1.09D+00  1.61D+00  1.61D+00
                    CP:  1.34D+00
 E= -480.843156536580     Delta-E=       -0.000716789164 Rises=F Damp=F
 DIIS: error= 1.08D-04 at cycle   7 NSaved=   7.
 NSaved= 7 IEnMin= 7 EnMin= -480.843156536580     IErMin= 7 ErrMin= 1.08D-04
 ErrMax= 1.08D-04  0.00D+00 EMaxC= 1.00D-01 BMatC= 1.65D-05 BMatP= 5.79D-04
 IDIUse=3 WtCom= 9.99D-01 WtEn= 1.08D-03
 Coeff-Com:  0.149D-02-0.466D-03-0.186D-01-0.517D-01 0.319D-01 0.266D+00
 Coeff-Com:  0.772D+00
 Coeff-En:   0.000D+00 0.000D+00 0.000D+00 0.000D+00 0.000D+00 0.000D+00
 Coeff-En:   0.100D+01
 Coeff:      0.149D-02-0.466D-03-0.186D-01-0.516D-01 0.318D-01 0.265D+00
 Coeff:      0.772D+00
 Gap=     0.191 Goal=   None    Shift=    0.000
 RMSDP=3.07D-05 MaxDP=2.32D-03 DE=-7.17D-04 OVMax= 1.78D-03

 Cycle   8  Pass 1  IDiag  1:
 RMSU=  2.01D-05    CP:  9.32D-01  1.91D-02  1.09D+00  1.62D+00  1.65D+00
                    CP:  1.47D+00  1.03D+00
 E= -480.843170160244     Delta-E=       -0.000013623664 Rises=F Damp=F
 DIIS: error= 8.15D-05 at cycle   8 NSaved=   8.
 NSaved= 8 IEnMin= 8 EnMin= -480.843170160244     IErMin= 8 ErrMin= 8.15D-05
 ErrMax= 8.15D-05  0.00D+00 EMaxC= 1.00D-01 BMatC= 6.45D-06 BMatP= 1.65D-05
 IDIUse=1 WtCom= 1.00D+00 WtEn= 0.00D+00
 Coeff-Com:  0.880D-03-0.134D-03-0.152D-02-0.134D-01-0.122D-01 0.422D-01
 Coeff-Com:  0.444D+00 0.540D+00
 Coeff:      0.880D-03-0.134D-03-0.152D-02-0.134D-01-0.122D-01 0.422D-01
 Coeff:      0.444D+00 0.540D+00
 Gap=     0.192 Goal=   None    Shift=    0.000
 RMSDP=1.02D-05 MaxDP=9.93D-04 DE=-1.36D-05 OVMax= 8.00D-04

 Cycle   9  Pass 1  IDiag  1:
 RMSU=  7.97D-06    CP:  9.32D-01  1.91D-02  1.09D+00  1.61D+00  1.65D+00
                    CP:  1.49D+00  1.07D+00  1.15D+00
 E= -480.843174781837     Delta-E=       -0.000004621592 Rises=F Damp=F
 DIIS: error= 1.74D-05 at cycle   9 NSaved=   9.
 NSaved= 9 IEnMin= 9 EnMin= -480.843174781837     IErMin= 9 ErrMin= 1.74D-05
 ErrMax= 1.74D-05  0.00D+00 EMaxC= 1.00D-01 BMatC= 3.71D-07 BMatP= 6.45D-06
 IDIUse=1 WtCom= 1.00D+00 WtEn= 0.00D+00
 Coeff-Com: -0.248D-04 0.344D-03 0.172D-02 0.246D-02-0.583D-02-0.206D-01
 Coeff-Com:  0.576D-01 0.210D+00 0.754D+00
 Coeff:     -0.248D-04 0.344D-03 0.172D-02 0.246D-02-0.583D-02-0.206D-01
 Coeff:      0.576D-01 0.210D+00 0.754D+00
 Gap=     0.192 Goal=   None    Shift=    0.000
 RMSDP=4.05D-06 MaxDP=4.07D-04 DE=-4.62D-06 OVMax= 1.89D-04

 Cycle  10  Pass 1  IDiag  1:
 RMSU=  2.53D-06    CP:  9.32D-01  1.91D-02  1.09D+00  1.61D+00  1.65D+00
                    CP:  1.50D+00  1.09D+00  1.24D+00  1.06D+00
 E= -480.843175053869     Delta-E=       -0.000000272032 Rises=F Damp=F
 DIIS: error= 7.32D-06 at cycle  10 NSaved=  10.
 NSaved=10 IEnMin=10 EnMin= -480.843175053869     IErMin=10 ErrMin= 7.32D-06
 ErrMax= 7.32D-06  0.00D+00 EMaxC= 1.00D-01 BMatC= 6.91D-08 BMatP= 3.71D-07
 IDIUse=1 WtCom= 1.00D+00 WtEn= 0.00D+00
 Coeff-Com: -0.102D-03 0.698D-04 0.837D-03 0.238D-02-0.168D-02-0.155D-01
 Coeff-Com: -0.228D-01 0.414D-01 0.352D+00 0.644D+00
 Coeff:     -0.102D-03 0.698D-04 0.837D-03 0.238D-02-0.168D-02-0.155D-01
 Coeff:     -0.228D-01 0.414D-01 0.352D+00 0.644D+00
 Gap=     0.192 Goal=   None    Shift=    0.000
 RMSDP=1.72D-06 MaxDP=1.49D-04 DE=-2.72D-07 OVMax= 7.30D-05

 Cycle  11  Pass 1  IDiag  1:
 RMSU=  6.14D-07    CP:  9.32D-01  1.91D-02  1.09D+00  1.61D+00  1.65D+00
                    CP:  1.50D+00  1.10D+00  1.29D+00  1.14D+00  1.08D+00
 E= -480.843175125734     Delta-E=       -0.000000071865 Rises=F Damp=F
 DIIS: error= 1.48D-06 at cycle  11 NSaved=  11.
 NSaved=11 IEnMin=11 EnMin= -480.843175125734     IErMin=11 ErrMin= 1.48D-06
 ErrMax= 1.48D-06  0.00D+00 EMaxC= 1.00D-01 BMatC= 2.64D-09 BMatP= 6.91D-08
 IDIUse=1 WtCom= 1.00D+00 WtEn= 0.00D+00
 Coeff-Com: -0.303D-04 0.349D-04 0.656D-04 0.332D-03-0.584D-04-0.205D-02
 Coeff-Com: -0.958D-02-0.514D-02 0.210D-01 0.149D+00 0.846D+00
 Coeff:     -0.303D-04 0.349D-04 0.656D-04 0.332D-03-0.584D-04-0.205D-02
 Coeff:     -0.958D-02-0.514D-02 0.210D-01 0.149D+00 0.846D+00
 Gap=     0.192 Goal=   None    Shift=    0.000
 RMSDP=5.28D-07 MaxDP=5.05D-05 DE=-7.19D-08 OVMax= 2.25D-05

 Cycle  12  Pass 1  IDiag  1:
 RMSU=  1.93D-07    CP:  9.32D-01  1.91D-02  1.09D+00  1.61D+00  1.65D+00
                    CP:  1.50D+00  1.10D+00  1.30D+00  1.15D+00  1.19D+00
                    CP:  1.24D+00
 E= -480.843175129039     Delta-E=       -0.000000003305 Rises=F Damp=F
 DIIS: error= 5.13D-07 at cycle  12 NSaved=  12.
 NSaved=12 IEnMin=12 EnMin= -480.843175129039     IErMin=12 ErrMin= 5.13D-07
 ErrMax= 5.13D-07  0.00D+00 EMaxC= 1.00D-01 BMatC= 3.31D-10 BMatP= 2.64D-09
 IDIUse=1 WtCom= 1.00D+00 WtEn= 0.00D+00
 Coeff-Com:  0.884D-06 0.218D-05-0.513D-04-0.115D-03 0.457D-04 0.587D-03
 Coeff-Com: -0.104D-02-0.509D-02-0.260D-01-0.160D-01 0.273D+00 0.775D+00
 Coeff:      0.884D-06 0.218D-05-0.513D-04-0.115D-03 0.457D-04 0.587D-03
 Coeff:     -0.104D-02-0.509D-02-0.260D-01-0.160D-01 0.273D+00 0.775D+00
 Gap=     0.192 Goal=   None    Shift=    0.000
 RMSDP=1.60D-07 MaxDP=1.26D-05 DE=-3.30D-09 OVMax= 9.91D-06

 Cycle  13  Pass 1  IDiag  1:
 RMSU=  4.81D-08    CP:  9.32D-01  1.91D-02  1.09D+00  1.61D+00  1.65D+00
                    CP:  1.50D+00  1.10D+00  1.31D+00  1.16D+00  1.22D+00
                    CP:  1.35D+00  1.09D+00
 E= -480.843175129541     Delta-E=       -0.000000000502 Rises=F Damp=F
 DIIS: error= 1.23D-07 at cycle  13 NSaved=  13.
 NSaved=13 IEnMin=13 EnMin= -480.843175129541     IErMin=13 ErrMin= 1.23D-07
 ErrMax= 1.23D-07  0.00D+00 EMaxC= 1.00D-01 BMatC= 2.38D-11 BMatP= 3.31D-10
 IDIUse=1 WtCom= 1.00D+00 WtEn= 0.00D+00
 Coeff-Com:  0.229D-05-0.260D-06-0.225D-04-0.634D-04 0.266D-04 0.372D-03
 Coeff-Com:  0.508D-03-0.109D-02-0.102D-01-0.183D-01 0.936D-02 0.233D+00
 Coeff-Com:  0.786D+00
 Coeff:      0.229D-05-0.260D-06-0.225D-04-0.634D-04 0.266D-04 0.372D-03
 Coeff:      0.508D-03-0.109D-02-0.102D-01-0.183D-01 0.936D-02 0.233D+00
 Coeff:      0.786D+00
 Gap=     0.192 Goal=   None    Shift=    0.000
 RMSDP=3.87D-08 MaxDP=2.72D-06 DE=-5.02D-10 OVMax= 3.96D-06

 Cycle  14  Pass 1  IDiag  1:
 RMSU=  1.99D-08    CP:  9.32D-01  1.91D-02  1.09D+00  1.61D+00  1.65D+00
                    CP:  1.50D+00  1.10D+00  1.31D+00  1.16D+00  1.22D+00
                    CP:  1.37D+00  1.13D+00  1.15D+00
 E= -480.843175129592     Delta-E=       -0.000000000050 Rises=F Damp=F
 DIIS: error= 4.52D-08 at cycle  14 NSaved=  14.
 NSaved=14 IEnMin=14 EnMin= -480.843175129592     IErMin=14 ErrMin= 4.52D-08
 ErrMax= 4.52D-08  0.00D+00 EMaxC= 1.00D-01 BMatC= 2.58D-12 BMatP= 2.38D-11
 IDIUse=1 WtCom= 1.00D+00 WtEn= 0.00D+00
 Coeff-Com:  0.175D-06-0.143D-06 0.577D-05 0.114D-04-0.763D-05-0.443D-04
 Coeff-Com:  0.263D-03 0.716D-03 0.235D-02-0.327D-03-0.421D-01-0.823D-01
 Coeff-Com:  0.147D+00 0.974D+00
 Coeff:      0.175D-06-0.143D-06 0.577D-05 0.114D-04-0.763D-05-0.443D-04
 Coeff:      0.263D-03 0.716D-03 0.235D-02-0.327D-03-0.421D-01-0.823D-01
 Coeff:      0.147D+00 0.974D+00
 Gap=     0.192 Goal=   None    Shift=    0.000
 RMSDP=1.68D-08 MaxDP=1.43D-06 DE=-5.05D-11 OVMax= 2.35D-06

 Cycle  15  Pass 1  IDiag  1:
 RMSU=  7.31D-09    CP:  9.32D-01  1.91D-02  1.09D+00  1.61D+00  1.65D+00
                    CP:  1.50D+00  1.10D+00  1.31D+00  1.16D+00  1.22D+00
                    CP:  1.38D+00  1.16D+00  1.30D+00  1.25D+00
 E= -480.843175129557     Delta-E=        0.000000000035 Rises=F Damp=F
 DIIS: error= 1.52D-08 at cycle  15 NSaved=  15.
 NSaved=15 IEnMin=14 EnMin= -480.843175129592     IErMin=15 ErrMin= 1.52D-08
 ErrMax= 1.52D-08  0.00D+00 EMaxC= 1.00D-01 BMatC= 1.50D-13 BMatP= 2.58D-12
 IDIUse=1 WtCom= 1.00D+00 WtEn= 0.00D+00
 Coeff-Com: -0.190D-06 0.370D-07 0.175D-05 0.538D-05-0.150D-05-0.258D-04
 Coeff-Com: -0.142D-04 0.125D-03 0.902D-03 0.138D-02-0.441D-02-0.246D-01
 Coeff-Com: -0.492D-01 0.747D-01 0.100D+01
 Coeff:     -0.190D-06 0.370D-07 0.175D-05 0.538D-05-0.150D-05-0.258D-04
 Coeff:     -0.142D-04 0.125D-03 0.902D-03 0.138D-02-0.441D-02-0.246D-01
 Coeff:     -0.492D-01 0.747D-01 0.100D+01
 Gap=     0.192 Goal=   None    Shift=    0.000
 RMSDP=3.94D-09 MaxDP=3.56D-07 DE= 3.46D-11 OVMax= 6.91D-07

 SCF Done:  E(RM062X) =  -480.843175130     A.U. after   15 cycles
            NFock= 15  Conv=0.39D-08     -V/T= 2.0048
 KE= 4.785395564997D+02 PE=-2.279564320412D+03 EE= 7.409261209013D+02
 Leave Link  502 at Mon Feb 20 01:25:35 2023, MaxMem=  6710886400 cpu:            2661.1 elap:             111.2
 (Enter /data0/home/software/g16/l601.exe)
 Copying SCF densities to generalized density rwf, IOpCl= 0 IROHF=0.

 **********************************************************************

            Population analysis using the SCF density.

 **********************************************************************

 Alpha  occ. eigenvalues --  -19.48355 -19.48169 -14.93392 -10.65447 -10.65207
 Alpha  occ. eigenvalues --  -10.64977 -10.61909 -10.55878 -10.54971 -10.50422
 Alpha  occ. eigenvalues --   -1.18156  -1.07725  -0.97487  -0.91382  -0.89842
 Alpha  occ. eigenvalues --   -0.89483  -0.82902  -0.75767  -0.69654  -0.65102
 Alpha  occ. eigenvalues --   -0.64621  -0.63022  -0.57575  -0.56026  -0.54107
 Alpha  occ. eigenvalues --   -0.52508  -0.52022  -0.51715  -0.51623  -0.50698
[...]
 One-electron integrals computed using PRISM.
 NBasis=   161 RedAO= T EigKep=  5.99D-04  NBF=   161
 NBsUse=   161 1.00D-06 EigRej= -1.00D+00 NBFU=   161
 Precomputing XC quadrature grid using
 IXCGrd= 4 IRadAn=           5 IRanWt=          -1 IRanGd=           0 AccXCQ= 0.00D+00.
 Generated NRdTot=       0 NPtTot=           0 NUsed=           0 NTot=          32
 NSgBfM=   171   171   171   171   171 MxSgAt=     8 MxSgA2=     8.
 Leave Link  302 at Mon Feb 20 01:27:48 2023, MaxMem=  6710886400 cpu:               2.9 elap:               0.1
 (Enter /data0/home/software/g16/l303.exe)
 DipDrv:  MaxL=1.
 Leave Link  303 at Mon Feb 20 01:27:48 2023, MaxMem=  6710886400 cpu:               0.5 elap:               0.0
 (Enter /data0/home/software/g16/l401.exe)
 ExpMin= 3.48D-02 ExpMax= 7.75D+04 ExpMxC= 2.65D+03 IAcc=3 IRadAn=         5 AccDes= 0.00D+00
 Harris functional with IExCor= 1009 and IRadAn=       5 diagonalized for initial guess.
 HarFok:  IExCor= 1009 AccDes= 0.00D+00 IRadAn=         5 IDoV= 1 UseB2=F ITyADJ=14
 ICtDFT=  3500011 ScaDFX=  1.000000  1.000000  1.000000  1.000000
 FoFCou: FMM=F IPFlag=           0 FMFlag=      100000 FMFlg1=           0
         NFxFlg=           0 DoJE=T BraDBF=F KetDBF=T FulRan=T
         wScrn=  0.000000 ICntrl=       500 IOpCl=  0 I1Cent=   200000004 NGrid=           0
         NMat0=    1 NMatS0=      1 NMatT0=    0 NMatD0=    1 NMtDS0=    0 NMtDT0=    0
 Symmetry not used in FoFCou.
 Harris En= -643.938281574066    
 JPrj=0 DoOrth=F DoCkMO=F.
 Leave Link  401 at Mon Feb 20 01:27:49 2023, MaxMem=  6710886400 cpu:               6.0 elap:               0.3
 (Enter /data0/home/software/g16/l502.exe)
 Keep R1 ints in memory in canonical form, NReq=108966253.
 FoFCou: FMM=F IPFlag=           0 FMFlag=           0 FMFlg1=           0
         NFxFlg=           0 DoJE=F BraDBF=F KetDBF=F FulRan=T
         wScrn=  0.000000 ICntrl=       600 IOpCl=  0 I1Cent=           0 NGrid=           0
         NMat0=    1 NMatS0=  13041 NMatT0=    0 NMatD0=    1 NMtDS0=    0 NMtDT0=    0
 Symmetry not used in FoFCou.
 Two-electron integral symmetry not used.
 Closed shell SCF:
 Using DIIS extrapolation, IDIIS=  1040.
 NGot=  6710886400 LenX=  6625781403 LenY=  6625751721
 Requested convergence on RMS density matrix=1.00D-08 within 128 cycles.
 Requested convergence on MAX density matrix=1.00D-06.
 Requested convergence on             energy=1.00D-06.
 No special actions if energy rises.

 Cycle   1  Pass 1  IDiag  1:
 E= -643.841780109372    
 DIIS: error= 4.92D-02 at cycle   1 NSaved=   1.
 NSaved= 1 IEnMin= 1 EnMin= -643.841780109372     IErMin= 1 ErrMin= 4.92D-02
 ErrMax= 4.92D-02  0.00D+00 EMaxC= 1.00D-01 BMatC= 5.12D-01 BMatP= 5.12D-01
 IDIUse=3 WtCom= 5.08D-01 WtEn= 4.92D-01
 Coeff-Com:  0.100D+01
 Coeff-En:   0.100D+01
 Coeff:      0.100D+01
 Gap=     0.227 Goal=   None    Shift=    0.000
 GapD=    0.227 DampG=1.000 DampE=0.500 DampFc=0.5000 IDamp=-1.
 Damping current iteration by 5.00D-01
 RMSDP=8.07D-03 MaxDP=2.12D-01              OVMax= 2.78D-01

 Cycle   2  Pass 1  IDiag  1:
 E= -643.958287223165     Delta-E=       -0.116507113793 Rises=F Damp=T
 DIIS: error= 1.07D-02 at cycle   2 NSaved=   2.
 NSaved= 2 IEnMin= 2 EnMin= -643.958287223165     IErMin= 2 ErrMin= 1.07D-02
 ErrMax= 1.07D-02  0.00D+00 EMaxC= 1.00D-01 BMatC= 2.83D-02 BMatP= 5.12D-01
 IDIUse=3 WtCom= 8.93D-01 WtEn= 1.07D-01
 Coeff-Com:  0.788D-01 0.921D+00
 Coeff-En:   0.215D+00 0.785D+00
 Coeff:      0.934D-01 0.907D+00
 Gap=     0.333 Goal=   None    Shift=    0.000
 RMSDP=1.96D-03 MaxDP=7.34D-02 DE=-1.17D-01 OVMax= 1.84D-01

 Cycle   3  Pass 1  IDiag  1:
 E= -644.129605496017     Delta-E=       -0.171318272852 Rises=F Damp=F
 DIIS: error= 7.26D-03 at cycle   3 NSaved=   3.
 NSaved= 3 IEnMin= 3 EnMin= -644.129605496017     IErMin= 3 ErrMin= 7.26D-03
 ErrMax= 7.26D-03  0.00D+00 EMaxC= 1.00D-01 BMatC= 1.07D-02 BMatP= 2.83D-02
 IDIUse=3 WtCom= 9.27D-01 WtEn= 7.26D-02
 Coeff-Com: -0.113D-01 0.342D+00 0.670D+00
 Coeff-En:   0.000D+00 0.000D+00 0.100D+01
 Coeff:     -0.105D-01 0.317D+00 0.694D+00
 Gap=     0.323 Goal=   None    Shift=    0.000
 RMSDP=6.93D-04 MaxDP=1.53D-02 DE=-1.71D-01 OVMax= 3.60D-02

 Cycle   4  Pass 1  IDiag  1:
 E= -644.134448680626     Delta-E=       -0.004843184609 Rises=F Damp=F
 DIIS: error= 4.14D-03 at cycle   4 NSaved=   4.
 NSaved= 4 IEnMin= 4 EnMin= -644.134448680626     IErMin= 4 ErrMin= 4.14D-03
 ErrMax= 4.14D-03  0.00D+00 EMaxC= 1.00D-01 BMatC= 4.08D-03 BMatP= 1.07D-02
 IDIUse=3 WtCom= 9.59D-01 WtEn= 4.14D-02
 Coeff-Com: -0.206D-01 0.465D-01 0.402D+00 0.572D+00
 Coeff-En:   0.000D+00 0.000D+00 0.276D+00 0.724D+00
 Coeff:     -0.197D-01 0.446D-01 0.396D+00 0.579D+00
 Gap=     0.329 Goal=   None    Shift=    0.000
 RMSDP=2.73D-04 MaxDP=6.34D-03 DE=-4.84D-03 OVMax= 1.16D-02

 Cycle   5  Pass 1  IDiag  1:
 E= -644.137150032460     Delta-E=       -0.002701351834 Rises=F Damp=F
 DIIS: error= 2.37D-04 at cycle   5 NSaved=   5.
 NSaved= 5 IEnMin= 5 EnMin= -644.137150032460     IErMin= 5 ErrMin= 2.37D-04
 ErrMax= 2.37D-04  0.00D+00 EMaxC= 1.00D-01 BMatC= 1.67D-05 BMatP= 4.08D-03
 IDIUse=3 WtCom= 9.98D-01 WtEn= 2.37D-03
 Coeff-Com: -0.226D-02-0.364D-03 0.564D-01 0.117D+00 0.829D+00
 Coeff-En:   0.000D+00 0.000D+00 0.000D+00 0.000D+00 0.100D+01
 Coeff:     -0.225D-02-0.363D-03 0.563D-01 0.117D+00 0.830D+00
 Gap=     0.328 Goal=   None    Shift=    0.000
 RMSDP=2.89D-05 MaxDP=7.47D-04 DE=-2.70D-03 OVMax= 7.95D-04

 Cycle   6  Pass 1  IDiag  1:
 E= -644.137161048359     Delta-E=       -0.000011015899 Rises=F Damp=F
 DIIS: error= 8.32D-05 at cycle   6 NSaved=   6.
 NSaved= 6 IEnMin= 6 EnMin= -644.137161048359     IErMin= 6 ErrMin= 8.32D-05
 ErrMax= 8.32D-05  0.00D+00 EMaxC= 1.00D-01 BMatC= 1.65D-06 BMatP= 1.67D-05
 IDIUse=1 WtCom= 1.00D+00 WtEn= 0.00D+00
 Coeff-Com: -0.120D-04-0.172D-02 0.315D-02 0.147D-01 0.259D+00 0.725D+00
 Coeff:     -0.120D-04-0.172D-02 0.315D-02 0.147D-01 0.259D+00 0.725D+00
 Gap=     0.329 Goal=   None    Shift=    0.000
 RMSDP=1.10D-05 MaxDP=2.57D-04 DE=-1.10D-05 OVMax= 2.75D-04

 Cycle   7  Pass 1  IDiag  1:
 E= -644.137162131546     Delta-E=       -0.000001083187 Rises=F Damp=F
 DIIS: error= 4.16D-05 at cycle   7 NSaved=   7.
 NSaved= 7 IEnMin= 7 EnMin= -644.137162131546     IErMin= 7 ErrMin= 4.16D-05
 ErrMax= 4.16D-05  0.00D+00 EMaxC= 1.00D-01 BMatC= 3.84D-07 BMatP= 1.65D-06
 IDIUse=1 WtCom= 1.00D+00 WtEn= 0.00D+00
 Coeff-Com:  0.378D-03-0.647D-03-0.890D-02-0.143D-01-0.223D-01 0.323D+00
 Coeff-Com:  0.723D+00
 Coeff:      0.378D-03-0.647D-03-0.890D-02-0.143D-01-0.223D-01 0.323D+00
 Coeff:      0.723D+00
 Gap=     0.329 Goal=   None    Shift=    0.000
 RMSDP=4.63D-06 MaxDP=9.92D-05 DE=-1.08D-06 OVMax= 1.36D-04

 Cycle   8  Pass 1  IDiag  1:
 E= -644.137162396168     Delta-E=       -0.000000264622 Rises=F Damp=F
 DIIS: error= 1.04D-05 at cycle   8 NSaved=   8.
 NSaved= 8 IEnMin= 8 EnMin= -644.137162396168     IErMin= 8 ErrMin= 1.04D-05
 ErrMax= 1.04D-05  0.00D+00 EMaxC= 1.00D-01 BMatC= 3.06D-08 BMatP= 3.84D-07
 IDIUse=1 WtCom= 1.00D+00 WtEn= 0.00D+00
 Coeff-Com:  0.139D-03-0.166D-03-0.377D-02-0.611D-02-0.173D-01 0.914D-01
 Coeff-Com:  0.304D+00 0.632D+00
 Coeff:      0.139D-03-0.166D-03-0.377D-02-0.611D-02-0.173D-01 0.914D-01
 Coeff:      0.304D+00 0.632D+00
 Gap=     0.329 Goal=   None    Shift=    0.000
 RMSDP=8.88D-07 MaxDP=2.64D-05 DE=-2.65D-07 OVMax= 3.48D-05

 Cycle   9  Pass 1  IDiag  1:
 E= -644.137162419871     Delta-E=       -0.000000023703 Rises=F Damp=F
 DIIS: error= 1.75D-06 at cycle   9 NSaved=   9.
 NSaved= 9 IEnMin= 9 EnMin= -644.137162419871     IErMin= 9 ErrMin= 1.75D-06
 ErrMax= 1.75D-06  0.00D+00 EMaxC= 1.00D-01 BMatC= 9.24D-10 BMatP= 3.06D-08
 IDIUse=1 WtCom= 1.00D+00 WtEn= 0.00D+00
 Coeff-Com: -0.270D-04 0.534D-04 0.267D-03 0.588D-03-0.799D-03-0.194D-01
 Coeff-Com: -0.296D-01 0.732D-01 0.976D+00
 Coeff:     -0.270D-04 0.534D-04 0.267D-03 0.588D-03-0.799D-03-0.194D-01
 Coeff:     -0.296D-01 0.732D-01 0.976D+00
 Gap=     0.329 Goal=   None    Shift=    0.000
 RMSDP=3.79D-07 MaxDP=9.64D-06 DE=-2.37D-08 OVMax= 1.33D-05

 Cycle  10  Pass 1  IDiag  1:
 E= -644.137162421042     Delta-E=       -0.000000001171 Rises=F Damp=F
 DIIS: error= 2.84D-07 at cycle  10 NSaved=  10.
 NSaved=10 IEnMin=10 EnMin= -644.137162421042     IErMin=10 ErrMin= 2.84D-07
 ErrMax= 2.84D-07  0.00D+00 EMaxC= 1.00D-01 BMatC= 1.74D-11 BMatP= 9.24D-10
 IDIUse=1 WtCom= 1.00D+00 WtEn= 0.00D+00
 Coeff-Com: -0.250D-05 0.380D-05 0.103D-03 0.164D-03 0.521D-03-0.330D-02
 Coeff-Com: -0.115D-01-0.191D-01 0.731D-02 0.103D+01
 Coeff:     -0.250D-05 0.380D-05 0.103D-03 0.164D-03 0.521D-03-0.330D-02
 Coeff:     -0.115D-01-0.191D-01 0.731D-02 0.103D+01
 Gap=     0.329 Goal=   None    Shift=    0.000
 RMSDP=7.56D-08 MaxDP=1.40D-06 DE=-1.17D-09 OVMax= 3.45D-06

 Cycle  11  Pass 1  IDiag  1:
 E= -644.137162421063     Delta-E=       -0.000000000022 Rises=F Damp=F
 DIIS: error= 1.67D-07 at cycle  11 NSaved=  11.
 NSaved=11 IEnMin=11 EnMin= -644.137162421063     IErMin=11 ErrMin= 1.67D-07
 ErrMax= 1.67D-07  0.00D+00 EMaxC= 1.00D-01 BMatC= 5.43D-12 BMatP= 1.74D-11
 IDIUse=1 WtCom= 1.00D+00 WtEn= 0.00D+00
 Coeff-Com:  0.545D-06-0.139D-05 0.268D-04 0.345D-04 0.234D-03-0.388D-03
 Coeff-Com: -0.292D-02-0.103D-01-0.460D-01 0.409D+00 0.651D+00
 Coeff:      0.545D-06-0.139D-05 0.268D-04 0.345D-04 0.234D-03-0.388D-03
 Coeff:     -0.292D-02-0.103D-01-0.460D-01 0.409D+00 0.651D+00
 Gap=     0.329 Goal=   None    Shift=    0.000
 RMSDP=1.69D-08 MaxDP=3.96D-07 DE=-2.18D-11 OVMax= 5.98D-07

 Cycle  12  Pass 1  IDiag  1:
 E= -644.137162421070     Delta-E=       -0.000000000007 Rises=F Damp=F
 DIIS: error= 7.41D-08 at cycle  12 NSaved=  12.
 NSaved=12 IEnMin=12 EnMin= -644.137162421070     IErMin=12 ErrMin= 7.41D-08
 ErrMax= 7.41D-08  0.00D+00 EMaxC= 1.00D-01 BMatC= 1.02D-12 BMatP= 5.43D-12
 IDIUse=1 WtCom= 1.00D+00 WtEn= 0.00D+00
 Coeff-Com:  0.710D-06-0.134D-05-0.574D-05-0.124D-04 0.107D-04 0.408D-03
 Coeff-Com:  0.862D-03-0.956D-03-0.228D-01-0.250D-02 0.307D+00 0.718D+00
 Coeff:      0.710D-06-0.134D-05-0.574D-05-0.124D-04 0.107D-04 0.408D-03
 Coeff:      0.862D-03-0.956D-03-0.228D-01-0.250D-02 0.307D+00 0.718D+00
 Gap=     0.329 Goal=   None    Shift=    0.000
 RMSDP=7.60D-09 MaxDP=1.63D-07 DE=-6.82D-12 OVMax= 3.04D-07

 SCF Done:  E(RM062X) =  -644.137162421     A.U. after   12 cycles
            NFock= 12  Conv=0.76D-08     -V/T= 2.0025
 KE= 6.425030664389D+02 PE=-2.087449014405D+03 EE= 5.208849158771D+02
 Leave Link  502 at Mon Feb 20 01:27:55 2023, MaxMem=  6710886400 cpu:             108.4 elap:               6.2
 (Enter /data0/home/software/g16/l601.exe)
 Copying SCF densities to generalized density rwf, IOpCl= 0 IROHF=0.

 **********************************************************************

            Population analysis using the SCF density.

 **********************************************************************

 Alpha  occ. eigenvalues --  -78.16853 -19.69698 -19.68931 -19.68349 -19.57912
 Alpha  occ. eigenvalues --   -6.97647  -5.09566  -5.09547  -5.09301  -1.24701
 Alpha  occ. eigenvalues --   -1.17420  -1.16958  -1.08206  -0.72761  -0.65789
 Alpha  occ. eigenvalues --   -0.63985  -0.58950  -0.53490  -0.51929  -0.50112
 Alpha  occ. eigenvalues --   -0.46460  -0.45396  -0.45000  -0.37795  -0.36764
 Alpha virt. eigenvalues --   -0.03893   0.00834   0.02877   0.04665   0.08153
 Alpha virt. eigenvalues --    0.09198   0.10519   0.13138   0.15760   0.16953
 Alpha virt. eigenvalues --    0.17651   0.18388   0.19535   0.19828   0.21071
 Alpha virt. eigenvalues --    0.22404   0.24195   0.25662   0.26029   0.27226
 Alpha virt. eigenvalues --    0.27627   0.29282   0.30148   0.31959   0.32820
 Alpha virt. eigenvalues --    0.34548   0.36426   0.37952   0.40053   0.42907
 Alpha virt. eigenvalues --    0.44841   0.45367   0.51822   0.55842   0.57277
 Alpha virt. eigenvalues --    0.73494   0.76180   0.76337   0.85858   0.97855
 Alpha virt. eigenvalues --    1.00001   1.00325   1.05221   1.05728   1.11605
 Alpha virt. eigenvalues --    1.14126   1.14738   1.18129   1.19436   1.20297
 Alpha virt. eigenvalues --    1.21542   1.23673   1.25867   1.27100   1.32225
 Alpha virt. eigenvalues --    1.33014   1.41596   1.43322   1.49574   1.51173
 Alpha virt. eigenvalues --    1.52955   1.54654   1.57858   1.60106   1.63902
 Alpha virt. eigenvalues --    1.67009   1.67625   1.70768   1.72833   1.82251
 Alpha virt. eigenvalues --    1.82884   1.84459   1.87022   1.89841   1.96878
 Alpha virt. eigenvalues --    2.00233   2.03677   2.09502   2.11648   2.13911
 Alpha virt. eigenvalues --    2.18483   2.22303   2.25865   2.36485   2.43366
 Alpha virt. eigenvalues --    2.45657   2.56300   2.61688   2.62501   2.70223
 Alpha virt. eigenvalues --    2.72959   2.80953   2.85779   2.89775   2.94186
 Alpha virt. eigenvalues --    5.01139   5.03185   5.05704   5.06623   5.10595
 Alpha virt. eigenvalues --    5.13669   5.17510   5.23398   5.34745   5.43379
 Alpha virt. eigenvalues --    5.46478   5.51045   6.72021   6.73671   6.74989
 Alpha virt. eigenvalues --    6.77191   6.78419   6.80430   6.82890   6.85453
 Alpha virt. eigenvalues --    6.91003   6.92491   6.94433   6.98075   6.98929
 Alpha virt. eigenvalues --    7.02097   7.10775   7.24618   7.25683   7.28106
 Alpha virt. eigenvalues --    7.31597   7.40130   7.63993  14.23252  14.24050
 Alpha virt. eigenvalues --   14.33672  49.97455  49.99300  50.00262  50.10560
 Alpha virt. eigenvalues --  163.85620
          Condensed to atoms (all electrons):
              26         27         28         29         30         31
    26  P   12.486340   0.554155   0.171524   0.043398   0.237674   0.007496
    27  O    0.554155   8.142472  -0.037162   0.002130  -0.004881  -0.013943
    28  O    0.171524  -0.037162   8.117545   0.222326   0.004149  -0.000374
    29  H    0.043398   0.002130   0.222326   0.450614  -0.013763   0.002128
    30  O    0.237674  -0.004881   0.004149  -0.013763   8.040673   0.250840
    31  H    0.007496  -0.013943  -0.000374   0.002128   0.250840   0.455218
    32  O    0.224846  -0.010037   0.004709  -0.013298   0.032255  -0.002809
    33  H   -0.002395  -0.015593   0.000769   0.001352  -0.004871  -0.003252
              32         33
    26  P    0.224846  -0.002395
    27  O   -0.010037  -0.015593
    28  O    0.004709   0.000769
    29  H   -0.013298   0.001352
    30  O    0.032255  -0.004871
    31  H   -0.002809  -0.003252
    32  O    8.069191   0.261394
    33  H    0.261394   0.440411
 Mulliken charges:
               1
     1  C    0.000000
     2  H    0.000000
     3  H    0.000000
     4  H    0.000000
     5  C    0.000000
     6  H    0.000000
     7  H    0.000000
     8  H    0.000000
     9  C    0.000000
    10  H    0.000000
    11  H    0.000000
    12  H    0.000000
    13  C    0.000000
    14  H    0.000000
    15  H    0.000000
    16  C    0.000000
    17  H    0.000000
    18  H    0.000000
    19  C    0.000000
    20  H    0.000000
    21  H    0.000000
    22  N    0.000000
    23  C    0.000000
    24  O    0.000000
    25  O    0.000000
    26  P    1.276962
    27  O   -0.617141
    28  O   -0.483486
    29  H    0.305112
    30  O   -0.542076
    31  H    0.304695
    32  O   -0.566251
    33  H    0.322184
 Sum of Mulliken charges =  -0.00000
 Mulliken charges with hydrogens summed into heavy atoms:
               1
     1  C    0.000000
     5  C    0.000000
     9  C    0.000000
    13  C    0.000000
    16  C    0.000000
    19  C    0.000000
    22  N    0.000000
    23  C    0.000000
    24  O    0.000000
    25  O    0.000000
    26  P    1.276962
    27  O   -0.617141
    28  O   -0.178374
    30  O   -0.237381
    32  O   -0.244067
         Mulliken charges condensed to fragments:
      1      0.000000
      2     -0.000000
 Electronic spatial extent (au):  <R**2>=          54940.4959
 Charge=             -0.0000 electrons
 Dipole moment (field-independent basis, Debye):
    X=             -2.5103    Y=             -2.6060    Z=             -4.3072  Tot=              5.6254
 Quadrupole moment (field-independent basis, Debye-Ang):
   XX=            -92.7624   YY=            -82.7874   ZZ=           -108.1284
   XY=            -57.7935   XZ=            -72.0289   YZ=            -60.9786
 Traceless Quadrupole moment (field-independent basis, Debye-Ang):
   XX=              1.7970   YY=             11.7720   ZZ=            -13.5690
   XY=            -57.7935   XZ=            -72.0289   YZ=            -60.9786
 Octapole moment (field-independent basis, Debye-Ang**2):
  XXX=          -2339.1955  YYY=          -1577.2383  ZZZ=          -1792.2368  XYY=          -1288.3988
  XXY=          -1305.6820  XXZ=          -1381.6009  XZZ=          -1495.1722  YZZ=          -1151.8892
  YYZ=          -1049.8905  XYZ=           -943.7402
 Hexadecapole moment (field-independent basis, Debye-Ang**3):
 XXXX=         -49762.8152 YYYY=         -24315.8990 ZZZZ=         -24819.4159 XXXY=         -27287.8909
 XXXZ=         -26768.0074 YYYX=         -22270.8378 YYYZ=         -16463.3147 ZZZX=         -23640.4776
 ZZZY=         -17492.3115 XXYY=         -21709.0559 XXZZ=         -22681.0205 YYZZ=         -14557.2351
 XXYZ=         -16327.4534 YYXZ=         -14944.8327 ZZXY=         -15808.1576
 N-N= 2.799238696677D+02 E-N=-2.087449017645D+03  KE= 6.425030664389D+02
 No NMR shielding tensors so no spin-rotation constants.
 Leave Link  601 at Mon Feb 20 01:27:55 2023, MaxMem=  6710886400 cpu:               2.0 elap:               0.1
 (Enter /data0/home/software/g16/l122.exe)
 CPIOFr:  IOpCl= 0 IRwI=-1 IRwCP=  731 ICalc=  4 LCPTot=      418338 Len1MO=     1096859 IndFrg=     5902633
 Restoring MOs from calculation   1 to rwf.
 CPIOFr:  IOpCl= 0 IRwI=-2 IRwCP=  731 ICalc=  0 LCPTot=      418338 Len1MO=     1096859 IndFrg=     1515197
 Counterpoise corrected energy =   -1125.083472847948
                   BSSE energy =       0.002358653080
              sum of fragments =   -1124.979603220091
           complexation energy =     -66.66 kcal/mole (raw)
           complexation energy =     -65.18 kcal/mole (corrected)
 Leave Link  122 at Mon Feb 20 01:27:55 2023, MaxMem=  6710886400 cpu:               0.4 elap:               0.0
 (Enter /data0/home/software/g16/l9999.exe)
 1\1\GINC-LOCALHOST\SP\RM062X\6-311+G(2d,p)\C7H18N1O6P1\WUHANYU\20-Feb-
 2023\0\\#p M062X/6-311+G(2d,p) nosymm em=GD3 counterpoise=2\\Title Car
 d Required\\0,1\C,0,10.398852,9.663905,11.866971\H,0,11.34178,9.464781
 ,11.309012\H,0,10.662036,9.952543,12.892875\H,0,9.839135,8.707591,11.9
 06264\C,0,8.395089,11.064359,12.018397\H,0,7.759114,11.816586,11.52087
 9\H,0,7.773002,10.159306,12.185243\H,0,8.689639,11.45921,13.002461\C,0
 ,10.448735,11.953498,11.01435\H,0,9.840296,12.843915,10.753923\H,0,11.
 008968,12.187578,11.930211\H,0,11.18556,11.81252,10.19174\C,0,9.153373
 ,10.189935,9.834037\H,0,8.43244,9.356841,10.001289\H,0,10.055576,9.723
 737,9.360501\C,0,8.541331,11.218783,8.880438\H,0,9.271969,12.019552,8.
 630067\H,0,7.670397,11.728117,9.328206\C,0,8.123897,10.507023,7.588481
 \H,0,7.820769,11.240302,6.819144\H,0,7.253963,9.844194,7.754497\N,0,9.
 593202,10.734258,11.17915\C,0,9.316587,9.692607,7.076068\O,0,10.214891
 ,10.286564,6.4585\O,0,9.343624,8.47628,7.38501\P,0,12.748051,8.79265,8
 .237331\O,0,12.564578,9.921727,9.160709\O,0,14.171871,8.120238,8.45264
 4\H,0,14.24093,7.336449,7.779402\O,0,11.727118,7.596153,8.465613\H,0,1
 0.821583,7.828835,7.973039\O,0,12.702548,9.140649,6.693832\H,0,11.7397
 72,9.554351,6.478378\\Version=ES64L-G16RevA.03\HF=-644.1371624\RMSD=7.
 596e-09\Dipole=-2.495099,1.7323778,4.5088181\Quadrupole=-143.0452903,2
 4.7111735,118.3341168,-19.7724096,39.1066585,119.5407381\PG=C01 [X(C7H
 18N1O6P1)]\\@


 IF IT'S NOT TRUE, IT'S WELL INVENTED -- DANTE
 Job cpu time:       0 days  2 hours 20 minutes 25.5 seconds.
 Elapsed time:       0 days  0 hours  5 minutes 54.8 seconds.
 File lengths (MBytes):  RWF=    206 Int=      0 D2E=      0 Chk=     61 Scr=      1
 Normal termination of Gaussian 16 at Mon Feb 20 01:27:55 2023.
