          35
 Energy =     -0.60409600 a.u.  #Cluster:    1
C           9.84795500     14.61098900     10.82687900
C           9.86730900     13.31538800     10.20355800
C          10.89878800     12.97332500      9.32261000
C          11.87852800     13.92010800      9.08438500
C          11.85305100     15.19093800      9.70102800
C          10.84502100     15.55736800     10.57490700
H          10.91646900     11.99107800      8.85559400
H          12.70182700     13.68722700      8.40969400
H          12.65619000     15.89361600      9.47845900
H          10.82190700     16.53423300     11.05015600
H           8.37741000     15.43294600     12.17085200
C           8.07815800     13.40015200     11.47674200
H           7.15018800     13.14947900     11.97640400
N           8.71317500     14.63033100     11.63808400
N           8.75271800     12.59485000     10.63898000
P           6.11221200     14.51075900      8.68122800
O           5.81779300     14.15887700     10.07251500
O           7.06722600     13.56413900      7.84020900
H           7.12177700     12.59592000      8.26105100
O           4.75797200     14.60418800      7.85615400
H           4.98419900     14.83653800      6.88010900
O           6.78623200     15.93504100      8.49369400
H           7.73051700     15.81583800      8.05365700
O           9.33763200     15.40815900      7.36603900
H           9.12353100     14.50919000      7.08376900
H           9.93796500     15.29082700      8.11291500
O           7.35485800     11.05734000      8.90338600
H           8.07811900     11.29595200      9.54468100
H           6.59323900     10.90518500      9.46336900
O           7.39234700     16.60763000     13.07731400
H           7.23536000     16.56476300     14.01492800
H           6.50376800     16.55930600     12.66342400
O           4.93237700     16.25888600     11.95168300
H           5.12248000     15.49450700     11.37916800
H           4.70170700     16.95495400     11.33239700
          35
 Energy =     -0.60386900 a.u.  #Cluster:    2
C          10.46469000     14.55991200     11.51281700
C          10.49418100     13.72873300     10.34352600
C          11.71431900     13.37420100      9.75857200
C          12.86874800     13.85408400     10.34990900
C          12.83223600     14.67223700     11.50091400
C          11.63947400     15.03778300     12.09906000
H          11.73846100     12.74451600      8.87260400
H          13.83898100     13.59943400      9.92382100
H          13.77558000     15.02002500     11.92249000
H          11.60986100     15.66840900     12.98272900
H           8.74197600     15.30555100     12.58466700
C           8.37976700     14.02163000     10.88601300
H           7.29116500     13.97423700     10.89816500
N           9.11393400     14.71902800     11.83793100
N           9.17724400     13.41964800      9.98349300
P           5.57354300     14.34369600      7.93139000
O           6.05230100     14.79712800      9.24106800
O           5.30826400     12.78879700      7.77127500
H           6.11037100     12.25700900      8.17623200
O           4.15717200     14.97594800      7.57943400
H           3.87738800     14.60837700      6.65318300
O           6.45590300     14.75641100      6.68094300
H           7.46219500     14.55179500      6.88743600
O           9.16190400     14.18396000      7.32545400
H           9.08099900     13.57784400      8.09543700
H           9.56242000     14.96885900      7.70076900
O           7.61219900     11.38238300      8.76089300
H           8.15291900     12.08615700      9.18313700
H           8.17964200     10.99421900      8.10289200
O           7.44776500     16.40775400     13.13564300
H           6.97697800     16.39214000     13.96260700
H           6.77303500     16.59980200     12.45441500
O           5.49583300     16.84994300     11.23718100
H           5.53675000     16.11576000     10.60221100
H           5.56181600     17.63261000     10.69170400
          35
 Energy =     -0.60285100 a.u.  #Cluster:    3
C           9.86455600     14.15394900     10.86722000
C           9.93375800     13.02227400      9.98645200
C          11.01872900     12.87416700      9.11672500
C          12.00184500     13.84759200      9.14776600
C          11.92892100     14.95386600     10.02167400
C          10.86672300     15.12686500     10.89204900
H          11.06870400     12.02205400      8.44228000
H          12.86093700     13.76672900      8.48258500
H          12.73569000     15.68652000     10.00390700
H          10.80723700     15.97403800     11.56880300
H           8.29056000     14.71244800     12.21014300
C           8.05627500     12.84890300     11.11836500
H           7.09649100     12.50778300     11.48771100
N           8.67624700     14.00914600     11.58822100
N           8.79554700     12.23320100     10.18416900
P           6.13759500     14.48457500      8.46657100
O           6.01315000     14.05421500      9.86635300
O           7.29275800     13.84520800      7.60295200
H           7.35630600     12.80451700      7.79583700
O           4.76826600     14.21216500      7.70127900
H           4.86171300     14.57480700      6.74142800
O           6.34818600     16.03851200      8.22144900
H           7.26828500     16.32999400      8.63279800
O           8.71506400     16.87026400      9.50096300
H           9.40509300     16.22454600      9.31576300
H           8.49992900     16.75226600     10.43694400
O           7.54542900     11.12064600      8.06307200
H           8.23896400     11.21358000      8.76881400
H           6.76692200     10.84135100      8.54382900
O           7.86080200     16.45993900     12.26336600
H           7.95200600     17.07124000     12.98844000
H           6.88728100     16.36979900     12.11172200
O           5.23132000     16.01470900     11.84932900
H           5.36532800     15.25231900     11.25004700
H           4.77339300     16.65583300     11.30099200
          35
 Energy =     -0.60244300 a.u.  #Cluster:    4
C           9.56898900     13.97323500     11.09573800
C           9.72946100     12.98103200     10.06876400
C          10.86238500     12.99379500      9.24907400
C          11.79882200     13.98930100      9.46481500
C          11.63444900     14.95942800     10.47684600
C          10.52665400     14.96776700     11.30657300
H          10.99199700     12.23955700      8.47825000
H          12.69400300     14.03193900      8.84501800
H          12.40582100     15.71944500     10.60252300
H          10.40041600     15.71711200     12.08628500
H           7.88486900     14.27206500     12.40591200
C           7.81153700     12.57734900     11.06351500
H           6.85230900     12.14795900     11.32968500
N           8.35784900     13.67836400     11.72958800
N           8.61978200     12.13029300     10.09131100
P           5.96662500     14.56131500      8.51110700
O           6.08454700     13.97420600      9.85519400
O           6.74654600     13.86661600      7.32976300
H           6.99662900     12.86664600      7.57124900
O           4.43647400     14.59672000      8.07929400
H           4.38858600     15.00141900      7.13055500
O           6.38408000     16.08286900      8.36753400
H           7.42766600     16.16721300      8.46967500
O           9.09668300     16.46583400      8.92146000
H           9.62274100     15.66169700      8.95264700
H           8.99273800     16.73278600      9.85104600
O           7.72940400     11.34021800      7.70554500
H           8.63208700     11.53335900      7.44756800
H           7.80429100     11.24692100      8.69169100
O           8.50531200     17.19094800     11.59139600
H           8.11437800     18.06263600     11.56965700
H           7.77908600     16.59289700     11.82906100
O           6.43565000     15.36577400     12.23119200
H           6.22143800     14.97254300     11.34928700
H           5.59571000     15.54876700     12.64119700
          35
 Energy =     -0.60190300 a.u.  #Cluster:    5
C          10.09054200     14.61319800     10.89110200
C          10.41886000     14.24580300      9.54194900
C          11.17438900     13.09675700      9.29001800
C          11.57497500     12.34183800     10.37858200
C          11.24814100     12.70986200     11.70138600
C          10.50799100     13.84579600     11.98095900
H          11.43413300     12.82147200      8.27080700
H          12.16392000     11.43847800     10.22082000
H          11.59710700     12.07889600     12.51934800
H          10.26782400     14.13877600     12.99901500
H           8.83630300     16.21967200     11.57344900
C           9.21237300     16.08126200      9.43770600
H           8.64832000     16.93318800      9.07209500
N           9.34925600     15.79486300     10.79961800
N           9.85860500     15.18917800      8.67400100
P           6.04837400     14.45429600      8.52020200
O           6.49121600     15.58881900      9.34799600
O           6.64694700     13.03421200      8.89788800
H           6.85212500     12.98424400      9.91726100
O           4.46637800     14.32435500      8.64274300
H           4.15271500     13.58070100      8.00405300
O           6.28982300     14.54155200      6.96913700
H           7.33551300     14.39658800      6.77372700
O           8.94538000     14.14993600      6.40973400
H           9.41886400     14.86823100      6.91034800
H           9.16618700     13.36367800      6.91669300
O           7.41775600     12.89418500     11.63807900
H           8.36326800     12.72451300     11.61191100
H           7.33580500     13.79605500     11.97964400
O           7.20051100     15.75082500     12.19905900
H           6.87223100     15.66767100     11.28481000
H           6.51176200     16.28020200     12.63151100
O           4.94810000     17.03031200     11.42851600
H           5.31942100     16.77083300     10.57274300
H           4.07490300     16.63977300     11.43311100
          35
 Energy =     -0.60130500 a.u.  #Cluster:    6
C           9.45004100     14.20204800     11.28922300
C           9.30307700     13.13146400     10.34492900
C          10.06760500     13.11716400      9.17174800
C          10.97583700     14.14385900      8.99070600
C          11.13718500     15.17674000      9.94250800
C          10.37408900     15.23275500     11.09410700
H           9.92461300     12.32942000      8.43252500
H          11.58897800     14.16560900      8.09059900
H          11.88768400     15.94464300      9.75589100
H          10.47653900     16.03147600     11.82526000
H           8.36292000     14.55658000     13.10295100
C           7.86906000     12.76488000     11.96921800
H           7.08946600     12.33550100     12.57991400
N           8.53530900     13.94227900     12.31210100
N           8.32077900     12.25501900     10.81531600
P           6.52243700     14.34191800      8.00941500
O           6.30534600     14.59464500      9.43893800
O           7.63298300     13.28643600      7.62310500
H           7.43041600     12.36457300      8.10219200
O           5.16330000     13.85602100      7.33320300
H           5.31404800     13.80529400      6.31584100
O           6.92744100     15.57805800      7.09653000
H           7.72279000     16.09008300      7.54474700
O           8.95321500     17.03449100      8.44475400
H           8.49356800     17.12752200      9.29292500
H           9.66502000     16.40929400      8.61802700
O           7.18392800     10.82157800      8.82332300
H           7.76427400     10.99973900      9.60983100
H           6.29714200     10.87226700      9.17948700
O           8.30590000     16.35259500     13.28525900
H           7.92035200     16.95444200     13.91345900
H           7.97490800     16.62335500     12.41119400
O           7.25250100     16.96392700     10.75543500
H           6.95288800     16.10370700     10.38822800
H           6.52437400     17.56063600     10.57712500
          35
 Energy =     -0.60043700 a.u.  #Cluster:    7
C           9.90176400     14.13825600     10.66327400
C           9.89858000     12.79342200     10.16206900
C          10.95483400     12.33453100      9.36903100
C          11.97203200     13.22684800      9.07898600
C          11.95759200     14.55384400      9.55947800
C          10.93110500     15.03038000     10.35625900
H          10.96863700     11.31130400      9.00666100
H          12.80995500     12.90712300      8.46149500
H          12.77807900     15.21603400      9.28742900
H          10.90875800     16.05720100     10.71091600
H           8.39006300     15.12933600     11.83141200
C           8.05805500     13.05044900     11.33711100
H           7.10247900     12.87474300     11.81525500
N           8.74106600     14.26444600     11.43487000
N           8.73406000     12.15217500     10.60371500
P           6.42907400     14.56635200      8.45369700
O           6.30130000     14.20060800      9.87171600
O           7.37115400     13.69417300      7.54266100
H           7.43016200     12.70195600      7.92722700
O           4.99627900     14.55761700      7.75742000
H           5.12680100     14.77805100      6.75915700
O           6.91230900     16.04491300      8.12707400
H           7.72422300     16.28536900      8.73101900
O           8.82663900     17.20226600      9.93164300
H           8.72103500     18.14059200      9.78135400
H           8.40618100     17.03589500     10.78587300
O           7.81479500     11.11985600      8.36823800
H           7.74580500     11.16286200      9.35860500
H           8.76611400     11.12479600      8.23199500
O           7.50646600     16.58837300     12.41029700
H           7.54469400     16.83007200     13.32986000
H           6.56537200     16.34612800     12.23004400
O           4.99686800     15.76744900     11.85894600
H           5.30691600     15.10419900     11.20736500
H           4.45076400     16.35840500     11.33786100
          35
 Energy =     -0.60025300 a.u.  #Cluster:    8
C          10.03530500     14.33495400     10.51617400
C           9.97673600     12.91920800     10.28060300
C          11.06155200     12.25631800      9.69868800
C          12.17290100     13.01231300      9.36976800
C          12.22600300     14.40216600      9.61101300
C          11.16732600     15.08402100     10.18534300
H          11.01559700     11.18556600      9.51514000
H          13.03581600     12.53095700      8.91222400
H          13.12994700     14.94333000      9.33505700
H          11.21041600     16.14809500     10.38244200
H           8.47949100     15.65264300     11.22508800
C           8.06420800     13.51055600     11.18743400
H           7.06355400     13.48669800     11.60246500
N           8.81829300     14.68024100     11.10840300
N           8.73347400     12.44592100     10.71463100
P           6.04708000     14.42735000      8.28669000
O           5.63861300     14.08929000      9.65550000
O           7.21933100     13.58223600      7.65320600
H           7.23762800     12.61622700      8.09734500
O           4.81159800     14.30637200      7.29202600
H           5.14504500     14.54094800      6.34437300
O           6.50664300     15.92672800      8.01501400
H           7.27642600     16.16933100      8.66186800
O           8.54792000     16.91523000      9.86213800
H           9.38780500     17.15608900      9.47368800
H           8.28366500     17.64524800     10.43555700
O           7.31883000     11.06800000      8.83337700
H           8.00770800     11.24035100      9.52731800
H           6.50845300     10.98142700      9.33691900
O           7.55173100     16.81540700     12.26820700
H           7.67813300     16.71507600     13.20765100
H           6.62338400     16.54326600     12.10106500
O           5.00953100     15.92710500     11.79521500
H           5.15950400     15.23917600     11.12024800
H           4.43036100     16.55217800     11.35814200
          35
 Energy =     -0.59997700 a.u.  #Cluster:    9
C           9.39777000     12.44805000     10.82089100
C          10.35522300     13.50287700     10.63805000
C          10.94256000     14.12156100     11.74544500
C          10.54670400     13.69561400     13.00174100
C           9.59169300     12.67122200     13.17281900
C           9.00585000     12.03056000     12.09406100
H          11.68586100     14.90379400     11.60786100
H          10.98200700     14.15563100     13.88885600
H           9.31439500     12.38139400     14.18646400
H           8.26972100     11.24384500     12.22606600
H           8.25106700     11.44790300      9.32068100
C           9.71654700     12.85987400      8.63548300
H           9.59840200     12.77606500      7.56069900
N           9.04130400     12.02513400      9.53535300
N          10.52065300     13.72860300      9.26519900
P           6.26432700     14.11559500      8.79433900
O           7.62986800     14.13123700      8.25828100
O           5.08747500     14.53583300      7.82828500
H           5.23967800     15.55171900      7.57044900
O           5.88432100     12.61556500      9.18395100
H           4.91010700     12.60198600      9.51219800
O           5.97602200     14.95667900     10.10552000
H           6.86802200     15.32732200     10.51069600
O           8.33776800     16.02471700     11.18279600
H           8.88985300     16.20105900     10.39706900
H           8.81047900     15.34307600     11.66632400
O           5.51346100     17.27183500      7.22506900
H           6.45966800     17.48293000      7.10776500
H           5.25361700     17.78335800      7.99175600
O           8.25301400     17.93772200      7.03867400
H           8.78766500     17.43229200      7.67267200
H           8.63508600     17.73641100      6.18761200
O           9.74059100     16.16243000      8.73477300
H           9.08392600     15.48317000      8.51266400
H          10.56530200     15.63296300      8.81945200
          35
 Energy =     -0.59997200 a.u.  #Cluster:   10
C           9.31957700     13.02874300     10.96006500
C          10.18188500     12.75565500      9.84295500
C          10.56724800     11.44184900      9.55568900
C          10.07756100     10.43790000     10.37104300
C           9.22461600     10.71359200     11.46249100
C           8.83531500     12.00321900     11.77644400
H          11.23266900     11.23694100      8.71959200
H          10.35691900      9.40215700     10.17832600
H           8.87330700      9.88030800     12.07159400
H           8.18581400     12.21844800     12.62023800
H           8.40609300     14.90429300     11.48770000
C           9.84772100     14.92703400      9.88873000
H           9.87572100     15.98801500      9.65509400
N           9.15089800     14.41610100     10.98707300
N          10.47982400     13.96268100      9.20145600
P           6.13227300     16.38015600     10.02217300
O           6.89793400     15.19076100     10.42856200
O           5.06849900     16.18773200      8.86763600
H           5.43964800     15.52282900      8.14919200
O           5.26746400     16.93739800     11.23017600
H           4.76452200     17.77573800     10.88314800
O           6.99926000     17.64085100      9.60929200
H           7.68089300     17.36279500      8.87051000
O           8.86490400     16.87989300      7.60192300
H           8.96820500     15.93191500      7.36622300
H           8.75321000     17.33167900      6.77084300
O           6.05679600     14.39342800      6.90045900
H           7.01423800     14.43610300      6.79257200
H           5.90873500     13.50399300      7.25093100
O           9.17432500     14.24339900      6.94227200
H           8.63304200     13.67932000      7.51781700
H          10.08126600     14.12356400      7.31230000
O           7.36675800     12.81905500      8.64927300
H           7.18698800     13.51274200      9.30273000
H           7.74588500     12.08973700      9.14350100
          35
 Energy =     -0.59934600 a.u.  #Cluster:   11
C           9.17578700     12.50129700     10.94778000
C          10.22048800     13.37631700     10.49472700
C          10.98242700     14.10115400     11.41533000
C          10.67047600     13.95963800     12.75677900
C           9.62944900     13.11312000     13.19262400
C           8.87034500     12.37063400     12.30350500
H          11.79536900     14.73867600     11.07517000
H          11.24330200     14.50796500     13.50455600
H           9.42449900     13.04652700     14.26122500
H           8.06753000     11.72173200     12.63942700
H           7.78703700     11.39269100      9.75887300
C           9.31763100     12.47187000      8.70528700
H           9.08375500     12.21459300      7.67762800
N           8.64799600     11.90431000      9.79654300
N          10.27210700     13.32872300      9.09563700
P           6.15337900     14.17447100      8.91785600
O           7.35787800     13.98521900      8.10406000
O           4.86901700     14.77566600      8.22428600
H           5.11902100     15.74227100      7.87150900
O           5.64065700     12.75385400      9.43658800
H           4.75898600     12.89652100      9.94785500
O           6.29003300     15.01211800     10.25951400
H           7.22829400     15.45704600     10.31707400
O           8.82796500     16.26916000     10.45809800
H           9.30559800     16.01914200      9.63602700
H           9.29757300     15.83204300     11.16995800
O           5.61693700     17.29457600      7.18825200
H           6.43916000     17.61233600      7.61529900
H           5.85491800     17.19224100      6.26847000
O           8.09119800     18.00976600      8.28804000
H           8.75357800     17.35100300      8.03870200
H           8.04992500     17.92632100      9.24925900
O           9.88247100     15.64662800      7.98624700
H           9.11219800     15.08789400      7.81280000
H          10.58303500     14.98249700      8.19503400
          35
 Energy =     -0.59894400 a.u.  #Cluster:   12
C           9.26534500     13.20700400     11.03909700
C          10.37316900     13.85651700     10.39397100
C          11.25922900     14.64112400     11.13702500
C          11.01977900     14.76789200     12.49466700
C           9.93196600     14.12478100     13.12157100
C           9.04311400     13.33457300     12.41173500
H          12.10365500     15.12512400     10.65099000
H          11.68966000     15.37251700     13.10548100
H           9.80113800     14.25077000     14.19650500
H           8.21510500     12.82593700     12.89612500
H           7.63103400     12.17598600     10.10554500
C           9.27459900     12.75494200      8.84113700
H           8.96577800     12.33489000      7.88760700
N           8.59866400     12.49073800     10.03829400
N          10.33768600     13.54960100      9.02837000
P           5.89903300     13.85978500      8.14833600
O           7.08474300     14.02475900      7.31672400
O           4.84551500     15.02825600      8.26564800
H           5.32626300     15.92220600      8.54450100
O           5.01810200     12.62717900      7.67588400
H           4.18585100     12.58533400      8.29009400
O           6.24772100     13.42334800      9.65814800
H           6.56239000     14.22908900     10.21268100
O           7.32577200     15.64912100     11.17037000
H           7.85059600     15.36285600     11.92073500
H           7.95830000     16.09524100     10.57946700
O           6.03833400     17.32682800      9.30070500
H           5.94084100     17.11966500     10.23849300
H           7.00197600     17.33329500      9.16756900
O           8.89519900     17.08718200      9.33248600
H           9.25202200     16.53042500      8.58543900
H           9.46821700     17.84129000      9.38482700
O           9.82609900     15.58811000      7.35212000
H           9.02414700     15.08430200      7.17499500
H          10.43896700     14.92935800      7.76266600
          35
 Energy =     -0.59855600 a.u.  #Cluster:   13
C           9.40257500     13.10674400     11.05634200
C          10.45399600     13.87161800     10.44485500
C          11.33854900     14.61101600     11.23513000
C          11.15269800     14.57937800     12.60625400
C          10.11869700     13.82467700     13.19991600
C           9.23352800     13.07649000     12.44245500
H          12.14192300     15.18044300     10.77332300
H          11.82304900     15.14359600     13.25420200
H          10.02611200     13.83148800     14.28632700
H           8.44390800     12.48712300     12.89943600
H           7.77418600     12.10689700     10.07670300
C           9.33613000     12.89433000      8.82390300
H           9.00731400     12.56306900      7.84235200
N           8.72256600     12.47463500     10.00887300
N          10.37248300     13.71331400      9.05632100
P           5.86588800     13.82828000      8.31280600
O           6.99507700     14.11982900      7.43334700
O           4.79610900     14.95194900      8.61311100
H           5.23175800     15.89943000      8.48800700
O           4.99958700     12.61114300      7.77873300
H           4.22789000     12.46105100      8.45293900
O           6.30437400     13.28146700      9.75415600
H           6.53655100     14.06981300     10.38921800
O           7.23138700     15.36897100     11.42730400
H           7.60927300     16.04345400     10.83992000
H           7.96988800     15.07976200     11.96613000
O           6.01586800     17.47494500      8.28126900
H           6.32980300     17.51014600      7.37625000
H           6.82658400     17.44179100      8.81902000
O           8.49499900     17.18070300      9.62841200
H           8.96598600     16.68050000      8.90877800
H           9.06019300     17.91311200      9.84545100
O           9.63183900     15.84797700      7.62349000
H           8.89025500     15.26756400      7.42063000
H          10.32898100     15.23332200      7.96465300
          35
 Energy =     -0.59840100 a.u.  #Cluster:   14
C           8.99266100     12.95076700     11.36213500
C          10.27164100     13.42943700     10.91647300
C          11.15615900     14.02440200     11.82153900
C          10.74329800     14.14289400     13.13653800
C           9.48140200     13.67718000     13.56547300
C           8.59090400     13.07440900     12.69451300
H          12.13238100     14.37037000     11.48757100
H          11.40622900     14.60052700     13.87100100
H           9.21212500     13.79509100     14.61570200
H           7.62272000     12.71019600     13.02532000
H           7.37109900     12.23056200     10.15537200
C           9.24583800     12.59667300      9.16039500
H           9.01105500     12.27804600      8.14871700
N           8.37220600     12.39873100     10.23607900
N          10.38356400     13.19625400      9.53993900
P           6.10258700     14.18891000      8.04288500
O           7.35044900     14.26327700      7.28728700
O           5.13042300     15.42747500      8.06745600
H           5.61275800     16.26048700      8.51502500
O           5.17707000     13.00325500      7.53997000
H           4.28161200     13.07020800      8.05805200
O           6.33757000     13.77544700      9.58203400
H           6.91700000     14.48493300     10.05109900
O           8.21155300     15.75421700     10.66445900
H           8.67758500     15.56592700     11.47889600
H           8.88832400     15.72272000      9.95730700
O           6.43055700     17.54148500      9.27606500
H           7.10823200     17.85341400      8.64667000
H           6.95362800     17.10992400      9.96614900
O           8.58168900     17.97997200      7.51871100
H           9.15804300     17.26942500      7.83322900
H           8.31166300     17.70097100      6.64287000
O           9.89541200     15.54842800      8.43244900
H           9.23411600     15.03109500      7.95736600
H          10.60646100     14.90291100      8.64526600
          35
 Energy =     -0.59669400 a.u.  #Cluster:   15
C           8.64043700     12.52324700     11.01374600
C           9.49521700     12.14298900      9.92330800
C           9.35154400     10.89013500      9.31914900
C           8.35662000     10.05754500      9.79940400
C           7.51458700     10.44183700     10.86544000
C           7.64167600     11.67020200     11.48977600
H          10.01198800     10.59434400      8.50666500
H           8.21586400      9.07264100      9.35423300
H           6.74981900      9.74173500     11.20344500
H           6.99920700     11.96332700     12.31499200
H           8.48749700     14.44934800     11.95011800
C          10.08620100     14.17035400     10.53204100
H          10.59104100     15.13096600     10.59355700
N           9.05392600     13.80206800     11.40194600
N          10.37270600     13.19994400      9.65134600
P           7.65303400     16.92713000     10.25380900
O           8.86555700     16.80199600      9.45084400
O           7.23941900     15.53603300     10.95756800
H           7.01643000     14.83289000     10.24222200
O           7.86845200     17.85770100     11.52024900
H           6.95018700     17.95758000     11.99021600
O           6.33264300     17.49418500      9.60760200
H           6.04972600     16.89716600      8.78146100
O           5.54863000     15.78703700      7.54152500
H           5.77010200     14.93080800      7.93060700
H           6.13890100     15.83843800      6.76988400
O           6.94381600     13.57705300      8.78948800
H           6.97557800     12.65081400      9.02791000
H           7.78463800     13.76160600      8.32314200
O           7.54113300     15.47668900      5.51505300
H           8.22592800     15.14844000      6.11347000
H           7.47236000     14.81842800      4.82882100
O           9.31098600     14.39871300      7.53371700
H           9.36168100     15.20627100      8.06165900
H          10.05248300     13.84036000      7.86160500
          35
 Energy =     -0.59633200 a.u.  #Cluster:   16
C           9.41256000     12.15941300     10.89927500
C          10.49469000     13.10222600     10.88288000
C          11.39372900     13.16293700     11.95199300