          44
 Energy =  -1902.80441030 a.u.  #Cluster:    1
C           8.76192700     11.84600100     10.14218100
C          10.01049700     11.98735600     10.74120100
C          11.15425000     11.54772000     10.07987300
C          11.03474300     10.96744900      8.81439500
C           9.76835800     10.87813800      8.22409800
H          12.14012400     11.63580400     10.55882400
H           7.84136600     12.11701000     10.67199600
H          10.08373100     12.40010500     11.75342900
H           9.64023200     10.42689700      7.22879300
C          12.21454600     10.41360300      8.10869500
H          13.01283700     10.11074900      8.81975500
H          11.97538600      9.49034700      7.54951200
H          12.66229700     11.12875700      7.40874900
N           8.65945000     11.32707800      8.88340500
C           7.33017100     11.17170300      8.24117000
H           6.98697600     12.18224300      7.92129100
H           7.44799200     10.55318100      7.31505100
C           6.25889400     10.51538300      9.13875800
H           6.28334600     10.94613200     10.16449000
H           5.26132300     10.79417700      8.73527400
C           6.35678500      8.99572800      9.21526000
H           6.19868700      8.52964900      8.22733200
H           5.56207500      8.58898000      9.86671000
S           7.96945200      8.48216500      9.85377400
O           7.89327100      7.09157800     10.30666500
O           8.26766000      9.49879700     10.89981700
O           8.85500000      8.66684000      8.65667700
P          11.46665600      6.59772500      9.79523500
O          11.79408800      7.53182200     10.87524300
O          12.71958400      5.66345100      9.48176500
H          12.44124400      5.01799800      8.72668700
O          10.31970400      5.53831900     10.07554500
H           9.41001900      6.03350400     10.23266800
O          11.16554300      7.24090800      8.37742700
H          10.27359500      7.80729900      8.42902300
O          11.88158700     11.21559900     12.96100300
H          12.18417800     11.20935600     13.86263900
H          11.19653400     10.49527000     12.92206900
O          13.74306700      9.90675600     11.18367700
H          13.29168400      9.06824200     11.04414300
H          13.19825800     10.36097400     11.83564700
O          10.16074400      9.19516000     12.86500500
H          10.65976700      8.51360600     12.40027300
H           9.40239000      9.36045800     12.25479500
          44
 Energy =  -1902.80309840 a.u.  #Cluster:    2
C          10.30616900     11.45615300      9.02636300
C          11.25102800     11.08242600      8.07442500
C          10.90201000     10.19453900      7.05584000
C           9.60489600      9.67706000      7.01459800
C           8.67474200     10.09779200      7.97805300
H          11.65018900      9.86511300      6.33121600
H          10.56571000     12.12026500      9.86645300
H          12.27949600     11.44241800      8.17013300
H           7.64206000      9.70591700      7.97534700
C           9.19531500      8.65614900      6.02388800
H           9.78133300      8.68111700      5.09907400
H           9.31936400      7.63809800      6.46204300
H           8.12692500      8.70725000      5.75798300
N           9.03393300     10.97141300      8.95304700
C           8.02281700     11.40800400      9.94730700
H           7.92807300     12.51631300      9.87619500
H           7.03068000     10.97781000      9.67062300
C           8.39576600     10.99940400     11.38381500
H           9.47079900     10.70171700     11.43401700
H           8.34040900     11.89498700     12.04195200
C           7.51451200      9.89146900     11.94183000
H           6.45454500     10.02650200     11.67449100
H           7.53561700      9.91157600     13.04939100
S           8.07771700      8.26099400     11.40600000
O           7.04307500      7.31105500     11.77065200
O           9.40906700      8.10638600     12.06482300
O           8.25667300      8.41672400      9.91135500
P          11.79841500      7.92793500      9.61438800
O          12.16146600      9.30808900      9.95614400
O          12.97826000      7.23126600      8.79977200
H          12.68833300      6.25763000      8.61384000
O          11.52880000      6.93340000     10.81147800
H          10.73529500      7.33620600     11.40625800
O          10.57746200      7.79135200      8.60743800
H           9.66846800      7.98092700      9.11459600
O          10.71842400     12.66572200     12.20057300
H          10.93339300     11.74254500     12.46608100
H          11.26411800     13.20857200     12.75787200
O          11.36729600     10.07155800     12.82147300
H          11.93045200      9.85216700     12.06691500
H          10.67315800      9.37981700     12.76937700
O           7.03868800      7.37961200      7.66722200
H           7.50016400      7.68998000      8.47660400
H           6.51490600      6.64459000      7.96907800
          44
 Energy =  -1902.80275360 a.u.  #Cluster:    3
C          10.60872100     11.28018400      9.03042000
C          11.52561200     10.89238200      8.06288900
C          11.11705800     10.06429800      7.01198000
C           9.78096900      9.69062800      6.91859800
C           8.86572200     10.15299600      7.88259200
H          11.85233600      9.68659900      6.29983100
H          10.91212500     11.85902300      9.91494400
H          12.57552700     11.17375200      8.17382700
H           7.79162100      9.89279400      7.82119800
C           9.28934700      8.74855300      5.88246100
H           8.37414700      9.09886300      5.38628300
H          10.03095900      8.53844700      5.10165400
H           9.04112600      7.77581400      6.36001800
N           9.29491800     10.91269500      8.92184000
C           8.35413600     11.26872400     10.00891100
H           8.45430500     12.36061000     10.22158100
H           7.30298500     11.10175900      9.66497300
C           8.64036700     10.45881500     11.28919200
H           9.70793400     10.14713100     11.32125300
H           8.53204400     11.14567000     12.15996300
C           7.71048000      9.27204200     11.47994200
H           6.65847900      9.57139800     11.30021100
H           7.73807100      8.94359600     12.53788900
S           8.07169400      7.81954300     10.45970800
O           6.72998300      7.36562500     10.04340700
O           8.89370900      6.92930300     11.29964000
O           8.86197300      8.30802800      9.27116500
P          12.10235400      8.00502500     10.05592200
O          12.07054600      9.46372000     10.26885400
O          13.60953700      7.55506300      9.79345400
H          13.60903700      6.52680800      9.70072400
O          11.67765900      7.12822300     11.30337900
H          10.62685100      6.97468900     11.30118800
O          11.32615400      7.49334400      8.78354200
H          10.28827100      7.80771100      8.88755000
O          10.15629000     12.99495700     11.89544000
H          10.67630000     12.24438200     12.23613400
H          10.50358200     13.75783100     12.34692200
O          11.72539500     10.84751600     12.72924800
H          11.98884300     10.38522300     11.90905300
H          11.53371900     10.13985900     13.34257000
O           5.58960500      9.51303200      8.73488900
H           4.71316100      9.29690600      8.44442900
H           5.92636500      8.67644600      9.14034000
          44
 Energy =  -1902.80197310 a.u.  #Cluster:    4
C          10.65872500     11.30434300      9.04928300
C          11.44733000     10.83782400      8.00615400
C          10.88456100     10.02067100      7.02038000
C           9.52348100      9.73417200      7.06470100
C           8.74115000     10.27671800      8.09996400
H          11.51890400      9.57954300      6.24971600
H          11.08571900     11.87091200      9.88984500
H          12.51977100     11.04874500      8.00862200
H           7.65438600     10.08400500      8.14950300
C           8.88042600      8.81480000      6.09368300
H           9.34122400      7.81108600      6.15266300
H           7.80620000      8.65250100      6.31078400
H           8.96280800      9.16342400      5.05791500
N           9.31841000     11.03037000      9.07227000
C           8.50924900     11.47723200     10.22930000
H           8.76148700     12.54476000     10.44679200
H           7.42946800     11.45363000      9.96037300
C           8.77762900     10.61877500     11.48205300
H           9.82544600     10.23989500     11.46792400
H           8.74718400     11.29270900     12.36888500
C           7.77990700      9.48791400     11.68200000
H           6.74941700      9.81796800     11.46200200
H           7.76198400      9.19169900     12.74994000
S           8.13176800      7.99380700     10.71992700
O           6.80409300      7.46896100     10.35908400
O           9.01071800      7.16696800     11.56722400
O           8.86150900      8.47254000      9.49120100
P          12.13592000      7.98340500      9.97877400
O          12.19841900      9.43467400     10.23064800
O          13.58768800      7.46355700      9.57180600
H          13.52302400      6.43967700      9.45527700
O          11.77561600      7.08706600     11.23230700
H          10.72244500      7.05388100     11.36453400
O          11.22819100      7.54831100      8.76510000
H          10.22188200      7.90861200      8.96602800
O          10.58325100     12.93834800     12.00031700
H          11.04679200     12.13987900     12.31741700
H          11.03066500     13.66305000     12.42578600
O          11.98535300     10.67659700     12.77951200
H          12.21411600     10.25275600     11.92787000
H          11.71808600      9.94689100     13.33699300
O           5.80661400      8.55633000      7.97083000
H           6.18396600      8.12760500      8.77274000
H           5.00504100      8.07340900      7.81189000
          44
 Energy =  -1902.80156510 a.u.  #Cluster:    5
C          10.77518900     11.21155300      9.15915400
C          11.67702700     10.70048100      8.23535100
C          11.21956600      9.88899000      7.19229600
C           9.85488400      9.65230100      7.05784100
C           8.96320700     10.23825200      7.97452300
H          11.93344700      9.41394300      6.51747100
H          11.10763000     11.77667000     10.04216800
H          12.74674100     10.87323400      8.37817100
H           7.87320400     10.08583000      7.88117600
C           9.31223600      8.73799600      6.02323400
H           9.63487200      7.69927600      6.23045100
H           8.20583700      8.69920200      6.02563400
H           9.63705300      8.99615400      5.00931000
N           9.43427500     10.98596900      9.00674800
C           8.49674700     11.48201800     10.03964000
H           8.78796100     12.52899300     10.31175700
H           7.46968800     11.53774900      9.61594900
C           8.52008400     10.60064500     11.30456100
H           9.54020300     10.17922100     11.45538500
H           8.37171800     11.26776300     12.18454000
C           7.45810900      9.51153200     11.32008100
H           6.50274500      9.87518700     10.90282300
H           7.22368500      9.23380100     12.36709700
S           7.92786100      7.98878100     10.45874400
O           6.66216000      7.48097100      9.90318500
O           8.64263400      7.16705200     11.45254400
O           8.85480200      8.42484200      9.35278700
P          11.99981300      7.89590800     10.37589300
O          12.05675800      9.35446800     10.58404600
O          13.48492400      7.33509100     10.22446200
H          13.41500600      6.30901700     10.13213100
O          11.42363700      7.05720200     11.58802100
H          10.36298200      7.03355900     11.54216000
O          11.28497300      7.43163900      9.04975100
H          10.26992000      7.82243800      9.07298100
O          10.22181800     12.95266900     11.97257100
H          10.63519100     12.16590200     12.37685700
H          10.59596800     13.69229700     12.44101400
O          11.49606400     10.71949700     13.01081800
H          11.83617900     10.25254700     12.22092400
H          11.15650100     10.01862800     13.56574000
O           6.02376100      8.61848900      7.42143800
H           5.23535700      8.16512100      7.14967800
H           6.27760200      8.16713900      8.25891000
          44
 Energy =  -1902.80140640 a.u.  #Cluster:    6
C           8.56338300     11.73787600     10.03044400
C           9.78519500     11.86500600     10.68560200
C          10.96409400     11.50679800     10.03696500
C          10.90686200     11.01087900      8.73235600
C           9.66540700     10.91853600      8.09332700
H          11.92983900     11.59305600     10.55432700
H           7.61609400     11.95415700     10.53880600
H           9.81259000     12.19719600     11.73201800
H           9.58260200     10.51507300      7.07413300
C          12.12995800     10.54170400      8.03689600
H          11.94299400      9.63938000      7.42655400
H          12.56250400     11.30863900      7.38342900
H          12.91828900     10.23893500      8.75544500
N           8.52162700     11.30036600      8.73635800
C           7.22185100     11.14730100      8.03727500
H           6.83229900     12.16744000      7.81416700
H           7.39651400     10.64023500      7.05595800
C           6.16214600     10.34665500      8.82490600
H           6.09762500     10.70727200      9.87631200
H           5.16840900     10.57691700      8.38275600
C           6.37620200      8.83706300      8.80569200
H           6.35194600      8.43714000      7.77757000
H           5.55783200      8.32436500      9.34361500
S           7.95518300      8.39586700      9.57168400
O           7.92599500      6.98750100      9.97648500
O           8.09790000      9.39763700     10.65849700
O           8.93155100      8.66163400      8.45907200
P          11.53748400      6.74664900      9.80554400
O          11.70115600      7.68227100     10.92436700
O          12.88293900      5.91315800      9.60654900
H          12.72208600      5.24476000      8.83847900
O          10.44949200      5.60915600      9.97469300
H           9.49469100      6.04602300     10.04999200
O          11.32800800      7.39702700      8.37820800
H          10.39443100      7.90858600      8.35628100
O          11.85265100     11.48992800     12.99511800
H          12.53706000     11.02198800     12.50903300
H          11.13319300     10.83835400     13.05056700
O          13.55585900      9.90971800     11.21039600
H          14.34003700      9.47274400     11.53528200
H          12.92652300      9.18346600     11.05471100
O           9.94143900      9.46106200     12.73552500
H          10.48584000      8.76190000     12.36705200
H           9.20023800      9.50860600     12.09757600
          44
 Energy =  -1902.80064130 a.u.  #Cluster:    7
C           9.68716100     10.95712100      8.63587600
C          10.04101100     10.84101600      7.28680900
C           9.10724800     10.40151100      6.35955800
C           7.80699400     10.10259100      6.78567100
C           7.47889200     10.26345000      8.13218300
H           9.38628600     10.26428100      5.31408400
H          10.42841300     11.24716300      9.40287300
H          11.07202800     11.04466600      6.99566700
H           6.47206300     10.01277900      8.50237100
C           6.78762000      9.54935200      5.85876200
H           7.05802500      9.66265600      4.80111200
H           6.66537300      8.46218000      6.04643500
H           5.79661300     10.00467000      5.99373100
N           8.40942600     10.69896200      9.03155500
C           8.03752700     10.80321200     10.46484100
H           8.07324100     11.88242300     10.75172900
H           6.98063900     10.46187400     10.60178200
C           8.96542000      9.98991500     11.38610700
H          10.03512200     10.21937400     11.17124600
H           8.82049000     10.35729800     12.42659000
C           8.71745400      8.48958600     11.34204600
H           7.66362600      8.25554400     11.58533200
H           9.31638500      7.99198600     12.13608800
S           9.14032300      7.75103700      9.74924800
O           7.84728600      7.78262400      9.00720000
O           9.72106100      6.42967700     10.02728600
O          10.12996300      8.69828300      9.12313500
P          12.71839600      7.89516500     11.21154100
O          11.91387500      8.54545500     12.25599700
O          14.25738000      7.88252800     11.63053900
H          14.77007500      7.36224800     10.90291100
O          12.41633400      6.36706600     10.93252300
H          11.41265200      6.27549000     10.60589300
O          12.74046100      8.63601900      9.81301400
H          11.73784100      8.67668900      9.43907700
O          10.29802900     12.80361300     10.89196200
H          10.48184600     13.71670600     11.08162500
H          10.85672300     12.29791300     11.51883100
O          11.86889400     11.38316100     12.65713700
H          11.78854000     10.40843100     12.57310900
H          12.81055000     11.52925600     12.56861800
O           5.51328200      8.52267500     10.11988500
H           6.33650100      8.19247500      9.67870300
H           4.90294900      7.79989600     10.05933500
          44
 Energy =  -1902.79968190 a.u.  #Cluster:    8
C          10.42960800     11.35270700      9.32824300
C          11.34412000     10.90017200      8.39198700
C          10.91833700     10.07832500      7.34028100
C           9.56608200      9.79021100      7.20429100
C           8.65627400     10.29929100      8.15552600
H          11.65197100      9.64566900      6.65864000
H          10.73402700     11.94705100     10.20207800
H          12.40413000     11.14415900      8.51733700
H           7.57726900     10.08354900      8.07167100
C           9.03012100      8.88653100      6.16032600
H           8.10584800      9.26600200      5.69499600
H           9.74490100      8.65586600      5.36467300
H           8.72493800      7.92298500      6.63103100
N           9.10124300     11.03817600      9.20225800
C           8.17550300     11.38973400     10.30398500
H           8.43388400     12.41119000     10.67427900
H           7.13418900     11.43907200      9.91694500
C           8.28511300     10.38454500     11.46943100
H           9.33518400     10.01734300     11.55201300
H           8.13343200     10.94406100     12.41965100
C           7.30562100      9.22327500     11.39387500
H           6.32289800      9.54458000     11.00883200
H           7.10112400      8.84274000     12.41531400
S           7.89098300      7.81857300     10.40928200
O           6.68042700      7.30897300      9.74135100
O           8.60724900      6.92534400     11.33486700
O           8.82955500      8.41810000      9.39092500
P          11.93133900      8.05968500     10.70351200
O          11.73859200      9.36668100     11.35942500
O          13.49893300      7.78006900     10.58419500
H          13.61449300      6.84320800     10.16990500
O          11.39324200      6.79945900     11.48310500
H          10.32564500      6.81509000     11.47503800
O          11.43367000      7.98288200      9.20922500
H          10.35975000      8.13544000      9.20685600
O          10.71401700     11.78548500     12.64331700
H          11.53997100     11.96666700     12.17509600
H          10.79534800     10.85248800     12.87383500
O          13.07484200     11.78887300     10.91297300
H          12.72771600     10.87375300     10.95925600
H          13.96738000     11.72252400     11.24300000
O           6.17778800      8.32780000      7.19524900
H           6.40056100      7.92400100      8.06611400
H           5.38269800      7.87769200      6.93583300
          44
 Energy =  -1902.79843150 a.u.  #Cluster:    9
C           9.33621900     11.63454900      8.31775000
C           9.82469700     11.38936700      7.04024300
C           9.10032000     10.58503600      6.16073000
C           7.87343000     10.06091400      6.56537600
C           7.41263800     10.32288400      7.86705000
H           9.49842200     10.35589300      5.17026300
H           9.90235300     12.25134700      9.03836300
H          10.80374700     11.79644100      6.76484900
H           6.44394500      9.91884400      8.21448600
C           7.07041000      9.18418300      5.68246500
H           7.21118900      9.38928300      4.61533200
H           7.33775200      8.11891600      5.85725100
H           5.98806300      9.22543600      5.89362600
N           8.15682500     11.07538400      8.72178200
C           7.72018200     11.24028700     10.13058400
H           7.47707900     12.31492500     10.29326000
H           6.77823900     10.65976900     10.29046100
C           8.78485900     10.77519100     11.14520400
H           9.81741600     11.01369700     10.79313700
H           8.67726000     11.38665700     12.06850800
C           8.68738200      9.30291900     11.51111700
H           7.67900900      9.03722000     11.87007500
H           9.36028400      9.08836700     12.37184800
S           9.12586000      8.19394500     10.15365000
O           7.99976600      8.38901900      9.19803800
O           9.23405100      6.85026100     10.74022400
O          10.41383800      8.70438300      9.59719500
P          12.40169800      7.47208300     12.16709400
O          11.81158900      8.60396400     12.89184400
O          13.78043800      7.03876200     12.83750700
H          14.13093100      6.21990200     12.31554000
O          11.57797300      6.12005900     12.15937300
H          10.66495800      6.28399800     11.65363500
O          12.82035900      7.75955000     10.66305500
H          11.97568000      8.12004700     10.14533700
O          11.72117900     11.11446800      9.15915800
H          11.37710200     10.19813300      9.16197600
H          11.96839100     11.25263300     10.08175000
O          12.03055900     11.38151300     11.98826000
H          11.88656500     10.46574600     12.29470300
H          12.95452700     11.53650000     12.17969000
O           5.83390900      7.53372200      7.76794500
H           6.64724500      7.78193600      8.26153200
H           5.60167800      6.68189100      8.11874800
          44
 Energy =  -1902.79832270 a.u.  #Cluster:   10
C          10.25196500     10.47031600      9.31975500
C          10.76271200     10.08880500      8.06368900
C           9.98449200     10.23647800      6.93396400
C           8.69149300     10.79157000      7.04945900
C           8.22104100     11.15196300      8.30445800
H          10.33481200      9.89424200      5.95776200
H          10.84399600     10.35016300     10.24430300
H          11.75587300      9.62989600      8.02526900
H           7.21432400     11.55432600      8.44174400
C           7.82802700     10.93232300      5.85177000
H           7.46497000      9.92714200      5.53941100
H           6.93896700     11.55210600      6.01713800
H           8.36774600     11.35069700      4.99085300
N           9.00498200     10.98579700      9.41743100
C           8.46131100     11.33718700     10.74683900
H           9.13435700     12.10427400     11.20909000
H           7.46915400     11.82550500     10.63131300
C           8.34833000     10.11627100     11.67982000
H           9.35800100      9.68011300     11.86834800
H           8.03250300     10.48515400     12.68014000
C           7.36737200      9.06066300     11.19097700
H           6.58094000      9.49552200     10.55319900
H           6.82868900      8.61459300     12.04991600
S           8.14978200      7.69387300     10.28926300
O           7.11431100      7.18744500      9.38802100
O           8.68475100      6.78162700     11.31575200
O           9.26839200      8.34412300      9.49331800
P          12.07621500      7.65444200     11.40279400
O          11.79719100      8.91664400     12.10700300
O          13.62321900      7.29076400     11.53951700
H          13.76691000      6.38085500     11.07620000
O          11.34375700      6.36053500     11.91934400
H          10.29073400      6.48061700     11.75291900
O          11.87634000      7.74380000      9.83175600
H          10.84111500      7.90753200      9.62738500
O          11.06335300     12.82634500      9.92783000
H          11.75415700     12.37548400     10.45290300
H          11.40825000     13.69667700      9.75721900
O          12.95239600     11.42366400     11.38329000
H          12.56786800     10.60186000     11.75356000
H          13.77706200     11.13366800     10.99618900
O           8.25335300      7.99980900      6.83094300
H           7.51921400      7.46606800      7.16603500
H           8.77559500      8.12908000      7.64212900
          44
 Energy =  -1902.79786880 a.u.  #Cluster:   11
C           8.41930500     12.09013900      9.55365800
C           9.35984800     12.41003400      8.58685200
C           9.68112500     11.48355100      7.58922500
C           9.02228200     10.25957200      7.55600500
C           8.06511700      9.97155700      8.54957700
H          10.45719200     11.71441800      6.85654100
H           8.17280900     12.78586400     10.37075700
H           9.87189700     13.37599100      8.64282600
H           7.52205700      9.00250400      8.54929300
C           9.33353000      9.22658400      6.54189200
H           8.54763500      8.45249700      6.45347900
H           9.49801700      9.64030500      5.54009100
H          10.25554400      8.67279700      6.82147800
N           7.79355000     10.87179500      9.52735200
C           6.90184300     10.50339900     10.65414700
H           6.15556200     11.31626400     10.79652000
H           6.31722200      9.58440900     10.38808800
C           7.70864600     10.27803500     11.95254500
H           8.68166700     10.82420300     11.90106400
H           7.16749000     10.76087200     12.79340700
C           7.95582900      8.81381900     12.30016500
H           7.01222600      8.31196700     12.58318800
H           8.60571800      8.74666800     13.19568600
S           8.72030000      7.87898200     10.95776700
O           7.56318300      7.42219700     10.15145100
O           9.58728700      6.85343500     11.53274000
O           9.48160200      8.92529200     10.17164100
P          12.76326400      7.62340800      9.78687800
O          13.23596100      8.69487000     10.65861800
O          13.93854300      7.07295900      8.86169600
H          13.56262000      6.27823100      8.32289200
O          12.23142900      6.28968700     10.46380800
H          11.31237700      6.46885600     10.92881200
O          11.66118300      8.03877000      8.71347800
H          10.83906400      8.45501100      9.21001200
O          10.16278000     13.31302400     11.14587400
H          10.66476800     13.84292200     11.75572300
H          10.56005300     12.41776200     11.20638100
O          11.10740200     10.76900000     11.41205100
H          11.97545800     10.36606900     11.29866500
H          10.51471500     10.14711400     10.93596400
O           6.98464100      6.87915200      7.51301500
H           7.16795700      7.02181500      8.46760000
H           6.96931900      5.93421800      7.42111400
          44
 Energy =  -1902.79470070 a.u.  #Cluster:   12
C           9.22755900     12.00358700      8.65510800
C          10.32110300     11.91710100      7.80837400
C          10.56226800     10.73404700      7.09971800
C           9.67314200      9.67320700      7.22092700
C           8.56200400      9.80081400      8.07934500
H          11.45602600     10.64180400      6.47939100
H           9.03155600     12.90461500      9.25977000
H          11.01566200     12.75631000      7.74074500
H           7.83516000      8.97161800      8.18727300
C           9.89847500      8.38049200      6.53092200
H          10.37924400      8.49295800      5.55105800
H          10.56794300      7.73528800      7.14362500
H           8.97569300      7.80026500      6.38283200
N           8.37332400     10.94025900      8.79059800
C           7.31879000     11.01463600      9.83023300
H           6.77530300     11.97929200      9.71983900
H           6.55006000     10.21672300      9.65434800
C           7.93521300     10.89640700     11.24068300
H           9.02531200     11.13608000     11.20991500
H           7.50498900     11.69436500     11.88295900
C           7.72254700      9.54525300     11.90920200
H           6.64412000      9.34061000     12.04547100
H           8.14554300      9.56523500     12.93373200
S           8.46139900      8.15989000     11.01216000
O           7.32229200      7.56814900     10.27634000
O           9.14571900      7.31034100     11.98808200
O           9.42027200      8.80165000     10.03194100
P          12.52866700      7.16303800     10.61216100
O          13.03400700      8.46279200     11.04908700
O          13.71899500      6.22002500     10.12870800
H          13.31248200      5.29937500      9.90273300
O          11.79415000      6.25083200     11.67982700
H          10.83174100      6.62938400     11.86440500
O          11.58204600      7.19511200      9.32864000
H          10.78211600      7.84316500      9.51392800
O          10.38537200     13.16836500     10.98166200
H          11.03554500     13.60687400     11.51795700
H          10.80374900     12.32763300     10.70062900
O          11.34866900     10.78742000     10.05854100
H          12.10144800     10.28697800     10.40281700
H          10.64099600     10.10488900     10.02683900
O           5.49610600      8.63359700      8.60727000
H           6.11465800      8.15226000      9.21250400
H           4.76855400      8.03728300      8.48772800
          44
 Energy =  -1902.78703050 a.u.  #Cluster:   13
C           9.80196000     11.97522200      9.89779700
C          11.15122500     11.65706000      9.74571300
C          11.58045500     10.92666200      8.64210500