 Entering Gaussian System, Link 0=g16
 Initial command:
 /data0/home/software/g16/l1.exe "/data0/home/software/g16/scratch/Gau-291476.inp" -scrdir="/data0/home/software/g16/scratch/"
 Default is to use a total of  22 processors:
                               22 via shared-memory
                                1 via Linda
 Entering Link 1 = /data0/home/software/g16/l1.exe PID=    291477.
  
 Copyright (c) 1988,1990,1992,1993,1995,1998,2003,2009,2016,
            Gaussian, Inc.  All Rights Reserved.
  
 This is part of the Gaussian(R) 16 program.  It is based on
 the Gaussian(R) 09 system (copyright 2009, Gaussian, Inc.),
 the Gaussian(R) 03 system (copyright 2003, Gaussian, Inc.),
 the Gaussian(R) 98 system (copyright 1998, Gaussian, Inc.),
 the Gaussian(R) 94 system (copyright 1995, Gaussian, Inc.),
 the Gaussian 92(TM) system (copyright 1992, Gaussian, Inc.),
 the Gaussian 90(TM) system (copyright 1990, Gaussian, Inc.),
 the Gaussian 88(TM) system (copyright 1988, Gaussian, Inc.),
 the Gaussian 86(TM) system (copyright 1986, Carnegie Mellon
 University), and the Gaussian 82(TM) system (copyright 1983,
 Carnegie Mellon University). Gaussian is a federally registered
 trademark of Gaussian, Inc.
  
 This software contains proprietary and confidential information,
 including trade secrets, belonging to Gaussian, Inc.
  
 This software is provided under written license and may be
 used, copied, transmitted, or stored only in accord with that
 written license.
  
 The following legend is applicable only to US Government
 contracts under FAR:
  
                    RESTRICTED RIGHTS LEGEND
  
 Use, reproduction and disclosure by the US Government is
 subject to restrictions as set forth in subparagraphs (a)
 and (c) of the Commercial Computer Software - Restricted
 Rights clause in FAR 52.227-19.
  
 Gaussian, Inc.
 340 Quinnipiac St., Bldg. 40, Wallingford CT 06492
  
  
 ---------------------------------------------------------------
 Warning -- This program may not be used in any manner that
 competes with the business of Gaussian, Inc. or will provide
 assistance to any competitor of Gaussian, Inc.  The licensee
 of this program is prohibited from giving any competitor of
 Gaussian, Inc. access to this program.  By using this program,
 the user acknowledges that Gaussian, Inc. is engaged in the
 business of creating and licensing software in the field of
 computational chemistry and represents and warrants to the
 licensee that it is not a competitor of Gaussian, Inc. and that
 it will not use this program in any manner prohibited above.
 ---------------------------------------------------------------
  

 Cite this work as:
 Gaussian 16, Revision A.03,
 M. J. Frisch, G. W. Trucks, H. B. Schlegel, G. E. Scuseria, 
 M. A. Robb, J. R. Cheeseman, G. Scalmani, V. Barone, 
 G. A. Petersson, H. Nakatsuji, X. Li, M. Caricato, A. V. Marenich, 
 J. Bloino, B. G. Janesko, R. Gomperts, B. Mennucci, H. P. Hratchian, 
 J. V. Ortiz, A. F. Izmaylov, J. L. Sonnenberg, D. Williams-Young, 
 F. Ding, F. Lipparini, F. Egidi, J. Goings, B. Peng, A. Petrone, 
 T. Henderson, D. Ranasinghe, V. G. Zakrzewski, J. Gao, N. Rega, 
 G. Zheng, W. Liang, M. Hada, M. Ehara, K. Toyota, R. Fukuda, 
 J. Hasegawa, M. Ishida, T. Nakajima, Y. Honda, O. Kitao, H. Nakai, 
 T. Vreven, K. Throssell, J. A. Montgomery, Jr., J. E. Peralta, 
 F. Ogliaro, M. J. Bearpark, J. J. Heyd, E. N. Brothers, K. N. Kudin, 
 V. N. Staroverov, T. A. Keith, R. Kobayashi, J. Normand, 
 K. Raghavachari, A. P. Rendell, J. C. Burant, S. S. Iyengar, 
 J. Tomasi, M. Cossi, J. M. Millam, M. Klene, C. Adamo, R. Cammi, 
 J. W. Ochterski, R. L. Martin, K. Morokuma, O. Farkas, 
 J. B. Foresman, and D. J. Fox, Gaussian, Inc., Wallingford CT, 2016.
 
 ******************************************
 Gaussian 16:  ES64L-G16RevA.03 25-Dec-2016
                19-Feb-2023 
 ******************************************
 %nproc=24
 Will use up to   24 processors via shared memory.
 %mem=50GB
 ---------------------------------------------------
 #p M062X/6-311+G(2d,p) nosymm em=GD3 counterpoise=2
 ---------------------------------------------------
 1/38=1,62=2,172=1/1;
 2/12=2,15=1,17=6,18=5,40=1/2;
 1/38=1,53=2,62=2,63=1/22;
 3/5=4,6=6,7=112,11=2,25=1,30=1,74=-55,124=31/1,2,3;
 4//1;
 5/5=2,38=5/2;
 6/7=2,8=2,9=2,10=2,28=1/1;
 1/53=2,62=2,63=1/22;
 3/5=7,6=11,7=112,11=2,25=1,30=1,74=-55,82=7,124=31/1,2,3;
 4//1;
 5/5=2,38=5/2;
 6/7=2,8=2,9=2,10=2,28=1/1;
 1/53=2,62=2,63=1/22(-4);
 99/5=1,9=1/99;
 Leave Link    1 at Sun Feb 19 13:06:33 2023, MaxMem=  6710886400 cpu:               0.8 elap:               0.0
 (Enter /data0/home/software/g16/l101.exe)
 -------------------
 Title Card Required
 -------------------
 Symbolic Z-matrix:
 Charge =  0 Multiplicity = 1 in supermolecule
 Charge =  0 Multiplicity = 1 in fragment      1.
 Charge =  0 Multiplicity = 1 in fragment      2.
 C                     13.01932   7.60093   13.72374    
 C                     14.10783   8.3865    13.36933    
 C                     12.66447   9.67732   14.52369    
 N                     12.14307   8.41507   14.44362    
 H                     12.80082   6.56953   13.48725    
 H                     14.96735   8.14094   12.7774    
 H                     12.18139   10.54253   14.98218    
 C                     10.81339   8.05396   14.90176    
 H                     10.62494   6.96806   14.76845    
 H                     10.66748   8.31844   15.96042    
 H                     10.04072   8.58225   14.28617    
 N                     13.88039   9.66807   13.88494    
 C                     14.68132   10.86053   13.60181    
 H                     15.69195   10.71718   14.04943    
 H                     14.21213   11.73968   14.11021    
 C                     14.81111   11.14551   12.08782    
 H                     15.7534   11.70801   11.92222    
 H                     14.93717   10.18925   11.52932    
 C                     13.64681   11.9368   11.50239    
 H                     13.83134   12.16031   10.4362    
 H                     13.53192   12.9151   11.99802    
 S                     12.08515   11.02376   11.64179    
 O                     11.15274   11.56471   10.6395    
 O                     12.49308   9.60899   11.38143    
 O                     11.70235   11.23362   13.05869    
 O                     8.82683   10.26561   9.9719     
 H                     9.56832   10.85273   10.26476    
 H                     9.10944   9.9885    9.10308    
 
 ITRead=  0  0  0  0  0  0  0  0  0  0  0  0  0  0  0  0  0  0  0  0
 ITRead=  0  0  0  0  0  0  0  0
 MicOpt= -1 -1 -1 -1 -1 -1 -1 -1 -1 -1 -1 -1 -1 -1 -1 -1 -1 -1 -1 -1
 MicOpt= -1 -1 -1 -1 -1 -1 -1 -1
 NAtoms=     28 NQM=       28 NQMF=       0 NMMI=      0 NMMIF=      0
                NMic=       0 NMicF=      0.
                    Isotopes and Nuclear Properties:
 (Nuclear quadrupole moments (NQMom) in fm**2, nuclear magnetic moments (NMagM)
  in nuclear magnetons)

  Atom         1           2           3           4           5           6           7           8           9          10
 IAtWgt=          12          12          12          14           1           1           1          12           1           1
 AtmWgt=  12.0000000  12.0000000  12.0000000  14.0030740   1.0078250   1.0078250   1.0078250  12.0000000   1.0078250   1.0078250
 NucSpn=           0           0           0           2           1           1           1           0           1           1
 AtZEff=  -0.0000000  -0.0000000  -0.0000000  -0.0000000  -0.0000000  -0.0000000  -0.0000000  -0.0000000  -0.0000000  -0.0000000
 NQMom=    0.0000000   0.0000000   0.0000000   2.0440000   0.0000000   0.0000000   0.0000000   0.0000000   0.0000000   0.0000000
 NMagM=    0.0000000   0.0000000   0.0000000   0.4037610   2.7928460   2.7928460   2.7928460   0.0000000   2.7928460   2.7928460
 AtZNuc=   6.0000000   6.0000000   6.0000000   7.0000000   1.0000000   1.0000000   1.0000000   6.0000000   1.0000000   1.0000000

  Atom        11          12          13          14          15          16          17          18          19          20
 IAtWgt=           1          14          12           1           1          12           1           1          12           1
 AtmWgt=   1.0078250  14.0030740  12.0000000   1.0078250   1.0078250  12.0000000   1.0078250   1.0078250  12.0000000   1.0078250
 NucSpn=           1           2           0           1           1           0           1           1           0           1
 AtZEff=  -0.0000000  -0.0000000  -0.0000000  -0.0000000  -0.0000000  -0.0000000  -0.0000000  -0.0000000  -0.0000000  -0.0000000
 NQMom=    0.0000000   2.0440000   0.0000000   0.0000000   0.0000000   0.0000000   0.0000000   0.0000000   0.0000000   0.0000000
 NMagM=    2.7928460   0.4037610   0.0000000   2.7928460   2.7928460   0.0000000   2.7928460   2.7928460   0.0000000   2.7928460
 AtZNuc=   1.0000000   7.0000000   6.0000000   1.0000000   1.0000000   6.0000000   1.0000000   1.0000000   6.0000000   1.0000000

  Atom        21          22          23          24          25          26          27          28
 IAtWgt=           1          32          16          16          16          16           1           1
 AtmWgt=   1.0078250  31.9720718  15.9949146  15.9949146  15.9949146  15.9949146   1.0078250   1.0078250
 NucSpn=           1           0           0           0           0           0           1           1
 AtZEff=  -0.0000000  -0.0000000  -0.0000000  -0.0000000  -0.0000000  -0.0000000  -0.0000000  -0.0000000
 NQMom=    0.0000000   0.0000000   0.0000000   0.0000000   0.0000000   0.0000000   0.0000000   0.0000000
 NMagM=    2.7928460   0.0000000   0.0000000   0.0000000   0.0000000   0.0000000   2.7928460   2.7928460
 AtZNuc=   1.0000000  16.0000000   8.0000000   8.0000000   8.0000000   8.0000000   1.0000000   1.0000000
 Leave Link  101 at Sun Feb 19 13:06:33 2023, MaxMem=  6710886400 cpu:               2.2 elap:               0.1
 (Enter /data0/home/software/g16/l202.exe)
                          Input orientation:                          
 ---------------------------------------------------------------------
 Center     Atomic      Atomic             Coordinates (Angstroms)
 Number     Number       Type             X           Y           Z
 ---------------------------------------------------------------------
      1          6           0       13.019317    7.600925   13.723741
      2          6           0       14.107830    8.386505   13.369330
      3          6           0       12.664473    9.677322   14.523689
      4          7           0       12.143072    8.415066   14.443624
      5          1           0       12.800820    6.569532   13.487250
      6          1           0       14.967352    8.140943   12.777405
      7          1           0       12.181389   10.542534   14.982180
      8          6           0       10.813392    8.053957   14.901764
      9          1           0       10.624942    6.968061   14.768453
     10          1           0       10.667483    8.318435   15.960416
     11          1           0       10.040719    8.582247   14.286169
     12          7           0       13.880392    9.668066   13.884937
     13          6           0       14.681323   10.860533   13.601814
     14          1           0       15.691953   10.717184   14.049426
     15          1           0       14.212132   11.739681   14.110209
     16          6           0       14.811109   11.145510   12.087824
     17          1           0       15.753402   11.708007   11.922217
     18          1           0       14.937165   10.189252   11.529317
     19          6           0       13.646809   11.936798   11.502390
     20          1           0       13.831339   12.160308   10.436197
     21          1           0       13.531922   12.915099   11.998018
     22         16           0       12.085150   11.023759   11.641790
     23          8           0       11.152739   11.564715   10.639504
     24          8           0       12.493082    9.608985   11.381433
     25          8           0       11.702353   11.233616   13.058693
     26          8           0        8.826825   10.265605    9.971905
     27          1           0        9.568321   10.852727   10.264758
     28          1           0        9.109442    9.988498    9.103083
 ---------------------------------------------------------------------
                    Distance matrix (angstroms):
                    1          2          3          4          5
     1  C    0.000000
     2  C    1.388382   0.000000
     3  C    2.253277   2.254336   0.000000
     4  N    1.396017   2.239464   1.368050   0.000000
     5  H    1.080482   2.241332   3.278895   2.180202   0.000000
     6  H    2.232042   1.072126   3.273106   3.290591   2.768948
     7  H    3.307394   3.310728   1.091868   2.194910   4.289902
     8  C    2.541472   3.648598   2.490935   1.452013   2.855563
     9  H    2.687931   4.012485   3.399955   2.122276   2.556316
    10  H    3.323952   4.307476   2.810467   2.118339   3.704907
    11  H    3.186121   4.173763   2.853014   2.114859   3.508198
    12  N    2.245107   1.399992   1.373517   2.213689   3.305230
    13  C    3.660898   2.550247   2.513469   3.623765   4.686375
    14  H    4.118267   2.898972   3.236027   4.248493   5.087014
    15  H    4.324519   3.435632   2.611425   3.930043   5.395398
    16  C    4.295442   3.122334   3.563293   4.485927   5.190301
    17  H    5.252507   3.979249   4.520268   5.498676   6.129518
    18  H    3.897829   2.706167   3.793872   4.409975   4.636792
    19  C    4.912020   4.037646   3.898521   4.828528   5.784714
    20  H    5.679375   4.787620   4.922843   5.739038   6.451951
    21  H    5.610822   4.766585   4.196985   5.306618   6.558852
    22  S    4.113755   3.745763   3.233241   3.828695   4.874222
    23  O    5.358009   5.126942   4.575422   5.037100   5.981445
    24  O    3.129798   2.837887   3.147669   3.305293   3.710450
    25  O    3.920858   3.740168   2.343915   3.171197   4.810818
    26  O    6.225254   6.554581   5.982671   5.866708   6.466161
    27  H    5.869255   6.027251   5.395019   5.480370   6.259334
    28  H    6.506774   6.763958   6.489842   6.340345   6.673569
                    6          7          8          9         10
     6  H    0.000000
     7  H    4.288387   0.000000
     8  C    4.666460   2.840933   0.000000
     9  H    4.918989   3.904493   1.110160   0.000000
    10  H    5.352750   2.862774   1.100901   1.801692   0.000000
    11  H    5.171347   2.984899   1.120300   1.783118   1.807079
    12  N    2.177203   2.203463   3.611893   4.320715   4.056094
    13  C    2.856157   2.873361   4.952538   5.741656   5.304355
    14  H    2.963124   3.636563   5.623132   6.344094   5.886525
    15  H    3.911220   2.513446   5.075683   6.005795   5.262388
    16  C    3.086642   3.956805   5.784263   6.493138   6.337110
    17  H    3.751422   4.845717   6.828871   7.541170   7.325491
    18  H    2.398792   4.431859   5.739197   6.281985   6.431546
    19  C    4.216398   4.024968   5.887313   6.669872   6.468611
    20  H    4.788223   5.099558   6.775796   7.483906   7.435521
    21  H    5.045837   4.044530   6.281150   7.175870   6.710807
    22  S    4.231706   3.376247   4.589610   5.325121   5.289526
    23  O    5.553747   4.578407   5.532399   6.201292   6.251873
    24  O    3.197796   3.732833   4.199071   4.683624   5.095627
    25  O    4.505992   2.099255   3.781189   4.720069   4.241372
    26  O    7.077506   6.035946   5.756852   6.092117   6.560622
    27  H    6.543447   5.401705   5.557440   6.040724   6.330191
    28  H    7.157458   6.656395   6.345912   6.596681   7.227698
                   11         12         13         14         15
    11  H    0.000000
    12  N    4.010371   0.000000
    13  C    5.214800   1.464113   0.000000
    14  H    6.045697   2.099871   1.114575   0.000000
    15  H    5.234600   2.110068   1.118708   1.799740   0.000000
    16  C    5.844626   2.505731   1.546034   2.192540   2.191313
    17  H    6.927726   3.394377   2.165320   2.347451   2.676532
    18  H    5.844474   2.633885   2.193471   2.683164   3.096854
    19  C    5.657413   3.298217   2.576072   3.486756   2.675662
    20  H    6.480247   4.255289   3.526049   4.312762   3.717566
    21  H    6.016456   3.771620   2.848601   3.702005   2.511104
    22  S    4.139253   3.176870   3.257062   4.347382   3.336119
    23  O    4.840441   4.644373   4.660693   5.740239   4.629934
    24  O    3.937736   2.862805   3.359295   4.310344   3.865387
    25  O    3.361173   2.806685   3.050973   4.143086   2.767811
    26  O    4.787495   6.419300   6.914140   7.997505   6.949820
    27  H    4.642196   5.753527   6.105636   7.200066   6.094191
    28  H    5.450615   6.762453   7.214214   8.265999   7.360394
                   16         17         18         19         20
    16  C    0.000000
    17  H    1.109840   0.000000
    18  H    1.114562   1.768398   0.000000
    19  C    1.524619   2.160170   2.172478   0.000000
    20  H    2.172012   2.471266   2.510543   1.104887   0.000000
    21  H    2.185367   2.529385   3.102359   1.102687   1.760297
    22  S    2.764891   3.742046   2.973725   1.814346   2.407151
    23  O    3.956897   4.778283   4.123778   2.665221   2.751538
    24  O    2.869346   3.915102   2.516371   2.600852   3.032104
    25  O    3.258023   4.234102   3.727425   2.587944   3.502688
    26  O    6.408042   7.339054   6.306157   5.326116   5.371278
    27  H    5.558428   6.460178   5.555519   4.397841   4.462340
    28  H    6.538835   7.419328   6.315795   5.490013   5.365656
                   21         22         23         24         25
    21  H    0.000000
    22  S    2.407741   0.000000
    23  O    3.054441   1.471938   0.000000
    24  O    3.519908   1.495252   2.484322   0.000000
    25  O    2.701803   1.482629   2.502834   2.465336   0.000000
    26  O    5.767399   3.738983   2.746498   3.982381   4.328275
    27  H    4.792463   2.874004   1.777004   3.368692   3.536275
    28  H    6.041852   4.046188   3.003350   4.096819   4.890844
                   26         27         28
    26  O    0.000000
    27  H    0.990097   0.000000
    28  H    0.954732   1.518865   0.000000
 Symmetry turned off by external request.
 Stoichiometry    C7H14N2O4S
 Framework group  C1[X(C7H14N2O4S)]
 Deg. of freedom    78
 Full point group                 C1      NOp   1
 Rotational constants (GHZ):           0.7700410           0.5295592           0.3734024
 Leave Link  202 at Sun Feb 19 13:06:33 2023, MaxMem=  6710886400 cpu:               0.1 elap:               0.0
 (Enter /data0/home/software/g16/l122.exe)
 Counterpoise: doing full-system calculation.
 Leave Link  122 at Sun Feb 19 13:06:33 2023, MaxMem=  6710886400 cpu:               0.1 elap:               0.0
 (Enter /data0/home/software/g16/l301.exe)
 Standard basis: 6-311+G(2d,p) (5D, 7F)
 Ernie: Thresh=  0.10000D-02 Tol=  0.10000D-05 Strict=F.
   470 basis functions,   714 primitive gaussians,   498 cartesian basis functions
    59 alpha electrons       59 beta electrons
       nuclear repulsion energy      1173.2377944882 Hartrees.
 IExCor= 4336 DFT=T Ex+Corr=M062X ExCW=0 ScaHFX=  0.540000
 ScaDFX=  1.000000  1.000000  1.000000  1.000000 ScalE2=  1.000000  1.000000
 IRadAn=      5 IRanWt=     -1 IRanGd=            0 ICorTp=0 IEmpDi=131
 NAtoms=   28 NActive=   28 NUniq=   28 SFac= 1.00D+00 NAtFMM=   60 NAOKFM=F Big=F
 Integral buffers will be    131072 words long.
 Raffenetti 2 integral format.
 Two-electron integral symmetry is turned off.
 R6Disp:  Grimme-D3 Dispersion energy=       -0.0014690041 Hartrees.
 Nuclear repulsion after empirical dispersion term =     1173.2363254841 Hartrees.
 Leave Link  301 at Sun Feb 19 13:06:33 2023, MaxMem=  6710886400 cpu:               1.1 elap:               0.1
 (Enter /data0/home/software/g16/l302.exe)
 NPDir=0 NMtPBC=     1 NCelOv=     1 NCel=       1 NClECP=     1 NCelD=      1
         NCelK=      1 NCelE2=     1 NClLst=     1 CellRange=     0.0.
 One-electron integrals computed using PRISM.
 NBasis=   470 RedAO= T EigKep=  1.41D-05  NBF=   470
 NBsUse=   470 1.00D-06 EigRej= -1.00D+00 NBFU=   470
 Precomputing XC quadrature grid using
 IXCGrd= 4 IRadAn=           5 IRanWt=          -1 IRanGd=           0 AccXCQ= 0.00D+00.
 Generated NRdTot=       0 NPtTot=           0 NUsed=           0 NTot=          32
 NSgBfM=   495   495   495   495   495 MxSgAt=    28 MxSgA2=    28.
 Leave Link  302 at Sun Feb 19 13:06:33 2023, MaxMem=  6710886400 cpu:              10.2 elap:               0.4
 (Enter /data0/home/software/g16/l303.exe)
 DipDrv:  MaxL=1.
 Leave Link  303 at Sun Feb 19 13:06:33 2023, MaxMem=  6710886400 cpu:               1.1 elap:               0.1
 (Enter /data0/home/software/g16/l401.exe)
 ExpMin= 4.05D-02 ExpMax= 9.34D+04 ExpMxC= 3.17D+03 IAcc=3 IRadAn=         5 AccDes= 0.00D+00
 Harris functional with IExCor= 1009 and IRadAn=       5 diagonalized for initial guess.
 HarFok:  IExCor= 1009 AccDes= 0.00D+00 IRadAn=         5 IDoV= 1 UseB2=F ITyADJ=14
 ICtDFT=  3500011 ScaDFX=  1.000000  1.000000  1.000000  1.000000
 FoFCou: FMM=F IPFlag=           0 FMFlag=      100000 FMFlg1=           0
         NFxFlg=           0 DoJE=T BraDBF=F KetDBF=T FulRan=T
         wScrn=  0.000000 ICntrl=       500 IOpCl=  0 I1Cent=   200000004 NGrid=           0
         NMat0=    1 NMatS0=      1 NMatT0=    0 NMatD0=    1 NMtDS0=    0 NMtDT0=    0
 Symmetry not used in FoFCou.
 Harris En= -1083.22257088911    
 JPrj=0 DoOrth=F DoCkMO=F.
 Leave Link  401 at Sun Feb 19 13:06:35 2023, MaxMem=  6710886400 cpu:              40.5 elap:               1.7
 (Enter /data0/home/software/g16/l502.exe)
 Two-electron integral symmetry not used.
 Closed shell SCF:
 Using DIIS extrapolation, IDIIS=  1040.
 NGot=  6710886400 LenX=  6710374910 LenY=  6710126408
 Requested convergence on RMS density matrix=1.00D-08 within 128 cycles.
 Requested convergence on MAX density matrix=1.00D-06.
 Requested convergence on             energy=1.00D-06.
 No special actions if energy rises.
 Fock matrices will be formed incrementally for  20 cycles.

 Cycle   1  Pass 1  IDiag  1:
 FoFJK:  IHMeth= 1 ICntrl=       0 DoSepK=F KAlg= 0 I1Cent=           0 FoldK=F
 IRaf= 880000000 NMat=       1 IRICut=       1 DoRegI=T DoRafI=F ISym2E= 0 IDoP0=0 IntGTp=1.
 FoFCou: FMM=F IPFlag=           0 FMFlag=      100000 FMFlg1=           0
         NFxFlg=           0 DoJE=F BraDBF=F KetDBF=F FulRan=T
         wScrn=  0.000000 ICntrl=         0 IOpCl=  0 I1Cent=           0 NGrid=           0
         NMat0=    1 NMatS0=      1 NMatT0=    0 NMatD0=    1 NMtDS0=    0 NMtDT0=    0
 Symmetry not used in FoFCou.
 E= -1083.14339767591    
 DIIS: error= 2.39D-02 at cycle   1 NSaved=   1.
 NSaved= 1 IEnMin= 1 EnMin= -1083.14339767591     IErMin= 1 ErrMin= 2.39D-02
 ErrMax= 2.39D-02  0.00D+00 EMaxC= 1.00D-01 BMatC= 8.23D-01 BMatP= 8.23D-01
 IDIUse=3 WtCom= 7.61D-01 WtEn= 2.39D-01
 Coeff-Com:  0.100D+01
 Coeff-En:   0.100D+01
 Coeff:      0.100D+01
 Gap=     0.273 Goal=   None    Shift=    0.000
 GapD=    0.273 DampG=1.000 DampE=0.500 DampFc=0.5000 IDamp=-1.
 Damping current iteration by 5.00D-01
 RMSDP=4.92D-03 MaxDP=5.09D-01              OVMax= 1.87D-01

 Cycle   2  Pass 1  IDiag  1:
 RMSU=  2.46D-03    CP:  1.01D+00
 E= -1083.36410986661     Delta-E=       -0.220712190692 Rises=F Damp=T
 DIIS: error= 5.14D-03 at cycle   2 NSaved=   2.
 NSaved= 2 IEnMin= 2 EnMin= -1083.36410986661     IErMin= 2 ErrMin= 5.14D-03
 ErrMax= 5.14D-03  0.00D+00 EMaxC= 1.00D-01 BMatC= 5.40D-02 BMatP= 8.23D-01
 IDIUse=3 WtCom= 9.49D-01 WtEn= 5.14D-02
 Coeff-Com:  0.349D-01 0.965D+00
 Coeff-En:   0.120D+00 0.880D+00
 Coeff:      0.392D-01 0.961D+00
 Gap=     0.287 Goal=   None    Shift=    0.000
 RMSDP=1.88D-03 MaxDP=3.00D-01 DE=-2.21D-01 OVMax= 1.17D-01

 Cycle   3  Pass 1  IDiag  1:
 RMSU=  1.62D-03    CP:  9.31D-01  8.10D-01
 E= -1083.63483340882     Delta-E=       -0.270723542213 Rises=F Damp=F
 DIIS: error= 3.57D-03 at cycle   3 NSaved=   3.
 NSaved= 3 IEnMin= 3 EnMin= -1083.63483340882     IErMin= 3 ErrMin= 3.57D-03
 ErrMax= 3.57D-03  0.00D+00 EMaxC= 1.00D-01 BMatC= 1.87D-02 BMatP= 5.40D-02
 IDIUse=3 WtCom= 9.64D-01 WtEn= 3.57D-02
 Coeff-Com: -0.561D-01 0.334D+00 0.723D+00
 Coeff-En:   0.000D+00 0.000D+00 0.100D+01
 Coeff:     -0.541D-01 0.322D+00 0.732D+00
 Gap=     0.276 Goal=   None    Shift=    0.000
 RMSDP=4.91D-04 MaxDP=3.02D-02 DE=-2.71D-01 OVMax= 2.59D-02

 Cycle   4  Pass 1  IDiag  1:
 RMSU=  4.37D-04    CP:  9.29D-01  8.95D-01  9.55D-01
 E= -1083.64590744474     Delta-E=       -0.011074035920 Rises=F Damp=F
 DIIS: error= 1.57D-03 at cycle   4 NSaved=   4.
 NSaved= 4 IEnMin= 4 EnMin= -1083.64590744474     IErMin= 4 ErrMin= 1.57D-03
 ErrMax= 1.57D-03  0.00D+00 EMaxC= 1.00D-01 BMatC= 3.79D-03 BMatP= 1.87D-02
 IDIUse=3 WtCom= 9.84D-01 WtEn= 1.57D-02
 Coeff-Com: -0.287D-01 0.840D-01 0.369D+00 0.576D+00
 Coeff-En:   0.000D+00 0.000D+00 0.138D+00 0.862D+00
 Coeff:     -0.282D-01 0.827D-01 0.365D+00 0.580D+00
 Gap=     0.274 Goal=   None    Shift=    0.000
 RMSDP=1.87D-04 MaxDP=1.30D-02 DE=-1.11D-02 OVMax= 1.07D-02

 Cycle   5  Pass 1  IDiag  1:
 RMSU=  1.14D-04    CP:  9.27D-01  8.75D-01  9.78D-01  6.96D-01
 E= -1083.64893097574     Delta-E=       -0.003023531004 Rises=F Damp=F
 DIIS: error= 4.48D-04 at cycle   5 NSaved=   5.
 NSaved= 5 IEnMin= 5 EnMin= -1083.64893097574     IErMin= 5 ErrMin= 4.48D-04
 ErrMax= 4.48D-04  0.00D+00 EMaxC= 1.00D-01 BMatC= 2.01D-04 BMatP= 3.79D-03
 IDIUse=3 WtCom= 9.96D-01 WtEn= 4.48D-03
 Coeff-Com: -0.936D-02 0.192D-01 0.124D+00 0.269D+00 0.597D+00
 Coeff-En:   0.000D+00 0.000D+00 0.000D+00 0.000D+00 0.100D+01
 Coeff:     -0.932D-02 0.191D-01 0.124D+00 0.267D+00 0.599D+00
 Gap=     0.272 Goal=   None    Shift=    0.000
 RMSDP=5.04D-05 MaxDP=2.41D-03 DE=-3.02D-03 OVMax= 2.79D-03

 Cycle   6  Pass 1  IDiag  1:
 RMSU=  3.37D-05    CP:  9.27D-01  8.78D-01  9.81D-01  7.46D-01  7.48D-01
 E= -1083.64906172386     Delta-E=       -0.000130748117 Rises=F Damp=F
 DIIS: error= 1.26D-04 at cycle   6 NSaved=   6.
 NSaved= 6 IEnMin= 6 EnMin= -1083.64906172386     IErMin= 6 ErrMin= 1.26D-04
 ErrMax= 1.26D-04  0.00D+00 EMaxC= 1.00D-01 BMatC= 2.19D-05 BMatP= 2.01D-04
 IDIUse=3 WtCom= 9.99D-01 WtEn= 1.26D-03
 Coeff-Com: -0.179D-02 0.157D-02 0.247D-01 0.762D-01 0.297D+00 0.602D+00
 Coeff-En:   0.000D+00 0.000D+00 0.000D+00 0.000D+00 0.000D+00 0.100D+01
 Coeff:     -0.179D-02 0.157D-02 0.247D-01 0.761D-01 0.297D+00 0.603D+00
 Gap=     0.272 Goal=   None    Shift=    0.000
 RMSDP=1.89D-05 MaxDP=1.21D-03 DE=-1.31D-04 OVMax= 8.73D-04

 Cycle   7  Pass 1  IDiag  1:
 RMSU=  1.65D-05    CP:  9.27D-01  8.77D-01  9.84D-01  7.53D-01  7.63D-01
                    CP:  8.21D-01
 E= -1083.64907868438     Delta-E=       -0.000016960515 Rises=F Damp=F
 DIIS: error= 3.68D-05 at cycle   7 NSaved=   7.
 NSaved= 7 IEnMin= 7 EnMin= -1083.64907868438     IErMin= 7 ErrMin= 3.68D-05
 ErrMax= 3.68D-05  0.00D+00 EMaxC= 1.00D-01 BMatC= 1.58D-06 BMatP= 2.19D-05
 IDIUse=1 WtCom= 1.00D+00 WtEn= 0.00D+00
 Coeff-Com:  0.395D-03-0.162D-02-0.510D-02 0.277D-03 0.506D-01 0.237D+00
 Coeff-Com:  0.718D+00
 Coeff:      0.395D-03-0.162D-02-0.510D-02 0.277D-03 0.506D-01 0.237D+00
 Coeff:      0.718D+00
 Gap=     0.272 Goal=   None    Shift=    0.000
 RMSDP=5.18D-06 MaxDP=2.72D-04 DE=-1.70D-05 OVMax= 2.39D-04

 Cycle   8  Pass 1  IDiag  1:
 RMSU=  3.83D-06    CP:  9.26D-01  8.76D-01  9.84D-01  7.55D-01  7.80D-01
                    CP:  8.72D-01  9.00D-01
 E= -1083.64908006182     Delta-E=       -0.000001377444 Rises=F Damp=F
 DIIS: error= 2.23D-05 at cycle   8 NSaved=   8.
 NSaved= 8 IEnMin= 8 EnMin= -1083.64908006182     IErMin= 8 ErrMin= 2.23D-05
 ErrMax= 2.23D-05  0.00D+00 EMaxC= 1.00D-01 BMatC= 2.00D-07 BMatP= 1.58D-06
 IDIUse=1 WtCom= 1.00D+00 WtEn= 0.00D+00
 Coeff-Com:  0.371D-03-0.795D-03-0.553D-02-0.100D-01-0.200D-01 0.125D-01
 Coeff-Com:  0.283D+00 0.741D+00
 Coeff:      0.371D-03-0.795D-03-0.553D-02-0.100D-01-0.200D-01 0.125D-01
 Coeff:      0.283D+00 0.741D+00
 Gap=     0.272 Goal=   None    Shift=    0.000
 RMSDP=2.62D-06 MaxDP=2.99D-04 DE=-1.38D-06 OVMax= 1.61D-04

 Cycle   9  Pass 1  IDiag  1:
 RMSU=  1.79D-06    CP:  9.26D-01  8.76D-01  9.85D-01  7.56D-01  7.88D-01
                    CP:  8.95D-01  9.36D-01  1.01D+00
 E= -1083.64908025173     Delta-E=       -0.000000189906 Rises=F Damp=F
 DIIS: error= 6.19D-06 at cycle   9 NSaved=   9.
 NSaved= 9 IEnMin= 9 EnMin= -1083.64908025173     IErMin= 9 ErrMin= 6.19D-06
 ErrMax= 6.19D-06  0.00D+00 EMaxC= 1.00D-01 BMatC= 2.72D-08 BMatP= 2.00D-07
 IDIUse=1 WtCom= 1.00D+00 WtEn= 0.00D+00
 Coeff-Com:  0.122D-03-0.203D-03-0.204D-02-0.439D-02-0.128D-01-0.138D-01
 Coeff-Com:  0.609D-01 0.333D+00 0.639D+00
 Coeff:      0.122D-03-0.203D-03-0.204D-02-0.439D-02-0.128D-01-0.138D-01
 Coeff:      0.609D-01 0.333D+00 0.639D+00
 Gap=     0.272 Goal=   None    Shift=    0.000
 RMSDP=5.91D-07 MaxDP=3.70D-05 DE=-1.90D-07 OVMax= 3.85D-05

 Cycle  10  Pass 1  IDiag  1:
 RMSU=  4.64D-07    CP:  9.26D-01  8.76D-01  9.85D-01  7.56D-01  7.88D-01
                    CP:  8.97D-01  9.50D-01  1.06D+00  9.20D-01
 E= -1083.64908027600     Delta-E=       -0.000000024276 Rises=F Damp=F
 DIIS: error= 1.62D-06 at cycle  10 NSaved=  10.
 NSaved=10 IEnMin=10 EnMin= -1083.64908027600     IErMin=10 ErrMin= 1.62D-06
 ErrMax= 1.62D-06  0.00D+00 EMaxC= 1.00D-01 BMatC= 2.72D-09 BMatP= 2.72D-08
 IDIUse=1 WtCom= 1.00D+00 WtEn= 0.00D+00
 Coeff-Com:  0.264D-05 0.154D-04-0.176D-03-0.630D-03-0.312D-02-0.770D-02
 Coeff-Com: -0.116D-01 0.491D-01 0.245D+00 0.729D+00
 Coeff:      0.264D-05 0.154D-04-0.176D-03-0.630D-03-0.312D-02-0.770D-02
 Coeff:     -0.116D-01 0.491D-01 0.245D+00 0.729D+00
 Gap=     0.272 Goal=   None    Shift=    0.000
 RMSDP=2.51D-07 MaxDP=1.90D-05 DE=-2.43D-08 OVMax= 2.62D-05

 Cycle  11  Pass 1  IDiag  1:
 RMSU=  1.94D-07    CP:  9.26D-01  8.76D-01  9.85D-01  7.56D-01  7.88D-01
                    CP:  8.97D-01  9.52D-01  1.08D+00  9.73D-01  1.03D+00
 E= -1083.64908027908     Delta-E=       -0.000000003075 Rises=F Damp=F
 DIIS: error= 8.13D-07 at cycle  11 NSaved=  11.
 NSaved=11 IEnMin=11 EnMin= -1083.64908027908     IErMin=11 ErrMin= 8.13D-07
 ErrMax= 8.13D-07  0.00D+00 EMaxC= 1.00D-01 BMatC= 7.84D-10 BMatP= 2.72D-09
 IDIUse=1 WtCom= 1.00D+00 WtEn= 0.00D+00
 Coeff-Com: -0.185D-04 0.409D-04 0.247D-03 0.398D-03 0.494D-03-0.145D-02
 Coeff-Com: -0.164D-01-0.310D-01 0.529D-02 0.381D+00 0.661D+00
 Coeff:     -0.185D-04 0.409D-04 0.247D-03 0.398D-03 0.494D-03-0.145D-02
 Coeff:     -0.164D-01-0.310D-01 0.529D-02 0.381D+00 0.661D+00
 Gap=     0.272 Goal=   None    Shift=    0.000
 RMSDP=1.23D-07 MaxDP=7.40D-06 DE=-3.08D-09 OVMax= 7.00D-06

 Cycle  12  Pass 1  IDiag  1:
 RMSU=  6.71D-08    CP:  9.26D-01  8.76D-01  9.85D-01  7.56D-01  7.88D-01
                    CP:  8.97D-01  9.50D-01  1.10D+00  1.00D+00  1.15D+00
                    CP:  8.98D-01
 E= -1083.64908027978     Delta-E=       -0.000000000698 Rises=F Damp=F
 DIIS: error= 2.12D-07 at cycle  12 NSaved=  12.
 NSaved=12 IEnMin=12 EnMin= -1083.64908027978     IErMin=12 ErrMin= 2.12D-07
 ErrMax= 2.12D-07  0.00D+00 EMaxC= 1.00D-01 BMatC= 6.08D-11 BMatP= 7.84D-10
 IDIUse=1 WtCom= 1.00D+00 WtEn= 0.00D+00
 Coeff-Com: -0.694D-05 0.135D-04 0.119D-03 0.235D-03 0.584D-03 0.492D-03
 Coeff-Com: -0.500D-02-0.178D-01-0.318D-01 0.671D-01 0.264D+00 0.722D+00
 Coeff:     -0.694D-05 0.135D-04 0.119D-03 0.235D-03 0.584D-03 0.492D-03
 Coeff:     -0.500D-02-0.178D-01-0.318D-01 0.671D-01 0.264D+00 0.722D+00
 Gap=     0.272 Goal=   None    Shift=    0.000
 RMSDP=3.23D-08 MaxDP=9.52D-07 DE=-6.98D-10 OVMax= 2.90D-06

 Cycle  13  Pass 1  IDiag  1:
 RMSU=  2.49D-08    CP:  9.26D-01  8.76D-01  9.85D-01  7.56D-01  7.88D-01
                    CP:  8.97D-01  9.50D-01  1.10D+00  1.01D+00  1.17D+00
                    CP:  9.67D-01  1.00D+00
 E= -1083.64908027988     Delta-E=       -0.000000000104 Rises=F Damp=F
 DIIS: error= 5.30D-08 at cycle  13 NSaved=  13.
 NSaved=13 IEnMin=13 EnMin= -1083.64908027988     IErMin=13 ErrMin= 5.30D-08
 ErrMax= 5.30D-08  0.00D+00 EMaxC= 1.00D-01 BMatC= 5.29D-12 BMatP= 6.08D-11
 IDIUse=1 WtCom= 1.00D+00 WtEn= 0.00D+00
 Coeff-Com:  0.622D-06-0.159D-05 0.246D-05 0.107D-04 0.764D-04 0.268D-03
 Coeff-Com:  0.494D-03-0.475D-03-0.925D-02-0.243D-01-0.120D-01 0.223D+00
 Coeff-Com:  0.822D+00
 Coeff:      0.622D-06-0.159D-05 0.246D-05 0.107D-04 0.764D-04 0.268D-03
 Coeff:      0.494D-03-0.475D-03-0.925D-02-0.243D-01-0.120D-01 0.223D+00
 Coeff:      0.822D+00
 Gap=     0.272 Goal=   None    Shift=    0.000
 RMSDP=1.23D-08 MaxDP=8.26D-07 DE=-1.04D-10 OVMax= 1.40D-06

 Cycle  14  Pass 1  IDiag  1:
 RMSU=  8.14D-09    CP:  9.26D-01  8.76D-01  9.85D-01  7.56D-01  7.88D-01
                    CP:  8.97D-01  9.50D-01  1.10D+00  1.00D+00  1.18D+00
                    CP:  9.89D-01  1.09D+00  1.06D+00
 E= -1083.64908027986     Delta-E=        0.000000000019 Rises=F Damp=F
 DIIS: error= 3.17D-08 at cycle  14 NSaved=  14.
 NSaved=14 IEnMin=13 EnMin= -1083.64908027988     IErMin=14 ErrMin= 3.17D-08
 ErrMax= 3.17D-08  0.00D+00 EMaxC= 1.00D-01 BMatC= 6.46D-13 BMatP= 5.29D-12
 IDIUse=1 WtCom= 1.00D+00 WtEn= 0.00D+00
 Coeff-Com:  0.845D-06-0.181D-05-0.887D-05-0.155D-04-0.190D-04 0.595D-04
 Coeff-Com:  0.594D-03 0.134D-02-0.135D-02-0.159D-01-0.320D-01 0.218D-01
 Coeff-Com:  0.302D+00 0.724D+00
 Coeff:      0.845D-06-0.181D-05-0.887D-05-0.155D-04-0.190D-04 0.595D-04
 Coeff:      0.594D-03 0.134D-02-0.135D-02-0.159D-01-0.320D-01 0.218D-01
 Coeff:      0.302D+00 0.724D+00
 Gap=     0.272 Goal=   None    Shift=    0.000
 RMSDP=4.21D-09 MaxDP=1.92D-07 DE= 1.91D-11 OVMax= 3.22D-07

 SCF Done:  E(RM062X) =  -1083.64908028     A.U. after   14 cycles
            NFock= 14  Conv=0.42D-08     -V/T= 2.0034
 KE= 1.079963236039D+03 PE=-4.897055797239D+03 EE= 1.560207155435D+03
 Leave Link  502 at Sun Feb 19 13:07:51 2023, MaxMem=  6710886400 cpu:            1812.3 elap:              75.8
 (Enter /data0/home/software/g16/l601.exe)
 Copying SCF densities to generalized density rwf, IOpCl= 0 IROHF=0.

 **********************************************************************

            Population analysis using the SCF density.

 **********************************************************************

 Alpha  occ. eigenvalues --  -90.06063 -19.57229 -19.56968 -19.55921 -19.54766
 Alpha  occ. eigenvalues --  -14.86817 -14.86199 -10.67755 -10.62456 -10.62310
 Alpha  occ. eigenvalues --  -10.62223 -10.62155 -10.56991 -10.55483  -8.39499
 Alpha  occ. eigenvalues --   -6.31773  -6.31741  -6.31736  -1.20572  -1.19170
 Alpha  occ. eigenvalues --   -1.08419  -1.07427  -1.05779  -1.05294  -0.93096
 Alpha  occ. eigenvalues --   -0.90086  -0.86451  -0.81618  -0.75539  -0.72826
 Alpha  occ. eigenvalues --   -0.70791  -0.66158  -0.63407  -0.60280  -0.58356
 Alpha  occ. eigenvalues --   -0.57342  -0.56983  -0.55838  -0.54176  -0.53987
 Alpha  occ. eigenvalues --   -0.53734  -0.51586  -0.51029  -0.50127  -0.49858
 Alpha  occ. eigenvalues --   -0.48440  -0.46680  -0.44607  -0.42695  -0.41143
 Alpha  occ. eigenvalues --   -0.38819  -0.38472  -0.37805  -0.34911  -0.33790
 Alpha  occ. eigenvalues --   -0.33431  -0.32836  -0.32199  -0.29422
 Alpha virt. eigenvalues --   -0.02179  -0.00412   0.00064   0.01011   0.01436
 Alpha virt. eigenvalues --    0.01977   0.02411   0.02481   0.03527   0.04585
 Alpha virt. eigenvalues --    0.05236   0.05742   0.06199   0.06578   0.07354
 Alpha virt. eigenvalues --    0.07784   0.08788   0.09323   0.09782   0.10140
 Alpha virt. eigenvalues --    0.10578   0.10965   0.11901   0.12201   0.12542
 Alpha virt. eigenvalues --    0.13203   0.14173   0.14894   0.15137   0.15736
 Alpha virt. eigenvalues --    0.16191   0.16490   0.16666   0.17189   0.17574
 Alpha virt. eigenvalues --    0.18004   0.18311   0.18702   0.18882   0.19390
 Alpha virt. eigenvalues --    0.19589   0.20232   0.20421   0.21033   0.21649
 Alpha virt. eigenvalues --    0.22273   0.22549   0.22934   0.23914   0.24250
 Alpha virt. eigenvalues --    0.24560   0.24801   0.25419   0.25963   0.26778
 Alpha virt. eigenvalues --    0.26987   0.27818   0.28112   0.28533   0.28765
 Alpha virt. eigenvalues --    0.29697   0.30097   0.30752   0.32033   0.32393
 Alpha virt. eigenvalues --    0.32832   0.33305   0.34380   0.34609   0.35260
 Alpha virt. eigenvalues --    0.35750   0.36898   0.37930   0.38320   0.38745
 Alpha virt. eigenvalues --    0.39253   0.40188   0.40827   0.41724   0.42245
 Alpha virt. eigenvalues --    0.42903   0.44012   0.44589   0.45130   0.45944
 Alpha virt. eigenvalues --    0.46452   0.46580   0.46799   0.48994   0.49175
 Alpha virt. eigenvalues --    0.49625   0.50628   0.52008   0.52432   0.53880
 Alpha virt. eigenvalues --    0.54468   0.56072   0.57428   0.57777   0.58386
 Alpha virt. eigenvalues --    0.59746   0.60798   0.61318   0.62031   0.62480
 Alpha virt. eigenvalues --    0.62816   0.63576   0.65065   0.65420   0.65721
 Alpha virt. eigenvalues --    0.66367   0.67545   0.68241   0.69043   0.69576
 Alpha virt. eigenvalues --    0.69662   0.70163   0.70986   0.72217   0.73280
 Alpha virt. eigenvalues --    0.74407   0.74784   0.76469   0.76484   0.77097
 Alpha virt. eigenvalues --    0.78401   0.80974   0.82996   0.83276   0.84370
 Alpha virt. eigenvalues --    0.86606   0.87502   0.88203   0.89430   0.90324
 Alpha virt. eigenvalues --    0.90884   0.91656   0.93123   0.93502   0.94221
 Alpha virt. eigenvalues --    0.95350   0.97183   0.98139   0.99461   1.01039
 Alpha virt. eigenvalues --    1.03047   1.03791   1.05737   1.07364   1.08477
 Alpha virt. eigenvalues --    1.09241   1.11207   1.12088   1.12940   1.13963
 Alpha virt. eigenvalues --    1.15232   1.16114   1.18085   1.19613   1.19896
 Alpha virt. eigenvalues --    1.21035   1.22299   1.22598   1.22984   1.23954
 Alpha virt. eigenvalues --    1.24343   1.25109   1.25831   1.27189   1.28421
 Alpha virt. eigenvalues --    1.29068   1.29895   1.30877   1.31377   1.32938
 Alpha virt. eigenvalues --    1.33481   1.34911   1.35375   1.36127   1.37885
 Alpha virt. eigenvalues --    1.38043   1.39640   1.40781   1.42202   1.43097
 Alpha virt. eigenvalues --    1.43815   1.44269   1.44318   1.45752   1.45996
 Alpha virt. eigenvalues --    1.47060   1.48196   1.49497   1.50784   1.51395
 Alpha virt. eigenvalues --    1.52742   1.54149   1.57262   1.57838   1.58207
 Alpha virt. eigenvalues --    1.61273   1.63218   1.65549   1.65903   1.68406
 Alpha virt. eigenvalues --    1.71740   1.72988   1.73829   1.74105   1.75112
 Alpha virt. eigenvalues --    1.76736   1.78761   1.79532   1.81458   1.82254
 Alpha virt. eigenvalues --    1.83771   1.84115   1.85395   1.86840   1.87995
 Alpha virt. eigenvalues --    1.89207   1.90596   1.90969   1.92322   1.93032
 Alpha virt. eigenvalues --    1.95765   1.97660   1.98686   1.99191   2.01732
 Alpha virt. eigenvalues --    2.03521   2.04631   2.07932   2.09161   2.11674
 Alpha virt. eigenvalues --    2.13717   2.14084   2.14520   2.16654   2.16996
 Alpha virt. eigenvalues --    2.18150   2.19275   2.21260   2.22576   2.23105
 Alpha virt. eigenvalues --    2.25889   2.27011   2.28071   2.29872   2.32414
 Alpha virt. eigenvalues --    2.32999   2.34423   2.34994   2.36639   2.37134
 Alpha virt. eigenvalues --    2.39511   2.40533   2.42339   2.43575   2.45509
 Alpha virt. eigenvalues --    2.46686   2.48912   2.51758   2.52618   2.54998
 Alpha virt. eigenvalues --    2.56603   2.59840   2.67412   2.68787   2.69636
 Alpha virt. eigenvalues --    2.71379   2.74739   2.76023   2.77742   2.79591
 Alpha virt. eigenvalues --    2.82405   2.84084   2.85116   2.85669   2.89484
 Alpha virt. eigenvalues --    2.90572   2.91505   2.92407   2.95904   2.96348
 Alpha virt. eigenvalues --    2.98046   2.99459   3.00999   3.02905   3.03887
 Alpha virt. eigenvalues --    3.07268   3.09387   3.13446   3.17377   3.19230
 Alpha virt. eigenvalues --    3.20104   3.22666   3.24925   3.27259   3.29554
 Alpha virt. eigenvalues --    3.31644   3.33122   3.35337   3.37536   3.39345
 Alpha virt. eigenvalues --    3.40333   3.44803   3.46614   3.47373   3.47641
 Alpha virt. eigenvalues --    3.49767   3.50623   3.52000   3.53160   3.54213
 Alpha virt. eigenvalues --    3.57035   3.57927   3.59379   3.61469   3.62010
 Alpha virt. eigenvalues --    3.63439   3.64083   3.64937   3.66758   3.69583
 Alpha virt. eigenvalues --    3.69693   3.71410   3.72399   3.80224   3.82795
 Alpha virt. eigenvalues --    3.84820   3.88386   3.90476   3.92009   3.96494
 Alpha virt. eigenvalues --    3.99844   4.03943   4.05465   4.13807   4.15546
 Alpha virt. eigenvalues --    4.17111   4.17818   4.21113   4.24319   4.37783
 Alpha virt. eigenvalues --    4.49170   4.52728   4.97330   5.00787   5.02444
 Alpha virt. eigenvalues --    5.05524   5.08872   5.11078   5.15949   5.16867
 Alpha virt. eigenvalues --    5.19108   5.20452   5.24971   5.29609   5.30479
 Alpha virt. eigenvalues --    5.31515   5.36486   5.38945   5.43555   5.45822
 Alpha virt. eigenvalues --    5.46288   5.53055   5.55875   5.58878   5.59205
 Alpha virt. eigenvalues --    5.63110   5.83435   5.99744   6.81771   6.83614
 Alpha virt. eigenvalues --    6.85896   6.86472   6.88189   6.89407   6.92521
 Alpha virt. eigenvalues --    6.93808   6.97087   6.98479   7.00752   7.01342
 Alpha virt. eigenvalues --    7.04311   7.07378   7.20969   7.21891   7.25227
 Alpha virt. eigenvalues --    7.32828   7.42799   7.45011   8.61444  17.77159
 Alpha virt. eigenvalues --   17.80074  17.87463  23.90865  23.95724  24.00575
 Alpha virt. eigenvalues --   24.02773  24.03384  24.09656  24.16419  35.60872
 Alpha virt. eigenvalues --   35.67966  50.07341  50.11608  50.13258  50.21556
 Alpha virt. eigenvalues --  189.92146
          Condensed to atoms (all electrons):
               1          2          3          4          5          6
     1  C    5.708191   0.181718  -0.598092   0.462233   0.379951  -0.023253
     2  C    0.181718   5.731190  -0.075910  -0.172569   0.002469   0.386143
     3  C   -0.598092  -0.075910   6.739609   0.242593   0.011036   0.011118
     4  N    0.462233  -0.172569   0.242593   6.167489  -0.043809   0.011464
     5  H    0.379951   0.002469   0.011036  -0.043809   0.482676  -0.001321
     6  H   -0.023253   0.386143   0.011118   0.011464  -0.001321   0.480502
     7  H    0.016103   0.001366   0.418069  -0.044043  -0.000028  -0.000075
     8  C   -0.060757   0.012690  -0.190525   0.151321  -0.001043  -0.000558
     9  H   -0.006640   0.020500   0.029716  -0.071923   0.002512  -0.000026
    10  H    0.005565  -0.004734  -0.009241  -0.050941   0.000071   0.000008
    11  H   -0.017068   0.002171  -0.020982  -0.016372   0.000139   0.000013
    12  N   -0.011980   0.279413   0.130710   0.022524   0.009967  -0.033462
    13  C    0.057621  -0.124481  -0.232289  -0.002315   0.000687   0.012704
    14  H    0.007618  -0.015257  -0.003860  -0.002683  -0.000013   0.000251
    15  H   -0.004072  -0.003219   0.003278   0.003887   0.000014  -0.000148
    16  C    0.008829  -0.169084   0.096125   0.020985  -0.000054   0.002492
    17  H    0.000989   0.006932  -0.004624  -0.000583  -0.000001  -0.000339
    18  H   -0.005853   0.004734   0.001898   0.000346   0.000037  -0.000136
    19  C   -0.076422   0.222314   0.048325  -0.001142   0.000181  -0.004415
    20  H    0.001255   0.000643  -0.001596   0.000150  -0.000001   0.000005
    21  H   -0.000697  -0.003067   0.004752  -0.000097   0.000000   0.000010
    22  S    0.093669  -0.089503  -0.180357   0.004761   0.000459   0.000865
    23  O    0.001145   0.014715  -0.015885  -0.001336  -0.000008  -0.000093
    24  O    0.003438  -0.030873  -0.017801  -0.003803  -0.000776  -0.004091
    25  O    0.001648  -0.009227  -0.104419   0.022243   0.000212   0.000092
    26  O    0.001188  -0.000926  -0.004206   0.000378   0.000000   0.000002
    27  H   -0.000377   0.000847   0.001294   0.000042  -0.000000  -0.000001
    28  H    0.000107   0.000023  -0.000281  -0.000028  -0.000000  -0.000000
               7          8          9         10         11         12
     1  C    0.016103  -0.060757  -0.006640   0.005565  -0.017068  -0.011980
     2  C    0.001366   0.012690   0.020500  -0.004734   0.002171   0.279413
     3  C    0.418069  -0.190525   0.029716  -0.009241  -0.020982   0.130710
     4  N   -0.044043   0.151321  -0.071923  -0.050941  -0.016372   0.022524
     5  H   -0.000028  -0.001043   0.002512   0.000071   0.000139   0.009967
     6  H   -0.000075  -0.000558  -0.000026   0.000008   0.000013  -0.033462
     7  H    0.429518   0.005982  -0.000207   0.001780   0.000179  -0.032470
     8  C    0.005982   5.269923   0.398441   0.425554   0.424205   0.009863
     9  H   -0.000207   0.398441   0.501645  -0.016918  -0.020581  -0.004424
    10  H    0.001780   0.425554  -0.016918   0.501915  -0.030007  -0.000327
    11  H    0.000179   0.424205  -0.020581  -0.030007   0.436972   0.004118
    12  N   -0.032470   0.009863  -0.004424  -0.000327   0.004118   6.278645
    13  C   -0.003323   0.008669   0.000017   0.000457  -0.000614   0.173875
    14  H    0.000412  -0.000047  -0.000003  -0.000007   0.000003  -0.054617
    15  H    0.002489   0.000964   0.000001   0.000006   0.000006  -0.051988
    16  C   -0.000299   0.000517   0.000192  -0.000058   0.000486  -0.036269
    17  H   -0.000029  -0.000073  -0.000000  -0.000000   0.000000  -0.000823
    18  H    0.000101   0.000145  -0.000000   0.000000   0.000001  -0.000919
    19  C   -0.002547  -0.012282  -0.000057  -0.000014  -0.000514   0.062079
    20  H   -0.000005   0.000062  -0.000000   0.000000  -0.000001   0.001337
    21  H    0.000115   0.000032   0.000000   0.000000   0.000001  -0.003659
    22  S    0.008842   0.002992  -0.001185   0.000824   0.001216  -0.067560
    23  O    0.000021   0.001768  -0.000016   0.000022  -0.000147  -0.017728
    24  O    0.000700  -0.004692   0.000006  -0.000183   0.000415   0.047497
    25  O   -0.034455   0.006806   0.000036  -0.001063   0.004477   0.032179
    26  O    0.000004   0.000712  -0.000000  -0.000001   0.000030  -0.000239
    27  H   -0.000005  -0.000619   0.000001  -0.000000  -0.000012   0.000264
    28  H    0.000000   0.000032   0.000000   0.000000   0.000006  -0.000008
              13         14         15         16         17         18
     1  C    0.057621   0.007618  -0.004072   0.008829   0.000989  -0.005853
     2  C   -0.124481  -0.015257  -0.003219  -0.169084   0.006932   0.004734
     3  C   -0.232289  -0.003860   0.003278   0.096125  -0.004624   0.001898
     4  N   -0.002315  -0.002683   0.003887   0.020985  -0.000583   0.000346
     5  H    0.000687  -0.000013   0.000014  -0.000054  -0.000001   0.000037
     6  H    0.012704   0.000251  -0.000148   0.002492  -0.000339  -0.000136
     7  H   -0.003323   0.000412   0.002489  -0.000299  -0.000029   0.000101
     8  C    0.008669  -0.000047   0.000964   0.000517  -0.000073   0.000145
     9  H    0.000017  -0.000003   0.000001   0.000192  -0.000000  -0.000000
    10  H    0.000457  -0.000007   0.000006  -0.000058  -0.000000   0.000000
    11  H   -0.000614   0.000003   0.000006   0.000486   0.000000   0.000001
    12  N    0.173875  -0.054617  -0.051988  -0.036269  -0.000823  -0.000919
    13  C    5.912672   0.450820   0.444727  -0.141835  -0.032047  -0.064896
    14  H    0.450820   0.514013  -0.022298  -0.063987  -0.006157  -0.000622
    15  H    0.444727  -0.022298   0.458103  -0.021373  -0.000352   0.003692
    16  C   -0.141835  -0.063987  -0.021373   6.398410   0.394109   0.486264
    17  H   -0.032047  -0.006157  -0.000352   0.394109   0.527827  -0.030001
    18  H   -0.064896  -0.000622   0.003692   0.486264  -0.030001   0.481264
    19  C   -0.092180   0.008774  -0.022605  -0.884169  -0.004692  -0.058277
    20  H    0.025544  -0.000114  -0.000078  -0.070534  -0.005192  -0.004335
    21  H   -0.025063  -0.000126   0.002739  -0.010265  -0.005956   0.005240
    22  S   -0.027296   0.003770   0.005666   0.211417  -0.004845   0.011157
    23  O    0.006149  -0.000085  -0.000332  -0.037846  -0.000247   0.000057
    24  O    0.032113   0.000462  -0.000842  -0.028493   0.001538  -0.010987
    25  O    0.008539   0.002249   0.002491   0.042726  -0.001358   0.002236
    26  O    0.000513   0.000000   0.000002   0.002709  -0.000002   0.000003
    27  H   -0.000147  -0.000000  -0.000002  -0.000180   0.000001  -0.000003
    28  H    0.000031  -0.000000   0.000000   0.000177   0.000000   0.000001
              19         20         21         22         23         24
     1  C   -0.076422   0.001255  -0.000697   0.093669   0.001145   0.003438
     2  C    0.222314   0.000643  -0.003067  -0.089503   0.014715  -0.030873
     3  C    0.048325  -0.001596   0.004752  -0.180357  -0.015885  -0.017801
     4  N   -0.001142   0.000150  -0.000097   0.004761  -0.001336  -0.003803
     5  H    0.000181  -0.000001   0.000000   0.000459  -0.000008  -0.000776
     6  H   -0.004415   0.000005   0.000010   0.000865  -0.000093  -0.004091
     7  H   -0.002547  -0.000005   0.000115   0.008842   0.000021   0.000700
     8  C   -0.012282   0.000062   0.000032   0.002992   0.001768  -0.004692
     9  H   -0.000057  -0.000000   0.000000  -0.001185  -0.000016   0.000006
    10  H   -0.000014   0.000000   0.000000   0.000824   0.000022  -0.000183
    11  H   -0.000514  -0.000001   0.000001   0.001216  -0.000147   0.000415
    12  N    0.062079   0.001337  -0.003659  -0.067560  -0.017728   0.047497
    13  C   -0.092180   0.025544  -0.025063  -0.027296   0.006149   0.032113
    14  H    0.008774  -0.000114  -0.000126   0.003770  -0.000085   0.000462
    15  H   -0.022605  -0.000078   0.002739   0.005666  -0.000332  -0.000842
    16  C   -0.884169  -0.070534  -0.010265   0.211417  -0.037846  -0.028493
    17  H   -0.004692  -0.005192  -0.005956  -0.004845  -0.000247   0.001538
    18  H   -0.058277  -0.004335   0.005240   0.011157   0.000057  -0.010987
    19  C    7.262020   0.444563   0.425914  -0.477363  -0.077991  -0.158981
    20  H    0.444563   0.471299  -0.029385  -0.053770   0.014966   0.002844
    21  H    0.425914  -0.029385   0.468980  -0.040462   0.003935  -0.004815
    22  S   -0.477363  -0.053770  -0.040462  14.318240   0.416469   0.445926
    23  O   -0.077991   0.014966   0.003935   0.416469   8.333572  -0.078064
    24  O   -0.158981   0.002844  -0.004815   0.445926  -0.078064   8.472427
    25  O   -0.146791  -0.002561   0.012505   0.271280  -0.082101  -0.008843
    26  O   -0.009003   0.000160   0.000018   0.010452  -0.016113   0.003666
    27  H    0.005085  -0.000134  -0.000023   0.010802   0.044180   0.000760
    28  H   -0.002407  -0.000001   0.000001  -0.004707   0.009749   0.000582
              25         26         27         28
     1  C    0.001648   0.001188  -0.000377   0.000107
     2  C   -0.009227  -0.000926   0.000847   0.000023
     3  C   -0.104419  -0.004206   0.001294  -0.000281
     4  N    0.022243   0.000378   0.000042  -0.000028
     5  H    0.000212   0.000000  -0.000000  -0.000000
     6  H    0.000092   0.000002  -0.000001  -0.000000
     7  H   -0.034455   0.000004  -0.000005   0.000000
     8  C    0.006806   0.000712  -0.000619   0.000032
     9  H    0.000036  -0.000000   0.000001   0.000000
    10  H   -0.001063  -0.000001  -0.000000   0.000000
    11  H    0.004477   0.000030  -0.000012   0.000006
    12  N    0.032179  -0.000239   0.000264  -0.000008
    13  C    0.008539   0.000513  -0.000147   0.000031
    14  H    0.002249   0.000000  -0.000000  -0.000000
    15  H    0.002491   0.000002  -0.000002   0.000000
    16  C    0.042726   0.002709  -0.000180   0.000177
    17  H   -0.001358  -0.000002   0.000001   0.000000
    18  H    0.002236   0.000003  -0.000003   0.000001
    19  C   -0.146791  -0.009003   0.005085  -0.002407
    20  H   -0.002561   0.000160  -0.000134  -0.000001
    21  H    0.012505   0.000018  -0.000023   0.000001
    22  S    0.271280   0.010452   0.010802  -0.004707
    23  O   -0.082101  -0.016113   0.044180   0.009749
    24  O   -0.008843   0.003666   0.000760   0.000582
    25  O    8.693499  -0.006039   0.002741  -0.000029
    26  O   -0.006039   8.019523   0.310874   0.305507
    27  H    0.002741   0.310874   0.297671  -0.032744
    28  H   -0.000029   0.305507  -0.032744   0.468855
 Mulliken charges:
               1
     1  C   -0.126055
     2  C   -0.169018
     3  C   -0.278454
     4  N    0.301230
     5  H    0.156640
     6  H    0.162248
     7  H    0.231803
     8  C   -0.450079
     9  H    0.168913
    10  H    0.177290
    11  H    0.231860
    12  N    0.264004
    13  C   -0.388654
    14  H    0.181504
    15  H    0.199244
    16  C   -0.200989
    17  H    0.165925
    18  H    0.178857
    19  C   -0.447407
    20  H    0.204878
    21  H    0.199370
    22  S    1.128241
    23  O   -0.518758
    24  O   -0.659129
    25  O   -0.709070
    26  O   -0.619211
    27  H    0.359686
    28  H    0.255134
 Sum of Mulliken charges =  -0.00000
 Mulliken charges with hydrogens summed into heavy atoms:
               1
     1  C    0.030585
     2  C   -0.006771
     3  C   -0.046651
     4  N    0.301230
     8  C    0.127984
    12  N    0.264004
    13  C   -0.007906
    16  C    0.143793
    19  C   -0.043159
    22  S    1.128241
    23  O   -0.518758
    24  O   -0.659129
    25  O   -0.709070
    26  O   -0.004392
         Mulliken charges condensed to fragments:
      1      0.004392
      2     -0.004392
 Electronic spatial extent (au):  <R**2>=         178000.8479
 Charge=              0.0000 electrons
 Dipole moment (field-independent basis, Debye):
    X=              7.9216    Y=             -3.8774    Z=              7.7898  Tot=             11.7672
 Quadrupole moment (field-independent basis, Debye-Ang):
   XX=             98.7622   YY=           -158.8716   ZZ=            110.3553
   XY=             42.6166   XZ=            182.3468   YZ=             26.2001
 Traceless Quadrupole moment (field-independent basis, Debye-Ang):
   XX=             82.0136   YY=           -175.6202   ZZ=             93.6066
   XY=             42.6166   XZ=            182.3468   YZ=             26.2001
 Octapole moment (field-independent basis, Debye-Ang**2):
  XXX=             88.7312  YYY=          -3655.4175  ZZZ=            457.4343  XYY=           -948.7657
  XXY=            656.8405  XXZ=           2132.5624  XZZ=           2256.6127  YZZ=            401.0516
  YYZ=          -1268.1053  XYZ=           1330.2264
 Hexadecapole moment (field-independent basis, Debye-Ang**3):
 XXXX=         -28119.9553 YYYY=         -67439.4243 ZZZZ=         -20958.6806 XXXY=          -1932.3683
 XXXZ=          10539.6696 YYYX=         -33989.5697 YYYZ=         -38446.5588 ZZZX=          14025.0750
 ZZZY=          -4742.7415 XXYY=          -9689.7183 XXZZ=          23953.3064 YYZZ=         -16058.1045
 XXYZ=          16933.8264 YYXZ=          -4314.1892 ZZXY=          15804.6495
 N-N= 1.173236325484D+03 E-N=-4.897055801093D+03  KE= 1.079963236039D+03
 No NMR shielding tensors so no spin-rotation constants.
 Leave Link  601 at Sun Feb 19 13:07:51 2023, MaxMem=  6710886400 cpu:               3.3 elap:               0.2
 (Enter /data0/home/software/g16/l122.exe)
 CPIOFr:  IOpCl= 0 IRwI=-1 IRwCP=  731 ICalc= -1 LCPTot=      340231 Len1MO=      893396 IndFrg=      340231
 CPIOFr:  IOpCl= 0 IRwI=-1 IRwCP=  731 ICalc=  0 LCPTot=      340231 Len1MO=      893396 IndFrg=     1233627
 Counterpoise: doing calculation for fragment   1 using the basis set of the full-system, NewBq=T
 Leave Link  122 at Sun Feb 19 13:07:51 2023, MaxMem=  6710886400 cpu:               0.4 elap:               0.0
 (Enter /data0/home/software/g16/l301.exe)
 Basis read from rwf:  (5D, 7F)
 No pseudopotential information found on rwf file.
   470 basis functions,   714 primitive gaussians,   498 cartesian basis functions
    54 alpha electrons       54 beta electrons
       nuclear repulsion energy      1045.4263523702 Hartrees.
 IExCor= 4336 DFT=T Ex+Corr=M062X ExCW=0 ScaHFX=  0.540000
 ScaDFX=  1.000000  1.000000  1.000000  1.000000 ScalE2=  1.000000  1.000000
 IRadAn=      5 IRanWt=     -1 IRanGd=            0 ICorTp=0 IEmpDi=131
 NAtoms=   28 NActive=   28 NUniq=   28 SFac= 1.00D+00 NAtFMM=   60 NAOKFM=F Big=F
 Integral buffers will be    131072 words long.
 Raffenetti 2 integral format.
 Two-electron integral symmetry is turned off.
 R6Disp:  Grimme-D3 Dispersion energy=       -0.0011951318 Hartrees.
 Nuclear repulsion after empirical dispersion term =     1045.4251572384 Hartrees.
 No density basis found on file   718.
 Leave Link  301 at Sun Feb 19 13:07:51 2023, MaxMem=  6710886400 cpu:               1.3 elap:               0.1
 (Enter /data0/home/software/g16/l302.exe)
 NPDir=0 NMtPBC=     1 NCelOv=     1 NCel=       1 NClECP=     1 NCelD=      1
         NCelK=      1 NCelE2=     1 NClLst=     1 CellRange=     0.0.
 One-electron integrals computed using PRISM.
 NBasis=   470 RedAO= T EigKep=  1.41D-05  NBF=   470
 NBsUse=   470 1.00D-06 EigRej= -1.00D+00 NBFU=   470
 Precomputing XC quadrature grid using
 IXCGrd= 4 IRadAn=           5 IRanWt=          -1 IRanGd=           0 AccXCQ= 0.00D+00.
 Generated NRdTot=       0 NPtTot=           0 NUsed=           0 NTot=          32
 NSgBfM=   495   495   495   495   495 MxSgAt=    28 MxSgA2=    28.
 Leave Link  302 at Sun Feb 19 13:07:52 2023, MaxMem=  6710886400 cpu:              10.1 elap:               0.4
 (Enter /data0/home/software/g16/l303.exe)
 DipDrv:  MaxL=1.
 Leave Link  303 at Sun Feb 19 13:07:52 2023, MaxMem=  6710886400 cpu:               1.1 elap:               0.1
 (Enter /data0/home/software/g16/l401.exe)
 ExpMin= 4.05D-02 ExpMax= 9.34D+04 ExpMxC= 3.17D+03 IAcc=3 IRadAn=         5 AccDes= 0.00D+00
 Harris functional with IExCor= 1009 and IRadAn=       5 diagonalized for initial guess.
 HarFok:  IExCor= 1009 AccDes= 0.00D+00 IRadAn=         5 IDoV= 1 UseB2=F ITyADJ=14
 ICtDFT=  3500011 ScaDFX=  1.000000  1.000000  1.000000  1.000000
 FoFCou: FMM=F IPFlag=           0 FMFlag=      100000 FMFlg1=           0
         NFxFlg=           0 DoJE=T BraDBF=F KetDBF=T FulRan=T
         wScrn=  0.000000 ICntrl=       500 IOpCl=  0 I1Cent=   200000004 NGrid=           0
         NMat0=    1 NMatS0=      1 NMatT0=    0 NMatD0=    1 NMtDS0=    0 NMtDT0=    0
 Symmetry not used in FoFCou.
 Harris En= -1006.80274611356    
 JPrj=0 DoOrth=F DoCkMO=F.
 Leave Link  401 at Sun Feb 19 13:07:53 2023, MaxMem=  6710886400 cpu:              38.7 elap:               1.6
 (Enter /data0/home/software/g16/l502.exe)
 Two-electron integral symmetry not used.
 Closed shell SCF:
 Using DIIS extrapolation, IDIIS=  1040.
 NGot=  6710886400 LenX=  6710374910 LenY=  6710126408
 Requested convergence on RMS density matrix=1.00D-08 within 128 cycles.
 Requested convergence on MAX density matrix=1.00D-06.
 Requested convergence on             energy=1.00D-06.
 No special actions if energy rises.
 Fock matrices will be formed incrementally for  20 cycles.

 Cycle   1  Pass 1  IDiag  1:
 FoFJK:  IHMeth= 1 ICntrl=       0 DoSepK=F KAlg= 0 I1Cent=           0 FoldK=F
 IRaf= 880000000 NMat=       1 IRICut=       1 DoRegI=T DoRafI=F ISym2E= 0 IDoP0=0 IntGTp=1.
 FoFCou: FMM=F IPFlag=           0 FMFlag=      100000 FMFlg1=           0
         NFxFlg=           0 DoJE=F BraDBF=F KetDBF=F FulRan=T
         wScrn=  0.000000 ICntrl=         0 IOpCl=  0 I1Cent=           0 NGrid=           0
         NMat0=    1 NMatS0=      1 NMatT0=    0 NMatD0=    1 NMtDS0=    0 NMtDT0=    0
 Symmetry not used in FoFCou.
 E= -1006.77343235564    
 DIIS: error= 2.02D-02 at cycle   1 NSaved=   1.
 NSaved= 1 IEnMin= 1 EnMin= -1006.77343235564     IErMin= 1 ErrMin= 2.02D-02
 ErrMax= 2.02D-02  0.00D+00 EMaxC= 1.00D-01 BMatC= 7.13D-01 BMatP= 7.13D-01
 IDIUse=3 WtCom= 7.98D-01 WtEn= 2.02D-01
 Coeff-Com:  0.100D+01
 Coeff-En:   0.100D+01
 Coeff:      0.100D+01
 Gap=     0.272 Goal=   None    Shift=    0.000
 GapD=    0.272 DampG=1.000 DampE=0.500 DampFc=0.5000 IDamp=-1.
 Damping current iteration by 5.00D-01
 RMSDP=4.69D-03 MaxDP=3.35D-01              OVMax= 1.91D-01

 Cycle   2  Pass 1  IDiag  1:
 RMSU=  2.34D-03    CP:  9.88D-01
 E= -1006.96630222093     Delta-E=       -0.192869865283 Rises=F Damp=T
 DIIS: error= 5.13D-03 at cycle   2 NSaved=   2.
 NSaved= 2 IEnMin= 2 EnMin= -1006.96630222093     IErMin= 2 ErrMin= 5.13D-03
 ErrMax= 5.13D-03  0.00D+00 EMaxC= 1.00D-01 BMatC= 5.01D-02 BMatP= 7.13D-01
 IDIUse=3 WtCom= 9.49D-01 WtEn= 5.13D-02
 Coeff-Com:  0.317D-01 0.968D+00
 Coeff-En:   0.113D+00 0.887D+00
 Coeff:      0.359D-01 0.964D+00
 Gap=     0.269 Goal=   None    Shift=    0.000
 RMSDP=1.77D-03 MaxDP=2.77D-01 DE=-1.93D-01 OVMax= 1.18D-01

 Cycle   3  Pass 1  IDiag  1:
 RMSU=  1.58D-03    CP:  9.19D-01  8.53D-01
 E= -1007.19976503184     Delta-E=       -0.233462810913 Rises=F Damp=F
 DIIS: error= 3.37D-03 at cycle   3 NSaved=   3.
 NSaved= 3 IEnMin= 3 EnMin= -1007.19976503184     IErMin= 3 ErrMin= 3.37D-03
 ErrMax= 3.37D-03  0.00D+00 EMaxC= 1.00D-01 BMatC= 1.91D-02 BMatP= 5.01D-02
 IDIUse=3 WtCom= 9.66D-01 WtEn= 3.37D-02
 Coeff-Com: -0.624D-01 0.353D+00 0.709D+00
 Coeff-En:   0.000D+00 0.000D+00 0.100D+01
 Coeff:     -0.603D-01 0.341D+00 0.719D+00
 Gap=     0.264 Goal=   None    Shift=    0.000
 RMSDP=4.90D-04 MaxDP=2.65D-02 DE=-2.33D-01 OVMax= 2.96D-02

 Cycle   4  Pass 1  IDiag  1:
 RMSU=  4.24D-04    CP:  9.17D-01  9.51D-01  9.45D-01
 E= -1007.21150688335     Delta-E=       -0.011741851513 Rises=F Damp=F
 DIIS: error= 1.42D-03 at cycle   4 NSaved=   4.
 NSaved= 4 IEnMin= 4 EnMin= -1007.21150688335     IErMin= 4 ErrMin= 1.42D-03
 ErrMax= 1.42D-03  0.00D+00 EMaxC= 1.00D-01 BMatC= 3.08D-03 BMatP= 1.91D-02
 IDIUse=3 WtCom= 9.86D-01 WtEn= 1.42D-02
 Coeff-Com: -0.297D-01 0.851D-01 0.347D+00 0.597D+00
 Coeff-En:   0.000D+00 0.000D+00 0.104D+00 0.896D+00
 Coeff:     -0.293D-01 0.839D-01 0.344D+00 0.601D+00
 Gap=     0.262 Goal=   None    Shift=    0.000
 RMSDP=1.88D-04 MaxDP=1.32D-02 DE=-1.17D-02 OVMax= 1.18D-02

 Cycle   5  Pass 1  IDiag  1:
 RMSU=  1.16D-04    CP:  9.15D-01  9.27D-01  9.75D-01  7.04D-01
 E= -1007.21412733602     Delta-E=       -0.002620452671 Rises=F Damp=F
 DIIS: error= 2.91D-04 at cycle   5 NSaved=   5.
 NSaved= 5 IEnMin= 5 EnMin= -1007.21412733602     IErMin= 5 ErrMin= 2.91D-04
 ErrMax= 2.91D-04  0.00D+00 EMaxC= 1.00D-01 BMatC= 1.59D-04 BMatP= 3.08D-03
 IDIUse=3 WtCom= 9.97D-01 WtEn= 2.91D-03
 Coeff-Com: -0.943D-02 0.195D-01 0.114D+00 0.270D+00 0.605D+00
 Coeff-En:   0.000D+00 0.000D+00 0.000D+00 0.000D+00 0.100D+01
 Coeff:     -0.940D-02 0.195D-01 0.114D+00 0.270D+00 0.606D+00
 Gap=     0.261 Goal=   None    Shift=    0.000
 RMSDP=5.21D-05 MaxDP=3.08D-03 DE=-2.62D-03 OVMax= 2.75D-03

 Cycle   6  Pass 1  IDiag  1:
 RMSU=  3.31D-05    CP:  9.15D-01  9.32D-01  9.74D-01  7.57D-01  7.36D-01
 E= -1007.21423510232     Delta-E=       -0.000107766292 Rises=F Damp=F
 DIIS: error= 1.14D-04 at cycle   6 NSaved=   6.
 NSaved= 6 IEnMin= 6 EnMin= -1007.21423510232     IErMin= 6 ErrMin= 1.14D-04
 ErrMax= 1.14D-04  0.00D+00 EMaxC= 1.00D-01 BMatC= 2.43D-05 BMatP= 1.59D-04
 IDIUse=3 WtCom= 9.99D-01 WtEn= 1.14D-03
 Coeff-Com: -0.184D-02 0.164D-02 0.233D-01 0.807D-01 0.325D+00 0.571D+00
 Coeff-En:   0.000D+00 0.000D+00 0.000D+00 0.000D+00 0.367D-01 0.963D+00
 Coeff:     -0.184D-02 0.163D-02 0.233D-01 0.806D-01 0.325D+00 0.571D+00
 Gap=     0.261 Goal=   None    Shift=    0.000
 RMSDP=1.69D-05 MaxDP=1.07D-03 DE=-1.08D-04 OVMax= 9.91D-04

 Cycle   7  Pass 1  IDiag  1:
 RMSU=  1.48D-05    CP:  9.15D-01  9.31D-01  9.77D-01  7.66D-01  7.53D-01
                    CP:  8.85D-01
 E= -1007.21425343248     Delta-E=       -0.000018330161 Rises=F Damp=F
 DIIS: error= 2.51D-05 at cycle   7 NSaved=   7.
 NSaved= 7 IEnMin= 7 EnMin= -1007.21425343248     IErMin= 7 ErrMin= 2.51D-05
 ErrMax= 2.51D-05  0.00D+00 EMaxC= 1.00D-01 BMatC= 1.24D-06 BMatP= 2.43D-05
 IDIUse=1 WtCom= 1.00D+00 WtEn= 0.00D+00
 Coeff-Com:  0.493D-03-0.180D-02-0.607D-02-0.299D-02 0.474D-01 0.203D+00
 Coeff-Com:  0.760D+00
 Coeff:      0.493D-03-0.180D-02-0.607D-02-0.299D-02 0.474D-01 0.203D+00
 Coeff:      0.760D+00
 Gap=     0.261 Goal=   None    Shift=    0.000
 RMSDP=5.16D-06 MaxDP=2.85D-04 DE=-1.83D-05 OVMax= 2.74D-04

 Cycle   8  Pass 1  IDiag  1:
 RMSU=  3.90D-06    CP:  9.15D-01  9.30D-01  9.77D-01  7.67D-01  7.74D-01
                    CP:  9.22D-01  9.24D-01
 E= -1007.21425465908     Delta-E=       -0.000001226603 Rises=F Damp=F
 DIIS: error= 7.78D-06 at cycle   8 NSaved=   8.
 NSaved= 8 IEnMin= 8 EnMin= -1007.21425465908     IErMin= 8 ErrMin= 7.78D-06
 ErrMax= 7.78D-06  0.00D+00 EMaxC= 1.00D-01 BMatC= 1.14D-07 BMatP= 1.24D-06
 IDIUse=1 WtCom= 1.00D+00 WtEn= 0.00D+00
 Coeff-Com:  0.341D-03-0.703D-03-0.482D-02-0.100D-01-0.209D-01 0.143D-02
 Coeff-Com:  0.244D+00 0.790D+00
 Coeff:      0.341D-03-0.703D-03-0.482D-02-0.100D-01-0.209D-01 0.143D-02
 Coeff:      0.244D+00 0.790D+00
 Gap=     0.261 Goal=   None    Shift=    0.000
 RMSDP=1.92D-06 MaxDP=7.14D-05 DE=-1.23D-06 OVMax= 1.72D-04

 Cycle   9  Pass 1  IDiag  1:
 RMSU=  1.38D-06    CP:  9.15D-01  9.30D-01  9.77D-01  7.68D-01  7.82D-01
                    CP:  9.38D-01  9.62D-01  1.01D+00
 E= -1007.21425480531     Delta-E=       -0.000000146228 Rises=F Damp=F
 DIIS: error= 4.89D-06 at cycle   9 NSaved=   9.
 NSaved= 9 IEnMin= 9 EnMin= -1007.21425480531     IErMin= 9 ErrMin= 4.89D-06
 ErrMax= 4.89D-06  0.00D+00 EMaxC= 1.00D-01 BMatC= 1.48D-08 BMatP= 1.14D-07
 IDIUse=1 WtCom= 1.00D+00 WtEn= 0.00D+00
 Coeff-Com:  0.948D-04-0.146D-03-0.156D-02-0.391D-02-0.122D-01-0.136D-01
 Coeff-Com:  0.386D-01 0.312D+00 0.681D+00
 Coeff:      0.948D-04-0.146D-03-0.156D-02-0.391D-02-0.122D-01-0.136D-01
 Coeff:      0.386D-01 0.312D+00 0.681D+00
 Gap=     0.261 Goal=   None    Shift=    0.000
 RMSDP=5.75D-07 MaxDP=5.35D-05 DE=-1.46D-07 OVMax= 4.54D-05

 Cycle  10  Pass 1  IDiag  1:
 RMSU=  4.30D-07    CP:  9.15D-01  9.30D-01  9.77D-01  7.68D-01  7.80D-01
                    CP:  9.40D-01  9.74D-01  1.07D+00  9.39D-01
 E= -1007.21425482170     Delta-E=       -0.000000016389 Rises=F Damp=F
 DIIS: error= 1.20D-06 at cycle  10 NSaved=  10.
 NSaved=10 IEnMin=10 EnMin= -1007.21425482170     IErMin=10 ErrMin= 1.20D-06
 ErrMax= 1.20D-06  0.00D+00 EMaxC= 1.00D-01 BMatC= 1.67D-09 BMatP= 1.48D-08
 IDIUse=1 WtCom= 1.00D+00 WtEn= 0.00D+00
 Coeff-Com: -0.132D-04 0.425D-04 0.673D-04-0.119D-03-0.189D-02-0.526D-02
 Coeff-Com: -0.190D-01 0.110D-01 0.249D+00 0.766D+00
 Coeff:     -0.132D-04 0.425D-04 0.673D-04-0.119D-03-0.189D-02-0.526D-02
 Coeff:     -0.190D-01 0.110D-01 0.249D+00 0.766D+00
 Gap=     0.261 Goal=   None    Shift=    0.000
 RMSDP=2.14D-07 MaxDP=1.04D-05 DE=-1.64D-08 OVMax= 2.59D-05

 Cycle  11  Pass 1  IDiag  1:
 RMSU=  1.43D-07    CP:  9.15D-01  9.30D-01  9.77D-01  7.68D-01  7.81D-01
                    CP:  9.40D-01  9.73D-01  1.09D+00  1.01D+00  1.08D+00
 E= -1007.21425482395     Delta-E=       -0.000000002251 Rises=F Damp=F
 DIIS: error= 6.50D-07 at cycle  11 NSaved=  11.
 NSaved=11 IEnMin=11 EnMin= -1007.21425482395     IErMin=11 ErrMin= 6.50D-07
 ErrMax= 6.50D-07  0.00D+00 EMaxC= 1.00D-01 BMatC= 3.24D-10 BMatP= 1.67D-09
 IDIUse=1 WtCom= 1.00D+00 WtEn= 0.00D+00
 Coeff-Com: -0.168D-04 0.357D-04 0.230D-03 0.455D-03 0.812D-03-0.131D-03
 Coeff-Com: -0.128D-01-0.379D-01-0.132D-02 0.334D+00 0.717D+00
 Coeff:     -0.168D-04 0.357D-04 0.230D-03 0.455D-03 0.812D-03-0.131D-03
 Coeff:     -0.128D-01-0.379D-01-0.132D-02 0.334D+00 0.717D+00
 Gap=     0.261 Goal=   None    Shift=    0.000
 RMSDP=8.22D-08 MaxDP=4.20D-06 DE=-2.25D-09 OVMax= 6.75D-06

 Cycle  12  Pass 1  IDiag  1:
 RMSU=  4.96D-08    CP:  9.15D-01  9.30D-01  9.77D-01  7.68D-01  7.81D-01
                    CP:  9.39D-01  9.73D-01  1.10D+00  1.04D+00  1.16D+00
                    CP:  9.47D-01
 E= -1007.21425482424     Delta-E=       -0.000000000293 Rises=F Damp=F
 DIIS: error= 2.19D-07 at cycle  12 NSaved=  12.
 NSaved=12 IEnMin=12 EnMin= -1007.21425482424     IErMin=12 ErrMin= 2.19D-07
 ErrMax= 2.19D-07  0.00D+00 EMaxC= 1.00D-01 BMatC= 3.45D-11 BMatP= 3.24D-10
 IDIUse=1 WtCom= 1.00D+00 WtEn= 0.00D+00
 Coeff-Com: -0.566D-05 0.112D-04 0.938D-04 0.202D-03 0.492D-03 0.411D-03
 Coeff-Com: -0.393D-02-0.166D-01-0.250D-01 0.842D-01 0.314D+00 0.646D+00
 Coeff:     -0.566D-05 0.112D-04 0.938D-04 0.202D-03 0.492D-03 0.411D-03
 Coeff:     -0.393D-02-0.166D-01-0.250D-01 0.842D-01 0.314D+00 0.646D+00
 Gap=     0.261 Goal=   None    Shift=    0.000
 RMSDP=2.34D-08 MaxDP=1.05D-06 DE=-2.93D-10 OVMax= 1.60D-06

 Cycle  13  Pass 1  IDiag  1:
 RMSU=  1.83D-08    CP:  9.15D-01  9.30D-01  9.77D-01  7.68D-01  7.81D-01
                    CP:  9.39D-01  9.72D-01  1.10D+00  1.04D+00  1.17D+00
                    CP:  1.02D+00  9.72D-01
 E= -1007.21425482434     Delta-E=       -0.000000000101 Rises=F Damp=F
 DIIS: error= 8.49D-08 at cycle  13 NSaved=  13.
 NSaved=13 IEnMin=13 EnMin= -1007.21425482434     IErMin=13 ErrMin= 8.49D-08
 ErrMax= 8.49D-08  0.00D+00 EMaxC= 1.00D-01 BMatC= 7.37D-12 BMatP= 3.45D-11
 IDIUse=1 WtCom= 1.00D+00 WtEn= 0.00D+00
 Coeff-Com:  0.426D-06-0.118D-05 0.516D-05 0.161D-04 0.918D-04 0.233D-03
 Coeff-Com:  0.257D-03-0.101D-02-0.133D-01-0.158D-01 0.259D-01 0.338D+00
 Coeff-Com:  0.665D+00
 Coeff:      0.426D-06-0.118D-05 0.516D-05 0.161D-04 0.918D-04 0.233D-03
 Coeff:      0.257D-03-0.101D-02-0.133D-01-0.158D-01 0.259D-01 0.338D+00
 Coeff:      0.665D+00
 Gap=     0.261 Goal=   None    Shift=    0.000
 RMSDP=1.09D-08 MaxDP=1.11D-06 DE=-1.01D-10 OVMax= 1.02D-06

 Cycle  14  Pass 1  IDiag  1:
 RMSU=  7.68D-09    CP:  9.15D-01  9.30D-01  9.77D-01  7.68D-01  7.81D-01
                    CP:  9.39D-01  9.73D-01  1.10D+00  1.04D+00  1.18D+00
                    CP:  1.03D+00  1.06D+00  8.71D-01
 E= -1007.21425482437     Delta-E=       -0.000000000025 Rises=F Damp=F
 DIIS: error= 1.77D-08 at cycle  14 NSaved=  14.
 NSaved=14 IEnMin=14 EnMin= -1007.21425482437     IErMin=14 ErrMin= 1.77D-08
 ErrMax= 1.77D-08  0.00D+00 EMaxC= 1.00D-01 BMatC= 4.30D-13 BMatP= 7.37D-12
 IDIUse=1 WtCom= 1.00D+00 WtEn= 0.00D+00
 Coeff-Com:  0.714D-06-0.156D-05-0.699D-05-0.131D-04-0.143D-04 0.482D-04
 Coeff-Com:  0.451D-03 0.136D-02-0.277D-02-0.138D-01-0.261D-01 0.397D-01
 Coeff-Com:  0.223D+00 0.779D+00
 Coeff:      0.714D-06-0.156D-05-0.699D-05-0.131D-04-0.143D-04 0.482D-04
 Coeff:      0.451D-03 0.136D-02-0.277D-02-0.138D-01-0.261D-01 0.397D-01
 Coeff:      0.223D+00 0.779D+00
 Gap=     0.261 Goal=   None    Shift=    0.000
 RMSDP=3.75D-09 MaxDP=1.48D-07 DE=-2.55D-11 OVMax= 3.05D-07

 SCF Done:  E(RM062X) =  -1007.21425482     A.U. after   14 cycles
            NFock= 14  Conv=0.38D-08     -V/T= 2.0035
 KE= 1.003742159115D+03 PE=-4.460834071295D+03 EE= 1.404452500118D+03
 Leave Link  502 at Sun Feb 19 13:09:10 2023, MaxMem=  6710886400 cpu:            1828.5 elap:              76.4
 (Enter /data0/home/software/g16/l601.exe)
 Copying SCF densities to generalized density rwf, IOpCl= 0 IROHF=0.

 **********************************************************************

            Population analysis using the SCF density.

 **********************************************************************

 Alpha  occ. eigenvalues --  -90.04407 -19.56031 -19.54676 -19.54651 -14.86422
 Alpha  occ. eigenvalues --  -14.85697 -10.67333 -10.62087 -10.61893 -10.61829
 Alpha  occ. eigenvalues --  -10.61801 -10.56155 -10.54302  -8.37838  -6.30120
 Alpha  occ. eigenvalues --   -6.30088  -6.30061  -1.19315  -1.18324  -1.07926
 Alpha  occ. eigenvalues --   -1.05510  -1.04013  -0.92521  -0.89505  -0.85955
 Alpha  occ. eigenvalues --   -0.80952  -0.74868  -0.72288  -0.70136  -0.65586
 Alpha  occ. eigenvalues --   -0.62030  -0.59772  -0.57893  -0.56807  -0.56408
 Alpha  occ. eigenvalues --   -0.55298  -0.53507  -0.52875  -0.50546  -0.50471
 Alpha  occ. eigenvalues --   -0.49660  -0.48876  -0.47506  -0.45818  -0.43731
 Alpha  occ. eigenvalues --   -0.41744  -0.38169  -0.37124  -0.36644  -0.33454
 Alpha  occ. eigenvalues --   -0.32842  -0.31868  -0.31089  -0.27959
 Alpha virt. eigenvalues --   -0.01835  -0.00266   0.00362   0.01324   0.01696
 Alpha virt. eigenvalues --    0.02379   0.02642   0.02754   0.03818   0.04850
 Alpha virt. eigenvalues --    0.05545   0.05973   0.06569   0.06659   0.07690
 Alpha virt. eigenvalues --    0.08211   0.09167   0.09516   0.10392   0.10505
 Alpha virt. eigenvalues --    0.10946   0.11427   0.12223   0.12572   0.12829
 Alpha virt. eigenvalues --    0.13593   0.14586   0.15203   0.15360   0.16112
 Alpha virt. eigenvalues --    0.16234   0.16891   0.17088   0.17629   0.17965
 Alpha virt. eigenvalues --    0.18343   0.18686   0.19139   0.19444   0.19879
 Alpha virt. eigenvalues --    0.20162   0.20427   0.20824   0.21391   0.21969
 Alpha virt. eigenvalues --    0.22539   0.23114   0.23503   0.23828   0.24594
 Alpha virt. eigenvalues --    0.25012   0.25503   0.25651   0.26095   0.26547
 Alpha virt. eigenvalues --    0.27299   0.28321   0.28627   0.28863   0.29674
 Alpha virt. eigenvalues --    0.30756   0.30974   0.31196   0.31932   0.32930
 Alpha virt. eigenvalues --    0.33495   0.34246   0.35205   0.36324   0.37037
 Alpha virt. eigenvalues --    0.37212   0.37629   0.38611   0.39347   0.39466
 Alpha virt. eigenvalues --    0.40541   0.41085   0.41312   0.42750   0.42842
 Alpha virt. eigenvalues --    0.43573   0.44695   0.45531   0.45604   0.46275
 Alpha virt. eigenvalues --    0.46972   0.47659   0.48439   0.49555   0.49997
 Alpha virt. eigenvalues --    0.50704   0.51658   0.52325   0.53065   0.54321
 Alpha virt. eigenvalues --    0.55253   0.56514   0.58178   0.58461   0.58996
 Alpha virt. eigenvalues --    0.60466   0.60903   0.62078   0.62317   0.63332
 Alpha virt. eigenvalues --    0.64124   0.65207   0.65915   0.66051   0.66998
 Alpha virt. eigenvalues --    0.68046   0.68568   0.68832   0.69898   0.70225
 Alpha virt. eigenvalues --    0.70587   0.71508   0.72527   0.73982   0.74841
 Alpha virt. eigenvalues --    0.75390   0.76952   0.77146   0.77483   0.78968
 Alpha virt. eigenvalues --    0.80942   0.81462   0.82862   0.83507   0.84320
 Alpha virt. eigenvalues --    0.85133   0.87307   0.88175   0.89114   0.89946
 Alpha virt. eigenvalues --    0.91015   0.91745   0.92876   0.93868   0.94104
 Alpha virt. eigenvalues --    0.94821   0.95749   0.96293   0.98209   0.98869
 Alpha virt. eigenvalues --    1.00395   1.01991   1.02513   1.04073   1.04701
 Alpha virt. eigenvalues --    1.06157   1.08501   1.10125   1.11805   1.13057
 Alpha virt. eigenvalues --    1.13406   1.15241   1.15851   1.18223   1.20057
 Alpha virt. eigenvalues --    1.20456   1.21902   1.23005   1.23727   1.24340
 Alpha virt. eigenvalues --    1.24900   1.25889   1.27066   1.27107   1.27915
 Alpha virt. eigenvalues --    1.30024   1.31069   1.32526   1.32782   1.34545
 Alpha virt. eigenvalues --    1.35308   1.36686   1.36977   1.38599   1.39764
 Alpha virt. eigenvalues --    1.41173   1.42703   1.43825   1.44187   1.44568
 Alpha virt. eigenvalues --    1.45004   1.46249   1.46915   1.48047   1.49272
 Alpha virt. eigenvalues --    1.49784   1.51784   1.52357   1.53626   1.57266
 Alpha virt. eigenvalues --    1.58825   1.59788   1.63689   1.65923   1.66462
 Alpha virt. eigenvalues --    1.69421   1.69473   1.72638   1.74169   1.74752
 Alpha virt. eigenvalues --    1.75167   1.76328   1.78278   1.80015   1.80134
 Alpha virt. eigenvalues --    1.83092   1.83656   1.85042   1.86421   1.87745
 Alpha virt. eigenvalues --    1.87979   1.88535   1.89765   1.91460   1.91953
 Alpha virt. eigenvalues --    1.93741   1.94288   1.97162   1.97674   1.99366
 Alpha virt. eigenvalues --    1.99985   2.00713   2.02406   2.04071   2.05678
 Alpha virt. eigenvalues --    2.09852   2.10402   2.13427   2.14790   2.16067
 Alpha virt. eigenvalues --    2.18445   2.19307   2.20603   2.21569   2.23617
 Alpha virt. eigenvalues --    2.24005   2.25055   2.26952   2.27594   2.28627
 Alpha virt. eigenvalues --    2.31833   2.32536   2.33574   2.34543   2.35535
 Alpha virt. eigenvalues --    2.36142   2.37607   2.38893   2.40900   2.43168
 Alpha virt. eigenvalues --    2.43409   2.46414   2.47305   2.49816   2.51519
 Alpha virt. eigenvalues --    2.53817   2.54669   2.55682   2.57311   2.61820
 Alpha virt. eigenvalues --    2.68406   2.69621   2.70436   2.70935   2.71486
 Alpha virt. eigenvalues --    2.75709   2.76806   2.78454   2.79775   2.82986
 Alpha virt. eigenvalues --    2.85157   2.85465   2.86243   2.87044   2.90080
 Alpha virt. eigenvalues --    2.91433   2.92283   2.93358   2.94274   2.96556
 Alpha virt. eigenvalues --    2.98403   2.99636   3.00354   3.02880   3.04033
 Alpha virt. eigenvalues --    3.07847   3.08921   3.10242   3.14054   3.17942
 Alpha virt. eigenvalues --    3.20402   3.22985   3.25373   3.27681   3.30012
 Alpha virt. eigenvalues --    3.32072   3.33632   3.35926   3.38252   3.39971
 Alpha virt. eigenvalues --    3.40788   3.45197   3.46991   3.47797   3.48305
 Alpha virt. eigenvalues --    3.49739   3.50523   3.51244   3.52663   3.53800
 Alpha virt. eigenvalues --    3.54735   3.57761   3.58524   3.60098   3.61960
 Alpha virt. eigenvalues --    3.62660   3.64046   3.64736   3.65587   3.67380
 Alpha virt. eigenvalues --    3.70135   3.70485   3.71413   3.72002   3.73055
 Alpha virt. eigenvalues --    3.80681   3.83333   3.85395   3.88831   3.91310
 Alpha virt. eigenvalues --    3.92581   3.96966   4.00215   4.04360   4.05953
 Alpha virt. eigenvalues --    4.14136   4.15890   4.17519   4.18293   4.21979
 Alpha virt. eigenvalues --    4.25107   4.38548   4.50080   4.53149   4.63661
 Alpha virt. eigenvalues --    4.97756   5.01182   5.02840   5.05994   5.09390
 Alpha virt. eigenvalues --    5.11529   5.13560   5.16476   5.19544   5.23055
 Alpha virt. eigenvalues --    5.26845   5.30877   5.31261   5.33043   5.38628
 Alpha virt. eigenvalues --    5.40083   5.44648   5.46491   5.47165   5.54340
 Alpha virt. eigenvalues --    5.56498   5.60961   5.63564   5.83885   6.84499
 Alpha virt. eigenvalues --    6.85884   6.87457   6.91017   6.94000   6.96725
 Alpha virt. eigenvalues --    6.99980   7.02465   7.05631   7.09103   7.23646
 Alpha virt. eigenvalues --    7.25583   7.33218   7.44006   7.46941   8.63073
 Alpha virt. eigenvalues --    9.79068   9.82284   9.91432   9.93624  10.13550
 Alpha virt. eigenvalues --   12.82651  13.20441  13.67221  17.65015  17.78812
 Alpha virt. eigenvalues --   17.81730  17.89262  23.91376  23.96456  24.01316
 Alpha virt. eigenvalues --   24.03143  24.04117  24.10125  24.16832  35.61306
 Alpha virt. eigenvalues --   35.68429  50.12755  50.14297  50.22908 133.87340
 Alpha virt. eigenvalues --  189.93804
          Condensed to atoms (all electrons):
               1          2          3          4          5          6
     1  C    5.683355   0.201510  -0.570878   0.459089   0.378952  -0.022970
     2  C    0.201510   5.712333  -0.087560  -0.179884   0.003229   0.384980
     3  C   -0.570878  -0.087560   6.724428   0.233043   0.011309   0.010900
     4  N    0.459089  -0.179884   0.233043   6.190000  -0.044422   0.012175
     5  H    0.378952   0.003229   0.011309  -0.044422   0.485169  -0.001309
     6  H   -0.022970   0.384980   0.010900   0.012175  -0.001309   0.481732
     7  H    0.016501   0.001481   0.417149  -0.044937  -0.000030  -0.000074
     8  C   -0.060824   0.013420  -0.204141   0.159877  -0.000945  -0.000514
     9  H   -0.005130   0.019520   0.028931  -0.072524   0.002561  -0.000026
    10  H    0.004687  -0.004416  -0.006168  -0.052599   0.000063   0.000008
    11  H   -0.017754   0.002899  -0.023813  -0.016025   0.000154   0.000013
    12  N   -0.016180   0.285694   0.136111   0.013767   0.010016  -0.033534
    13  C    0.045864  -0.116329  -0.196607  -0.007068   0.000684   0.012220
    14  H    0.007522  -0.015415  -0.004153  -0.002649  -0.000012   0.000237
    15  H   -0.004221  -0.002917   0.003513   0.004073   0.000015  -0.000138
    16  C    0.012574  -0.169081   0.096638   0.024766   0.000028   0.003258
    17  H    0.000995   0.007536  -0.005168  -0.000651  -0.000001  -0.000370
    18  H   -0.006803   0.004631   0.003417   0.000243   0.000040  -0.000228
[...]
     4  N    0.294448
     5  H    0.154393
     6  H    0.161767
     7  H    0.231264
     8  C   -0.443832
     9  H    0.167594
    10  H    0.176889
    11  H    0.223684
    12  N    0.273758
    13  C   -0.396281
    14  H    0.179140
    15  H    0.197849
    16  C   -0.168005
    17  H    0.161585
    18  H    0.176438
    19  C   -0.478936
    20  H    0.200383
    21  H    0.192501
    22  S    1.151729
    23  O   -0.467506
    24  O   -0.676017
    25  O   -0.730538
    26  O    0.000000
    27  H    0.000000
    28  H    0.000000
 Sum of Mulliken charges =  -0.00000
 Mulliken charges with hydrogens summed into heavy atoms:
               1
     1  C    0.030688
     2  C   -0.016993
     3  C   -0.048578
     4  N    0.294448
     8  C    0.124335
    12  N    0.273758
    13  C   -0.019291
    16  C    0.170018
    19  C   -0.086052
    22  S    1.151729
    23  O   -0.467506
    24  O   -0.676017
    25  O   -0.730538
    26  O    0.000000
         Mulliken charges condensed to fragments:
      1     -0.000000
      2      0.000000
 Electronic spatial extent (au):  <R**2>=         167883.5252
 Charge=             -0.0000 electrons
 Dipole moment (field-independent basis, Debye):
    X=              5.1795    Y=             -4.4711    Z=              8.0764  Tot=             10.5851
 Quadrupole moment (field-independent basis, Debye-Ang):
   XX=             52.7603   YY=           -165.2604   ZZ=            119.2580
   XY=              8.1414   XZ=            155.4054   YZ=             22.3167
 Traceless Quadrupole moment (field-independent basis, Debye-Ang):
   XX=             50.5077   YY=           -167.5131   ZZ=            117.0053
   XY=              8.1414   XZ=            155.4054   YZ=             22.3167
 Octapole moment (field-independent basis, Debye-Ang**2):
  XXX=           -509.3905  YYY=          -3663.8022  ZZZ=            628.8915  XYY=          -1320.0416
  XXY=            117.0403  XXZ=           1648.2222  XZZ=           2012.4148  YZZ=            417.4400
  YYZ=          -1323.5029  XYZ=            982.4467
 Hexadecapole moment (field-independent basis, Debye-Ang**3):
 XXXX=         -35398.3760 YYYY=         -66314.0186 ZZZZ=         -18332.3992 XXXY=          -8804.6772
 XXXZ=           3945.3495 YYYX=         -37484.0223 YYYZ=         -38603.3814 ZZZX=          11924.1478
 ZZZY=          -3770.2721 XXYY=         -15550.4271 XXZZ=          18948.7083 YYZZ=         -16157.4890
 XXYZ=          11213.8772 YYXZ=          -8180.1530 ZZXY=          12528.1378
 N-N= 1.045425157238D+03 E-N=-4.460833392942D+03  KE= 1.003744698259D+03
 No NMR shielding tensors so no spin-rotation constants.
 Leave Link  601 at Sun Feb 19 13:10:59 2023, MaxMem=  6710886400 cpu:               3.1 elap:               0.2
 (Enter /data0/home/software/g16/l122.exe)
 CPIOFr:  IOpCl= 0 IRwI=-1 IRwCP=  731 ICalc=  3 LCPTot=      340231 Len1MO=      893396 IndFrg=     3913815
 Counterpoise: doing calculation for fragment   2 using the basis set of the fragment.
 Leave Link  122 at Sun Feb 19 13:10:59 2023, MaxMem=  6710886400 cpu:               0.3 elap:               0.0
 (Enter /data0/home/software/g16/l301.exe)
 Basis read from rwf:  (5D, 7F)
 No pseudopotential information found on rwf file.
    39 basis functions,    58 primitive gaussians,    41 cartesian basis functions
     5 alpha electrons        5 beta electrons
       nuclear repulsion energy         9.0583095566 Hartrees.
 IExCor= 4336 DFT=T Ex+Corr=M062X ExCW=0 ScaHFX=  0.540000
 ScaDFX=  1.000000  1.000000  1.000000  1.000000 ScalE2=  1.000000  1.000000
 IRadAn=      5 IRanWt=     -1 IRanGd=            0 ICorTp=0 IEmpDi=131
 NAtoms=   28 NActive=    3 NUniq=    3 SFac= 1.00D+00 NAtFMM=   60 NAOKFM=F Big=F
 Integral buffers will be    131072 words long.
 Raffenetti 2 integral format.
 Two-electron integral symmetry is turned off.
 R6Disp:  Grimme-D3 Dispersion energy=       -0.0000000075 Hartrees.
 Nuclear repulsion after empirical dispersion term =        9.0583095491 Hartrees.
 No density basis found on file   718.
 Leave Link  301 at Sun Feb 19 13:10:59 2023, MaxMem=  6710886400 cpu:               1.2 elap:               0.1
 (Enter /data0/home/software/g16/l302.exe)
 NPDir=0 NMtPBC=     1 NCelOv=     1 NCel=       1 NClECP=     1 NCelD=      1
         NCelK=      1 NCelE2=     1 NClLst=     1 CellRange=     0.0.
 One-electron integrals computed using PRISM.
 NBasis=    39 RedAO= T EigKep=  3.03D-03  NBF=    39
 NBsUse=    39 1.00D-06 EigRej= -1.00D+00 NBFU=    39
 Precomputing XC quadrature grid using
 IXCGrd= 4 IRadAn=           5 IRanWt=          -1 IRanGd=           0 AccXCQ= 0.00D+00.
 Generated NRdTot=       0 NPtTot=           0 NUsed=           0 NTot=          32
 NSgBfM=    41    41    41    41    41 MxSgAt=     3 MxSgA2=     3.
 Leave Link  302 at Sun Feb 19 13:10:59 2023, MaxMem=  6710886400 cpu:               2.2 elap:               0.1
 (Enter /data0/home/software/g16/l303.exe)
 DipDrv:  MaxL=1.
 Leave Link  303 at Sun Feb 19 13:10:59 2023, MaxMem=  6710886400 cpu:               0.4 elap:               0.0
 (Enter /data0/home/software/g16/l401.exe)
 ExpMin= 8.45D-02 ExpMax= 8.59D+03 ExpMxC= 1.30D+03 IAcc=3 IRadAn=         5 AccDes= 0.00D+00
 Harris functional with IExCor= 1009 and IRadAn=       5 diagonalized for initial guess.
 HarFok:  IExCor= 1009 AccDes= 0.00D+00 IRadAn=         5 IDoV= 1 UseB2=F ITyADJ=14
 ICtDFT=  3500011 ScaDFX=  1.000000  1.000000  1.000000  1.000000
 FoFCou: FMM=F IPFlag=           0 FMFlag=      100000 FMFlg1=           0
         NFxFlg=           0 DoJE=T BraDBF=F KetDBF=T FulRan=T
         wScrn=  0.000000 ICntrl=       500 IOpCl=  0 I1Cent=   200000004 NGrid=           0
         NMat0=    1 NMatS0=      1 NMatT0=    0 NMatD0=    1 NMtDS0=    0 NMtDT0=    0
 Symmetry not used in FoFCou.
 Harris En= -76.4154869991933    
 JPrj=0 DoOrth=F DoCkMO=F.
 Leave Link  401 at Sun Feb 19 13:11:00 2023, MaxMem=  6710886400 cpu:               2.8 elap:               0.1
 (Enter /data0/home/software/g16/l502.exe)
 Keep R1 ints in memory in canonical form, NReq=21041397.
 FoFCou: FMM=F IPFlag=           0 FMFlag=           0 FMFlg1=           0
         NFxFlg=           0 DoJE=F BraDBF=F KetDBF=F FulRan=T
         wScrn=  0.000000 ICntrl=       600 IOpCl=  0 I1Cent=           0 NGrid=           0
         NMat0=    1 NMatS0=    780 NMatT0=    0 NMatD0=    1 NMtDS0=    0 NMtDT0=    0
 Symmetry not used in FoFCou.
 Two-electron integral symmetry not used.
 Closed shell SCF:
 Using DIIS extrapolation, IDIIS=  1040.
 NGot=  6710886400 LenX=  6710576219 LenY=  6710574097
 Requested convergence on RMS density matrix=1.00D-08 within 128 cycles.
 Requested convergence on MAX density matrix=1.00D-06.
 Requested convergence on             energy=1.00D-06.
 No special actions if energy rises.
 Integral accuracy reduced to 1.0D-05 until final iterations.

 Cycle   1  Pass 0  IDiag  1:
 E= -76.3461993389967    
 DIIS: error= 6.95D-02 at cycle   1 NSaved=   1.
 NSaved= 1 IEnMin= 1 EnMin= -76.3461993389967     IErMin= 1 ErrMin= 6.95D-02
 ErrMax= 6.95D-02  0.00D+00 EMaxC= 1.00D-01 BMatC= 1.20D-01 BMatP= 1.20D-01
 IDIUse=3 WtCom= 3.05D-01 WtEn= 6.95D-01
 Coeff-Com:  0.100D+01
 Coeff-En:   0.100D+01
 Coeff:      0.100D+01
 Gap=     0.324 Goal=   None    Shift=    0.000
 GapD=    0.324 DampG=1.000 DampE=0.500 DampFc=0.5000 IDamp=-1.
 Damping current iteration by 5.00D-01
 RMSDP=7.99D-03 MaxDP=1.00D-01              OVMax= 1.67D-01

 Cycle   2  Pass 0  IDiag  1:
 E= -76.3772219100066     Delta-E=       -0.031022571010 Rises=F Damp=T
 DIIS: error= 1.10D-02 at cycle   2 NSaved=   2.
 NSaved= 2 IEnMin= 2 EnMin= -76.3772219100066     IErMin= 2 ErrMin= 1.10D-02
 ErrMax= 1.10D-02  0.00D+00 EMaxC= 1.00D-01 BMatC= 4.91D-03 BMatP= 1.20D-01
 IDIUse=3 WtCom= 8.90D-01 WtEn= 1.10D-01
 Coeff-Com:  0.852D-01 0.915D+00
 Coeff-En:   0.192D+00 0.808D+00
 Coeff:      0.969D-01 0.903D+00
 Gap=     0.456 Goal=   None    Shift=    0.000
 RMSDP=9.60D-04 MaxDP=1.43D-02 DE=-3.10D-02 OVMax= 1.00D-01

 Cycle   3  Pass 0  IDiag  1:
 E= -76.4210097154372     Delta-E=       -0.043787805431 Rises=F Damp=F
 DIIS: error= 2.18D-03 at cycle   3 NSaved=   3.
 NSaved= 3 IEnMin= 3 EnMin= -76.4210097154372     IErMin= 3 ErrMin= 2.18D-03
 ErrMax= 2.18D-03  0.00D+00 EMaxC= 1.00D-01 BMatC= 9.31D-05 BMatP= 4.91D-03
 IDIUse=3 WtCom= 9.78D-01 WtEn= 2.18D-02
 Coeff-Com: -0.201D-01 0.402D-01 0.980D+00
 Coeff-En:   0.000D+00 0.000D+00 0.100D+01
 Coeff:     -0.197D-01 0.393D-01 0.980D+00
 Gap=     0.460 Goal=   None    Shift=    0.000
 RMSDP=1.16D-04 MaxDP=9.48D-04 DE=-4.38D-02 OVMax= 3.37D-03

 Cycle   4  Pass 0  IDiag  1:
 E= -76.4210892419212     Delta-E=       -0.000079526484 Rises=F Damp=F
 DIIS: error= 4.21D-04 at cycle   4 NSaved=   4.
 NSaved= 4 IEnMin= 4 EnMin= -76.4210892419212     IErMin= 4 ErrMin= 4.21D-04
 ErrMax= 4.21D-04  0.00D+00 EMaxC= 1.00D-01 BMatC= 3.37D-06 BMatP= 9.31D-05
 IDIUse=3 WtCom= 9.96D-01 WtEn= 4.21D-03
 Coeff-Com: -0.197D-02-0.223D-02 0.163D+00 0.841D+00
 Coeff-En:   0.000D+00 0.000D+00 0.000D+00 0.100D+01
 Coeff:     -0.196D-02-0.222D-02 0.162D+00 0.842D+00
 Gap=     0.461 Goal=   None    Shift=    0.000
 RMSDP=2.25D-05 MaxDP=3.58D-04 DE=-7.95D-05 OVMax= 5.48D-04

 Cycle   5  Pass 0  IDiag  1:
 E= -76.4210913370386     Delta-E=       -0.000002095117 Rises=F Damp=F
 DIIS: error= 9.09D-05 at cycle   5 NSaved=   5.
 NSaved= 5 IEnMin= 5 EnMin= -76.4210913370386     IErMin= 5 ErrMin= 9.09D-05
 ErrMax= 9.09D-05  0.00D+00 EMaxC= 1.00D-01 BMatC= 8.59D-08 BMatP= 3.37D-06
 IDIUse=1 WtCom= 1.00D+00 WtEn= 0.00D+00
 Coeff-Com:  0.121D-02-0.184D-02-0.374D-01-0.656D-01 0.110D+01
 Coeff:      0.121D-02-0.184D-02-0.374D-01-0.656D-01 0.110D+01
 Gap=     0.461 Goal=   None    Shift=    0.000
 RMSDP=9.18D-06 MaxDP=1.03D-04 DE=-2.10D-06 OVMax= 2.09D-04

 Initial convergence to 1.0D-05 achieved.  Increase integral accuracy.
 Cycle   6  Pass 1  IDiag  1:
 E= -76.4210824453818     Delta-E=        0.000008891657 Rises=F Damp=F
 DIIS: error= 1.66D-05 at cycle   1 NSaved=   1.
 NSaved= 1 IEnMin= 1 EnMin= -76.4210824453818     IErMin= 1 ErrMin= 1.66D-05
 ErrMax= 1.66D-05  0.00D+00 EMaxC= 1.00D-01 BMatC= 1.38D-08 BMatP= 1.38D-08
 IDIUse=1 WtCom= 1.00D+00 WtEn= 0.00D+00
 Coeff-Com:  0.100D+01
 Coeff:      0.100D+01
 Gap=     0.461 Goal=   None    Shift=    0.000
 RMSDP=9.18D-06 MaxDP=1.03D-04 DE= 8.89D-06 OVMax= 4.59D-05

 Cycle   7  Pass 1  IDiag  1:
 E= -76.4210824574036     Delta-E=       -0.000000012022 Rises=F Damp=F
 DIIS: error= 1.17D-05 at cycle   2 NSaved=   2.
 NSaved= 2 IEnMin= 2 EnMin= -76.4210824574036     IErMin= 2 ErrMin= 1.17D-05
 ErrMax= 1.17D-05  0.00D+00 EMaxC= 1.00D-01 BMatC= 2.05D-09 BMatP= 1.38D-08
 IDIUse=1 WtCom= 1.00D+00 WtEn= 0.00D+00
 Coeff-Com:  0.141D+00 0.859D+00
 Coeff:      0.141D+00 0.859D+00
 Gap=     0.461 Goal=   None    Shift=    0.000
 RMSDP=9.43D-07 MaxDP=1.42D-05 DE=-1.20D-08 OVMax= 2.35D-05

 Cycle   8  Pass 1  IDiag  1:
 E= -76.4210824580153     Delta-E=       -0.000000000612 Rises=F Damp=F
 DIIS: error= 7.45D-06 at cycle   3 NSaved=   3.
 NSaved= 3 IEnMin= 3 EnMin= -76.4210824580153     IErMin= 3 ErrMin= 7.45D-06
 ErrMax= 7.45D-06  0.00D+00 EMaxC= 1.00D-01 BMatC= 1.47D-09 BMatP= 2.05D-09
 IDIUse=1 WtCom= 1.00D+00 WtEn= 0.00D+00
 Coeff-Com: -0.534D-01 0.466D+00 0.587D+00
 Coeff:     -0.534D-01 0.466D+00 0.587D+00
 Gap=     0.461 Goal=   None    Shift=    0.000
 RMSDP=4.58D-07 MaxDP=5.96D-06 DE=-6.12D-10 OVMax= 1.04D-05

 Cycle   9  Pass 1  IDiag  1:
 E= -76.4210824589931     Delta-E=       -0.000000000978 Rises=F Damp=F
 DIIS: error= 5.50D-07 at cycle   4 NSaved=   4.
 NSaved= 4 IEnMin= 4 EnMin= -76.4210824589931     IErMin= 4 ErrMin= 5.50D-07
 ErrMax= 5.50D-07  0.00D+00 EMaxC= 1.00D-01 BMatC= 4.08D-12 BMatP= 1.47D-09
 IDIUse=1 WtCom= 1.00D+00 WtEn= 0.00D+00
 Coeff-Com: -0.168D-02-0.318D-01-0.169D-01 0.105D+01
 Coeff:     -0.168D-02-0.318D-01-0.169D-01 0.105D+01
 Gap=     0.461 Goal=   None    Shift=    0.000
 RMSDP=8.54D-08 MaxDP=6.11D-07 DE=-9.78D-10 OVMax= 1.51D-06

 Cycle  10  Pass 1  IDiag  1:
 E= -76.4210824590013     Delta-E=       -0.000000000008 Rises=F Damp=F
 DIIS: error= 8.20D-08 at cycle   5 NSaved=   5.
 NSaved= 5 IEnMin= 5 EnMin= -76.4210824590013     IErMin= 5 ErrMin= 8.20D-08
 ErrMax= 8.20D-08  0.00D+00 EMaxC= 1.00D-01 BMatC= 2.73D-13 BMatP= 4.08D-12
 IDIUse=1 WtCom= 1.00D+00 WtEn= 0.00D+00
 Coeff-Com:  0.278D-02-0.310D-01-0.350D-01 0.114D+00 0.950D+00
 Coeff:      0.278D-02-0.310D-01-0.350D-01 0.114D+00 0.950D+00
 Gap=     0.461 Goal=   None    Shift=    0.000
 RMSDP=2.53D-08 MaxDP=1.71D-07 DE=-8.14D-12 OVMax= 4.14D-07

 Cycle  11  Pass 1  IDiag  1:
 E= -76.4210824590015     Delta-E=       -0.000000000000 Rises=F Damp=F
 DIIS: error= 1.58D-08 at cycle   6 NSaved=   6.
 NSaved= 6 IEnMin= 6 EnMin= -76.4210824590015     IErMin= 6 ErrMin= 1.58D-08
 ErrMax= 1.58D-08  0.00D+00 EMaxC= 1.00D-01 BMatC= 5.80D-15 BMatP= 2.73D-13
 IDIUse=1 WtCom= 1.00D+00 WtEn= 0.00D+00
 Coeff-Com:  0.215D-03-0.865D-03-0.105D-02-0.267D-01 0.149D-01 0.101D+01
 Coeff:      0.215D-03-0.865D-03-0.105D-02-0.267D-01 0.149D-01 0.101D+01
 Gap=     0.461 Goal=   None    Shift=    0.000
 RMSDP=4.11D-09 MaxDP=3.03D-08 DE=-2.84D-13 OVMax= 8.40D-08

 SCF Done:  E(RM062X) =  -76.4210824590     A.U. after   11 cycles
            NFock= 11  Conv=0.41D-08     -V/T= 2.0032
 KE= 7.618048851201D+01 PE=-1.989586057096D+02 EE= 3.729872518951D+01
 Leave Link  502 at Sun Feb 19 13:11:00 2023, MaxMem=  6710886400 cpu:               8.5 elap:               0.4
 (Enter /data0/home/software/g16/l601.exe)
 Copying SCF densities to generalized density rwf, IOpCl= 0 IROHF=0.

 **********************************************************************

            Population analysis using the SCF density.

 **********************************************************************

 Alpha  occ. eigenvalues --  -19.62744  -1.13230  -0.60249  -0.47718  -0.39977
 Alpha virt. eigenvalues --    0.06111   0.13247   0.17436   0.17945   0.18901
 Alpha virt. eigenvalues --    0.23457   0.50120   0.53661   0.98133   1.00439
 Alpha virt. eigenvalues --    1.05985   1.17313   1.20113   1.31801   1.34198
 Alpha virt. eigenvalues --    1.70362   1.73910   1.75248   2.06372   2.10034
 Alpha virt. eigenvalues --    2.36224   2.38899   2.54877   2.86822   3.01235
 Alpha virt. eigenvalues --    5.05596   5.48193   5.89381   6.78528   6.80008
 Alpha virt. eigenvalues --    6.87372   6.91604   7.09737  49.95236
          Condensed to atoms (all electrons):
              26         27         28
    26  O    7.921808   0.312807   0.318640
    27  H    0.312807   0.431407  -0.023417
    28  H    0.318640  -0.023417   0.430723
 Mulliken charges:
               1
     1  C    0.000000
     2  C    0.000000
     3  C    0.000000
     4  N    0.000000
     5  H    0.000000
     6  H    0.000000
     7  H    0.000000
     8  C    0.000000
     9  H    0.000000
    10  H    0.000000
    11  H    0.000000
    12  N    0.000000
    13  C    0.000000
    14  H    0.000000
    15  H    0.000000
    16  C    0.000000
    17  H    0.000000
    18  H    0.000000
    19  C    0.000000
    20  H    0.000000
    21  H    0.000000
    22  S    0.000000
    23  O    0.000000
    24  O    0.000000
    25  O    0.000000
    26  O   -0.553256
    27  H    0.279202
    28  H    0.274053
 Sum of Mulliken charges =  -0.00000
 Mulliken charges with hydrogens summed into heavy atoms:
               1
     1  C    0.000000
     2  C    0.000000
     3  C    0.000000
     4  N    0.000000
     8  C    0.000000
    12  N    0.000000
    13  C    0.000000
    16  C    0.000000
    19  C    0.000000
    22  S    0.000000
    23  O    0.000000
    24  O    0.000000
    25  O    0.000000
    26  O   -0.000000
         Mulliken charges condensed to fragments:
      1      0.000000
      2     -0.000000
 Electronic spatial extent (au):  <R**2>=          10146.5527
 Charge=             -0.0000 electrons
 Dipole moment (field-independent basis, Debye):
    X=              1.8012    Y=              0.5348    Z=             -1.0334  Tot=              2.1444
 Quadrupole moment (field-independent basis, Debye-Ang):
   XX=             25.7152   YY=              4.4199   ZZ=            -25.9625
   XY=             24.1806   XZ=              8.8117   YZ=             -4.0672
 Traceless Quadrupole moment (field-independent basis, Debye-Ang):
   XX=             24.3243   YY=              3.0291   ZZ=            -27.3534
   XY=             24.1806   XZ=              8.8117   YZ=             -4.0672
 Octapole moment (field-independent basis, Debye-Ang**2):
  XXX=            259.4125  YYY=            -33.0492  ZZZ=           -468.9658  XYY=            248.8292
  XXY=            323.2152  XXZ=            175.8452  XZZ=            -50.5161  YZZ=           -189.7127
  YYZ=            -39.7128  XYZ=            158.2618
 Hexadecapole moment (field-independent basis, Debye-Ang**3):
 XXXX=           2085.5992 YYYY=          -1844.7345 ZZZZ=          -7321.2473 XXXY=           3269.8080
 XXXZ=           1881.2544 YYYX=           1966.5349 YYYZ=          -1055.9354 ZZZX=          -2359.1316
 ZZZY=          -3937.1950 XXYY=           3414.5907 XXZZ=            532.3191 YYZZ=          -1807.6029
 XXYZ=           2497.2960 YYXZ=           1747.1598 ZZXY=            263.6398
 N-N= 9.058309549095D+00 E-N=-1.989586058399D+02  KE= 7.618048851201D+01
 No NMR shielding tensors so no spin-rotation constants.
 Leave Link  601 at Sun Feb 19 13:11:00 2023, MaxMem=  6710886400 cpu:               1.7 elap:               0.1
 (Enter /data0/home/software/g16/l122.exe)
 CPIOFr:  IOpCl= 0 IRwI=-1 IRwCP=  731 ICalc=  4 LCPTot=      340231 Len1MO=      893396 IndFrg=     4807211
 Restoring MOs from calculation   1 to rwf.
 CPIOFr:  IOpCl= 0 IRwI=-2 IRwCP=  731 ICalc=  0 LCPTot=      340231 Len1MO=      893396 IndFrg=     1233627
 Counterpoise corrected energy =   -1083.648131209193
                   BSSE energy =       0.000949070666
              sum of fragments =   -1083.635042564970
           complexation energy =      -8.81 kcal/mole (raw)
           complexation energy =      -8.21 kcal/mole (corrected)
 Leave Link  122 at Sun Feb 19 13:11:00 2023, MaxMem=  6710886400 cpu:               0.4 elap:               0.0
 (Enter /data0/home/software/g16/l9999.exe)
 1\1\GINC-LOCALHOST\SP\RM062X\6-311+G(2d,p)\C7H14N2O4S1\WUHANYU\19-Feb-
 2023\0\\#p M062X/6-311+G(2d,p) nosymm em=GD3 counterpoise=2\\Title Car
 d Required\\0,1\C,0,13.019317,7.600925,13.723741\C,0,14.10783,8.386505
 ,13.36933\C,0,12.664473,9.677322,14.523689\N,0,12.143072,8.415066,14.4
 43624\H,0,12.80082,6.569532,13.48725\H,0,14.967352,8.140943,12.777405\
 H,0,12.181389,10.542534,14.98218\C,0,10.813392,8.053957,14.901764\H,0,
 10.624942,6.968061,14.768453\H,0,10.667483,8.318435,15.960416\H,0,10.0
 40719,8.582247,14.286169\N,0,13.880392,9.668066,13.884937\C,0,14.68132
 3,10.860533,13.601814\H,0,15.691953,10.717184,14.049426\H,0,14.212132,
 11.739681,14.110209\C,0,14.811109,11.14551,12.087824\H,0,15.753402,11.
 708007,11.922217\H,0,14.937165,10.189252,11.529317\C,0,13.646809,11.93
 6798,11.50239\H,0,13.831339,12.160308,10.436197\H,0,13.531922,12.91509
 9,11.998018\S,0,12.08515,11.023759,11.64179\O,0,11.152739,11.564715,10
 .639504\O,0,12.493082,9.608985,11.381433\O,0,11.702353,11.233616,13.05
 8693\O,0,8.826825,10.265605,9.971905\H,0,9.568321,10.852727,10.264758\
 H,0,9.109442,9.988498,9.103083\\Version=ES64L-G16RevA.03\HF=-76.421082
 5\RMSD=4.113e-09\Dipole=3.146952,-1.5139194,3.0598927\Quadrupole=61.59
 92909,-130.5547831,68.9554922,32.500767,136.0658644,19.6001015\PG=C01 
 [X(C7H14N2O4S1)]\\@


 THE SOLUTION TO A PROBLEM CHANGES THE PROBLEM.

                                 -- JOHN PEERS
           PAUL DICKSON'S "THE OFFICIAL RULES"
 Job cpu time:       0 days  1 hours 46 minutes 19.3 seconds.
 Elapsed time:       0 days  0 hours  4 minutes 27.5 seconds.
 File lengths (MBytes):  RWF=    175 Int=      0 D2E=      0 Chk=     50 Scr=      1
 Normal termination of Gaussian 16 at Sun Feb 19 13:11:00 2023.
