 Entering Gaussian System, Link 0=g16
 Initial command:
 /data0/home/wuhanyu/software/g16/l1.exe "/data0/home/wuhanyu/software/g16/scratch/Gau-1188582.inp" -scrdir="/data0/home/wuhanyu/software/g16/scratch/"
 Default is to use a total of  26 processors:
                               26 via shared-memory
                                1 via Linda
 Entering Link 1 = /data0/home/wuhanyu/software/g16/l1.exe PID=   1188583.
  
 Copyright (c) 1988,1990,1992,1993,1995,1998,2003,2009,2016,
            Gaussian, Inc.  All Rights Reserved.
  
 This is part of the Gaussian(R) 16 program.  It is based on
 the Gaussian(R) 09 system (copyright 2009, Gaussian, Inc.),
 the Gaussian(R) 03 system (copyright 2003, Gaussian, Inc.),
 the Gaussian(R) 98 system (copyright 1998, Gaussian, Inc.),
 the Gaussian(R) 94 system (copyright 1995, Gaussian, Inc.),
 the Gaussian 92(TM) system (copyright 1992, Gaussian, Inc.),
 the Gaussian 90(TM) system (copyright 1990, Gaussian, Inc.),
 the Gaussian 88(TM) system (copyright 1988, Gaussian, Inc.),
 the Gaussian 86(TM) system (copyright 1986, Carnegie Mellon
 University), and the Gaussian 82(TM) system (copyright 1983,
 Carnegie Mellon University). Gaussian is a federally registered
 trademark of Gaussian, Inc.
  
 This software contains proprietary and confidential information,
 including trade secrets, belonging to Gaussian, Inc.
  
 This software is provided under written license and may be
 used, copied, transmitted, or stored only in accord with that
 written license.
  
 The following legend is applicable only to US Government
 contracts under FAR:
  
                    RESTRICTED RIGHTS LEGEND
  
 Use, reproduction and disclosure by the US Government is
 subject to restrictions as set forth in subparagraphs (a)
 and (c) of the Commercial Computer Software - Restricted
 Rights clause in FAR 52.227-19.
  
 Gaussian, Inc.
 340 Quinnipiac St., Bldg. 40, Wallingford CT 06492
  
  
 ---------------------------------------------------------------
 Warning -- This program may not be used in any manner that
 competes with the business of Gaussian, Inc. or will provide
 assistance to any competitor of Gaussian, Inc.  The licensee
 of this program is prohibited from giving any competitor of
 Gaussian, Inc. access to this program.  By using this program,
 the user acknowledges that Gaussian, Inc. is engaged in the
 business of creating and licensing software in the field of
 computational chemistry and represents and warrants to the
 licensee that it is not a competitor of Gaussian, Inc. and that
 it will not use this program in any manner prohibited above.
 ---------------------------------------------------------------
  

 Cite this work as:
 Gaussian 16, Revision A.03,
 M. J. Frisch, G. W. Trucks, H. B. Schlegel, G. E. Scuseria, 
 M. A. Robb, J. R. Cheeseman, G. Scalmani, V. Barone, 
 G. A. Petersson, H. Nakatsuji, X. Li, M. Caricato, A. V. Marenich, 
 J. Bloino, B. G. Janesko, R. Gomperts, B. Mennucci, H. P. Hratchian, 
 J. V. Ortiz, A. F. Izmaylov, J. L. Sonnenberg, D. Williams-Young, 
 F. Ding, F. Lipparini, F. Egidi, J. Goings, B. Peng, A. Petrone, 
 T. Henderson, D. Ranasinghe, V. G. Zakrzewski, J. Gao, N. Rega, 
 G. Zheng, W. Liang, M. Hada, M. Ehara, K. Toyota, R. Fukuda, 
 J. Hasegawa, M. Ishida, T. Nakajima, Y. Honda, O. Kitao, H. Nakai, 
 T. Vreven, K. Throssell, J. A. Montgomery, Jr., J. E. Peralta, 
 F. Ogliaro, M. J. Bearpark, J. J. Heyd, E. N. Brothers, K. N. Kudin, 
 V. N. Staroverov, T. A. Keith, R. Kobayashi, J. Normand, 
 K. Raghavachari, A. P. Rendell, J. C. Burant, S. S. Iyengar, 
 J. Tomasi, M. Cossi, J. M. Millam, M. Klene, C. Adamo, R. Cammi, 
 J. W. Ochterski, R. L. Martin, K. Morokuma, O. Farkas, 
 J. B. Foresman, and D. J. Fox, Gaussian, Inc., Wallingford CT, 2016.
 
 ******************************************
 Gaussian 16:  ES64L-G16RevA.03 25-Dec-2016
                20-Apr-2022 
 ******************************************
 %chk=MImPS.chk
 %mem=100000MB
 %nprocshared=22
 Will use up to   22 processors via shared memory.
 -----------------------------------
 #p opt freq B3LYP/6-311G** em=GD3BJ
 -----------------------------------
 1/18=20,19=15,26=3,38=1/1,3;
 2/9=110,12=2,17=6,18=5,40=1/2;
 3/5=4,6=6,7=101,11=2,25=1,30=1,71=1,74=-5,124=41/1,2,3;
 4//1;
 5/5=2,38=5/2;
 6/7=2,8=2,9=2,10=2,28=1/1;
 7//1,2,3,16;
 1/18=20,19=15,26=3/3(2);
 2/9=110/2;
 99//99;
 2/9=110/2;
 3/5=4,6=6,7=101,11=2,25=1,30=1,71=1,74=-5,124=41/1,2,3;
 4/5=5,16=3,69=1/1;
 5/5=2,38=5/2;
 7//1,2,3,16;
 1/18=20,19=15,26=3/3(-5);
 2/9=110/2;
 6/7=2,8=2,9=2,10=2,19=2,28=1/1;
 99/9=1/99;
 Leave Link    1 at Wed Apr 20 08:22:51 2022, MaxMem= 13107200000 cpu:               0.7 elap:               0.0
 (Enter /data0/home/wuhanyu/software/g16/l101.exe)
 -------------------
 Title Card Required
 -------------------
 Symbolic Z-matrix:
 Charge =  0 Multiplicity = 1
 C                    -2.84947   0.29997   0.6939 
 C                    -2.11667   1.41782   0.48675 
 C                    -1.28969  -0.17171  -0.78303 
 N                    -2.32462  -0.67749  -0.12398 
 H                    -3.69433   0.1164    1.3333 
 H                    -2.19843   2.4025    0.91199 
 H                    -0.59023  -0.71114  -1.40963 
 C                    -2.61091  -2.10389  -0.04987 
 H                    -2.38629  -2.55915  -1.01093 
 H                    -1.97945  -2.5458    0.71998 
 H                    -3.66371  -2.24436   0.18266 
 N                    -1.15339   1.10481  -0.4485 
 C                     0.00643   1.94981  -0.76794 
 H                    -0.38835   2.94057  -0.99189 
 H                     0.46747   1.53673  -1.66337 
 C                     1.00414   2.01118   0.40307 
 H                     1.40961   3.02509   0.43803 
 H                     0.45562   1.85432   1.3342 
 C                     2.17605   1.0349    0.34652 
 H                     2.72483   1.05952   1.28708 
 H                     2.86558   1.27313  -0.46399 
 S                     1.71072  -0.68798   0.07929 
 O                     2.8685   -1.469     0.44842 
 O                     0.51742  -0.89338   0.92109 
 O                     1.3682   -0.73259  -1.35762 
 
 ITRead=  0  0  0  0  0  0  0  0  0  0  0  0  0  0  0  0  0  0  0  0
 ITRead=  0  0  0  0  0
 MicOpt= -1 -1 -1 -1 -1 -1 -1 -1 -1 -1 -1 -1 -1 -1 -1 -1 -1 -1 -1 -1
 MicOpt= -1 -1 -1 -1 -1
 NAtoms=     25 NQM=       25 NQMF=       0 NMMI=      0 NMMIF=      0
                NMic=       0 NMicF=      0.
                    Isotopes and Nuclear Properties:
 (Nuclear quadrupole moments (NQMom) in fm**2, nuclear magnetic moments (NMagM)
  in nuclear magnetons)

  Atom         1           2           3           4           5           6           7           8           9          10
 IAtWgt=          12          12          12          14           1           1           1          12           1           1
 AtmWgt=  12.0000000  12.0000000  12.0000000  14.0030740   1.0078250   1.0078250   1.0078250  12.0000000   1.0078250   1.0078250
 NucSpn=           0           0           0           2           1           1           1           0           1           1
 AtZEff=  -0.0000000  -0.0000000  -0.0000000  -0.0000000  -0.0000000  -0.0000000  -0.0000000  -0.0000000  -0.0000000  -0.0000000
 NQMom=    0.0000000   0.0000000   0.0000000   2.0440000   0.0000000   0.0000000   0.0000000   0.0000000   0.0000000   0.0000000
 NMagM=    0.0000000   0.0000000   0.0000000   0.4037610   2.7928460   2.7928460   2.7928460   0.0000000   2.7928460   2.7928460
 AtZNuc=   6.0000000   6.0000000   6.0000000   7.0000000   1.0000000   1.0000000   1.0000000   6.0000000   1.0000000   1.0000000

  Atom        11          12          13          14          15          16          17          18          19          20
 IAtWgt=           1          14          12           1           1          12           1           1          12           1
 AtmWgt=   1.0078250  14.0030740  12.0000000   1.0078250   1.0078250  12.0000000   1.0078250   1.0078250  12.0000000   1.0078250
 NucSpn=           1           2           0           1           1           0           1           1           0           1
 AtZEff=  -0.0000000  -0.0000000  -0.0000000  -0.0000000  -0.0000000  -0.0000000  -0.0000000  -0.0000000  -0.0000000  -0.0000000
 NQMom=    0.0000000   2.0440000   0.0000000   0.0000000   0.0000000   0.0000000   0.0000000   0.0000000   0.0000000   0.0000000
 NMagM=    2.7928460   0.4037610   0.0000000   2.7928460   2.7928460   0.0000000   2.7928460   2.7928460   0.0000000   2.7928460
 AtZNuc=   1.0000000   7.0000000   6.0000000   1.0000000   1.0000000   6.0000000   1.0000000   1.0000000   6.0000000   1.0000000

  Atom        21          22          23          24          25
 IAtWgt=           1          32          16          16          16
 AtmWgt=   1.0078250  31.9720718  15.9949146  15.9949146  15.9949146
 NucSpn=           1           0           0           0           0
 AtZEff=  -0.0000000  -0.0000000  -0.0000000  -0.0000000  -0.0000000
 NQMom=    0.0000000   0.0000000   0.0000000   0.0000000   0.0000000
 NMagM=    2.7928460   0.0000000   0.0000000   0.0000000   0.0000000
 AtZNuc=   1.0000000  16.0000000   8.0000000   8.0000000   8.0000000
 Leave Link  101 at Wed Apr 20 08:22:51 2022, MaxMem= 13107200000 cpu:               7.1 elap:               0.3
 (Enter /data0/home/wuhanyu/software/g16/l103.exe)

 GradGradGradGradGradGradGradGradGradGradGradGradGradGradGradGradGradGrad
 Berny optimization.
 Initialization pass.
                           ----------------------------
                           !    Initial Parameters    !
                           ! (Angstroms and Degrees)  !
 --------------------------                            --------------------------
 ! Name  Definition              Value          Derivative Info.                !
 --------------------------------------------------------------------------------
 ! R1    R(1,2)                  1.3526         estimate D2E/DX2                !
 ! R2    R(1,4)                  1.3783         estimate D2E/DX2                !
 ! R3    R(1,5)                  1.0753         estimate D2E/DX2                !
 ! R4    R(2,6)                  1.0757         estimate D2E/DX2                !
 ! R5    R(2,12)                 1.3786         estimate D2E/DX2                !
 ! R6    R(3,4)                  1.3271         estimate D2E/DX2                !
 ! R7    R(3,7)                  1.083          estimate D2E/DX2                !
 ! R8    R(3,12)                 1.3267         estimate D2E/DX2                !
 ! R9    R(4,8)                  1.4567         estimate D2E/DX2                !
 ! R10   R(8,9)                  1.0869         estimate D2E/DX2                !
 ! R11   R(8,10)                 1.0894         estimate D2E/DX2                !
 ! R12   R(8,11)                 1.0873         estimate D2E/DX2                !
 ! R13   R(12,13)                1.4701         estimate D2E/DX2                !
 ! R14   R(13,14)                1.0898         estimate D2E/DX2                !
 ! R15   R(13,15)                1.0886         estimate D2E/DX2                !
 ! R16   R(13,16)                1.5396         estimate D2E/DX2                !
 ! R17   R(16,17)                1.0925         estimate D2E/DX2                !
 ! R18   R(16,18)                1.092          estimate D2E/DX2                !
 ! R19   R(16,19)                1.5263         estimate D2E/DX2                !
 ! R20   R(19,20)                1.0892         estimate D2E/DX2                !
 ! R21   R(19,21)                1.0905         estimate D2E/DX2                !
 ! R22   R(19,22)                1.8045         estimate D2E/DX2                !
 ! R23   R(22,23)                1.4445         estimate D2E/DX2                !
 ! R24   R(22,24)                1.4747         estimate D2E/DX2                !
 ! R25   R(22,25)                1.4778         estimate D2E/DX2                !
 ! A1    A(2,1,4)              106.7927         estimate D2E/DX2                !
 ! A2    A(2,1,5)              131.1332         estimate D2E/DX2                !
 ! A3    A(4,1,5)              122.0692         estimate D2E/DX2                !
 ! A4    A(1,2,6)              130.9048         estimate D2E/DX2                !
 ! A5    A(1,2,12)             107.1464         estimate D2E/DX2                !
 ! A6    A(6,2,12)             121.9466         estimate D2E/DX2                !
 ! A7    A(4,3,7)              126.9531         estimate D2E/DX2                !
 ! A8    A(4,3,12)             108.7602         estimate D2E/DX2                !
 ! A9    A(7,3,12)             123.974          estimate D2E/DX2                !
 ! A10   A(1,4,3)              108.7445         estimate D2E/DX2                !
 ! A11   A(1,4,8)              126.1121         estimate D2E/DX2                !
 ! A12   A(3,4,8)              123.4842         estimate D2E/DX2                !
 ! A13   A(4,8,9)              108.9377         estimate D2E/DX2                !
 ! A14   A(4,8,10)             108.6172         estimate D2E/DX2                !
 ! A15   A(4,8,11)             109.1282         estimate D2E/DX2                !
 ! A16   A(9,8,10)             109.5826         estimate D2E/DX2                !
 ! A17   A(9,8,11)             109.5784         estimate D2E/DX2                !
 ! A18   A(10,8,11)            110.9612         estimate D2E/DX2                !
 ! A19   A(2,12,3)             108.5266         estimate D2E/DX2                !
 ! A20   A(2,12,13)            124.6222         estimate D2E/DX2                !
 ! A21   A(3,12,13)            125.403          estimate D2E/DX2                !
 ! A22   A(12,13,14)           106.3453         estimate D2E/DX2                !
 ! A23   A(12,13,15)           107.1433         estimate D2E/DX2                !
 ! A24   A(12,13,16)           111.6468         estimate D2E/DX2                !
 ! A25   A(14,13,15)           109.2311         estimate D2E/DX2                !
 ! A26   A(14,13,16)           110.7816         estimate D2E/DX2                !
 ! A27   A(15,13,16)           111.4876         estimate D2E/DX2                !
 ! A28   A(13,16,17)           107.5674         estimate D2E/DX2                !
 ! A29   A(13,16,18)           108.4992         estimate D2E/DX2                !
 ! A30   A(13,16,19)           116.3513         estimate D2E/DX2                !
 ! A31   A(17,16,18)           107.0039         estimate D2E/DX2                !
 ! A32   A(17,16,19)           108.0492         estimate D2E/DX2                !
 ! A33   A(18,16,19)           108.9886         estimate D2E/DX2                !
 ! A34   A(16,19,20)           109.9004         estimate D2E/DX2                !
 ! A35   A(16,19,21)           111.9187         estimate D2E/DX2                !
 ! A36   A(16,19,22)           114.7203         estimate D2E/DX2                !
 ! A37   A(20,19,21)           108.5599         estimate D2E/DX2                !
 ! A38   A(20,19,22)           106.2233         estimate D2E/DX2                !
 ! A39   A(21,19,22)           105.163          estimate D2E/DX2                !
 ! A40   A(19,22,23)           105.7647         estimate D2E/DX2                !
 ! A41   A(19,22,24)           104.8981         estimate D2E/DX2                !
 ! A42   A(19,22,25)           103.4487         estimate D2E/DX2                !
 ! A43   A(23,22,24)           115.3011         estimate D2E/DX2                !
 ! A44   A(23,22,25)           114.7023         estimate D2E/DX2                !
 ! A45   A(24,22,25)           111.3007         estimate D2E/DX2                !
 ! D1    D(4,1,2,6)            179.1972         estimate D2E/DX2                !
 ! D2    D(4,1,2,12)            -0.2605         estimate D2E/DX2                !
 ! D3    D(5,1,2,6)              0.0015         estimate D2E/DX2                !
 ! D4    D(5,1,2,12)          -179.4563         estimate D2E/DX2                !
 ! D5    D(2,1,4,3)              1.2483         estimate D2E/DX2                !
 ! D6    D(2,1,4,8)            166.8832         estimate D2E/DX2                !
 ! D7    D(5,1,4,3)           -179.4664         estimate D2E/DX2                !
 ! D8    D(5,1,4,8)            -13.8316         estimate D2E/DX2                !
 ! D9    D(1,2,12,3)            -0.814          estimate D2E/DX2                !
 ! D10   D(1,2,12,13)         -167.6789         estimate D2E/DX2                !
 ! D11   D(6,2,12,3)           179.6689         estimate D2E/DX2                !
 ! D12   D(6,2,12,13)           12.8041         estimate D2E/DX2                !
 ! D13   D(7,3,4,1)            171.9569         estimate D2E/DX2                !
 ! D14   D(7,3,4,8)              5.8621         estimate D2E/DX2                !
 ! D15   D(12,3,4,1)            -1.7787         estimate D2E/DX2                !
 ! D16   D(12,3,4,8)          -167.8735         estimate D2E/DX2                !
 ! D17   D(4,3,12,2)             1.6095         estimate D2E/DX2                !
 ! D18   D(4,3,12,13)          168.346          estimate D2E/DX2                !
 ! D19   D(7,3,12,2)          -172.3548         estimate D2E/DX2                !
 ! D20   D(7,3,12,13)           -5.6182         estimate D2E/DX2                !
 ! D21   D(1,4,8,9)            158.1291         estimate D2E/DX2                !
 ! D22   D(1,4,8,10)           -82.5634         estimate D2E/DX2                !
 ! D23   D(1,4,8,11)            38.5267         estimate D2E/DX2                !
 ! D24   D(3,4,8,9)            -38.2321         estimate D2E/DX2                !
 ! D25   D(3,4,8,10)            81.0754         estimate D2E/DX2                !
 ! D26   D(3,4,8,11)          -157.8345         estimate D2E/DX2                !
 ! D27   D(2,12,13,14)         -52.5638         estimate D2E/DX2                !
 ! D28   D(2,12,13,15)        -169.2868         estimate D2E/DX2                !
 ! D29   D(2,12,13,16)          68.3802         estimate D2E/DX2                !
 ! D30   D(3,12,13,14)         142.7647         estimate D2E/DX2                !
 ! D31   D(3,12,13,15)          26.0416         estimate D2E/DX2                !
 ! D32   D(3,12,13,16)         -96.2913         estimate D2E/DX2                !
 ! D33   D(12,13,16,17)       -143.0236         estimate D2E/DX2                !
 ! D34   D(12,13,16,18)        -27.5953         estimate D2E/DX2                !
 ! D35   D(12,13,16,19)         95.6778         estimate D2E/DX2                !
 ! D36   D(14,13,16,17)        -24.6994         estimate D2E/DX2                !
 ! D37   D(14,13,16,18)         90.7289         estimate D2E/DX2                !
 ! D38   D(14,13,16,19)       -145.9981         estimate D2E/DX2                !
 ! D39   D(15,13,16,17)         97.1714         estimate D2E/DX2                !
 ! D40   D(15,13,16,18)       -147.4003         estimate D2E/DX2                !
 ! D41   D(15,13,16,19)        -24.1272         estimate D2E/DX2                !
 ! D42   D(13,16,19,20)       -171.3832         estimate D2E/DX2                !
 ! D43   D(13,16,19,21)         67.9165         estimate D2E/DX2                !
 ! D44   D(13,16,19,22)        -51.7953         estimate D2E/DX2                !
 ! D45   D(17,16,19,20)         67.5741         estimate D2E/DX2                !
 ! D46   D(17,16,19,21)        -53.1262         estimate D2E/DX2                !
 ! D47   D(17,16,19,22)       -172.838          estimate D2E/DX2                !
 ! D48   D(18,16,19,20)        -48.3644         estimate D2E/DX2                !
 ! D49   D(18,16,19,21)       -169.0647         estimate D2E/DX2                !
 ! D50   D(18,16,19,22)         71.2235         estimate D2E/DX2                !
 ! D51   D(16,19,22,23)       -163.4823         estimate D2E/DX2                !
 ! D52   D(16,19,22,24)        -41.1633         estimate D2E/DX2                !
 ! D53   D(16,19,22,25)         75.5879         estimate D2E/DX2                !
 ! D54   D(20,19,22,23)        -41.8664         estimate D2E/DX2                !
 ! D55   D(20,19,22,24)         80.4525         estimate D2E/DX2                !
 ! D56   D(20,19,22,25)       -162.7963         estimate D2E/DX2                !
 ! D57   D(21,19,22,23)         73.1139         estimate D2E/DX2                !
 ! D58   D(21,19,22,24)       -164.5672         estimate D2E/DX2                !
 ! D59   D(21,19,22,25)        -47.816          estimate D2E/DX2                !
 --------------------------------------------------------------------------------
 Trust Radius=3.00D-01 FncErr=1.00D-07 GrdErr=1.00D-06 EigMax=2.50D+02 EigMin=1.00D-04
 Number of steps in this run=    139 maximum allowed number of steps=    150.
 GradGradGradGradGradGradGradGradGradGradGradGradGradGradGradGradGradGrad

 Leave Link  103 at Wed Apr 20 08:22:51 2022, MaxMem= 13107200000 cpu:               0.2 elap:               0.0
 (Enter /data0/home/wuhanyu/software/g16/l202.exe)
                          Input orientation:                          
 ---------------------------------------------------------------------
 Center     Atomic      Atomic             Coordinates (Angstroms)
 Number     Number       Type             X           Y           Z
 ---------------------------------------------------------------------
      1          6           0       -2.849468    0.299970    0.693896
      2          6           0       -2.116669    1.417815    0.486749
      3          6           0       -1.289693   -0.171708   -0.783034
      4          7           0       -2.324620   -0.677493   -0.123984
      5          1           0       -3.694326    0.116399    1.333302
      6          1           0       -2.198433    2.402501    0.911994
      7          1           0       -0.590228   -0.711137   -1.409625
      8          6           0       -2.610914   -2.103890   -0.049871
      9          1           0       -2.386291   -2.559153   -1.010927
     10          1           0       -1.979446   -2.545800    0.719983
     11          1           0       -3.663706   -2.244360    0.182658
     12          7           0       -1.153391    1.104813   -0.448495
     13          6           0        0.006425    1.949808   -0.767943
     14          1           0       -0.388346    2.940573   -0.991892
     15          1           0        0.467466    1.536728   -1.663370
     16          6           0        1.004141    2.011177    0.403068
     17          1           0        1.409610    3.025095    0.438032
     18          1           0        0.455615    1.854317    1.334196
     19          6           0        2.176047    1.034896    0.346521
     20          1           0        2.724829    1.059517    1.287077
     21          1           0        2.865576    1.273128   -0.463989
     22         16           0        1.710723   -0.687984    0.079285
     23          8           0        2.868502   -1.468998    0.448418
     24          8           0        0.517420   -0.893378    0.921085
     25          8           0        1.368200   -0.732589   -1.357622
 ---------------------------------------------------------------------
                    Distance matrix (angstroms):
                    1          2          3          4          5
     1  C    0.000000
     2  C    1.352583   0.000000
     3  C    2.199250   2.196092   0.000000
     4  N    1.378342   2.192385   1.327117   0.000000
     5  H    1.075325   2.213445   3.216231   2.151753   0.000000
     6  H    2.211798   1.075698   3.213329   3.252005   2.764319
     7  H    3.248277   3.233990   1.082983   2.159194   4.224203
     8  C    2.527576   3.596477   2.452851   1.456731   2.831366
     9  H    3.360884   4.258169   2.637111   2.081133   3.790111
    10  H    2.975908   3.972842   2.893291   2.078941   3.225566
    11  H    2.719920   3.987144   3.296117   2.083807   2.626424
    12  N    2.197614   1.378607   1.326650   2.157243   3.257010
    13  C    3.607640   2.522855   2.486158   3.570877   4.633808
    14  H    3.983941   2.737201   3.246897   4.194380   4.930719
    15  H    4.253037   3.363764   2.604103   3.881782   5.321456
    16  C    4.226478   3.177819   3.381346   4.311308   5.150836
    17  H    5.062758   3.875612   4.358531   5.288619   5.942406
    18  H    3.708039   2.743236   3.410798   4.033120   4.499152
    19  C    5.090834   4.312041   3.839680   4.838352   6.023176
    20  H    5.656992   4.920265   4.681630   5.523154   6.488232
    21  H    5.911807   5.074210   4.410850   5.555057   6.899318
    22  S    4.706287   4.387408   3.164274   4.040473   5.606616
    23  O    5.990383   5.760824   4.526590   5.284188   6.809348
    24  O    3.579334   3.531103   2.586597   3.035781   4.350675
    25  O    4.802461   4.491131   2.776533   3.893818   5.795776
                    6          7          8          9         10
     6  H    0.000000
     7  H    4.203686   0.000000
     8  C    4.626325   2.805684   0.000000
     9  H    5.324559   2.607674   1.086899   0.000000
    10  H    4.956865   3.135466   1.089363   1.778131   0.000000
    11  H    4.926690   3.785816   1.087278   1.776381   1.793409
    12  N    2.151055   2.130399   3.546696   3.906535   3.921056
    13  C    2.808651   2.801496   4.878377   5.110270   5.134988
    14  H    2.681551   3.681065   5.592300   5.851421   5.963422
    15  H    3.806452   2.497198   5.033279   5.034466   5.323043
    16  C    3.266285   3.638525   5.496140   5.863645   5.456030
    17  H    3.691915   4.623053   6.535224   6.905952   6.526873
    18  H    2.742760   3.899217   5.194867   5.749326   5.066341
    19  C    4.618028   3.712810   5.737953   5.964460   5.498089
    20  H    5.116913   4.625691   6.345449   6.670768   5.953999
    21  H    5.367774   4.095622   6.447301   6.524387   6.281739
    22  S    5.052326   2.740760   4.549507   4.634151   4.180828
    23  O    6.393531   3.998686   5.538536   5.561562   4.973515
    24  O    4.270686   2.586949   3.492072   3.865102   3.000880
    25  O    5.263157   1.959236   4.407270   4.189599   4.337155
                   11         12         13         14         15
    11  H    0.000000
    12  N    4.232847   0.000000
    13  C    5.653720   1.470115   0.000000
    14  H    6.244284   2.061696   1.089776   0.000000
    15  H    5.896696   2.071147   1.088569   1.775972   0.000000
    16  C    6.320362   2.490301   1.539633   2.179154   2.187073
    17  H    7.319215   3.323009   2.139987   2.298798   2.742036
    18  H    5.924019   2.515680   2.151715   2.702389   3.014366
    19  C    6.699484   3.423755   2.605063   3.463967   2.685283
    20  H    7.276587   4.249100   3.522137   4.292311   3.745471
    21  H    7.444622   4.022520   2.953816   3.694193   2.694240
    22  S    5.596202   3.419915   3.252749   4.326654   3.087374
    23  O    6.583430   4.858454   4.621607   5.667969   4.388509
    24  O    4.455585   2.942809   3.346287   4.379392   3.547861
    25  O    5.475216   3.249766   3.065519   4.087950   2.460610
                   16         17         18         19         20
    16  C    0.000000
    17  H    1.092546   0.000000
    18  H    1.092010   1.756114   0.000000
    19  C    1.526331   2.134641   2.146355   0.000000
    20  H    2.155898   2.512802   2.404841   1.089226   0.000000
    21  H    2.182073   2.450075   3.062542   1.090473   1.769653
    22  S    2.808837   3.742502   3.100547   1.804510   2.353918
    23  O    3.948356   4.724970   4.201315   2.599877   2.667842
    24  O    2.990264   4.047687   2.779264   2.607567   2.969916
    25  O    3.280369   4.164886   3.843277   2.584710   3.470810
                   21         22         23         24         25
    21  H    0.000000
    22  S    2.339827   0.000000
    23  O    2.889939   1.444539   0.000000
    24  O    3.482243   1.474716   2.466240   0.000000
    25  O    2.657746   1.477841   2.460688   2.437660   0.000000
 Stoichiometry    C7H12N2O3S
 Framework group  C1[X(C7H12N2O3S)]
 Deg. of freedom    69
 Full point group                 C1      NOp   1
 Largest Abelian subgroup         C1      NOp   1
 Largest concise Abelian subgroup C1      NOp   1
                         Standard orientation:                         
 ---------------------------------------------------------------------
 Center     Atomic      Atomic             Coordinates (Angstroms)
 Number     Number       Type             X           Y           Z
 ---------------------------------------------------------------------
      1          6           0        2.849468    0.299970   -0.693896
      2          6           0        2.116669    1.417815   -0.486749
      3          6           0        1.289693   -0.171708    0.783034
      4          7           0        2.324620   -0.677493    0.123984
      5          1           0        3.694326    0.116399   -1.333302
      6          1           0        2.198433    2.402501   -0.911994
      7          1           0        0.590228   -0.711137    1.409625
      8          6           0        2.610914   -2.103890    0.049871
      9          1           0        2.386291   -2.559153    1.010927
     10          1           0        1.979446   -2.545800   -0.719983
     11          1           0        3.663706   -2.244360   -0.182658
     12          7           0        1.153391    1.104813    0.448495
     13          6           0       -0.006425    1.949808    0.767943
     14          1           0        0.388346    2.940573    0.991892
     15          1           0       -0.467466    1.536728    1.663370
     16          6           0       -1.004141    2.011177   -0.403068
     17          1           0       -1.409610    3.025095   -0.438032
     18          1           0       -0.455615    1.854317   -1.334196
     19          6           0       -2.176047    1.034896   -0.346521
     20          1           0       -2.724829    1.059517   -1.287077
     21          1           0       -2.865576    1.273128    0.463989
     22         16           0       -1.710723   -0.687984   -0.079285
     23          8           0       -2.868502   -1.468998   -0.448418
     24          8           0       -0.517420   -0.893378   -0.921085
     25          8           0       -1.368200   -0.732589    1.357622
 ---------------------------------------------------------------------
 Rotational constants (GHZ):           1.2049059           0.6109325           0.4736220
 Leave Link  202 at Wed Apr 20 08:22:51 2022, MaxMem= 13107200000 cpu:               0.1 elap:               0.0
 (Enter /data0/home/wuhanyu/software/g16/l301.exe)
 Standard basis: 6-311G(d,p) (5D, 7F)
 Ernie: Thresh=  0.10000D-02 Tol=  0.10000D-05 Strict=F.
 There are   327 symmetry adapted cartesian basis functions of A   symmetry.
 There are   314 symmetry adapted basis functions of A   symmetry.
   314 basis functions,   526 primitive gaussians,   327 cartesian basis functions
    54 alpha electrons       54 beta electrons
       nuclear repulsion energy      1039.8989981027 Hartrees.
 IExCor=  402 DFT=T Ex+Corr=B3LYP ExCW=0 ScaHFX=  0.200000
 ScaDFX=  0.800000  0.720000  1.000000  0.810000 ScalE2=  1.000000  1.000000
 IRadAn=      5 IRanWt=     -1 IRanGd=            0 ICorTp=0 IEmpDi=141
 NAtoms=   25 NActive=   25 NUniq=   25 SFac= 1.00D+00 NAtFMM=   60 NAOKFM=F Big=F
 Integral buffers will be    131072 words long.
 Raffenetti 2 integral format.
 Two-electron integral symmetry is turned on.
 R6Disp:  Grimme-D3(BJ) Dispersion energy=       -0.0523948274 Hartrees.
 Nuclear repulsion after empirical dispersion term =     1039.8466032752 Hartrees.
 Leave Link  301 at Wed Apr 20 08:22:51 2022, MaxMem= 13107200000 cpu:               1.0 elap:               0.1
 (Enter /data0/home/wuhanyu/software/g16/l302.exe)
 NPDir=0 NMtPBC=     1 NCelOv=     1 NCel=       1 NClECP=     1 NCelD=      1
         NCelK=      1 NCelE2=     1 NClLst=     1 CellRange=     0.0.
 One-electron integrals computed using PRISM.
 One-electron integral symmetry used in STVInt
 NBasis=   314 RedAO= T EigKep=  7.70D-04  NBF=   314
 NBsUse=   314 1.00D-06 EigRej= -1.00D+00 NBFU=   314
 Precomputing XC quadrature grid using
 IXCGrd= 4 IRadAn=           5 IRanWt=          -1 IRanGd=           0 AccXCQ= 0.00D+00.
 Generated NRdTot=       0 NPtTot=           0 NUsed=           0 NTot=          32
 NSgBfM=   327   327   327   327   327 MxSgAt=    25 MxSgA2=    25.
 Leave Link  302 at Wed Apr 20 08:22:51 2022, MaxMem= 13107200000 cpu:               5.6 elap:               0.3
 (Enter /data0/home/wuhanyu/software/g16/l303.exe)
 DipDrv:  MaxL=1.
 Leave Link  303 at Wed Apr 20 08:22:51 2022, MaxMem= 13107200000 cpu:               0.7 elap:               0.1
 (Enter /data0/home/wuhanyu/software/g16/l401.exe)
 ExpMin= 7.71D-02 ExpMax= 9.34D+04 ExpMxC= 3.17D+03 IAcc=3 IRadAn=         5 AccDes= 0.00D+00
 Harris functional with IExCor=  402 and IRadAn=       5 diagonalized for initial guess.
 HarFok:  IExCor=  402 AccDes= 0.00D+00 IRadAn=         5 IDoV= 1 UseB2=F ITyADJ=14
 ICtDFT=  3500011 ScaDFX=  1.000000  1.000000  1.000000  1.000000
 FoFCou: FMM=F IPFlag=           0 FMFlag=      100000 FMFlg1=           0
         NFxFlg=           0 DoJE=T BraDBF=F KetDBF=T FulRan=T
         wScrn=  0.000000 ICntrl=       500 IOpCl=  0 I1Cent=   200000004 NGrid=           0
         NMat0=    1 NMatS0=      1 NMatT0=    0 NMatD0=    1 NMtDS0=    0 NMtDT0=    0
 Petite list used in FoFCou.
 Harris En= -1007.57619334429    
 JPrj=0 DoOrth=F DoCkMO=F.
 Leave Link  401 at Wed Apr 20 08:22:52 2022, MaxMem= 13107200000 cpu:              20.4 elap:               1.0
 (Enter /data0/home/wuhanyu/software/g16/l502.exe)
 Integral symmetry usage will be decided dynamically.
 Closed shell SCF:
 Using DIIS extrapolation, IDIIS=  1040.
 NGot= 13107200000 LenX= 13106975605 LenY= 13106868235
 Requested convergence on RMS density matrix=1.00D-08 within 128 cycles.
 Requested convergence on MAX density matrix=1.00D-06.
 Requested convergence on             energy=1.00D-06.
 No special actions if energy rises.
 Fock matrices will be formed incrementally for  20 cycles.
 Integral accuracy reduced to 1.0D-05 until final iterations.

 Cycle   1  Pass 0  IDiag  1:
 FoFJK:  IHMeth= 1 ICntrl=       0 DoSepK=F KAlg= 0 I1Cent=           0 FoldK=F
 IRaf= 890000000 NMat=       1 IRICut=       1 DoRegI=T DoRafI=F ISym2E= 0 IDoP0=0 IntGTp=1.
 FoFCou: FMM=F IPFlag=           0 FMFlag=      100000 FMFlg1=           0
         NFxFlg=           0 DoJE=F BraDBF=F KetDBF=F FulRan=T
         wScrn=  0.000000 ICntrl=         0 IOpCl=  0 I1Cent=           0 NGrid=           0
         NMat0=    1 NMatS0=      1 NMatT0=    0 NMatD0=    1 NMtDS0=    0 NMtDT0=    0
 Symmetry not used in FoFCou.
 E= -1007.00185594104    
 DIIS: error= 5.58D-02 at cycle   1 NSaved=   1.
 NSaved= 1 IEnMin= 1 EnMin= -1007.00185594104     IErMin= 1 ErrMin= 5.58D-02
 ErrMax= 5.58D-02  0.00D+00 EMaxC= 1.00D-01 BMatC= 7.25D-01 BMatP= 7.25D-01
 IDIUse=3 WtCom= 4.42D-01 WtEn= 5.58D-01
 Coeff-Com:  0.100D+01
 Coeff-En:   0.100D+01
 Coeff:      0.100D+01
 Gap=     0.221 Goal=   None    Shift=    0.000
 GapD=    0.221 DampG=1.000 DampE=0.500 DampFc=0.5000 IDamp=-1.
 Damping current iteration by 5.00D-01
 RMSDP=5.51D-03 MaxDP=3.33D-01              OVMax= 2.44D-01

 Cycle   2  Pass 0  IDiag  1:
 RMSU=  2.75D-03    CP:  1.01D+00
 E= -1007.14343323791     Delta-E=       -0.141577296863 Rises=F Damp=T
 DIIS: error= 1.62D-02 at cycle   2 NSaved=   2.
 NSaved= 2 IEnMin= 2 EnMin= -1007.14343323791     IErMin= 2 ErrMin= 1.62D-02
 ErrMax= 1.62D-02  0.00D+00 EMaxC= 1.00D-01 BMatC= 7.89D-02 BMatP= 7.25D-01
 IDIUse=3 WtCom= 8.38D-01 WtEn= 1.62D-01
 Coeff-Com:  0.195D+00 0.805D+00
 Coeff-En:   0.341D+00 0.659D+00
 Coeff:      0.218D+00 0.782D+00
 Gap=     0.190 Goal=   None    Shift=    0.000
 RMSDP=1.34D-03 MaxDP=6.58D-02 DE=-1.42D-01 OVMax= 1.89D-01

 Cycle   3  Pass 0  IDiag  1:
 RMSU=  9.39D-04    CP:  1.00D+00  6.53D-01
 E= -1007.47775476883     Delta-E=       -0.334321530926 Rises=F Damp=F
 DIIS: error= 8.08D-03 at cycle   3 NSaved=   3.
 NSaved= 3 IEnMin= 3 EnMin= -1007.47775476883     IErMin= 3 ErrMin= 8.08D-03
 ErrMax= 8.08D-03  0.00D+00 EMaxC= 1.00D-01 BMatC= 2.59D-02 BMatP= 7.89D-02
 IDIUse=3 WtCom= 9.19D-01 WtEn= 8.08D-02
 Coeff-Com:  0.469D-01 0.368D+00 0.585D+00
 Coeff-En:   0.000D+00 0.000D+00 0.100D+01
 Coeff:      0.431D-01 0.338D+00 0.619D+00
 Gap=     0.177 Goal=   None    Shift=    0.000
 RMSDP=6.25D-04 MaxDP=3.05D-02 DE=-3.34D-01 OVMax= 3.92D-02

 Cycle   4  Pass 0  IDiag  1:
 RMSU=  4.36D-04    CP:  1.01D+00  7.34D-01  5.96D-01
 E= -1007.49491987988     Delta-E=       -0.017165111042 Rises=F Damp=F
 DIIS: error= 4.19D-03 at cycle   4 NSaved=   4.
 NSaved= 4 IEnMin= 4 EnMin= -1007.49491987988     IErMin= 4 ErrMin= 4.19D-03
 ErrMax= 4.19D-03  0.00D+00 EMaxC= 1.00D-01 BMatC= 6.25D-03 BMatP= 2.59D-02
 IDIUse=3 WtCom= 9.58D-01 WtEn= 4.19D-02
 Coeff-Com: -0.161D-02 0.856D-01 0.349D+00 0.567D+00
 Coeff-En:   0.000D+00 0.000D+00 0.203D+00 0.797D+00
 Coeff:     -0.155D-02 0.820D-01 0.343D+00 0.577D+00
 Gap=     0.183 Goal=   None    Shift=    0.000
 RMSDP=2.51D-04 MaxDP=1.23D-02 DE=-1.72D-02 OVMax= 1.91D-02

 Cycle   5  Pass 0  IDiag  1:
 RMSU=  1.21D-04    CP:  1.01D+00  7.18D-01  7.21D-01  5.90D-01
 E= -1007.50010483793     Delta-E=       -0.005184958052 Rises=F Damp=F
 DIIS: error= 1.42D-03 at cycle   5 NSaved=   5.
 NSaved= 5 IEnMin= 5 EnMin= -1007.50010483793     IErMin= 5 ErrMin= 1.42D-03
 ErrMax= 1.42D-03  0.00D+00 EMaxC= 1.00D-01 BMatC= 6.22D-04 BMatP= 6.25D-03
 IDIUse=3 WtCom= 9.86D-01 WtEn= 1.42D-02
 Coeff-Com: -0.398D-02 0.248D-01 0.160D+00 0.338D+00 0.481D+00
 Coeff-En:   0.000D+00 0.000D+00 0.000D+00 0.000D+00 0.100D+01
 Coeff:     -0.393D-02 0.245D-01 0.158D+00 0.333D+00 0.488D+00
 Gap=     0.183 Goal=   None    Shift=    0.000
 RMSDP=8.31D-05 MaxDP=3.16D-03 DE=-5.18D-03 OVMax= 5.32D-03

 Cycle   6  Pass 0  IDiag  1:
 RMSU=  4.89D-05    CP:  1.01D+00  7.20D-01  7.18D-01  6.56D-01  5.03D-01
 E= -1007.50052918047     Delta-E=       -0.000424342541 Rises=F Damp=F
 DIIS: error= 5.41D-04 at cycle   6 NSaved=   6.
 NSaved= 6 IEnMin= 6 EnMin= -1007.50052918047     IErMin= 6 ErrMin= 5.41D-04
 ErrMax= 5.41D-04  0.00D+00 EMaxC= 1.00D-01 BMatC= 8.83D-05 BMatP= 6.22D-04
 IDIUse=3 WtCom= 9.95D-01 WtEn= 5.41D-03
 Coeff-Com: -0.212D-02 0.377D-02 0.505D-01 0.129D+00 0.311D+00 0.508D+00
 Coeff-En:   0.000D+00 0.000D+00 0.000D+00 0.000D+00 0.108D+00 0.892D+00
 Coeff:     -0.211D-02 0.374D-02 0.502D-01 0.128D+00 0.310D+00 0.510D+00
 Gap=     0.183 Goal=   None    Shift=    0.000
 RMSDP=2.69D-05 MaxDP=8.95D-04 DE=-4.24D-04 OVMax= 1.84D-03

 Cycle   7  Pass 0  IDiag  1:
 RMSU=  1.29D-05    CP:  1.01D+00  7.20D-01  7.19D-01  6.58D-01  5.96D-01
                    CP:  5.80D-01
 E= -1007.50059426949     Delta-E=       -0.000065089016 Rises=F Damp=F
 DIIS: error= 5.93D-05 at cycle   7 NSaved=   7.
 NSaved= 7 IEnMin= 7 EnMin= -1007.50059426949     IErMin= 7 ErrMin= 5.93D-05
 ErrMax= 5.93D-05  0.00D+00 EMaxC= 1.00D-01 BMatC= 3.39D-06 BMatP= 8.83D-05
 IDIUse=1 WtCom= 1.00D+00 WtEn= 0.00D+00
 Coeff-Com: -0.609D-03-0.220D-03 0.124D-01 0.372D-01 0.117D+00 0.252D+00
 Coeff-Com:  0.582D+00
 Coeff:     -0.609D-03-0.220D-03 0.124D-01 0.372D-01 0.117D+00 0.252D+00
 Coeff:      0.582D+00
 Gap=     0.183 Goal=   None    Shift=    0.000
 RMSDP=5.52D-06 MaxDP=1.67D-04 DE=-6.51D-05 OVMax= 2.79D-04

 Initial convergence to 1.0D-05 achieved.  Increase integral accuracy.
 Cycle   8  Pass 1  IDiag  1:
 E= -1007.50050821852     Delta-E=        0.000086050968 Rises=F Damp=F
 DIIS: error= 1.29D-05 at cycle   1 NSaved=   1.
 NSaved= 1 IEnMin= 1 EnMin= -1007.50050821852     IErMin= 1 ErrMin= 1.29D-05
 ErrMax= 1.29D-05  0.00D+00 EMaxC= 1.00D-01 BMatC= 1.70D-07 BMatP= 1.70D-07
 IDIUse=1 WtCom= 1.00D+00 WtEn= 0.00D+00
 Coeff-Com:  0.100D+01
 Coeff:      0.100D+01
 Gap=     0.183 Goal=   None    Shift=    0.000
 RMSDP=5.52D-06 MaxDP=1.67D-04 DE= 8.61D-05 OVMax= 1.56D-04

 Cycle   9  Pass 1  IDiag  1:
 RMSU=  4.92D-06    CP:  1.00D+00
 E= -1007.50050822236     Delta-E=       -0.000000003846 Rises=F Damp=F
 DIIS: error= 2.17D-05 at cycle   2 NSaved=   2.
 NSaved= 2 IEnMin= 2 EnMin= -1007.50050822236     IErMin= 1 ErrMin= 1.29D-05
 ErrMax= 2.17D-05  0.00D+00 EMaxC= 1.00D-01 BMatC= 1.84D-07 BMatP= 1.70D-07
 IDIUse=1 WtCom= 1.00D+00 WtEn= 0.00D+00
 Coeff-Com:  0.512D+00 0.488D+00
 Coeff:      0.512D+00 0.488D+00
 Gap=     0.183 Goal=   None    Shift=    0.000
 RMSDP=1.44D-06 MaxDP=4.38D-05 DE=-3.85D-09 OVMax= 1.23D-04

 Cycle  10  Pass 1  IDiag  1:
 RMSU=  1.26D-06    CP:  1.00D+00  8.62D-01
 E= -1007.50050837562     Delta-E=       -0.000000153254 Rises=F Damp=F
 DIIS: error= 1.04D-05 at cycle   3 NSaved=   3.
 NSaved= 3 IEnMin= 3 EnMin= -1007.50050837562     IErMin= 3 ErrMin= 1.04D-05
 ErrMax= 1.04D-05  0.00D+00 EMaxC= 1.00D-01 BMatC= 2.27D-08 BMatP= 1.70D-07
 IDIUse=1 WtCom= 1.00D+00 WtEn= 0.00D+00
 Coeff-Com:  0.148D+00 0.272D+00 0.579D+00
 Coeff:      0.148D+00 0.272D+00 0.579D+00
 Gap=     0.183 Goal=   None    Shift=    0.000
 RMSDP=4.49D-07 MaxDP=1.93D-05 DE=-1.53D-07 OVMax= 5.95D-05

 Cycle  11  Pass 1  IDiag  1:
 RMSU=  3.93D-07    CP:  1.00D+00  8.78D-01  8.39D-01
 E= -1007.50050839177     Delta-E=       -0.000000016155 Rises=F Damp=F
 DIIS: error= 4.20D-06 at cycle   4 NSaved=   4.
 NSaved= 4 IEnMin= 4 EnMin= -1007.50050839177     IErMin= 4 ErrMin= 4.20D-06
 ErrMax= 4.20D-06  0.00D+00 EMaxC= 1.00D-01 BMatC= 4.88D-09 BMatP= 2.27D-08
 IDIUse=1 WtCom= 1.00D+00 WtEn= 0.00D+00
 Coeff-Com:  0.915D-02 0.887D-01 0.366D+00 0.536D+00
 Coeff:      0.915D-02 0.887D-01 0.366D+00 0.536D+00
 Gap=     0.183 Goal=   None    Shift=    0.000
 RMSDP=1.89D-07 MaxDP=6.27D-06 DE=-1.62D-08 OVMax= 2.23D-05

 Cycle  12  Pass 1  IDiag  1:
 RMSU=  1.11D-07    CP:  1.00D+00  8.88D-01  8.58D-01  6.36D-01
 E= -1007.50050839616     Delta-E=       -0.000000004391 Rises=F Damp=F
 DIIS: error= 1.12D-06 at cycle   5 NSaved=   5.
 NSaved= 5 IEnMin= 5 EnMin= -1007.50050839616     IErMin= 5 ErrMin= 1.12D-06
 ErrMax= 1.12D-06  0.00D+00 EMaxC= 1.00D-01 BMatC= 2.69D-10 BMatP= 4.88D-09
 IDIUse=1 WtCom= 1.00D+00 WtEn= 0.00D+00
 Coeff-Com: -0.445D-02 0.306D-01 0.162D+00 0.291D+00 0.520D+00
 Coeff:     -0.445D-02 0.306D-01 0.162D+00 0.291D+00 0.520D+00
 Gap=     0.183 Goal=   None    Shift=    0.000
 RMSDP=5.15D-08 MaxDP=1.83D-06 DE=-4.39D-09 OVMax= 4.74D-06

 Cycle  13  Pass 1  IDiag  1:
 RMSU=  3.14D-08    CP:  1.00D+00  8.90D-01  8.60D-01  6.45D-01  6.53D-01
 E= -1007.50050839637     Delta-E=       -0.000000000211 Rises=F Damp=F
 DIIS: error= 2.31D-07 at cycle   6 NSaved=   6.
 NSaved= 6 IEnMin= 6 EnMin= -1007.50050839637     IErMin= 6 ErrMin= 2.31D-07
 ErrMax= 2.31D-07  0.00D+00 EMaxC= 1.00D-01 BMatC= 1.81D-11 BMatP= 2.69D-10
 IDIUse=1 WtCom= 1.00D+00 WtEn= 0.00D+00
 Coeff-Com: -0.300D-02 0.104D-01 0.636D-01 0.121D+00 0.279D+00 0.529D+00
 Coeff:     -0.300D-02 0.104D-01 0.636D-01 0.121D+00 0.279D+00 0.529D+00
 Gap=     0.183 Goal=   None    Shift=    0.000
 RMSDP=1.25D-08 MaxDP=5.15D-07 DE=-2.11D-10 OVMax= 1.25D-06

 Cycle  14  Pass 1  IDiag  1:
 RMSU=  1.04D-08    CP:  1.00D+00  8.91D-01  8.60D-01  6.45D-01  6.82D-01
                    CP:  8.12D-01
 E= -1007.50050839642     Delta-E=       -0.000000000047 Rises=F Damp=F
 DIIS: error= 6.70D-08 at cycle   7 NSaved=   7.
 NSaved= 7 IEnMin= 7 EnMin= -1007.50050839642     IErMin= 7 ErrMin= 6.70D-08
 ErrMax= 6.70D-08  0.00D+00 EMaxC= 1.00D-01 BMatC= 1.31D-12 BMatP= 1.81D-11
 IDIUse=1 WtCom= 1.00D+00 WtEn= 0.00D+00
 Coeff-Com: -0.842D-03 0.131D-02 0.113D-01 0.230D-01 0.695D-01 0.244D+00
 Coeff-Com:  0.652D+00
 Coeff:     -0.842D-03 0.131D-02 0.113D-01 0.230D-01 0.695D-01 0.244D+00
 Coeff:      0.652D+00
 Gap=     0.183 Goal=   None    Shift=    0.000
 RMSDP=4.47D-09 MaxDP=1.45D-07 DE=-4.71D-11 OVMax= 4.67D-07

 SCF Done:  E(RB3LYP) =  -1007.50050840     A.U. after   14 cycles
            NFock= 14  Conv=0.45D-08     -V/T= 2.0024
 KE= 1.005131139630D+03 PE=-4.451135825482D+03 EE= 1.398657574180D+03
 Leave Link  502 at Wed Apr 20 08:23:09 2022, MaxMem= 13107200000 cpu:             364.6 elap:              16.7
 (Enter /data0/home/wuhanyu/software/g16/l601.exe)
 Copying SCF densities to generalized density rwf, IOpCl= 0 IROHF=0.

 **********************************************************************

            Population analysis using the SCF density.

 **********************************************************************

 Orbital symmetries:
       Occupied  (A) (A) (A) (A) (A) (A) (A) (A) (A) (A) (A) (A)
                 (A) (A) (A) (A) (A) (A) (A) (A) (A) (A) (A) (A)
                 (A) (A) (A) (A) (A) (A) (A) (A) (A) (A) (A) (A)
                 (A) (A) (A) (A) (A) (A) (A) (A) (A) (A) (A) (A)
                 (A) (A) (A) (A) (A) (A)
       Virtual   (A) (A) (A) (A) (A) (A) (A) (A) (A) (A) (A) (A)
                 (A) (A) (A) (A) (A) (A) (A) (A) (A) (A) (A) (A)
                 (A) (A) (A) (A) (A) (A) (A) (A) (A) (A) (A) (A)
                 (A) (A) (A) (A) (A) (A) (A) (A) (A) (A) (A) (A)
                 (A) (A) (A) (A) (A) (A) (A) (A) (A) (A) (A) (A)
                 (A) (A) (A) (A) (A) (A) (A) (A) (A) (A) (A) (A)
                 (A) (A) (A) (A) (A) (A) (A) (A) (A) (A) (A) (A)
                 (A) (A) (A) (A) (A) (A) (A) (A) (A) (A) (A) (A)
                 (A) (A) (A) (A) (A) (A) (A) (A) (A) (A) (A) (A)
                 (A) (A) (A) (A) (A) (A) (A) (A) (A) (A) (A) (A)
                 (A) (A) (A) (A) (A) (A) (A) (A) (A) (A) (A) (A)
                 (A) (A) (A) (A) (A) (A) (A) (A) (A) (A) (A) (A)
                 (A) (A) (A) (A) (A) (A) (A) (A) (A) (A) (A) (A)
                 (A) (A) (A) (A) (A) (A) (A) (A) (A) (A) (A) (A)
                 (A) (A) (A) (A) (A) (A) (A) (A) (A) (A) (A) (A)
                 (A) (A) (A) (A) (A) (A) (A) (A) (A) (A) (A) (A)
                 (A) (A) (A) (A) (A) (A) (A) (A) (A) (A) (A) (A)
                 (A) (A) (A) (A) (A) (A) (A) (A) (A) (A) (A) (A)
                 (A) (A) (A) (A) (A) (A) (A) (A) (A) (A) (A) (A)
                 (A) (A) (A) (A) (A) (A) (A) (A) (A) (A) (A) (A)
                 (A) (A) (A) (A) (A) (A) (A) (A) (A) (A) (A) (A)
                 (A) (A) (A) (A) (A) (A) (A) (A)
 The electronic state is 1-A.
 Alpha  occ. eigenvalues --  -88.99899 -19.04673 -19.04602 -19.03918 -14.42567
 Alpha  occ. eigenvalues --  -14.42123 -10.28251 -10.25264 -10.25108 -10.24714
 Alpha  occ. eigenvalues --  -10.24302 -10.19259 -10.17258  -8.05996  -6.02261
 Alpha  occ. eigenvalues --   -6.02242  -6.02157  -1.10376  -1.08289  -0.98536
 Alpha  occ. eigenvalues --   -0.94442  -0.93861  -0.83953  -0.81202  -0.77610
 Alpha  occ. eigenvalues --   -0.72824  -0.67776  -0.65021  -0.63164  -0.58593
 Alpha  occ. eigenvalues --   -0.53758  -0.53271  -0.51654  -0.50204  -0.49696
 Alpha  occ. eigenvalues --   -0.48877  -0.47814  -0.45823  -0.45478  -0.44544
 Alpha  occ. eigenvalues --   -0.43692  -0.41349  -0.40628  -0.40197  -0.37757
 Alpha  occ. eigenvalues --   -0.36384  -0.33132  -0.31120  -0.29374  -0.28172
 Alpha  occ. eigenvalues --   -0.25734  -0.25547  -0.24975  -0.21724
 Alpha virt. eigenvalues --   -0.03433  -0.02056   0.01916   0.02722   0.04375
 Alpha virt. eigenvalues --    0.06233   0.07013   0.07788   0.08658   0.09357
 Alpha virt. eigenvalues --    0.10198   0.10777   0.11410   0.12093   0.13622
 Alpha virt. eigenvalues --    0.14996   0.15807   0.17096   0.18235   0.18335
 Alpha virt. eigenvalues --    0.18638   0.20062   0.21057   0.22827   0.23951
 Alpha virt. eigenvalues --    0.24811   0.25927   0.27119   0.29484   0.30508
 Alpha virt. eigenvalues --    0.31198   0.31654   0.32595   0.34402   0.35234
 Alpha virt. eigenvalues --    0.36160   0.37482   0.38826   0.39609   0.40546
 Alpha virt. eigenvalues --    0.41844   0.42108   0.44164   0.47083   0.49206
 Alpha virt. eigenvalues --    0.49719   0.51074   0.51448   0.53088   0.53720
 Alpha virt. eigenvalues --    0.54722   0.55074   0.56538   0.57151   0.57917
 Alpha virt. eigenvalues --    0.58399   0.59508   0.60486   0.61057   0.61824
 Alpha virt. eigenvalues --    0.62859   0.64019   0.65299   0.68586   0.69170
 Alpha virt. eigenvalues --    0.70383   0.71479   0.72469   0.75793   0.78209
 Alpha virt. eigenvalues --    0.80229   0.80726   0.83052   0.84276   0.87542
 Alpha virt. eigenvalues --    0.88842   0.90430   0.92777   0.94139   0.95350
 Alpha virt. eigenvalues --    0.97469   0.98709   0.98964   0.99869   1.02223
 Alpha virt. eigenvalues --    1.02897   1.03812   1.04354   1.09608   1.10761
 Alpha virt. eigenvalues --    1.12177   1.12668   1.13749   1.17554   1.18963
 Alpha virt. eigenvalues --    1.20228   1.20684   1.24350   1.25145   1.25408
 Alpha virt. eigenvalues --    1.28572   1.33110   1.33821   1.37628   1.37897
 Alpha virt. eigenvalues --    1.38669   1.40469   1.44337   1.45383   1.46002
 Alpha virt. eigenvalues --    1.47158   1.49209   1.49517   1.51673   1.52932
 Alpha virt. eigenvalues --    1.53771   1.55762   1.55963   1.57294   1.59411
 Alpha virt. eigenvalues --    1.59834   1.61002   1.62139   1.63700   1.64597
 Alpha virt. eigenvalues --    1.67158   1.68062   1.68365   1.70028   1.71226
 Alpha virt. eigenvalues --    1.71929   1.73906   1.75227   1.77441   1.78250
 Alpha virt. eigenvalues --    1.79330   1.81164   1.85448   1.86862   1.89773
 Alpha virt. eigenvalues --    1.92143   1.93636   1.94690   1.96789   2.00866
 Alpha virt. eigenvalues --    2.01657   2.03021   2.04179   2.06216   2.08443
 Alpha virt. eigenvalues --    2.10248   2.14537   2.17417   2.19264   2.20679
 Alpha virt. eigenvalues --    2.21864   2.23931   2.24417   2.28587   2.33644
 Alpha virt. eigenvalues --    2.35373   2.37675   2.38835   2.40780   2.41330
 Alpha virt. eigenvalues --    2.42950   2.44542   2.47257   2.48668   2.50709
 Alpha virt. eigenvalues --    2.51690   2.52963   2.54089   2.55928   2.57061
 Alpha virt. eigenvalues --    2.57529   2.60572   2.61721   2.63551   2.64554
 Alpha virt. eigenvalues --    2.66143   2.69242   2.70008   2.71824   2.73113
 Alpha virt. eigenvalues --    2.75216   2.77353   2.79792   2.80890   2.81818
 Alpha virt. eigenvalues --    2.84959   2.87918   2.88161   2.88691   2.90401
 Alpha virt. eigenvalues --    2.91850   2.93403   2.94062   2.98627   3.00649
 Alpha virt. eigenvalues --    3.02813   3.04007   3.08161   3.09876   3.11440
 Alpha virt. eigenvalues --    3.17860   3.20549   3.22353   3.26327   3.33528
 Alpha virt. eigenvalues --    3.35129   3.46795   3.51546   3.56060   3.56588
 Alpha virt. eigenvalues --    3.59890   3.60653   3.64152   3.68116   3.72509
 Alpha virt. eigenvalues --    3.75749   3.76628   3.80689   3.82537   3.85627
 Alpha virt. eigenvalues --    3.90330   3.93439   4.03627   4.06678   4.28428
 Alpha virt. eigenvalues --    4.70884   4.90696   4.91578   4.92608   4.93731
 Alpha virt. eigenvalues --    4.94634   4.96500   5.00758   5.03756   5.12076
 Alpha virt. eigenvalues --    5.21938   5.23530   5.31568   8.07220  17.32735
 Alpha virt. eigenvalues --   17.42584  17.51040  23.68082  23.79859  23.84310
 Alpha virt. eigenvalues --   23.85323  23.86746  23.90443  24.16085  35.43351
 Alpha virt. eigenvalues --   35.58632  49.87592  49.88329  49.98433 189.11794
          Condensed to atoms (all electrons):
               1          2          3          4          5          6
     1  C    4.799318   0.612291  -0.127097   0.401783   0.414327  -0.031359
     2  C    0.612291   4.813409  -0.129975  -0.064918  -0.031107   0.415465
     3  C   -0.127097  -0.129975   4.847673   0.402117   0.007090   0.007501
     4  N    0.401783  -0.064918   0.402117   6.469546  -0.030691   0.003241
     5  H    0.414327  -0.031107   0.007090  -0.030691   0.504476  -0.001088
     6  H   -0.031359   0.415465   0.007501   0.003241  -0.001088   0.503284
     7  H    0.001458   0.002555   0.374614  -0.020050  -0.000111  -0.000132
     8  C   -0.048316   0.007088  -0.055445   0.281996  -0.004321  -0.000154
     9  H    0.005703  -0.000551  -0.006047  -0.019013  -0.000010   0.000016
    10  H   -0.000508   0.000092  -0.002971  -0.036042   0.000212  -0.000013
    11  H   -0.007541   0.000996   0.005850  -0.024807   0.001129   0.000010
    12  N   -0.067543   0.415566   0.424078  -0.049739   0.003096  -0.030866
    13  C    0.006482  -0.056856  -0.048584   0.006542  -0.000176  -0.003205
    14  H    0.000668  -0.007570   0.005986  -0.000234   0.000014   0.001339
    15  H   -0.000584   0.005397  -0.006426   0.000346   0.000011   0.000041
    16  C    0.000508  -0.004841  -0.003185  -0.000690   0.000016   0.000356
    17  H   -0.000003   0.000096  -0.000020  -0.000005   0.000001  -0.000102
    18  H    0.000254   0.005900  -0.001267  -0.000172   0.000071   0.000397
    19  C   -0.000132   0.000350  -0.003174   0.000070  -0.000002   0.000008
    20  H    0.000001  -0.000047   0.000115   0.000007  -0.000000   0.000004
    21  H   -0.000003   0.000013   0.000000   0.000003   0.000000   0.000005
    22  S    0.001375  -0.001966  -0.003868   0.000034   0.000099  -0.000018
    23  O    0.000003  -0.000001   0.000164  -0.000000   0.000000   0.000000
    24  O    0.004856   0.001074   0.029971  -0.014001   0.000152  -0.000002
    25  O    0.000087  -0.000565  -0.017184   0.000810   0.000004  -0.000002
               7          8          9         10         11         12
     1  C    0.001458  -0.048316   0.005703  -0.000508  -0.007541  -0.067543
     2  C    0.002555   0.007088  -0.000551   0.000092   0.000996   0.415566
     3  C    0.374614  -0.055445  -0.006047  -0.002971   0.005850   0.424078
     4  N   -0.020050   0.281996  -0.019013  -0.036042  -0.024807  -0.049739
     5  H   -0.000111  -0.004321  -0.000010   0.000212   0.001129   0.003096
     6  H   -0.000132  -0.000154   0.000016  -0.000013   0.000010  -0.030866
     7  H    0.417449  -0.003050   0.000242   0.000420  -0.000070  -0.015887
     8  C   -0.003050   4.763685   0.402533   0.407842   0.399323   0.004703
     9  H    0.000242   0.402533   0.521620  -0.021025  -0.025199   0.000235
    10  H    0.000420   0.407842  -0.021025   0.481884  -0.025249   0.000051
    11  H   -0.000070   0.399323  -0.025199  -0.025249   0.550258  -0.000334
    12  N   -0.015887   0.004703   0.000235   0.000051  -0.000334   6.486077
    13  C   -0.006571  -0.000050  -0.000012  -0.000029   0.000015   0.251484
    14  H   -0.000237   0.000016  -0.000002   0.000001  -0.000001  -0.032846
    15  H    0.000839  -0.000014  -0.000012   0.000008   0.000001  -0.019005
    16  C    0.001505   0.000014   0.000008  -0.000028  -0.000001  -0.059087
    17  H    0.000032  -0.000001  -0.000000   0.000001   0.000000   0.005342
    18  H    0.000403  -0.000008   0.000001  -0.000014  -0.000004  -0.006412
    19  C    0.003014  -0.000008  -0.000007   0.000076   0.000001   0.007181
    20  H   -0.000248   0.000001   0.000000  -0.000002   0.000000  -0.000449
    21  H    0.000171  -0.000001   0.000000  -0.000004  -0.000000   0.000167
    22  S   -0.019265   0.000271  -0.000086   0.000486   0.000036  -0.008180
    23  O   -0.000514  -0.000002   0.000002  -0.000033   0.000000  -0.000039
    24  O   -0.006051   0.000585  -0.000234   0.008703   0.000085  -0.014469
    25  O    0.045757  -0.000104  -0.000089  -0.000066  -0.000006  -0.008263
              13         14         15         16         17         18
     1  C    0.006482   0.000668  -0.000584   0.000508  -0.000003   0.000254
     2  C   -0.056856  -0.007570   0.005397  -0.004841   0.000096   0.005900
     3  C   -0.048584   0.005986  -0.006426  -0.003185  -0.000020  -0.001267
     4  N    0.006542  -0.000234   0.000346  -0.000690  -0.000005  -0.000172
     5  H   -0.000176   0.000014   0.000011   0.000016   0.000001   0.000071
     6  H   -0.003205   0.001339   0.000041   0.000356  -0.000102   0.000397
     7  H   -0.006571  -0.000237   0.000839   0.001505   0.000032   0.000403
     8  C   -0.000050   0.000016  -0.000014   0.000014  -0.000001  -0.000008
     9  H   -0.000012  -0.000002  -0.000012   0.000008  -0.000000   0.000001
    10  H   -0.000029   0.000001   0.000008  -0.000028   0.000001  -0.000014
    11  H    0.000015  -0.000001   0.000001  -0.000001   0.000000  -0.000004
    12  N    0.251484  -0.032846  -0.019005  -0.059087   0.005342  -0.006412
    13  C    5.007009   0.412674   0.409386   0.279636  -0.041728  -0.048354
    14  H    0.412674   0.557626  -0.022803  -0.047270  -0.009838  -0.000045
    15  H    0.409386  -0.022803   0.477365  -0.043411   0.001673   0.004531
    16  C    0.279636  -0.047270  -0.043411   5.187237   0.380402   0.407402
    17  H   -0.041728  -0.009838   0.001673   0.380402   0.595933  -0.023900
    18  H   -0.048354  -0.000045   0.004531   0.407402  -0.023900   0.546035
    19  C   -0.045600   0.006041   0.000933   0.189499  -0.018773  -0.031134
    20  H    0.009265  -0.000220   0.000687  -0.034410  -0.004351  -0.008895
    21  H   -0.006941  -0.000176   0.002007  -0.033498  -0.006155   0.008151
    22  S   -0.001175   0.001023  -0.006187  -0.005927   0.000596  -0.004047
    23  O    0.000032   0.000006  -0.000100   0.004718  -0.000180  -0.000174
    24  O   -0.009949  -0.000054  -0.000346   0.015452   0.000576   0.012004
    25  O    0.018734   0.000831   0.015805  -0.018930  -0.000530  -0.000365
              19         20         21         22         23         24
     1  C   -0.000132   0.000001  -0.000003   0.001375   0.000003   0.004856
     2  C    0.000350  -0.000047   0.000013  -0.001966  -0.000001   0.001074
     3  C   -0.003174   0.000115   0.000000  -0.003868   0.000164   0.029971
     4  N    0.000070   0.000007   0.000003   0.000034  -0.000000  -0.014001
     5  H   -0.000002  -0.000000   0.000000   0.000099   0.000000   0.000152
     6  H    0.000008   0.000004   0.000005  -0.000018   0.000000  -0.000002
     7  H    0.003014  -0.000248   0.000171  -0.019265  -0.000514  -0.006051
     8  C   -0.000008   0.000001  -0.000001   0.000271  -0.000002   0.000585
     9  H   -0.000007   0.000000   0.000000  -0.000086   0.000002  -0.000234
    10  H    0.000076  -0.000002  -0.000004   0.000486  -0.000033   0.008703
    11  H    0.000001   0.000000  -0.000000   0.000036   0.000000   0.000085
    12  N    0.007181  -0.000449   0.000167  -0.008180  -0.000039  -0.014469
    13  C   -0.045600   0.009265  -0.006941  -0.001175   0.000032  -0.009949
    14  H    0.006041  -0.000220  -0.000176   0.001023   0.000006  -0.000054
    15  H    0.000933   0.000687   0.002007  -0.006187  -0.000100  -0.000346
    16  C    0.189499  -0.034410  -0.033498  -0.005927   0.004718   0.015452
    17  H   -0.018773  -0.004351  -0.006155   0.000596  -0.000180   0.000576
    18  H   -0.031134  -0.008895   0.008151  -0.004047  -0.000174   0.012004
    19  C    5.543732   0.384890   0.379308   0.180754  -0.062907  -0.077582
    20  H    0.384890   0.533194  -0.022946  -0.014816   0.000375  -0.002312
    21  H    0.379308  -0.022946   0.540962  -0.017337  -0.001151   0.002737
    22  S    0.180754  -0.014816  -0.017337  13.581617   0.499102   0.395353
    23  O   -0.062907   0.000375  -0.001151   0.499102   8.177254  -0.050406
    24  O   -0.077582  -0.002312   0.002737   0.395353  -0.050406   8.381895
    25  O   -0.055962   0.002929   0.000251   0.355146  -0.051776  -0.057088
              25
     1  C    0.000087
     2  C   -0.000565
     3  C   -0.017184
     4  N    0.000810
     5  H    0.000004
     6  H   -0.000002
     7  H    0.045757
     8  C   -0.000104
     9  H   -0.000089
    10  H   -0.000066
    11  H   -0.000006
    12  N   -0.008263
    13  C    0.018734
    14  H    0.000831
    15  H    0.015805
    16  C   -0.018930
    17  H   -0.000530
    18  H   -0.000365
    19  C   -0.055962
    20  H    0.002929
    21  H    0.000251
    22  S    0.355146
    23  O   -0.051776
    24  O   -0.057088
    25  O    8.395355
 Mulliken charges:
               1
     1  C    0.033969
     2  C    0.018104
     3  C    0.300081
     4  N   -0.306131
     5  H    0.136809
     6  H    0.135276
     7  H    0.223727
     8  C   -0.156583
     9  H    0.141926
    10  H    0.186209
    11  H    0.125510
    12  N   -0.284864
    13  C   -0.132030
    14  H    0.135071
    15  H    0.179857
    16  C   -0.215475
    17  H    0.120933
    18  H    0.139641
    19  C   -0.400574
    20  H    0.157228
    21  H    0.154436
    22  S    1.066980
    23  O   -0.514371
    24  O   -0.620949
    25  O   -0.624780
 Sum of Mulliken charges =  -0.00000
 Mulliken charges with hydrogens summed into heavy atoms:
               1
     1  C    0.170778
     2  C    0.153381
     3  C    0.523808
     4  N   -0.306131
     8  C    0.297062
    12  N   -0.284864
    13  C    0.182898
    16  C    0.045099
    19  C   -0.088910
    22  S    1.066980
    23  O   -0.514371
    24  O   -0.620949
    25  O   -0.624780
 Electronic spatial extent (au):  <R**2>=           2469.7686
 Charge=             -0.0000 electrons
 Dipole moment (field-independent basis, Debye):
    X=             10.1435    Y=              5.4988    Z=              0.2106  Tot=             11.5400
 Quadrupole moment (field-independent basis, Debye-Ang):
   XX=            -81.7957   YY=            -76.4607   ZZ=            -87.2702
   XY=            -17.0004   XZ=             -2.1833   YZ=             -2.3062
 Traceless Quadrupole moment (field-independent basis, Debye-Ang):
   XX=              0.0465   YY=              5.3815   ZZ=             -5.4280
   XY=            -17.0004   XZ=             -2.1833   YZ=             -2.3062
 Octapole moment (field-independent basis, Debye-Ang**2):
  XXX=             71.6985  YYY=              2.4714  ZZZ=             -1.7825  XYY=             30.2907
  XXY=             12.9600  XXZ=            -14.7183  XZZ=              8.4569  YZZ=              4.1867
  YYZ=              3.1836  XYZ=             -2.4142
 Hexadecapole moment (field-independent basis, Debye-Ang**3):
 XXXX=          -1917.4532 YYYY=           -908.8186 ZZZZ=           -324.7465 XXXY=           -130.2725
 XXXZ=            -73.3515 YYYX=            -31.9447 YYYZ=             -4.9150 ZZZX=              8.4394
 ZZZY=              2.1521 XXYY=           -475.7802 XXZZ=           -367.6519 YYZZ=           -212.4627
 XXYZ=            -16.7880 YYXZ=            -11.3974 ZZXY=             -9.4790
 N-N= 1.039846603275D+03 E-N=-4.451135833259D+03  KE= 1.005131139630D+03
 No NMR shielding tensors so no spin-rotation constants.
 Leave Link  601 at Wed Apr 20 08:23:09 2022, MaxMem= 13107200000 cpu:               2.8 elap:               0.2
 (Enter /data0/home/wuhanyu/software/g16/l701.exe)
 ... and contract with generalized density number  0.
 Compute integral first derivatives.
 R6Disp: Adding Grimme-D3(BJ) dispersion energy 1st derivatives to the gradient.
 Leave Link  701 at Wed Apr 20 08:23:09 2022, MaxMem= 13107200000 cpu:               3.4 elap:               0.2
 (Enter /data0/home/wuhanyu/software/g16/l702.exe)
 L702 exits ... SP integral derivatives will be done elsewhere.
 Leave Link  702 at Wed Apr 20 08:23:09 2022, MaxMem= 13107200000 cpu:               0.3 elap:               0.0
 (Enter /data0/home/wuhanyu/software/g16/l703.exe)
 Integral derivatives from FoFJK, PRISM(SPDF).
 Compute integral first derivatives, UseDBF=F ICtDFT=           0.
 Calling FoFJK, ICntrl=      2127 FMM=F ISym2X=0 I1Cent= 0 IOpClX= 0 NMat=1 NMatS=1 NMatT=0.
 FoFJK:  IHMeth= 1 ICntrl=    2127 DoSepK=F KAlg= 0 I1Cent=           0 FoldK=F
 IRaf=         0 NMat=       1 IRICut=       1 DoRegI=T DoRafI=F ISym2E= 0 IDoP0=0 IntGTp=1.
 FoFCou: FMM=F IPFlag=           0 FMFlag=      100000 FMFlg1=         800
         NFxFlg=           0 DoJE=F BraDBF=F KetDBF=F FulRan=T
         wScrn=  0.000000 ICntrl=      2127 IOpCl=  0 I1Cent=           0 NGrid=           0
         NMat0=    1 NMatS0=      1 NMatT0=    0 NMatD0=    1 NMtDS0=    0 NMtDT0=    0
 Symmetry not used in FoFCou.
 Leave Link  703 at Wed Apr 20 08:23:14 2022, MaxMem= 13107200000 cpu:              94.6 elap:               4.3
 (Enter /data0/home/wuhanyu/software/g16/l716.exe)
 Dipole        = 3.99076500D+00 2.16339113D+00 8.28532541D-02
 ***** Axes restored to original set *****
 -------------------------------------------------------------------
 Center     Atomic                   Forces (Hartrees/Bohr)
 Number     Number              X              Y              Z
 -------------------------------------------------------------------
      1        6          -0.006095766   -0.000230666    0.005062723
      2        6          -0.001760782    0.007269252    0.003920171
      3        6           0.007387266   -0.007022575   -0.006147750
      4        7          -0.003226753   -0.004022737   -0.000546129
      5        1          -0.000037067    0.000171976    0.000103512
      6        1          -0.000175927   -0.000233472   -0.000010246
      7        1           0.000982316    0.000861551   -0.000170572
      8        6          -0.000318796   -0.000910208    0.000301385
      9        1           0.000081702   -0.000793099   -0.000544251
     10        1           0.000555602   -0.000670220    0.000446986
     11        1          -0.000956601   -0.000705696    0.000166474
     12        7           0.001349614    0.005170994   -0.002068184
     13        6          -0.000068897    0.001257811   -0.002102549
     14        1           0.000132949    0.000810504   -0.000398078
     15        1           0.000069673   -0.000008541    0.000312272
     16        6           0.000566039    0.000886854    0.000950704
     17        1           0.000232875    0.001135248    0.000159180
     18        1           0.000264399    0.000039440    0.000112512
     19        6           0.002513477    0.004819139    0.001283136
     20        1           0.000467358    0.000962929    0.000625463
     21        1           0.000608430    0.001033342   -0.000055353
     22       16           0.003323712    0.007347064    0.002409466
     23        8           0.020240512   -0.013599953    0.006360243
     24        8          -0.019108162   -0.003252809    0.013519652
     25        8          -0.007027175   -0.000316129   -0.023690767
 -------------------------------------------------------------------
 Cartesian Forces:  Max     0.023690767 RMS     0.005491196
 Leave Link  716 at Wed Apr 20 08:23:14 2022, MaxMem= 13107200000 cpu:               0.5 elap:               0.0
 (Enter /data0/home/wuhanyu/software/g16/l103.exe)

 GradGradGradGradGradGradGradGradGradGradGradGradGradGradGradGradGradGrad
 Berny optimization.
 FormGI is forming the generalized inverse of G from B-inverse, IUseBI=4.
 Internal  Forces:  Max     0.025201008 RMS     0.004196663
 Search for a local minimum.
 Step number   1 out of a maximum of  139
 All quantities printed in internal units (Hartrees-Bohrs-Radians)
 RMS Force = .41967D-02 SwitMx=.10000D-02 MixMth= 1
 Mixed Optimization -- RFO/linear search
 Second derivative matrix not updated -- first step.
 ITU=  0
     Eigenvalues ---    0.00242   0.00311   0.00418   0.00764   0.00941
     Eigenvalues ---    0.01697   0.01864   0.02219   0.02270   0.02485
     Eigenvalues ---    0.02530   0.02676   0.03198   0.03436   0.04257
     Eigenvalues ---    0.04757   0.04780   0.05216   0.07706   0.07782
     Eigenvalues ---    0.08628   0.08901   0.09403   0.10005   0.10478
     Eigenvalues ---    0.12369   0.12612   0.12697   0.15860   0.15998
     Eigenvalues ---    0.15999   0.16000   0.16000   0.16000   0.22011
     Eigenvalues ---    0.22011   0.22024   0.22714   0.23346   0.23824
     Eigenvalues ---    0.24034   0.25000   0.25000   0.25000   0.25765
     Eigenvalues ---    0.28551   0.29765   0.34520   0.34581   0.34758
     Eigenvalues ---    0.34838   0.34886   0.34902   0.34978   0.35129
     Eigenvalues ---    0.35174   0.35636   0.35727   0.36519   0.36565
     Eigenvalues ---    0.37377   0.43942   0.47263   0.50742   0.57819
     Eigenvalues ---    0.58616   0.84509   0.85699   0.98420
 RFO step:  Lambda=-4.01382934D-03 EMin= 2.41677378D-03
 Linear search not attempted -- first point.
 Iteration  1 RMS(Cart)=  0.08137507 RMS(Int)=  0.00208981
 Iteration  2 RMS(Cart)=  0.00303699 RMS(Int)=  0.00003372
 Iteration  3 RMS(Cart)=  0.00000827 RMS(Int)=  0.00003330
 Iteration  4 RMS(Cart)=  0.00000000 RMS(Int)=  0.00003330
 ITry= 1 IFail=0 DXMaxC= 4.74D-01 DCOld= 1.00D+10 DXMaxT= 3.00D-01 DXLimC= 3.00D+00 Rises=F
 Variable       Old X    -DE/DX   Delta X   Delta X   Delta X     New X
                                 (Linear)    (Quad)   (Total)
    R1        2.55601   0.00638   0.00000   0.01113   0.01112   2.56713
    R2        2.60469   0.00762   0.00000   0.01512   0.01512   2.61981
    R3        2.03207   0.00006   0.00000   0.00017   0.00017   2.03223
    R4        2.03277  -0.00020   0.00000  -0.00055  -0.00055   2.03222
    R5        2.60519   0.00707   0.00000   0.01406   0.01406   2.61925
    R6        2.50789   0.00807   0.00000   0.01366   0.01367   2.52155
    R7        2.04654   0.00030   0.00000   0.00084   0.00084   2.04738
    R8        2.50701   0.00788   0.00000   0.01336   0.01336   2.52037
    R9        2.75282   0.00316   0.00000   0.00836   0.00836   2.76118
   R10        2.05394   0.00083   0.00000   0.00233   0.00233   2.05627
   R11        2.05860   0.00091   0.00000   0.00257   0.00257   2.06117
   R12        2.05466   0.00105   0.00000   0.00297   0.00297   2.05762
   R13        2.77811   0.00250   0.00000   0.00691   0.00691   2.78503
   R14        2.05938   0.00077   0.00000   0.00219   0.00219   2.06156
   R15        2.05710  -0.00022   0.00000  -0.00063  -0.00063   2.05647
   R16        2.90948   0.00259   0.00000   0.00894   0.00894   2.91842
   R17        2.06461   0.00114   0.00000   0.00328   0.00328   2.06789
   R18        2.06360  -0.00004   0.00000  -0.00012  -0.00012   2.06348
   R19        2.88435   0.00269   0.00000   0.00892   0.00892   2.89327
   R20        2.05834   0.00080   0.00000   0.00226   0.00226   2.06060
   R21        2.06070   0.00065   0.00000   0.00185   0.00185   2.06255
   R22        3.41003   0.01025   0.00000   0.03918   0.03918   3.44921
   R23        2.72978   0.02520   0.00000   0.02550   0.02550   2.75529
   R24        2.78681   0.02363   0.00000   0.02745   0.02745   2.81426
   R25        2.79271   0.02467   0.00000   0.02906   0.02906   2.82177
    A1        1.86389   0.00042   0.00000   0.00093   0.00092   1.86481
    A2        2.28871  -0.00041   0.00000  -0.00164  -0.00164   2.28707
    A3        2.13051  -0.00001   0.00000   0.00078   0.00078   2.13128
    A4        2.28472  -0.00004   0.00000  -0.00008  -0.00008   2.28464
    A5        1.87006  -0.00032   0.00000  -0.00236  -0.00236   1.86770
    A6        2.12837   0.00036   0.00000   0.00241   0.00241   2.13077
    A7        2.21575   0.00200   0.00000   0.00977   0.00977   2.22552
    A8        1.89822  -0.00140   0.00000  -0.00405  -0.00404   1.89418
    A9        2.16375  -0.00060   0.00000  -0.00601  -0.00602   2.15774
   A10        1.89795   0.00026   0.00000   0.00136   0.00136   1.89930
   A11        2.20107  -0.00022   0.00000  -0.00183  -0.00183   2.19924
   A12        2.15521  -0.00008   0.00000  -0.00125  -0.00126   2.15395
   A13        1.90132   0.00050   0.00000   0.00283   0.00283   1.90415
   A14        1.89573   0.00019   0.00000   0.00096   0.00096   1.89669
   A15        1.90465   0.00074   0.00000   0.00490   0.00489   1.90954
   A16        1.91258  -0.00050   0.00000  -0.00389  -0.00389   1.90869
   A17        1.91250  -0.00054   0.00000  -0.00292  -0.00293   1.90958
   A18        1.93664  -0.00036   0.00000  -0.00172  -0.00173   1.93491
   A19        1.89415   0.00103   0.00000   0.00395   0.00391   1.89806
   A20        2.17507   0.00237   0.00000   0.00827   0.00820   2.18326
   A21        2.18870  -0.00348   0.00000  -0.01571  -0.01572   2.17298
   A22        1.85608   0.00049   0.00000   0.01416   0.01404   1.87012
   A23        1.87000  -0.00039   0.00000  -0.01100  -0.01108   1.85892
   A24        1.94860   0.00034   0.00000   0.00190   0.00175   1.95036
   A25        1.90644   0.00002   0.00000  -0.00103  -0.00093   1.90551
   A26        1.93350   0.00060   0.00000   0.01204   0.01195   1.94545
   A27        1.94583  -0.00103   0.00000  -0.01548  -0.01553   1.93030
   A28        1.87740   0.00023   0.00000   0.00025   0.00026   1.87767
   A29        1.89367   0.00107   0.00000   0.00553   0.00551   1.89918
   A30        2.03071  -0.00196   0.00000  -0.00918  -0.00918   2.02154
   A31        1.86757  -0.00037   0.00000  -0.00016  -0.00016   1.86741
   A32        1.88581   0.00100   0.00000   0.00607   0.00607   1.89189
   A33        1.90221   0.00012   0.00000  -0.00190  -0.00190   1.90031
   A34        1.91812   0.00002   0.00000   0.00076   0.00072   1.91885
   A35        1.95335  -0.00099   0.00000  -0.01100  -0.01101   1.94234
   A36        2.00225   0.00012   0.00000   0.00202   0.00202   2.00427
   A37        1.89473  -0.00017   0.00000  -0.00454  -0.00459   1.89014
   A38        1.85395   0.00026   0.00000   0.00641   0.00640   1.86034
   A39        1.83544   0.00082   0.00000   0.00694   0.00695   1.84239
   A40        1.84594   0.00022   0.00000   0.00205   0.00205   1.84799
   A41        1.83082  -0.00027   0.00000  -0.00214  -0.00215   1.82867
   A42        1.80552  -0.00025   0.00000  -0.00100  -0.00101   1.80452
   A43        2.01238   0.00007   0.00000   0.00046   0.00046   2.01284
   A44        2.00193   0.00063   0.00000   0.00530   0.00530   2.00723
   A45        1.94256  -0.00049   0.00000  -0.00507  -0.00508   1.93749
    D1        3.12758   0.00022   0.00000   0.00337   0.00340   3.13098
    D2       -0.00455   0.00024   0.00000   0.00686   0.00686   0.00231
    D3        0.00003  -0.00000   0.00000  -0.00236  -0.00234  -0.00232
    D4       -3.13210   0.00001   0.00000   0.00113   0.00112  -3.13098
    D5        0.02179  -0.00011   0.00000  -0.00210  -0.00212   0.01967
    D6        2.91266  -0.00026   0.00000  -0.00945  -0.00946   2.90320
    D7       -3.13228   0.00008   0.00000   0.00297   0.00297  -3.12931
    D8       -0.24141  -0.00006   0.00000  -0.00438  -0.00437  -0.24578
    D9       -0.01421  -0.00029   0.00000  -0.00930  -0.00932  -0.02353
   D10       -2.92655   0.00060   0.00000   0.00857   0.00869  -2.91786
   D11        3.13581  -0.00027   0.00000  -0.00618  -0.00622   3.12960
   D12        0.22347   0.00062   0.00000   0.01170   0.01179   0.23527
   D13        3.00121  -0.00016   0.00000  -0.00707  -0.00705   2.99416
   D14        0.10231   0.00001   0.00000   0.00016   0.00018   0.10249
   D15       -0.03104  -0.00003   0.00000  -0.00363  -0.00362  -0.03466
   D16       -2.92995   0.00014   0.00000   0.00360   0.00361  -2.92634
   D17        0.02809   0.00020   0.00000   0.00800   0.00801   0.03610
   D18        2.93819   0.00027   0.00000  -0.00607  -0.00597   2.93223
   D19       -3.00816   0.00011   0.00000   0.01010   0.01007  -2.99809
   D20       -0.09806   0.00018   0.00000  -0.00397  -0.00390  -0.10196
   D21        2.75987   0.00012   0.00000   0.00255   0.00254   2.76242
   D22       -1.44100  -0.00008   0.00000   0.00006   0.00005  -1.44095
   D23        0.67242   0.00004   0.00000   0.00151   0.00150   0.67392
   D24       -0.66728  -0.00000   0.00000  -0.00550  -0.00549  -0.67276
   D25        1.41503  -0.00021   0.00000  -0.00798  -0.00798   1.40705
   D26       -2.75473  -0.00009   0.00000  -0.00654  -0.00653  -2.76127
   D27       -0.91741   0.00016   0.00000   0.04202   0.04198  -0.87543
   D28       -2.95461   0.00008   0.00000   0.04154   0.04159  -2.91302
   D29        1.19346   0.00141   0.00000   0.06688   0.06691   1.26037
   D30        2.49171   0.00043   0.00000   0.05959   0.05952   2.55124
   D31        0.45451   0.00036   0.00000   0.05911   0.05913   0.51364
   D32       -1.68060   0.00168   0.00000   0.08445   0.08446  -1.59614
   D33       -2.49623  -0.00097   0.00000  -0.05076  -0.05076  -2.54699
   D34       -0.48163  -0.00074   0.00000  -0.04800  -0.04799  -0.52962
   D35        1.66989  -0.00114   0.00000  -0.05270  -0.05271   1.61718
   D36       -0.43109   0.00026   0.00000  -0.02387  -0.02383  -0.45492
   D37        1.58352   0.00049   0.00000  -0.02111  -0.02107   1.56245
   D38       -2.54815   0.00010   0.00000  -0.02581  -0.02578  -2.57393
   D39        1.69596  -0.00001   0.00000  -0.02747  -0.02751   1.66845
   D40       -2.57262   0.00023   0.00000  -0.02471  -0.02474  -2.59736
   D41       -0.42110  -0.00017   0.00000  -0.02942  -0.02946  -0.45056
   D42       -2.99120  -0.00074   0.00000  -0.03174  -0.03174  -3.02294
   D43        1.18537   0.00011   0.00000  -0.01926  -0.01928   1.16608
   D44       -0.90400  -0.00031   0.00000  -0.02152  -0.02153  -0.92553
   D45        1.17939  -0.00048   0.00000  -0.03054  -0.03053   1.14886
   D46       -0.92723   0.00037   0.00000  -0.01806  -0.01807  -0.94530
   D47       -3.01659  -0.00005   0.00000  -0.02033  -0.02032  -3.03691
   D48       -0.84412  -0.00065   0.00000  -0.03263  -0.03262  -0.87673
   D49       -2.95074   0.00020   0.00000  -0.02015  -0.02016  -2.97089
   D50        1.24308  -0.00022   0.00000  -0.02242  -0.02241   1.22068
   D51       -2.85330  -0.00053   0.00000  -0.06686  -0.06687  -2.92017
   D52       -0.71844  -0.00048   0.00000  -0.06640  -0.06641  -0.78485
   D53        1.31926  -0.00123   0.00000  -0.07331  -0.07331   1.24595
   D54       -0.73071  -0.00024   0.00000  -0.06002  -0.06002  -0.79073
   D55        1.40416  -0.00019   0.00000  -0.05956  -0.05957   1.34459
   D56       -2.84133  -0.00094   0.00000  -0.06647  -0.06647  -2.90780
   D57        1.27608   0.00005   0.00000  -0.05926  -0.05925   1.21683
   D58       -2.87224   0.00011   0.00000  -0.05880  -0.05879  -2.93103
   D59       -0.83455  -0.00065   0.00000  -0.06570  -0.06570  -0.90024
         Item               Value     Threshold  Converged?
 Maximum Force            0.025201     0.000450     NO 
 RMS     Force            0.004197     0.000300     NO 
 Maximum Displacement     0.473860     0.001800     NO 
 RMS     Displacement     0.082517     0.001200     NO 
 Predicted change in Energy=-2.175894D-03
 Lowest energy point so far.  Saving SCF results.
 GradGradGradGradGradGradGradGradGradGradGradGradGradGradGradGradGradGrad

 Leave Link  103 at Wed Apr 20 08:23:14 2022, MaxMem= 13107200000 cpu:               0.7 elap:               0.1
 (Enter /data0/home/wuhanyu/software/g16/l202.exe)
                          Input orientation:                          
 ---------------------------------------------------------------------
 Center     Atomic      Atomic             Coordinates (Angstroms)
 Number     Number       Type             X           Y           Z
 ---------------------------------------------------------------------
      1          6           0       -2.866157    0.303593    0.652385
      2          6           0       -2.156651    1.444586    0.451942
      3          6           0       -1.231724   -0.150289   -0.768426
      4          7           0       -2.279705   -0.677277   -0.132417
      5          1           0       -3.725781    0.105517    1.267465
      6          1           0       -2.281914    2.432234    0.858581
      7          1           0       -0.486431   -0.672000   -1.356791
      8          6           0       -2.521107   -2.114942   -0.033368
      9          1           0       -2.250372   -2.587182   -0.975561
     10          1           0       -1.898583   -2.519318    0.765772
     11          1           0       -3.576138   -2.291524    0.169893
     12          7           0       -1.151316    1.143191   -0.453370
     13          6           0        0.006976    2.004459   -0.750997
     14          1           0       -0.379775    3.003017   -0.959421
     15          1           0        0.466719    1.603835   -1.652324
     16          6           0        1.020727    2.022800    0.413919
     17          1           0        1.463792    3.022691    0.450836
     18          1           0        0.481526    1.877799    1.352313
[...]
 04,0.00072870,-0.00131509,0.00122479,0.00027866,0.00186760,0.00002727,
 -0.00037967,-0.00001266,-0.00011831,-0.09163781,-0.26637662,-0.0152024
 9,0.09372821,0.29028903,-0.00019443,-0.00069539,0.00000890,0.00033669,
 0.00015589,-0.00038054,-0.00044282,0.00060149,-0.00037129,-0.00048327,
 -0.00023510,0.00066992,0.00002525,-0.00002646,0.00002828,-0.00004838,0
 .00007430,-0.00004856,-0.00029371,0.00009720,0.00000240,0.00001303,0.0
 0013873,0.00008678,0.00000085,0.00000159,-0.00000985,-0.00001493,-0.00
 005335,0.00000133,-0.00000415,-0.00002528,0.00000753,-0.00224930,-0.00
 122003,-0.00332118,-0.01151154,-0.02199093,-0.00310839,-0.00018937,-0.
 00027894,0.00195924,-0.00005354,0.00011729,-0.00110540,-0.00482600,-0.
 01418778,-0.04847797,0.01012546,0.01477055,0.05008585,-0.00013724,-0.0
 0013770,0.00009196,-0.00039707,0.00023807,0.00004859,0.00009077,-0.000
 16119,0.00010843,0.00002505,0.00004113,-0.00005779,-0.00006178,0.00003
 033,-0.00007545,-0.00035935,0.00004048,-0.00015728,-0.00002118,0.00005
 490,-0.00003434,0.00000290,-0.00005625,0.00002011,0.00000013,0.0000132
 4,-0.00000018,-0.00000013,0.00000781,0.00000518,0.00000733,0.00000777,
 0.00000385,0.00161516,0.00025913,-0.00140214,0.00826507,0.00255204,-0.
 02063285,-0.00027985,0.00013630,0.00017077,-0.00250836,0.,-0.00269442,
 -0.11326485,-0.02471482,0.11277683,-0.00600070,-0.00204727,0.00935759,
 0.13195468,0.00000795,0.00007203,-0.00000508,-0.00044140,0.00042457,0.
 00012295,-0.00018541,-0.00008512,-0.00042675,0.00020337,-0.00001534,-0
 .00008000,-0.00001629,0.00001619,-0.00001254,0.00023932,-0.00006144,0.
 00007724,-0.00002232,0.00000909,0.00000030,0.00000942,-0.00003165,-0.0
 0003083,-0.00000138,-0.00000543,0.00000492,-0.00004250,-0.00003303,0.0
 0000381,0.00001507,0.00000493,0.00000297,0.00047297,0.00089053,-0.0007
 0963,-0.00046807,-0.00097378,-0.00376191,0.00019429,-0.00003000,0.0000
 8811,-0.00047477,-0.00015639,-0.00119156,-0.02553153,-0.05492580,0.044
 21389,-0.01482544,-0.00515051,0.02611315,0.02482016,0.05689826,-0.0002
 5167,-0.00065070,0.00017528,-0.00024774,-0.00009000,0.00042325,-0.0000
 7408,-0.00047108,-0.00010374,-0.00009268,0.00055692,0.00024239,0.00000
 635,-0.00002332,0.00002268,-0.00023832,0.00026718,-0.00012099,0.000168
 30,0.00005951,-0.00010376,-0.00016489,-0.00013207,-0.00008858,0.000009
 96,0.00002305,0.00000695,0.00002454,0.00006299,-0.00000992,0.00000972,
 -0.00000200,0.00000188,0.00246343,0.00102749,0.00186162,0.01025020,0.0
 0341418,-0.02491948,-0.00069255,-0.00009271,-0.00070459,-0.00325743,0.
 00094891,-0.00215884,0.11066608,0.03922247,-0.23327528,-0.00168897,0.0
 0018185,0.00325973,-0.11819395,-0.04484957,0.25454387,0.00014767,0.000
 15719,-0.00012417,-0.00033332,-0.00005848,0.00030659,0.00036924,-0.000
 96014,0.00029522,0.00000340,0.00000294,-0.00021982,0.00002123,0.000004
 72,0.00001043,-0.00000460,-0.00003402,-0.00000854,0.00016189,-0.000192
 78,-0.00003342,0.00001101,-0.00013071,0.00014615,0.00001978,0.00003790
 ,-0.00000207,0.00030602,0.00021910,-0.00006368,-0.00006978,0.00005923,
 -0.00003922,0.00010970,0.00060969,-0.00024629,-0.01628417,0.01133580,-
 0.00287181,-0.00058890,-0.00022883,-0.00074989,0.00164314,0.00017926,0
 .00136399,-0.14299339,0.05549699,0.00842033,0.00794640,-0.00527252,-0.
 00009881,-0.01643378,0.01301782,0.00155288,0.50204781,-0.00003038,0.00
 010082,-0.00009922,0.00018306,-0.00023104,-0.00018345,-0.00023690,0.00
 095157,0.00023403,0.00019717,-0.00004932,-0.00007391,-0.00000896,-0.00
 001701,-0.00000707,0.00004080,-0.00005762,0.00003221,-0.00015833,0.000
 03598,-0.00000191,0.00010993,-0.00012458,0.00010205,0.00000244,-0.0000
 0367,-0.00000509,-0.00008126,-0.00001631,-0.00005336,-0.00001164,0.000
 02309,-0.00000540,-0.00153366,-0.00093782,-0.00034951,0.00133474,0.002
 27709,0.00644359,-0.00036741,0.00100014,-0.00109631,0.00004344,0.00019
 407,-0.00036891,0.04372619,-0.11549837,-0.00857902,0.02761808,-0.02247
 096,-0.00420380,-0.00276899,0.00313211,-0.00054239,-0.00797391,0.36779
 185,-0.00033551,-0.00059449,0.00023143,0.00048672,-0.00011417,-0.00031
 353,-0.00113227,0.00170885,-0.00127210,-0.00033413,0.00020187,0.000756
 31,-0.00000510,-0.00002659,0.00005512,-0.00019576,0.00014323,-0.000148
 26,0.00193896,-0.00080184,-0.00040908,0.00001073,0.00007442,-0.0001605
 8,0.00002409,0.00000114,0.00001125,-0.00035161,-0.00026612,0.00002282,
 0.00004578,-0.00004297,0.00006874,-0.00040153,-0.00072011,-0.00001701,
 -0.02037215,0.02035096,0.00003546,-0.00383697,0.00024511,-0.00375064,-
 0.00024504,-0.00014755,0.00182702,0.00613949,-0.00706167,-0.08051101,0
 .00243472,-0.00131904,-0.00030714,0.02149362,-0.01919713,-0.00114114,-
 0.00940149,-0.02766705,0.59920184,-0.00006572,-0.00016735,0.00004464,0
 .00015747,-0.00006766,-0.00018628,-0.00004123,0.00050494,-0.00017301,-
 0.00023852,-0.00013833,0.00016537,-0.00001287,-0.00001265,-0.00000640,
 -0.00000586,0.00001657,-0.00003487,-0.00000287,0.00001032,0.00001148,0
 .00000841,0.00008796,0.00000272,-0.00000065,-0.00000540,0.00000129,-0.
 00001698,-0.00004253,0.00000089,-0.00000270,-0.00001298,0.00000419,0.0
 0006010,-0.00033520,0.00008662,-0.00221305,0.00440108,0.00089844,-0.00
 086953,-0.00001719,-0.00093286,0.00011251,-0.00015780,0.00025666,-0.01
 432121,-0.00022232,-0.02102230,0.00069535,0.00009259,0.00008434,0.0005
 3535,-0.00083627,-0.00022041,-0.11225411,-0.00141687,-0.11573870,0.120
 86567,0.00003933,0.00016377,0.00002305,-0.00020891,0.00014484,0.000270
 56,-0.00001894,-0.00059036,0.00004444,0.00014619,0.00022902,-0.0000937
 2,-0.00000531,0.00003161,0.00000575,-0.00001980,0.00000637,0.00003087,
 0.00090715,-0.00029842,-0.00026056,-0.00002569,-0.00004652,-0.00005330
 ,0.00002781,0.00001259,0.00001916,0.00003505,0.00002334,-0.00000785,-0
 .00000989,0.00001631,0.00000540,0.00052726,0.00021890,0.00012148,0.002
 47075,-0.00279818,-0.00104042,0.00070913,-0.00010340,0.00075993,-0.000
 08509,-0.00016805,-0.00031365,0.01172513,0.00045983,0.01835081,-0.0007
 2613,0.00031824,0.00022343,-0.00038593,0.00108919,-0.00025213,-0.00279
 761,-0.04423963,-0.00264020,-0.00219411,0.04954677,-0.00001339,0.00004
 813,0.00002583,-0.00006762,-0.00002166,0.00002323,0.00004248,-0.000059
 93,-0.00005446,-0.00001875,0.00001994,0.00001057,0.00000047,0.00000029
 ,0.00000413,0.00000352,-0.00000378,0.00000398,0.00030722,-0.00007827,-
 0.00006315,0.00000316,0.00002107,-0.00001562,0.00001016,0.00000295,0.0
 0000436,0.00001111,0.00000313,-0.00000298,-0.00000649,0.00000227,0.000
 00362,-0.00011905,0.00010800,0.00009363,0.00120986,-0.00079082,0.00089
 861,0.00008397,-0.00009076,0.00025771,0.00025919,-0.00012976,0.0002419
 5,0.00309934,-0.00033741,0.00326264,-0.00033284,0.00046510,0.00005893,
 -0.00012673,0.00026309,0.00102800,-0.11589460,-0.00118028,-0.25339684,
 0.12518181,0.00293078,0.26968095,0.00009134,0.00012038,-0.00006145,-0.
 00005618,0.00004667,-0.00002608,0.00019669,-0.00009197,0.00018327,-0.0
 0002822,-0.00013431,-0.00011230,0.00000528,0.00000718,-0.00000709,0.00
 007748,-0.00004687,0.00004191,-0.00030658,0.00005948,0.00008013,0.0000
 2711,0.00004394,0.00003340,-0.00000302,-0.00000506,-0.00000319,0.00005
 468,0.00002560,0.00000706,-0.00000890,0.00000414,-0.00000797,0.0001262
 1,-0.00015340,-0.00028124,0.00067545,-0.00029822,0.00143616,0.00015254
 ,-0.00001766,-0.00006529,-0.00051172,-0.00010462,-0.00078928,-0.015528
 13,-0.00565549,0.01762277,0.00114859,-0.00005679,-0.00042624,-0.002830
 96,0.00325146,-0.00003577,-0.15123447,-0.03913877,0.12370949,0.0112930
 5,0.00478700,-0.01158783,0.16250573,0.00012957,-0.00006778,0.00001319,
 -0.00010170,0.00001672,0.00012674,0.00061584,-0.00051159,0.00054698,-0
 .00011444,0.00008929,-0.00014591,0.00000279,0.00000275,-0.00000219,-0.
 00007783,0.00004691,-0.00002109,-0.00015779,0.00004043,0.00003601,-0.0
 0000768,-0.00006760,0.00008337,0.00000988,0.00001570,-0.00000009,0.000
 15685,0.00012804,-0.00003189,-0.00003896,0.00002786,-0.00002683,0.0000
 0031,0.00034837,-0.00017664,-0.00100848,0.00011579,-0.00046938,-0.0000
 7477,-0.00002986,-0.00004406,-0.00024279,0.00018379,0.00037573,0.01548
 095,0.00423007,-0.01776052,-0.00057362,0.00112406,-0.00003159,0.004178
 67,-0.00279393,0.00013430,-0.04183444,-0.06104168,0.05183982,0.0009957
 8,0.00038517,-0.00121413,0.04131447,0.06823150,0.00003674,0.00000460,-
 0.00002326,-0.00006919,0.00001613,0.00000652,0.00003164,-0.00012921,0.
 00005327,0.00001928,0.00004151,-0.00001905,-0.00000078,0.00000493,0.00
 000082,-0.00000038,0.00000588,-0.00000490,0.00005240,-0.00001768,0.000
 00491,-0.00001333,-0.00003348,0.00000316,0.00000131,0.00000339,0.00000
 191,0.00002734,0.00001762,-0.00000258,-0.00000183,0.00000432,-0.000003
 86,-0.00001095,0.00004712,-0.00009463,-0.00023140,-0.00036988,0.001036
 26,0.00010623,0.00000146,0.00010133,0.00030516,0.00000756,0.00009368,-
 0.00052032,-0.00050002,0.00000587,0.00024719,-0.00060512,0.00023940,-0
 .00037987,-0.00026515,0.00128779,0.12394053,0.05059181,-0.19504703,0.0
 1750022,0.00764551,-0.01832598,-0.13547901,-0.05227986,0.20732969,-0.0
 0105031,-0.00192594,-0.00133577,0.00125800,0.00057459,-0.00191672,-0.0
 1867691,0.00718608,-0.00925917,0.00293058,0.00099165,0.00326011,-0.000
 03610,-0.00013062,0.00008670,0.00036958,-0.00000336,-0.00005141,-0.004
 28347,0.00057553,-0.00505059,-0.00109848,-0.00146306,-0.00105197,-0.00
 026960,-0.00008053,-0.00006108,-0.00154185,-0.00091615,0.00054734,0.00
 065395,-0.00022824,0.00017437,-0.00076763,-0.00413305,0.00353663,0.003
 50958,0.00624216,-0.00238849,-0.00062736,-0.00091095,-0.00079680,-0.00
 045831,0.00103247,-0.00065859,0.01252103,0.02180954,0.00456628,-0.0062
 2046,0.00409123,0.00127984,-0.00196088,0.00296197,0.00192152,-0.068284
 95,-0.01574075,-0.00371654,-0.00469781,-0.01327994,-0.00286508,-0.0071
 2330,-0.01814258,-0.00266079,0.87156368,-0.00137609,-0.00053604,0.0002
 7719,0.00117368,-0.00074552,-0.00213041,-0.00124023,0.00654022,-0.0028
 7448,-0.00036557,-0.00189969,0.00173394,-0.00003272,-0.00014711,-0.000
 02326,0.00037788,-0.00011390,0.00001282,-0.00024678,0.00128685,-0.0000
 7595,-0.00013346,0.00108973,-0.00008943,-0.00031239,-0.00005752,-0.000
 23241,-0.00047717,-0.00020561,0.00036373,0.00011683,-0.00029048,0.0000
 2081,0.00063950,-0.00449037,0.00262539,0.00400756,0.00165077,0.0004065
 1,-0.00164517,0.00011482,-0.00098143,0.00066159,-0.00045537,0.00093374
 ,0.00855960,-0.02170693,-0.00181739,-0.00134687,0.00284436,-0.00020519
 ,-0.00215544,0.00168173,0.00124202,-0.01942311,-0.12511786,-0.01158431
 ,-0.00019404,0.00223766,0.00235664,-0.00274660,-0.00498953,-0.00270329
 ,-0.13306125,0.56200007,0.00320655,-0.00000508,-0.00147558,0.00059455,
 -0.00102699,0.00000110,0.01625882,-0.00516340,0.01274759,-0.00379484,-
 0.00411275,-0.00546657,0.00013007,-0.00025561,-0.00043441,0.00028597,-
 0.00010940,-0.00006135,-0.02824964,0.00492264,0.00198733,0.00044392,0.
 00028421,0.00174370,-0.00040111,-0.00013707,-0.00023894,0.00191838,0.0
 0132224,0.00004968,-0.00020608,0.00018260,-0.00048425,-0.00271910,0.00
 535892,-0.00555846,-0.00174359,-0.00101521,0.00565535,0.00096683,-0.00
 103638,-0.00213973,-0.00251072,0.00535875,-0.00262294,0.00268665,0.001
 40146,0.00048133,-0.00064535,0.00167545,-0.00015838,0.00084898,-0.0028
 7378,-0.00174917,-0.00632466,-0.01222460,-0.05992621,-0.00835870,-0.02
 587603,-0.00703652,0.00818789,0.02331411,0.00107905,0.02831805,-0.0657
 3275,0.73698452,0.00025316,0.00020814,0.00041521,-0.00000571,-0.000333
 50,0.00032261,0.00317003,-0.00154782,0.00347508,-0.00152149,-0.0001519
 7,-0.00099808,-0.00000565,0.00005138,-0.00001942,-0.00003781,-0.000013
 42,-0.00000157,0.00183067,0.00013584,-0.00053737,0.00047226,0.00093819
 ,0.00026378,0.00004745,0.00001320,-0.00002832,0.00037929,0.00031759,-0
 .00002696,-0.00019017,0.00001575,-0.00002647,-0.00063298,0.00104442,-0
 .00138889,-0.00029130,-0.00108781,0.00037415,-0.00001118,0.00026468,0.
 00029262,0.00008490,-0.00054404,0.00026292,0.00191654,0.00107481,0.000
 11991,-0.00050814,0.00065627,-0.00020244,0.00035968,-0.00067163,-0.000
 38321,0.00029602,-0.00370686,-0.00352669,0.00031947,0.00155586,0.00194
 525,0.00082625,0.00301739,-0.00047771,-0.37063567,0.19631553,-0.084024
 55,0.39250088,0.00037530,0.00001494,-0.00029067,-0.00032154,0.00028823
 ,0.00045821,0.00008301,-0.00122656,-0.00042987,0.00066226,0.00052313,-
 0.00012207,0.00001668,0.00000129,0.00000321,-0.00012831,0.00004185,-0.
 00000515,-0.00104049,-0.00031291,0.00044026,-0.00016097,-0.00078403,-0
 .00001171,0.00007455,0.00001494,0.00006660,0.00011569,-0.00000964,-0.0
 0009209,0.00003361,0.00008458,-0.00001166,0.00061858,0.00111651,-0.000
 07290,-0.00142224,-0.00061110,-0.00044495,0.00041609,0.00005674,0.0002
 7176,0.00001633,0.00023049,0.00000463,-0.00657479,-0.00667625,-0.00050
 133,0.00282331,-0.00217669,-0.00023870,0.00043930,-0.00001462,-0.00021
 989,0.02849326,-0.00952745,0.00604964,0.00114370,0.00101152,0.00020588
 ,0.00015253,-0.00057811,0.00049171,0.19981017,-0.22726886,0.05586649,-
 0.22992159,0.21228733,-0.00062380,0.00000276,0.00027148,-0.00011687,0.
 00013575,-0.00005161,-0.00281453,0.00049866,-0.00166886,0.00042431,0.0
 0074818,0.00095252,-0.00002951,0.00005758,0.00007369,-0.00003714,0.000
 01434,0.00000881,0.00481497,-0.00028244,-0.00092305,-0.00006078,0.0000
 5292,-0.00024534,0.00009096,0.00003027,0.00004277,-0.00024802,-0.00018
 203,-0.00006506,-0.00001085,-0.00002056,0.00006380,0.00041938,-0.00103
 364,0.00093997,0.00052728,0.00007237,-0.00096394,-0.00013999,0.0001738
 8,0.00041921,0.00032429,-0.00087117,0.00039793,0.00032452,-0.00000166,
 0.00111993,-0.00007671,0.00000177,-0.00002892,-0.00017294,0.00039346,0
 .00022767,-0.00107770,-0.00323595,0.00682961,0.00137159,0.00269216,0.0
 0158193,-0.00060698,-0.00233155,0.00002851,-0.08317114,0.05451878,-0.1
 0317600,0.09407492,-0.06597588,0.09060987,0.00256453,0.00142152,0.0007
 6249,-0.00134631,-0.00079251,0.00293654,0.00831979,-0.00568075,0.00736
 933,-0.00670635,-0.00148913,-0.00667621,0.00001861,0.00009426,-0.00020
 826,-0.00021986,0.00000217,-0.00007864,-0.00708694,0.00185685,-0.00063
 596,0.00077511,0.00200106,0.00094117,0.00002829,-0.00002904,-0.0000543
 8,0.00158703,0.00135556,-0.00031830,-0.00055590,0.00023389,-0.00032746
 ,-0.00167233,0.00646777,-0.00743872,-0.00374527,-0.00411318,0.00219609
 ,0.00095989,0.00023432,0.00012639,-0.00027341,0.00079100,-0.00040596,-
 0.00267840,-0.00056444,0.00049209,0.00203987,-0.00071061,-0.00042507,0
 .00096608,-0.00123471,-0.00136911,-0.00897822,0.00107161,0.01654041,0.
 00008909,0.00016192,-0.00003940,-0.00074363,-0.00595311,-0.00207766,-0
 .29760570,-0.04486139,0.14286157,-0.02565018,-0.00188197,0.02272930,0.
 32684238,0.00064474,-0.00066822,-0.00121734,-0.00119158,0.00111192,0.0
 0142224,0.00105792,-0.00463127,0.00069254,0.00007892,0.00121705,0.0004
 3944,0.00003046,0.00004119,0.00005343,-0.00008359,0.00006622,-0.000034
 53,0.00013868,-0.00048622,0.00036569,-0.00039595,-0.00138358,0.0005367
 9,0.00024746,0.00014597,0.00017901,0.00116265,0.00073058,-0.00063739,-
 0.00032626,0.00041120,-0.00022893,0.00293870,-0.00042666,0.00203932,-0
 .00057692,0.00030165,-0.00093251,0.00028724,0.00004557,0.00017425,0.00
 011558,-0.00005372,0.00000618,-0.00131006,0.00172617,-0.00027131,-0.00
 020019,-0.00035368,0.00095201,-0.00060885,0.00049695,0.00072488,-0.021
 10161,0.00014231,0.01615478,-0.00031212,-0.00072685,-0.00007473,-0.002
 81608,-0.00701834,-0.00134502,-0.05073417,-0.10067996,0.03374285,0.020
 86036,0.01780534,-0.00747810,0.05189678,0.07380214,-0.00116086,0.00192
 583,0.00173941,-0.00129540,-0.00006949,0.00130075,-0.00194913,0.001401
 37,-0.00550432,0.00013948,-0.00041918,-0.00027263,-0.00021828,0.000110
 87,-0.00007939,-0.00018032,0.00007499,-0.00008185,0.00388753,-0.000247
 41,-0.00196486,0.00030471,0.00068051,-0.00062029,0.00024133,-0.0000753
 7,0.00024571,-0.00093009,-0.00105824,-0.00044174,0.00006240,-0.0000992
 4,0.00018813,-0.00010313,-0.00004500,-0.00123873,-0.00043500,-0.000273
 54,-0.00077285,-0.00022453,0.00018849,0.00029707,0.00057210,-0.0010630
 4,0.00051198,0.00099596,-0.00131021,-0.00105458,-0.00054027,-0.0000827
 3,0.00050795,-0.00117217,0.00154985,0.00083619,0.00465593,-0.00229476,
 0.00350892,0.00160419,0.00293459,0.00083015,-0.00016513,-0.00010762,0.
 00167184,0.15465286,0.03117881,-0.19112770,-0.00485408,0.00374482,0.01
 260788,-0.18288741,-0.04650657,0.20849653,-0.00114368,0.00068971,0.001
 79242,-0.00132579,0.00071458,0.00182005,-0.01748237,-0.00145097,-0.001
 16975,-0.00116779,0.00361546,0.00193863,0.00001437,0.00036830,0.000401
 87,-0.00027844,0.00002839,0.00017249,0.00390167,-0.00120544,0.00071001
 ,0.00029498,0.00122303,-0.00043453,0.00022101,0.00009747,0.00004670,-0
 .00008023,-0.00012489,-0.00009141,-0.00018071,-0.00008468,0.00015361,0
 .00072726,0.00008804,0.00047129,-0.00186874,-0.00051297,-0.00066098,0.
 00009339,0.00052928,0.00083876,-0.00055791,-0.00000441,0.00090163,-0.0
 0284354,-0.00178823,-0.00160148,0.00137285,-0.00083628,0.00024092,0.00
 043394,-0.00044206,-0.00016218,0.00437638,-0.00115278,-0.01323051,0.00
 060663,-0.00333523,-0.00108576,0.00119473,0.00242567,-0.00034482,-0.10
 746760,-0.00223386,-0.06772989,-0.00296632,0.00617754,-0.03591457,0.01
 307184,0.00019789,0.02899930,0.11105403,0.00063542,0.00041196,-0.00033
 497,-0.00059859,0.00076183,0.00097370,0.00078421,0.00070209,0.00133345
 ,0.00115714,0.00060286,-0.00074594,0.00001266,0.00006361,-0.00001013,-
 0.00015242,0.00003630,0.00008577,0.00379429,-0.00378209,-0.00096144,-0
 .00009967,-0.00083596,-0.00010545,0.00025434,0.00005501,0.00015757,0.0
 0024549,0.00018366,-0.00022543,-0.00007766,0.00018224,0.00001786,-0.00
 095798,0.00109286,-0.00033243,-0.00058282,-0.00407417,0.00282775,0.001
 15985,-0.00054874,-0.00132604,-0.00014307,-0.00007211,-0.00229867,-0.0
 0039262,0.00203448,0.00056884,0.00029418,-0.00001598,0.00014689,0.0002
 1709,-0.00043855,-0.00053989,-0.00960574,0.00368431,-0.02458659,-0.001
 12012,-0.00692371,-0.00244575,0.00145298,0.00211198,-0.00063482,-0.004
 52479,-0.09074146,-0.01386069,0.01150926,0.01570933,0.02202010,-0.0002
 7789,0.01838425,0.00986224,-0.00298354,0.06141600,-0.00124934,0.000066
 46,0.00080311,-0.00037191,0.00056413,0.00047137,-0.00641193,0.00112589
 ,-0.00186236,0.00065626,0.00203654,0.00191293,-0.00016328,0.00020594,0
 .00010955,-0.00023728,0.00009005,-0.00000273,0.01310239,-0.00258058,-0
 .00640045,-0.00024681,0.00015272,-0.00082493,0.00023303,0.00008723,0.0
 0011639,-0.00064123,-0.00052938,-0.00006416,0.00004180,-0.00006757,0.0
 0020749,0.00064215,-0.00076437,0.00176531,-0.00009711,0.00131615,-0.00
 265784,-0.00017034,0.00046580,0.00117032,0.00113477,-0.00300468,0.0006
 1603,-0.00341936,-0.00126923,-0.00120245,0.00123294,-0.00113731,0.0004
 0137,0.00017420,0.00057021,0.00045819,-0.00353587,0.00476830,-0.016147
 94,-0.00054092,-0.00552006,0.00088533,-0.00164725,-0.00182689,0.000577
 26,-0.08335958,-0.00722008,-0.37907343,-0.00505068,0.00081364,-0.00905
 278,0.00598714,0.00124302,-0.02958356,0.08393821,0.01041406,0.43737796
 \\0.00000493,0.00000480,-0.00000373,-0.00000253,-0.00000775,0.00001254
 ,0.00000846,0.00001781,-0.00000044,-0.00000259,-0.00000040,-0.00000974
 ,-0.00000177,-0.00000019,-0.00000179,0.00000077,0.00000061,-0.00000075
 ,-0.00000966,0.00000004,0.00000714,0.00000451,-0.00000471,0.00000625,-
 0.00000024,0.00000159,0.00000097,0.00000023,0.00000163,0.00000087,0.00
 000002,0.00000038,-0.00000097,0.00000013,-0.00001810,-0.00001129,-0.00
 000497,0.00000926,0.00000036,0.,-0.00000103,-0.00000190,0.00000009,-0.
 00000312,0.00000253,0.00000107,-0.00000384,-0.00000658,0.00000014,0.00
 000145,0.00000309,0.00000354,0.00000181,0.00000106,-0.00000367,0.00000
 324,0.00000211,-0.00000189,-0.00000409,-0.00000057,-0.00000070,-0.0000
 0324,0.00000183,-0.00000187,0.00001818,-0.00005002,0.00002107,-0.00001
 276,0.00000845,-0.00001827,-0.00000182,0.00001401,0.00000323,0.0000002
 3,0.00002655\\\@


 ON A CLEAR DISK YOU CAN SEEK FOREVER.
 Job cpu time:       0 days  1 hours  7 minutes  4.7 seconds.
 Elapsed time:       0 days  0 hours  3 minutes  4.0 seconds.
 File lengths (MBytes):  RWF=    265 Int=      0 D2E=      0 Chk=      9 Scr=      1
 Normal termination of Gaussian 16 at Wed Apr 20 08:31:53 2022.
