 Entering Gaussian System, Link 0=g16
 Initial command:
 /data0/home/software/g16/l1.exe "/data0/home/software/g16/scratch/Gau-3366225.inp" -scrdir="/data0/home/software/g16/scratch/"
 Default is to use a total of  22 processors:
                               22 via shared-memory
                                1 via Linda
 Entering Link 1 = /data0/home/software/g16/l1.exe PID=   3366226.
  
 Copyright (c) 1988,1990,1992,1993,1995,1998,2003,2009,2016,
            Gaussian, Inc.  All Rights Reserved.
  
 This is part of the Gaussian(R) 16 program.  It is based on
 the Gaussian(R) 09 system (copyright 2009, Gaussian, Inc.),
 the Gaussian(R) 03 system (copyright 2003, Gaussian, Inc.),
 the Gaussian(R) 98 system (copyright 1998, Gaussian, Inc.),
 the Gaussian(R) 94 system (copyright 1995, Gaussian, Inc.),
 the Gaussian 92(TM) system (copyright 1992, Gaussian, Inc.),
 the Gaussian 90(TM) system (copyright 1990, Gaussian, Inc.),
 the Gaussian 88(TM) system (copyright 1988, Gaussian, Inc.),
 the Gaussian 86(TM) system (copyright 1986, Carnegie Mellon
 University), and the Gaussian 82(TM) system (copyright 1983,
 Carnegie Mellon University). Gaussian is a federally registered
 trademark of Gaussian, Inc.
  
 This software contains proprietary and confidential information,
 including trade secrets, belonging to Gaussian, Inc.
  
 This software is provided under written license and may be
 used, copied, transmitted, or stored only in accord with that
 written license.
  
 The following legend is applicable only to US Government
 contracts under FAR:
  
                    RESTRICTED RIGHTS LEGEND
  
 Use, reproduction and disclosure by the US Government is
 subject to restrictions as set forth in subparagraphs (a)
 and (c) of the Commercial Computer Software - Restricted
 Rights clause in FAR 52.227-19.
  
 Gaussian, Inc.
 340 Quinnipiac St., Bldg. 40, Wallingford CT 06492
  
  
 ---------------------------------------------------------------
 Warning -- This program may not be used in any manner that
 competes with the business of Gaussian, Inc. or will provide
 assistance to any competitor of Gaussian, Inc.  The licensee
 of this program is prohibited from giving any competitor of
 Gaussian, Inc. access to this program.  By using this program,
 the user acknowledges that Gaussian, Inc. is engaged in the
 business of creating and licensing software in the field of
 computational chemistry and represents and warrants to the
 licensee that it is not a competitor of Gaussian, Inc. and that
 it will not use this program in any manner prohibited above.
 ---------------------------------------------------------------
  

 Cite this work as:
 Gaussian 16, Revision A.03,
 M. J. Frisch, G. W. Trucks, H. B. Schlegel, G. E. Scuseria, 
 M. A. Robb, J. R. Cheeseman, G. Scalmani, V. Barone, 
 G. A. Petersson, H. Nakatsuji, X. Li, M. Caricato, A. V. Marenich, 
 J. Bloino, B. G. Janesko, R. Gomperts, B. Mennucci, H. P. Hratchian, 
 J. V. Ortiz, A. F. Izmaylov, J. L. Sonnenberg, D. Williams-Young, 
 F. Ding, F. Lipparini, F. Egidi, J. Goings, B. Peng, A. Petrone, 
 T. Henderson, D. Ranasinghe, V. G. Zakrzewski, J. Gao, N. Rega, 
 G. Zheng, W. Liang, M. Hada, M. Ehara, K. Toyota, R. Fukuda, 
 J. Hasegawa, M. Ishida, T. Nakajima, Y. Honda, O. Kitao, H. Nakai, 
 T. Vreven, K. Throssell, J. A. Montgomery, Jr., J. E. Peralta, 
 F. Ogliaro, M. J. Bearpark, J. J. Heyd, E. N. Brothers, K. N. Kudin, 
 V. N. Staroverov, T. A. Keith, R. Kobayashi, J. Normand, 
 K. Raghavachari, A. P. Rendell, J. C. Burant, S. S. Iyengar, 
 J. Tomasi, M. Cossi, J. M. Millam, M. Klene, C. Adamo, R. Cammi, 
 J. W. Ochterski, R. L. Martin, K. Morokuma, O. Farkas, 
 J. B. Foresman, and D. J. Fox, Gaussian, Inc., Wallingford CT, 2016.
 
 ******************************************
 Gaussian 16:  ES64L-G16RevA.03 25-Dec-2016
                15-Dec-2022 
 ******************************************
 %nproc=16
 Will use up to   16 processors via shared memory.
 %mem=10GB
 ---------------------------------------------------
 #p M062X/6-311+G(2d,p) nosymm em=GD3 counterpoise=4
 ---------------------------------------------------
 1/38=1,62=4,172=1/1;
 2/12=2,15=1,17=6,18=5,40=1/2;
 1/38=1,53=2,62=4,63=1/22;
 3/5=4,6=6,7=112,11=2,25=1,30=1,74=-55,124=31/1,2,3;
 4//1;
 5/5=2,38=5/2;
 6/7=2,8=2,9=2,10=2,28=1/1;
 1/53=2,62=4,63=1/22;
 3/5=7,6=11,7=112,11=2,25=1,30=1,74=-55,82=7,124=31/1,2,3;
 4//1;
 5/5=2,38=5/2;
 6/7=2,8=2,9=2,10=2,28=1/1;
 1/53=2,62=4,63=1/22(-4);
 99/5=1,9=1/99;
 Leave Link    1 at Thu Dec 15 14:38:29 2022, MaxMem=  1342177280 cpu:               0.5 elap:               0.0
 (Enter /data0/home/software/g16/l101.exe)
 -------------------
 Title Card Required
 -------------------
 Symbolic Z-matrix:
 Charge =  0 Multiplicity = 1 in supermolecule
 Charge =  0 Multiplicity = 1 in fragment      1.
 Charge =  0 Multiplicity = 1 in fragment      2.
 Charge =  0 Multiplicity = 1 in fragment      3.
 Charge =  0 Multiplicity = 1 in fragment      4.
 C                     8.7414    10.13732   10.75097    
 C                     8.60903   8.74694   10.7983    
 C                     10.39354   9.17514   9.58448    
 N                     9.86578   10.39756   9.97135    
 H                     10.30519   11.31001   9.83292    
 H                     8.14327   10.91239   11.17911    
 H                     7.86668   8.14518   11.28329    
 H                     11.29007   9.06713   8.99469    
 N                     9.63754   8.16764   10.07163    
 P                     12.14062   9.05279   12.7047    
 O                     12.62407   9.34107   11.35293    
 O                     11.69364   7.58293   13.06515    
 H                     11.53813   7.00932   12.18486    
 O                     13.22946   9.42344   13.79795    
 H                     12.84156   9.17533   14.72491    
 O                     10.90714   9.95821   13.17579    
 H                     10.03991   9.56768   12.79584    
 O                     11.17167   6.08944   10.8282    
 H                     10.33812   6.52878   10.50738    
 H                     11.82624   6.34333   10.17646    
 O                     11.9724   11.9307   10.10707    
 H                     12.12697   12.57315   10.79973    
 H                     12.34758   11.10451   10.46229    
 
 ITRead=  0  0  0  0  0  0  0  0  0  0  0  0  0  0  0  0  0  0  0  0
 ITRead=  0  0  0
 MicOpt= -1 -1 -1 -1 -1 -1 -1 -1 -1 -1 -1 -1 -1 -1 -1 -1 -1 -1 -1 -1
 MicOpt= -1 -1 -1
 NAtoms=     23 NQM=       23 NQMF=       0 NMMI=      0 NMMIF=      0
                NMic=       0 NMicF=      0.
                    Isotopes and Nuclear Properties:
 (Nuclear quadrupole moments (NQMom) in fm**2, nuclear magnetic moments (NMagM)
  in nuclear magnetons)

  Atom         1           2           3           4           5           6           7           8           9          10
 IAtWgt=          12          12          12          14           1           1           1           1          14          31
 AtmWgt=  12.0000000  12.0000000  12.0000000  14.0030740   1.0078250   1.0078250   1.0078250   1.0078250  14.0030740  30.9737634
 NucSpn=           0           0           0           2           1           1           1           1           2           1
 AtZEff=  -0.0000000  -0.0000000  -0.0000000  -0.0000000  -0.0000000  -0.0000000  -0.0000000  -0.0000000  -0.0000000  -0.0000000
 NQMom=    0.0000000   0.0000000   0.0000000   2.0440000   0.0000000   0.0000000   0.0000000   0.0000000   2.0440000   0.0000000
 NMagM=    0.0000000   0.0000000   0.0000000   0.4037610   2.7928460   2.7928460   2.7928460   2.7928460   0.4037610   1.1316000
 AtZNuc=   6.0000000   6.0000000   6.0000000   7.0000000   1.0000000   1.0000000   1.0000000   1.0000000   7.0000000  15.0000000

  Atom        11          12          13          14          15          16          17          18          19          20
 IAtWgt=          16          16           1          16           1          16           1          16           1           1
 AtmWgt=  15.9949146  15.9949146   1.0078250  15.9949146   1.0078250  15.9949146   1.0078250  15.9949146   1.0078250   1.0078250
 NucSpn=           0           0           1           0           1           0           1           0           1           1
 AtZEff=  -0.0000000  -0.0000000  -0.0000000  -0.0000000  -0.0000000  -0.0000000  -0.0000000  -0.0000000  -0.0000000  -0.0000000
 NQMom=    0.0000000   0.0000000   0.0000000   0.0000000   0.0000000   0.0000000   0.0000000   0.0000000   0.0000000   0.0000000
 NMagM=    0.0000000   0.0000000   2.7928460   0.0000000   2.7928460   0.0000000   2.7928460   0.0000000   2.7928460   2.7928460
 AtZNuc=   8.0000000   8.0000000   1.0000000   8.0000000   1.0000000   8.0000000   1.0000000   8.0000000   1.0000000   1.0000000

  Atom        21          22          23
 IAtWgt=          16           1           1
 AtmWgt=  15.9949146   1.0078250   1.0078250
 NucSpn=           0           1           1
 AtZEff=  -0.0000000  -0.0000000  -0.0000000
 NQMom=    0.0000000   0.0000000   0.0000000
 NMagM=    0.0000000   2.7928460   2.7928460
 AtZNuc=   8.0000000   1.0000000   1.0000000
 Leave Link  101 at Thu Dec 15 14:38:29 2022, MaxMem=  1342177280 cpu:               1.4 elap:               0.1
 (Enter /data0/home/software/g16/l202.exe)
                          Input orientation:                          
 ---------------------------------------------------------------------
 Center     Atomic      Atomic             Coordinates (Angstroms)
 Number     Number       Type             X           Y           Z
 ---------------------------------------------------------------------
      1          6           0        8.741396   10.137319   10.750970
      2          6           0        8.609032    8.746942   10.798303
      3          6           0       10.393544    9.175138    9.584481
      4          7           0        9.865780   10.397563    9.971354
      5          1           0       10.305194   11.310013    9.832920
      6          1           0        8.143271   10.912390   11.179106
      7          1           0        7.866675    8.145185   11.283292
      8          1           0       11.290068    9.067134    8.994688
      9          7           0        9.637543    8.167640   10.071630
     10         15           0       12.140624    9.052795   12.704697
     11          8           0       12.624072    9.341066   11.352927
     12          8           0       11.693636    7.582930   13.065154
     13          1           0       11.538127    7.009323   12.184862
     14          8           0       13.229465    9.423439   13.797949
     15          1           0       12.841557    9.175329   14.724911
     16          8           0       10.907135    9.958209   13.175792
     17          1           0       10.039913    9.567680   12.795840
     18          8           0       11.171674    6.089443   10.828202
     19          1           0       10.338122    6.528784   10.507382
     20          1           0       11.826239    6.343333   10.176461
     21          8           0       11.972402   11.930695   10.107068
     22          1           0       12.126966   12.573149   10.799733
     23          1           0       12.347576   11.104515   10.462291
 ---------------------------------------------------------------------
                    Distance matrix (angstroms):
                    1          2          3          4          5
     1  C    0.000000
     2  C    1.397465   0.000000
     3  C    2.239661   2.200272   0.000000
     4  N    1.392755   2.233341   1.386553   0.000000
     5  H    2.159512   3.221531   2.151097   1.022161   0.000000
     6  H    1.068545   2.247467   3.259540   2.165814   2.577641
     7  H    2.239889   1.071643   3.214316   3.284937   4.250422
     8  H    3.274989   3.247076   1.078553   2.180026   2.589038
     9  N    2.268087   1.386174   1.350520   2.243815   3.221374
    10  P    4.067922   4.024926   3.578129   3.801905   4.087902
    11  O    4.008933   4.096479   2.851349   3.260844   3.400642
    12  O    4.538290   4.001040   4.042332   4.564517   5.125062
    13  H    4.434198   3.677154   3.572507   4.379102   5.054472
    14  O    5.471423   5.550128   5.085019   5.187111   5.275602
    15  H    5.790419   5.789303   5.693574   5.739809   5.909449
    16  O    3.256112   3.521491   3.711400   3.397922   3.655749
    17  H    2.488399   2.590596   3.254531   2.949025   3.447462
    18  O    4.722025   3.691928   3.416700   4.582515   5.384768
    19  H    3.953529   2.827475   2.803214   3.934194   4.828678
    20  H    4.923479   4.063797   3.228339   4.508021   5.205719
    21  O    3.751027   4.682558   3.218538   2.608978   1.799996
    22  H    4.171059   5.197665   4.003507   3.245358   2.418490
    23  H    3.744775   4.432580   2.882930   2.626806   2.147012
                    6          7          8          9         10
     6  H    0.000000
     7  H    2.782945   0.000000
     8  H    4.251939   4.219872   0.000000
     9  N    3.315570   2.145834   2.167887   0.000000
    10  P    4.665228   4.594648   3.806287   3.739245   0.000000
    11  O    4.751510   4.905895   2.723214   3.455142   1.464276
    12  O    5.219921   4.258731   4.351370   3.678395   1.578046
    13  H    5.269775   3.947477   3.804383   3.069148   2.192945
    14  O    5.911403   6.059451   5.192257   5.325823   1.586868
    15  H    6.137101   6.136399   5.937531   5.738830   2.141865
    16  O    3.540644   4.014101   4.292119   3.801818   1.601000
    17  H    2.831841   3.005704   4.032641   3.089229   2.164810
    18  O    5.705714   3.918699   3.498919   2.691628   3.638894
    19  H    4.948190   3.053332   3.104459   1.834813   3.801031
    20  H    5.953640   4.488863   3.017144   2.851224   3.719140
    21  O    4.104687   5.707064   3.146895   4.428702   3.880500
    22  H    4.332652   6.163666   4.031219   5.112325   4.002745
    23  H    4.269299   5.432325   2.724537   4.015237   3.046435
                   11         12         13         14         15
    11  O    0.000000
    12  O    2.624590   0.000000
    13  H    2.703409   1.062131   0.000000
    14  O    2.520202   2.506638   3.360153   0.000000
    15  H    3.383053   2.570652   3.583624   1.035031   0.000000
    16  O    2.579065   2.504551   3.174275   2.462981   2.598973
    17  H    2.968372   2.597415   3.027066   3.346382   3.424100
    18  O    3.599701   2.739873   1.679581   4.916241   5.243619
    19  H    3.721484   3.080721   2.117751   5.250402   5.573055
    20  H    3.317682   3.146225   2.135469   4.956942   5.453391
    21  O    2.946696   5.266027   5.359639   4.635638   5.447196
    22  H    3.316549   5.497471   5.763807   4.486143   5.240500
    23  H    1.994852   4.427651   4.515867   3.838015   4.704860
                   16         17         18         19         20
    16  O    0.000000
    17  H    1.024183   0.000000
    18  O    4.533046   4.153386   0.000000
    19  H    4.382367   3.815869   0.995367   0.000000
    20  H    4.786237   4.522004   0.957957   1.535706   0.000000
    21  O    3.800337   4.067905   5.939817   5.657894   5.589704
    22  H    3.737854   4.168102   6.553765   6.310292   6.268135
    23  H    3.279020   3.623896   5.164067   4.997725   4.798161
                   21         22         23
    21  O    0.000000
    22  H    0.957299   0.000000
    23  H    0.974429   1.522965   0.000000
 Symmetry turned off by external request.
 Stoichiometry    C3H11N2O6P
 Framework group  C1[X(C3H11N2O6P)]
 Deg. of freedom    63
 Full point group                 C1      NOp   1
 Rotational constants (GHZ):           0.8659304           0.6474862           0.4851680
 Leave Link  202 at Thu Dec 15 14:38:29 2022, MaxMem=  1342177280 cpu:               0.0 elap:               0.0
 (Enter /data0/home/software/g16/l122.exe)
 Counterpoise: doing full-system calculation.
 Leave Link  122 at Thu Dec 15 14:38:29 2022, MaxMem=  1342177280 cpu:               0.0 elap:               0.0
 (Enter /data0/home/software/g16/l301.exe)
 Standard basis: 6-311+G(2d,p) (5D, 7F)
 Ernie: Thresh=  0.10000D-02 Tol=  0.10000D-05 Strict=F.
   398 basis functions,   606 primitive gaussians,   422 cartesian basis functions
    53 alpha electrons       53 beta electrons
       nuclear repulsion energy       954.5532635917 Hartrees.
 IExCor= 4336 DFT=T Ex+Corr=M062X ExCW=0 ScaHFX=  0.540000
 ScaDFX=  1.000000  1.000000  1.000000  1.000000 ScalE2=  1.000000  1.000000
 IRadAn=      5 IRanWt=     -1 IRanGd=            0 ICorTp=0 IEmpDi=131
 NAtoms=   23 NActive=   23 NUniq=   23 SFac= 1.00D+00 NAtFMM=   60 NAOKFM=F Big=F
 Integral buffers will be    131072 words long.
 Raffenetti 2 integral format.
 Two-electron integral symmetry is turned off.
 R6Disp:  Grimme-D3 Dispersion energy=       -0.0011199667 Hartrees.
 Nuclear repulsion after empirical dispersion term =      954.5521436251 Hartrees.
 Leave Link  301 at Thu Dec 15 14:38:29 2022, MaxMem=  1342177280 cpu:               0.8 elap:               0.1
 (Enter /data0/home/software/g16/l302.exe)
 NPDir=0 NMtPBC=     1 NCelOv=     1 NCel=       1 NClECP=     1 NCelD=      1
         NCelK=      1 NCelE2=     1 NClLst=     1 CellRange=     0.0.
 One-electron integrals computed using PRISM.
 NBasis=   398 RedAO= T EigKep=  3.04D-05  NBF=   398
 NBsUse=   398 1.00D-06 EigRej= -1.00D+00 NBFU=   398
 Precomputing XC quadrature grid using
 IXCGrd= 4 IRadAn=           5 IRanWt=          -1 IRanGd=           0 AccXCQ= 0.00D+00.
 Generated NRdTot=       0 NPtTot=           0 NUsed=           0 NTot=          32
 NSgBfM=   422   422   422   422   422 MxSgAt=    23 MxSgA2=    23.
 Leave Link  302 at Thu Dec 15 14:38:29 2022, MaxMem=  1342177280 cpu:               4.4 elap:               0.3
 (Enter /data0/home/software/g16/l303.exe)
 DipDrv:  MaxL=1.
 Leave Link  303 at Thu Dec 15 14:38:29 2022, MaxMem=  1342177280 cpu:               0.6 elap:               0.1
 (Enter /data0/home/software/g16/l401.exe)
 ExpMin= 3.48D-02 ExpMax= 7.75D+04 ExpMxC= 2.65D+03 IAcc=3 IRadAn=         5 AccDes= 0.00D+00
 Harris functional with IExCor= 1009 and IRadAn=       5 diagonalized for initial guess.
 HarFok:  IExCor= 1009 AccDes= 0.00D+00 IRadAn=         5 IDoV= 1 UseB2=F ITyADJ=14
 ICtDFT=  3500011 ScaDFX=  1.000000  1.000000  1.000000  1.000000
 FoFCou: FMM=F IPFlag=           0 FMFlag=      100000 FMFlg1=           0
         NFxFlg=           0 DoJE=T BraDBF=F KetDBF=T FulRan=T
         wScrn=  0.000000 ICntrl=       500 IOpCl=  0 I1Cent=   200000004 NGrid=           0
         NMat0=    1 NMatS0=      1 NMatT0=    0 NMatD0=    1 NMtDS0=    0 NMtDT0=    0
 Symmetry not used in FoFCou.
 Harris En= -1022.83359737253    
 JPrj=0 DoOrth=F DoCkMO=F.
 Leave Link  401 at Thu Dec 15 14:38:31 2022, MaxMem=  1342177280 cpu:              20.5 elap:               1.3
 (Enter /data0/home/software/g16/l502.exe)
 Two-electron integral symmetry not used.
 Closed shell SCF:
 Using DIIS extrapolation, IDIIS=  1040.
 NGot=  1342177280 LenX=  1341811365 LenY=  1341632840
 Requested convergence on RMS density matrix=1.00D-08 within 128 cycles.
 Requested convergence on MAX density matrix=1.00D-06.
 Requested convergence on             energy=1.00D-06.
 No special actions if energy rises.
 Fock matrices will be formed incrementally for  20 cycles.

 Cycle   1  Pass 1  IDiag  1:
 FoFJK:  IHMeth= 1 ICntrl=       0 DoSepK=F KAlg= 0 I1Cent=           0 FoldK=F
 IRaf= 900000000 NMat=       1 IRICut=       1 DoRegI=T DoRafI=F ISym2E= 0 IDoP0=0 IntGTp=1.
 FoFCou: FMM=F IPFlag=           0 FMFlag=      100000 FMFlg1=           0
         NFxFlg=           0 DoJE=F BraDBF=F KetDBF=F FulRan=T
         wScrn=  0.000000 ICntrl=         0 IOpCl=  0 I1Cent=           0 NGrid=           0
         NMat0=    1 NMatS0=      1 NMatT0=    0 NMatD0=    1 NMtDS0=    0 NMtDT0=    0
 Symmetry not used in FoFCou.
 E= -1022.78775398276    
 DIIS: error= 3.06D-02 at cycle   1 NSaved=   1.
 NSaved= 1 IEnMin= 1 EnMin= -1022.78775398276     IErMin= 1 ErrMin= 3.06D-02
 ErrMax= 3.06D-02  0.00D+00 EMaxC= 1.00D-01 BMatC= 8.11D-01 BMatP= 8.11D-01
 IDIUse=3 WtCom= 6.94D-01 WtEn= 3.06D-01
 Coeff-Com:  0.100D+01
 Coeff-En:   0.100D+01
 Coeff:      0.100D+01
 Gap=     0.325 Goal=   None    Shift=    0.000
 GapD=    0.325 DampG=1.000 DampE=0.500 DampFc=0.5000 IDamp=-1.
 Damping current iteration by 5.00D-01
 RMSDP=4.45D-03 MaxDP=2.91D-01              OVMax= 1.81D-01

 Cycle   2  Pass 1  IDiag  1:
 RMSU=  2.22D-03    CP:  1.01D+00
 E= -1022.99810832992     Delta-E=       -0.210354347154 Rises=F Damp=T
 DIIS: error= 5.87D-03 at cycle   2 NSaved=   2.
 NSaved= 2 IEnMin= 2 EnMin= -1022.99810832992     IErMin= 2 ErrMin= 5.87D-03
 ErrMax= 5.87D-03  0.00D+00 EMaxC= 1.00D-01 BMatC= 4.36D-02 BMatP= 8.11D-01
 IDIUse=3 WtCom= 9.41D-01 WtEn= 5.87D-02
 Coeff-Com:  0.155D-01 0.985D+00
 Coeff-En:   0.974D-01 0.903D+00
 Coeff:      0.203D-01 0.980D+00
 Gap=     0.327 Goal=   None    Shift=    0.000
 RMSDP=1.34D-03 MaxDP=1.67D-01 DE=-2.10D-01 OVMax= 1.24D-01

 Cycle   3  Pass 1  IDiag  1:
 RMSU=  1.14D-03    CP:  9.69D-01  7.88D-01
 E= -1023.24470170752     Delta-E=       -0.246593377608 Rises=F Damp=F
 DIIS: error= 3.77D-03 at cycle   3 NSaved=   3.
 NSaved= 3 IEnMin= 3 EnMin= -1023.24470170752     IErMin= 3 ErrMin= 3.77D-03
 ErrMax= 3.77D-03  0.00D+00 EMaxC= 1.00D-01 BMatC= 1.13D-02 BMatP= 4.36D-02
 IDIUse=3 WtCom= 9.62D-01 WtEn= 3.77D-02
 Coeff-Com: -0.498D-01 0.283D+00 0.766D+00
 Coeff-En:   0.000D+00 0.000D+00 0.100D+01
 Coeff:     -0.479D-01 0.273D+00 0.775D+00
 Gap=     0.302 Goal=   None    Shift=    0.000
 RMSDP=3.59D-04 MaxDP=1.69D-02 DE=-2.47D-01 OVMax= 3.31D-02

 Cycle   4  Pass 1  IDiag  1:
 RMSU=  3.26D-04    CP:  9.68D-01  8.49D-01  9.44D-01
 E= -1023.24968273404     Delta-E=       -0.004981026519 Rises=F Damp=F
 DIIS: error= 2.35D-03 at cycle   4 NSaved=   4.
 NSaved= 4 IEnMin= 4 EnMin= -1023.24968273404     IErMin= 4 ErrMin= 2.35D-03
 ErrMax= 2.35D-03  0.00D+00 EMaxC= 1.00D-01 BMatC= 4.35D-03 BMatP= 1.13D-02
 IDIUse=3 WtCom= 9.77D-01 WtEn= 2.35D-02
 Coeff-Com: -0.285D-01 0.743D-01 0.435D+00 0.519D+00
 Coeff-En:   0.000D+00 0.000D+00 0.266D+00 0.734D+00
 Coeff:     -0.279D-01 0.725D-01 0.431D+00 0.524D+00
 Gap=     0.298 Goal=   None    Shift=    0.000
 RMSDP=1.63D-04 MaxDP=7.47D-03 DE=-4.98D-03 OVMax= 1.33D-02

 Cycle   5  Pass 1  IDiag  1:
 RMSU=  8.65D-05    CP:  9.67D-01  8.34D-01  9.92D-01  6.26D-01
 E= -1023.25265740468     Delta-E=       -0.002974670638 Rises=F Damp=F
 DIIS: error= 2.75D-04 at cycle   5 NSaved=   5.
 NSaved= 5 IEnMin= 5 EnMin= -1023.25265740468     IErMin= 5 ErrMin= 2.75D-04
 ErrMax= 2.75D-04  0.00D+00 EMaxC= 1.00D-01 BMatC= 8.91D-05 BMatP= 4.35D-03
 IDIUse=3 WtCom= 9.97D-01 WtEn= 2.75D-03
 Coeff-Com: -0.774D-02 0.139D-01 0.126D+00 0.206D+00 0.661D+00
 Coeff-En:   0.000D+00 0.000D+00 0.000D+00 0.000D+00 0.100D+01
 Coeff:     -0.772D-02 0.139D-01 0.126D+00 0.206D+00 0.662D+00
 Gap=     0.295 Goal=   None    Shift=    0.000
 RMSDP=3.38D-05 MaxDP=2.51D-03 DE=-2.97D-03 OVMax= 2.16D-03

 Cycle   6  Pass 1  IDiag  1:
 RMSU=  2.44D-05    CP:  9.66D-01  8.33D-01  9.97D-01  6.63D-01  8.03D-01
 E= -1023.25272181648     Delta-E=       -0.000064411799 Rises=F Damp=F
 DIIS: error= 1.03D-04 at cycle   6 NSaved=   6.
 NSaved= 6 IEnMin= 6 EnMin= -1023.25272181648     IErMin= 6 ErrMin= 1.03D-04
 ErrMax= 1.03D-04  0.00D+00 EMaxC= 1.00D-01 BMatC= 6.58D-06 BMatP= 8.91D-05
 IDIUse=3 WtCom= 9.99D-01 WtEn= 1.03D-03
 Coeff-Com: -0.139D-02 0.124D-02 0.244D-01 0.501D-01 0.271D+00 0.655D+00
 Coeff-En:   0.000D+00 0.000D+00 0.000D+00 0.000D+00 0.000D+00 0.100D+01
 Coeff:     -0.139D-02 0.124D-02 0.243D-01 0.501D-01 0.271D+00 0.655D+00
 Gap=     0.296 Goal=   None    Shift=    0.000
 RMSDP=8.95D-06 MaxDP=3.20D-04 DE=-6.44D-05 OVMax= 6.45D-04

 Cycle   7  Pass 1  IDiag  1:
 RMSU=  6.64D-06    CP:  9.66D-01  8.32D-01  9.97D-01  6.65D-01  8.57D-01
                    CP:  8.57D-01
 E= -1023.25272750243     Delta-E=       -0.000005685954 Rises=F Damp=F
 DIIS: error= 2.17D-05 at cycle   7 NSaved=   7.
 NSaved= 7 IEnMin= 7 EnMin= -1023.25272750243     IErMin= 7 ErrMin= 2.17D-05
 ErrMax= 2.17D-05  0.00D+00 EMaxC= 1.00D-01 BMatC= 2.99D-07 BMatP= 6.58D-06
 IDIUse=1 WtCom= 1.00D+00 WtEn= 0.00D+00
 Coeff-Com:  0.431D-03-0.100D-02-0.710D-02-0.946D-02-0.295D-02 0.130D+00
 Coeff-Com:  0.890D+00
 Coeff:      0.431D-03-0.100D-02-0.710D-02-0.946D-02-0.295D-02 0.130D+00
 Coeff:      0.890D+00
 Gap=     0.296 Goal=   None    Shift=    0.000
 RMSDP=3.50D-06 MaxDP=3.84D-04 DE=-5.69D-06 OVMax= 2.92D-04

 Cycle   8  Pass 1  IDiag  1:
 RMSU=  2.31D-06    CP:  9.66D-01  8.32D-01  9.98D-01  6.66D-01  8.62D-01
                    CP:  9.26D-01  1.07D+00
 E= -1023.25272773370     Delta-E=       -0.000000231262 Rises=F Damp=F
 DIIS: error= 1.60D-05 at cycle   8 NSaved=   8.
 NSaved= 8 IEnMin= 8 EnMin= -1023.25272773370     IErMin= 8 ErrMin= 1.60D-05
 ErrMax= 1.60D-05  0.00D+00 EMaxC= 1.00D-01 BMatC= 1.58D-07 BMatP= 2.99D-07
 IDIUse=1 WtCom= 1.00D+00 WtEn= 0.00D+00
 Coeff-Com:  0.361D-03-0.658D-03-0.624D-02-0.998D-02-0.265D-01 0.775D-02
 Coeff-Com:  0.493D+00 0.542D+00
 Coeff:      0.361D-03-0.658D-03-0.624D-02-0.998D-02-0.265D-01 0.775D-02
 Coeff:      0.493D+00 0.542D+00
 Gap=     0.296 Goal=   None    Shift=    0.000
 RMSDP=1.24D-06 MaxDP=9.37D-05 DE=-2.31D-07 OVMax= 1.22D-04

 Cycle   9  Pass 1  IDiag  1:
 RMSU=  8.22D-07    CP:  9.66D-01  8.32D-01  9.98D-01  6.67D-01  8.68D-01
                    CP:  9.34D-01  1.13D+00  8.15D-01
 E= -1023.25272787052     Delta-E=       -0.000000136823 Rises=F Damp=F
 DIIS: error= 4.04D-06 at cycle   9 NSaved=   9.
 NSaved= 9 IEnMin= 9 EnMin= -1023.25272787052     IErMin= 9 ErrMin= 4.04D-06
 ErrMax= 4.04D-06  0.00D+00 EMaxC= 1.00D-01 BMatC= 5.18D-09 BMatP= 1.58D-07
 IDIUse=1 WtCom= 1.00D+00 WtEn= 0.00D+00
 Coeff-Com:  0.594D-04-0.948D-04-0.122D-02-0.211D-02-0.718D-02-0.816D-02
 Coeff-Com:  0.742D-01 0.160D+00 0.784D+00
 Coeff:      0.594D-04-0.948D-04-0.122D-02-0.211D-02-0.718D-02-0.816D-02
 Coeff:      0.742D-01 0.160D+00 0.784D+00
 Gap=     0.296 Goal=   None    Shift=    0.000
 RMSDP=3.50D-07 MaxDP=1.70D-05 DE=-1.37D-07 OVMax= 4.92D-05

 Cycle  10  Pass 1  IDiag  1:
 RMSU=  2.33D-07    CP:  9.66D-01  8.32D-01  9.98D-01  6.67D-01  8.67D-01
                    CP:  9.36D-01  1.14D+00  9.01D-01  1.01D+00
 E= -1023.25272787509     Delta-E=       -0.000000004567 Rises=F Damp=F
 DIIS: error= 2.04D-06 at cycle  10 NSaved=  10.
 NSaved=10 IEnMin=10 EnMin= -1023.25272787509     IErMin=10 ErrMin= 2.04D-06
 ErrMax= 2.04D-06  0.00D+00 EMaxC= 1.00D-01 BMatC= 2.29D-09 BMatP= 5.18D-09
 IDIUse=1 WtCom= 1.00D+00 WtEn= 0.00D+00
 Coeff-Com: -0.267D-04 0.546D-04 0.327D-03 0.393D-03-0.995D-04-0.698D-02
 Coeff-Com: -0.407D-01-0.672D-02 0.432D+00 0.622D+00
 Coeff:     -0.267D-04 0.546D-04 0.327D-03 0.393D-03-0.995D-04-0.698D-02
 Coeff:     -0.407D-01-0.672D-02 0.432D+00 0.622D+00
 Gap=     0.296 Goal=   None    Shift=    0.000
 RMSDP=1.63D-07 MaxDP=8.50D-06 DE=-4.57D-09 OVMax= 1.50D-05

 Cycle  11  Pass 1  IDiag  1:
 RMSU=  9.95D-08    CP:  9.66D-01  8.32D-01  9.98D-01  6.67D-01  8.67D-01
                    CP:  9.36D-01  1.15D+00  9.28D-01  1.12D+00  8.48D-01
 E= -1023.25272787707     Delta-E=       -0.000000001986 Rises=F Damp=F
 DIIS: error= 6.51D-07 at cycle  11 NSaved=  11.
 NSaved=11 IEnMin=11 EnMin= -1023.25272787707     IErMin=11 ErrMin= 6.51D-07
 ErrMax= 6.51D-07  0.00D+00 EMaxC= 1.00D-01 BMatC= 1.18D-10 BMatP= 2.29D-09
 IDIUse=1 WtCom= 1.00D+00 WtEn= 0.00D+00
 Coeff-Com: -0.153D-04 0.296D-04 0.250D-03 0.357D-03 0.669D-03-0.191D-02
 Coeff-Com: -0.229D-01-0.219D-01 0.788D-01 0.232D+00 0.734D+00
 Coeff:     -0.153D-04 0.296D-04 0.250D-03 0.357D-03 0.669D-03-0.191D-02
 Coeff:     -0.229D-01-0.219D-01 0.788D-01 0.232D+00 0.734D+00
 Gap=     0.296 Goal=   None    Shift=    0.000
 RMSDP=4.69D-08 MaxDP=1.76D-06 DE=-1.99D-09 OVMax= 6.52D-06

 Cycle  12  Pass 1  IDiag  1:
 RMSU=  3.12D-08    CP:  9.66D-01  8.32D-01  9.98D-01  6.67D-01  8.67D-01
                    CP:  9.36D-01  1.15D+00  9.34D-01  1.15D+00  9.28D-01
                    CP:  8.91D-01
 E= -1023.25272787716     Delta-E=       -0.000000000085 Rises=F Damp=F
 DIIS: error= 2.26D-07 at cycle  12 NSaved=  12.
 NSaved=12 IEnMin=12 EnMin= -1023.25272787716     IErMin=12 ErrMin= 2.26D-07
 ErrMax= 2.26D-07  0.00D+00 EMaxC= 1.00D-01 BMatC= 1.29D-11 BMatP= 1.18D-10
 IDIUse=1 WtCom= 1.00D+00 WtEn= 0.00D+00
 Coeff-Com: -0.124D-05 0.234D-05 0.413D-04 0.635D-04 0.220D-03 0.206D-03
 Coeff-Com: -0.228D-02-0.647D-02-0.237D-01-0.167D-02 0.250D+00 0.783D+00
 Coeff:     -0.124D-05 0.234D-05 0.413D-04 0.635D-04 0.220D-03 0.206D-03
 Coeff:     -0.228D-02-0.647D-02-0.237D-01-0.167D-02 0.250D+00 0.783D+00
 Gap=     0.296 Goal=   None    Shift=    0.000
 RMSDP=1.49D-08 MaxDP=5.93D-07 DE=-8.48D-11 OVMax= 1.62D-06

 Cycle  13  Pass 1  IDiag  1:
 RMSU=  1.09D-08    CP:  9.66D-01  8.32D-01  9.98D-01  6.67D-01  8.67D-01
                    CP:  9.36D-01  1.15D+00  9.35D-01  1.15D+00  9.45D-01
                    CP:  9.78D-01  9.87D-01
 E= -1023.25272787724     Delta-E=       -0.000000000079 Rises=F Damp=F
 DIIS: error= 5.83D-08 at cycle  13 NSaved=  13.
 NSaved=13 IEnMin=13 EnMin= -1023.25272787724     IErMin=13 ErrMin= 5.83D-08
 ErrMax= 5.83D-08  0.00D+00 EMaxC= 1.00D-01 BMatC= 1.75D-12 BMatP= 1.29D-11
 IDIUse=1 WtCom= 1.00D+00 WtEn= 0.00D+00
 Coeff-Com:  0.111D-05-0.210D-05-0.755D-05-0.100D-04 0.229D-04 0.274D-03
 Coeff-Com:  0.141D-02-0.369D-03-0.178D-01-0.270D-01 0.317D-01 0.340D+00
 Coeff-Com:  0.672D+00
 Coeff:      0.111D-05-0.210D-05-0.755D-05-0.100D-04 0.229D-04 0.274D-03
 Coeff:      0.141D-02-0.369D-03-0.178D-01-0.270D-01 0.317D-01 0.340D+00
 Coeff:      0.672D+00
 Gap=     0.296 Goal=   None    Shift=    0.000
 RMSDP=4.67D-09 MaxDP=2.19D-07 DE=-7.94D-11 OVMax= 5.04D-07

 SCF Done:  E(RM062X) =  -1023.25272788     A.U. after   13 cycles
            NFock= 13  Conv=0.47D-08     -V/T= 2.0031
 KE= 1.020083566498D+03 PE=-4.324915768017D+03 EE= 1.327027330017D+03
 Leave Link  502 at Thu Dec 15 14:39:32 2022, MaxMem=  1342177280 cpu:             977.7 elap:              61.3
 (Enter /data0/home/software/g16/l601.exe)
 Copying SCF densities to generalized density rwf, IOpCl= 0 IROHF=0.

 **********************************************************************

            Population analysis using the SCF density.

 **********************************************************************

 Alpha  occ. eigenvalues --  -78.16122 -19.66851 -19.66145 -19.64942 -19.63311
 Alpha  occ. eigenvalues --  -19.63107 -19.59494 -14.81296 -14.76043 -10.62235
 Alpha  occ. eigenvalues --  -10.59233 -10.57977  -6.96852  -5.08758  -5.08729
 Alpha  occ. eigenvalues --   -5.08592  -1.22740  -1.15250  -1.14806  -1.14653
 Alpha  occ. eigenvalues --   -1.13564  -1.12776  -1.09922  -0.98483  -0.85414
 Alpha  occ. eigenvalues --   -0.71451  -0.71177  -0.68645  -0.65805  -0.63674
 Alpha  occ. eigenvalues --   -0.62976  -0.61689  -0.61180  -0.56492  -0.53450
 Alpha  occ. eigenvalues --   -0.52779  -0.52050  -0.51496  -0.50672  -0.50070
 Alpha  occ. eigenvalues --   -0.49062  -0.48893  -0.48353  -0.46116  -0.44509
 Alpha  occ. eigenvalues --   -0.41755  -0.41337  -0.40942  -0.39635  -0.38250
 Alpha  occ. eigenvalues --   -0.37163  -0.35914  -0.30202
 Alpha virt. eigenvalues --   -0.00601   0.01137   0.01709   0.01984   0.02856
 Alpha virt. eigenvalues --    0.04065   0.04373   0.04836   0.05157   0.05711
 Alpha virt. eigenvalues --    0.06171   0.06644   0.08848   0.09510   0.10652
 Alpha virt. eigenvalues --    0.11333   0.11766   0.13124   0.13642   0.14148
 Alpha virt. eigenvalues --    0.14961   0.15349   0.15952   0.17005   0.17230
 Alpha virt. eigenvalues --    0.17896   0.18143   0.18983   0.19432   0.19578
 Alpha virt. eigenvalues --    0.19904   0.20305   0.20903   0.21613   0.22073
 Alpha virt. eigenvalues --    0.22403   0.22972   0.23305   0.24060   0.24573
 Alpha virt. eigenvalues --    0.24965   0.25370   0.25826   0.26157   0.26784
 Alpha virt. eigenvalues --    0.27297   0.28624   0.28959   0.29486   0.29777
 Alpha virt. eigenvalues --    0.30348   0.30675   0.31165   0.31595   0.32696
 Alpha virt. eigenvalues --    0.33137   0.33347   0.34669   0.35457   0.36901
 Alpha virt. eigenvalues --    0.37082   0.39020   0.39895   0.40160   0.41603
 Alpha virt. eigenvalues --    0.42473   0.43651   0.43846   0.45605   0.46387
 Alpha virt. eigenvalues --    0.46652   0.47430   0.49165   0.50924   0.52984
 Alpha virt. eigenvalues --    0.54171   0.55453   0.56243   0.57274   0.58152
 Alpha virt. eigenvalues --    0.59281   0.60707   0.61172   0.62525   0.63509
 Alpha virt. eigenvalues --    0.65155   0.65825   0.67674   0.68568   0.69120
 Alpha virt. eigenvalues --    0.69702   0.70311   0.72353   0.73803   0.75622
 Alpha virt. eigenvalues --    0.77812   0.78749   0.79819   0.80243   0.81470
 Alpha virt. eigenvalues --    0.82436   0.85150   0.86914   0.87244   0.87932
 Alpha virt. eigenvalues --    0.90908   0.92235   0.93332   0.93764   0.96987
 Alpha virt. eigenvalues --    0.98971   0.99819   1.01181   1.02498   1.04604
 Alpha virt. eigenvalues --    1.05266   1.06341   1.06833   1.08327   1.09911
 Alpha virt. eigenvalues --    1.10909   1.13083   1.13491   1.14039   1.15547
 Alpha virt. eigenvalues --    1.15820   1.17589   1.18606   1.19061   1.20943
 Alpha virt. eigenvalues --    1.21988   1.23178   1.24263   1.24643   1.26353
 Alpha virt. eigenvalues --    1.27019   1.27433   1.29501   1.30387   1.31402
 Alpha virt. eigenvalues --    1.32493   1.33377   1.34917   1.35375   1.35906
 Alpha virt. eigenvalues --    1.38022   1.39103   1.39789   1.40633   1.41985
 Alpha virt. eigenvalues --    1.43838   1.44053   1.45502   1.46971   1.47529
 Alpha virt. eigenvalues --    1.49376   1.50297   1.51341   1.51921   1.54012
 Alpha virt. eigenvalues --    1.57282   1.59472   1.60095   1.62675   1.65444
 Alpha virt. eigenvalues --    1.66589   1.67827   1.69535   1.71508   1.71750
 Alpha virt. eigenvalues --    1.71965   1.73008   1.75020   1.75676   1.76659
 Alpha virt. eigenvalues --    1.78008   1.78909   1.79918   1.80889   1.83104
 Alpha virt. eigenvalues --    1.83863   1.86107   1.87933   1.89976   1.93172
 Alpha virt. eigenvalues --    1.93885   1.95242   1.96351   1.98091   1.99227
 Alpha virt. eigenvalues --    2.01570   2.02846   2.06253   2.07269   2.09521
 Alpha virt. eigenvalues --    2.10062   2.11307   2.15190   2.15547   2.17566
 Alpha virt. eigenvalues --    2.20594   2.21310   2.22487   2.25726   2.28614
 Alpha virt. eigenvalues --    2.30287   2.32724   2.33524   2.34993   2.39743
 Alpha virt. eigenvalues --    2.42492   2.43661   2.45157   2.48234   2.50746
 Alpha virt. eigenvalues --    2.52961   2.53846   2.55360   2.60446   2.64437
 Alpha virt. eigenvalues --    2.64749   2.68241   2.69044   2.70757   2.71500
 Alpha virt. eigenvalues --    2.73905   2.76100   2.79454   2.80820   2.83849
 Alpha virt. eigenvalues --    2.85380   2.86266   2.90392   2.92901   2.95580
 Alpha virt. eigenvalues --    2.96632   2.99771   3.00756   3.01316   3.03799
 Alpha virt. eigenvalues --    3.07357   3.10180   3.12413   3.14833   3.21734
 Alpha virt. eigenvalues --    3.26734   3.32929   3.34864   3.37016   3.39784
 Alpha virt. eigenvalues --    3.41847   3.43451   3.45456   3.48040   3.55297
 Alpha virt. eigenvalues --    3.58371   3.59311   3.66008   3.69076   3.69976
 Alpha virt. eigenvalues --    3.73865   3.95413   3.98773   3.99534   4.03043
 Alpha virt. eigenvalues --    4.12161   4.47753   4.60837   4.91069   4.97344
 Alpha virt. eigenvalues --    4.99326   5.00848   5.04533   5.06445   5.08419
 Alpha virt. eigenvalues --    5.09881   5.11327   5.12071   5.14760   5.17530
 Alpha virt. eigenvalues --    5.19248   5.20089   5.21918   5.22738   5.27511
 Alpha virt. eigenvalues --    5.29683   5.32986   5.34098   5.40496   5.43309
 Alpha virt. eigenvalues --    5.53280   5.54290   5.55468   5.56861   5.58342
 Alpha virt. eigenvalues --    5.60108   5.64424   5.95011   5.96274   6.74267
 Alpha virt. eigenvalues --    6.76137   6.76444   6.79093   6.80215   6.82291
 Alpha virt. eigenvalues --    6.82617   6.83399   6.84509   6.86264   6.88339
 Alpha virt. eigenvalues --    6.88808   6.91660   6.92322   6.93970   6.95564
 Alpha virt. eigenvalues --    6.96498   6.97728   6.99231   7.02743   7.06388
 Alpha virt. eigenvalues --    7.11278   7.13769   7.14100   7.18509   7.26441
 Alpha virt. eigenvalues --    7.27622   7.31357   7.37077   7.43561   7.69437
 Alpha virt. eigenvalues --   14.26191  14.29066  14.40813  23.91248  24.08678
 Alpha virt. eigenvalues --   24.12516  35.66474  35.69636  50.01699  50.02486
 Alpha virt. eigenvalues --   50.03358  50.05564  50.08788  50.12616 163.94243
          Condensed to atoms (all electrons):
               1          2          3          4          5          6
     1  C    6.317082  -0.521524  -0.205803   0.183189  -0.022795   0.385352
     2  C   -0.521524   6.233116  -0.302687   0.058207   0.005831  -0.005732
     3  C   -0.205803  -0.302687   6.052733   0.123885   0.016764   0.008324
     4  N    0.183189   0.058207   0.123885   6.488014   0.342961  -0.028028
     5  H   -0.022795   0.005831   0.016764   0.342961   0.358213  -0.001938
     6  H    0.385352  -0.005732   0.008324  -0.028028  -0.001938   0.491456
     7  H   -0.048247   0.430869   0.015660   0.006662  -0.000014  -0.000753
     8  H   -0.002136   0.020249   0.399137  -0.029717  -0.002454  -0.000026
     9  N    0.085590   0.144606   0.136005  -0.003443  -0.004173   0.004534
    10  P    0.012658  -0.021508  -0.073677   0.007945  -0.002653  -0.000651
    11  O   -0.019625  -0.001018   0.013920   0.012085  -0.003111   0.000123
    12  O   -0.017604   0.016112  -0.010249   0.003276  -0.000069   0.000035
    13  H   -0.004636   0.010692  -0.015817   0.000879  -0.000072   0.000017
    14  O    0.009323  -0.008186   0.006542  -0.002826   0.000113  -0.000001
    15  H    0.000949   0.000027  -0.001569   0.000101  -0.000003  -0.000002
    16  O   -0.012529  -0.020223   0.021150   0.015632  -0.001784  -0.000682
    17  H    0.067458  -0.011515  -0.019962  -0.007844   0.000754  -0.001396
    18  O    0.007981  -0.045688   0.077926  -0.009339   0.000371   0.000006
    19  H   -0.007467   0.030691  -0.017791   0.003366  -0.000118   0.000006
    20  H   -0.003902   0.012464  -0.013088   0.001862  -0.000043   0.000001
    21  O   -0.012595   0.011709  -0.043940   0.006332  -0.048604  -0.000450
    22  H   -0.001746  -0.000227   0.003586  -0.001625   0.001883   0.000021
    23  H    0.003304  -0.002428   0.023964  -0.011974   0.008401   0.000038
               7          8          9         10         11         12
     1  C   -0.048247  -0.002136   0.085590   0.012658  -0.019625  -0.017604
     2  C    0.430869   0.020249   0.144606  -0.021508  -0.001018   0.016112
     3  C    0.015660   0.399137   0.136005  -0.073677   0.013920  -0.010249
     4  N    0.006662  -0.029717  -0.003443   0.007945   0.012085   0.003276
     5  H   -0.000014  -0.002454  -0.004173  -0.002653  -0.003111  -0.000069
     6  H   -0.000753  -0.000026   0.004534  -0.000651   0.000123   0.000035
     7  H    0.505563  -0.000067  -0.049474  -0.000750  -0.000012  -0.000359
     8  H   -0.000067   0.471939  -0.035866  -0.000589  -0.007037   0.000359
     9  N   -0.049474  -0.035866   7.048991   0.042151  -0.002974   0.031330
    10  P   -0.000750  -0.000589   0.042151  12.476265   0.464467   0.262376
    11  O   -0.000012  -0.007037  -0.002974   0.464467   8.243778  -0.020714
    12  O   -0.000359   0.000359   0.031330   0.262376  -0.020714   8.150838
    13  H   -0.000123   0.000048   0.000879   0.023984   0.005021   0.230639
    14  O   -0.000002  -0.000111  -0.000527   0.259023  -0.028391  -0.001908
    15  H    0.000001   0.000001   0.000092   0.002988  -0.004217  -0.008477
    16  O   -0.000125   0.000181  -0.004775   0.333363  -0.046748  -0.007638
    17  H    0.001197   0.000103  -0.008778   0.008906  -0.004715  -0.018590
    18  O    0.000578  -0.000989  -0.070707   0.001605   0.006032   0.018077
    19  H   -0.000751  -0.000535   0.039393  -0.007467  -0.000214  -0.011664
    20  H    0.000041  -0.000275   0.005494   0.003000  -0.001872  -0.007010
    21  O    0.000035   0.001698   0.008369   0.005577  -0.018162  -0.000751
    22  H   -0.000002  -0.000017  -0.000167   0.003777   0.000935   0.000036
    23  H   -0.000013  -0.000581  -0.002007   0.001858   0.060490   0.001920
              13         14         15         16         17         18
     1  C   -0.004636   0.009323   0.000949  -0.012529   0.067458   0.007981
     2  C    0.010692  -0.008186   0.000027  -0.020223  -0.011515  -0.045688
     3  C   -0.015817   0.006542  -0.001569   0.021150  -0.019962   0.077926
     4  N    0.000879  -0.002826   0.000101   0.015632  -0.007844  -0.009339
     5  H   -0.000072   0.000113  -0.000003  -0.001784   0.000754   0.000371
     6  H    0.000017  -0.000001  -0.000002  -0.000682  -0.001396   0.000006
     7  H   -0.000123  -0.000002   0.000001  -0.000125   0.001197   0.000578
     8  H    0.000048  -0.000111   0.000001   0.000181   0.000103  -0.000989
     9  N    0.000879  -0.000527   0.000092  -0.004775  -0.008778  -0.070707
    10  P    0.023984   0.259023   0.002988   0.333363   0.008906   0.001605
    11  O    0.005021  -0.028391  -0.004217  -0.046748  -0.004715   0.006032
    12  O    0.230639  -0.001908  -0.008477  -0.007638  -0.018590   0.018077
    13  H    0.258111   0.004983   0.000048   0.004565  -0.001055  -0.008042
    14  O    0.004983   7.963988   0.254367   0.006205   0.003791   0.000808
    15  H    0.000048   0.254367   0.448323  -0.012042   0.001166   0.000095
    16  O    0.004565   0.006205  -0.012042   7.979013   0.276144  -0.008136
    17  H   -0.001055   0.003791   0.001166   0.276144   0.403653   0.000218
    18  O   -0.008042   0.000808   0.000095  -0.008136   0.000218   8.044552
    19  H    0.015810   0.000001  -0.000008   0.001535  -0.000076   0.266682
    20  H    0.006677  -0.000088   0.000007   0.000423   0.000056   0.308745
    21  O    0.000146  -0.002701   0.000090   0.002937  -0.000230  -0.000381
    22  H    0.000001  -0.000185  -0.000026  -0.000743  -0.000037  -0.000001
    23  H   -0.000182   0.000204   0.000027  -0.001672  -0.000362   0.000401
              19         20         21         22         23
     1  C   -0.007467  -0.003902  -0.012595  -0.001746   0.003304
     2  C    0.030691   0.012464   0.011709  -0.000227  -0.002428
     3  C   -0.017791  -0.013088  -0.043940   0.003586   0.023964
     4  N    0.003366   0.001862   0.006332  -0.001625  -0.011974
     5  H   -0.000118  -0.000043  -0.048604   0.001883   0.008401
     6  H    0.000006   0.000001  -0.000450   0.000021   0.000038
     7  H   -0.000751   0.000041   0.000035  -0.000002  -0.000013
     8  H   -0.000535  -0.000275   0.001698  -0.000017  -0.000581
     9  N    0.039393   0.005494   0.008369  -0.000167  -0.002007
    10  P   -0.007467   0.003000   0.005577   0.003777   0.001858
    11  O   -0.000214  -0.001872  -0.018162   0.000935   0.060490
    12  O   -0.011664  -0.007010  -0.000751   0.000036   0.001920
    13  H    0.015810   0.006677   0.000146   0.000001  -0.000182
    14  O    0.000001  -0.000088  -0.002701  -0.000185   0.000204
    15  H   -0.000008   0.000007   0.000090  -0.000026   0.000027
    16  O    0.001535   0.000423   0.002937  -0.000743  -0.001672
    17  H   -0.000076   0.000056  -0.000230  -0.000037  -0.000362
    18  O    0.266682   0.308745  -0.000381  -0.000001   0.000401
    19  H    0.329836  -0.007046   0.000060  -0.000001  -0.000048
    20  H   -0.007046   0.417853   0.000120  -0.000001  -0.000116
    21  O    0.000060   0.000120   8.079879   0.310413   0.274559
    22  H   -0.000001  -0.000001   0.310413   0.415493  -0.016324
    23  H   -0.000048  -0.000116   0.274559  -0.016324   0.354352
 Mulliken charges:
               1
     1  C   -0.192276
     2  C   -0.033837
     3  C   -0.195014
     4  N   -0.159600
     5  H    0.352539
     6  H    0.149748
     7  H    0.140085
     8  H    0.186687
     9  N   -0.364540
    10  P    1.197352
    11  O   -0.648041
    12  O   -0.609966
    13  H    0.467424
    14  O   -0.464424
    15  H    0.318061
    16  O   -0.524051
    17  H    0.311111
    18  O   -0.590797
    19  H    0.365806
    20  H    0.276701
    21  O   -0.574110
    22  H    0.284955
    23  H    0.306188
 Sum of Mulliken charges =  -0.00000
 Mulliken charges with hydrogens summed into heavy atoms:
               1
     1  C   -0.042528
     2  C    0.106248
     3  C   -0.008327
     4  N    0.192939
     9  N   -0.364540
    10  P    1.197352
    11  O   -0.648041
    12  O   -0.142542
    14  O   -0.146363
    16  O   -0.212940
    18  O    0.051710
    21  O    0.017033
         Mulliken charges condensed to fragments:
      1     -0.116209
      2      0.047466
      3      0.051710
      4      0.017033
 Electronic spatial extent (au):  <R**2>=         130927.9187
 Charge=             -0.0000 electrons
 Dipole moment (field-independent basis, Debye):
    X=             -2.2361    Y=              2.0476    Z=              0.8484  Tot=              3.1485
 Quadrupole moment (field-independent basis, Debye-Ang):
   XX=           -128.3561   YY=            -42.6901   ZZ=            -55.0540
   XY=             -1.6352   XZ=            -18.1850   YZ=             34.2633
 Traceless Quadrupole moment (field-independent basis, Debye-Ang):
   XX=            -52.9893   YY=             32.6766   ZZ=             20.3127
   XY=             -1.6352   XZ=            -18.1850   YZ=             34.2633
 Octapole moment (field-independent basis, Debye-Ang**2):
  XXX=          -3455.9308  YYY=          -1634.4330  ZZZ=          -2194.0880  XYY=           -726.5869
  XXY=          -1010.5589  XXZ=          -1399.9553  XZZ=           -923.7454  YZZ=           -177.5405
  YYZ=           -362.4322  XYZ=             93.6025
 Hexadecapole moment (field-independent basis, Debye-Ang**3):
 XXXX=         -71832.8447 YYYY=         -33166.1825 ZZZZ=         -52947.3244 XXXY=         -30343.1280
 XXXZ=         -39135.8048 YYYX=         -20684.6178 YYYZ=         -17218.5014 ZZZX=         -27814.3175
 ZZZY=         -16137.8263 XXYY=         -17802.7303 XXZZ=         -24179.3287 YYZZ=          -9541.5236
 XXYZ=         -10299.5125 YYXZ=          -6976.2883 ZZXY=          -5131.4811
 N-N= 9.545521436251D+02 E-N=-4.324915773235D+03  KE= 1.020083566498D+03
 No NMR shielding tensors so no spin-rotation constants.
 Leave Link  601 at Thu Dec 15 14:39:32 2022, MaxMem=  1342177280 cpu:               1.7 elap:               0.1
 (Enter /data0/home/software/g16/l122.exe)
 CPIOFr:  IOpCl= 0 IRwI=-1 IRwCP=  731 ICalc= -1 LCPTot=      244414 Len1MO=      641874 IndFrg=      244414
 CPIOFr:  IOpCl= 0 IRwI=-1 IRwCP=  731 ICalc=  0 LCPTot=      244414 Len1MO=      641874 IndFrg=      886288
 Counterpoise: doing calculation for fragment   1 using the basis set of the full-system, NewBq=T
 Leave Link  122 at Thu Dec 15 14:39:32 2022, MaxMem=  1342177280 cpu:               0.2 elap:               0.0
 (Enter /data0/home/software/g16/l301.exe)
 Basis read from rwf:  (5D, 7F)
 No pseudopotential information found on rwf file.
   398 basis functions,   606 primitive gaussians,   422 cartesian basis functions
    18 alpha electrons       18 beta electrons
       nuclear repulsion energy       160.9675367572 Hartrees.
 IExCor= 4336 DFT=T Ex+Corr=M062X ExCW=0 ScaHFX=  0.540000
 ScaDFX=  1.000000  1.000000  1.000000  1.000000 ScalE2=  1.000000  1.000000
 IRadAn=      5 IRanWt=     -1 IRanGd=            0 ICorTp=0 IEmpDi=131
 NAtoms=   23 NActive=   23 NUniq=   23 SFac= 1.00D+00 NAtFMM=   60 NAOKFM=F Big=F
 Integral buffers will be    131072 words long.
 Raffenetti 2 integral format.
 Two-electron integral symmetry is turned off.
 R6Disp:  Grimme-D3 Dispersion energy=       -0.0000417885 Hartrees.
 Nuclear repulsion after empirical dispersion term =      160.9674949687 Hartrees.
 No density basis found on file   718.
 Leave Link  301 at Thu Dec 15 14:39:32 2022, MaxMem=  1342177280 cpu:               0.8 elap:               0.1
 (Enter /data0/home/software/g16/l302.exe)
 NPDir=0 NMtPBC=     1 NCelOv=     1 NCel=       1 NClECP=     1 NCelD=      1
         NCelK=      1 NCelE2=     1 NClLst=     1 CellRange=     0.0.
 One-electron integrals computed using PRISM.
 NBasis=   398 RedAO= T EigKep=  3.04D-05  NBF=   398
 NBsUse=   398 1.00D-06 EigRej= -1.00D+00 NBFU=   398
 Precomputing XC quadrature grid using
 IXCGrd= 4 IRadAn=           5 IRanWt=          -1 IRanGd=           0 AccXCQ= 0.00D+00.
 Generated NRdTot=       0 NPtTot=           0 NUsed=           0 NTot=          32
 NSgBfM=   422   422   422   422   422 MxSgAt=    23 MxSgA2=    23.
 Leave Link  302 at Thu Dec 15 14:39:33 2022, MaxMem=  1342177280 cpu:               4.5 elap:               0.3
 (Enter /data0/home/software/g16/l303.exe)
 DipDrv:  MaxL=1.
 Leave Link  303 at Thu Dec 15 14:39:33 2022, MaxMem=  1342177280 cpu:               0.6 elap:               0.1
 (Enter /data0/home/software/g16/l401.exe)
 ExpMin= 3.48D-02 ExpMax= 7.75D+04 ExpMxC= 2.65D+03 IAcc=3 IRadAn=         5 AccDes= 0.00D+00
 Harris functional with IExCor= 1009 and IRadAn=       5 diagonalized for initial guess.
 HarFok:  IExCor= 1009 AccDes= 0.00D+00 IRadAn=         5 IDoV= 1 UseB2=F ITyADJ=14
 ICtDFT=  3500011 ScaDFX=  1.000000  1.000000  1.000000  1.000000
 FoFCou: FMM=F IPFlag=           0 FMFlag=      100000 FMFlg1=           0
         NFxFlg=           0 DoJE=T BraDBF=F KetDBF=T FulRan=T
         wScrn=  0.000000 ICntrl=       500 IOpCl=  0 I1Cent=   200000004 NGrid=           0
         NMat0=    1 NMatS0=      1 NMatT0=    0 NMatD0=    1 NMtDS0=    0 NMtDT0=    0
 Symmetry not used in FoFCou.
 Harris En= -226.054366112656    
 JPrj=0 DoOrth=F DoCkMO=F.
 Leave Link  401 at Thu Dec 15 14:39:34 2022, MaxMem=  1342177280 cpu:              20.2 elap:               1.3
 (Enter /data0/home/software/g16/l502.exe)
 Two-electron integral symmetry not used.
 Closed shell SCF:
 Using DIIS extrapolation, IDIIS=  1040.
 NGot=  1342177280 LenX=  1341811365 LenY=  1341632840
 Requested convergence on RMS density matrix=1.00D-08 within 128 cycles.
 Requested convergence on MAX density matrix=1.00D-06.
 Requested convergence on             energy=1.00D-06.
 No special actions if energy rises.
 Fock matrices will be formed incrementally for  20 cycles.

 Cycle   1  Pass 1  IDiag  1:
 FoFJK:  IHMeth= 1 ICntrl=       0 DoSepK=F KAlg= 0 I1Cent=           0 FoldK=F
 IRaf= 900000000 NMat=       1 IRICut=       1 DoRegI=T DoRafI=F ISym2E= 0 IDoP0=0 IntGTp=1.
 FoFCou: FMM=F IPFlag=           0 FMFlag=      100000 FMFlg1=           0
         NFxFlg=           0 DoJE=F BraDBF=F KetDBF=F FulRan=T
         wScrn=  0.000000 ICntrl=         0 IOpCl=  0 I1Cent=           0 NGrid=           0
         NMat0=    1 NMatS0=      1 NMatT0=    0 NMatD0=    1 NMtDS0=    0 NMtDT0=    0
 Symmetry not used in FoFCou.
 E= -226.087137866208    
 DIIS: error= 1.20D-02 at cycle   1 NSaved=   1.
 NSaved= 1 IEnMin= 1 EnMin= -226.087137866208     IErMin= 1 ErrMin= 1.20D-02
 ErrMax= 1.20D-02  0.00D+00 EMaxC= 1.00D-01 BMatC= 1.33D-01 BMatP= 1.33D-01
 IDIUse=3 WtCom= 8.80D-01 WtEn= 1.20D-01
 Coeff-Com:  0.100D+01
 Coeff-En:   0.100D+01
 Coeff:      0.100D+01
 Gap=     0.309 Goal=   None    Shift=    0.000
 GapD=    0.309 DampG=1.000 DampE=0.500 DampFc=0.5000 IDamp=-1.
 Damping current iteration by 5.00D-01
 RMSDP=2.33D-03 MaxDP=2.04D-01              OVMax= 1.75D-01

 Cycle   2  Pass 1  IDiag  1:
 RMSU=  1.17D-03    CP:  9.88D-01
 E= -226.134493251923     Delta-E=       -0.047355385715 Rises=F Damp=T
 DIIS: error= 5.02D-03 at cycle   2 NSaved=   2.
 NSaved= 2 IEnMin= 2 EnMin= -226.134493251923     IErMin= 2 ErrMin= 5.02D-03
 ErrMax= 5.02D-03  0.00D+00 EMaxC= 1.00D-01 BMatC= 1.57D-02 BMatP= 1.33D-01
 IDIUse=3 WtCom= 9.50D-01 WtEn= 5.02D-02
 Coeff-Com: -0.936D-01 0.109D+01
 Coeff-En:   0.000D+00 0.100D+01
 Coeff:     -0.889D-01 0.109D+01
 Gap=     0.284 Goal=   None    Shift=    0.000
 RMSDP=7.24D-04 MaxDP=7.91D-02 DE=-4.74D-02 OVMax= 1.16D-01

 Cycle   3  Pass 1  IDiag  1:
 RMSU=  6.45D-04    CP:  9.57D-01  7.63D-01
 E= -226.179485582938     Delta-E=       -0.044992331015 Rises=F Damp=F
 DIIS: error= 5.09D-03 at cycle   3 NSaved=   3.
 NSaved= 3 IEnMin= 3 EnMin= -226.179485582938     IErMin= 2 ErrMin= 5.02D-03
 ErrMax= 5.09D-03  0.00D+00 EMaxC= 1.00D-01 BMatC= 1.04D-02 BMatP= 1.57D-02
 IDIUse=3 WtCom= 9.49D-01 WtEn= 5.09D-02
 Coeff-Com: -0.152D+00 0.542D+00 0.611D+00
 Coeff-En:   0.000D+00 0.000D+00 0.100D+01
 Coeff:     -0.145D+00 0.514D+00 0.630D+00
 Gap=     0.287 Goal=   None    Shift=    0.000
 RMSDP=2.41D-04 MaxDP=1.39D-02 DE=-4.50D-02 OVMax= 4.30D-02

 Cycle   4  Pass 1  IDiag  1:
 RMSU=  1.97D-04    CP:  9.56D-01  8.72D-01  9.11D-01
 E= -226.187409215921     Delta-E=       -0.007923632984 Rises=F Damp=F
 DIIS: error= 1.69D-03 at cycle   4 NSaved=   4.
 NSaved= 4 IEnMin= 4 EnMin= -226.187409215921     IErMin= 4 ErrMin= 1.69D-03
 ErrMax= 1.69D-03  0.00D+00 EMaxC= 1.00D-01 BMatC= 1.39D-03 BMatP= 1.04D-02
 IDIUse=3 WtCom= 9.83D-01 WtEn= 1.69D-02
 Coeff-Com: -0.660D-01 0.163D+00 0.333D+00 0.570D+00
 Coeff-En:   0.000D+00 0.000D+00 0.703D-01 0.930D+00
 Coeff:     -0.649D-01 0.160D+00 0.329D+00 0.576D+00
 Gap=     0.281 Goal=   None    Shift=    0.000
 RMSDP=1.01D-04 MaxDP=6.53D-03 DE=-7.92D-03 OVMax= 1.01D-02

 Cycle   5  Pass 1  IDiag  1:
 RMSU=  6.86D-05    CP:  9.52D-01  8.38D-01  9.59D-01  7.51D-01
 E= -226.188589194402     Delta-E=       -0.001179978480 Rises=F Damp=F
 DIIS: error= 3.03D-04 at cycle   5 NSaved=   5.
 NSaved= 5 IEnMin= 5 EnMin= -226.188589194402     IErMin= 5 ErrMin= 3.03D-04
 ErrMax= 3.03D-04  0.00D+00 EMaxC= 1.00D-01 BMatC= 2.55D-05 BMatP= 1.39D-03
 IDIUse=3 WtCom= 9.97D-01 WtEn= 3.03D-03
 Coeff-Com: -0.159D-01 0.315D-01 0.818D-01 0.197D+00 0.705D+00
 Coeff-En:   0.000D+00 0.000D+00 0.000D+00 0.000D+00 0.100D+01
 Coeff:     -0.158D-01 0.315D-01 0.815D-01 0.196D+00 0.706D+00
 Gap=     0.281 Goal=   None    Shift=    0.000
 RMSDP=1.54D-05 MaxDP=8.44D-04 DE=-1.18D-03 OVMax= 2.24D-03

 Cycle   6  Pass 1  IDiag  1:
 RMSU=  1.41D-05    CP:  9.52D-01  8.37D-01  9.64D-01  7.69D-01  9.48D-01
 E= -226.188609171656     Delta-E=       -0.000019977255 Rises=F Damp=F
 DIIS: error= 9.20D-05 at cycle   6 NSaved=   6.
 NSaved= 6 IEnMin= 6 EnMin= -226.188609171656     IErMin= 6 ErrMin= 9.20D-05
 ErrMax= 9.20D-05  0.00D+00 EMaxC= 1.00D-01 BMatC= 4.43D-06 BMatP= 2.55D-05
 IDIUse=1 WtCom= 1.00D+00 WtEn= 0.00D+00
 Coeff-Com: -0.420D-02 0.641D-02 0.224D-01 0.633D-01 0.352D+00 0.560D+00
 Coeff:     -0.420D-02 0.641D-02 0.224D-01 0.633D-01 0.352D+00 0.560D+00
 Gap=     0.281 Goal=   None    Shift=    0.000
 RMSDP=7.17D-06 MaxDP=5.80D-04 DE=-2.00D-05 OVMax= 9.53D-04

 Cycle   7  Pass 1  IDiag  1:
 RMSU=  4.54D-06    CP:  9.52D-01  8.33D-01  9.66D-01  7.70D-01  9.84D-01
                    CP:  9.73D-01
 E= -226.188613314764     Delta-E=       -0.000004143108 Rises=F Damp=F
 DIIS: error= 1.84D-05 at cycle   7 NSaved=   7.
 NSaved= 7 IEnMin= 7 EnMin= -226.188613314764     IErMin= 7 ErrMin= 1.84D-05
 ErrMax= 1.84D-05  0.00D+00 EMaxC= 1.00D-01 BMatC= 1.55D-07 BMatP= 4.43D-06
 IDIUse=1 WtCom= 1.00D+00 WtEn= 0.00D+00
 Coeff-Com:  0.197D-02-0.416D-02-0.837D-02-0.223D-01-0.538D-01 0.801D-01
 Coeff-Com:  0.101D+01
 Coeff:      0.197D-02-0.416D-02-0.837D-02-0.223D-01-0.538D-01 0.801D-01
 Coeff:      0.101D+01
 Gap=     0.281 Goal=   None    Shift=    0.000
 RMSDP=4.29D-06 MaxDP=3.09D-04 DE=-4.14D-06 OVMax= 2.35D-04

 Cycle   8  Pass 1  IDiag  1:
 RMSU=  1.21D-06    CP:  9.52D-01  8.31D-01  9.69D-01  7.69D-01  1.01D+00
                    CP:  1.11D+00  1.15D+00
 E= -226.188613541830     Delta-E=       -0.000000227066 Rises=F Damp=F
 DIIS: error= 4.67D-06 at cycle   8 NSaved=   8.
 NSaved= 8 IEnMin= 8 EnMin= -226.188613541830     IErMin= 8 ErrMin= 4.67D-06
 ErrMax= 4.67D-06  0.00D+00 EMaxC= 1.00D-01 BMatC= 1.30D-08 BMatP= 1.55D-07
 IDIUse=1 WtCom= 1.00D+00 WtEn= 0.00D+00
 Coeff-Com:  0.748D-03-0.152D-02-0.299D-02-0.890D-02-0.251D-01 0.122D-01
 Coeff-Com:  0.337D+00 0.688D+00
 Coeff:      0.748D-03-0.152D-02-0.299D-02-0.890D-02-0.251D-01 0.122D-01
 Coeff:      0.337D+00 0.688D+00
 Gap=     0.281 Goal=   None    Shift=    0.000
 RMSDP=4.33D-07 MaxDP=2.26D-05 DE=-2.27D-07 OVMax= 5.37D-05

 Cycle   9  Pass 1  IDiag  1:
 RMSU=  2.80D-07    CP:  9.52D-01  8.31D-01  9.69D-01  7.69D-01  1.01D+00
                    CP:  1.11D+00  1.19D+00  1.10D+00
 E= -226.188613553901     Delta-E=       -0.000000012071 Rises=F Damp=F
 DIIS: error= 3.20D-06 at cycle   9 NSaved=   9.
 NSaved= 9 IEnMin= 9 EnMin= -226.188613553901     IErMin= 9 ErrMin= 3.20D-06
 ErrMax= 3.20D-06  0.00D+00 EMaxC= 1.00D-01 BMatC= 3.11D-09 BMatP= 1.30D-08
 IDIUse=1 WtCom= 1.00D+00 WtEn= 0.00D+00
 Coeff-Com: -0.113D-03 0.249D-03 0.702D-03 0.107D-02 0.120D-02-0.134D-01
 Coeff-Com: -0.843D-01 0.311D+00 0.784D+00
 Coeff:     -0.113D-03 0.249D-03 0.702D-03 0.107D-02 0.120D-02-0.134D-01
 Coeff:     -0.843D-01 0.311D+00 0.784D+00
 Gap=     0.281 Goal=   None    Shift=    0.000
 RMSDP=2.27D-07 MaxDP=1.56D-05 DE=-1.21D-08 OVMax= 2.02D-05

 Cycle  10  Pass 1  IDiag  1:
 RMSU=  1.12D-07    CP:  9.52D-01  8.31D-01  9.69D-01  7.68D-01  1.01D+00
                    CP:  1.11D+00  1.19D+00  1.24D+00  1.05D+00
 E= -226.188613557001     Delta-E=       -0.000000003101 Rises=F Damp=F
 DIIS: error= 3.46D-07 at cycle  10 NSaved=  10.
 NSaved=10 IEnMin=10 EnMin= -226.188613557001     IErMin=10 ErrMin= 3.46D-07
 ErrMax= 3.46D-07  0.00D+00 EMaxC= 1.00D-01 BMatC= 6.44D-11 BMatP= 3.11D-09
 IDIUse=1 WtCom= 1.00D+00 WtEn= 0.00D+00
 Coeff-Com: -0.478D-04 0.102D-03 0.262D-03 0.521D-03 0.130D-02-0.174D-02
 Coeff-Com: -0.279D-01 0.133D-01 0.874D-01 0.927D+00
 Coeff:     -0.478D-04 0.102D-03 0.262D-03 0.521D-03 0.130D-02-0.174D-02
 Coeff:     -0.279D-01 0.133D-01 0.874D-01 0.927D+00
 Gap=     0.281 Goal=   None    Shift=    0.000
 RMSDP=4.17D-08 MaxDP=3.19D-06 DE=-3.10D-09 OVMax= 4.61D-06

 Cycle  11  Pass 1  IDiag  1:
 RMSU=  2.09D-08    CP:  9.52D-01  8.31D-01  9.69D-01  7.68D-01  1.01D+00
                    CP:  1.11D+00  1.19D+00  1.26D+00  1.10D+00  1.11D+00
 E= -226.188613557062     Delta-E=       -0.000000000061 Rises=F Damp=F
 DIIS: error= 2.99D-07 at cycle  11 NSaved=  11.
 NSaved=11 IEnMin=11 EnMin= -226.188613557062     IErMin=11 ErrMin= 2.99D-07
 ErrMax= 2.99D-07  0.00D+00 EMaxC= 1.00D-01 BMatC= 1.57D-11 BMatP= 6.44D-11
 IDIUse=1 WtCom= 1.00D+00 WtEn= 0.00D+00
 Coeff-Com: -0.672D-05 0.141D-04 0.436D-04 0.862D-04 0.326D-03 0.418D-03
 Coeff-Com: -0.424D-02-0.174D-01-0.317D-01 0.396D+00 0.657D+00
 Coeff:     -0.672D-05 0.141D-04 0.436D-04 0.862D-04 0.326D-03 0.418D-03
 Coeff:     -0.424D-02-0.174D-01-0.317D-01 0.396D+00 0.657D+00
 Gap=     0.281 Goal=   None    Shift=    0.000
 RMSDP=1.17D-08 MaxDP=6.92D-07 DE=-6.12D-11 OVMax= 1.88D-06

 Cycle  12  Pass 1  IDiag  1:
 RMSU=  9.10D-09    CP:  9.52D-01  8.31D-01  9.69D-01  7.68D-01  1.01D+00
                    CP:  1.11D+00  1.19D+00  1.26D+00  1.10D+00  1.15D+00
                    CP:  9.38D-01
 E= -226.188613557082     Delta-E=       -0.000000000020 Rises=F Damp=F
 DIIS: error= 6.33D-08 at cycle  12 NSaved=  12.
 NSaved=12 IEnMin=12 EnMin= -226.188613557082     IErMin=12 ErrMin= 6.33D-08
 ErrMax= 6.33D-08  0.00D+00 EMaxC= 1.00D-01 BMatC= 1.80D-12 BMatP= 1.57D-11
 IDIUse=1 WtCom= 1.00D+00 WtEn= 0.00D+00
 Coeff-Com:  0.362D-05-0.773D-05-0.144D-04-0.314D-04-0.254D-04 0.420D-03
 Coeff-Com:  0.193D-02-0.691D-02-0.256D-01 0.380D-02 0.262D+00 0.764D+00
 Coeff:      0.362D-05-0.773D-05-0.144D-04-0.314D-04-0.254D-04 0.420D-03
 Coeff:      0.193D-02-0.691D-02-0.256D-01 0.380D-02 0.262D+00 0.764D+00
 Gap=     0.281 Goal=   None    Shift=    0.000
 RMSDP=4.38D-09 MaxDP=2.12D-07 DE=-1.97D-11 OVMax= 4.09D-07

 SCF Done:  E(RM062X) =  -226.188613557     A.U. after   12 cycles
            NFock= 12  Conv=0.44D-08     -V/T= 2.0053
 KE= 2.249940570335D+02 PE=-8.483781062232D+02 EE= 2.362279406640D+02
 Leave Link  502 at Thu Dec 15 14:40:27 2022, MaxMem=  1342177280 cpu:             847.5 elap:              53.1
 (Enter /data0/home/software/g16/l601.exe)
 Copying SCF densities to generalized density rwf, IOpCl= 0 IROHF=0.

 **********************************************************************

            Population analysis using the SCF density.

 **********************************************************************

 Alpha  occ. eigenvalues --  -14.81544 -14.73557 -10.60427 -10.57691 -10.55852
 Alpha  occ. eigenvalues --   -1.11722  -0.96841  -0.83701  -0.70002  -0.67015
 Alpha  occ. eigenvalues --   -0.64214  -0.51449  -0.50711  -0.49944  -0.47975
 Alpha  occ. eigenvalues --   -0.34496  -0.34126  -0.28488
 Alpha virt. eigenvalues --   -0.00395   0.02163   0.02291   0.03239   0.04412
 Alpha virt. eigenvalues --    0.04886   0.05410   0.05880   0.06259   0.06629
 Alpha virt. eigenvalues --    0.07667   0.08468   0.10076   0.10360   0.11144
 Alpha virt. eigenvalues --    0.11956   0.13072   0.13954   0.14734   0.14838
 Alpha virt. eigenvalues --    0.15494   0.16335   0.17379   0.18013   0.18974
 Alpha virt. eigenvalues --    0.19670   0.20176   0.21159   0.21227   0.21934
 Alpha virt. eigenvalues --    0.22107   0.22811   0.23594   0.24167   0.24544
 Alpha virt. eigenvalues --    0.25615   0.26002   0.26394   0.26922   0.27926
 Alpha virt. eigenvalues --    0.28634   0.29348   0.29590   0.30493   0.31179
 Alpha virt. eigenvalues --    0.31594   0.31947   0.32324   0.33359   0.33583
 Alpha virt. eigenvalues --    0.34756   0.35614   0.35800   0.36069   0.37616
 Alpha virt. eigenvalues --    0.38387   0.38953   0.39859   0.40917   0.41669
 Alpha virt. eigenvalues --    0.42499   0.43063   0.44242   0.45235   0.46423
 Alpha virt. eigenvalues --    0.46948   0.48267   0.49315   0.50995   0.51493
 Alpha virt. eigenvalues --    0.53694   0.58168   0.58775   0.61918   0.62574
 Alpha virt. eigenvalues --    0.64149   0.65327   0.65740   0.68024   0.68292
 Alpha virt. eigenvalues --    0.69789   0.70708   0.71906   0.72276   0.73128
 Alpha virt. eigenvalues --    0.73418   0.74585   0.76557   0.76812   0.77914
 Alpha virt. eigenvalues --    0.78138   0.79371   0.80012   0.80410   0.81163
 Alpha virt. eigenvalues --    0.81499   0.81969   0.84069   0.84243   0.84926
 Alpha virt. eigenvalues --    0.85576   0.86666   0.88214   0.88863   0.89867
 Alpha virt. eigenvalues --    0.90956   0.92154   0.93702   0.94143   0.94785
 Alpha virt. eigenvalues --    0.96471   0.97041   0.98205   0.99188   0.99943
 Alpha virt. eigenvalues --    1.01514   1.02164   1.03050   1.04982   1.07249
 Alpha virt. eigenvalues --    1.07826   1.08256   1.09966   1.11309   1.13264
 Alpha virt. eigenvalues --    1.13384   1.14342   1.17228   1.20538   1.21164
 Alpha virt. eigenvalues --    1.23681   1.24141   1.25487   1.27809   1.29608
 Alpha virt. eigenvalues --    1.32008   1.33387   1.34355   1.35668   1.37826
 Alpha virt. eigenvalues --    1.38780   1.40759   1.42831   1.43644   1.44482
 Alpha virt. eigenvalues --    1.47161   1.47419   1.50049   1.52605   1.53768
 Alpha virt. eigenvalues --    1.58916   1.62975   1.68348   1.69579   1.72962
 Alpha virt. eigenvalues --    1.76741   1.78353   1.79704   1.82602   1.84535
 Alpha virt. eigenvalues --    1.88681   1.90365   1.90770   1.94370   1.96194
 Alpha virt. eigenvalues --    1.97064   1.98866   2.02271   2.03130   2.03764
 Alpha virt. eigenvalues --    2.04871   2.08265   2.10319   2.13106   2.16361
 Alpha virt. eigenvalues --    2.18657   2.18965   2.19453   2.22892   2.24271
 Alpha virt. eigenvalues --    2.28498   2.30786   2.32994   2.35144   2.37536
 Alpha virt. eigenvalues --    2.38664   2.39539   2.42473   2.43638   2.45132
 Alpha virt. eigenvalues --    2.45453   2.47013   2.47969   2.48831   2.50292
 Alpha virt. eigenvalues --    2.51693   2.52579   2.53002   2.54359   2.56257
 Alpha virt. eigenvalues --    2.59710   2.60519   2.62170   2.63588   2.64493
 Alpha virt. eigenvalues --    2.65162   2.67809   2.68495   2.70270   2.72251
 Alpha virt. eigenvalues --    2.73319   2.73801   2.75069   2.76499   2.77864
 Alpha virt. eigenvalues --    2.80816   2.81496   2.82438   2.84330   2.85443
 Alpha virt. eigenvalues --    2.88004   2.88874   2.90302   2.91259   2.93021
 Alpha virt. eigenvalues --    2.93395   2.95094   2.96555   2.97058   2.98834
 Alpha virt. eigenvalues --    3.00176   3.00780   3.02258   3.04352   3.06692
 Alpha virt. eigenvalues --    3.07766   3.09098   3.10932   3.12917   3.15291
 Alpha virt. eigenvalues --    3.17085   3.17809   3.21328   3.22750   3.24914
 Alpha virt. eigenvalues --    3.27315   3.29241   3.31257   3.35009   3.36286
 Alpha virt. eigenvalues --    3.37219   3.39334   3.41307   3.42137   3.43720
 Alpha virt. eigenvalues --    3.44755   3.46764   3.48764   3.49326   3.51505
 Alpha virt. eigenvalues --    3.56519   3.57643   3.59982   3.61342   3.62966
 Alpha virt. eigenvalues --    3.68309   3.69762   3.72168   3.73759   3.75929
 Alpha virt. eigenvalues --    3.80617   3.81453   3.87184   3.97705   4.00643
 Alpha virt. eigenvalues --    4.01457   4.04815   4.15640   4.44057   4.49137
 Alpha virt. eigenvalues --    4.49758   4.50400   4.54640   4.59900   4.63346
 Alpha virt. eigenvalues --    4.64625   4.66914   4.75137   4.92729   4.94230
 Alpha virt. eigenvalues --    4.95425   4.98168   4.98881   5.00564   5.04167
 Alpha virt. eigenvalues --    5.04624   5.06755   5.09815   5.13567   5.22231
 Alpha virt. eigenvalues --    5.26241   5.28180   5.35514   5.53579   5.55521
 Alpha virt. eigenvalues --    5.60819   9.66729   9.67651   9.69614   9.70680
 Alpha virt. eigenvalues --    9.74830   9.78271   9.80626   9.80867   9.83462
 Alpha virt. eigenvalues --    9.86328   9.86751   9.91286   9.97692  10.00204
 Alpha virt. eigenvalues --   10.01738  10.05093  10.05770  10.09717  10.14463
 Alpha virt. eigenvalues --   10.20354  10.21411  10.23636  10.29515  10.31877
 Alpha virt. eigenvalues --   10.35360  10.40798  10.44505  10.47021  10.53512
 Alpha virt. eigenvalues --   10.60995  10.64934  10.66942  10.88296  12.67353
 Alpha virt. eigenvalues --   12.80395  12.81040  12.85944  13.01863  13.04628
 Alpha virt. eigenvalues --   13.07991  13.18160  13.18826  13.24817  13.35665
 Alpha virt. eigenvalues --   13.41081  13.46588  13.53521  13.61791  13.64666
 Alpha virt. eigenvalues --   13.76242  13.95525  14.21448  17.34331  17.52517
 Alpha virt. eigenvalues --   17.56232  18.00331  18.21081  18.57547  23.93100
 Alpha virt. eigenvalues --   24.10588  24.14307  35.66628  35.71804  52.82498
 Alpha virt. eigenvalues --   52.87276  52.98679  70.60290 130.23994 133.25623
 Alpha virt. eigenvalues --  134.46912 137.08660 138.66949 139.78394 481.63654
          Condensed to atoms (all electrons):
               1          2          3          4          5          6
     1  C    5.538574   0.288091  -0.319757   0.382386  -0.046508   0.390198
     2  C    0.288091   5.307140  -0.116550  -0.174916   0.023000  -0.003685
     3  C   -0.319757  -0.116550   5.563074   0.237370  -0.021847   0.007613
     4  N    0.382386  -0.174916   0.237370   6.322497   0.371825  -0.033509
     5  H   -0.046508   0.023000  -0.021847   0.371825   0.402488  -0.002017
     6  H    0.390198  -0.003685   0.007613  -0.033509  -0.002017   0.503457
     7  H   -0.066607   0.441544   0.016207   0.007604   0.000009  -0.000073
     8  H    0.004900   0.015795   0.428737  -0.053774   0.000078  -0.000036
     9  N    0.003960   0.268855   0.355767   0.044156  -0.000004   0.003079
    10  P   -0.004591  -0.005091  -0.002506  -0.014165   0.001249   0.000223
    11  O    0.000341   0.003878  -0.009494   0.013633  -0.000608  -0.000052
    12  O   -0.000582   0.008913  -0.016259   0.004680  -0.000043   0.000003
    13  H   -0.001841  -0.004453   0.009399  -0.001369   0.000023   0.000005
    14  O    0.002287  -0.000345   0.002571  -0.002474   0.000089  -0.000003
    15  H   -0.000020   0.000067  -0.000248   0.000039  -0.000001   0.000000
    16  O    0.018470   0.007016  -0.009286  -0.004464  -0.000348  -0.000643
    17  H   -0.030005  -0.015046   0.012925   0.005711  -0.000074   0.000361
    18  O    0.006659   0.005520  -0.024108   0.002698  -0.000076  -0.000022
    19  H   -0.004543   0.002146   0.012793  -0.001826   0.000054   0.000020
    20  H   -0.000392  -0.000336   0.000699  -0.000125   0.000011   0.000001
    21  O   -0.001737   0.005142  -0.007301   0.026763  -0.002002  -0.000112
    22  H    0.000236  -0.000578   0.001265  -0.002495   0.000135   0.000027
    23  H   -0.001311  -0.001322   0.003175  -0.006930   0.000807   0.000035
               7          8          9         10         11         12
     1  C   -0.066607   0.004900   0.003960  -0.004591   0.000341  -0.000582
     2  C    0.441544   0.015795   0.268855  -0.005091   0.003878   0.008913
     3  C    0.016207   0.428737   0.355767  -0.002506  -0.009494  -0.016259
     4  N    0.007604  -0.053774   0.044156  -0.014165   0.013633   0.004680
     5  H    0.000009   0.000078  -0.000004   0.001249  -0.000608  -0.000043
     6  H   -0.000073  -0.000036   0.003079   0.000223  -0.000052   0.000003
     7  H    0.525370  -0.000009  -0.051294  -0.000364   0.000008  -0.000095
     8  H   -0.000009   0.495609  -0.045981  -0.001456  -0.000957   0.000393
     9  N   -0.051294  -0.045981   6.638381  -0.012999   0.014107   0.010832
    10  P   -0.000364  -0.001456  -0.012999   0.025018  -0.007459  -0.005042
    11  O    0.000008  -0.000957   0.014107  -0.007459   0.013490   0.004148
    12  O   -0.000095   0.000393   0.010832  -0.005042   0.004148   0.014521
    13  H    0.000197  -0.000105  -0.006114   0.002442  -0.001621  -0.006142
    14  O    0.000000  -0.000048  -0.001121  -0.013548  -0.001845  -0.003856
    15  H    0.000000   0.000001   0.000035   0.000980   0.000007   0.000303
    16  O    0.000125   0.000006   0.000703  -0.003516   0.000241   0.000249
    17  H   -0.000097  -0.000029   0.002450   0.001302   0.000202  -0.000333
    18  O   -0.000582   0.000778   0.026635  -0.002529   0.001110   0.004041
    19  H    0.000510  -0.000109  -0.027772   0.001004  -0.000305  -0.001316
    20  H    0.000052  -0.000160  -0.001459   0.000150   0.000251   0.000009
    21  O   -0.000016   0.000011   0.001999  -0.002622   0.004924   0.000422
    22  H    0.000000  -0.000008  -0.000130   0.000289  -0.000560  -0.000029
    23  H    0.000004   0.000609  -0.000375   0.001466  -0.002870  -0.000168
              13         14         15         16         17         18
     1  C   -0.001841   0.002287  -0.000020   0.018470  -0.030005   0.006659
     2  C   -0.004453  -0.000345   0.000067   0.007016  -0.015046   0.005520
     3  C    0.009399   0.002571  -0.000248  -0.009286   0.012925  -0.024108
     4  N   -0.001369  -0.002474   0.000039  -0.004464   0.005711   0.002698
     5  H    0.000023   0.000089  -0.000001  -0.000348  -0.000074  -0.000076
     6  H    0.000005  -0.000003   0.000000  -0.000643   0.000361  -0.000022
     7  H    0.000197   0.000000   0.000000   0.000125  -0.000097  -0.000582
     8  H   -0.000105  -0.000048   0.000001   0.000006  -0.000029   0.000778
     9  N   -0.006114  -0.001121   0.000035   0.000703   0.002450   0.026635
    10  P    0.002442  -0.013548   0.000980  -0.003516   0.001302  -0.002529
    11  O   -0.001621  -0.001845   0.000007   0.000241   0.000202   0.001110
    12  O   -0.006142  -0.003856   0.000303   0.000249  -0.000333   0.004041
    13  H    0.004577   0.000975  -0.000060  -0.000114   0.000413  -0.004441
    14  O    0.000975   0.015506  -0.001192   0.002245  -0.000870  -0.000196
    15  H   -0.000060  -0.001192   0.000189  -0.000089   0.000014   0.000009
    16  O   -0.000114   0.002245  -0.000089   0.005651  -0.004597   0.000255
    17  H    0.000413  -0.000870   0.000014  -0.004597   0.006395  -0.000453
    18  O   -0.004441  -0.000196   0.000009   0.000255  -0.000453   0.012311
    19  H    0.001595   0.000048  -0.000001  -0.000085   0.000173  -0.006401
    20  H    0.000511   0.000011   0.000000   0.000007   0.000028  -0.002767
    21  O   -0.000104  -0.001133   0.000016   0.000168  -0.000071   0.000140
    22  H    0.000004   0.000181  -0.000002  -0.000003  -0.000002  -0.000004
    23  H    0.000063   0.000486  -0.000006  -0.000131   0.000107  -0.000084
              19         20         21         22         23
     1  C   -0.004543  -0.000392  -0.001737   0.000236  -0.001311
     2  C    0.002146  -0.000336   0.005142  -0.000578  -0.001322
     3  C    0.012793   0.000699  -0.007301   0.001265   0.003175
     4  N   -0.001826  -0.000125   0.026763  -0.002495  -0.006930
     5  H    0.000054   0.000011  -0.002002   0.000135   0.000807
     6  H    0.000020   0.000001  -0.000112   0.000027   0.000035
     7  H    0.000510   0.000052  -0.000016   0.000000   0.000004
     8  H   -0.000109  -0.000160   0.000011  -0.000008   0.000609
     9  N   -0.027772  -0.001459   0.001999  -0.000130  -0.000375
    10  P    0.001004   0.000150  -0.002622   0.000289   0.001466
    11  O   -0.000305   0.000251   0.004924  -0.000560  -0.002870
    12  O   -0.001316   0.000009   0.000422  -0.000029  -0.000168
    13  H    0.001595   0.000511  -0.000104   0.000004   0.000063
    14  O    0.000048   0.000011  -0.001133   0.000181   0.000486
    15  H   -0.000001   0.000000   0.000016  -0.000002  -0.000006
    16  O   -0.000085   0.000007   0.000168  -0.000003  -0.000131
    17  H    0.000173   0.000028  -0.000071  -0.000002   0.000107
    18  O   -0.006401  -0.002767   0.000140  -0.000004  -0.000084
    19  H    0.004760   0.001101  -0.000036   0.000001   0.000015
    20  H    0.001101   0.001747  -0.000030   0.000001   0.000022
    21  O   -0.000036  -0.000030   0.030525  -0.007223  -0.010969
    22  H    0.000001   0.000001  -0.007223   0.002558   0.002240
    23  H    0.000015   0.000022  -0.010969   0.002240   0.005252
 Mulliken charges:
               1
     1  C   -0.158207
     2  C   -0.054788
     3  C   -0.124240
     4  N   -0.123315
     5  H    0.273761
     6  H    0.135127
     7  H    0.127508
     8  H    0.155754
     9  N   -0.223710
    10  P    0.041766
    11  O   -0.030571
    12  O   -0.014650
    13  H    0.006159
    14  O    0.002233
    15  H   -0.000041
    16  O   -0.011861
    17  H    0.021497
    18  O   -0.018495
    19  H    0.018176
    20  H    0.000670
    21  O   -0.036754
    22  H    0.004100
    23  H    0.009883
 Sum of Mulliken charges =  -0.00000
 Mulliken charges with hydrogens summed into heavy atoms:
               1
     1  C   -0.023080
     2  C    0.072720
     3  C    0.031514
     4  N    0.150446
     9  N   -0.223710
    10  P    0.041766
    11  O   -0.030571
    12  O   -0.008492
    14  O    0.002192
    16  O    0.009636
    18  O    0.000351
    21  O   -0.022771
         Mulliken charges condensed to fragments:
      1      0.007889
      2      0.014531
      3      0.000351
      4     -0.022771
 Electronic spatial extent (au):  <R**2>=          36518.3858
 Charge=              0.0000 electrons
 Dipole moment (field-independent basis, Debye):
    X=              0.5723    Y=              3.6838    Z=             -0.0460  Tot=              3.7282
 Quadrupole moment (field-independent basis, Debye-Ang):
   XX=            -15.3700   YY=             40.4540   ZZ=            -31.0144
   XY=             42.6663   XZ=              1.2895   YZ=             36.1395
 Traceless Quadrupole moment (field-independent basis, Debye-Ang):
   XX=            -13.3932   YY=             42.4308   ZZ=            -29.0376
   XY=             42.6663   XZ=              1.2895   YZ=             36.1395
 Octapole moment (field-independent basis, Debye-Ang**2):
  XXX=           -585.1933  YYY=            187.6447  ZZZ=           -939.9692  XYY=            478.9210
  XXY=            233.3469  XXZ=           -240.7846  XZZ=           -316.6543  YZZ=             72.4603
  YYZ=            390.5009  XYZ=            382.9059
 Hexadecapole moment (field-independent basis, Debye-Ang**3):
 XXXX=         -12084.4573 YYYY=          -2325.8512 ZZZZ=         -19274.8200 XXXY=          -1669.2516
 XXXZ=          -7147.4313 YYYX=           2902.6280 YYYZ=           1625.1149 ZZZX=          -9501.5557
 ZZZY=          -5204.9694 XXYY=           3119.4230 XXZZ=          -6013.9955 YYZZ=           1079.0781
 XXYZ=           1498.9810 YYXZ=           4316.1570 ZZXY=            718.7994
 N-N= 1.609674949687D+02 E-N=-8.483781099341D+02  KE= 2.249940570335D+02
 No NMR shielding tensors so no spin-rotation constants.
 Leave Link  601 at Thu Dec 15 14:40:27 2022, MaxMem=  1342177280 cpu:               1.7 elap:               0.1
 (Enter /data0/home/software/g16/l122.exe)
 CPIOFr:  IOpCl= 0 IRwI=-1 IRwCP=  731 ICalc=  1 LCPTot=      244414 Len1MO=      641874 IndFrg=     1528162
 Counterpoise: doing calculation for fragment   2 using the basis set of the full-system, NewBq=T
 Leave Link  122 at Thu Dec 15 14:40:27 2022, MaxMem=  1342177280 cpu:               0.1 elap:               0.0
 (Enter /data0/home/software/g16/l301.exe)
 Basis read from rwf:  (5D, 7F)
 No pseudopotential information found on rwf file.
   398 basis functions,   606 primitive gaussians,   422 cartesian basis functions
    25 alpha electrons       25 beta electrons
       nuclear repulsion energy       280.2317768445 Hartrees.
 IExCor= 4336 DFT=T Ex+Corr=M062X ExCW=0 ScaHFX=  0.540000
 ScaDFX=  1.000000  1.000000  1.000000  1.000000 ScalE2=  1.000000  1.000000
 IRadAn=      5 IRanWt=     -1 IRanGd=            0 ICorTp=0 IEmpDi=131
 NAtoms=   23 NActive=   23 NUniq=   23 SFac= 1.00D+00 NAtFMM=   60 NAOKFM=F Big=F
 Integral buffers will be    131072 words long.
 Raffenetti 2 integral format.
 Two-electron integral symmetry is turned off.
 R6Disp:  Grimme-D3 Dispersion energy=       -0.0000442898 Hartrees.
 Nuclear repulsion after empirical dispersion term =      280.2317325548 Hartrees.
 No density basis found on file   718.
 Leave Link  301 at Thu Dec 15 14:40:27 2022, MaxMem=  1342177280 cpu:               0.8 elap:               0.1
 (Enter /data0/home/software/g16/l302.exe)
 NPDir=0 NMtPBC=     1 NCelOv=     1 NCel=       1 NClECP=     1 NCelD=      1
         NCelK=      1 NCelE2=     1 NClLst=     1 CellRange=     0.0.
 One-electron integrals computed using PRISM.
 NBasis=   398 RedAO= T EigKep=  3.04D-05  NBF=   398
 NBsUse=   398 1.00D-06 EigRej= -1.00D+00 NBFU=   398
 Precomputing XC quadrature grid using
 IXCGrd= 4 IRadAn=           5 IRanWt=          -1 IRanGd=           0 AccXCQ= 0.00D+00.
 Generated NRdTot=       0 NPtTot=           0 NUsed=           0 NTot=          32
 NSgBfM=   422   422   422   422   422 MxSgAt=    23 MxSgA2=    23.
 Leave Link  302 at Thu Dec 15 14:40:28 2022, MaxMem=  1342177280 cpu:               4.4 elap:               0.3
 (Enter /data0/home/software/g16/l303.exe)
 DipDrv:  MaxL=1.
 Leave Link  303 at Thu Dec 15 14:40:28 2022, MaxMem=  1342177280 cpu:               0.6 elap:               0.1
 (Enter /data0/home/software/g16/l401.exe)
 ExpMin= 3.48D-02 ExpMax= 7.75D+04 ExpMxC= 2.65D+03 IAcc=3 IRadAn=         5 AccDes= 0.00D+00
 Harris functional with IExCor= 1009 and IRadAn=       5 diagonalized for initial guess.
 HarFok:  IExCor= 1009 AccDes= 0.00D+00 IRadAn=         5 IDoV= 1 UseB2=F ITyADJ=14
 ICtDFT=  3500011 ScaDFX=  1.000000  1.000000  1.000000  1.000000
 FoFCou: FMM=F IPFlag=           0 FMFlag=      100000 FMFlg1=           0
         NFxFlg=           0 DoJE=T BraDBF=F KetDBF=T FulRan=T
         wScrn=  0.000000 ICntrl=       500 IOpCl=  0 I1Cent=   200000004 NGrid=           0
         NMat0=    1 NMatS0=      1 NMatT0=    0 NMatD0=    1 NMtDS0=    0 NMtDT0=    0
 Symmetry not used in FoFCou.
 Harris En= -643.944814605922    
 JPrj=0 DoOrth=F DoCkMO=F.
 Leave Link  401 at Thu Dec 15 14:40:29 2022, MaxMem=  1342177280 cpu:              20.3 elap:               1.3
 (Enter /data0/home/software/g16/l502.exe)
 Two-electron integral symmetry not used.
 Closed shell SCF:
 Using DIIS extrapolation, IDIIS=  1040.
[...]
 Alpha virt. eigenvalues --    5.05585   5.46730   5.88540   6.78404   6.80204
 Alpha virt. eigenvalues --    6.87361   6.91324   7.10221  49.94864
          Condensed to atoms (all electrons):
              18         19         20
    18  O    7.925128   0.313135   0.319351
    19  H    0.313135   0.428798  -0.023493
    20  H    0.319351  -0.023493   0.428088
 Mulliken charges:
               1
     1  C    0.000000
     2  C    0.000000
     3  C    0.000000
     4  N    0.000000
     5  H    0.000000
     6  H    0.000000
     7  H    0.000000
     8  H    0.000000
     9  N    0.000000
    10  P    0.000000
    11  O    0.000000
    12  O    0.000000
    13  H    0.000000
    14  O    0.000000
    15  H    0.000000
    16  O    0.000000
    17  H    0.000000
    18  O   -0.557614
    19  H    0.281560
    20  H    0.276054
    21  O    0.000000
    22  H    0.000000
    23  H    0.000000
 Sum of Mulliken charges =  -0.00000
 Mulliken charges with hydrogens summed into heavy atoms:
               1
     1  C    0.000000
     2  C    0.000000
     3  C    0.000000
     4  N    0.000000
     9  N    0.000000
    10  P    0.000000
    11  O    0.000000
    12  O    0.000000
    14  O    0.000000
    16  O    0.000000
    18  O   -0.000000
    21  O    0.000000
         Mulliken charges condensed to fragments:
      1      0.000000
      2      0.000000
      3     -0.000000
      4      0.000000
 Electronic spatial extent (au):  <R**2>=           9950.6004
 Charge=             -0.0000 electrons
 Dipole moment (field-independent basis, Debye):
    X=             -0.2943    Y=              1.2222    Z=             -1.7234  Tot=              2.1331
 Quadrupole moment (field-independent basis, Debye-Ang):
   XX=            -11.1346   YY=              7.7995   ZZ=            -43.6704
   XY=             11.3232   XZ=            -22.9413   YZ=              1.9395
 Traceless Quadrupole moment (field-independent basis, Debye-Ang):
   XX=              4.5339   YY=             23.4680   ZZ=            -28.0019
   XY=             11.3232   XZ=            -22.9413   YZ=              1.9395
 Octapole moment (field-independent basis, Debye-Ang**2):
  XXX=           -263.3000  YYY=              5.7868  ZZZ=           -811.7575  XYY=             69.5245
  XXY=             73.2357  XXZ=           -347.4639  XZZ=           -532.7468  YZZ=           -139.9654
  YYZ=             11.0278  XYZ=             -6.6067
 Hexadecapole moment (field-independent basis, Debye-Ang**3):
 XXXX=          -5075.7955 YYYY=           -497.9485 ZZZZ=         -13196.7458 XXXY=            -83.2667
 XXXZ=          -5461.8537 YYYX=            -64.2306 YYYZ=           -411.3004 ZZZX=          -9603.0285
 ZZZY=          -3673.1925 XXYY=            415.1941 XXZZ=          -7002.5592 YYZZ=           -913.6525
 XXYZ=           -688.4756 YYXZ=            -85.8133 ZZXY=          -1899.5466
 N-N= 9.016920199052D+00 E-N=-1.988710381165D+02  KE= 7.616403083376D+01
 No NMR shielding tensors so no spin-rotation constants.
 Leave Link  601 at Thu Dec 15 14:42:52 2022, MaxMem=  1342177280 cpu:               1.0 elap:               0.1
 (Enter /data0/home/software/g16/l122.exe)
 CPIOFr:  IOpCl= 0 IRwI=-1 IRwCP=  731 ICalc=  7 LCPTot=      244414 Len1MO=      641874 IndFrg=     5379406
 Counterpoise: doing calculation for fragment   4 using the basis set of the fragment.
 Leave Link  122 at Thu Dec 15 14:42:52 2022, MaxMem=  1342177280 cpu:               0.1 elap:               0.0
 (Enter /data0/home/software/g16/l301.exe)
 Basis read from rwf:  (5D, 7F)
 No pseudopotential information found on rwf file.
    39 basis functions,    58 primitive gaussians,    41 cartesian basis functions
     5 alpha electrons        5 beta electrons
       nuclear repulsion energy         9.1142262121 Hartrees.
 IExCor= 4336 DFT=T Ex+Corr=M062X ExCW=0 ScaHFX=  0.540000
 ScaDFX=  1.000000  1.000000  1.000000  1.000000 ScalE2=  1.000000  1.000000
 IRadAn=      5 IRanWt=     -1 IRanGd=            0 ICorTp=0 IEmpDi=131
 NAtoms=   23 NActive=    3 NUniq=    3 SFac= 1.00D+00 NAtFMM=   60 NAOKFM=F Big=F
 Integral buffers will be    131072 words long.
 Raffenetti 2 integral format.
 Two-electron integral symmetry is turned off.
 R6Disp:  Grimme-D3 Dispersion energy=       -0.0000000076 Hartrees.
 Nuclear repulsion after empirical dispersion term =        9.1142262045 Hartrees.
 No density basis found on file   718.
 Leave Link  301 at Thu Dec 15 14:42:52 2022, MaxMem=  1342177280 cpu:               0.8 elap:               0.1
 (Enter /data0/home/software/g16/l302.exe)
 NPDir=0 NMtPBC=     1 NCelOv=     1 NCel=       1 NClECP=     1 NCelD=      1
         NCelK=      1 NCelE2=     1 NClLst=     1 CellRange=     0.0.
 One-electron integrals computed using PRISM.
 NBasis=    39 RedAO= T EigKep=  3.02D-03  NBF=    39
 NBsUse=    39 1.00D-06 EigRej= -1.00D+00 NBFU=    39
 Precomputing XC quadrature grid using
 IXCGrd= 4 IRadAn=           5 IRanWt=          -1 IRanGd=           0 AccXCQ= 0.00D+00.
 Generated NRdTot=       0 NPtTot=           0 NUsed=           0 NTot=          32
 NSgBfM=    41    41    41    41    41 MxSgAt=     3 MxSgA2=     3.
 Leave Link  302 at Thu Dec 15 14:42:52 2022, MaxMem=  1342177280 cpu:               1.3 elap:               0.1
 (Enter /data0/home/software/g16/l303.exe)
 DipDrv:  MaxL=1.
 Leave Link  303 at Thu Dec 15 14:42:52 2022, MaxMem=  1342177280 cpu:               0.3 elap:               0.0
 (Enter /data0/home/software/g16/l401.exe)
 ExpMin= 8.45D-02 ExpMax= 8.59D+03 ExpMxC= 1.30D+03 IAcc=3 IRadAn=         5 AccDes= 0.00D+00
 Harris functional with IExCor= 1009 and IRadAn=       5 diagonalized for initial guess.
 HarFok:  IExCor= 1009 AccDes= 0.00D+00 IRadAn=         5 IDoV= 1 UseB2=F ITyADJ=14
 ICtDFT=  3500011 ScaDFX=  1.000000  1.000000  1.000000  1.000000
 FoFCou: FMM=F IPFlag=           0 FMFlag=      100000 FMFlg1=           0
         NFxFlg=           0 DoJE=T BraDBF=F KetDBF=T FulRan=T
         wScrn=  0.000000 ICntrl=       500 IOpCl=  0 I1Cent=   200000004 NGrid=           0
         NMat0=    1 NMatS0=      1 NMatT0=    0 NMatD0=    1 NMtDS0=    0 NMtDT0=    0
 Symmetry not used in FoFCou.
 Harris En= -76.4166426125955    
 JPrj=0 DoOrth=F DoCkMO=F.
 Leave Link  401 at Thu Dec 15 14:42:52 2022, MaxMem=  1342177280 cpu:               1.7 elap:               0.1
 (Enter /data0/home/software/g16/l502.exe)
 Keep R1 ints in memory in canonical form, NReq=14128852.
 FoFCou: FMM=F IPFlag=           0 FMFlag=           0 FMFlg1=           0
         NFxFlg=           0 DoJE=F BraDBF=F KetDBF=F FulRan=T
         wScrn=  0.000000 ICntrl=       600 IOpCl=  0 I1Cent=           0 NGrid=           0
         NMat0=    1 NMatS0=    780 NMatT0=    0 NMatD0=    1 NMtDS0=    0 NMtDT0=    0
 Symmetry not used in FoFCou.
 Two-electron integral symmetry not used.
 Closed shell SCF:
 Using DIIS extrapolation, IDIIS=  1040.
 NGot=  1342177280 LenX=  1341867582 LenY=  1341865460
 Requested convergence on RMS density matrix=1.00D-08 within 128 cycles.
 Requested convergence on MAX density matrix=1.00D-06.
 Requested convergence on             energy=1.00D-06.
 No special actions if energy rises.
 Integral accuracy reduced to 1.0D-05 until final iterations.

 Cycle   1  Pass 0  IDiag  1:
 E= -76.3462845449474    
 DIIS: error= 7.03D-02 at cycle   1 NSaved=   1.
 NSaved= 1 IEnMin= 1 EnMin= -76.3462845449474     IErMin= 1 ErrMin= 7.03D-02
 ErrMax= 7.03D-02  0.00D+00 EMaxC= 1.00D-01 BMatC= 1.21D-01 BMatP= 1.21D-01
 IDIUse=3 WtCom= 2.97D-01 WtEn= 7.03D-01
 Coeff-Com:  0.100D+01
 Coeff-En:   0.100D+01
 Coeff:      0.100D+01
 Gap=     0.325 Goal=   None    Shift=    0.000
 GapD=    0.325 DampG=1.000 DampE=0.500 DampFc=0.5000 IDamp=-1.
 Damping current iteration by 5.00D-01
 RMSDP=7.92D-03 MaxDP=1.01D-01              OVMax= 1.68D-01

 Cycle   2  Pass 0  IDiag  1:
 E= -76.3778011607942     Delta-E=       -0.031516615847 Rises=F Damp=T
 DIIS: error= 1.14D-02 at cycle   2 NSaved=   2.
 NSaved= 2 IEnMin= 2 EnMin= -76.3778011607942     IErMin= 2 ErrMin= 1.14D-02
 ErrMax= 1.14D-02  0.00D+00 EMaxC= 1.00D-01 BMatC= 4.81D-03 BMatP= 1.21D-01
 IDIUse=3 WtCom= 8.86D-01 WtEn= 1.14D-01
 Coeff-Com:  0.817D-01 0.918D+00
 Coeff-En:   0.186D+00 0.814D+00
 Coeff:      0.937D-01 0.906D+00
 Gap=     0.458 Goal=   None    Shift=    0.000
 RMSDP=9.39D-04 MaxDP=1.39D-02 DE=-3.15D-02 OVMax= 1.00D-01

 Cycle   3  Pass 0  IDiag  1:
 E= -76.4217424991674     Delta-E=       -0.043941338373 Rises=F Damp=F
 DIIS: error= 2.17D-03 at cycle   3 NSaved=   3.
 NSaved= 3 IEnMin= 3 EnMin= -76.4217424991674     IErMin= 3 ErrMin= 2.17D-03
 ErrMax= 2.17D-03  0.00D+00 EMaxC= 1.00D-01 BMatC= 9.07D-05 BMatP= 4.81D-03
 IDIUse=3 WtCom= 9.78D-01 WtEn= 2.17D-02
 Coeff-Com: -0.199D-01 0.394D-01 0.981D+00
 Coeff-En:   0.000D+00 0.000D+00 0.100D+01
 Coeff:     -0.195D-01 0.386D-01 0.981D+00
 Gap=     0.462 Goal=   None    Shift=    0.000
 RMSDP=1.14D-04 MaxDP=1.04D-03 DE=-4.39D-02 OVMax= 3.30D-03

 Cycle   4  Pass 0  IDiag  1:
 E= -76.4218197347930     Delta-E=       -0.000077235626 Rises=F Damp=F
 DIIS: error= 4.11D-04 at cycle   4 NSaved=   4.
 NSaved= 4 IEnMin= 4 EnMin= -76.4218197347930     IErMin= 4 ErrMin= 4.11D-04
 ErrMax= 4.11D-04  0.00D+00 EMaxC= 1.00D-01 BMatC= 3.26D-06 BMatP= 9.07D-05
 IDIUse=3 WtCom= 9.96D-01 WtEn= 4.11D-03
 Coeff-Com: -0.188D-02-0.220D-02 0.162D+00 0.842D+00
 Coeff-En:   0.000D+00 0.000D+00 0.000D+00 0.100D+01
 Coeff:     -0.188D-02-0.219D-02 0.162D+00 0.842D+00
 Gap=     0.463 Goal=   None    Shift=    0.000
 RMSDP=2.20D-05 MaxDP=3.52D-04 DE=-7.72D-05 OVMax= 5.32D-04

 Cycle   5  Pass 0  IDiag  1:
 E= -76.4218217459716     Delta-E=       -0.000002011179 Rises=F Damp=F
 DIIS: error= 8.83D-05 at cycle   5 NSaved=   5.
 NSaved= 5 IEnMin= 5 EnMin= -76.4218217459716     IErMin= 5 ErrMin= 8.83D-05
 ErrMax= 8.83D-05  0.00D+00 EMaxC= 1.00D-01 BMatC= 8.18D-08 BMatP= 3.26D-06
 IDIUse=1 WtCom= 1.00D+00 WtEn= 0.00D+00
 Coeff-Com:  0.117D-02-0.178D-02-0.364D-01-0.648D-01 0.110D+01
 Coeff:      0.117D-02-0.178D-02-0.364D-01-0.648D-01 0.110D+01
 Gap=     0.463 Goal=   None    Shift=    0.000
 RMSDP=8.91D-06 MaxDP=1.02D-04 DE=-2.01D-06 OVMax= 2.00D-04

 Initial convergence to 1.0D-05 achieved.  Increase integral accuracy.
 Cycle   6  Pass 1  IDiag  1:
 E= -76.4218212779168     Delta-E=        0.000000468055 Rises=F Damp=F
 DIIS: error= 1.86D-05 at cycle   1 NSaved=   1.
 NSaved= 1 IEnMin= 1 EnMin= -76.4218212779168     IErMin= 1 ErrMin= 1.86D-05
 ErrMax= 1.86D-05  0.00D+00 EMaxC= 1.00D-01 BMatC= 1.17D-08 BMatP= 1.17D-08
 IDIUse=1 WtCom= 1.00D+00 WtEn= 0.00D+00
 Coeff-Com:  0.100D+01
 Coeff:      0.100D+01
 Gap=     0.463 Goal=   None    Shift=    0.000
 RMSDP=8.91D-06 MaxDP=1.02D-04 DE= 4.68D-07 OVMax= 5.01D-05

 Cycle   7  Pass 1  IDiag  1:
 E= -76.4218212881309     Delta-E=       -0.000000010214 Rises=F Damp=F
 DIIS: error= 1.10D-05 at cycle   2 NSaved=   2.
 NSaved= 2 IEnMin= 2 EnMin= -76.4218212881309     IErMin= 2 ErrMin= 1.10D-05
 ErrMax= 1.10D-05  0.00D+00 EMaxC= 1.00D-01 BMatC= 1.67D-09 BMatP= 1.17D-08
 IDIUse=1 WtCom= 1.00D+00 WtEn= 0.00D+00
 Coeff-Com:  0.135D+00 0.865D+00
 Coeff:      0.135D+00 0.865D+00
 Gap=     0.463 Goal=   None    Shift=    0.000
 RMSDP=8.04D-07 MaxDP=1.38D-05 DE=-1.02D-08 OVMax= 2.13D-05

 Cycle   8  Pass 1  IDiag  1:
 E= -76.4218212886878     Delta-E=       -0.000000000557 Rises=F Damp=F
 DIIS: error= 6.45D-06 at cycle   3 NSaved=   3.
 NSaved= 3 IEnMin= 3 EnMin= -76.4218212886878     IErMin= 3 ErrMin= 6.45D-06
 ErrMax= 6.45D-06  0.00D+00 EMaxC= 1.00D-01 BMatC= 1.16D-09 BMatP= 1.67D-09
 IDIUse=1 WtCom= 1.00D+00 WtEn= 0.00D+00
 Coeff-Com: -0.548D-01 0.460D+00 0.594D+00
 Coeff:     -0.548D-01 0.460D+00 0.594D+00
 Gap=     0.463 Goal=   None    Shift=    0.000
 RMSDP=3.98D-07 MaxDP=4.78D-06 DE=-5.57D-10 OVMax= 1.02D-05

 Cycle   9  Pass 1  IDiag  1:
 E= -76.4218212894647     Delta-E=       -0.000000000777 Rises=F Damp=F
 DIIS: error= 6.71D-07 at cycle   4 NSaved=   4.
 NSaved= 4 IEnMin= 4 EnMin= -76.4218212894647     IErMin= 4 ErrMin= 6.71D-07
 ErrMax= 6.71D-07  0.00D+00 EMaxC= 1.00D-01 BMatC= 5.44D-12 BMatP= 1.16D-09
 IDIUse=1 WtCom= 1.00D+00 WtEn= 0.00D+00
 Coeff-Com: -0.357D-02-0.183D-01 0.178D-01 0.100D+01
 Coeff:     -0.357D-02-0.183D-01 0.178D-01 0.100D+01
 Gap=     0.463 Goal=   None    Shift=    0.000
 RMSDP=7.16D-08 MaxDP=5.67D-07 DE=-7.77D-10 OVMax= 1.69D-06

 Cycle  10  Pass 1  IDiag  1:
 E= -76.4218212894743     Delta-E=       -0.000000000010 Rises=F Damp=F
 DIIS: error= 1.18D-07 at cycle   5 NSaved=   5.
 NSaved= 5 IEnMin= 5 EnMin= -76.4218212894743     IErMin= 5 ErrMin= 1.18D-07
 ErrMax= 1.18D-07  0.00D+00 EMaxC= 1.00D-01 BMatC= 4.46D-13 BMatP= 5.44D-12
 IDIUse=1 WtCom= 1.00D+00 WtEn= 0.00D+00
 Coeff-Com:  0.288D-02-0.358D-01-0.378D-01 0.146D+00 0.925D+00
 Coeff:      0.288D-02-0.358D-01-0.378D-01 0.146D+00 0.925D+00
 Gap=     0.463 Goal=   None    Shift=    0.000
 RMSDP=2.24D-08 MaxDP=2.16D-07 DE=-9.63D-12 OVMax= 5.54D-07

 Cycle  11  Pass 1  IDiag  1:
 E= -76.4218212894750     Delta-E=       -0.000000000001 Rises=F Damp=F
 DIIS: error= 1.65D-08 at cycle   6 NSaved=   6.
 NSaved= 6 IEnMin= 6 EnMin= -76.4218212894750     IErMin= 6 ErrMin= 1.65D-08
 ErrMax= 1.65D-08  0.00D+00 EMaxC= 1.00D-01 BMatC= 4.86D-15 BMatP= 4.46D-13
 IDIUse=1 WtCom= 1.00D+00 WtEn= 0.00D+00
 Coeff-Com:  0.186D-03-0.694D-03-0.134D-02-0.248D-01-0.216D-01 0.105D+01
 Coeff:      0.186D-03-0.694D-03-0.134D-02-0.248D-01-0.216D-01 0.105D+01
 Gap=     0.463 Goal=   None    Shift=    0.000
 RMSDP=3.80D-09 MaxDP=3.48D-08 DE=-7.39D-13 OVMax= 8.79D-08

 SCF Done:  E(RM062X) =  -76.4218212895     A.U. after   11 cycles
            NFock= 11  Conv=0.38D-08     -V/T= 2.0029
 KE= 7.619989657894D+01 PE=-1.990812263712D+02 EE= 3.734528229829D+01
 Leave Link  502 at Thu Dec 15 14:42:52 2022, MaxMem=  1342177280 cpu:               5.8 elap:               0.4
 (Enter /data0/home/software/g16/l601.exe)
 Copying SCF densities to generalized density rwf, IOpCl= 0 IROHF=0.

 **********************************************************************

            Population analysis using the SCF density.

 **********************************************************************

 Alpha  occ. eigenvalues --  -19.62590  -1.13406  -0.60779  -0.47544  -0.39997
 Alpha virt. eigenvalues --    0.06289   0.13343   0.17396   0.17945   0.18931
 Alpha virt. eigenvalues --    0.23293   0.51182   0.53537   0.97920   1.00203
 Alpha virt. eigenvalues --    1.06033   1.18361   1.19988   1.32353   1.33831
 Alpha virt. eigenvalues --    1.69917   1.74220   1.75712   2.07796   2.09433
 Alpha virt. eigenvalues --    2.35767   2.41434   2.54567   2.88495   3.01415
 Alpha virt. eigenvalues --    5.05680   5.48281   5.92754   6.78315   6.80202
 Alpha virt. eigenvalues --    6.87172   6.91500   7.09434  49.95919
          Condensed to atoms (all electrons):
              21         22         23
    21  O    7.914996   0.321862   0.318982
    22  H    0.321862   0.425900  -0.024392
    23  H    0.318982  -0.024392   0.426200
 Mulliken charges:
               1
     1  C    0.000000
     2  C    0.000000
     3  C    0.000000
     4  N    0.000000
     5  H    0.000000
     6  H    0.000000
     7  H    0.000000
     8  H    0.000000
     9  N    0.000000
    10  P    0.000000
    11  O    0.000000
    12  O    0.000000
    13  H    0.000000
    14  O    0.000000
    15  H    0.000000
    16  O    0.000000
    17  H    0.000000
    18  O    0.000000
    19  H    0.000000
    20  H    0.000000
    21  O   -0.555840
    22  H    0.276630
    23  H    0.279210
 Sum of Mulliken charges =  -0.00000
 Mulliken charges with hydrogens summed into heavy atoms:
               1
     1  C    0.000000
     2  C    0.000000
     3  C    0.000000
     4  N    0.000000
     9  N    0.000000
    10  P    0.000000
    11  O    0.000000
    12  O    0.000000
    14  O    0.000000
    16  O    0.000000
    18  O    0.000000
    21  O   -0.000000
         Mulliken charges condensed to fragments:
      1      0.000000
      2      0.000000
      3      0.000000
      4     -0.000000
 Electronic spatial extent (au):  <R**2>=          13935.8363
 Charge=             -0.0000 electrons
 Dipole moment (field-independent basis, Debye):
    X=              0.9425    Y=             -0.3175    Z=              1.8697  Tot=              2.1178
 Quadrupole moment (field-independent basis, Debye-Ang):
   XX=             15.2716   YY=            -12.1606   ZZ=             31.6841
   XY=              6.8549   XZ=             32.5395   YZ=             19.5711
 Traceless Quadrupole moment (field-independent basis, Debye-Ang):
   XX=              3.6732   YY=            -23.7590   ZZ=             20.0857
   XY=              6.8549   XZ=             32.5395   YZ=             19.5711
 Octapole moment (field-independent basis, Debye-Ang**2):
  XXX=            142.6288  YYY=           -300.0335  ZZZ=            387.1038  XYY=            -25.0683
  XXY=            122.4700  XXZ=            437.0765  XZZ=            488.3255  YZZ=            355.6486
  YYZ=            155.1370  XYZ=            349.4231
 Hexadecapole moment (field-independent basis, Debye-Ang**3):
 XXXX=            158.9165 YYYY=          -6095.6228 ZZZZ=           3944.5944 XXXY=            899.3034
 XXXZ=           4908.7045 YYYX=          -2228.2907 YYYZ=            367.0450 ZZZX=           5800.5124
 ZZZY=           4451.4116 XXYY=             99.0639 XXZZ=           6396.9152 YYZZ=           3518.6084
 XXYZ=           4676.5822 YYXZ=           3163.1986 ZZXY=           5496.4695
 N-N= 9.114226204528D+00 E-N=-1.990812264679D+02  KE= 7.619989657894D+01
 No NMR shielding tensors so no spin-rotation constants.
 Leave Link  601 at Thu Dec 15 14:42:52 2022, MaxMem=  1342177280 cpu:               1.0 elap:               0.1
 (Enter /data0/home/software/g16/l122.exe)
 CPIOFr:  IOpCl= 0 IRwI=-1 IRwCP=  731 ICalc=  8 LCPTot=      244414 Len1MO=      641874 IndFrg=     6021280
 Restoring MOs from calculation   1 to rwf.
 CPIOFr:  IOpCl= 0 IRwI=-2 IRwCP=  731 ICalc=  0 LCPTot=      244414 Len1MO=      641874 IndFrg=      886288
 Counterpoise corrected energy =   -1023.247466591212
                   BSSE energy =       0.005261286023
              sum of fragments =   -1023.179337048246
           complexation energy =     -46.05 kcal/mole (raw)
           complexation energy =     -42.75 kcal/mole (corrected)
 Leave Link  122 at Thu Dec 15 14:42:52 2022, MaxMem=  1342177280 cpu:               0.2 elap:               0.0
 (Enter /data0/home/software/g16/l9999.exe)
 1\1\GINC-LOCALHOST\SP\RM062X\6-311+G(2d,p)\C3H11N2O6P1\WUHANYU\15-Dec-
 2022\0\\#p M062X/6-311+G(2d,p) nosymm em=GD3 counterpoise=4\\Title Car
 d Required\\0,1\C,0,8.741396,10.137319,10.75097\C,0,8.609032,8.746942,
 10.798303\C,0,10.393544,9.175138,9.584481\N,0,9.86578,10.397563,9.9713
 54\H,0,10.305194,11.310013,9.83292\H,0,8.143271,10.91239,11.179106\H,0
 ,7.866675,8.145185,11.283292\H,0,11.290068,9.067134,8.994688\N,0,9.637
 543,8.16764,10.07163\P,0,12.140624,9.052795,12.704697\O,0,12.624072,9.
 341066,11.352927\O,0,11.693636,7.58293,13.065154\H,0,11.538127,7.00932
 3,12.184862\O,0,13.229465,9.423439,13.797949\H,0,12.841557,9.175329,14
 .724911\O,0,10.907135,9.958209,13.175792\H,0,10.039913,9.56768,12.7958
 4\O,0,11.171674,6.089443,10.828202\H,0,10.338122,6.528784,10.507382\H,
 0,11.826239,6.343333,10.176461\O,0,11.972402,11.930695,10.107068\H,0,1
 2.126966,12.573149,10.799733\H,0,12.347576,11.104515,10.462291\\Versio
 n=ES64L-G16RevA.03\HF=-76.4218213\RMSD=3.795e-09\Dipole=-0.8801787,0.8
 303379,0.3121596\Quadrupole=-39.1914349,24.999699,14.1917359,-0.569216
 4,-14.0259598,26.0180362\PG=C01 [X(C3H11N2O6P1)]\\@


 It takes a long time to grow an old friend.
                            -- John Leonard
 Job cpu time:       0 days  1 hours  9 minutes  4.6 seconds.
 Elapsed time:       0 days  0 hours  4 minutes 23.5 seconds.
 File lengths (MBytes):  RWF=    147 Int=      0 D2E=      0 Chk=     56 Scr=      1
 Normal termination of Gaussian 16 at Thu Dec 15 14:42:53 2022.
