 Entering Gaussian System, Link 0=g16
 Initial command:
 /data0/home/software/g16/l1.exe "/data0/home/software/g16/scratch/Gau-399807.inp" -scrdir="/data0/home/software/g16/scratch/"
 Default is to use a total of  22 processors:
                               22 via shared-memory
                                1 via Linda
 Entering Link 1 = /data0/home/software/g16/l1.exe PID=    399808.
  
 Copyright (c) 1988,1990,1992,1993,1995,1998,2003,2009,2016,
            Gaussian, Inc.  All Rights Reserved.
  
 This is part of the Gaussian(R) 16 program.  It is based on
 the Gaussian(R) 09 system (copyright 2009, Gaussian, Inc.),
 the Gaussian(R) 03 system (copyright 2003, Gaussian, Inc.),
 the Gaussian(R) 98 system (copyright 1998, Gaussian, Inc.),
 the Gaussian(R) 94 system (copyright 1995, Gaussian, Inc.),
 the Gaussian 92(TM) system (copyright 1992, Gaussian, Inc.),
 the Gaussian 90(TM) system (copyright 1990, Gaussian, Inc.),
 the Gaussian 88(TM) system (copyright 1988, Gaussian, Inc.),
 the Gaussian 86(TM) system (copyright 1986, Carnegie Mellon
 University), and the Gaussian 82(TM) system (copyright 1983,
 Carnegie Mellon University). Gaussian is a federally registered
 trademark of Gaussian, Inc.
  
 This software contains proprietary and confidential information,
 including trade secrets, belonging to Gaussian, Inc.
  
 This software is provided under written license and may be
 used, copied, transmitted, or stored only in accord with that
 written license.
  
 The following legend is applicable only to US Government
 contracts under FAR:
  
                    RESTRICTED RIGHTS LEGEND
  
 Use, reproduction and disclosure by the US Government is
 subject to restrictions as set forth in subparagraphs (a)
 and (c) of the Commercial Computer Software - Restricted
 Rights clause in FAR 52.227-19.
  
 Gaussian, Inc.
 340 Quinnipiac St., Bldg. 40, Wallingford CT 06492
  
  
 ---------------------------------------------------------------
 Warning -- This program may not be used in any manner that
 competes with the business of Gaussian, Inc. or will provide
 assistance to any competitor of Gaussian, Inc.  The licensee
 of this program is prohibited from giving any competitor of
 Gaussian, Inc. access to this program.  By using this program,
 the user acknowledges that Gaussian, Inc. is engaged in the
 business of creating and licensing software in the field of
 computational chemistry and represents and warrants to the
 licensee that it is not a competitor of Gaussian, Inc. and that
 it will not use this program in any manner prohibited above.
 ---------------------------------------------------------------
  

 Cite this work as:
 Gaussian 16, Revision A.03,
 M. J. Frisch, G. W. Trucks, H. B. Schlegel, G. E. Scuseria, 
 M. A. Robb, J. R. Cheeseman, G. Scalmani, V. Barone, 
 G. A. Petersson, H. Nakatsuji, X. Li, M. Caricato, A. V. Marenich, 
 J. Bloino, B. G. Janesko, R. Gomperts, B. Mennucci, H. P. Hratchian, 
 J. V. Ortiz, A. F. Izmaylov, J. L. Sonnenberg, D. Williams-Young, 
 F. Ding, F. Lipparini, F. Egidi, J. Goings, B. Peng, A. Petrone, 
 T. Henderson, D. Ranasinghe, V. G. Zakrzewski, J. Gao, N. Rega, 
 G. Zheng, W. Liang, M. Hada, M. Ehara, K. Toyota, R. Fukuda, 
 J. Hasegawa, M. Ishida, T. Nakajima, Y. Honda, O. Kitao, H. Nakai, 
 T. Vreven, K. Throssell, J. A. Montgomery, Jr., J. E. Peralta, 
 F. Ogliaro, M. J. Bearpark, J. J. Heyd, E. N. Brothers, K. N. Kudin, 
 V. N. Staroverov, T. A. Keith, R. Kobayashi, J. Normand, 
 K. Raghavachari, A. P. Rendell, J. C. Burant, S. S. Iyengar, 
 J. Tomasi, M. Cossi, J. M. Millam, M. Klene, C. Adamo, R. Cammi, 
 J. W. Ochterski, R. L. Martin, K. Morokuma, O. Farkas, 
 J. B. Foresman, and D. J. Fox, Gaussian, Inc., Wallingford CT, 2016.
 
 ******************************************
 Gaussian 16:  ES64L-G16RevA.03 25-Dec-2016
                20-Feb-2023 
 ******************************************
 %nproc=24
 Will use up to   24 processors via shared memory.
 %mem=50GB
 ---------------------------------------------------
 #p M062X/6-311+G(2d,p) nosymm em=GD3 counterpoise=4
 ---------------------------------------------------
 1/38=1,62=4,172=1/1;
 2/12=2,15=1,17=6,18=5,40=1/2;
 1/38=1,53=2,62=4,63=1/22;
 3/5=4,6=6,7=112,11=2,25=1,30=1,74=-55,124=31/1,2,3;
 4//1;
 5/5=2,38=5/2;
 6/7=2,8=2,9=2,10=2,28=1/1;
 1/53=2,62=4,63=1/22;
 3/5=7,6=11,7=112,11=2,25=1,30=1,74=-55,82=7,124=31/1,2,3;
 4//1;
 5/5=2,38=5/2;
 6/7=2,8=2,9=2,10=2,28=1/1;
 1/53=2,62=4,63=1/22(-4);
 99/5=1,9=1/99;
 Leave Link    1 at Mon Feb 20 10:03:58 2023, MaxMem=  6710886400 cpu:               0.7 elap:               0.0
 (Enter /data0/home/software/g16/l101.exe)
 -------------------
 Title Card Required
 -------------------
 Symbolic Z-matrix:
 Charge =  0 Multiplicity = 1 in supermolecule
 Charge =  0 Multiplicity = 1 in fragment      1.
 Charge =  0 Multiplicity = 1 in fragment      2.
 Charge =  0 Multiplicity = 1 in fragment      3.
 Charge =  0 Multiplicity = 1 in fragment      4.
 P                     11.42869   10.16714   7.14018    
 O                     10.52174   9.03071   6.94678    
 O                     12.0465   10.25307   8.60625    
 H                     11.4205   10.84971   9.21808    
 O                     12.7127   10.01825   6.21151    
 H                     13.31082   10.84374   6.38276    
 O                     10.87388   11.61034   6.80177    
 H                     10.08131   11.82861   7.48409    
 O                     11.07164   12.19606   12.77658    
 H                     10.8456   12.0056   11.83791    
 H                     11.48911   13.04811   12.75981    
 O                     5.56548   8.63476   9.15259    
 H                     6.2249    9.00626   8.5378     
 H                     4.78472   8.5023    8.62413    
 O                     7.59527   9.6927    7.54973    
 H                     7.91282   10.56857   7.84512    
 H                     8.37859   9.30599   7.14133    
 
 ITRead=  0  0  0  0  0  0  0  0  0  0  0  0  0  0  0  0  0
 MicOpt= -1 -1 -1 -1 -1 -1 -1 -1 -1 -1 -1 -1 -1 -1 -1 -1 -1
 NAtoms=     17 NQM=       17 NQMF=       0 NMMI=      0 NMMIF=      0
                NMic=       0 NMicF=      0.
                    Isotopes and Nuclear Properties:
 (Nuclear quadrupole moments (NQMom) in fm**2, nuclear magnetic moments (NMagM)
  in nuclear magnetons)

  Atom         1           2           3           4           5           6           7           8           9          10
 IAtWgt=          31          16          16           1          16           1          16           1          16           1
 AtmWgt=  30.9737634  15.9949146  15.9949146   1.0078250  15.9949146   1.0078250  15.9949146   1.0078250  15.9949146   1.0078250
 NucSpn=           1           0           0           1           0           1           0           1           0           1
 AtZEff=  -0.0000000  -0.0000000  -0.0000000  -0.0000000  -0.0000000  -0.0000000  -0.0000000  -0.0000000  -0.0000000  -0.0000000
 NQMom=    0.0000000   0.0000000   0.0000000   0.0000000   0.0000000   0.0000000   0.0000000   0.0000000   0.0000000   0.0000000
 NMagM=    1.1316000   0.0000000   0.0000000   2.7928460   0.0000000   2.7928460   0.0000000   2.7928460   0.0000000   2.7928460
 AtZNuc=  15.0000000   8.0000000   8.0000000   1.0000000   8.0000000   1.0000000   8.0000000   1.0000000   8.0000000   1.0000000

  Atom        11          12          13          14          15          16          17
 IAtWgt=           1          16           1           1          16           1           1
 AtmWgt=   1.0078250  15.9949146   1.0078250   1.0078250  15.9949146   1.0078250   1.0078250
 NucSpn=           1           0           1           1           0           1           1
 AtZEff=  -0.0000000  -0.0000000  -0.0000000  -0.0000000  -0.0000000  -0.0000000  -0.0000000
 NQMom=    0.0000000   0.0000000   0.0000000   0.0000000   0.0000000   0.0000000   0.0000000
 NMagM=    2.7928460   0.0000000   2.7928460   2.7928460   0.0000000   2.7928460   2.7928460
 AtZNuc=   1.0000000   8.0000000   1.0000000   1.0000000   8.0000000   1.0000000   1.0000000
 Leave Link  101 at Mon Feb 20 10:03:58 2023, MaxMem=  6710886400 cpu:               2.1 elap:               0.1
 (Enter /data0/home/software/g16/l202.exe)
                          Input orientation:                          
 ---------------------------------------------------------------------
 Center     Atomic      Atomic             Coordinates (Angstroms)
 Number     Number       Type             X           Y           Z
 ---------------------------------------------------------------------
      1         15           0       11.428695   10.167135    7.140175
      2          8           0       10.521736    9.030708    6.946776
      3          8           0       12.046504   10.253073    8.606250
      4          1           0       11.420500   10.849709    9.218075
      5          8           0       12.712695   10.018246    6.211510
      6          1           0       13.310824   10.843742    6.382759
      7          8           0       10.873880   11.610336    6.801765
      8          1           0       10.081313   11.828613    7.484090
      9          8           0       11.071644   12.196057   12.776578
     10          1           0       10.845600   12.005602   11.837911
     11          1           0       11.489115   13.048109   12.759811
     12          8           0        5.565483    8.634762    9.152588
     13          1           0        6.224900    9.006261    8.537799
     14          1           0        4.784715    8.502299    8.624128
     15          8           0        7.595271    9.692701    7.549733
     16          1           0        7.912823   10.568569    7.845122
     17          1           0        8.378589    9.305995    7.141335
 ---------------------------------------------------------------------
                    Distance matrix (angstroms):
                    1          2          3          4          5
     1  P    0.000000
     2  O    1.466780   0.000000
     3  O    1.593251   2.563776   0.000000
     4  H    2.187154   3.045544   1.059333   0.000000
     5  O    1.591616   2.513195   2.496745   3.376467   0.000000
     6  H    2.138664   3.374051   2.625130   3.407694   1.033696
     7  O    1.582773   2.607588   2.544283   2.591506   2.502877
     8  H    2.166616   2.882872   2.757453   2.399662   3.438177
     9  O    6.001087   6.656457   4.702890   3.820641   7.108870
    10  H    5.078256   5.733941   3.867449   2.920640   6.252361
    11  H    6.315376   7.132090   5.037358   4.169120   7.318297
    12  O    6.385548   5.439377   6.702317   6.260312   7.851535
    13  H    5.511848   4.582003   5.954015   5.554758   6.966148
    14  H    7.008300   6.000511   7.469880   7.063763   8.424470
    15  O    3.884323   3.060390   4.609091   4.330636   5.299514
    16  H    3.608248   3.158871   4.214994   3.777279   5.100031
    17  H    3.169339   2.169497   4.061592   3.993635   4.489582
                    6          7          8          9         10
     6  H    0.000000
     7  O    2.588808   0.000000
     8  H    3.551428   1.068351   0.000000
     9  O    6.908227   6.006710   5.396869   0.000000
    10  H    6.098027   5.051713   4.423937   0.984106   0.000000
    11  H    6.988895   6.159872   5.594847   0.948976   1.533242
    12  O    8.517150   6.523763   5.777308   7.492258   6.815655
    13  H    7.630914   5.604287   4.893659   7.185609   6.421655
    14  H    9.121438   7.075227   6.357515   8.391196   7.702977
    15  O    5.945946   3.871183   3.278236   6.758097   5.856844
    16  H    5.599343   3.307829   2.533852   6.078332   5.158353
    17  H    5.221786   3.413469   3.062736   6.881930   5.952466
                   11         12         13         14         15
    11  H    0.000000
    12  O    8.220651   0.000000
    13  H    7.865995   0.975094   0.000000
    14  H    9.094902   0.952058   1.528255   0.000000
    15  O    7.318859   2.794355   1.823565   3.235832   0.000000
    16  H    6.564461   3.310450   2.402018   3.829018   0.977363
    17  H    7.432769   3.522678   2.584246   3.969954   0.964322
                   16         17
    16  H    0.000000
    17  H    1.518666   0.000000
 Symmetry turned off by external request.
 Stoichiometry    H9O7P
 Framework group  C1[X(H9O7P)]
 Deg. of freedom    45
 Full point group                 C1      NOp   1
 Rotational constants (GHZ):           0.7649104           0.5749382           0.3581914
 Leave Link  202 at Mon Feb 20 10:03:58 2023, MaxMem=  6710886400 cpu:               0.1 elap:               0.0
 (Enter /data0/home/software/g16/l122.exe)
 Counterpoise: doing full-system calculation.
 Leave Link  122 at Mon Feb 20 10:03:58 2023, MaxMem=  6710886400 cpu:               0.0 elap:               0.0
 (Enter /data0/home/software/g16/l301.exe)
 Standard basis: 6-311+G(2d,p) (5D, 7F)
 Ernie: Thresh=  0.10000D-02 Tol=  0.10000D-05 Strict=F.
   278 basis functions,   422 primitive gaussians,   294 cartesian basis functions
    40 alpha electrons       40 beta electrons
       nuclear repulsion energy       495.5465469746 Hartrees.
 IExCor= 4336 DFT=T Ex+Corr=M062X ExCW=0 ScaHFX=  0.540000
 ScaDFX=  1.000000  1.000000  1.000000  1.000000 ScalE2=  1.000000  1.000000
 IRadAn=      5 IRanWt=     -1 IRanGd=            0 ICorTp=0 IEmpDi=131
 NAtoms=   17 NActive=   17 NUniq=   17 SFac= 1.00D+00 NAtFMM=   60 NAOKFM=F Big=F
 Integral buffers will be    131072 words long.
 Raffenetti 2 integral format.
 Two-electron integral symmetry is turned off.
 R6Disp:  Grimme-D3 Dispersion energy=       -0.0004577408 Hartrees.
 Nuclear repulsion after empirical dispersion term =      495.5460892337 Hartrees.
 Leave Link  301 at Mon Feb 20 10:03:58 2023, MaxMem=  6710886400 cpu:               1.1 elap:               0.1
 (Enter /data0/home/software/g16/l302.exe)
 NPDir=0 NMtPBC=     1 NCelOv=     1 NCel=       1 NClECP=     1 NCelD=      1
         NCelK=      1 NCelE2=     1 NClLst=     1 CellRange=     0.0.
 One-electron integrals computed using PRISM.
 NBasis=   278 RedAO= T EigKep=  4.76D-04  NBF=   278
 NBsUse=   278 1.00D-06 EigRej= -1.00D+00 NBFU=   278
 Precomputing XC quadrature grid using
 IXCGrd= 4 IRadAn=           5 IRanWt=          -1 IRanGd=           0 AccXCQ= 0.00D+00.
 Generated NRdTot=       0 NPtTot=           0 NUsed=           0 NTot=          32
 NSgBfM=   279   279   279   279   279 MxSgAt=    17 MxSgA2=    17.
 Leave Link  302 at Mon Feb 20 10:03:58 2023, MaxMem=  6710886400 cpu:               4.3 elap:               0.2
 (Enter /data0/home/software/g16/l303.exe)
 DipDrv:  MaxL=1.
 Leave Link  303 at Mon Feb 20 10:03:58 2023, MaxMem=  6710886400 cpu:               0.7 elap:               0.0
 (Enter /data0/home/software/g16/l401.exe)
 ExpMin= 3.48D-02 ExpMax= 7.75D+04 ExpMxC= 2.65D+03 IAcc=3 IRadAn=         5 AccDes= 0.00D+00
 Harris functional with IExCor= 1009 and IRadAn=       5 diagonalized for initial guess.
 HarFok:  IExCor= 1009 AccDes= 0.00D+00 IRadAn=         5 IDoV= 1 UseB2=F ITyADJ=14
 ICtDFT=  3500011 ScaDFX=  1.000000  1.000000  1.000000  1.000000
 FoFCou: FMM=F IPFlag=           0 FMFlag=      100000 FMFlg1=           0
         NFxFlg=           0 DoJE=T BraDBF=F KetDBF=T FulRan=T
         wScrn=  0.000000 ICntrl=       500 IOpCl=  0 I1Cent=   200000004 NGrid=           0
         NMat0=    1 NMatS0=      1 NMatT0=    0 NMatD0=    1 NMtDS0=    0 NMtDT0=    0
 Symmetry not used in FoFCou.
 Harris En= -873.189264720403    
 JPrj=0 DoOrth=F DoCkMO=F.
 Leave Link  401 at Mon Feb 20 10:03:59 2023, MaxMem=  6710886400 cpu:              11.6 elap:               0.5
 (Enter /data0/home/software/g16/l502.exe)
 Two-electron integral symmetry not used.
 Closed shell SCF:
 Using DIIS extrapolation, IDIIS=  1040.
 NGot=  6710886400 LenX=  6710704303 LenY=  6710617426
 Requested convergence on RMS density matrix=1.00D-08 within 128 cycles.
 Requested convergence on MAX density matrix=1.00D-06.
 Requested convergence on             energy=1.00D-06.
 No special actions if energy rises.
 Fock matrices will be formed incrementally for  20 cycles.

 Cycle   1  Pass 1  IDiag  1:
 FoFJK:  IHMeth= 1 ICntrl=       0 DoSepK=F KAlg= 0 I1Cent=           0 FoldK=F
 IRaf= 800000000 NMat=       1 IRICut=       1 DoRegI=T DoRafI=F ISym2E= 0 IDoP0=0 IntGTp=1.
 FoFCou: FMM=F IPFlag=           0 FMFlag=      100000 FMFlg1=           0
         NFxFlg=           0 DoJE=F BraDBF=F KetDBF=F FulRan=T
         wScrn=  0.000000 ICntrl=         0 IOpCl=  0 I1Cent=           0 NGrid=           0
         NMat0=    1 NMatS0=      1 NMatT0=    0 NMatD0=    1 NMtDS0=    0 NMtDT0=    0
 Symmetry not used in FoFCou.
 E= -872.902407811716    
 DIIS: error= 5.01D-02 at cycle   1 NSaved=   1.
 NSaved= 1 IEnMin= 1 EnMin= -872.902407811716     IErMin= 1 ErrMin= 5.01D-02
 ErrMax= 5.01D-02  0.00D+00 EMaxC= 1.00D-01 BMatC= 8.59D-01 BMatP= 8.59D-01
 IDIUse=3 WtCom= 4.99D-01 WtEn= 5.01D-01
 Coeff-Com:  0.100D+01
 Coeff-En:   0.100D+01
 Coeff:      0.100D+01
 Gap=     0.223 Goal=   None    Shift=    0.000
 GapD=    0.223 DampG=1.000 DampE=0.500 DampFc=0.5000 IDamp=-1.
 Damping current iteration by 5.00D-01
 RMSDP=5.58D-03 MaxDP=2.73D-01              OVMax= 2.47D-01

 Cycle   2  Pass 1  IDiag  1:
 RMSU=  2.79D-03    CP:  9.97D-01
 E= -873.112055861765     Delta-E=       -0.209648050049 Rises=F Damp=T
 DIIS: error= 9.84D-03 at cycle   2 NSaved=   2.
 NSaved= 2 IEnMin= 2 EnMin= -873.112055861765     IErMin= 2 ErrMin= 9.84D-03
 ErrMax= 9.84D-03  0.00D+00 EMaxC= 1.00D-01 BMatC= 4.04D-02 BMatP= 8.59D-01
 IDIUse=3 WtCom= 9.02D-01 WtEn= 9.84D-02
 Coeff-Com:  0.735D-01 0.927D+00
 Coeff-En:   0.192D+00 0.808D+00
 Coeff:      0.852D-01 0.915D+00
 Gap=     0.285 Goal=   None    Shift=    0.000
 RMSDP=1.24D-03 MaxDP=8.16D-02 DE=-2.10D-01 OVMax= 1.48D-01

 Cycle   3  Pass 1  IDiag  1:
 RMSU=  8.47D-04    CP:  9.93D-01  6.77D-01
 E= -873.406373372871     Delta-E=       -0.294317511106 Rises=F Damp=F
 DIIS: error= 4.12D-03 at cycle   3 NSaved=   3.
 NSaved= 3 IEnMin= 3 EnMin= -873.406373372871     IErMin= 3 ErrMin= 4.12D-03
 ErrMax= 4.12D-03  0.00D+00 EMaxC= 1.00D-01 BMatC= 9.16D-03 BMatP= 4.04D-02
 IDIUse=3 WtCom= 9.59D-01 WtEn= 4.12D-02
 Coeff-Com: -0.152D-01 0.255D+00 0.761D+00
 Coeff-En:   0.000D+00 0.000D+00 0.100D+01
 Coeff:     -0.146D-01 0.244D+00 0.770D+00
 Gap=     0.290 Goal=   None    Shift=    0.000
 RMSDP=4.25D-04 MaxDP=1.63D-02 DE=-2.94D-01 OVMax= 3.72D-02

 Cycle   4  Pass 1  IDiag  1:
 RMSU=  3.72D-04    CP:  9.94D-01  7.40D-01  8.69D-01
 E= -873.409036508700     Delta-E=       -0.002663135829 Rises=F Damp=F
 DIIS: error= 3.64D-03 at cycle   4 NSaved=   4.
 NSaved= 4 IEnMin= 4 EnMin= -873.409036508700     IErMin= 4 ErrMin= 3.64D-03
 ErrMax= 3.64D-03  0.00D+00 EMaxC= 1.00D-01 BMatC= 5.68D-03 BMatP= 9.16D-03
 IDIUse=3 WtCom= 9.64D-01 WtEn= 3.64D-02
 Coeff-Com: -0.188D-01 0.391D-01 0.465D+00 0.515D+00
 Coeff-En:   0.000D+00 0.000D+00 0.381D+00 0.619D+00
 Coeff:     -0.181D-01 0.377D-01 0.462D+00 0.519D+00
 Gap=     0.288 Goal=   None    Shift=    0.000
 RMSDP=1.99D-04 MaxDP=8.22D-03 DE=-2.66D-03 OVMax= 1.49D-02

 Cycle   5  Pass 1  IDiag  1:
 RMSU=  5.56D-05    CP:  9.93D-01  7.16D-01  9.71D-01  5.78D-01
 E= -873.412855314102     Delta-E=       -0.003818805402 Rises=F Damp=F
 DIIS: error= 4.40D-04 at cycle   5 NSaved=   5.
 NSaved= 5 IEnMin= 5 EnMin= -873.412855314102     IErMin= 5 ErrMin= 4.40D-04
 ErrMax= 4.40D-04  0.00D+00 EMaxC= 1.00D-01 BMatC= 2.52D-05 BMatP= 5.68D-03
 IDIUse=3 WtCom= 9.96D-01 WtEn= 4.40D-03
 Coeff-Com: -0.265D-02 0.735D-03 0.829D-01 0.120D+00 0.799D+00
 Coeff-En:   0.000D+00 0.000D+00 0.000D+00 0.000D+00 0.100D+01
 Coeff:     -0.264D-02 0.732D-03 0.825D-01 0.120D+00 0.799D+00
 Gap=     0.289 Goal=   None    Shift=    0.000
 RMSDP=1.84D-05 MaxDP=7.16D-04 DE=-3.82D-03 OVMax= 1.00D-03

 Cycle   6  Pass 1  IDiag  1:
 RMSU=  1.37D-05    CP:  9.93D-01  7.13D-01  9.73D-01  6.02D-01  1.05D+00
 E= -873.412870061500     Delta-E=       -0.000014747398 Rises=F Damp=F
 DIIS: error= 1.54D-04 at cycle   6 NSaved=   6.
 NSaved= 6 IEnMin= 6 EnMin= -873.412870061500     IErMin= 6 ErrMin= 1.54D-04
 ErrMax= 1.54D-04  0.00D+00 EMaxC= 1.00D-01 BMatC= 4.04D-06 BMatP= 2.52D-05
 IDIUse=3 WtCom= 9.98D-01 WtEn= 1.54D-03
 Coeff-Com:  0.432D-04-0.182D-02 0.690D-02 0.182D-01 0.311D+00 0.666D+00
 Coeff-En:   0.000D+00 0.000D+00 0.000D+00 0.000D+00 0.000D+00 0.100D+01
 Coeff:      0.432D-04-0.182D-02 0.689D-02 0.182D-01 0.311D+00 0.666D+00
 Gap=     0.289 Goal=   None    Shift=    0.000
 RMSDP=9.04D-06 MaxDP=4.27D-04 DE=-1.47D-05 OVMax= 3.67D-04

 Cycle   7  Pass 1  IDiag  1:
 RMSU=  4.36D-06    CP:  9.93D-01  7.11D-01  9.75D-01  6.05D-01  1.14D+00
                    CP:  8.68D-01
 E= -873.412872720596     Delta-E=       -0.000002659096 Rises=F Damp=F
 DIIS: error= 6.07D-05 at cycle   7 NSaved=   7.
 NSaved= 7 IEnMin= 7 EnMin= -873.412872720596     IErMin= 7 ErrMin= 6.07D-05
 ErrMax= 6.07D-05  0.00D+00 EMaxC= 1.00D-01 BMatC= 5.02D-07 BMatP= 4.04D-06
 IDIUse=1 WtCom= 1.00D+00 WtEn= 0.00D+00
 Coeff-Com:  0.410D-03-0.690D-03-0.109D-01-0.130D-01-0.201D-01 0.249D+00
 Coeff-Com:  0.795D+00
 Coeff:      0.410D-03-0.690D-03-0.109D-01-0.130D-01-0.201D-01 0.249D+00
 Coeff:      0.795D+00
 Gap=     0.290 Goal=   None    Shift=    0.000
 RMSDP=3.39D-06 MaxDP=1.63D-04 DE=-2.66D-06 OVMax= 1.37D-04

 Cycle   8  Pass 1  IDiag  1:
 RMSU=  1.95D-06    CP:  9.93D-01  7.11D-01  9.76D-01  6.07D-01  1.17D+00
                    CP:  9.45D-01  8.97D-01
 E= -873.412873082738     Delta-E=       -0.000000362142 Rises=F Damp=F
 DIIS: error= 8.11D-06 at cycle   8 NSaved=   8.
 NSaved= 8 IEnMin= 8 EnMin= -873.412873082738     IErMin= 8 ErrMin= 8.11D-06
 ErrMax= 8.11D-06  0.00D+00 EMaxC= 1.00D-01 BMatC= 3.35D-08 BMatP= 5.02D-07
 IDIUse=1 WtCom= 1.00D+00 WtEn= 0.00D+00
 Coeff-Com:  0.141D-03-0.180D-03-0.445D-02-0.542D-02-0.163D-01 0.679D-01
 Coeff-Com:  0.308D+00 0.651D+00
 Coeff:      0.141D-03-0.180D-03-0.445D-02-0.542D-02-0.163D-01 0.679D-01
 Coeff:      0.308D+00 0.651D+00
 Gap=     0.290 Goal=   None    Shift=    0.000
 RMSDP=6.14D-07 MaxDP=3.15D-05 DE=-3.62D-07 OVMax= 3.63D-05

 Cycle   9  Pass 1  IDiag  1:
 RMSU=  4.06D-07    CP:  9.93D-01  7.11D-01  9.76D-01  6.07D-01  1.17D+00
                    CP:  9.61D-01  9.68D-01  8.79D-01
 E= -873.412873108983     Delta-E=       -0.000000026246 Rises=F Damp=F
 DIIS: error= 2.86D-06 at cycle   9 NSaved=   9.
 NSaved= 9 IEnMin= 9 EnMin= -873.412873108983     IErMin= 9 ErrMin= 2.86D-06
 ErrMax= 2.86D-06  0.00D+00 EMaxC= 1.00D-01 BMatC= 2.28D-09 BMatP= 3.35D-08
 IDIUse=1 WtCom= 1.00D+00 WtEn= 0.00D+00
 Coeff-Com: -0.658D-05 0.234D-04-0.250D-03-0.242D-03-0.240D-02-0.546D-02
 Coeff-Com:  0.110D-01 0.181D+00 0.816D+00
 Coeff:     -0.658D-05 0.234D-04-0.250D-03-0.242D-03-0.240D-02-0.546D-02
 Coeff:      0.110D-01 0.181D+00 0.816D+00
 Gap=     0.290 Goal=   None    Shift=    0.000
 RMSDP=2.44D-07 MaxDP=8.98D-06 DE=-2.62D-08 OVMax= 1.05D-05

 Cycle  10  Pass 1  IDiag  1:
 RMSU=  1.26D-07    CP:  9.93D-01  7.10D-01  9.76D-01  6.07D-01  1.17D+00
                    CP:  9.63D-01  9.77D-01  9.58D-01  9.82D-01
 E= -873.412873110744     Delta-E=       -0.000000001761 Rises=F Damp=F
 DIIS: error= 1.83D-06 at cycle  10 NSaved=  10.
 NSaved=10 IEnMin=10 EnMin= -873.412873110744     IErMin=10 ErrMin= 1.83D-06
 ErrMax= 1.83D-06  0.00D+00 EMaxC= 1.00D-01 BMatC= 5.90D-10 BMatP= 2.28D-09
 IDIUse=1 WtCom= 1.00D+00 WtEn= 0.00D+00
 Coeff-Com: -0.192D-04 0.332D-04 0.344D-03 0.442D-03 0.105D-03-0.111D-01
 Coeff-Com: -0.291D-01 0.206D-01 0.407D+00 0.611D+00
 Coeff:     -0.192D-04 0.332D-04 0.344D-03 0.442D-03 0.105D-03-0.111D-01
 Coeff:     -0.291D-01 0.206D-01 0.407D+00 0.611D+00
 Gap=     0.290 Goal=   None    Shift=    0.000
 RMSDP=8.78D-08 MaxDP=4.12D-06 DE=-1.76D-09 OVMax= 3.98D-06

 Cycle  11  Pass 1  IDiag  1:
 RMSU=  4.82D-08    CP:  9.93D-01  7.10D-01  9.76D-01  6.07D-01  1.18D+00
                    CP:  9.62D-01  9.83D-01  9.74D-01  1.08D+00  8.76D-01
 E= -873.412873111193     Delta-E=       -0.000000000448 Rises=F Damp=F
 DIIS: error= 1.54D-07 at cycle  11 NSaved=  11.
 NSaved=11 IEnMin=11 EnMin= -873.412873111193     IErMin=11 ErrMin= 1.54D-07
 ErrMax= 1.54D-07  0.00D+00 EMaxC= 1.00D-01 BMatC= 1.11D-11 BMatP= 5.90D-10
 IDIUse=1 WtCom= 1.00D+00 WtEn= 0.00D+00
 Coeff-Com:  0.268D-06-0.412D-06 0.398D-04 0.440D-04 0.225D-03-0.565D-03
 Coeff-Com: -0.413D-02-0.122D-01-0.290D-01 0.685D-01 0.977D+00
 Coeff:      0.268D-06-0.412D-06 0.398D-04 0.440D-04 0.225D-03-0.565D-03
 Coeff:     -0.413D-02-0.122D-01-0.290D-01 0.685D-01 0.977D+00
 Gap=     0.290 Goal=   None    Shift=    0.000
 RMSDP=2.40D-08 MaxDP=5.76D-07 DE=-4.48D-10 OVMax= 1.57D-06

 Cycle  12  Pass 1  IDiag  1:
 RMSU=  1.19D-08    CP:  9.93D-01  7.10D-01  9.76D-01  6.07D-01  1.18D+00
                    CP:  9.63D-01  9.83D-01  9.79D-01  1.11D+00  9.75D-01
                    CP:  1.10D+00
 E= -873.412873111196     Delta-E=       -0.000000000004 Rises=F Damp=F
 DIIS: error= 5.68D-08 at cycle  12 NSaved=  12.
 NSaved=12 IEnMin=12 EnMin= -873.412873111196     IErMin=12 ErrMin= 5.68D-08
 ErrMax= 5.68D-08  0.00D+00 EMaxC= 1.00D-01 BMatC= 1.22D-12 BMatP= 1.11D-11
 IDIUse=1 WtCom= 1.00D+00 WtEn= 0.00D+00
 Coeff-Com:  0.977D-06-0.166D-05-0.915D-06-0.283D-05 0.709D-04 0.315D-03
 Coeff-Com:  0.172D-04-0.444D-02-0.271D-01-0.884D-02 0.307D+00 0.733D+00
 Coeff:      0.977D-06-0.166D-05-0.915D-06-0.283D-05 0.709D-04 0.315D-03
 Coeff:      0.172D-04-0.444D-02-0.271D-01-0.884D-02 0.307D+00 0.733D+00
 Gap=     0.290 Goal=   None    Shift=    0.000
 RMSDP=5.34D-09 MaxDP=1.62D-07 DE=-3.87D-12 OVMax= 3.17D-07

 SCF Done:  E(RM062X) =  -873.412873111     A.U. after   12 cycles
            NFock= 12  Conv=0.53D-08     -V/T= 2.0026
 KE= 8.711189173522D+02 PE=-3.060000886710D+03 EE= 8.199230070124D+02
 Leave Link  502 at Mon Feb 20 10:04:12 2023, MaxMem=  6710886400 cpu:             317.4 elap:              13.3
 (Enter /data0/home/software/g16/l601.exe)
 Copying SCF densities to generalized density rwf, IOpCl= 0 IROHF=0.

 **********************************************************************

            Population analysis using the SCF density.

 **********************************************************************

 Alpha  occ. eigenvalues --  -78.19551 -19.72603 -19.71113 -19.70164 -19.64671
 Alpha  occ. eigenvalues --  -19.64366 -19.61139 -19.58180  -7.00328  -5.12258
 Alpha  occ. eigenvalues --   -5.12222  -5.11990  -1.27111  -1.19882  -1.18830
 Alpha  occ. eigenvalues --   -1.15427  -1.15156  -1.11545  -1.09345  -0.75162
 Alpha  occ. eigenvalues --   -0.68372  -0.65988  -0.63019  -0.62194  -0.61394
 Alpha  occ. eigenvalues --   -0.58047  -0.56329  -0.54007  -0.52121  -0.50481
 Alpha  occ. eigenvalues --   -0.49356  -0.48393  -0.47963  -0.47609  -0.43221
 Alpha  occ. eigenvalues --   -0.41977  -0.41794  -0.40924  -0.39924  -0.36136
 Alpha virt. eigenvalues --   -0.07183  -0.01039  -0.00587   0.03030   0.04529
 Alpha virt. eigenvalues --    0.05935   0.07428   0.08160   0.09831   0.10261
 Alpha virt. eigenvalues --    0.11256   0.12406   0.12743   0.14543   0.15150
 Alpha virt. eigenvalues --    0.15691   0.16070   0.16423   0.16942   0.17814
 Alpha virt. eigenvalues --    0.18365   0.18548   0.18741   0.19773   0.20694
 Alpha virt. eigenvalues --    0.20731   0.21522   0.22330   0.22786   0.24262
 Alpha virt. eigenvalues --    0.24384   0.24732   0.25770   0.26370   0.26650
 Alpha virt. eigenvalues --    0.27363   0.28513   0.29544   0.30375   0.31731
 Alpha virt. eigenvalues --    0.32868   0.34314   0.35453   0.36409   0.38117
 Alpha virt. eigenvalues --    0.38849   0.42589   0.44276   0.45804   0.47546
 Alpha virt. eigenvalues --    0.50464   0.52056   0.53528   0.54405   0.55612
 Alpha virt. eigenvalues --    0.57069   0.60144   0.64248   0.66059   0.73167
 Alpha virt. eigenvalues --    0.74601   0.74824   0.83700   0.95682   0.96896
 Alpha virt. eigenvalues --    0.97114   0.98205   0.98812   1.00467   1.01717
 Alpha virt. eigenvalues --    1.03133   1.03993   1.05306   1.05996   1.08424
 Alpha virt. eigenvalues --    1.09318   1.10477   1.12054   1.12749   1.13124
 Alpha virt. eigenvalues --    1.16043   1.16588   1.17186   1.18363   1.18546
 Alpha virt. eigenvalues --    1.19795   1.20835   1.21658   1.23941   1.24889
 Alpha virt. eigenvalues --    1.26082   1.26334   1.28056   1.30898   1.31068
 Alpha virt. eigenvalues --    1.32264   1.33156   1.33610   1.38402   1.38957
 Alpha virt. eigenvalues --    1.39892   1.44058   1.46834   1.49779   1.50345
 Alpha virt. eigenvalues --    1.51992   1.53481   1.56868   1.60371   1.61909
 Alpha virt. eigenvalues --    1.65495   1.66347   1.67633   1.68461   1.70074
 Alpha virt. eigenvalues --    1.72646   1.73351   1.74934   1.75603   1.77358
 Alpha virt. eigenvalues --    1.78933   1.80169   1.81272   1.83398   1.85235
 Alpha virt. eigenvalues --    1.87012   1.91174   1.95077   1.99178   2.01284
 Alpha virt. eigenvalues --    2.03173   2.05062   2.05223   2.07524   2.08156
 Alpha virt. eigenvalues --    2.09404   2.12497   2.13059   2.16771   2.18519
 Alpha virt. eigenvalues --    2.19944   2.21284   2.24596   2.33559   2.35762
 Alpha virt. eigenvalues --    2.38472   2.41315   2.41771   2.43437   2.45855
 Alpha virt. eigenvalues --    2.50834   2.53964   2.54818   2.55563   2.59928
 Alpha virt. eigenvalues --    2.62411   2.64417   2.65339   2.68117   2.72172
 Alpha virt. eigenvalues --    2.79925   2.84169   2.86240   2.88813   2.90439
 Alpha virt. eigenvalues --    2.92295   2.96912   3.01566   3.05500   3.15440
 Alpha virt. eigenvalues --    4.99398   5.01266   5.03846   5.04077   5.05398
 Alpha virt. eigenvalues --    5.07827   5.09883   5.10556   5.11863   5.19055
 Alpha virt. eigenvalues --    5.23012   5.33106   5.41312   5.44446   5.45893
 Alpha virt. eigenvalues --    5.49981   5.52724   5.55544   5.89990   5.91854
 Alpha virt. eigenvalues --    6.00612   6.70098   6.71060   6.72303   6.74473
 Alpha virt. eigenvalues --    6.76173   6.76490   6.78023   6.78337   6.78385
 Alpha virt. eigenvalues --    6.80319   6.81827   6.82378   6.83841   6.84779
 Alpha virt. eigenvalues --    6.85036   6.86828   6.88649   6.89450   6.90505
 Alpha virt. eigenvalues --    6.91400   6.91974   6.95694   6.96573   6.96925
 Alpha virt. eigenvalues --    7.00979   7.01193   7.07757   7.08325   7.11422
 Alpha virt. eigenvalues --    7.20071   7.22430   7.22845   7.25797   7.29302
 Alpha virt. eigenvalues --    7.38190   7.62505  14.20444  14.22199  14.32347
 Alpha virt. eigenvalues --   49.94056  49.95195  49.96900  49.98236  49.98628
 Alpha virt. eigenvalues --   50.04189  50.08212 163.84610
          Condensed to atoms (all electrons):
               1          2          3          4          5          6
     1  P   12.598518   0.525977   0.249590   0.022575   0.117890   0.040289
     2  O    0.525977   8.138269  -0.006539  -0.013165  -0.021647  -0.001637
     3  O    0.249590  -0.006539   8.006983   0.239090  -0.020410  -0.013895
     4  H    0.022575  -0.013165   0.239090   0.471608  -0.000147   0.002308
     5  O    0.117890  -0.021647  -0.020410  -0.000147   8.182824   0.219839
     6  H    0.040289  -0.001637  -0.013895   0.002308   0.219839   0.452490
     7  O    0.226683  -0.012320   0.033944  -0.006397  -0.006733  -0.011557
     8  H    0.008101  -0.019108  -0.009066  -0.001866   0.001187   0.001884
     9  O    0.000272   0.000001  -0.000481   0.001821  -0.000019   0.000000
    10  H    0.000476   0.000024  -0.000944   0.001486   0.000013  -0.000001
    11  H    0.000020  -0.000001  -0.000038  -0.000036   0.000001   0.000000
    12  O    0.000045  -0.000001  -0.000003  -0.000002   0.000002  -0.000000
    13  H   -0.000365   0.000211  -0.000002  -0.000002  -0.000002   0.000000
    14  H    0.000024   0.000002  -0.000000   0.000000   0.000000   0.000000
    15  O    0.001103  -0.009999  -0.003466  -0.000496  -0.000273  -0.000003
    16  H    0.004312   0.001362  -0.001611  -0.000452   0.000480  -0.000009
    17  H    0.006699   0.030657   0.000253   0.000268   0.001084  -0.000018
               7          8          9         10         11         12
     1  P    0.226683   0.008101   0.000272   0.000476   0.000020   0.000045
     2  O   -0.012320  -0.019108   0.000001   0.000024  -0.000001  -0.000001
     3  O    0.033944  -0.009066  -0.000481  -0.000944  -0.000038  -0.000003
     4  H   -0.006397  -0.001866   0.001821   0.001486  -0.000036  -0.000002
     5  O   -0.006733   0.001187  -0.000019   0.000013   0.000001   0.000002
     6  H   -0.011557   0.001884   0.000000  -0.000001   0.000000  -0.000000
     7  O    8.059387   0.248353   0.000041  -0.000118  -0.000000  -0.000018
     8  H    0.248353   0.462584   0.000020  -0.000062  -0.000001  -0.000005
     9  O    0.000041   0.000020   7.902773   0.309732   0.328596   0.000000
    10  H   -0.000118  -0.000062   0.309732   0.451110  -0.027086  -0.000000
    11  H   -0.000000  -0.000001   0.328596  -0.027086   0.418675   0.000000
    12  O   -0.000018  -0.000005   0.000000  -0.000000   0.000000   8.073634
    13  H    0.000127   0.000001  -0.000000   0.000001  -0.000000   0.278418
    14  H   -0.000001  -0.000001   0.000000  -0.000000   0.000000   0.295025
    15  O    0.005035  -0.000082  -0.000004   0.000006  -0.000000   0.020407
    16  H    0.001218   0.001815  -0.000009   0.000018   0.000000  -0.001933
    17  H   -0.001546  -0.000211   0.000001  -0.000001   0.000000  -0.000972
              13         14         15         16         17
     1  P   -0.000365   0.000024   0.001103   0.004312   0.006699
     2  O    0.000211   0.000002  -0.009999   0.001362   0.030657
     3  O   -0.000002  -0.000000  -0.003466  -0.001611   0.000253
     4  H   -0.000002   0.000000  -0.000496  -0.000452   0.000268
     5  O   -0.000002   0.000000  -0.000273   0.000480   0.001084
     6  H    0.000000   0.000000  -0.000003  -0.000009  -0.000018
     7  O    0.000127  -0.000001   0.005035   0.001218  -0.001546
     8  H    0.000001  -0.000001  -0.000082   0.001815  -0.000211
     9  O   -0.000000   0.000000  -0.000004  -0.000009   0.000001
    10  H    0.000001  -0.000000   0.000006   0.000018  -0.000001
    11  H   -0.000000   0.000000  -0.000000   0.000000   0.000000
    12  O    0.278418   0.295025   0.020407  -0.001933  -0.000972
    13  H    0.379990  -0.018185  -0.071062   0.008478   0.003873
    14  H   -0.018185   0.456569   0.001089   0.000425   0.000044
    15  O   -0.071062   0.001089   8.104764   0.277438   0.297017
    16  H    0.008478   0.000425   0.277438   0.484542  -0.022555
    17  H    0.003873   0.000044   0.297017  -0.022555   0.334099
 Mulliken charges:
               1
     1  P    1.197791
     2  O   -0.612086
     3  O   -0.473404
     4  H    0.283407
     5  O   -0.474089
     6  H    0.310308
     7  O   -0.536097
     8  H    0.306457
     9  O   -0.542746
    10  H    0.265346
    11  H    0.279870
    12  O   -0.664596
    13  H    0.418519
    14  H    0.265008
    15  O   -0.621476
    16  H    0.246480
    17  H    0.351307
 Sum of Mulliken charges =  -0.00000
 Mulliken charges with hydrogens summed into heavy atoms:
               1
     1  P    1.197791
     2  O   -0.612086
     3  O   -0.189996
     5  O   -0.163782
     7  O   -0.229640
     9  O    0.002470
    12  O    0.018931
    15  O   -0.023688
         Mulliken charges condensed to fragments:
      1      0.002287
      2      0.002470
      3      0.018931
      4     -0.023688
 Electronic spatial extent (au):  <R**2>=          81733.4506
 Charge=             -0.0000 electrons
 Dipole moment (field-independent basis, Debye):
    X=              3.7074    Y=              7.5883    Z=             -1.5832  Tot=              8.5926
 Quadrupole moment (field-independent basis, Debye-Ang):
   XX=             15.8636   YY=            102.2736   ZZ=           -101.1563
   XY=            116.8306   XZ=             22.3297   YZ=             50.7978
 Traceless Quadrupole moment (field-independent basis, Debye-Ang):
   XX=             10.2033   YY=             96.6133   ZZ=           -106.8166
   XY=            116.8306   XZ=             22.3297   YZ=             50.7978
 Octapole moment (field-independent basis, Debye-Ang**2):
  XXX=           -647.1750  YYY=            790.9920  ZZZ=          -2229.2702  XYY=           1475.8190
  XXY=           1010.7752  XXZ=             82.7013  XZZ=           -632.5226  YZZ=           -431.1601
  YYZ=            796.9351  XYZ=            914.2272
 Hexadecapole moment (field-independent basis, Debye-Ang**3):
 XXXX=         -22070.8470 YYYY=            242.8345 ZZZZ=         -37565.7041 XXXY=           2623.7041
 XXXZ=          -5671.2990 YYYX=          12733.6469 YYYZ=           7046.2149 ZZZX=         -18497.5254
 ZZZY=         -17460.9907 XXYY=          13436.6558 XXZZ=          -7738.3075 YYZZ=          -1578.3611
 XXYZ=           8105.9626 YYXZ=          12442.1562 ZZXY=           -400.2396
 N-N= 4.955460892337D+02 E-N=-3.060000888941D+03  KE= 8.711189173522D+02
 No NMR shielding tensors so no spin-rotation constants.
 Leave Link  601 at Mon Feb 20 10:04:12 2023, MaxMem=  6710886400 cpu:               2.2 elap:               0.1
 (Enter /data0/home/software/g16/l122.exe)
 CPIOFr:  IOpCl= 0 IRwI=-1 IRwCP=  731 ICalc= -1 LCPTot=      120517 Len1MO=      315166 IndFrg=      120517
 CPIOFr:  IOpCl= 0 IRwI=-1 IRwCP=  731 ICalc=  0 LCPTot=      120517 Len1MO=      315166 IndFrg=      435683
 Counterpoise: doing calculation for fragment   1 using the basis set of the full-system, NewBq=T
 Leave Link  122 at Mon Feb 20 10:04:12 2023, MaxMem=  6710886400 cpu:               0.2 elap:               0.0
 (Enter /data0/home/software/g16/l301.exe)
 Basis read from rwf:  (5D, 7F)
 No pseudopotential information found on rwf file.
   278 basis functions,   422 primitive gaussians,   294 cartesian basis functions
    25 alpha electrons       25 beta electrons
       nuclear repulsion energy       279.8463727559 Hartrees.
 IExCor= 4336 DFT=T Ex+Corr=M062X ExCW=0 ScaHFX=  0.540000
 ScaDFX=  1.000000  1.000000  1.000000  1.000000 ScalE2=  1.000000  1.000000
 IRadAn=      5 IRanWt=     -1 IRanGd=            0 ICorTp=0 IEmpDi=131
 NAtoms=   17 NActive=   17 NUniq=   17 SFac= 1.00D+00 NAtFMM=   60 NAOKFM=F Big=F
 Integral buffers will be    131072 words long.
 Raffenetti 2 integral format.
 Two-electron integral symmetry is turned off.
 R6Disp:  Grimme-D3 Dispersion energy=       -0.0000426754 Hartrees.
 Nuclear repulsion after empirical dispersion term =      279.8463300805 Hartrees.
 No density basis found on file   718.
 Leave Link  301 at Mon Feb 20 10:04:12 2023, MaxMem=  6710886400 cpu:               1.3 elap:               0.1
 (Enter /data0/home/software/g16/l302.exe)
 NPDir=0 NMtPBC=     1 NCelOv=     1 NCel=       1 NClECP=     1 NCelD=      1
         NCelK=      1 NCelE2=     1 NClLst=     1 CellRange=     0.0.
 One-electron integrals computed using PRISM.
 NBasis=   278 RedAO= T EigKep=  4.76D-04  NBF=   278
 NBsUse=   278 1.00D-06 EigRej= -1.00D+00 NBFU=   278
 Precomputing XC quadrature grid using
 IXCGrd= 4 IRadAn=           5 IRanWt=          -1 IRanGd=           0 AccXCQ= 0.00D+00.
 Generated NRdTot=       0 NPtTot=           0 NUsed=           0 NTot=          32
 NSgBfM=   279   279   279   279   279 MxSgAt=    17 MxSgA2=    17.
 Leave Link  302 at Mon Feb 20 10:04:13 2023, MaxMem=  6710886400 cpu:               4.3 elap:               0.2
 (Enter /data0/home/software/g16/l303.exe)
 DipDrv:  MaxL=1.
 Leave Link  303 at Mon Feb 20 10:04:13 2023, MaxMem=  6710886400 cpu:               0.7 elap:               0.0
 (Enter /data0/home/software/g16/l401.exe)
 ExpMin= 3.48D-02 ExpMax= 7.75D+04 ExpMxC= 2.65D+03 IAcc=3 IRadAn=         5 AccDes= 0.00D+00
 Harris functional with IExCor= 1009 and IRadAn=       5 diagonalized for initial guess.
 HarFok:  IExCor= 1009 AccDes= 0.00D+00 IRadAn=         5 IDoV= 1 UseB2=F ITyADJ=14
 ICtDFT=  3500011 ScaDFX=  1.000000  1.000000  1.000000  1.000000
 FoFCou: FMM=F IPFlag=           0 FMFlag=      100000 FMFlg1=           0
         NFxFlg=           0 DoJE=T BraDBF=F KetDBF=T FulRan=T
         wScrn=  0.000000 ICntrl=       500 IOpCl=  0 I1Cent=   200000004 NGrid=           0
         NMat0=    1 NMatS0=      1 NMatT0=    0 NMatD0=    1 NMtDS0=    0 NMtDT0=    0
 Symmetry not used in FoFCou.
 Harris En= -643.938490814789    
 JPrj=0 DoOrth=F DoCkMO=F.
 Leave Link  401 at Mon Feb 20 10:04:13 2023, MaxMem=  6710886400 cpu:              11.3 elap:               0.5
 (Enter /data0/home/software/g16/l502.exe)
 Two-electron integral symmetry not used.
 Closed shell SCF:
 Using DIIS extrapolation, IDIIS=  1040.
 NGot=  6710886400 LenX=  6710704303 LenY=  6710617426
 Requested convergence on RMS density matrix=1.00D-08 within 128 cycles.
 Requested convergence on MAX density matrix=1.00D-06.
 Requested convergence on             energy=1.00D-06.
 No special actions if energy rises.
 Fock matrices will be formed incrementally for  20 cycles.

 Cycle   1  Pass 1  IDiag  1:
 FoFJK:  IHMeth= 1 ICntrl=       0 DoSepK=F KAlg= 0 I1Cent=           0 FoldK=F
 IRaf= 800000000 NMat=       1 IRICut=       1 DoRegI=T DoRafI=F ISym2E= 0 IDoP0=0 IntGTp=1.
 FoFCou: FMM=F IPFlag=           0 FMFlag=      100000 FMFlg1=           0
         NFxFlg=           0 DoJE=F BraDBF=F KetDBF=F FulRan=T
         wScrn=  0.000000 ICntrl=         0 IOpCl=  0 I1Cent=           0 NGrid=           0
         NMat0=    1 NMatS0=      1 NMatT0=    0 NMatD0=    1 NMtDS0=    0 NMtDT0=    0
 Symmetry not used in FoFCou.
 E= -643.840119915624    
 DIIS: error= 3.44D-02 at cycle   1 NSaved=   1.
 NSaved= 1 IEnMin= 1 EnMin= -643.840119915624     IErMin= 1 ErrMin= 3.44D-02
 ErrMax= 3.44D-02  0.00D+00 EMaxC= 1.00D-01 BMatC= 5.13D-01 BMatP= 5.13D-01
 IDIUse=3 WtCom= 6.56D-01 WtEn= 3.44D-01
 Coeff-Com:  0.100D+01
 Coeff-En:   0.100D+01
 Coeff:      0.100D+01
 Gap=     0.226 Goal=   None    Shift=    0.000
 GapD=    0.226 DampG=1.000 DampE=0.500 DampFc=0.5000 IDamp=-1.
 Damping current iteration by 5.00D-01
 RMSDP=4.73D-03 MaxDP=2.22D-01              OVMax= 2.78D-01

 Cycle   2  Pass 1  IDiag  1:
 RMSU=  2.36D-03    CP:  1.00D+00
 E= -643.956780297811     Delta-E=       -0.116660382187 Rises=F Damp=T
 DIIS: error= 9.77D-03 at cycle   2 NSaved=   2.
 NSaved= 2 IEnMin= 2 EnMin= -643.956780297811     IErMin= 2 ErrMin= 9.77D-03
 ErrMax= 9.77D-03  0.00D+00 EMaxC= 1.00D-01 BMatC= 2.85D-02 BMatP= 5.13D-01
 IDIUse=3 WtCom= 9.02D-01 WtEn= 9.77D-02
 Coeff-Com:  0.799D-01 0.920D+00
 Coeff-En:   0.217D+00 0.783D+00
 Coeff:      0.933D-01 0.907D+00
 Gap=     0.332 Goal=   None    Shift=    0.000
 RMSDP=1.14D-03 MaxDP=7.39D-02 DE=-1.17D-01 OVMax= 1.84D-01

 Cycle   3  Pass 1  IDiag  1:
 RMSU=  7.66D-04    CP:  9.96D-01  6.44D-01
 E= -644.129100503221     Delta-E=       -0.172320205410 Rises=F Damp=F
 DIIS: error= 4.69D-03 at cycle   3 NSaved=   3.
 NSaved= 3 IEnMin= 3 EnMin= -644.129100503221     IErMin= 3 ErrMin= 4.69D-03
 ErrMax= 4.69D-03  0.00D+00 EMaxC= 1.00D-01 BMatC= 1.09D-02 BMatP= 2.85D-02
 IDIUse=3 WtCom= 9.53D-01 WtEn= 4.69D-02
 Coeff-Com: -0.119D-01 0.342D+00 0.670D+00
 Coeff-En:   0.000D+00 0.000D+00 0.100D+01
 Coeff:     -0.114D-01 0.326D+00 0.685D+00
 Gap=     0.322 Goal=   None    Shift=    0.000
 RMSDP=4.00D-04 MaxDP=1.52D-02 DE=-1.72D-01 OVMax= 3.56D-02

 Cycle   4  Pass 1  IDiag  1:
 RMSU=  3.41D-04    CP:  9.97D-01  7.20D-01  8.62D-01
 E= -644.134214308273     Delta-E=       -0.005113805052 Rises=F Damp=F
 DIIS: error= 3.17D-03 at cycle   4 NSaved=   4.
 NSaved= 4 IEnMin= 4 EnMin= -644.134214308273     IErMin= 4 ErrMin= 3.17D-03
 ErrMax= 3.17D-03  0.00D+00 EMaxC= 1.00D-01 BMatC= 3.83D-03 BMatP= 1.09D-02
 IDIUse=3 WtCom= 9.68D-01 WtEn= 3.17D-02
 Coeff-Com: -0.221D-01 0.494D-01 0.393D+00 0.579D+00
 Coeff-En:   0.000D+00 0.000D+00 0.257D+00 0.743D+00
 Coeff:     -0.214D-01 0.479D-01 0.389D+00 0.584D+00
 Gap=     0.328 Goal=   None    Shift=    0.000
 RMSDP=1.54D-04 MaxDP=6.03D-03 DE=-5.11D-03 OVMax= 1.09D-02

 Cycle   5  Pass 1  IDiag  1:
 RMSU=  4.90D-05    CP:  9.96D-01  7.01D-01  9.58D-01  6.53D-01
 E= -644.136742122655     Delta-E=       -0.002527814382 Rises=F Damp=F
 DIIS: error= 1.72D-04 at cycle   5 NSaved=   5.
 NSaved= 5 IEnMin= 5 EnMin= -644.136742122655     IErMin= 5 ErrMin= 1.72D-04
 ErrMax= 1.72D-04  0.00D+00 EMaxC= 1.00D-01 BMatC= 1.56D-05 BMatP= 3.83D-03
 IDIUse=3 WtCom= 9.98D-01 WtEn= 1.72D-03
 Coeff-Com: -0.267D-02 0.412D-03 0.547D-01 0.116D+00 0.831D+00
 Coeff-En:   0.000D+00 0.000D+00 0.000D+00 0.000D+00 0.100D+01
 Coeff:     -0.266D-02 0.411D-03 0.546D-01 0.116D+00 0.832D+00
 Gap=     0.327 Goal=   None    Shift=    0.000
 RMSDP=1.71D-05 MaxDP=7.16D-04 DE=-2.53D-03 OVMax= 7.70D-04

 Cycle   6  Pass 1  IDiag  1:
 RMSU=  1.16D-05    CP:  9.96D-01  6.98D-01  9.62D-01  6.77D-01  1.06D+00
 E= -644.136752396228     Delta-E=       -0.000010273573 Rises=F Damp=F
 DIIS: error= 7.43D-05 at cycle   6 NSaved=   6.
 NSaved= 6 IEnMin= 6 EnMin= -644.136752396228     IErMin= 6 ErrMin= 7.43D-05
 ErrMax= 7.43D-05  0.00D+00 EMaxC= 1.00D-01 BMatC= 1.61D-06 BMatP= 1.56D-05
 IDIUse=1 WtCom= 1.00D+00 WtEn= 0.00D+00
 Coeff-Com: -0.775D-04-0.153D-02 0.265D-02 0.135D-01 0.253D+00 0.732D+00
 Coeff:     -0.775D-04-0.153D-02 0.265D-02 0.135D-01 0.253D+00 0.732D+00
 Gap=     0.327 Goal=   None    Shift=    0.000
 RMSDP=6.49D-06 MaxDP=2.19D-04 DE=-1.03D-05 OVMax= 2.71D-04

 Cycle   7  Pass 1  IDiag  1:
 RMSU=  3.62D-06    CP:  9.96D-01  6.97D-01  9.63D-01  6.79D-01  1.15D+00
                    CP:  8.86D-01
 E= -644.136753439664     Delta-E=       -0.000001043437 Rises=F Damp=F
 DIIS: error= 4.46D-05 at cycle   7 NSaved=   7.
 NSaved= 7 IEnMin= 7 EnMin= -644.136753439664     IErMin= 7 ErrMin= 4.46D-05
 ErrMax= 4.46D-05  0.00D+00 EMaxC= 1.00D-01 BMatC= 3.95D-07 BMatP= 1.61D-06
 IDIUse=1 WtCom= 1.00D+00 WtEn= 0.00D+00
 Coeff-Com:  0.413D-03-0.705D-03-0.870D-02-0.144D-01-0.226D-01 0.331D+00
 Coeff-Com:  0.715D+00
 Coeff:      0.413D-03-0.705D-03-0.870D-02-0.144D-01-0.226D-01 0.331D+00
 Coeff:      0.715D+00
 Gap=     0.327 Goal=   None    Shift=    0.000
 RMSDP=2.70D-06 MaxDP=9.96D-05 DE=-1.04D-06 OVMax= 1.32D-04

 Cycle   8  Pass 1  IDiag  1:
 RMSU=  1.67D-06    CP:  9.96D-01  6.96D-01  9.63D-01  6.80D-01  1.17D+00
                    CP:  9.74D-01  8.24D-01
 E= -644.136753710926     Delta-E=       -0.000000271261 Rises=F Damp=F
 DIIS: error= 8.60D-06 at cycle   8 NSaved=   8.
 NSaved= 8 IEnMin= 8 EnMin= -644.136753710926     IErMin= 8 ErrMin= 8.60D-06
 ErrMax= 8.60D-06  0.00D+00 EMaxC= 1.00D-01 BMatC= 3.00D-08 BMatP= 3.95D-07
 IDIUse=1 WtCom= 1.00D+00 WtEn= 0.00D+00
 Coeff-Com:  0.154D-03-0.196D-03-0.364D-02-0.607D-02-0.169D-01 0.941D-01
 Coeff-Com:  0.299D+00 0.633D+00
 Coeff:      0.154D-03-0.196D-03-0.364D-02-0.607D-02-0.169D-01 0.941D-01
 Coeff:      0.299D+00 0.633D+00
 Gap=     0.327 Goal=   None    Shift=    0.000
 RMSDP=5.19D-07 MaxDP=2.61D-05 DE=-2.71D-07 OVMax= 3.33D-05

 Cycle   9  Pass 1  IDiag  1:
 RMSU=  3.28D-07    CP:  9.96D-01  6.96D-01  9.63D-01  6.80D-01  1.17D+00
                    CP:  9.86D-01  9.04D-01  8.72D-01
 E= -644.136753734131     Delta-E=       -0.000000023205 Rises=F Damp=F
 DIIS: error= 1.31D-06 at cycle   9 NSaved=   9.
 NSaved= 9 IEnMin= 9 EnMin= -644.136753734131     IErMin= 9 ErrMin= 1.31D-06
 ErrMax= 1.31D-06  0.00D+00 EMaxC= 1.00D-01 BMatC= 9.47D-10 BMatP= 3.00D-08
 IDIUse=1 WtCom= 1.00D+00 WtEn= 0.00D+00
 Coeff-Com: -0.280D-04 0.541D-04 0.262D-03 0.589D-03-0.778D-03-0.200D-01
 Coeff-Com: -0.287D-01 0.795D-01 0.969D+00
 Coeff:     -0.280D-04 0.541D-04 0.262D-03 0.589D-03-0.778D-03-0.200D-01
 Coeff:     -0.287D-01 0.795D-01 0.969D+00
 Gap=     0.327 Goal=   None    Shift=    0.000
 RMSDP=2.23D-07 MaxDP=9.83D-06 DE=-2.32D-08 OVMax= 1.22D-05

 Cycle  10  Pass 1  IDiag  1:
 RMSU=  9.51D-08    CP:  9.96D-01  6.96D-01  9.63D-01  6.81D-01  1.17D+00
                    CP:  9.86D-01  9.22D-01  9.50D-01  1.13D+00
 E= -644.136753735313     Delta-E=       -0.000000001183 Rises=F Damp=F
 DIIS: error= 2.92D-07 at cycle  10 NSaved=  10.
 NSaved=10 IEnMin=10 EnMin= -644.136753735313     IErMin=10 ErrMin= 2.92D-07
 ErrMax= 2.92D-07  0.00D+00 EMaxC= 1.00D-01 BMatC= 3.30D-11 BMatP= 9.47D-10
 IDIUse=1 WtCom= 1.00D+00 WtEn= 0.00D+00
 Coeff-Com: -0.674D-05 0.118D-04 0.136D-03 0.243D-03 0.435D-03-0.589D-02
 Coeff-Com: -0.149D-01-0.998D-02 0.123D+00 0.907D+00
 Coeff:     -0.674D-05 0.118D-04 0.136D-03 0.243D-03 0.435D-03-0.589D-02
 Coeff:     -0.149D-01-0.998D-02 0.123D+00 0.907D+00
 Gap=     0.327 Goal=   None    Shift=    0.000
 RMSDP=4.18D-08 MaxDP=1.24D-06 DE=-1.18D-09 OVMax= 2.87D-06

 Cycle  11  Pass 1  IDiag  1:
 RMSU=  2.67D-08    CP:  9.96D-01  6.96D-01  9.63D-01  6.81D-01  1.17D+00
                    CP:  9.86D-01  9.24D-01  9.61D-01  1.18D+00  1.10D+00
 E= -644.136753735341     Delta-E=       -0.000000000027 Rises=F Damp=F
 DIIS: error= 2.81D-07 at cycle  11 NSaved=  11.
 NSaved=11 IEnMin=11 EnMin= -644.136753735341     IErMin=11 ErrMin= 2.81D-07
 ErrMax= 2.81D-07  0.00D+00 EMaxC= 1.00D-01 BMatC= 2.16D-11 BMatP= 3.30D-11
 IDIUse=1 WtCom= 1.00D+00 WtEn= 0.00D+00
 Coeff-Com: -0.850D-07-0.314D-06 0.416D-04 0.595D-04 0.318D-03-0.921D-03
 Coeff-Com: -0.465D-02-0.136D-01-0.450D-01 0.495D+00 0.568D+00
 Coeff:     -0.850D-07-0.314D-06 0.416D-04 0.595D-04 0.318D-03-0.921D-03
 Coeff:     -0.465D-02-0.136D-01-0.450D-01 0.495D+00 0.568D+00
 Gap=     0.327 Goal=   None    Shift=    0.000
 RMSDP=1.47D-08 MaxDP=6.55D-07 DE=-2.73D-11 OVMax= 8.96D-07

 Cycle  12  Pass 1  IDiag  1:
 RMSU=  9.55D-09    CP:  9.96D-01  6.96D-01  9.63D-01  6.81D-01  1.17D+00
                    CP:  9.86D-01  9.24D-01  9.63D-01  1.20D+00  1.18D+00
                    CP:  8.13D-01
 E= -644.136753735356     Delta-E=       -0.000000000015 Rises=F Damp=F
 DIIS: error= 3.70D-08 at cycle  12 NSaved=  12.
 NSaved=12 IEnMin=12 EnMin= -644.136753735356     IErMin=12 ErrMin= 3.70D-08
 ErrMax= 3.70D-08  0.00D+00 EMaxC= 1.00D-01 BMatC= 5.13D-13 BMatP= 2.16D-11
 IDIUse=1 WtCom= 1.00D+00 WtEn= 0.00D+00
 Coeff-Com:  0.751D-06-0.138D-05-0.550D-05-0.127D-04 0.113D-04 0.416D-03
 Coeff-Com:  0.830D-03-0.110D-02-0.232D-01-0.107D-02 0.118D+00 0.906D+00
 Coeff:      0.751D-06-0.138D-05-0.550D-05-0.127D-04 0.113D-04 0.416D-03
 Coeff:      0.830D-03-0.110D-02-0.232D-01-0.107D-02 0.118D+00 0.906D+00
 Gap=     0.327 Goal=   None    Shift=    0.000
 RMSDP=5.06D-09 MaxDP=1.60D-07 DE=-1.52D-11 OVMax= 3.47D-07

 SCF Done:  E(RM062X) =  -644.136753735     A.U. after   12 cycles
            NFock= 12  Conv=0.51D-08     -V/T= 2.0025
 KE= 6.425006513337D+02 PE=-2.087289028184D+03 EE= 5.208052930342D+02
 Leave Link  502 at Mon Feb 20 10:04:25 2023, MaxMem=  6710886400 cpu:             293.6 elap:              12.3
 (Enter /data0/home/software/g16/l601.exe)
 Copying SCF densities to generalized density rwf, IOpCl= 0 IROHF=0.

 **********************************************************************

            Population analysis using the SCF density.

 **********************************************************************

 Alpha  occ. eigenvalues --  -78.16865 -19.69980 -19.68841 -19.68095 -19.58026
 Alpha  occ. eigenvalues --   -6.97656  -5.09581  -5.09557  -5.09304  -1.24689
 Alpha  occ. eigenvalues --   -1.17463  -1.16697  -1.08410  -0.72762  -0.65951
 Alpha  occ. eigenvalues --   -0.63806  -0.58974  -0.53892  -0.51616  -0.49762
 Alpha  occ. eigenvalues --   -0.46159  -0.45695  -0.45003  -0.37917  -0.36917
 Alpha virt. eigenvalues --   -0.04199   0.00686   0.02224   0.04402   0.06625
 Alpha virt. eigenvalues --    0.06897   0.08961   0.10096   0.11384   0.12279
 Alpha virt. eigenvalues --    0.12794   0.14141   0.14289   0.15761   0.16226
 Alpha virt. eigenvalues --    0.17047   0.17848   0.18143   0.18539   0.19118
 Alpha virt. eigenvalues --    0.19956   0.20708   0.21042   0.22017   0.22623
 Alpha virt. eigenvalues --    0.23385   0.24428   0.25729   0.26075   0.27205
 Alpha virt. eigenvalues --    0.27887   0.28564   0.28603   0.29528   0.30414
 Alpha virt. eigenvalues --    0.31204   0.32038   0.32497   0.33390   0.34941
 Alpha virt. eigenvalues --    0.36202   0.37270   0.38416   0.39047   0.40706
 Alpha virt. eigenvalues --    0.41672   0.44197   0.46073   0.48758   0.51536
 Alpha virt. eigenvalues --    0.52771   0.55770   0.58106   0.59817   0.64116
 Alpha virt. eigenvalues --    0.65914   0.74787   0.75937   0.76992   0.77531
 Alpha virt. eigenvalues --    0.77577   0.78811   0.79472   0.80941   0.81890
 Alpha virt. eigenvalues --    0.82507   0.86677   0.87530   0.93368   0.97830
 Alpha virt. eigenvalues --    0.99197   0.99988   1.00408   1.02145   1.04804
 Alpha virt. eigenvalues --    1.06562   1.07243   1.08538   1.09877   1.13570
 Alpha virt. eigenvalues --    1.14751   1.16541   1.18786   1.19872   1.21376
 Alpha virt. eigenvalues --    1.21818   1.23681   1.26871   1.27865   1.31035
 Alpha virt. eigenvalues --    1.33247   1.36075   1.41774   1.44686   1.50213
 Alpha virt. eigenvalues --    1.52617   1.53495   1.54721   1.59387   1.62774
 Alpha virt. eigenvalues --    1.65332   1.67993   1.70670   1.71477   1.72946
 Alpha virt. eigenvalues --    1.79290   1.79865   1.81634   1.82091   1.84833
 Alpha virt. eigenvalues --    1.86247   1.86938   1.87728   1.89106   1.90912
 Alpha virt. eigenvalues --    1.92893   1.95625   1.97480   1.99055   2.00882
 Alpha virt. eigenvalues --    2.01624   2.04303   2.09793   2.11380   2.14258
 Alpha virt. eigenvalues --    2.16248   2.18066   2.20965   2.22126   2.25303
 Alpha virt. eigenvalues --    2.26368   2.27200   2.27224   2.35433   2.36227
 Alpha virt. eigenvalues --    2.42876   2.44020   2.46307   2.48602   2.49170
 Alpha virt. eigenvalues --    2.51164   2.57037   2.57351   2.58527   2.61874
 Alpha virt. eigenvalues --    2.63898   2.64651   2.66091   2.67090   2.70052
 Alpha virt. eigenvalues --    2.70748   2.71250   2.71726   2.72978   2.73999
 Alpha virt. eigenvalues --    2.74847   2.76070   2.78786   2.79750   2.82523
 Alpha virt. eigenvalues --    2.86696   2.87510   2.90337   2.95816   2.96616
 Alpha virt. eigenvalues --    2.98697   3.02156   3.06722   3.11882   3.16359
 Alpha virt. eigenvalues --    3.52737   3.57059   3.58574   3.61751   3.65132
 Alpha virt. eigenvalues --    3.81176   4.49544   4.62127   4.77333   5.00801
 Alpha virt. eigenvalues --    5.02227   5.03883   5.06391   5.07442   5.12274
 Alpha virt. eigenvalues --    5.14477   5.22106   5.25271   5.27905   5.36428
 Alpha virt. eigenvalues --    5.37350   5.43969   5.46834   5.52438   6.72439
 Alpha virt. eigenvalues --    6.73593   6.75092   6.77287   6.79208   6.80950
 Alpha virt. eigenvalues --    6.83976   6.86334   6.90417   6.93136   6.94350
 Alpha virt. eigenvalues --    6.98249   6.99343   7.03548   7.10956   7.24836
 Alpha virt. eigenvalues --    7.25488   7.28299   7.31605   7.41032   7.65086
 Alpha virt. eigenvalues --    9.85825   9.87528   9.93836  10.03666  10.15227
 Alpha virt. eigenvalues --   10.22268  10.25421  10.25803  10.29113  10.31262
 Alpha virt. eigenvalues --   10.36715  10.39357  10.43974  10.55327  10.63897
 Alpha virt. eigenvalues --   12.92069  13.36330  13.39069  13.39563  13.75660
 Alpha virt. eigenvalues --   13.76658  13.80403  14.23100  14.24851  14.28383
 Alpha virt. eigenvalues --   14.35013  14.35874  17.75771  18.36477  18.44638
 Alpha virt. eigenvalues --   49.97776  50.00254  50.00853  50.11308 137.26071
 Alpha virt. eigenvalues --  139.71627 139.75659 163.87293
          Condensed to atoms (all electrons):
               1          2          3          4          5          6
     1  P   12.548660   0.546467   0.253009   0.017915   0.134492   0.042484
     2  O    0.546467   8.092825  -0.002457  -0.012966  -0.028040   0.000968
     3  O    0.253009  -0.002457   8.007779   0.247971   0.006741  -0.015740
     4  H    0.017915  -0.012966   0.247971   0.454567  -0.000337   0.002401
     5  O    0.134492  -0.028040   0.006741  -0.000337   8.154856   0.217499
     6  H    0.042484   0.000968  -0.015740   0.002401   0.217499   0.460089
     7  O    0.231422  -0.007876   0.019808  -0.005519   0.002709  -0.013479
     8  H    0.006973  -0.015272  -0.007801  -0.001043  -0.000502   0.001703
     9  O    0.000133  -0.000010  -0.000149   0.000459  -0.000008   0.000001
    10  H   -0.000160   0.000011   0.000278  -0.000376   0.000013  -0.000001
    11  H   -0.000021  -0.000000  -0.000022  -0.000024   0.000001   0.000000
    12  O   -0.000022  -0.000001   0.000001  -0.000001  -0.000001  -0.000000
    13  H   -0.000061  -0.000002   0.000002  -0.000002   0.000002   0.000000
    14  H    0.000006  -0.000004  -0.000000   0.000000   0.000000   0.000000
    15  O   -0.001708   0.002360  -0.000749  -0.000425  -0.000364  -0.000019
    16  H   -0.001228   0.000918   0.000019  -0.000289   0.000093  -0.000009
    17  H    0.003470   0.005120   0.000874   0.000318   0.000429   0.000012
               7          8          9         10         11         12
     1  P    0.231422   0.006973   0.000133  -0.000160  -0.000021  -0.000022
     2  O   -0.007876  -0.015272  -0.000010   0.000011  -0.000000  -0.000001
     3  O    0.019808  -0.007801  -0.000149   0.000278  -0.000022   0.000001
     4  H   -0.005519  -0.001043   0.000459  -0.000376  -0.000024  -0.000001
     5  O    0.002709  -0.000502  -0.000008   0.000013   0.000001  -0.000001
     6  H   -0.013479   0.001703   0.000001  -0.000001   0.000000  -0.000000
     7  O    8.065548   0.252695   0.000016  -0.000069   0.000001   0.000007
     8  H    0.252695   0.446369   0.000037  -0.000075  -0.000002  -0.000014
     9  O    0.000016   0.000037   0.000581  -0.000472  -0.000151   0.000000
    10  H   -0.000069  -0.000075  -0.000472   0.000593  -0.000000  -0.000000
    11  H    0.000001  -0.000002  -0.000151  -0.000000   0.000148   0.000000
    12  O    0.000007  -0.000014   0.000000  -0.000000   0.000000   0.001389
    13  H   -0.000017   0.000033  -0.000000   0.000000  -0.000000  -0.001774
    14  H   -0.000000  -0.000000   0.000000  -0.000000   0.000000  -0.000255
    15  O    0.000938  -0.000305  -0.000000   0.000001  -0.000000   0.000992
    16  H    0.001350  -0.000395  -0.000003   0.000006   0.000000  -0.000204
    17  H   -0.001208   0.000367   0.000001  -0.000001   0.000000  -0.000061
              13         14         15         16         17
     1  P   -0.000061   0.000006  -0.001708  -0.001228   0.003470
     2  O   -0.000002  -0.000004   0.002360   0.000918   0.005120
     3  O    0.000002  -0.000000  -0.000749   0.000019   0.000874
     4  H   -0.000002   0.000000  -0.000425  -0.000289   0.000318
     5  O    0.000002   0.000000  -0.000364   0.000093   0.000429
     6  H    0.000000   0.000000  -0.000019  -0.000009   0.000012
     7  O   -0.000017  -0.000000   0.000938   0.001350  -0.001208
     8  H    0.000033  -0.000000  -0.000305  -0.000395   0.000367
     9  O   -0.000000   0.000000  -0.000000  -0.000003   0.000001
    10  H    0.000000  -0.000000   0.000001   0.000006  -0.000001
    11  H   -0.000000   0.000000  -0.000000   0.000000   0.000000
    12  O   -0.001774  -0.000255   0.000992  -0.000204  -0.000061
    13  H    0.003101   0.000145  -0.002219   0.000678  -0.000035
    14  H    0.000145   0.000126  -0.000060   0.000015   0.000020
    15  O   -0.002219  -0.000060   0.007866  -0.002140  -0.003637
    16  H    0.000678   0.000015  -0.002140   0.002479  -0.000267
    17  H   -0.000035   0.000020  -0.003637  -0.000267   0.004361
 Mulliken charges:
               1
     1  P    1.218169
     2  O   -0.582041
     3  O   -0.509565
     4  H    0.297350
     5  O   -0.487583
     6  H    0.304091
     7  O   -0.546324
     8  H    0.317232
     9  O   -0.000433
    10  H    0.000253
    11  H    0.000071
    12  O   -0.000058
    13  H    0.000146
    14  H    0.000009
    15  O   -0.000530
    16  H   -0.001025
    17  H   -0.009762
 Sum of Mulliken charges =  -0.00000
 Mulliken charges with hydrogens summed into heavy atoms:
               1
     1  P    1.218169
     2  O   -0.582041
     3  O   -0.212215
     5  O   -0.183493
     7  O   -0.229091
     9  O   -0.000109
    12  O    0.000097
    15  O   -0.011318
         Mulliken charges condensed to fragments:
      1      0.011330
      2     -0.000109
      3      0.000097
      4     -0.011318
 Electronic spatial extent (au):  <R**2>=          51949.7546
 Charge=             -0.0000 electrons
 Dipole moment (field-independent basis, Debye):
    X=              0.4923    Y=              5.1538    Z=              2.7221  Tot=              5.8493
 Quadrupole moment (field-independent basis, Debye-Ang):
   XX=            -21.4519   YY=             67.9722   ZZ=              5.5950
   XY=             61.0099   XZ=             30.2123   YZ=             67.3685
 Traceless Quadrupole moment (field-independent basis, Debye-Ang):
   XX=            -38.8236   YY=             50.6004   ZZ=            -11.7768
   XY=             61.0099   XZ=             30.2123   YZ=             67.3685
 Octapole moment (field-independent basis, Debye-Ang**2):
  XXX=           -930.4085  YYY=            472.5490  ZZZ=           -288.0385  XYY=            766.4689
  XXY=            399.7221  XXZ=             99.7059  XZZ=             18.8400  YZZ=            365.1317
  YYZ=            829.8202  XYZ=            734.9641
 Hexadecapole moment (field-independent basis, Debye-Ang**3):
 XXXX=         -22918.1635 YYYY=          -1437.8683 ZZZZ=          -6106.2226 XXXY=          -2529.8230
 XXXZ=          -4379.9479 YYYX=           4935.6296 YYYZ=           7266.2546 ZZZX=          -3945.7225
 ZZZY=           -510.1098 XXYY=           5438.4974 XXZZ=          -2047.6855 YYZZ=           4980.6810
 XXYZ=           5682.0780 YYXZ=           8842.7398 ZZXY=           3492.9023
 N-N= 2.798463300805D+02 E-N=-2.087289032863D+03  KE= 6.425006513337D+02
 No NMR shielding tensors so no spin-rotation constants.
 Leave Link  601 at Mon Feb 20 10:04:26 2023, MaxMem=  6710886400 cpu:               2.1 elap:               0.1
 (Enter /data0/home/software/g16/l122.exe)
 CPIOFr:  IOpCl= 0 IRwI=-1 IRwCP=  731 ICalc=  1 LCPTot=      120517 Len1MO=      315166 IndFrg=      750849
 Counterpoise: doing calculation for fragment   2 using the basis set of the full-system, NewBq=T
 Leave Link  122 at Mon Feb 20 10:04:26 2023, MaxMem=  6710886400 cpu:               0.1 elap:               0.0
 (Enter /data0/home/software/g16/l301.exe)
 Basis read from rwf:  (5D, 7F)
 No pseudopotential information found on rwf file.
   278 basis functions,   422 primitive gaussians,   294 cartesian basis functions
     5 alpha electrons        5 beta electrons
       nuclear repulsion energy         9.1079630027 Hartrees.
 IExCor= 4336 DFT=T Ex+Corr=M062X ExCW=0 ScaHFX=  0.540000
 ScaDFX=  1.000000  1.000000  1.000000  1.000000 ScalE2=  1.000000  1.000000
 IRadAn=      5 IRanWt=     -1 IRanGd=            0 ICorTp=0 IEmpDi=131
 NAtoms=   17 NActive=   17 NUniq=   17 SFac= 1.00D+00 NAtFMM=   60 NAOKFM=F Big=F
 Integral buffers will be    131072 words long.
 Raffenetti 2 integral format.
 Two-electron integral symmetry is turned off.
 R6Disp:  Grimme-D3 Dispersion energy=       -0.0000000080 Hartrees.
 Nuclear repulsion after empirical dispersion term =        9.1079629947 Hartrees.
 No density basis found on file   718.
 Leave Link  301 at Mon Feb 20 10:04:26 2023, MaxMem=  6710886400 cpu:               1.3 elap:               0.1
 (Enter /data0/home/software/g16/l302.exe)
 NPDir=0 NMtPBC=     1 NCelOv=     1 NCel=       1 NClECP=     1 NCelD=      1
         NCelK=      1 NCelE2=     1 NClLst=     1 CellRange=     0.0.
 One-electron integrals computed using PRISM.
 NBasis=   278 RedAO= T EigKep=  4.76D-04  NBF=   278
 NBsUse=   278 1.00D-06 EigRej= -1.00D+00 NBFU=   278
 Precomputing XC quadrature grid using
 IXCGrd= 4 IRadAn=           5 IRanWt=          -1 IRanGd=           0 AccXCQ= 0.00D+00.
 Generated NRdTot=       0 NPtTot=           0 NUsed=           0 NTot=          32
 NSgBfM=   279   279   279   279   279 MxSgAt=    17 MxSgA2=    17.
 Leave Link  302 at Mon Feb 20 10:04:26 2023, MaxMem=  6710886400 cpu:               4.3 elap:               0.2
 (Enter /data0/home/software/g16/l303.exe)
 DipDrv:  MaxL=1.
 Leave Link  303 at Mon Feb 20 10:04:26 2023, MaxMem=  6710886400 cpu:               0.6 elap:               0.0
 (Enter /data0/home/software/g16/l401.exe)
 ExpMin= 3.48D-02 ExpMax= 7.75D+04 ExpMxC= 2.65D+03 IAcc=3 IRadAn=         5 AccDes= 0.00D+00
 Harris functional with IExCor= 1009 and IRadAn=       5 diagonalized for initial guess.
 HarFok:  IExCor= 1009 AccDes= 0.00D+00 IRadAn=         5 IDoV= 1 UseB2=F ITyADJ=14
 ICtDFT=  3500011 ScaDFX=  1.000000  1.000000  1.000000  1.000000
 FoFCou: FMM=F IPFlag=           0 FMFlag=      100000 FMFlg1=           0
         NFxFlg=           0 DoJE=T BraDBF=F KetDBF=T FulRan=T
         wScrn=  0.000000 ICntrl=       500 IOpCl=  0 I1Cent=   200000004 NGrid=           0
         NMat0=    1 NMatS0=      1 NMatT0=    0 NMatD0=    1 NMtDS0=    0 NMtDT0=    0
 Symmetry not used in FoFCou.
 Harris En= -76.4164024598490    
 JPrj=0 DoOrth=F DoCkMO=F.
 Leave Link  401 at Mon Feb 20 10:04:26 2023, MaxMem=  6710886400 cpu:              11.3 elap:               0.5
 (Enter /data0/home/software/g16/l502.exe)
 Two-electron integral symmetry not used.
 Closed shell SCF:
 Using DIIS extrapolation, IDIIS=  1040.
 NGot=  6710886400 LenX=  6710704303 LenY=  6710617426
 Requested convergence on RMS density matrix=1.00D-08 within 128 cycles.
 Requested convergence on MAX density matrix=1.00D-06.
 Requested convergence on             energy=1.00D-06.
 No special actions if energy rises.
 Fock matrices will be formed incrementally for  20 cycles.

 Cycle   1  Pass 1  IDiag  1:
 FoFJK:  IHMeth= 1 ICntrl=       0 DoSepK=F KAlg= 0 I1Cent=           0 FoldK=F
 IRaf= 800000000 NMat=       1 IRICut=       1 DoRegI=T DoRafI=F ISym2E= 0 IDoP0=0 IntGTp=1.
 FoFCou: FMM=F IPFlag=           0 FMFlag=      100000 FMFlg1=           0
         NFxFlg=           0 DoJE=F BraDBF=F KetDBF=F FulRan=T
         wScrn=  0.000000 ICntrl=         0 IOpCl=  0 I1Cent=           0 NGrid=           0
         NMat0=    1 NMatS0=      1 NMatT0=    0 NMatD0=    1 NMtDS0=    0 NMtDT0=    0
 Symmetry not used in FoFCou.
 E= -76.3456567457794    
 DIIS: error= 4.70D-02 at cycle   1 NSaved=   1.
 NSaved= 1 IEnMin= 1 EnMin= -76.3456567457794     IErMin= 1 ErrMin= 4.70D-02
 ErrMax= 4.70D-02  0.00D+00 EMaxC= 1.00D-01 BMatC= 1.21D-01 BMatP= 1.21D-01
 IDIUse=3 WtCom= 5.30D-01 WtEn= 4.70D-01
 Coeff-Com:  0.100D+01
 Coeff-En:   0.100D+01
 Coeff:      0.100D+01
 Gap=     0.294 Goal=   None    Shift=    0.000
 GapD=    0.294 DampG=1.000 DampE=0.500 DampFc=0.5000 IDamp=-1.
 Damping current iteration by 5.00D-01
 RMSDP=1.12D-03 MaxDP=1.01D-01              OVMax= 1.69D-01

 Cycle   2  Pass 1  IDiag  1:
 RMSU=  5.39D-04    CP:  9.63D-01
 E= -76.3772007259400     Delta-E=       -0.031543980161 Rises=F Damp=T
 DIIS: error= 6.33D-03 at cycle   2 NSaved=   2.
 NSaved= 2 IEnMin= 2 EnMin= -76.3772007259400     IErMin= 2 ErrMin= 6.33D-03
 ErrMax= 6.33D-03  0.00D+00 EMaxC= 1.00D-01 BMatC= 4.85D-03 BMatP= 1.21D-01
 IDIUse=3 WtCom= 9.37D-01 WtEn= 6.33D-02
 Coeff-Com:  0.823D-01 0.918D+00
 Coeff-En:   0.188D+00 0.812D+00
 Coeff:      0.890D-01 0.911D+00
 Gap=     0.407 Goal=   None    Shift=    0.000
 RMSDP=1.39D-04 MaxDP=1.43D-02 DE=-3.15D-02 OVMax= 1.02D-01

 Cycle   3  Pass 1  IDiag  1:
 RMSU=  9.78D-05    CP:  9.76D-01  8.48D-01
 E= -76.4213076186159     Delta-E=       -0.044106892676 Rises=F Damp=F
 DIIS: error= 1.86D-03 at cycle   3 NSaved=   3.
 NSaved= 3 IEnMin= 3 EnMin= -76.4213076186159     IErMin= 3 ErrMin= 1.86D-03
 ErrMax= 1.86D-03  0.00D+00 EMaxC= 1.00D-01 BMatC= 1.39D-04 BMatP= 4.85D-03
 IDIUse=3 WtCom= 9.81D-01 WtEn= 1.86D-02
 Coeff-Com: -0.258D-01 0.511D-01 0.975D+00
 Coeff-En:   0.000D+00 0.000D+00 0.100D+01
 Coeff:     -0.253D-01 0.502D-01 0.975D+00
 Gap=     0.410 Goal=   None    Shift=    0.000
 RMSDP=1.96D-05 MaxDP=1.23D-03 DE=-4.41D-02 OVMax= 3.78D-03

 Cycle   4  Pass 1  IDiag  1:
 RMSU=  1.13D-05    CP:  9.75D-01  8.75D-01  1.06D+00
 E= -76.4214193532568     Delta-E=       -0.000111734641 Rises=F Damp=F
 DIIS: error= 2.24D-04 at cycle   4 NSaved=   4.
 NSaved= 4 IEnMin= 4 EnMin= -76.4214193532568     IErMin= 4 ErrMin= 2.24D-04
 ErrMax= 2.24D-04  0.00D+00 EMaxC= 1.00D-01 BMatC= 3.22D-06 BMatP= 1.39D-04
 IDIUse=3 WtCom= 9.98D-01 WtEn= 2.24D-03
 Coeff-Com: -0.301D-02 0.377D-04 0.162D+00 0.841D+00
 Coeff-En:   0.000D+00 0.000D+00 0.000D+00 0.100D+01
 Coeff:     -0.301D-02 0.376D-04 0.162D+00 0.841D+00
 Gap=     0.411 Goal=   None    Shift=    0.000
 RMSDP=3.21D-06 MaxDP=3.41D-04 DE=-1.12D-04 OVMax= 5.26D-04

 Cycle   5  Pass 1  IDiag  1:
 RMSU=  2.45D-06    CP:  9.76D-01  8.73D-01  1.08D+00  1.04D+00
 E= -76.4214213271046     Delta-E=       -0.000001973848 Rises=F Damp=F
 DIIS: error= 5.00D-05 at cycle   5 NSaved=   5.
 NSaved= 5 IEnMin= 5 EnMin= -76.4214213271046     IErMin= 5 ErrMin= 5.00D-05
 ErrMax= 5.00D-05  0.00D+00 EMaxC= 1.00D-01 BMatC= 8.25D-08 BMatP= 3.22D-06
 IDIUse=1 WtCom= 1.00D+00 WtEn= 0.00D+00
 Coeff-Com:  0.141D-02-0.220D-02-0.370D-01-0.689D-01 0.111D+01
 Coeff:      0.141D-02-0.220D-02-0.370D-01-0.689D-01 0.111D+01
 Gap=     0.411 Goal=   None    Shift=    0.000
 RMSDP=1.37D-06 MaxDP=1.01D-04 DE=-1.97D-06 OVMax= 2.05D-04

 Cycle   6  Pass 1  IDiag  1:
 RMSU=  4.66D-07    CP:  9.76D-01  8.73D-01  1.09D+00  1.11D+00  1.30D+00
 E= -76.4214214631815     Delta-E=       -0.000000136077 Rises=F Damp=F
 DIIS: error= 5.18D-06 at cycle   6 NSaved=   6.
 NSaved= 6 IEnMin= 6 EnMin= -76.4214214631815     IErMin= 6 ErrMin= 5.18D-06
 ErrMax= 5.18D-06  0.00D+00 EMaxC= 1.00D-01 BMatC= 1.56D-09 BMatP= 8.25D-08
 IDIUse=1 WtCom= 1.00D+00 WtEn= 0.00D+00
 Coeff-Com: -0.251D-03 0.359D-03 0.335D-02-0.923D-03-0.159D+00 0.116D+01
 Coeff:     -0.251D-03 0.359D-03 0.335D-02-0.923D-03-0.159D+00 0.116D+01
 Gap=     0.411 Goal=   None    Shift=    0.000
 RMSDP=2.27D-07 MaxDP=1.91D-05 DE=-1.36D-07 OVMax= 3.81D-05

 Cycle   7  Pass 1  IDiag  1:
 RMSU=  6.92D-08    CP:  9.76D-01  8.73D-01  1.09D+00  1.12D+00  1.35D+00
                    CP:  1.23D+00
 E= -76.4214214663215     Delta-E=       -0.000000003140 Rises=F Damp=F
 DIIS: error= 6.44D-07 at cycle   7 NSaved=   7.
 NSaved= 7 IEnMin= 7 EnMin= -76.4214214663215     IErMin= 7 ErrMin= 6.44D-07
 ErrMax= 6.44D-07  0.00D+00 EMaxC= 1.00D-01 BMatC= 2.77D-11 BMatP= 1.56D-09
 IDIUse=1 WtCom= 1.00D+00 WtEn= 0.00D+00
 Coeff-Com: -0.890D-05 0.283D-04 0.251D-03 0.132D-02-0.172D-01-0.420D-02
 Coeff-Com:  0.102D+01
 Coeff:     -0.890D-05 0.283D-04 0.251D-03 0.132D-02-0.172D-01-0.420D-02
 Coeff:      0.102D+01
 Gap=     0.411 Goal=   None    Shift=    0.000
 RMSDP=2.94D-08 MaxDP=2.30D-06 DE=-3.14D-09 OVMax= 4.64D-06

 Cycle   8  Pass 1  IDiag  1:
 RMSU=  1.42D-08    CP:  9.76D-01  8.73D-01  1.09D+00  1.12D+00  1.36D+00
                    CP:  1.27D+00  1.14D+00
 E= -76.4214214663720     Delta-E=       -0.000000000050 Rises=F Damp=F
 DIIS: error= 1.98D-07 at cycle   8 NSaved=   8.
 NSaved= 8 IEnMin= 8 EnMin= -76.4214214663720     IErMin= 8 ErrMin= 1.98D-07
 ErrMax= 1.98D-07  0.00D+00 EMaxC= 1.00D-01 BMatC= 1.96D-12 BMatP= 2.77D-11
 IDIUse=1 WtCom= 1.00D+00 WtEn= 0.00D+00
 Coeff-Com:  0.138D-04-0.169D-04-0.152D-03 0.329D-03 0.595D-02-0.606D-01
 Coeff-Com:  0.133D+00 0.921D+00
 Coeff:      0.138D-04-0.169D-04-0.152D-03 0.329D-03 0.595D-02-0.606D-01
 Coeff:      0.133D+00 0.921D+00
 Gap=     0.411 Goal=   None    Shift=    0.000
 RMSDP=5.64D-09 MaxDP=2.75D-07 DE=-5.04D-11 OVMax= 8.96D-07

 SCF Done:  E(RM062X) =  -76.4214214664     A.U. after    8 cycles
            NFock=  8  Conv=0.56D-08     -V/T= 2.0029
 KE= 7.619700214344D+01 PE=-1.990684589194D+02 EE= 3.734207231487D+01
 Leave Link  502 at Mon Feb 20 10:04:35 2023, MaxMem=  6710886400 cpu:             202.4 elap:               8.5
 (Enter /data0/home/software/g16/l601.exe)
 Copying SCF densities to generalized density rwf, IOpCl= 0 IROHF=0.

 **********************************************************************

            Population analysis using the SCF density.

 **********************************************************************

 Alpha  occ. eigenvalues --  -19.62564  -1.13335  -0.60910  -0.47372  -0.39973
 Alpha virt. eigenvalues --    0.01108   0.04124   0.05233   0.05782   0.08413
 Alpha virt. eigenvalues --    0.09667   0.12772   0.14248   0.14776   0.15418
 Alpha virt. eigenvalues --    0.15778   0.16960   0.17489   0.18156   0.18897
 Alpha virt. eigenvalues --    0.19332   0.19761   0.20643   0.21517   0.21725
 Alpha virt. eigenvalues --    0.22824   0.23609   0.24568   0.25388   0.25656
 Alpha virt. eigenvalues --    0.27117   0.28308   0.28745   0.30014   0.31381
 Alpha virt. eigenvalues --    0.32397   0.32784   0.34579   0.36197   0.37291
 Alpha virt. eigenvalues --    0.38155   0.38840   0.39255   0.40864   0.41660
 Alpha virt. eigenvalues --    0.41698   0.43545   0.45792   0.47220   0.49236
 Alpha virt. eigenvalues --    0.53650   0.59090   0.65276   0.67951   0.72053
 Alpha virt. eigenvalues --    0.72537   0.74009   0.74950   0.75708   0.76402
 Alpha virt. eigenvalues --    0.77414   0.79949   0.81373   0.81518   0.82537
 Alpha virt. eigenvalues --    0.85964   0.86653   0.88053   0.89127   0.89734
 Alpha virt. eigenvalues --    0.92937   0.95035   0.97931   0.98183   0.99118
 Alpha virt. eigenvalues --    1.00291   1.02364   1.06280   1.06929   1.07777
 Alpha virt. eigenvalues --    1.09337   1.11220   1.14897   1.15550   1.17065
 Alpha virt. eigenvalues --    1.18823   1.19611   1.21384   1.23642   1.24587
 Alpha virt. eigenvalues --    1.26702   1.30042   1.33053   1.34979   1.35173
 Alpha virt. eigenvalues --    1.38090   1.47335   1.48926   1.56996   1.69836
 Alpha virt. eigenvalues --    1.74939   1.77529   1.86929   1.89687   1.90969
 Alpha virt. eigenvalues --    1.92392   1.93704   1.97398   1.98827   2.00379
 Alpha virt. eigenvalues --    2.03364   2.05949   2.07882   2.09717   2.10013
 Alpha virt. eigenvalues --    2.20911   2.24819   2.26939   2.28106   2.31282
 Alpha virt. eigenvalues --    2.33362   2.35316   2.37034   2.37874   2.38722
 Alpha virt. eigenvalues --    2.40383   2.42932   2.44802   2.46961   2.50486
 Alpha virt. eigenvalues --    2.54246   2.54509   2.56068   2.57688   2.58374
 Alpha virt. eigenvalues --    2.60528   2.61913   2.63806   2.65679   2.66780
 Alpha virt. eigenvalues --    2.68076   2.69133   2.69869   2.71456   2.71913
 Alpha virt. eigenvalues --    2.72814   2.76573   2.77677   2.80187   2.81044
 Alpha virt. eigenvalues --    2.82255   2.82919   2.84990   2.88371   2.88891
 Alpha virt. eigenvalues --    2.90264   2.94647   2.97299   2.98848   2.99115
 Alpha virt. eigenvalues --    3.00099   3.02682   3.02939   3.03929   3.04585
 Alpha virt. eigenvalues --    3.06973   3.09484   3.10482   3.15661   3.19562
 Alpha virt. eigenvalues --    3.21045   3.23510   3.27524   3.30002   3.31924
 Alpha virt. eigenvalues --    3.32774   3.36839   3.39932   3.47785   3.51271
 Alpha virt. eigenvalues --    3.61531   3.69744   3.73107   3.75720   3.80600
 Alpha virt. eigenvalues --    3.84641   3.84789   4.48988   4.55133   4.59968
 Alpha virt. eigenvalues --    4.62805   4.68369   4.73555   4.77524   4.79129
 Alpha virt. eigenvalues --    4.97518   5.00340   5.06414   5.10301   5.28310
 Alpha virt. eigenvalues --    5.39393   5.47913   5.93986   6.78177   6.80348
 Alpha virt. eigenvalues --    6.87064   6.91479   7.09786  10.21207  10.24043
 Alpha virt. eigenvalues --   10.25867  10.25964  10.26047  10.28365  10.28524
 Alpha virt. eigenvalues --   10.30055  10.30558  10.31301  10.32847  10.33488
 Alpha virt. eigenvalues --   10.36051  10.38001  10.39027  10.42964  10.44314
 Alpha virt. eigenvalues --   10.45070  10.46536  10.48232  10.49049  10.54016
 Alpha virt. eigenvalues --   10.58623  10.58641  10.60664  10.61868  10.68405
 Alpha virt. eigenvalues --   10.77225  10.77891  10.83435  10.86340  10.87759
 Alpha virt. eigenvalues --   10.93382  13.39929  13.40413  13.43128  13.43966
 Alpha virt. eigenvalues --   13.46952  13.47973  13.48877  13.54423  13.59956
 Alpha virt. eigenvalues --   13.67811  13.80486  13.80867  13.90267  13.92590
 Alpha virt. eigenvalues --   13.92651  13.98462  14.30268  14.37565  14.42416
 Alpha virt. eigenvalues --   18.42056  18.48704  18.52342  18.53893  18.54368
 Alpha virt. eigenvalues --   18.55709  49.96315  53.47659  53.49756  53.60337
 Alpha virt. eigenvalues --   71.43934 139.74854 139.76030 139.77085 139.78149
 Alpha virt. eigenvalues --  139.78551 139.79053 485.25110
          Condensed to atoms (all electrons):
               1          2          3          4          5          6
     1  P    0.001676  -0.000183  -0.000777   0.000171  -0.000643  -0.000034
     2  O   -0.000183   0.000416  -0.000395   0.000148  -0.000115  -0.000007
     3  O   -0.000777  -0.000395   0.001871  -0.001042   0.000474   0.000034
     4  H    0.000171   0.000148  -0.001042   0.000926  -0.000138  -0.000001
     5  O   -0.000643  -0.000115   0.000474  -0.000138   0.000481   0.000006
     6  H   -0.000034  -0.000007   0.000034  -0.000001   0.000006   0.000012
     7  O   -0.000188   0.000181  -0.000325   0.000147  -0.000088  -0.000010
     8  H    0.000003  -0.000019   0.000051  -0.000037   0.000014  -0.000000
     9  O    0.000244   0.000007  -0.000319   0.001026  -0.000005   0.000000
    10  H    0.000322   0.000004  -0.000502   0.000801  -0.000004   0.000000
    11  H    0.000026  -0.000000  -0.000017   0.000010   0.000000   0.000000
    12  O   -0.000000  -0.000001   0.000000  -0.000000   0.000000   0.000000
    13  H   -0.000002   0.000003  -0.000001   0.000000  -0.000000  -0.000000
    14  H    0.000000  -0.000000   0.000000  -0.000000   0.000000   0.000000
    15  O   -0.000083   0.000081  -0.000027   0.000010  -0.000004  -0.000000
    16  H   -0.000034   0.000025  -0.000012   0.000008  -0.000001  -0.000000
    17  H    0.000119  -0.000130   0.000045  -0.000016   0.000008   0.000000
               7          8          9         10         11         12
     1  P   -0.000188   0.000003   0.000244   0.000322   0.000026  -0.000000
     2  O    0.000181  -0.000019   0.000007   0.000004  -0.000000  -0.000001
     3  O   -0.000325   0.000051  -0.000319  -0.000502  -0.000017   0.000000
     4  H    0.000147  -0.000037   0.001026   0.000801   0.000010  -0.000000
     5  O   -0.000088   0.000014  -0.000005  -0.000004   0.000000   0.000000
     6  H   -0.000010  -0.000000   0.000000   0.000000   0.000000   0.000000
     7  O    0.000312  -0.000025   0.000006  -0.000011   0.000001  -0.000000
     8  H   -0.000025   0.000010  -0.000007  -0.000008   0.000000   0.000000
     9  O    0.000006  -0.000007   7.918408   0.320534   0.325162  -0.000000
    10  H   -0.000011  -0.000008   0.320534   0.414183  -0.025235  -0.000000
    11  H    0.000001   0.000000   0.325162  -0.025235   0.423243   0.000000
    12  O   -0.000000   0.000000  -0.000000  -0.000000   0.000000   0.000004
    13  H    0.000001  -0.000000  -0.000000   0.000000  -0.000000  -0.000007
    14  H   -0.000000   0.000000   0.000000  -0.000000   0.000000   0.000001
    15  O    0.000032  -0.000002  -0.000000  -0.000001   0.000000   0.000002
    16  H    0.000015  -0.000003  -0.000001   0.000000  -0.000000  -0.000001
    17  H   -0.000045   0.000004   0.000000   0.000000   0.000000   0.000002
              13         14         15         16         17
     1  P   -0.000002   0.000000  -0.000083  -0.000034   0.000119
     2  O    0.000003  -0.000000   0.000081   0.000025  -0.000130
     3  O   -0.000001   0.000000  -0.000027  -0.000012   0.000045
     4  H    0.000000  -0.000000   0.000010   0.000008  -0.000016
     5  O   -0.000000   0.000000  -0.000004  -0.000001   0.000008
     6  H   -0.000000   0.000000  -0.000000  -0.000000   0.000000
     7  O    0.000001  -0.000000   0.000032   0.000015  -0.000045
     8  H   -0.000000   0.000000  -0.000002  -0.000003   0.000004
     9  O   -0.000000   0.000000  -0.000000  -0.000001   0.000000
    10  H    0.000000  -0.000000  -0.000001   0.000000   0.000000
[...]

            Population analysis using the SCF density.

 **********************************************************************

 Alpha  occ. eigenvalues --  -19.62518  -1.13454  -0.61034  -0.47412  -0.39995
 Alpha virt. eigenvalues --    0.06346   0.13373   0.17376   0.17947   0.18958
 Alpha virt. eigenvalues --    0.23204   0.51297   0.53771   0.97749   1.00180
 Alpha virt. eigenvalues --    1.06050   1.19008   1.19868   1.32687   1.33692
 Alpha virt. eigenvalues --    1.69476   1.74138   1.76081   2.07739   2.09720
 Alpha virt. eigenvalues --    2.35074   2.43142   2.54351   2.88995   3.01670
 Alpha virt. eigenvalues --    5.05727   5.47840   5.94397   6.78177   6.80324
 Alpha virt. eigenvalues --    6.86919   6.91532   7.09355  49.96272
          Condensed to atoms (all electrons):
              12         13         14
    12  O    7.912516   0.320732   0.324644
    13  H    0.320732   0.423370  -0.024819
    14  H    0.324644  -0.024819   0.423002
 Mulliken charges:
               1
     1  P    0.000000
     2  O    0.000000
     3  O    0.000000
     4  H    0.000000
     5  O    0.000000
     6  H    0.000000
     7  O    0.000000
     8  H    0.000000
     9  O    0.000000
    10  H    0.000000
    11  H    0.000000
    12  O   -0.557891
    13  H    0.280718
    14  H    0.277174
    15  O    0.000000
    16  H    0.000000
    17  H    0.000000
 Sum of Mulliken charges =  -0.00000
 Mulliken charges with hydrogens summed into heavy atoms:
               1
     1  P    0.000000
     2  O    0.000000
     3  O    0.000000
     5  O    0.000000
     7  O    0.000000
     9  O    0.000000
    12  O   -0.000000
    15  O    0.000000
         Mulliken charges condensed to fragments:
      1      0.000000
      2      0.000000
      3     -0.000000
      4      0.000000
 Electronic spatial extent (au):  <R**2>=           6739.6652
 Charge=             -0.0000 electrons
 Dipole moment (field-independent basis, Debye):
    X=             -0.2302    Y=              0.4236    Z=             -2.0466  Tot=              2.1026
 Quadrupole moment (field-independent basis, Debye-Ang):
   XX=             -7.2732   YY=              0.0216   ZZ=            -43.4488
   XY=              1.3773   XZ=            -13.4727   YZ=            -14.2142
 Traceless Quadrupole moment (field-independent basis, Debye-Ang):
   XX=              9.6269   YY=             16.9217   ZZ=            -26.5487
   XY=              1.3773   XZ=            -13.4727   YZ=            -14.2142
 Octapole moment (field-independent basis, Debye-Ang**2):
  XXX=           -100.3160  YYY=            -94.4072  ZZZ=           -677.9626  XYY=              0.5552
  XXY=            -38.4080  XXZ=           -130.4095  XZZ=           -260.5494  YZZ=           -347.2652
  YYZ=           -159.3328  XYZ=            -88.2945
 Hexadecapole moment (field-independent basis, Debye-Ang**3):
 XXXX=          -1046.7704 YYYY=          -2186.9473 ZZZZ=          -9266.2365 XXXY=           -698.2473
 XXXZ=          -1280.5095 YYYX=           -443.1797 YYYZ=          -2267.5983 ZZZX=          -3940.8096
 ZZZY=          -5632.0005 XXYY=           -347.0827 XXZZ=          -1964.0031 YYZZ=          -3365.4416
 XXYZ=           -920.5987 YYXZ=           -888.4147 ZZXY=          -2017.5825
 N-N= 9.134406638983D+00 E-N=-1.991259045236D+02  KE= 7.620703122396D+01
 No NMR shielding tensors so no spin-rotation constants.
 Leave Link  601 at Mon Feb 20 10:05:02 2023, MaxMem=  6710886400 cpu:               1.8 elap:               0.1
 (Enter /data0/home/software/g16/l122.exe)
 CPIOFr:  IOpCl= 0 IRwI=-1 IRwCP=  731 ICalc=  7 LCPTot=      120517 Len1MO=      315166 IndFrg=     2641845
 Counterpoise: doing calculation for fragment   4 using the basis set of the fragment.
 Leave Link  122 at Mon Feb 20 10:05:02 2023, MaxMem=  6710886400 cpu:               0.1 elap:               0.0
 (Enter /data0/home/software/g16/l301.exe)
 Basis read from rwf:  (5D, 7F)
 No pseudopotential information found on rwf file.
    39 basis functions,    58 primitive gaussians,    41 cartesian basis functions
     5 alpha electrons        5 beta electrons
       nuclear repulsion energy         9.0699614919 Hartrees.
 IExCor= 4336 DFT=T Ex+Corr=M062X ExCW=0 ScaHFX=  0.540000
 ScaDFX=  1.000000  1.000000  1.000000  1.000000 ScalE2=  1.000000  1.000000
 IRadAn=      5 IRanWt=     -1 IRanGd=            0 ICorTp=0 IEmpDi=131
 NAtoms=   17 NActive=    3 NUniq=    3 SFac= 1.00D+00 NAtFMM=   60 NAOKFM=F Big=F
 Integral buffers will be    131072 words long.
 Raffenetti 2 integral format.
 Two-electron integral symmetry is turned off.
 R6Disp:  Grimme-D3 Dispersion energy=       -0.0000000075 Hartrees.
 Nuclear repulsion after empirical dispersion term =        9.0699614845 Hartrees.
 No density basis found on file   718.
 Leave Link  301 at Mon Feb 20 10:05:02 2023, MaxMem=  6710886400 cpu:               1.2 elap:               0.1
 (Enter /data0/home/software/g16/l302.exe)
 NPDir=0 NMtPBC=     1 NCelOv=     1 NCel=       1 NClECP=     1 NCelD=      1
         NCelK=      1 NCelE2=     1 NClLst=     1 CellRange=     0.0.
 One-electron integrals computed using PRISM.
 NBasis=    39 RedAO= T EigKep=  3.04D-03  NBF=    39
 NBsUse=    39 1.00D-06 EigRej= -1.00D+00 NBFU=    39
 Precomputing XC quadrature grid using
 IXCGrd= 4 IRadAn=           5 IRanWt=          -1 IRanGd=           0 AccXCQ= 0.00D+00.
 Generated NRdTot=       0 NPtTot=           0 NUsed=           0 NTot=          32
 NSgBfM=    41    41    41    41    41 MxSgAt=     3 MxSgA2=     3.
 Leave Link  302 at Mon Feb 20 10:05:02 2023, MaxMem=  6710886400 cpu:               2.3 elap:               0.1
 (Enter /data0/home/software/g16/l303.exe)
 DipDrv:  MaxL=1.
 Leave Link  303 at Mon Feb 20 10:05:02 2023, MaxMem=  6710886400 cpu:               0.4 elap:               0.0
 (Enter /data0/home/software/g16/l401.exe)
 ExpMin= 8.45D-02 ExpMax= 8.59D+03 ExpMxC= 1.30D+03 IAcc=3 IRadAn=         5 AccDes= 0.00D+00
 Harris functional with IExCor= 1009 and IRadAn=       5 diagonalized for initial guess.
 HarFok:  IExCor= 1009 AccDes= 0.00D+00 IRadAn=         5 IDoV= 1 UseB2=F ITyADJ=14
 ICtDFT=  3500011 ScaDFX=  1.000000  1.000000  1.000000  1.000000
 FoFCou: FMM=F IPFlag=           0 FMFlag=      100000 FMFlg1=           0
         NFxFlg=           0 DoJE=T BraDBF=F KetDBF=T FulRan=T
         wScrn=  0.000000 ICntrl=       500 IOpCl=  0 I1Cent=   200000004 NGrid=           0
         NMat0=    1 NMatS0=      1 NMatT0=    0 NMatD0=    1 NMtDS0=    0 NMtDT0=    0
 Symmetry not used in FoFCou.
 Harris En= -76.4160560608739    
 JPrj=0 DoOrth=F DoCkMO=F.
 Leave Link  401 at Mon Feb 20 10:05:02 2023, MaxMem=  6710886400 cpu:               2.9 elap:               0.1
 (Enter /data0/home/software/g16/l502.exe)
 Keep R1 ints in memory in canonical form, NReq=21038482.
 FoFCou: FMM=F IPFlag=           0 FMFlag=           0 FMFlg1=           0
         NFxFlg=           0 DoJE=F BraDBF=F KetDBF=F FulRan=T
         wScrn=  0.000000 ICntrl=       600 IOpCl=  0 I1Cent=           0 NGrid=           0
         NMat0=    1 NMatS0=    780 NMatT0=    0 NMatD0=    1 NMtDS0=    0 NMtDT0=    0
 Symmetry not used in FoFCou.
 Two-electron integral symmetry not used.
 Closed shell SCF:
 Using DIIS extrapolation, IDIIS=  1040.
 NGot=  6710886400 LenX=  6710576560 LenY=  6710574438
 Requested convergence on RMS density matrix=1.00D-08 within 128 cycles.
 Requested convergence on MAX density matrix=1.00D-06.
 Requested convergence on             energy=1.00D-06.
 No special actions if energy rises.
 Integral accuracy reduced to 1.0D-05 until final iterations.

 Cycle   1  Pass 0  IDiag  1:
 E= -76.3468204640167    
 DIIS: error= 6.96D-02 at cycle   1 NSaved=   1.
 NSaved= 1 IEnMin= 1 EnMin= -76.3468204640167     IErMin= 1 ErrMin= 6.96D-02
 ErrMax= 6.96D-02  0.00D+00 EMaxC= 1.00D-01 BMatC= 1.20D-01 BMatP= 1.20D-01
 IDIUse=3 WtCom= 3.04D-01 WtEn= 6.96D-01
 Coeff-Com:  0.100D+01
 Coeff-En:   0.100D+01
 Coeff:      0.100D+01
 Gap=     0.324 Goal=   None    Shift=    0.000
 GapD=    0.324 DampG=1.000 DampE=0.500 DampFc=0.5000 IDamp=-1.
 Damping current iteration by 5.00D-01
 RMSDP=7.96D-03 MaxDP=1.00D-01              OVMax= 1.67D-01

 Cycle   2  Pass 0  IDiag  1:
 E= -76.3778948400666     Delta-E=       -0.031074376050 Rises=F Damp=T
 DIIS: error= 1.12D-02 at cycle   2 NSaved=   2.
 NSaved= 2 IEnMin= 2 EnMin= -76.3778948400666     IErMin= 2 ErrMin= 1.12D-02
 ErrMax= 1.12D-02  0.00D+00 EMaxC= 1.00D-01 BMatC= 4.87D-03 BMatP= 1.20D-01
 IDIUse=3 WtCom= 8.88D-01 WtEn= 1.12D-01
 Coeff-Com:  0.842D-01 0.916D+00
 Coeff-En:   0.190D+00 0.810D+00
 Coeff:      0.961D-01 0.904D+00
 Gap=     0.456 Goal=   None    Shift=    0.000
 RMSDP=9.53D-04 MaxDP=1.42D-02 DE=-3.11D-02 OVMax= 1.00D-01

 Cycle   3  Pass 0  IDiag  1:
 E= -76.4215994106510     Delta-E=       -0.043704570584 Rises=F Damp=F
 DIIS: error= 2.17D-03 at cycle   3 NSaved=   3.
 NSaved= 3 IEnMin= 3 EnMin= -76.4215994106510     IErMin= 3 ErrMin= 2.17D-03
 ErrMax= 2.17D-03  0.00D+00 EMaxC= 1.00D-01 BMatC= 9.12D-05 BMatP= 4.87D-03
 IDIUse=3 WtCom= 9.78D-01 WtEn= 2.17D-02
 Coeff-Com: -0.199D-01 0.397D-01 0.980D+00
 Coeff-En:   0.000D+00 0.000D+00 0.100D+01
 Coeff:     -0.195D-01 0.389D-01 0.981D+00
 Gap=     0.461 Goal=   None    Shift=    0.000
 RMSDP=1.15D-04 MaxDP=1.00D-03 DE=-4.37D-02 OVMax= 3.33D-03

 Cycle   4  Pass 0  IDiag  1:
 E= -76.4216773521847     Delta-E=       -0.000077941534 Rises=F Damp=F
 DIIS: error= 4.17D-04 at cycle   4 NSaved=   4.
 NSaved= 4 IEnMin= 4 EnMin= -76.4216773521847     IErMin= 4 ErrMin= 4.17D-04
 ErrMax= 4.17D-04  0.00D+00 EMaxC= 1.00D-01 BMatC= 3.32D-06 BMatP= 9.12D-05
 IDIUse=3 WtCom= 9.96D-01 WtEn= 4.17D-03
 Coeff-Com: -0.193D-02-0.225D-02 0.163D+00 0.841D+00
 Coeff-En:   0.000D+00 0.000D+00 0.000D+00 0.100D+01
 Coeff:     -0.192D-02-0.224D-02 0.162D+00 0.842D+00
 Gap=     0.461 Goal=   None    Shift=    0.000
 RMSDP=2.23D-05 MaxDP=3.56D-04 DE=-7.79D-05 OVMax= 5.42D-04

 Cycle   5  Pass 0  IDiag  1:
 E= -76.4216794085829     Delta-E=       -0.000002056398 Rises=F Damp=F
 DIIS: error= 8.99D-05 at cycle   5 NSaved=   5.
 NSaved= 5 IEnMin= 5 EnMin= -76.4216794085829     IErMin= 5 ErrMin= 8.99D-05
 ErrMax= 8.99D-05  0.00D+00 EMaxC= 1.00D-01 BMatC= 8.38D-08 BMatP= 3.32D-06
 IDIUse=1 WtCom= 1.00D+00 WtEn= 0.00D+00
 Coeff-Com:  0.119D-02-0.181D-02-0.370D-01-0.659D-01 0.110D+01
 Coeff:      0.119D-02-0.181D-02-0.370D-01-0.659D-01 0.110D+01
 Gap=     0.462 Goal=   None    Shift=    0.000
 RMSDP=9.07D-06 MaxDP=1.03D-04 DE=-2.06D-06 OVMax= 2.06D-04

 Initial convergence to 1.0D-05 achieved.  Increase integral accuracy.
 Cycle   6  Pass 1  IDiag  1:
 E= -76.4216643979666     Delta-E=        0.000015010616 Rises=F Damp=F
 DIIS: error= 1.29D-05 at cycle   1 NSaved=   1.
 NSaved= 1 IEnMin= 1 EnMin= -76.4216643979666     IErMin= 1 ErrMin= 1.29D-05
 ErrMax= 1.29D-05  0.00D+00 EMaxC= 1.00D-01 BMatC= 1.57D-08 BMatP= 1.57D-08
 IDIUse=1 WtCom= 1.00D+00 WtEn= 0.00D+00
 Coeff-Com:  0.100D+01
 Coeff:      0.100D+01
 Gap=     0.462 Goal=   None    Shift=    0.000
 RMSDP=9.07D-06 MaxDP=1.03D-04 DE= 1.50D-05 OVMax= 5.97D-05

 Cycle   7  Pass 1  IDiag  1:
 E= -76.4216644120597     Delta-E=       -0.000000014093 Rises=F Damp=F
 DIIS: error= 1.45D-05 at cycle   2 NSaved=   2.
 NSaved= 2 IEnMin= 2 EnMin= -76.4216644120597     IErMin= 1 ErrMin= 1.29D-05
 ErrMax= 1.45D-05  0.00D+00 EMaxC= 1.00D-01 BMatC= 3.14D-09 BMatP= 1.57D-08
 IDIUse=1 WtCom= 1.00D+00 WtEn= 0.00D+00
 Coeff-Com:  0.186D+00 0.814D+00
 Coeff:      0.186D+00 0.814D+00
 Gap=     0.462 Goal=   None    Shift=    0.000
 RMSDP=1.05D-06 MaxDP=1.72D-05 DE=-1.41D-08 OVMax= 2.76D-05

 Cycle   8  Pass 1  IDiag  1:
 E= -76.4216644132259     Delta-E=       -0.000000001166 Rises=F Damp=F
 DIIS: error= 8.14D-06 at cycle   3 NSaved=   3.
 NSaved= 3 IEnMin= 3 EnMin= -76.4216644132259     IErMin= 3 ErrMin= 8.14D-06
 ErrMax= 8.14D-06  0.00D+00 EMaxC= 1.00D-01 BMatC= 1.85D-09 BMatP= 3.14D-09
 IDIUse=1 WtCom= 1.00D+00 WtEn= 0.00D+00
 Coeff-Com: -0.518D-01 0.440D+00 0.612D+00
 Coeff:     -0.518D-01 0.440D+00 0.612D+00
 Gap=     0.462 Goal=   None    Shift=    0.000
 RMSDP=4.89D-07 MaxDP=6.82D-06 DE=-1.17D-09 OVMax= 1.23D-05

 Cycle   9  Pass 1  IDiag  1:
 E= -76.4216644144652     Delta-E=       -0.000000001239 Rises=F Damp=F
 DIIS: error= 5.57D-07 at cycle   4 NSaved=   4.
 NSaved= 4 IEnMin= 4 EnMin= -76.4216644144652     IErMin= 4 ErrMin= 5.57D-07
 ErrMax= 5.57D-07  0.00D+00 EMaxC= 1.00D-01 BMatC= 5.27D-12 BMatP= 1.85D-09
 IDIUse=1 WtCom= 1.00D+00 WtEn= 0.00D+00
 Coeff-Com: -0.399D-02-0.168D-01-0.155D-01 0.104D+01
 Coeff:     -0.399D-02-0.168D-01-0.155D-01 0.104D+01
 Gap=     0.462 Goal=   None    Shift=    0.000
 RMSDP=8.82D-08 MaxDP=8.40D-07 DE=-1.24D-09 OVMax= 2.00D-06

 Cycle  10  Pass 1  IDiag  1:
 E= -76.4216644144765     Delta-E=       -0.000000000011 Rises=F Damp=F
 DIIS: error= 1.08D-07 at cycle   5 NSaved=   5.
 NSaved= 5 IEnMin= 5 EnMin= -76.4216644144765     IErMin= 5 ErrMin= 1.08D-07
 ErrMax= 1.08D-07  0.00D+00 EMaxC= 1.00D-01 BMatC= 4.38D-13 BMatP= 5.27D-12
 IDIUse=1 WtCom= 1.00D+00 WtEn= 0.00D+00
 Coeff-Com:  0.306D-02-0.321D-01-0.413D-01 0.104D+00 0.966D+00
 Coeff:      0.306D-02-0.321D-01-0.413D-01 0.104D+00 0.966D+00
 Gap=     0.462 Goal=   None    Shift=    0.000
 RMSDP=2.60D-08 MaxDP=2.24D-07 DE=-1.13D-11 OVMax= 5.89D-07

 Cycle  11  Pass 1  IDiag  1:
 E= -76.4216644144774     Delta-E=       -0.000000000001 Rises=F Damp=F
 DIIS: error= 2.94D-08 at cycle   6 NSaved=   6.
 NSaved= 6 IEnMin= 6 EnMin= -76.4216644144774     IErMin= 6 ErrMin= 2.94D-08
 ErrMax= 2.94D-08  0.00D+00 EMaxC= 1.00D-01 BMatC= 1.12D-14 BMatP= 4.38D-13
 IDIUse=1 WtCom= 1.00D+00 WtEn= 0.00D+00
 Coeff-Com:  0.191D-03-0.908D-03 0.510D-03-0.240D-01-0.628D-02 0.103D+01
 Coeff:      0.191D-03-0.908D-03 0.510D-03-0.240D-01-0.628D-02 0.103D+01
 Gap=     0.462 Goal=   None    Shift=    0.000
 RMSDP=3.87D-09 MaxDP=2.99D-08 DE=-9.38D-13 OVMax= 7.94D-08

 SCF Done:  E(RM062X) =  -76.4216644145     A.U. after   11 cycles
            NFock= 11  Conv=0.39D-08     -V/T= 2.0031
 KE= 7.618394992732D+01 PE=-1.989841740674D+02 EE= 3.730859824111D+01
 Leave Link  502 at Mon Feb 20 10:05:03 2023, MaxMem=  6710886400 cpu:               8.8 elap:               0.4
 (Enter /data0/home/software/g16/l601.exe)
 Copying SCF densities to generalized density rwf, IOpCl= 0 IROHF=0.

 **********************************************************************

            Population analysis using the SCF density.

 **********************************************************************

 Alpha  occ. eigenvalues --  -19.62716  -1.13261  -0.60355  -0.47699  -0.39983
 Alpha virt. eigenvalues --    0.06171   0.13268   0.17429   0.17944   0.18896
 Alpha virt. eigenvalues --    0.23426   0.50773   0.53198   0.98180   1.00295
 Alpha virt. eigenvalues --    1.06002   1.17475   1.20101   1.31877   1.34125
 Alpha virt. eigenvalues --    1.70378   1.74210   1.75135   2.07228   2.09388
 Alpha virt. eigenvalues --    2.36298   2.39255   2.54820   2.87456   3.00846
 Alpha virt. eigenvalues --    5.05602   5.48520   5.89832   6.78507   6.80048
 Alpha virt. eigenvalues --    6.87360   6.91614   7.09679  49.95276
          Condensed to atoms (all electrons):
              15         16         17
    15  O    7.920206   0.315586   0.317746
    16  H    0.315586   0.430309  -0.023618
    17  H    0.317746  -0.023618   0.430058
 Mulliken charges:
               1
     1  P    0.000000
     2  O    0.000000
     3  O    0.000000
     4  H    0.000000
     5  O    0.000000
     6  H    0.000000
     7  O    0.000000
     8  H    0.000000
     9  O    0.000000
    10  H    0.000000
    11  H    0.000000
    12  O    0.000000
    13  H    0.000000
    14  H    0.000000
    15  O   -0.553538
    16  H    0.277724
    17  H    0.275814
 Sum of Mulliken charges =  -0.00000
 Mulliken charges with hydrogens summed into heavy atoms:
               1
     1  P    0.000000
     2  O    0.000000
     3  O    0.000000
     5  O    0.000000
     7  O    0.000000
     9  O    0.000000
    12  O    0.000000
    15  O   -0.000000
         Mulliken charges condensed to fragments:
      1      0.000000
      2      0.000000
      3      0.000000
      4     -0.000000
 Electronic spatial extent (au):  <R**2>=           7525.9947
 Charge=             -0.0000 electrons
 Dipole moment (field-independent basis, Debye):
    X=              1.9491    Y=              0.8583    Z=             -0.2035  Tot=              2.1395
 Quadrupole moment (field-independent basis, Debye-Ang):
   XX=             23.7780   YY=             11.4895   ZZ=            -10.0908
   XY=             25.2691   XZ=             12.5291   YZ=              5.7096
 Traceless Quadrupole moment (field-independent basis, Debye-Ang):
   XX=             15.3858   YY=              3.0973   ZZ=            -18.4830
   XY=             25.2691   XZ=             12.5291   YZ=              5.7096
 Octapole moment (field-independent basis, Debye-Ang**2):
  XXX=            204.0540  YYY=             92.7636  ZZZ=           -193.6910  XYY=            267.8707
  XXY=            277.2895  XXZ=            157.6440  XZZ=             24.6245  YZZ=            -30.9273
  YYZ=             91.3134  XYZ=            179.1351
 Hexadecapole moment (field-independent basis, Debye-Ang**3):
 XXXX=           1378.1062 YYYY=            239.8540 ZZZZ=          -2756.0139 XXXY=           2316.6330
 XXXZ=           1330.9944 YYYX=           2446.8601 YYYZ=            865.4770 ZZZX=           -745.5492
 ZZZY=          -1306.9696 XXYY=           2845.9095 XXZZ=            615.4556 YYZZ=             58.4426
 XXYZ=           1957.4424 YYXZ=           2005.1233 ZZXY=            744.7747
 N-N= 9.069961484466D+00 E-N=-1.989841745463D+02  KE= 7.618394992732D+01
 No NMR shielding tensors so no spin-rotation constants.
 Leave Link  601 at Mon Feb 20 10:05:03 2023, MaxMem=  6710886400 cpu:               1.7 elap:               0.1
 (Enter /data0/home/software/g16/l122.exe)
 CPIOFr:  IOpCl= 0 IRwI=-1 IRwCP=  731 ICalc=  8 LCPTot=      120517 Len1MO=      315166 IndFrg=     2957011
 Restoring MOs from calculation   1 to rwf.
 CPIOFr:  IOpCl= 0 IRwI=-2 IRwCP=  731 ICalc=  0 LCPTot=      120517 Len1MO=      315166 IndFrg=      435683
 Counterpoise corrected energy =    -873.410923963602
                   BSSE energy =       0.001949147595
              sum of fragments =    -873.401168202306
           complexation energy =      -7.34 kcal/mole (raw)
           complexation energy =      -6.12 kcal/mole (corrected)
 Leave Link  122 at Mon Feb 20 10:05:03 2023, MaxMem=  6710886400 cpu:               0.2 elap:               0.0
 (Enter /data0/home/software/g16/l9999.exe)
 1\1\GINC-LOCALHOST\SP\RM062X\6-311+G(2d,p)\H9O7P1\WUHANYU\20-Feb-2023\
 0\\#p M062X/6-311+G(2d,p) nosymm em=GD3 counterpoise=4\\Title Card Req
 uired\\0,1\P,0,11.428695,10.167135,7.140175\O,0,10.521736,9.030708,6.9
 46776\O,0,12.046504,10.253073,8.60625\H,0,11.4205,10.849709,9.218075\O
 ,0,12.712695,10.018246,6.21151\H,0,13.310824,10.843742,6.382759\O,0,10
 .87388,11.610336,6.801765\H,0,10.081313,11.828613,7.48409\O,0,11.07164
 4,12.196057,12.776578\H,0,10.8456,12.005602,11.837911\H,0,11.489115,13
 .048109,12.759811\O,0,5.565483,8.634762,9.152588\H,0,6.2249,9.006261,8
 .537799\H,0,4.784715,8.502299,8.624128\O,0,7.595271,9.692701,7.549733\
 H,0,7.912823,10.568569,7.845122\H,0,8.378589,9.305995,7.141335\\Versio
 n=ES64L-G16RevA.03\HF=-76.4216644\RMSD=3.871e-09\Dipole=1.5106698,3.00
 87519,-0.6466799\Quadrupole=8.5341597,72.1617264,-80.6958861,88.129736
 4,17.0707966,37.6823956\PG=C01 [X(H9O7P1)]\\@


 THE PROGRESS OF RIVERS TO THE SEA IS NOT AS RAPID
 AS THAT OF MAN TO ERROR.
                                              -- VOLTAIRE
 Job cpu time:       0 days  0 hours 24 minutes 51.6 seconds.
 Elapsed time:       0 days  0 hours  1 minutes  4.9 seconds.
 File lengths (MBytes):  RWF=     75 Int=      0 D2E=      0 Chk=     28 Scr=      1
 Normal termination of Gaussian 16 at Mon Feb 20 10:05:03 2023.
