          43
 G =       -0.618564 Gcorr = 0.253382 a.u. Nimag =   0 Frame:     1 Step:     1 Geom:     1
C          10.63755400     10.26181300     10.11050300
C          10.74798100     11.52171300      9.47925900
C          11.65609200     12.44391500      9.98040400
C          12.43509900     12.11076300     11.09642700
C          12.30763500     10.86118700     11.68077900
H          11.77299600     13.42026200      9.50764900
H           9.91184100      9.50704500      9.74369300
H          13.14864500     12.82882200     11.50081900
H          12.90598300     10.55860400     12.54598400
C           9.91914400     11.78563500      8.28258800
H           8.93377100     11.28358500      8.32035200
H           9.73972400     12.85020500      8.09755000
H          10.40890800     11.37150900      7.37310000
N          11.41491500      9.95605900     11.17538800
C          11.31539700      8.61080300     11.78123900
H          10.94755800      8.71338600     12.83038900
H          10.51969100      8.02875800     11.24238200
C          12.63340400      7.81996500     11.73401900
H          13.29800600      8.11679900     12.56546000
H          12.37554300      6.74742500     11.91932500
C          13.38588700      7.92325100     10.40907000
H          13.97240000      8.85676800     10.34570700
H          14.11314800      7.09439000     10.30998400
C          12.40573700      7.85786200      9.23440200
O          12.11256400      8.94325900      8.69536900
O          11.92906500      6.74555700      8.93353000
P           9.29868000      7.99609200      6.90513300
O           8.41316000      8.47676800      7.97285400
O           8.48949700      7.86942300      5.53985700
H           9.14835600      7.51029800      4.82886700
O          10.49709800      8.96901700      6.54189200
H          11.19553000      8.95946100      7.35120500
O           9.92094100      6.55169100      7.10182700
H          10.74762800      6.62093200      7.76612700
O          10.23487000      5.66976800     10.75877100
H          10.88905900      6.01496700     10.10374600
H           9.93089800      4.85074800     10.37493600
O           8.13582700      7.55730100     10.75687400
H           8.04772700      7.75953700      9.81422200
H           8.78960300      6.83724700     10.79159000
O           8.87198000      9.86169200     11.97987800
H           8.54479100      9.01723900     11.59124600
H           8.09568700     10.28849700     12.32562200
          43
 G =       -0.618563 Gcorr = 0.253383 a.u. Nimag =   0 Frame:     2 Step:     2 Geom:     2
C          10.49841200     10.24804800     10.16237200
C          10.49154600     11.54282800      9.59528400
C          11.35859500     12.50023700     10.10301100
C          12.21256200     12.16705300     11.16280100
C          12.19920700     10.88384600     11.68463300
H          11.38554400     13.50490300      9.67835400
H           9.80863500      9.46340000      9.78900500
H          12.89481600     12.91232700     11.57192900
H          12.85854000     10.58100200     12.50421000
C           9.58843000     11.80766500      8.45385300
H           8.64320400     11.23496900      8.50897200
H           9.32683300     12.86472200      8.33576600
H          10.06017800     11.47696400      7.50171500
N          11.34629000      9.94462500     11.17267500
C          11.36855000      8.56686000     11.70930500
H          11.04689600      8.59028700     12.77815800
H          10.58859300      7.95809700     11.17698000
C          12.73335300      7.87430700     11.55932000
H          13.41622600      8.17437200     12.37466900
H          12.55846300      6.77821300     11.69752600
C          13.41128400      8.09794200     10.20926200
H          13.92890300      9.07262900     10.17015200
H          14.18775100      7.32873500     10.03265500
C          12.38181400      8.02325200      9.07811500
O          11.98887700      9.11116200      8.61273700
O          11.96866500      6.89664400      8.73887400
P           9.16247200      8.05917700      6.90294800
O           8.29976500      8.42171000      8.03413600
O           8.29769300      7.94450700      5.57110600
H           8.94434700      7.67217300      4.81203200
O          10.27241900      9.13160000      6.53826100
H          11.00811200      9.13138700      7.31357200
O           9.89093100      6.65448700      6.99326900
H          10.74274100      6.74859000      7.62203100
O          10.44019200      5.61376700     10.57699600
H          11.03786700      6.03638100      9.91355500
H          10.17186000      4.79739500     10.16213300
O           8.22100000      7.34707000     10.77428600
H           8.07316100      7.58999600      9.84879700
H           8.92257500      6.67347100     10.74006400
O           8.85873600      9.63163100     12.08656800
H           8.57076300      8.78734200     11.66757000
H           8.07322000      9.98424700     12.49036000
          43
 G =       -0.618539 Gcorr = 0.253406 a.u. Nimag =   0 Frame:     3 Step:     3 Geom:     3
C          10.55419700     10.30934500     10.16440600
C          10.58619200     11.59647700      9.58119000
C          11.45332800     12.54620300     10.10312400
C          12.26906700     12.21294400     11.19250300
C          12.21862700     10.93691000     11.72958500
H          11.50978400     13.54467700      9.66693800
H           9.86277900      9.53131500      9.78035200
H          12.95089700     12.95220400     11.61308200
H          12.84779600     10.63415800     12.57258300
C           9.72268200     11.86096500      8.40940900
H          10.21694200     11.50839500      7.47667600
H           8.76605900     11.30589300      8.44381800
H           9.48396500     12.92066200      8.26885700
N          11.36609300     10.00519400     11.20370800
C          11.34904600      8.63423800     11.75773200
H          10.99572100      8.67658300     12.81593700
H          10.57556500      8.03148200     11.20932700
C          12.70599900      7.91764200     11.65789700
H          13.36893200      8.21710500     12.48973500
H          12.50868700      6.82642400     11.80438400
C          13.42790000      8.11261400     10.32630300
H          13.96288700      9.07803500     10.29093800
H          14.19612600      7.32842100     10.18280300
C          12.43184200      8.04058100      9.16539200
O          12.07180700      9.12845800      8.67434600
O          12.00976300      6.91645800      8.82849700
P           9.27815100      8.09907500      6.89733500
O           8.39043400      8.49346100      7.99818900
O           8.44945200      7.97956600      5.54321500
H           9.11249700      7.68500700      4.80682000
O          10.41668200      9.14689600      6.54906300
H          11.12941200      9.14589400      7.34532500
O           9.97884100      6.68376400      7.02911500
H          10.81507400      6.77320100      7.67995300
O          10.40806100      5.68092600     10.63699100
H          11.03110100      6.08532800      9.98565800
H          10.13792100      4.86380200     10.22468800
O           8.21063800      7.45218400     10.74488400
H           8.09420800      7.68485500      9.81217900
H           8.90227300      6.76770100     10.74054900
O           8.84773300      9.74304500     12.04587700
H           8.55814900      8.89827600     11.62890000
H           8.05671100     10.11364900     12.42175800
          43
 G =       -0.618566 Gcorr = 0.253379 a.u. Nimag =   0 Frame:     4 Step:     4 Geom:     4
C          10.51311000     10.25487900     10.21468300
C          10.52967400     11.56177700      9.67640400
C          11.40102800     12.49704700     10.21700100
C          12.23617400     12.13008900     11.28058800
C          12.20029200     10.83590600     11.77348900
H          11.44584200     13.51044700      9.81522700
H           9.81904000      9.48724700      9.81482000
H          12.92154300     12.85772300     11.71546000
H          12.84457600     10.50704600     12.59500900
C           9.64571200     11.86276100      8.52895000
H           9.39964800     12.92549300      8.42988600
H          10.12598700     11.54603000      7.57631300
H           8.69244000     11.30169100      8.55927700
N          11.34332300      9.91879400     11.22934200
C          11.34156100      8.52931600     11.73540200
H          11.00484200      8.53296300     12.79988200
H          10.56224700      7.94195300     11.17857400
C          12.70013100      7.82382900     11.58939800
H          13.37532600      8.09894100     12.41979100
H          12.51067000      6.72728900     11.70246800
C          13.39878900      8.06721200     10.25337500
H          13.92922100      9.03572100     10.24192700
H          14.16770400      7.29193800     10.07047600
C          12.38357400      8.03001700      9.10760600
O          12.01059700      9.13252100      8.66060300
O          11.96068800      6.91629300      8.73899100
P           9.19374600      8.15302600      6.89218100
O           8.32071100      8.50131100      8.01990500
O           8.34524600      8.07814700      5.54707600
H           8.99808300      7.81194300      4.79105800
O          10.32115200      9.21952200      6.56564700
H          11.04680900      9.19266400      7.34991600
O           9.90411700      6.73784900      6.96082100
H          10.74837200      6.80763700      7.60278900
O          10.39498800      5.61140100     10.52987000
H          11.00564000      6.04135400      9.88315800
H          10.12404600      4.80653300     10.09468400
O           8.19344700      7.36645100     10.73403300
H           8.06187800      7.63101700      9.81204900
H           8.88768400      6.68563200     10.69528000
O           8.83972500      9.61616400     12.10228700
H           8.54776400      8.78431700     11.66207800
H           8.05287900      9.97012400     12.50223600
          43
 G =       -0.618574 Gcorr = 0.253372 a.u. Nimag =   0 Frame:     5 Step:     5 Geom:     5
C          10.54548800     10.30730700     10.17700400
C          10.55064700     11.59298300      9.58955100
C          11.43485200     12.54657000     10.07437900
C          12.29387700     12.21866100     11.13169200
C          12.26854000     10.94397800     11.67361100
H          11.47125500     13.54398100      9.63363100
H           9.84167200      9.52635200      9.82256100
H          12.98936500     12.96115600     11.52321500
H          12.93135200     10.64525300     12.49188400
C           9.64082900     11.85174800      8.45205600
H           9.39428300     12.91045500      8.31772300
H          10.09844600     11.49721900      7.50153400
H           8.68766000     11.29458200      8.52596600
N          11.39872600     10.00831700     11.18414500
C          11.40797400      8.63874700     11.74181100
H          11.09602000      8.68269800     12.81290000
H          10.61557800      8.03206600     11.22557600
C          12.76237600      7.92642800     11.59078200
H          13.45687800      8.23147300     12.39434800
H          12.57503300      6.83513700     11.74917000
C          13.42998100      8.11860600     10.23065900
H          13.95999500      9.08549300     10.17042900
H          14.19429400      7.33619400     10.05939900
C          12.38827100      8.03912200      9.11112600
O          12.00461000      9.12442400      8.63203800
O          11.95716300      6.91268500      8.79447000
P           9.14708900      8.08272400      6.96867700
O           8.30042100      8.47535400      8.10195900
O           8.26728500      7.95810000      5.64757500
H           8.90266700      7.66667900      4.88615400
O          10.26764800      9.13381900      6.57555200
H          11.01193700      9.13522900      7.34278300
O           9.85739200      6.66988300      7.07471800
H          10.71723500      6.76246600      7.69272500
O          10.43200700      5.67876400     10.66860700
H          11.02800200      6.08216200      9.99193300
H          10.14861000      4.85907400     10.27061300
O           8.23617000      7.44307900     10.85880200
H           8.08189600      7.67359000      9.93110700
H           8.92883100      6.76031600     10.82787800
O           8.91573100      9.74174900     12.12516600
H           8.61306500      8.89435800     11.72334200
H           8.13886900     10.11103600     12.53077200
          43
 G =       -0.618552 Gcorr = 0.253393 a.u. Nimag =   0 Frame:     6 Step:     6 Geom:     6
C          10.49300600     10.25532900     10.17608600
C          10.45502700     11.54076200      9.58936900
C          11.32083700     12.51745300     10.06126800
C          12.20420500     12.21233600     11.10527300
C          12.22068400     10.93747900     11.64711600
H          11.32401700     13.51556900      9.62063800
H           9.80538300      9.45578000      9.83142500
H          12.88586000     12.97290100     11.48630900
H          12.90329400     10.65638500     12.45529600
C           9.52152000     11.77562000      8.46595300
H           8.58613400     11.19075000      8.55207800
H           9.24212600     12.82704900      8.33846100
H           9.97545500     11.43725500      7.50787600
N          11.36867600      9.97910700     11.17038300
C          11.42219800      8.61042300     11.72761900
H          11.12566700      8.64650200     12.80337500
H          10.63813700      7.98314100     11.22356000
C          12.79224300      7.93346500     11.55589400
H          13.49020300      8.25552200     12.34979900
H          12.63538700      6.83758400     11.71548900
C          13.43487200      8.14431300     10.18666400
H          13.93873100      9.12473100     10.12026600
H          14.21685300      7.38228600     10.00336300
C          12.38009900      8.03899700      9.08158300
O          11.96211600      9.11448200      8.60914900
O          11.97392900      6.90211600      8.76932000
P           9.11074100      7.99906800      6.98220600
O           8.26908800      8.36884200      8.12682800
O           8.21721000      7.85251000      5.67248500
H           8.84997100      7.57781500      4.90268000
O          10.19854000      9.07896500      6.57549000
H          10.95164800      9.10029000      7.33386000
O           9.85870700      6.60496400      7.07741500
H          10.72372000      6.71955100      7.68425400
O          10.50819600      5.62816700     10.66414100
H          11.08371100      6.04748600      9.97933600
H          10.24599500      4.79871200     10.27202100
O           8.27105700      7.33575800     10.88387800
H           8.09595000      7.56380600      9.95938200
H           8.98027900      6.67071100     10.84001700
O           8.90840500      9.64732200     12.14843700
H           8.62239900      8.79309700     11.74885000
H           8.12774100      9.99561700     12.56512300
          43
 G =       -0.614384 Gcorr = 0.233009 a.u. Nimag =   0 Frame:     7 Step:     7 Geom:     7
C          10.45565900     10.32184600     10.00504900
C          10.58245600     11.59677100      9.40574500
C          11.50854900     12.49545900      9.94477000
C          12.28286300     12.11250100     11.04904300
C          12.15344800     10.83584600     11.58973100
H          11.63750100     13.48675800      9.50527500
H           9.69988400      9.57957700      9.61168100
H          13.00164700     12.81034600     11.48457700
H          12.75881200     10.50442100     12.44091800
C           9.76338000     11.90130000      8.20878500
H          10.10971000     11.28880400      7.34167400
H           8.70211800     11.63658500      8.34355000
H           9.80658100     12.95100000      7.89711500
N          11.24818700      9.94917800     11.04575600
C          11.14794200      8.55303900     11.56608100
H          10.67256600      8.58423500     12.58318100
H          10.40522400      7.97566300     10.93290000
C          12.48443100      7.80375700     11.59346900
H          13.06546200      8.07011000     12.49721600
H          12.23082600      6.71822300     11.70792300
C          13.36787300      7.98047100     10.35704700
H          13.91494400      8.94404200     10.38788100
H          14.14814500      7.19022800     10.34098800
C          12.57727900      7.90624700      9.05872600
O          12.45224400      8.99551600      8.42087300
O          12.07829100      6.81300400      8.69316100
P           9.47976900      8.01359400      7.28912700
O           8.97731500      8.18303300      8.68873400
O           8.26597500      8.04373600      6.19146200
H           8.50461300      7.74827500      5.26974100
O          10.50137200      9.15445100      6.81791600
H          11.52492500      9.12443800      7.32288700
O          10.19765900      6.59731900      6.94956300
H          11.14326800      6.44423700      7.40025700
O          10.35986600      5.83829300     10.57750600
H          11.01464100      5.95004800      9.84404500
H           9.80500400      5.10492900     10.32428000
O           8.06527900      7.46148800     10.83658900
H           7.68364600      7.78080600      9.99252500
H           8.95298500      7.10290600     10.56952100
O           8.68650500      9.45356300     12.44232300
H           8.31307800      8.75008200     11.82208200
H           8.02810100      9.58389700     13.10834300
          43
 G =       -0.618568 Gcorr = 0.253378 a.u. Nimag =   0 Frame:     8 Step:     8 Geom:     8
C          10.59641600     10.30105900     10.13365500
C          10.66922100     11.59337700      9.56568700
C          11.59138300     12.49704600     10.07486900
C          12.42113200     12.11368600     11.13687900
C          12.32905000     10.83400100     11.65946200
H          11.67998400     13.49790500      9.64961700
H           9.86123200      9.55928600      9.75931100
H          13.14620000     12.81665900     11.54723500
H          12.96698100     10.49255000     12.48080100
C           9.78652300     11.91141500      8.42185900
H           8.80790600     11.39773300      8.47555800
H           9.59042300     12.98233200      8.30178000
H          10.23929100     11.55112400      7.47122400
N          11.42210900      9.94768500     11.14614400
C          11.35976700      8.57151000     11.68368700
H          11.03770800      8.61513000     12.75179700
H          10.54562400      8.01059300     11.14995900
C          12.68049700      7.79754500     11.53729300
H          13.37855900      8.05663800     12.35381500
H          12.43933200      6.71418500     11.67607900
C          13.37352800      7.97840200     10.18847000
H          13.94935900      8.91988400     10.14969300
H          14.10225800      7.16336600     10.01409100
C          12.34371000      7.96524000      9.05524500
O          12.01842200      9.07447200      8.58806200
O          11.86363200      6.86541200      8.71621600
P           9.13692900      8.19423900      6.87294900
O           8.29553600      8.61031800      8.00175700
O           8.26950100      8.13069500      5.53938600
H           8.90017800      7.81950500      4.78180400
O          10.31109000      9.19636300      6.50929600
H          11.04369600      9.15234900      7.28635800
O           9.77814200      6.74784200      6.96653800
H          10.63286800      6.79073600      7.59683200
O          10.25713500      5.67850200     10.55221400
H          10.88028600      6.06382700      9.88947900
H           9.94201800      4.87862900     10.13819500
O           8.14665200      7.54332100     10.74244000
H           8.01622000      7.79399300      9.81643200
H           8.80617300      6.82842300     10.71061900
O           8.91815300      9.78625800     12.05481000
H           8.58057300      8.96068800     11.63571500
H           8.15462700     10.18610400     12.45670500
          43
 G =       -0.618569 Gcorr = 0.253376 a.u. Nimag =   0 Frame:     9 Step:     9 Geom:     9
C          10.67094300     10.27608100     10.24049900
C          10.76716600     11.58450000      9.71441400
C          11.71784700     12.44858000     10.23961600
C          12.55263100     12.01048600     11.27620000
C          12.43682000     10.71666400     11.75760900
H          11.82476700     13.46065800      9.84634500
H           9.91291300      9.56486000      9.85266000
H          13.30007300     12.68201000     11.69890000
H          13.07758400     10.33299500     12.55782800
C           9.87673300     11.96125900      8.59466600
H           9.70559100     13.03998600      8.51228400
H          10.30707600     11.62139900      7.62626700
H           8.88651300     11.47008100      8.64615700
N          11.50169700      9.86970700     11.22864300
C          11.41347100      8.47829300     11.72146100
H          11.10736000      8.49400300     12.79499400
H          10.57870200      7.95491300     11.18150700
C          12.71294800      7.67856900     11.53040600
H          13.42841000      7.89404800     12.34452500
H          12.44768000      6.59723100     11.63734900
C          13.39115300      7.88734300     10.17807400
H          13.98890300      8.81572300     10.16148700
H          14.09747000      7.06152200      9.96641100
C          12.34540900      7.93589300      9.06049600
O          12.04084500      9.06730800      8.63428200
O          11.83371300      6.85961900      8.69339900
P           9.11368000      8.31277000      6.93598400
O           8.29846200      8.71043100      8.09029300
O           8.22635500      8.31418000      5.61404600
H           8.83894700      8.01459700      4.83718700
O          10.30611300      9.29880500      6.58832400
H          11.04915800      9.21084700      7.35163700
O           9.72129600      6.84938100      6.97207000
H          10.58553500      6.85093700      7.59062800
O          10.22641100      5.65071900     10.51425800
H          10.84877800      6.04265600      9.85472500
H           9.88675500      4.87186200     10.08003800
O           8.16312900      7.55662100     10.79618100
H           8.02425200      7.84124800      9.88123600
H           8.80563300      6.82866800     10.72954200
O           9.00735000      9.73747200     12.16737200
H           8.64485400      8.93380900     11.72700400
H           8.25889300     10.14128200     12.59301300
          43
 G =       -0.618517 Gcorr = 0.253424 a.u. Nimag =   0 Frame:    10 Step:    10 Geom:    10
C          10.77997300     10.21994200     10.14527000
C          10.90047500     11.50707200      9.57354000
C          11.90932700     12.34727100     10.02345600
C          12.77759500     11.90696000     11.03127700
C          12.63586100     10.63394200     11.55891400
H          12.03568200     13.34196300      9.59333400
H           9.97625300      9.52869200      9.81804600
H          13.57101700     12.56003700     11.39496400
H          13.30064900     10.24873400     12.33852900
C           9.96997500     11.88573800      8.48750100
H           8.96508200     11.43729300      8.60389500
H           9.83747300     12.96756500      8.37873800
H          10.33700800     11.49929400      7.51056000
N          11.64293700      9.81004000     11.10389500
C          11.52556600      8.43857800     11.64437000
H          11.27368700      8.49859000     12.73033200
H          10.64564800      7.93314800     11.16202500
C          12.78213100      7.58196900     11.41627800
H          13.54538300      7.79356400     12.18682100
H          12.48106500      6.51590400     11.57160200
C          13.39884800      7.72145300     10.02615300
H          14.03082000      8.62382000      9.94995600
H          14.06079900      6.86148500      9.80708800
C          12.30100900      7.77828100      8.96015000
O          12.01852900      8.90784200      8.51415800
O          11.73148100      6.71266300      8.65185900
P           8.98176600      8.22077300      6.99056300
O           8.24468300      8.68444900      8.17251600
O           8.02664200      8.21842700      5.71677100
H           8.58522600      7.87066600      4.91948500
O          10.19119300      9.14777400      6.55125000
H          10.96880900      9.05333600      7.27875200
O           9.53394300      6.73599400      7.04165700
H          10.42917100      6.72148100      7.61421600
O          10.18363200      5.62250800     10.59638700
H          10.77426500      5.96798500      9.88371100
H           9.80047400      4.83378600     10.22045800
O           8.20110000      7.60943900     10.91505200
H           8.02805400      7.87210200      9.99947800
H           8.81338300      6.85690600     10.84134900
O           9.19274700      9.80252800     12.16443800
H           8.77868500      8.99923600     11.77151600
H           8.48196800     10.25078500     12.60970600
          43
 G =       -0.618573 Gcorr = 0.253372 a.u. Nimag =   0 Frame:    11 Step:    12 Geom:    12
C          10.73229500     10.23186300     10.14980400
C          10.80226800     11.50525500      9.54035100
C          11.79678100     12.38587900      9.94263100
C          12.70056200     11.99873500     10.94094300
C          12.60775800     10.73755800     11.50665000
H          11.88431700     13.37123100      9.48238800
H           9.94174000      9.50909100      9.86083100
H          13.48316400     12.68374700     11.26737600
H          13.30137900     10.39337400     12.28034100
C           9.83634500     11.82734600      8.46703800
H           8.84902200     11.35086400      8.61711700
H           9.66721200     12.90147400      8.33518100
H          10.19371100     11.42817800      7.49164500
N          11.62869600      9.87364600     11.09846900
C          11.56330600      8.51536400     11.67937900
H          11.33469300      8.59928100     12.76901600
H          10.68740300      7.97192400     11.23240800
C          12.83842700      7.68822000     11.44574200
H          13.61209400      7.94215700     12.19278200
H          12.57152000      6.61887200     11.63637500
C          13.42047200      7.80659400     10.03871900
H          14.02483400      8.72368100      9.92413500
H          14.10140700      6.95955500      9.82783100
C          12.29818200      7.80395400      8.99693900
O          11.97412700      8.91261700      8.52760600
O          11.75186700      6.71497100      8.73093900
P           8.92851300      8.09932300      7.08511300
O           8.20070600      8.57433700      8.26827100
O           7.94965500      8.03512800      5.83113300
H           8.50261600      7.68147700      5.03255100
O          10.10185500      9.04790900      6.59662900
H          10.89599200      8.99515700      7.30994800
O           9.52440700      6.63291900      7.16478500
H          10.42955300      6.65908200      7.72163400
O          10.26743200      5.63764500     10.72999100
H          10.84474300      5.98198100     10.00595300
H           9.89046900      4.83939100     10.36764400
O           8.24837700      7.58627600     11.04084200
H           8.04766300      7.81807800     10.12249100
H           8.87553700      6.84527000     10.97337500
O           9.20731700      9.83157800     12.21997600
H           8.80635800      9.00871400     11.85476400
H           8.49524600     10.27032000     12.67228200
          43
 G =       -0.618543 Gcorr = 0.253403 a.u. Nimag =   0 Frame:    12 Step:    13 Geom:    13
C          10.76552800     10.24427300     10.17933300
C          10.90801800     11.53209700      9.61440500
C          11.91476500     12.36240000     10.08700800
C          12.75899100     11.91180100     11.11050500
C          12.59615500     10.63835700     11.63110100
H          12.05801100     13.35722600      9.66249400
H           9.96292100      9.56069200      9.83378300
H          13.55040300     12.55703800     11.49210100
H          13.24192200     10.24534800     12.42271600
C          10.00257100     11.92219500      8.51137600
H           9.88094700     13.00547800      8.40414800
H          10.38605500     11.53647500      7.54048600
H           8.99204600     11.48129600      8.60573300
N          11.60584400      9.82420000     11.15360200
C          11.46632800      8.45218800     11.68724000
H          11.19366800      8.51097000     12.76829200
H          10.59167700      7.95583300     11.18629800
C          12.71984300      7.58559500     11.48126300
H          13.46935900      7.78822500     12.26758800
H          12.40668200      6.52170700     11.62706100
C          13.36555900      7.72413500     10.10428100
H          14.00697200      8.62104400     10.04387500
H          14.02397300      6.85896400      9.89544300
C          12.28976600      7.79460500      9.01672500
O          12.02679300      8.92811500      8.56906200
O          11.71646000      6.73529100      8.69392500
P           9.01783900      8.27294500      6.97656100
O           8.25780200      8.73967600      8.14265100
O           8.09216000      8.28308800      5.68123800
H           8.66605100      7.93334600      4.89565500
O          10.24501000      9.19057300      6.56735500
H          11.00517900      9.08742400      7.31140000
O           9.55593900      6.78340400      7.03553300
H          10.43807100      6.75956600      7.62838500
O          10.11100600      5.65495500     10.59657700
H          10.72843300      5.99764800      9.90575900
H           9.72356700      4.87896000     10.19864600
O           8.15029800      7.66569500     10.88297800
H           7.99857500      7.93180900      9.96466800
H           8.75338500      6.90462800     10.81991700
O           9.13804500      9.83865500     12.16785900
H           8.72394700      9.04219300     11.76117100
H           8.42346100     10.28990800     12.60382900
          43
 G =       -0.618561 Gcorr = 0.253384 a.u. Nimag =   0 Frame:    13 Step:    14 Geom:    14
C          10.68133400     10.24483800     10.13152900
C          10.75205300     11.52029500      9.52634100
C          11.71675200     12.41647900      9.96508000
C          12.59072800     12.04239200     10.99443000