 Entering Gaussian System, Link 0=g16
 Initial command:
 /data0/home/software/g16/l1.exe "/data0/home/software/g16/scratch/Gau-378542.inp" -scrdir="/data0/home/software/g16/scratch/"
 Default is to use a total of  22 processors:
                               22 via shared-memory
                                1 via Linda
 Entering Link 1 = /data0/home/software/g16/l1.exe PID=    378543.
  
 Copyright (c) 1988,1990,1992,1993,1995,1998,2003,2009,2016,
            Gaussian, Inc.  All Rights Reserved.
  
 This is part of the Gaussian(R) 16 program.  It is based on
 the Gaussian(R) 09 system (copyright 2009, Gaussian, Inc.),
 the Gaussian(R) 03 system (copyright 2003, Gaussian, Inc.),
 the Gaussian(R) 98 system (copyright 1998, Gaussian, Inc.),
 the Gaussian(R) 94 system (copyright 1995, Gaussian, Inc.),
 the Gaussian 92(TM) system (copyright 1992, Gaussian, Inc.),
 the Gaussian 90(TM) system (copyright 1990, Gaussian, Inc.),
 the Gaussian 88(TM) system (copyright 1988, Gaussian, Inc.),
 the Gaussian 86(TM) system (copyright 1986, Carnegie Mellon
 University), and the Gaussian 82(TM) system (copyright 1983,
 Carnegie Mellon University). Gaussian is a federally registered
 trademark of Gaussian, Inc.
  
 This software contains proprietary and confidential information,
 including trade secrets, belonging to Gaussian, Inc.
  
 This software is provided under written license and may be
 used, copied, transmitted, or stored only in accord with that
 written license.
  
 The following legend is applicable only to US Government
 contracts under FAR:
  
                    RESTRICTED RIGHTS LEGEND
  
 Use, reproduction and disclosure by the US Government is
 subject to restrictions as set forth in subparagraphs (a)
 and (c) of the Commercial Computer Software - Restricted
 Rights clause in FAR 52.227-19.
  
 Gaussian, Inc.
 340 Quinnipiac St., Bldg. 40, Wallingford CT 06492
  
  
 ---------------------------------------------------------------
 Warning -- This program may not be used in any manner that
 competes with the business of Gaussian, Inc. or will provide
 assistance to any competitor of Gaussian, Inc.  The licensee
 of this program is prohibited from giving any competitor of
 Gaussian, Inc. access to this program.  By using this program,
 the user acknowledges that Gaussian, Inc. is engaged in the
 business of creating and licensing software in the field of
 computational chemistry and represents and warrants to the
 licensee that it is not a competitor of Gaussian, Inc. and that
 it will not use this program in any manner prohibited above.
 ---------------------------------------------------------------
  

 Cite this work as:
 Gaussian 16, Revision A.03,
 M. J. Frisch, G. W. Trucks, H. B. Schlegel, G. E. Scuseria, 
 M. A. Robb, J. R. Cheeseman, G. Scalmani, V. Barone, 
 G. A. Petersson, H. Nakatsuji, X. Li, M. Caricato, A. V. Marenich, 
 J. Bloino, B. G. Janesko, R. Gomperts, B. Mennucci, H. P. Hratchian, 
 J. V. Ortiz, A. F. Izmaylov, J. L. Sonnenberg, D. Williams-Young, 
 F. Ding, F. Lipparini, F. Egidi, J. Goings, B. Peng, A. Petrone, 
 T. Henderson, D. Ranasinghe, V. G. Zakrzewski, J. Gao, N. Rega, 
 G. Zheng, W. Liang, M. Hada, M. Ehara, K. Toyota, R. Fukuda, 
 J. Hasegawa, M. Ishida, T. Nakajima, Y. Honda, O. Kitao, H. Nakai, 
 T. Vreven, K. Throssell, J. A. Montgomery, Jr., J. E. Peralta, 
 F. Ogliaro, M. J. Bearpark, J. J. Heyd, E. N. Brothers, K. N. Kudin, 
 V. N. Staroverov, T. A. Keith, R. Kobayashi, J. Normand, 
 K. Raghavachari, A. P. Rendell, J. C. Burant, S. S. Iyengar, 
 J. Tomasi, M. Cossi, J. M. Millam, M. Klene, C. Adamo, R. Cammi, 
 J. W. Ochterski, R. L. Martin, K. Morokuma, O. Farkas, 
 J. B. Foresman, and D. J. Fox, Gaussian, Inc., Wallingford CT, 2016.
 
 ******************************************
 Gaussian 16:  ES64L-G16RevA.03 25-Dec-2016
                20-Feb-2023 
 ******************************************
 %nproc=24
 Will use up to   24 processors via shared memory.
 %mem=50GB
 ---------------------------------------------------
 #p M062X/6-311+G(2d,p) nosymm em=GD3 counterpoise=3
 ---------------------------------------------------
 1/38=1,62=3,172=1/1;
 2/12=2,15=1,17=6,18=5,40=1/2;
 1/38=1,53=2,62=3,63=1/22;
 3/5=4,6=6,7=112,11=2,25=1,30=1,74=-55,124=31/1,2,3;
 4//1;
 5/5=2,38=5/2;
 6/7=2,8=2,9=2,10=2,28=1/1;
 1/53=2,62=3,63=1/22;
 3/5=7,6=11,7=112,11=2,25=1,30=1,74=-55,82=7,124=31/1,2,3;
 4//1;
 5/5=2,38=5/2;
 6/7=2,8=2,9=2,10=2,28=1/1;
 1/53=2,62=3,63=1/22(-4);
 99/5=1,9=1/99;
 Leave Link    1 at Mon Feb 20 08:34:00 2023, MaxMem=  6710886400 cpu:               0.7 elap:               0.0
 (Enter /data0/home/software/g16/l101.exe)
 -------------------
 Title Card Required
 -------------------
 Symbolic Z-matrix:
 Charge =  0 Multiplicity = 1 in supermolecule
 Charge =  0 Multiplicity = 1 in fragment      1.
 Charge =  0 Multiplicity = 1 in fragment      2.
 Charge =  0 Multiplicity = 1 in fragment      3.
 O                     8.4709    6.87605   10.7188    
 H                     9.36843   7.1994    10.56459    
 H                     8.02308   6.96991   9.87181    
 O                     11.31549   12.54495   11.88877    
 H                     12.13007   13.01232   11.75816    
 H                     11.39506   11.72024   11.33771    
 O                     7.17374   7.35374   8.21546    
 H                     7.34132   6.5812    7.67653    
 H                     7.75957   8.03484   7.84225    
 
 ITRead=  0  0  0  0  0  0  0  0  0
 MicOpt= -1 -1 -1 -1 -1 -1 -1 -1 -1
 NAtoms=      9 NQM=        9 NQMF=       0 NMMI=      0 NMMIF=      0
                NMic=       0 NMicF=      0.
                    Isotopes and Nuclear Properties:
 (Nuclear quadrupole moments (NQMom) in fm**2, nuclear magnetic moments (NMagM)
  in nuclear magnetons)

  Atom         1           2           3           4           5           6           7           8           9
 IAtWgt=          16           1           1          16           1           1          16           1           1
 AtmWgt=  15.9949146   1.0078250   1.0078250  15.9949146   1.0078250   1.0078250  15.9949146   1.0078250   1.0078250
 NucSpn=           0           1           1           0           1           1           0           1           1
 AtZEff=  -0.0000000  -0.0000000  -0.0000000  -0.0000000  -0.0000000  -0.0000000  -0.0000000  -0.0000000  -0.0000000
 NQMom=    0.0000000   0.0000000   0.0000000   0.0000000   0.0000000   0.0000000   0.0000000   0.0000000   0.0000000
 NMagM=    0.0000000   2.7928460   2.7928460   0.0000000   2.7928460   2.7928460   0.0000000   2.7928460   2.7928460
 AtZNuc=   8.0000000   1.0000000   1.0000000   8.0000000   1.0000000   1.0000000   8.0000000   1.0000000   1.0000000
 Leave Link  101 at Mon Feb 20 08:34:00 2023, MaxMem=  6710886400 cpu:               2.0 elap:               0.1
 (Enter /data0/home/software/g16/l202.exe)
                          Input orientation:                          
 ---------------------------------------------------------------------
 Center     Atomic      Atomic             Coordinates (Angstroms)
 Number     Number       Type             X           Y           Z
 ---------------------------------------------------------------------
      1          8           0        8.470898    6.876046   10.718795
      2          1           0        9.368435    7.199403   10.564588
      3          1           0        8.023076    6.969913    9.871807
      4          8           0       11.315486   12.544952   11.888769
      5          1           0       12.130073   13.012322   11.758161
      6          1           0       11.395056   11.720235   11.337715
      7          8           0        7.173737    7.353745    8.215462
      8          1           0        7.341317    6.581196    7.676528
      9          1           0        7.759569    8.034842    7.842249
 ---------------------------------------------------------------------
                    Distance matrix (angstroms):
                    1          2          3          4          5
     1  O    0.000000
     2  H    0.966391   0.000000
     3  H    0.962676   1.530556   0.000000
     4  O    6.449575   5.841178   6.781531   0.000000
     5  H    7.219676   6.545326   7.545625   0.948180   0.000000
     6  H    5.692094   5.014264   6.007054   0.995063   1.544835
     7  O    2.859633   3.218527   1.900574   7.589196   8.314775
     8  H    3.258570   3.582217   2.331340   8.312844   8.997294
     9  H    3.181716   3.270709   2.307079   7.025665   7.694867
                    6          7          8          9
     6  H    0.000000
     7  O    6.828926   0.000000
     8  H    7.499787   0.956747   0.000000
     9  H    6.246373   0.972821   1.521672   0.000000
 Symmetry turned off by external request.
 Stoichiometry    H6O3
 Framework group  C1[X(H6O3)]
 Deg. of freedom    21
 Full point group                 C1      NOp   1
 Rotational constants (GHZ):           8.2433240           0.8595242           0.7822936
 Leave Link  202 at Mon Feb 20 08:34:00 2023, MaxMem=  6710886400 cpu:               0.1 elap:               0.0
 (Enter /data0/home/software/g16/l122.exe)
 Counterpoise: doing full-system calculation.
 Leave Link  122 at Mon Feb 20 08:34:00 2023, MaxMem=  6710886400 cpu:               0.1 elap:               0.0
 (Enter /data0/home/software/g16/l301.exe)
 Standard basis: 6-311+G(2d,p) (5D, 7F)
 Ernie: Thresh=  0.10000D-02 Tol=  0.10000D-05 Strict=F.
   117 basis functions,   174 primitive gaussians,   123 cartesian basis functions
    15 alpha electrons       15 beta electrons
       nuclear repulsion energy        61.3527018178 Hartrees.
 IExCor= 4336 DFT=T Ex+Corr=M062X ExCW=0 ScaHFX=  0.540000
 ScaDFX=  1.000000  1.000000  1.000000  1.000000 ScalE2=  1.000000  1.000000
 IRadAn=      5 IRanWt=     -1 IRanGd=            0 ICorTp=0 IEmpDi=131
 NAtoms=    9 NActive=    9 NUniq=    9 SFac= 1.00D+00 NAtFMM=   60 NAOKFM=F Big=F
 Integral buffers will be    131072 words long.
 Raffenetti 2 integral format.
 Two-electron integral symmetry is turned off.
 R6Disp:  Grimme-D3 Dispersion energy=       -0.0000484644 Hartrees.
 Nuclear repulsion after empirical dispersion term =       61.3526533534 Hartrees.
 Leave Link  301 at Mon Feb 20 08:34:00 2023, MaxMem=  6710886400 cpu:               1.1 elap:               0.1
 (Enter /data0/home/software/g16/l302.exe)
 NPDir=0 NMtPBC=     1 NCelOv=     1 NCel=       1 NClECP=     1 NCelD=      1
         NCelK=      1 NCelE2=     1 NClLst=     1 CellRange=     0.0.
 One-electron integrals computed using PRISM.
 NBasis=   117 RedAO= T EigKep=  1.45D-03  NBF=   117
 NBsUse=   117 1.00D-06 EigRej= -1.00D+00 NBFU=   117
 Precomputing XC quadrature grid using
 IXCGrd= 4 IRadAn=           5 IRanWt=          -1 IRanGd=           0 AccXCQ= 0.00D+00.
 Generated NRdTot=       0 NPtTot=           0 NUsed=           0 NTot=          32
 NSgBfM=   111   111   111   111   111 MxSgAt=     9 MxSgA2=     9.
 Leave Link  302 at Mon Feb 20 08:34:00 2023, MaxMem=  6710886400 cpu:               2.7 elap:               0.1
 (Enter /data0/home/software/g16/l303.exe)
 DipDrv:  MaxL=1.
 Leave Link  303 at Mon Feb 20 08:34:00 2023, MaxMem=  6710886400 cpu:               0.5 elap:               0.0
 (Enter /data0/home/software/g16/l401.exe)
 ExpMin= 8.45D-02 ExpMax= 8.59D+03 ExpMxC= 1.30D+03 IAcc=3 IRadAn=         5 AccDes= 0.00D+00
 Harris functional with IExCor= 1009 and IRadAn=       5 diagonalized for initial guess.
 HarFok:  IExCor= 1009 AccDes= 0.00D+00 IRadAn=         5 IDoV= 1 UseB2=F ITyADJ=14
 ICtDFT=  3500011 ScaDFX=  1.000000  1.000000  1.000000  1.000000
 FoFCou: FMM=F IPFlag=           0 FMFlag=      100000 FMFlg1=           0
         NFxFlg=           0 DoJE=T BraDBF=F KetDBF=T FulRan=T
         wScrn=  0.000000 ICntrl=       500 IOpCl=  0 I1Cent=   200000004 NGrid=           0
         NMat0=    1 NMatS0=      1 NMatT0=    0 NMatD0=    1 NMtDS0=    0 NMtDT0=    0
 Symmetry not used in FoFCou.
 Harris En= -229.252052058625    
 JPrj=0 DoOrth=F DoCkMO=F.
 Leave Link  401 at Mon Feb 20 08:34:01 2023, MaxMem=  6710886400 cpu:               4.4 elap:               0.2
 (Enter /data0/home/software/g16/l502.exe)
 Keep R1 ints in memory in canonical form, NReq=46556122.
 FoFCou: FMM=F IPFlag=           0 FMFlag=           0 FMFlg1=           0
         NFxFlg=           0 DoJE=F BraDBF=F KetDBF=F FulRan=T
         wScrn=  0.000000 ICntrl=       600 IOpCl=  0 I1Cent=           0 NGrid=           0
         NMat0=    1 NMatS0=   6903 NMatT0=    0 NMatD0=    1 NMtDS0=    0 NMtDT0=    0
 Symmetry not used in FoFCou.
 Two-electron integral symmetry not used.
 Closed shell SCF:
 Using DIIS extrapolation, IDIIS=  1040.
 NGot=  6710886400 LenX=  6687023004 LenY=  6687007434
 Requested convergence on RMS density matrix=1.00D-08 within 128 cycles.
 Requested convergence on MAX density matrix=1.00D-06.
 Requested convergence on             energy=1.00D-06.
 No special actions if energy rises.
 Integral accuracy reduced to 1.0D-05 until final iterations.

 Cycle   1  Pass 0  IDiag  1:
 E= -229.051724737020    
 DIIS: error= 6.75D-02 at cycle   1 NSaved=   1.
 NSaved= 1 IEnMin= 1 EnMin= -229.051724737020     IErMin= 1 ErrMin= 6.75D-02
 ErrMax= 6.75D-02  0.00D+00 EMaxC= 1.00D-01 BMatC= 3.53D-01 BMatP= 3.53D-01
 IDIUse=3 WtCom= 3.25D-01 WtEn= 6.75D-01
 Coeff-Com:  0.100D+01
 Coeff-En:   0.100D+01
 Coeff:      0.100D+01
 Gap=     0.296 Goal=   None    Shift=    0.000
 GapD=    0.296 DampG=1.000 DampE=0.500 DampFc=0.5000 IDamp=-1.
 Damping current iteration by 5.00D-01
 RMSDP=5.74D-03 MaxDP=1.18D-01              OVMax= 1.81D-01

 Cycle   2  Pass 0  IDiag  1:
 E= -229.144560841840     Delta-E=       -0.092836104820 Rises=F Damp=T
 DIIS: error= 1.07D-02 at cycle   2 NSaved=   2.
 NSaved= 2 IEnMin= 2 EnMin= -229.144560841840     IErMin= 2 ErrMin= 1.07D-02
 ErrMax= 1.07D-02  0.00D+00 EMaxC= 1.00D-01 BMatC= 1.37D-02 BMatP= 3.53D-01
 IDIUse=3 WtCom= 8.93D-01 WtEn= 1.07D-01
 Coeff-Com:  0.732D-01 0.927D+00
 Coeff-En:   0.173D+00 0.827D+00
 Coeff:      0.839D-01 0.916D+00
 Gap=     0.402 Goal=   None    Shift=    0.000
 RMSDP=7.82D-04 MaxDP=2.31D-02 DE=-9.28D-02 OVMax= 1.06D-01

 Cycle   3  Pass 0  IDiag  1:
 E= -229.270453434117     Delta-E=       -0.125892592277 Rises=F Damp=F
 DIIS: error= 3.11D-03 at cycle   3 NSaved=   3.
 NSaved= 3 IEnMin= 3 EnMin= -229.270453434117     IErMin= 3 ErrMin= 3.11D-03
 ErrMax= 3.11D-03  0.00D+00 EMaxC= 1.00D-01 BMatC= 3.77D-04 BMatP= 1.37D-02
 IDIUse=3 WtCom= 9.69D-01 WtEn= 3.11D-02
 Coeff-Com: -0.223D-01 0.505D-01 0.972D+00
 Coeff-En:   0.000D+00 0.000D+00 0.100D+01
 Coeff:     -0.216D-01 0.489D-01 0.973D+00
 Gap=     0.406 Goal=   None    Shift=    0.000
 RMSDP=1.15D-04 MaxDP=2.15D-03 DE=-1.26D-01 OVMax= 5.62D-03

 Cycle   4  Pass 0  IDiag  1:
 E= -229.270707453896     Delta-E=       -0.000254019778 Rises=F Damp=F
 DIIS: error= 1.60D-03 at cycle   4 NSaved=   4.
 NSaved= 4 IEnMin= 4 EnMin= -229.270707453896     IErMin= 4 ErrMin= 1.60D-03
 ErrMax= 1.60D-03  0.00D+00 EMaxC= 1.00D-01 BMatC= 8.83D-05 BMatP= 3.77D-04
 IDIUse=3 WtCom= 9.84D-01 WtEn= 1.60D-02
 Coeff-Com: -0.976D-02 0.124D-01 0.446D+00 0.551D+00
 Coeff-En:   0.000D+00 0.000D+00 0.000D+00 0.100D+01
 Coeff:     -0.960D-02 0.122D-01 0.439D+00 0.558D+00
 Gap=     0.407 Goal=   None    Shift=    0.000
 RMSDP=4.32D-05 MaxDP=1.33D-03 DE=-2.54D-04 OVMax= 1.80D-03

 Cycle   5  Pass 0  IDiag  1:
 E= -229.270761203034     Delta-E=       -0.000053749139 Rises=F Damp=F
 DIIS: error= 2.61D-04 at cycle   5 NSaved=   5.
 NSaved= 5 IEnMin= 5 EnMin= -229.270761203034     IErMin= 5 ErrMin= 2.61D-04
 ErrMax= 2.61D-04  0.00D+00 EMaxC= 1.00D-01 BMatC= 4.64D-06 BMatP= 8.83D-05
 IDIUse=3 WtCom= 9.97D-01 WtEn= 2.61D-03
 Coeff-Com:  0.108D-03-0.290D-02 0.285D-01 0.175D+00 0.799D+00
 Coeff-En:   0.000D+00 0.000D+00 0.000D+00 0.000D+00 0.100D+01
 Coeff:      0.108D-03-0.289D-02 0.284D-01 0.174D+00 0.800D+00
 Gap=     0.407 Goal=   None    Shift=    0.000
 RMSDP=1.43D-05 MaxDP=4.05D-04 DE=-5.37D-05 OVMax= 6.34D-04

 Cycle   6  Pass 0  IDiag  1:
 E= -229.270764562468     Delta-E=       -0.000003359434 Rises=F Damp=F
 DIIS: error= 5.14D-05 at cycle   6 NSaved=   6.
 NSaved= 6 IEnMin= 6 EnMin= -229.270764562468     IErMin= 6 ErrMin= 5.14D-05
 ErrMax= 5.14D-05  0.00D+00 EMaxC= 1.00D-01 BMatC= 1.13D-07 BMatP= 4.64D-06
 IDIUse=1 WtCom= 1.00D+00 WtEn= 0.00D+00
 Coeff-Com:  0.690D-03-0.102D-02-0.233D-01-0.269D-01 0.747D-01 0.976D+00
 Coeff:      0.690D-03-0.102D-02-0.233D-01-0.269D-01 0.747D-01 0.976D+00
 Gap=     0.407 Goal=   None    Shift=    0.000
 RMSDP=4.90D-06 MaxDP=1.41D-04 DE=-3.36D-06 OVMax= 1.22D-04

 Initial convergence to 1.0D-05 achieved.  Increase integral accuracy.
 Cycle   7  Pass 1  IDiag  1:
 E= -229.270757577069     Delta-E=        0.000006985399 Rises=F Damp=F
 DIIS: error= 1.71D-05 at cycle   1 NSaved=   1.
 NSaved= 1 IEnMin= 1 EnMin= -229.270757577069     IErMin= 1 ErrMin= 1.71D-05
 ErrMax= 1.71D-05  0.00D+00 EMaxC= 1.00D-01 BMatC= 5.71D-08 BMatP= 5.71D-08
 IDIUse=1 WtCom= 1.00D+00 WtEn= 0.00D+00
 Coeff-Com:  0.100D+01
 Coeff:      0.100D+01
 Gap=     0.407 Goal=   None    Shift=    0.000
 RMSDP=4.90D-06 MaxDP=1.41D-04 DE= 6.99D-06 OVMax= 5.51D-05

 Cycle   8  Pass 1  IDiag  1:
 E= -229.270757617302     Delta-E=       -0.000000040233 Rises=F Damp=F
 DIIS: error= 1.44D-05 at cycle   2 NSaved=   2.
 NSaved= 2 IEnMin= 2 EnMin= -229.270757617302     IErMin= 2 ErrMin= 1.44D-05
 ErrMax= 1.44D-05  0.00D+00 EMaxC= 1.00D-01 BMatC= 1.09D-08 BMatP= 5.71D-08
 IDIUse=1 WtCom= 1.00D+00 WtEn= 0.00D+00
 Coeff-Com:  0.195D+00 0.805D+00
 Coeff:      0.195D+00 0.805D+00
 Gap=     0.407 Goal=   None    Shift=    0.000
 RMSDP=7.27D-07 MaxDP=2.82D-05 DE=-4.02D-08 OVMax= 4.17D-05

 Cycle   9  Pass 1  IDiag  1:
 E= -229.270757620762     Delta-E=       -0.000000003460 Rises=F Damp=F
 DIIS: error= 1.04D-05 at cycle   3 NSaved=   3.
 NSaved= 3 IEnMin= 3 EnMin= -229.270757620762     IErMin= 3 ErrMin= 1.04D-05
 ErrMax= 1.04D-05  0.00D+00 EMaxC= 1.00D-01 BMatC= 6.25D-09 BMatP= 1.09D-08
 IDIUse=1 WtCom= 1.00D+00 WtEn= 0.00D+00
 Coeff-Com: -0.474D-01 0.433D+00 0.614D+00
 Coeff:     -0.474D-01 0.433D+00 0.614D+00
 Gap=     0.407 Goal=   None    Shift=    0.000
 RMSDP=3.12D-07 MaxDP=1.17D-05 DE=-3.46D-09 OVMax= 1.48D-05

 Cycle  10  Pass 1  IDiag  1:
 E= -229.270757624836     Delta-E=       -0.000000004075 Rises=F Damp=F
 DIIS: error= 2.86D-07 at cycle   4 NSaved=   4.
 NSaved= 4 IEnMin= 4 EnMin= -229.270757624836     IErMin= 4 ErrMin= 2.86D-07
 ErrMax= 2.86D-07  0.00D+00 EMaxC= 1.00D-01 BMatC= 1.15D-11 BMatP= 6.25D-09
 IDIUse=1 WtCom= 1.00D+00 WtEn= 0.00D+00
 Coeff-Com: -0.616D-02 0.265D-01 0.449D-01 0.935D+00
 Coeff:     -0.616D-02 0.265D-01 0.449D-01 0.935D+00
 Gap=     0.407 Goal=   None    Shift=    0.000
 RMSDP=4.25D-08 MaxDP=6.12D-07 DE=-4.07D-09 OVMax= 1.25D-06

 Cycle  11  Pass 1  IDiag  1:
 E= -229.270757624852     Delta-E=       -0.000000000015 Rises=F Damp=F
 DIIS: error= 1.95D-07 at cycle   5 NSaved=   5.
 NSaved= 5 IEnMin= 5 EnMin= -229.270757624852     IErMin= 5 ErrMin= 1.95D-07
 ErrMax= 1.95D-07  0.00D+00 EMaxC= 1.00D-01 BMatC= 3.00D-12 BMatP= 1.15D-11
 IDIUse=1 WtCom= 1.00D+00 WtEn= 0.00D+00
 Coeff-Com:  0.195D-02-0.272D-01-0.363D-01 0.267D+00 0.795D+00
 Coeff:      0.195D-02-0.272D-01-0.363D-01 0.267D+00 0.795D+00
 Gap=     0.407 Goal=   None    Shift=    0.000
 RMSDP=2.35D-08 MaxDP=5.98D-07 DE=-1.54D-11 OVMax= 8.56D-07

 Cycle  12  Pass 1  IDiag  1:
 E= -229.270757624854     Delta-E=       -0.000000000002 Rises=F Damp=F
 DIIS: error= 1.12D-07 at cycle   6 NSaved=   6.
 NSaved= 6 IEnMin= 6 EnMin= -229.270757624854     IErMin= 6 ErrMin= 1.12D-07
 ErrMax= 1.12D-07  0.00D+00 EMaxC= 1.00D-01 BMatC= 8.45D-13 BMatP= 3.00D-12
 IDIUse=1 WtCom= 1.00D+00 WtEn= 0.00D+00
 Coeff-Com:  0.166D-02-0.160D-01-0.222D-01-0.705D-02 0.385D+00 0.658D+00
 Coeff:      0.166D-02-0.160D-01-0.222D-01-0.705D-02 0.385D+00 0.658D+00
 Gap=     0.407 Goal=   None    Shift=    0.000
 RMSDP=5.56D-09 MaxDP=1.35D-07 DE=-2.27D-12 OVMax= 2.34D-07

 SCF Done:  E(RM062X) =  -229.270757625     A.U. after   12 cycles
            NFock= 12  Conv=0.56D-08     -V/T= 2.0029
 KE= 2.286117782619D+02 PE=-6.651919566491D+02 EE= 1.459567674089D+02
 Leave Link  502 at Mon Feb 20 08:34:03 2023, MaxMem=  6710886400 cpu:              37.5 elap:               1.9
 (Enter /data0/home/software/g16/l601.exe)
 Copying SCF densities to generalized density rwf, IOpCl= 0 IROHF=0.

 **********************************************************************

            Population analysis using the SCF density.

 **********************************************************************

 Alpha  occ. eigenvalues --  -19.65846 -19.62749 -19.59730  -1.16886  -1.13232
 Alpha  occ. eigenvalues --   -1.10817  -0.63992  -0.60876  -0.59017  -0.50850
 Alpha  occ. eigenvalues --   -0.47350  -0.46140  -0.42239  -0.40039  -0.37565
 Alpha virt. eigenvalues --    0.03178   0.05826   0.09091   0.11210   0.13015
 Alpha virt. eigenvalues --    0.14828   0.15886   0.16519   0.17443   0.17881
 Alpha virt. eigenvalues --    0.18831   0.19899   0.20862   0.22249   0.23217
 Alpha virt. eigenvalues --    0.24407   0.30226   0.35596   0.48251   0.49521
 Alpha virt. eigenvalues --    0.51383   0.53772   0.55502   0.64478   0.94259
 Alpha virt. eigenvalues --    0.97015   0.97640   1.00361   1.02838   1.05908
 Alpha virt. eigenvalues --    1.06695   1.07623   1.08836   1.14713   1.16727
 Alpha virt. eigenvalues --    1.19202   1.19435   1.22656   1.24001   1.30090
 Alpha virt. eigenvalues --    1.32595   1.33982   1.35870   1.36274   1.48159
 Alpha virt. eigenvalues --    1.66078   1.68390   1.70249   1.72520   1.73336
 Alpha virt. eigenvalues --    1.74704   1.75847   1.78647   2.00261   2.04579
 Alpha virt. eigenvalues --    2.05894   2.09997   2.10308   2.11029   2.19712
 Alpha virt. eigenvalues --    2.34132   2.38143   2.39205   2.42941   2.45456
 Alpha virt. eigenvalues --    2.52344   2.53757   2.55115   2.60444   2.87256
 Alpha virt. eigenvalues --    2.88296   2.92245   3.00736   3.01034   3.11448
 Alpha virt. eigenvalues --    5.05563   5.08868   5.09741   5.45878   5.49085
 Alpha virt. eigenvalues --    5.51127   5.90186   5.91793   5.98243   6.76741
 Alpha virt. eigenvalues --    6.77004   6.78023   6.80321   6.80947   6.83464
 Alpha virt. eigenvalues --    6.86412   6.86732   6.88311   6.91302   6.94339
 Alpha virt. eigenvalues --    6.96769   7.06629   7.09907   7.17436  49.95062
 Alpha virt. eigenvalues --   49.95482  50.02058
          Condensed to atoms (all electrons):
               1          2          3          4          5          6
     1  O    8.016720   0.311555   0.305410  -0.000000   0.000000   0.000008
     2  H    0.311555   0.460665  -0.033280  -0.000001   0.000000   0.000004
     3  H    0.305410  -0.033280   0.363593   0.000000   0.000000  -0.000000
     4  O   -0.000000  -0.000001   0.000000   7.918236   0.324499   0.315532
     5  H    0.000000   0.000000   0.000000   0.324499   0.423412  -0.024660
     6  H    0.000008   0.000004  -0.000000   0.315532  -0.024660   0.427608
     7  O    0.023643   0.002029  -0.042932  -0.000000   0.000000   0.000000
     8  H   -0.005383  -0.000392   0.002111   0.000000   0.000000   0.000000
     9  H   -0.003102  -0.000953  -0.000030   0.000000   0.000000  -0.000000
               7          8          9
     1  O    0.023643  -0.005383  -0.003102
     2  H    0.002029  -0.000392  -0.000953
     3  H   -0.042932   0.002111  -0.000030
     4  O   -0.000000   0.000000   0.000000
     5  H    0.000000   0.000000   0.000000
     6  H    0.000000   0.000000  -0.000000
     7  O    7.984278   0.321313   0.325199
     8  H    0.321313   0.406490  -0.024040
     9  H    0.325199  -0.024040   0.405936
 Mulliken charges:
               1
     1  O   -0.648851
     2  H    0.260374
     3  H    0.405128
     4  O   -0.558266
     5  H    0.276748
     6  H    0.281509
     7  O   -0.613530
     8  H    0.299901
     9  H    0.296989
 Sum of Mulliken charges =  -0.00000
 Mulliken charges with hydrogens summed into heavy atoms:
               1
     1  O    0.016650
     4  O   -0.000009
     7  O   -0.016641
         Mulliken charges condensed to fragments:
      1      0.016650
      2     -0.000009
      3     -0.016641
 Electronic spatial extent (au):  <R**2>=          29800.0682
 Charge=              0.0000 electrons
 Dipole moment (field-independent basis, Debye):
    X=              3.3649    Y=              0.0380    Z=             -5.0338  Tot=              6.0550
 Quadrupole moment (field-independent basis, Debye-Ang):
   XX=             45.4993   YY=            -23.7897   ZZ=           -120.7073
   XY=             33.9912   XZ=             -9.1134   YZ=            -41.0166
 Traceless Quadrupole moment (field-independent basis, Debye-Ang):
   XX=             78.4986   YY=              9.2095   ZZ=            -87.7081
   XY=             33.9912   XZ=             -9.1134   YZ=            -41.0166
 Octapole moment (field-independent basis, Debye-Ang**2):
  XXX=            452.4068  YYY=           -651.1029  ZZZ=          -2159.3474  XYY=            137.9736
  XXY=            507.6469  XXZ=             99.3112  XZZ=           -709.3982  YZZ=          -1027.5544
  YYZ=           -616.1022  XYZ=            -16.5585
 Hexadecapole moment (field-independent basis, Debye-Ang**3):
 XXXX=           3687.8805 YYYY=         -12594.4750 ZZZZ=         -34390.8252 XXXY=           5718.1999
 XXXZ=           1517.8215 YYYX=          -2217.1138 YYYZ=         -10467.3461 ZZZX=         -15770.5121
 ZZZY=         -19085.1699 XXYY=           3746.4486 XXZZ=          -4495.4940 YYZZ=         -12187.3109
 XXYZ=           2052.0998 YYXZ=          -1946.5537 ZZXY=          -5741.1336
 N-N= 6.135265335342D+01 E-N=-6.651919506126D+02  KE= 2.286117782619D+02
 No NMR shielding tensors so no spin-rotation constants.
 Leave Link  601 at Mon Feb 20 08:34:03 2023, MaxMem=  6710886400 cpu:               1.8 elap:               0.1
 (Enter /data0/home/software/g16/l122.exe)
 CPIOFr:  IOpCl= 0 IRwI=-1 IRwCP=  731 ICalc= -1 LCPTot=       22668 Len1MO=       57607 IndFrg=       22668
 CPIOFr:  IOpCl= 0 IRwI=-1 IRwCP=  731 ICalc=  0 LCPTot=       22668 Len1MO=       57607 IndFrg=       80275
 Counterpoise: doing calculation for fragment   1 using the basis set of the full-system, NewBq=T
 Leave Link  122 at Mon Feb 20 08:34:03 2023, MaxMem=  6710886400 cpu:               0.1 elap:               0.0
 (Enter /data0/home/software/g16/l301.exe)
 Basis read from rwf:  (5D, 7F)
 No pseudopotential information found on rwf file.
   117 basis functions,   174 primitive gaussians,   123 cartesian basis functions
     5 alpha electrons        5 beta electrons
       nuclear repulsion energy         9.1239410491 Hartrees.
 IExCor= 4336 DFT=T Ex+Corr=M062X ExCW=0 ScaHFX=  0.540000
 ScaDFX=  1.000000  1.000000  1.000000  1.000000 ScalE2=  1.000000  1.000000
 IRadAn=      5 IRanWt=     -1 IRanGd=            0 ICorTp=0 IEmpDi=131
 NAtoms=    9 NActive=    9 NUniq=    9 SFac= 1.00D+00 NAtFMM=   60 NAOKFM=F Big=F
 Integral buffers will be    131072 words long.
 Raffenetti 2 integral format.
 Two-electron integral symmetry is turned off.
 R6Disp:  Grimme-D3 Dispersion energy=       -0.0000000079 Hartrees.
 Nuclear repulsion after empirical dispersion term =        9.1239410412 Hartrees.
 No density basis found on file   718.
 Leave Link  301 at Mon Feb 20 08:34:03 2023, MaxMem=  6710886400 cpu:               1.3 elap:               0.1
 (Enter /data0/home/software/g16/l302.exe)
 NPDir=0 NMtPBC=     1 NCelOv=     1 NCel=       1 NClECP=     1 NCelD=      1
         NCelK=      1 NCelE2=     1 NClLst=     1 CellRange=     0.0.
 One-electron integrals computed using PRISM.
 NBasis=   117 RedAO= T EigKep=  1.45D-03  NBF=   117
 NBsUse=   117 1.00D-06 EigRej= -1.00D+00 NBFU=   117
 Precomputing XC quadrature grid using
 IXCGrd= 4 IRadAn=           5 IRanWt=          -1 IRanGd=           0 AccXCQ= 0.00D+00.
 Generated NRdTot=       0 NPtTot=           0 NUsed=           0 NTot=          32
 NSgBfM=   111   111   111   111   111 MxSgAt=     9 MxSgA2=     9.
 Leave Link  302 at Mon Feb 20 08:34:03 2023, MaxMem=  6710886400 cpu:               2.6 elap:               0.1
 (Enter /data0/home/software/g16/l303.exe)
 DipDrv:  MaxL=1.
 Leave Link  303 at Mon Feb 20 08:34:03 2023, MaxMem=  6710886400 cpu:               0.4 elap:               0.0
 (Enter /data0/home/software/g16/l401.exe)
 ExpMin= 8.45D-02 ExpMax= 8.59D+03 ExpMxC= 1.30D+03 IAcc=3 IRadAn=         5 AccDes= 0.00D+00
 Harris functional with IExCor= 1009 and IRadAn=       5 diagonalized for initial guess.
 HarFok:  IExCor= 1009 AccDes= 0.00D+00 IRadAn=         5 IDoV= 1 UseB2=F ITyADJ=14
 ICtDFT=  3500011 ScaDFX=  1.000000  1.000000  1.000000  1.000000
 FoFCou: FMM=F IPFlag=           0 FMFlag=      100000 FMFlg1=           0
         NFxFlg=           0 DoJE=T BraDBF=F KetDBF=T FulRan=T
         wScrn=  0.000000 ICntrl=       500 IOpCl=  0 I1Cent=   200000004 NGrid=           0
         NMat0=    1 NMatS0=      1 NMatT0=    0 NMatD0=    1 NMtDS0=    0 NMtDT0=    0
 Symmetry not used in FoFCou.
 Harris En= -76.4172096639658    
 JPrj=0 DoOrth=F DoCkMO=F.
 Leave Link  401 at Mon Feb 20 08:34:03 2023, MaxMem=  6710886400 cpu:               4.2 elap:               0.2
 (Enter /data0/home/software/g16/l502.exe)
 Keep R1 ints in memory in canonical form, NReq=46556122.
 FoFCou: FMM=F IPFlag=           0 FMFlag=           0 FMFlg1=           0
         NFxFlg=           0 DoJE=F BraDBF=F KetDBF=F FulRan=T
         wScrn=  0.000000 ICntrl=       600 IOpCl=  0 I1Cent=           0 NGrid=           0
         NMat0=    1 NMatS0=   6903 NMatT0=    0 NMatD0=    1 NMtDS0=    0 NMtDT0=    0
 Symmetry not used in FoFCou.
 Two-electron integral symmetry not used.
 Closed shell SCF:
 Using DIIS extrapolation, IDIIS=  1040.
 NGot=  6710886400 LenX=  6687023004 LenY=  6687007434
 Requested convergence on RMS density matrix=1.00D-08 within 128 cycles.
 Requested convergence on MAX density matrix=1.00D-06.
 Requested convergence on             energy=1.00D-06.
 No special actions if energy rises.
 Integral accuracy reduced to 1.0D-05 until final iterations.

 Cycle   1  Pass 0  IDiag  1:
 E= -76.3465535343577    
 DIIS: error= 4.36D-02 at cycle   1 NSaved=   1.
 NSaved= 1 IEnMin= 1 EnMin= -76.3465535343577     IErMin= 1 ErrMin= 4.36D-02
 ErrMax= 4.36D-02  0.00D+00 EMaxC= 1.00D-01 BMatC= 1.21D-01 BMatP= 1.21D-01
 IDIUse=3 WtCom= 5.64D-01 WtEn= 4.36D-01
 Coeff-Com:  0.100D+01
 Coeff-En:   0.100D+01
 Coeff:      0.100D+01
 Gap=     0.295 Goal=   None    Shift=    0.000
 GapD=    0.295 DampG=1.000 DampE=0.500 DampFc=0.5000 IDamp=-1.
 Damping current iteration by 5.00D-01
 RMSDP=2.82D-03 MaxDP=1.00D-01              OVMax= 1.70D-01

 Cycle   2  Pass 0  IDiag  1:
 E= -76.3780371635602     Delta-E=       -0.031483629203 Rises=F Damp=T
 DIIS: error= 6.11D-03 at cycle   2 NSaved=   2.
 NSaved= 2 IEnMin= 2 EnMin= -76.3780371635602     IErMin= 2 ErrMin= 6.11D-03
 ErrMax= 6.11D-03  0.00D+00 EMaxC= 1.00D-01 BMatC= 4.86D-03 BMatP= 1.21D-01
 IDIUse=3 WtCom= 9.39D-01 WtEn= 6.11D-02
 Coeff-Com:  0.823D-01 0.918D+00
 Coeff-En:   0.188D+00 0.812D+00
 Coeff:      0.888D-01 0.911D+00
 Gap=     0.423 Goal=   None    Shift=    0.000
 RMSDP=3.79D-04 MaxDP=1.43D-02 DE=-3.15D-02 OVMax= 1.02D-01

 Cycle   3  Pass 0  IDiag  1:
 E= -76.4221541836954     Delta-E=       -0.044117020135 Rises=F Damp=F
 DIIS: error= 1.46D-03 at cycle   3 NSaved=   3.
 NSaved= 3 IEnMin= 3 EnMin= -76.4221541836954     IErMin= 3 ErrMin= 1.46D-03
 ErrMax= 1.46D-03  0.00D+00 EMaxC= 1.00D-01 BMatC= 1.44D-04 BMatP= 4.86D-03
 IDIUse=3 WtCom= 9.85D-01 WtEn= 1.46D-02
 Coeff-Com: -0.265D-01 0.511D-01 0.975D+00
 Coeff-En:   0.000D+00 0.000D+00 0.100D+01
 Coeff:     -0.261D-01 0.503D-01 0.976D+00
 Gap=     0.425 Goal=   None    Shift=    0.000
 RMSDP=5.37D-05 MaxDP=1.30D-03 DE=-4.41D-02 OVMax= 3.81D-03

 Cycle   4  Pass 0  IDiag  1:
 E= -76.4222689590526     Delta-E=       -0.000114775357 Rises=F Damp=F
 DIIS: error= 2.33D-04 at cycle   4 NSaved=   4.
 NSaved= 4 IEnMin= 4 EnMin= -76.4222689590526     IErMin= 4 ErrMin= 2.33D-04
 ErrMax= 2.33D-04  0.00D+00 EMaxC= 1.00D-01 BMatC= 3.01D-06 BMatP= 1.44D-04
 IDIUse=3 WtCom= 9.98D-01 WtEn= 2.33D-03
 Coeff-Com: -0.301D-02 0.189D-03 0.156D+00 0.846D+00
 Coeff-En:   0.000D+00 0.000D+00 0.000D+00 0.100D+01
 Coeff:     -0.300D-02 0.189D-03 0.156D+00 0.847D+00
 Gap=     0.425 Goal=   None    Shift=    0.000
 RMSDP=7.74D-06 MaxDP=3.33D-04 DE=-1.15D-04 OVMax= 5.14D-04

 Initial convergence to 1.0D-05 achieved.  Increase integral accuracy.
 Cycle   5  Pass 1  IDiag  1:
 E= -76.4222652179807     Delta-E=        0.000003741072 Rises=F Damp=F
 DIIS: error= 5.01D-05 at cycle   1 NSaved=   1.
 NSaved= 1 IEnMin= 1 EnMin= -76.4222652179807     IErMin= 1 ErrMin= 5.01D-05
 ErrMax= 5.01D-05  0.00D+00 EMaxC= 1.00D-01 BMatC= 9.00D-08 BMatP= 9.00D-08
 IDIUse=1 WtCom= 1.00D+00 WtEn= 0.00D+00
 Coeff-Com:  0.100D+01
 Coeff:      0.100D+01
 Gap=     0.426 Goal=   None    Shift=    0.000
 RMSDP=7.74D-06 MaxDP=3.33D-04 DE= 3.74D-06 OVMax= 2.20D-04

 Cycle   6  Pass 1  IDiag  1:
 E= -76.4222653230064     Delta-E=       -0.000000105026 Rises=F Damp=F
 DIIS: error= 2.06D-05 at cycle   2 NSaved=   2.
 NSaved= 2 IEnMin= 2 EnMin= -76.4222653230064     IErMin= 2 ErrMin= 2.06D-05
 ErrMax= 2.06D-05  0.00D+00 EMaxC= 1.00D-01 BMatC= 5.11D-08 BMatP= 9.00D-08
 IDIUse=1 WtCom= 1.00D+00 WtEn= 0.00D+00
 Coeff-Com:  0.403D+00 0.597D+00
 Coeff:      0.403D+00 0.597D+00
 Gap=     0.426 Goal=   None    Shift=    0.000
 RMSDP=1.07D-06 MaxDP=4.22D-05 DE=-1.05D-07 OVMax= 7.69D-05

 Cycle   7  Pass 1  IDiag  1:
 E= -76.4222653564163     Delta-E=       -0.000000033410 Rises=F Damp=F
 DIIS: error= 1.42D-05 at cycle   3 NSaved=   3.
 NSaved= 3 IEnMin= 3 EnMin= -76.4222653564163     IErMin= 3 ErrMin= 1.42D-05
 ErrMax= 1.42D-05  0.00D+00 EMaxC= 1.00D-01 BMatC= 5.59D-09 BMatP= 5.11D-08
 IDIUse=1 WtCom= 1.00D+00 WtEn= 0.00D+00
 Coeff-Com: -0.124D+00 0.178D+00 0.946D+00
 Coeff:     -0.124D+00 0.178D+00 0.946D+00
 Gap=     0.426 Goal=   None    Shift=    0.000
 RMSDP=6.22D-07 MaxDP=2.00D-05 DE=-3.34D-08 OVMax= 4.20D-05

 Cycle   8  Pass 1  IDiag  1:
 E= -76.4222653618796     Delta-E=       -0.000000005463 Rises=F Damp=F
 DIIS: error= 9.68D-07 at cycle   4 NSaved=   4.
 NSaved= 4 IEnMin= 4 EnMin= -76.4222653618796     IErMin= 4 ErrMin= 9.68D-07
 ErrMax= 9.68D-07  0.00D+00 EMaxC= 1.00D-01 BMatC= 5.63D-11 BMatP= 5.59D-09
 IDIUse=1 WtCom= 1.00D+00 WtEn= 0.00D+00
 Coeff-Com: -0.275D-01 0.959D-02 0.134D+00 0.884D+00
 Coeff:     -0.275D-01 0.959D-02 0.134D+00 0.884D+00
 Gap=     0.426 Goal=   None    Shift=    0.000
 RMSDP=7.25D-08 MaxDP=2.16D-06 DE=-5.46D-09 OVMax= 4.96D-06

 Cycle   9  Pass 1  IDiag  1:
 E= -76.4222653619539     Delta-E=       -0.000000000074 Rises=F Damp=F
 DIIS: error= 2.09D-07 at cycle   5 NSaved=   5.
 NSaved= 5 IEnMin= 5 EnMin= -76.4222653619539     IErMin= 5 ErrMin= 2.09D-07
 ErrMax= 2.09D-07  0.00D+00 EMaxC= 1.00D-01 BMatC= 1.50D-12 BMatP= 5.63D-11
 IDIUse=1 WtCom= 1.00D+00 WtEn= 0.00D+00
 Coeff-Com:  0.527D-02-0.768D-02-0.431D-01-0.618D-01 0.111D+01
 Coeff:      0.527D-02-0.768D-02-0.431D-01-0.618D-01 0.111D+01
 Gap=     0.426 Goal=   None    Shift=    0.000
 RMSDP=1.96D-08 MaxDP=5.94D-07 DE=-7.44D-11 OVMax= 1.48D-06

 Cycle  10  Pass 1  IDiag  1:
 E= -76.4222653619583     Delta-E=       -0.000000000004 Rises=F Damp=F
 DIIS: error= 1.84D-08 at cycle   6 NSaved=   6.
 NSaved= 6 IEnMin= 6 EnMin= -76.4222653619583     IErMin= 6 ErrMin= 1.84D-08
 ErrMax= 1.84D-08  0.00D+00 EMaxC= 1.00D-01 BMatC= 2.33D-14 BMatP= 1.50D-12
 IDIUse=1 WtCom= 1.00D+00 WtEn= 0.00D+00
 Coeff-Com: -0.661D-03 0.148D-02 0.619D-02-0.733D-02-0.168D+00 0.117D+01
 Coeff:     -0.661D-03 0.148D-02 0.619D-02-0.733D-02-0.168D+00 0.117D+01
 Gap=     0.426 Goal=   None    Shift=    0.000
 RMSDP=2.32D-09 MaxDP=4.39D-08 DE=-4.35D-12 OVMax= 1.57D-07

 SCF Done:  E(RM062X) =  -76.4222653620     A.U. after   10 cycles
            NFock= 10  Conv=0.23D-08     -V/T= 2.0029
 KE= 7.619955668535D+01 PE=-1.990997636555D+02 EE= 3.735400056694D+01
 Leave Link  502 at Mon Feb 20 08:34:05 2023, MaxMem=  6710886400 cpu:              32.0 elap:               1.6
 (Enter /data0/home/software/g16/l601.exe)
 Copying SCF densities to generalized density rwf, IOpCl= 0 IROHF=0.

 **********************************************************************

            Population analysis using the SCF density.

 **********************************************************************

 Alpha  occ. eigenvalues --  -19.62560  -1.13400  -0.61011  -0.47403  -0.39998
 Alpha virt. eigenvalues --    0.02572   0.09080   0.10231   0.12417   0.12730
 Alpha virt. eigenvalues --    0.15874   0.17960   0.18300   0.18686   0.18838
 Alpha virt. eigenvalues --    0.21154   0.21392   0.23484   0.27011   0.28093
 Alpha virt. eigenvalues --    0.29474   0.31480   0.36714   0.50416   0.55396
 Alpha virt. eigenvalues --    0.56183   0.62801   0.70153   0.71209   0.78551
 Alpha virt. eigenvalues --    0.80085   0.80994   0.81434   0.93334   0.99776
 Alpha virt. eigenvalues --    1.03218   1.04217   1.06048   1.07011   1.12555
 Alpha virt. eigenvalues --    1.20486   1.20987   1.33538   1.40936   1.66899
 Alpha virt. eigenvalues --    1.71933   1.73781   1.75434   1.79959   1.85491
 Alpha virt. eigenvalues --    1.88523   1.98523   1.99683   2.07650   2.08487
 Alpha virt. eigenvalues --    2.20654   2.21560   2.26622   2.30895   2.38111
 Alpha virt. eigenvalues --    2.41686   2.44354   2.50461   2.51087   2.56739
 Alpha virt. eigenvalues --    2.58299   2.59801   2.62115   2.64731   2.66600
 Alpha virt. eigenvalues --    2.68698   2.73562   2.74896   2.78539   2.86552
 Alpha virt. eigenvalues --    2.93051   2.99197   3.00682   3.10028   3.12654
 Alpha virt. eigenvalues --    3.44931   3.50902   3.59597   3.65678   4.46962
 Alpha virt. eigenvalues --    4.61484   5.03589   5.07540   5.26463   5.48943
 Alpha virt. eigenvalues --    5.97321   6.78311   6.80609   6.89477   6.91931
 Alpha virt. eigenvalues --    7.13024   9.79204   9.80841   9.91534   9.93936
 Alpha virt. eigenvalues --   10.08397  10.25048  10.28841  10.33807  10.42400
 Alpha virt. eigenvalues --   10.58476  12.89368  13.23694  13.38685  13.68786
 Alpha virt. eigenvalues --   13.76922  14.29107  17.64682  18.38101  49.99030
 Alpha virt. eigenvalues --  136.06121 139.73828
          Condensed to atoms (all electrons):
               1          2          3          4          5          6
     1  O    7.961589   0.319401   0.313514   0.000000   0.000000   0.000003
     2  H    0.319401   0.432058  -0.030782  -0.000000   0.000000   0.000001
     3  H    0.313514  -0.030782   0.350759   0.000000  -0.000000  -0.000000
     4  O    0.000000  -0.000000   0.000000   0.000010  -0.000007  -0.000004
     5  H    0.000000   0.000000  -0.000000  -0.000007   0.000005   0.000002
     6  H    0.000003   0.000001  -0.000000  -0.000004   0.000002   0.000002
     7  O    0.021058   0.003369   0.011799  -0.000000   0.000000   0.000000
     8  H   -0.003878  -0.000458  -0.001730   0.000000   0.000000   0.000000
     9  H   -0.003170  -0.000855  -0.001602   0.000000   0.000000  -0.000000
               7          8          9
     1  O    0.021058  -0.003878  -0.003170
     2  H    0.003369  -0.000458  -0.000855
     3  H    0.011799  -0.001730  -0.001602
     4  O   -0.000000   0.000000   0.000000
     5  H    0.000000   0.000000   0.000000
     6  H    0.000000   0.000000  -0.000000
     7  O    0.020322  -0.008497  -0.006751
     8  H   -0.008497   0.004731   0.002300
     9  H   -0.006751   0.002300   0.003098
 Mulliken charges:
               1
     1  O   -0.608519
     2  H    0.277266
     3  H    0.358042
     4  O    0.000000
     5  H   -0.000000
     6  H   -0.000004
     7  O   -0.041300
     8  H    0.007533
     9  H    0.006981
 Sum of Mulliken charges =   0.00000
 Mulliken charges with hydrogens summed into heavy atoms:
               1
     1  O    0.026790
     4  O   -0.000005
     7  O   -0.026785
         Mulliken charges condensed to fragments:
      1      0.026790
      2     -0.000005
      3     -0.026785
 Electronic spatial extent (au):  <R**2>=           8355.2792
 Charge=              0.0000 electrons
 Dipole moment (field-independent basis, Debye):
    X=              0.8039    Y=              0.7365    Z=             -1.7624  Tot=              2.0724
 Quadrupole moment (field-independent basis, Debye-Ang):
   XX=              8.7630   YY=              2.7031   ZZ=            -43.5297
   XY=             12.4656   XZ=             -5.5759   YZ=             -4.5390
 Traceless Quadrupole moment (field-independent basis, Debye-Ang):
   XX=             19.4509   YY=             13.3910   ZZ=            -32.8419
   XY=             12.4656   XZ=             -5.5759   YZ=             -4.5390
 Octapole moment (field-independent basis, Debye-Ang**2):
  XXX=             50.3692  YYY=            -49.2109  ZZZ=           -792.0824  XYY=             70.5256
  XXY=            125.3266  XXZ=            -20.1858  XZZ=           -261.3981  YZZ=           -221.4938
  YYZ=            -58.2551  XYZ=             33.3399
 Hexadecapole moment (field-independent basis, Debye-Ang**3):
 XXXX=           -117.9337 YYYY=          -1169.9252 ZZZZ=         -12642.1389 XXXY=            954.5449
 XXXZ=           -376.2803 YYYX=            -56.3062 YYYZ=          -1136.1615 ZZZX=          -5491.4255
 ZZZY=          -4649.5323 XXYY=            774.0381 XXZZ=          -1868.1426 YYZZ=          -1834.4485
 XXYZ=            535.6392 YYXZ=             51.4972 ZZXY=          -1058.4003
 N-N= 9.123941041235D+00 E-N=-1.990997637392D+02  KE= 7.619955668535D+01
 No NMR shielding tensors so no spin-rotation constants.
 Leave Link  601 at Mon Feb 20 08:34:05 2023, MaxMem=  6710886400 cpu:               1.8 elap:               0.1
 (Enter /data0/home/software/g16/l122.exe)
 CPIOFr:  IOpCl= 0 IRwI=-1 IRwCP=  731 ICalc=  1 LCPTot=       22668 Len1MO=       57607 IndFrg=      137882
 Counterpoise: doing calculation for fragment   2 using the basis set of the full-system, NewBq=T
 Leave Link  122 at Mon Feb 20 08:34:05 2023, MaxMem=  6710886400 cpu:               0.1 elap:               0.0
 (Enter /data0/home/software/g16/l301.exe)
 Basis read from rwf:  (5D, 7F)
 No pseudopotential information found on rwf file.
   117 basis functions,   174 primitive gaussians,   123 cartesian basis functions
     5 alpha electrons        5 beta electrons
       nuclear repulsion energy         9.0617518683 Hartrees.
 IExCor= 4336 DFT=T Ex+Corr=M062X ExCW=0 ScaHFX=  0.540000
 ScaDFX=  1.000000  1.000000  1.000000  1.000000 ScalE2=  1.000000  1.000000
 IRadAn=      5 IRanWt=     -1 IRanGd=            0 ICorTp=0 IEmpDi=131
 NAtoms=    9 NActive=    9 NUniq=    9 SFac= 1.00D+00 NAtFMM=   60 NAOKFM=F Big=F
 Integral buffers will be    131072 words long.
 Raffenetti 2 integral format.
 Two-electron integral symmetry is turned off.
 R6Disp:  Grimme-D3 Dispersion energy=       -0.0000000085 Hartrees.
 Nuclear repulsion after empirical dispersion term =        9.0617518598 Hartrees.
 No density basis found on file   718.
 Leave Link  301 at Mon Feb 20 08:34:05 2023, MaxMem=  6710886400 cpu:               1.2 elap:               0.1
 (Enter /data0/home/software/g16/l302.exe)
 NPDir=0 NMtPBC=     1 NCelOv=     1 NCel=       1 NClECP=     1 NCelD=      1
         NCelK=      1 NCelE2=     1 NClLst=     1 CellRange=     0.0.
 One-electron integrals computed using PRISM.
 NBasis=   117 RedAO= T EigKep=  1.45D-03  NBF=   117
 NBsUse=   117 1.00D-06 EigRej= -1.00D+00 NBFU=   117
 Precomputing XC quadrature grid using
 IXCGrd= 4 IRadAn=           5 IRanWt=          -1 IRanGd=           0 AccXCQ= 0.00D+00.
 Generated NRdTot=       0 NPtTot=           0 NUsed=           0 NTot=          32
 NSgBfM=   111   111   111   111   111 MxSgAt=     9 MxSgA2=     9.
 Leave Link  302 at Mon Feb 20 08:34:05 2023, MaxMem=  6710886400 cpu:               2.7 elap:               0.1
 (Enter /data0/home/software/g16/l303.exe)
 DipDrv:  MaxL=1.
 Leave Link  303 at Mon Feb 20 08:34:05 2023, MaxMem=  6710886400 cpu:               0.5 elap:               0.0
 (Enter /data0/home/software/g16/l401.exe)
 ExpMin= 8.45D-02 ExpMax= 8.59D+03 ExpMxC= 1.30D+03 IAcc=3 IRadAn=         5 AccDes= 0.00D+00
 Harris functional with IExCor= 1009 and IRadAn=       5 diagonalized for initial guess.
 HarFok:  IExCor= 1009 AccDes= 0.00D+00 IRadAn=         5 IDoV= 1 UseB2=F ITyADJ=14
 ICtDFT=  3500011 ScaDFX=  1.000000  1.000000  1.000000  1.000000
 FoFCou: FMM=F IPFlag=           0 FMFlag=      100000 FMFlg1=           0
         NFxFlg=           0 DoJE=T BraDBF=F KetDBF=T FulRan=T
         wScrn=  0.000000 ICntrl=       500 IOpCl=  0 I1Cent=   200000004 NGrid=           0
         NMat0=    1 NMatS0=      1 NMatT0=    0 NMatD0=    1 NMtDS0=    0 NMtDT0=    0
 Symmetry not used in FoFCou.
 Harris En= -76.4155785336520    
 JPrj=0 DoOrth=F DoCkMO=F.
 Leave Link  401 at Mon Feb 20 08:34:05 2023, MaxMem=  6710886400 cpu:               4.2 elap:               0.2
 (Enter /data0/home/software/g16/l502.exe)
 Keep R1 ints in memory in canonical form, NReq=46556122.
 FoFCou: FMM=F IPFlag=           0 FMFlag=           0 FMFlg1=           0
         NFxFlg=           0 DoJE=F BraDBF=F KetDBF=F FulRan=T
         wScrn=  0.000000 ICntrl=       600 IOpCl=  0 I1Cent=           0 NGrid=           0
         NMat0=    1 NMatS0=   6903 NMatT0=    0 NMatD0=    1 NMtDS0=    0 NMtDT0=    0
 Symmetry not used in FoFCou.
 Two-electron integral symmetry not used.
 Closed shell SCF:
 Using DIIS extrapolation, IDIIS=  1040.
 NGot=  6710886400 LenX=  6687023004 LenY=  6687007434
 Requested convergence on RMS density matrix=1.00D-08 within 128 cycles.
 Requested convergence on MAX density matrix=1.00D-06.
 Requested convergence on             energy=1.00D-06.
 No special actions if energy rises.
 Integral accuracy reduced to 1.0D-05 until final iterations.

 Cycle   1  Pass 0  IDiag  1:
 E= -76.3453244648460    
 DIIS: error= 6.75D-02 at cycle   1 NSaved=   1.
 NSaved= 1 IEnMin= 1 EnMin= -76.3453244648460     IErMin= 1 ErrMin= 6.75D-02
 ErrMax= 6.75D-02  0.00D+00 EMaxC= 1.00D-01 BMatC= 1.21D-01 BMatP= 1.21D-01
 IDIUse=3 WtCom= 3.25D-01 WtEn= 6.75D-01
 Coeff-Com:  0.100D+01
 Coeff-En:   0.100D+01
 Coeff:      0.100D+01
 Gap=     0.323 Goal=   None    Shift=    0.000
 GapD=    0.323 DampG=1.000 DampE=0.500 DampFc=0.5000 IDamp=-1.
 Damping current iteration by 5.00D-01
 RMSDP=2.62D-03 MaxDP=1.01D-01              OVMax= 1.68D-01

 Cycle   2  Pass 0  IDiag  1:
 E= -76.3766134453428     Delta-E=       -0.031288980497 Rises=F Damp=T
 DIIS: error= 1.05D-02 at cycle   2 NSaved=   2.
 NSaved= 2 IEnMin= 2 EnMin= -76.3766134453428     IErMin= 2 ErrMin= 1.05D-02
 ErrMax= 1.05D-02  0.00D+00 EMaxC= 1.00D-01 BMatC= 4.91D-03 BMatP= 1.21D-01
 IDIUse=3 WtCom= 8.95D-01 WtEn= 1.05D-01
 Coeff-Com:  0.843D-01 0.916D+00
 Coeff-En:   0.191D+00 0.809D+00
 Coeff:      0.955D-01 0.905D+00
 Gap=     0.467 Goal=   None    Shift=    0.000
 RMSDP=3.17D-04 MaxDP=1.42D-02 DE=-3.13D-02 OVMax= 1.01D-01

 Cycle   3  Pass 0  IDiag  1:
 E= -76.4206901605090     Delta-E=       -0.044076715166 Rises=F Damp=F
 DIIS: error= 2.26D-03 at cycle   3 NSaved=   3.
 NSaved= 3 IEnMin= 3 EnMin= -76.4206901605090     IErMin= 3 ErrMin= 2.26D-03
 ErrMax= 2.26D-03  0.00D+00 EMaxC= 1.00D-01 BMatC= 1.01D-04 BMatP= 4.91D-03
 IDIUse=3 WtCom= 9.77D-01 WtEn= 2.26D-02
 Coeff-Com: -0.209D-01 0.429D-01 0.978D+00
 Coeff-En:   0.000D+00 0.000D+00 0.100D+01
 Coeff:     -0.204D-01 0.420D-01 0.978D+00
 Gap=     0.459 Goal=   None    Shift=    0.000
 RMSDP=3.98D-05 MaxDP=1.04D-03 DE=-4.41D-02 OVMax= 3.44D-03

 Cycle   4  Pass 0  IDiag  1:
 E= -76.4207751781387     Delta-E=       -0.000085017630 Rises=F Damp=F
 DIIS: error= 4.08D-04 at cycle   4 NSaved=   4.
 NSaved= 4 IEnMin= 4 EnMin= -76.4207751781387     IErMin= 4 ErrMin= 4.08D-04
 ErrMax= 4.08D-04  0.00D+00 EMaxC= 1.00D-01 BMatC= 3.50D-06 BMatP= 1.01D-04
 IDIUse=3 WtCom= 9.96D-01 WtEn= 4.08D-03
 Coeff-Com: -0.220D-02-0.181D-02 0.167D+00 0.837D+00
 Coeff-En:   0.000D+00 0.000D+00 0.000D+00 0.100D+01
 Coeff:     -0.219D-02-0.180D-02 0.166D+00 0.838D+00
 Gap=     0.460 Goal=   None    Shift=    0.000
 RMSDP=7.52D-06 MaxDP=3.57D-04 DE=-8.50D-05 OVMax= 5.45D-04

 Initial convergence to 1.0D-05 achieved.  Increase integral accuracy.
 Cycle   5  Pass 1  IDiag  1:
 E= -76.4207748748238     Delta-E=        0.000000303315 Rises=F Damp=F
 DIIS: error= 9.02D-05 at cycle   1 NSaved=   1.
 NSaved= 1 IEnMin= 1 EnMin= -76.4207748748238     IErMin= 1 ErrMin= 9.02D-05
 ErrMax= 9.02D-05  0.00D+00 EMaxC= 1.00D-01 BMatC= 1.03D-07 BMatP= 1.03D-07
 IDIUse=1 WtCom= 1.00D+00 WtEn= 0.00D+00
 Coeff-Com:  0.100D+01
 Coeff:      0.100D+01
 Gap=     0.460 Goal=   None    Shift=    0.000
 RMSDP=7.52D-06 MaxDP=3.57D-04 DE= 3.03D-07 OVMax= 2.35D-04

 Cycle   6  Pass 1  IDiag  1:
 E= -76.4207749869127     Delta-E=       -0.000000112089 Rises=F Damp=F
 DIIS: error= 4.44D-05 at cycle   2 NSaved=   2.
 NSaved= 2 IEnMin= 2 EnMin= -76.4207749869127     IErMin= 2 ErrMin= 4.44D-05
 ErrMax= 4.44D-05  0.00D+00 EMaxC= 1.00D-01 BMatC= 6.43D-08 BMatP= 1.03D-07
 IDIUse=1 WtCom= 1.00D+00 WtEn= 0.00D+00
 Coeff-Com:  0.420D+00 0.580D+00
 Coeff:      0.420D+00 0.580D+00
 Gap=     0.460 Goal=   None    Shift=    0.000
 RMSDP=1.15D-06 MaxDP=4.63D-05 DE=-1.12D-07 OVMax= 8.37D-05

 Cycle   7  Pass 1  IDiag  1:
 E= -76.4207750293019     Delta-E=       -0.000000042389 Rises=F Damp=F
 DIIS: error= 2.35D-05 at cycle   3 NSaved=   3.
 NSaved= 3 IEnMin= 3 EnMin= -76.4207750293019     IErMin= 3 ErrMin= 2.35D-05
 ErrMax= 2.35D-05  0.00D+00 EMaxC= 1.00D-01 BMatC= 5.86D-09 BMatP= 6.43D-08
 IDIUse=1 WtCom= 1.00D+00 WtEn= 0.00D+00
 Coeff-Com: -0.127D+00 0.158D+00 0.969D+00
 Coeff:     -0.127D+00 0.158D+00 0.969D+00
 Gap=     0.460 Goal=   None    Shift=    0.000
 RMSDP=5.49D-07 MaxDP=2.03D-05 DE=-4.24D-08 OVMax= 4.35D-05

 Cycle   8  Pass 1  IDiag  1:
 E= -76.4207750351856     Delta-E=       -0.000000005884 Rises=F Damp=F
 DIIS: error= 1.60D-06 at cycle   4 NSaved=   4.
 NSaved= 4 IEnMin= 4 EnMin= -76.4207750351856     IErMin= 4 ErrMin= 1.60D-06
 ErrMax= 1.60D-06  0.00D+00 EMaxC= 1.00D-01 BMatC= 5.84D-11 BMatP= 5.86D-09
 IDIUse=1 WtCom= 1.00D+00 WtEn= 0.00D+00
 Coeff-Com: -0.287D-01 0.134D-01 0.141D+00 0.875D+00
 Coeff:     -0.287D-01 0.134D-01 0.141D+00 0.875D+00
 Gap=     0.460 Goal=   None    Shift=    0.000
 RMSDP=6.31D-08 MaxDP=1.91D-06 DE=-5.88D-09 OVMax= 4.72D-06

 Cycle   9  Pass 1  IDiag  1:
 E= -76.4207750352618     Delta-E=       -0.000000000076 Rises=F Damp=F
 DIIS: error= 3.93D-07 at cycle   5 NSaved=   5.
 NSaved= 5 IEnMin= 5 EnMin= -76.4207750352618     IErMin= 5 ErrMin= 3.93D-07
 ErrMax= 3.93D-07  0.00D+00 EMaxC= 1.00D-01 BMatC= 1.76D-12 BMatP= 5.84D-11
 IDIUse=1 WtCom= 1.00D+00 WtEn= 0.00D+00
 Coeff-Com:  0.550D-02-0.694D-02-0.466D-01-0.611D-01 0.111D+01
 Coeff:      0.550D-02-0.694D-02-0.466D-01-0.611D-01 0.111D+01
 Gap=     0.460 Goal=   None    Shift=    0.000
 RMSDP=2.25D-08 MaxDP=6.21D-07 DE=-7.62D-11 OVMax= 1.52D-06

 Cycle  10  Pass 1  IDiag  1:
 E= -76.4207750352669     Delta-E=       -0.000000000005 Rises=F Damp=F
 DIIS: error= 3.35D-08 at cycle   6 NSaved=   6.
 NSaved= 6 IEnMin= 6 EnMin= -76.4207750352669     IErMin= 6 ErrMin= 3.35D-08
 ErrMax= 3.35D-08  0.00D+00 EMaxC= 1.00D-01 BMatC= 3.29D-14 BMatP= 1.76D-12
 IDIUse=1 WtCom= 1.00D+00 WtEn= 0.00D+00
 Coeff-Com: -0.823D-04 0.390D-03 0.227D-02-0.129D-01-0.687D-01 0.108D+01
 Coeff:     -0.823D-04 0.390D-03 0.227D-02-0.129D-01-0.687D-01 0.108D+01
 Gap=     0.460 Goal=   None    Shift=    0.000
 RMSDP=2.43D-09 MaxDP=5.44D-08 DE=-5.02D-12 OVMax= 1.68D-07

 SCF Done:  E(RM062X) =  -76.4207750353     A.U. after   10 cycles
            NFock= 10  Conv=0.24D-08     -V/T= 2.0032
 KE= 7.618005453638D+01 PE=-1.989699098741D+02 EE= 3.730732844264D+01
 Leave Link  502 at Mon Feb 20 08:34:07 2023, MaxMem=  6710886400 cpu:              30.8 elap:               1.6
 (Enter /data0/home/software/g16/l601.exe)
 Copying SCF densities to generalized density rwf, IOpCl= 0 IROHF=0.

 **********************************************************************

            Population analysis using the SCF density.

 **********************************************************************

 Alpha  occ. eigenvalues --  -19.62620  -1.13103  -0.60748  -0.47242  -0.39921
 Alpha virt. eigenvalues --    0.06073   0.08037   0.12626   0.13290   0.16570
 Alpha virt. eigenvalues --    0.16873   0.17538   0.17929   0.19014   0.19443
 Alpha virt. eigenvalues --    0.22496   0.23037   0.23713   0.28790   0.29952
 Alpha virt. eigenvalues --    0.33627   0.34701   0.39797   0.50137   0.53954
 Alpha virt. eigenvalues --    0.60714   0.66910   0.79077   0.79899   0.81376
 Alpha virt. eigenvalues --    0.82220   0.85008   0.93647   0.98043   1.00489
 Alpha virt. eigenvalues --    1.03250   1.05955   1.06054   1.12707   1.19290
 Alpha virt. eigenvalues --    1.19577   1.23821   1.32709   1.34095   1.68579
 Alpha virt. eigenvalues --    1.73589   1.75957   1.82567   1.86756   1.91040
 Alpha virt. eigenvalues --    1.92127   1.99980   2.06051   2.09798   2.10108
 Alpha virt. eigenvalues --    2.19500   2.29053   2.30207   2.34334   2.36025
 Alpha virt. eigenvalues --    2.43112   2.52551   2.53090   2.53910   2.63025
 Alpha virt. eigenvalues --    2.65098   2.67317   2.71494   2.73066   2.75772
 Alpha virt. eigenvalues --    2.79045   2.80608   2.87337   2.87606   2.93637
 Alpha virt. eigenvalues --    3.01040   3.03372   3.09953   3.13628   3.22318
 Alpha virt. eigenvalues --    3.62602   3.63433   3.68968   3.79273   4.67975
 Alpha virt. eigenvalues --    4.75837   5.05686   5.29175   5.35689   5.46010
 Alpha virt. eigenvalues --    5.91927   6.78138   6.80436   6.86847   6.91418
 Alpha virt. eigenvalues --    7.10019  10.25532  10.27695  10.28817  10.31177
 Alpha virt. eigenvalues --   10.33802  10.41276  10.42780  10.45549  10.59321
 Alpha virt. eigenvalues --   10.65961  13.39973  13.47543  13.80178  13.84477
 Alpha virt. eigenvalues --   14.31524  14.35528  18.42215  18.47620  49.95612
 Alpha virt. eigenvalues --  139.76377 139.76886
          Condensed to atoms (all electrons):
               1          2          3          4          5          6
     1  O    0.000002  -0.000001  -0.000001   0.000000  -0.000000   0.000001
     2  H   -0.000001   0.000001   0.000000  -0.000000   0.000000  -0.000000
     3  H   -0.000001   0.000000   0.000001  -0.000000   0.000000  -0.000000
     4  O    0.000000  -0.000000  -0.000000   7.920036   0.324657   0.316724
     5  H   -0.000000   0.000000   0.000000   0.324657   0.422573  -0.024363
     6  H    0.000001  -0.000000  -0.000000   0.316724  -0.024363   0.423351
     7  O   -0.000000   0.000000   0.000000   0.000000   0.000000  -0.000000
     8  H    0.000000  -0.000000  -0.000000   0.000000   0.000000  -0.000000
     9  H    0.000000  -0.000000  -0.000000   0.000000  -0.000000   0.000000
               7          8          9
     1  O   -0.000000   0.000000   0.000000
     2  H    0.000000  -0.000000  -0.000000
     3  H    0.000000  -0.000000  -0.000000
     4  O    0.000000   0.000000   0.000000
     5  H    0.000000   0.000000  -0.000000
     6  H   -0.000000  -0.000000   0.000000
     7  O    0.000000  -0.000000  -0.000000
     8  H   -0.000000   0.000000   0.000000
     9  H   -0.000000   0.000000   0.000000
 Mulliken charges:
               1
     1  O   -0.000001
     2  H   -0.000000
     3  H    0.000000
     4  O   -0.561418
     5  H    0.277132
     6  H    0.284287
     7  O    0.000000
     8  H   -0.000000
     9  H   -0.000000
 Sum of Mulliken charges =  -0.00000
 Mulliken charges with hydrogens summed into heavy atoms:
               1
     1  O   -0.000001
     4  O    0.000001
     7  O   -0.000000
         Mulliken charges condensed to fragments:
      1     -0.000001
      2      0.000001
      3     -0.000000
 Electronic spatial extent (au):  <R**2>=          15248.0864
 Charge=             -0.0000 electrons
 Dipole moment (field-independent basis, Debye):
    X=              1.6085    Y=             -0.6145    Z=             -1.2087  Tot=              2.1038
 Quadrupole moment (field-independent basis, Debye-Ang):
   XX=             30.5168   YY=            -20.6223   ZZ=            -35.6375
   XY=             14.1894   XZ=              5.0803   YZ=            -21.3892
 Traceless Quadrupole moment (field-independent basis, Debye-Ang):
   XX=             39.0978   YY=            -12.0413   ZZ=            -27.0565
   XY=             14.1894   XZ=              5.0803   YZ=            -21.3892
 Octapole moment (field-independent basis, Debye-Ang**2):
  XXX=            418.0270  YYY=           -486.3918  ZZZ=           -757.9411  XYY=             44.0693
  XXY=            326.7753  XXZ=            199.8911  XZZ=           -184.9077  YZZ=           -508.5625
  YYZ=           -408.8250  XYZ=              4.7113
 Hexadecapole moment (field-independent basis, Debye-Ang**3):
 XXXX=           4791.7390 YYYY=          -9794.0037 ZZZZ=         -13953.2972 XXXY=           4752.2241
 XXXZ=           3082.4155 YYYX=          -1869.4477 YYYZ=          -7678.2822 ZZZX=          -6039.5146
 ZZZY=         -10094.1338 XXYY=           2729.6253 XXZZ=           -453.0091 YYZZ=          -7901.4628
 XXYZ=           1978.5718 YYXZ=          -1386.3349 ZZXY=          -2880.0491
 N-N= 9.061751859832D+00 E-N=-1.989699095967D+02  KE= 7.618005453638D+01
 No NMR shielding tensors so no spin-rotation constants.
 Leave Link  601 at Mon Feb 20 08:34:07 2023, MaxMem=  6710886400 cpu:               1.9 elap:               0.1
 (Enter /data0/home/software/g16/l122.exe)
 CPIOFr:  IOpCl= 0 IRwI=-1 IRwCP=  731 ICalc=  2 LCPTot=       22668 Len1MO=       57607 IndFrg=      195489
 Counterpoise: doing calculation for fragment   3 using the basis set of the full-system, NewBq=T
 Leave Link  122 at Mon Feb 20 08:34:07 2023, MaxMem=  6710886400 cpu:               0.1 elap:               0.0
 (Enter /data0/home/software/g16/l301.exe)
 Basis read from rwf:  (5D, 7F)
 No pseudopotential information found on rwf file.
   117 basis functions,   174 primitive gaussians,   123 cartesian basis functions
     5 alpha electrons        5 beta electrons
       nuclear repulsion energy         9.1242575124 Hartrees.
 IExCor= 4336 DFT=T Ex+Corr=M062X ExCW=0 ScaHFX=  0.540000
 ScaDFX=  1.000000  1.000000  1.000000  1.000000 ScalE2=  1.000000  1.000000
 IRadAn=      5 IRanWt=     -1 IRanGd=            0 ICorTp=0 IEmpDi=131
 NAtoms=    9 NActive=    9 NUniq=    9 SFac= 1.00D+00 NAtFMM=   60 NAOKFM=F Big=F
 Integral buffers will be    131072 words long.
 Raffenetti 2 integral format.
 Two-electron integral symmetry is turned off.
 R6Disp:  Grimme-D3 Dispersion energy=       -0.0000000075 Hartrees.
 Nuclear repulsion after empirical dispersion term =        9.1242575049 Hartrees.
 No density basis found on file   718.
 Leave Link  301 at Mon Feb 20 08:34:07 2023, MaxMem=  6710886400 cpu:               1.3 elap:               0.1
 (Enter /data0/home/software/g16/l302.exe)
 NPDir=0 NMtPBC=     1 NCelOv=     1 NCel=       1 NClECP=     1 NCelD=      1
         NCelK=      1 NCelE2=     1 NClLst=     1 CellRange=     0.0.
 One-electron integrals computed using PRISM.
 NBasis=   117 RedAO= T EigKep=  1.45D-03  NBF=   117
 NBsUse=   117 1.00D-06 EigRej= -1.00D+00 NBFU=   117
 Precomputing XC quadrature grid using
 IXCGrd= 4 IRadAn=           5 IRanWt=          -1 IRanGd=           0 AccXCQ= 0.00D+00.
 Generated NRdTot=       0 NPtTot=           0 NUsed=           0 NTot=          32
 NSgBfM=   111   111   111   111   111 MxSgAt=     9 MxSgA2=     9.
 Leave Link  302 at Mon Feb 20 08:34:07 2023, MaxMem=  6710886400 cpu:               2.5 elap:               0.1
 (Enter /data0/home/software/g16/l303.exe)
 DipDrv:  MaxL=1.
 Leave Link  303 at Mon Feb 20 08:34:07 2023, MaxMem=  6710886400 cpu:               0.5 elap:               0.0
 (Enter /data0/home/software/g16/l401.exe)
 ExpMin= 8.45D-02 ExpMax= 8.59D+03 ExpMxC= 1.30D+03 IAcc=3 IRadAn=         5 AccDes= 0.00D+00
 Harris functional with IExCor= 1009 and IRadAn=       5 diagonalized for initial guess.
 HarFok:  IExCor= 1009 AccDes= 0.00D+00 IRadAn=         5 IDoV= 1 UseB2=F ITyADJ=14
 ICtDFT=  3500011 ScaDFX=  1.000000  1.000000  1.000000  1.000000
 FoFCou: FMM=F IPFlag=           0 FMFlag=      100000 FMFlg1=           0
         NFxFlg=           0 DoJE=T BraDBF=F KetDBF=T FulRan=T
         wScrn=  0.000000 ICntrl=       500 IOpCl=  0 I1Cent=   200000004 NGrid=           0
         NMat0=    1 NMatS0=      1 NMatT0=    0 NMatD0=    1 NMtDS0=    0 NMtDT0=    0
 Symmetry not used in FoFCou.
 Harris En= -76.4172532394553    
 JPrj=0 DoOrth=F DoCkMO=F.
 Leave Link  401 at Mon Feb 20 08:34:07 2023, MaxMem=  6710886400 cpu:               4.2 elap:               0.2
 (Enter /data0/home/software/g16/l502.exe)
 Keep R1 ints in memory in canonical form, NReq=46556122.
 FoFCou: FMM=F IPFlag=           0 FMFlag=           0 FMFlg1=           0
         NFxFlg=           0 DoJE=F BraDBF=F KetDBF=F FulRan=T
         wScrn=  0.000000 ICntrl=       600 IOpCl=  0 I1Cent=           0 NGrid=           0
         NMat0=    1 NMatS0=   6903 NMatT0=    0 NMatD0=    1 NMtDS0=    0 NMtDT0=    0
 Symmetry not used in FoFCou.
 Two-electron integral symmetry not used.
 Closed shell SCF:
 Using DIIS extrapolation, IDIIS=  1040.
 NGot=  6710886400 LenX=  6687023004 LenY=  6687007434
 Requested convergence on RMS density matrix=1.00D-08 within 128 cycles.
 Requested convergence on MAX density matrix=1.00D-06.
 Requested convergence on             energy=1.00D-06.
 No special actions if energy rises.
 Integral accuracy reduced to 1.0D-05 until final iterations.

 Cycle   1  Pass 0  IDiag  1:
 E= -76.3470936925359    
 DIIS: error= 4.62D-02 at cycle   1 NSaved=   1.
 NSaved= 1 IEnMin= 1 EnMin= -76.3470936925359     IErMin= 1 ErrMin= 4.62D-02
 ErrMax= 4.62D-02  0.00D+00 EMaxC= 1.00D-01 BMatC= 1.21D-01 BMatP= 1.21D-01
 IDIUse=3 WtCom= 5.38D-01 WtEn= 4.62D-01
 Coeff-Com:  0.100D+01
 Coeff-En:   0.100D+01
 Coeff:      0.100D+01
 Gap=     0.314 Goal=   None    Shift=    0.000
 GapD=    0.314 DampG=1.000 DampE=0.500 DampFc=0.5000 IDamp=-1.
 Damping current iteration by 5.00D-01
 RMSDP=4.23D-03 MaxDP=1.01D-01              OVMax= 1.72D-01

 Cycle   2  Pass 0  IDiag  1:
 E= -76.3783967848438     Delta-E=       -0.031303092308 Rises=F Damp=T
 DIIS: error= 8.22D-03 at cycle   2 NSaved=   2.
 NSaved= 2 IEnMin= 2 EnMin= -76.3783967848438     IErMin= 2 ErrMin= 8.22D-03
 ErrMax= 8.22D-03  0.00D+00 EMaxC= 1.00D-01 BMatC= 4.89D-03 BMatP= 1.21D-01
 IDIUse=3 WtCom= 9.18D-01 WtEn= 8.22D-02
 Coeff-Com:  0.841D-01 0.916D+00
 Coeff-En:   0.191D+00 0.809D+00
 Coeff:      0.929D-01 0.907D+00
 Gap=     0.446 Goal=   None    Shift=    0.000
 RMSDP=6.55D-04 MaxDP=1.80D-02 DE=-3.13D-02 OVMax= 1.03D-01

 Cycle   3  Pass 0  IDiag  1:
 E= -76.4225644040101     Delta-E=       -0.044167619166 Rises=F Damp=F
 DIIS: error= 1.73D-03 at cycle   3 NSaved=   3.
 NSaved= 3 IEnMin= 3 EnMin= -76.4225644040101     IErMin= 3 ErrMin= 1.73D-03
 ErrMax= 1.73D-03  0.00D+00 EMaxC= 1.00D-01 BMatC= 1.20D-04 BMatP= 4.89D-03
 IDIUse=3 WtCom= 9.83D-01 WtEn= 1.73D-02
 Coeff-Com: -0.242D-01 0.451D-01 0.979D+00
 Coeff-En:   0.000D+00 0.000D+00 0.100D+01
 Coeff:     -0.238D-01 0.443D-01 0.980D+00
 Gap=     0.448 Goal=   None    Shift=    0.000
 RMSDP=5.42D-05 MaxDP=1.15D-03 DE=-4.42D-02 OVMax= 3.61D-03

 Cycle   4  Pass 0  IDiag  1:
 E= -76.4226628097923     Delta-E=       -0.000098405782 Rises=F Damp=F
 DIIS: error= 2.15D-04 at cycle   4 NSaved=   4.
 NSaved= 4 IEnMin= 4 EnMin= -76.4226628097923     IErMin= 4 ErrMin= 2.15D-04
 ErrMax= 2.15D-04  0.00D+00 EMaxC= 1.00D-01 BMatC= 2.91D-06 BMatP= 1.20D-04
 IDIUse=3 WtCom= 9.98D-01 WtEn= 2.15D-03
 Coeff-Com: -0.233D-02-0.941D-03 0.150D+00 0.853D+00
 Coeff-En:   0.000D+00 0.000D+00 0.000D+00 0.100D+01
 Coeff:     -0.233D-02-0.939D-03 0.150D+00 0.854D+00
 Gap=     0.449 Goal=   None    Shift=    0.000
 RMSDP=1.37D-05 MaxDP=3.36D-04 DE=-9.84D-05 OVMax= 5.32D-04

 Cycle   5  Pass 0  IDiag  1:
 E= -76.4226646569452     Delta-E=       -0.000001847153 Rises=F Damp=F
 DIIS: error= 3.96D-05 at cycle   5 NSaved=   5.
 NSaved= 5 IEnMin= 5 EnMin= -76.4226646569452     IErMin= 5 ErrMin= 3.96D-05
 ErrMax= 3.96D-05  0.00D+00 EMaxC= 1.00D-01 BMatC= 7.53D-08 BMatP= 2.91D-06
 IDIUse=1 WtCom= 1.00D+00 WtEn= 0.00D+00
 Coeff-Com:  0.130D-02-0.202D-02-0.362D-01-0.511D-01 0.109D+01
 Coeff:      0.130D-02-0.202D-02-0.362D-01-0.511D-01 0.109D+01
 Gap=     0.449 Goal=   None    Shift=    0.000
 RMSDP=9.03D-06 MaxDP=2.05D-04 DE=-1.85D-06 OVMax= 2.08D-04

 Initial convergence to 1.0D-05 achieved.  Increase integral accuracy.
 Cycle   6  Pass 1  IDiag  1:
 E= -76.4226668464014     Delta-E=       -0.000002189456 Rises=F Damp=F
 DIIS: error= 1.50D-05 at cycle   1 NSaved=   1.
 NSaved= 1 IEnMin= 1 EnMin= -76.4226668464014     IErMin= 1 ErrMin= 1.50D-05
 ErrMax= 1.50D-05  0.00D+00 EMaxC= 1.00D-01 BMatC= 1.76D-08 BMatP= 1.76D-08
 IDIUse=1 WtCom= 1.00D+00 WtEn= 0.00D+00
 Coeff-Com:  0.100D+01
 Coeff:      0.100D+01
 Gap=     0.449 Goal=   None    Shift=    0.000
 RMSDP=9.03D-06 MaxDP=2.05D-04 DE=-2.19D-06 OVMax= 3.43D-05

 Cycle   7  Pass 1  IDiag  1:
 E= -76.4226668600851     Delta-E=       -0.000000013684 Rises=F Damp=F
 DIIS: error= 4.19D-06 at cycle   2 NSaved=   2.
 NSaved= 2 IEnMin= 2 EnMin= -76.4226668600851     IErMin= 2 ErrMin= 4.19D-06
 ErrMax= 4.19D-06  0.00D+00 EMaxC= 1.00D-01 BMatC= 1.10D-09 BMatP= 1.76D-08
 IDIUse=1 WtCom= 1.00D+00 WtEn= 0.00D+00
 Coeff-Com:  0.334D-01 0.967D+00
 Coeff:      0.334D-01 0.967D+00
 Gap=     0.449 Goal=   None    Shift=    0.000
 RMSDP=4.98D-07 MaxDP=1.14D-05 DE=-1.37D-08 OVMax= 2.10D-05

 Cycle   8  Pass 1  IDiag  1:
 E= -76.4226668602460     Delta-E=       -0.000000000161 Rises=F Damp=F
 DIIS: error= 4.23D-06 at cycle   3 NSaved=   3.
 NSaved= 3 IEnMin= 3 EnMin= -76.4226668602460     IErMin= 2 ErrMin= 4.19D-06
 ErrMax= 4.23D-06  0.00D+00 EMaxC= 1.00D-01 BMatC= 1.14D-09 BMatP= 1.10D-09
 IDIUse=1 WtCom= 1.00D+00 WtEn= 0.00D+00
 Coeff-Com: -0.479D-01 0.521D+00 0.526D+00
 Coeff:     -0.479D-01 0.521D+00 0.526D+00
 Gap=     0.449 Goal=   None    Shift=    0.000
 RMSDP=1.39D-07 MaxDP=5.48D-06 DE=-1.61D-10 OVMax= 8.18D-06

 Cycle   9  Pass 1  IDiag  1:
 E= -76.4226668609880     Delta-E=       -0.000000000742 Rises=F Damp=F
 DIIS: error= 2.51D-07 at cycle   4 NSaved=   4.
 NSaved= 4 IEnMin= 4 EnMin= -76.4226668609880     IErMin= 4 ErrMin= 2.51D-07
 ErrMax= 2.51D-07  0.00D+00 EMaxC= 1.00D-01 BMatC= 3.19D-12 BMatP= 1.10D-09
 IDIUse=1 WtCom= 1.00D+00 WtEn= 0.00D+00
 Coeff-Com:  0.433D-02-0.848D-01-0.462D-01 0.113D+01
 Coeff:      0.433D-02-0.848D-01-0.462D-01 0.113D+01
 Gap=     0.449 Goal=   None    Shift=    0.000
 RMSDP=5.84D-08 MaxDP=1.41D-06 DE=-7.42D-10 OVMax= 1.89D-06

 Cycle  10  Pass 1  IDiag  1:
 E= -76.4226668609945     Delta-E=       -0.000000000007 Rises=F Damp=F
 DIIS: error= 3.53D-08 at cycle   5 NSaved=   5.
 NSaved= 5 IEnMin= 5 EnMin= -76.4226668609945     IErMin= 5 ErrMin= 3.53D-08
 ErrMax= 3.53D-08  0.00D+00 EMaxC= 1.00D-01 BMatC= 1.17D-13 BMatP= 3.19D-12
 IDIUse=1 WtCom= 1.00D+00 WtEn= 0.00D+00
 Coeff-Com:  0.176D-02-0.224D-01-0.232D-01 0.468D-01 0.997D+00
 Coeff:      0.176D-02-0.224D-01-0.232D-01 0.468D-01 0.997D+00
 Gap=     0.449 Goal=   None    Shift=    0.000
 RMSDP=1.09D-08 MaxDP=2.64D-07 DE=-6.57D-12 OVMax= 3.58D-07

 Cycle  11  Pass 1  IDiag  1:
 E= -76.4226668609943     Delta-E=        0.000000000000 Rises=F Damp=F
 DIIS: error= 8.00D-09 at cycle   6 NSaved=   6.
 NSaved= 6 IEnMin= 5 EnMin= -76.4226668609945     IErMin= 6 ErrMin= 8.00D-09
 ErrMax= 8.00D-09  0.00D+00 EMaxC= 1.00D-01 BMatC= 5.61D-15 BMatP= 1.17D-13
 IDIUse=1 WtCom= 1.00D+00 WtEn= 0.00D+00
 Coeff-Com: -0.349D-04 0.177D-02-0.346D-03-0.482D-01 0.103D+00 0.944D+00
 Coeff:     -0.349D-04 0.177D-02-0.346D-03-0.482D-01 0.103D+00 0.944D+00
 Gap=     0.449 Goal=   None    Shift=    0.000
 RMSDP=1.73D-09 MaxDP=4.36D-08 DE= 2.27D-13 OVMax= 7.00D-08

 SCF Done:  E(RM062X) =  -76.4226668610     A.U. after   11 cycles
            NFock= 11  Conv=0.17D-08     -V/T= 2.0029
 KE= 7.619868998969D+01 PE=-1.990969556642D+02 EE= 3.735134130863D+01
 Leave Link  502 at Mon Feb 20 08:34:09 2023, MaxMem=  6710886400 cpu:              31.2 elap:               1.7
 (Enter /data0/home/software/g16/l601.exe)
 Copying SCF densities to generalized density rwf, IOpCl= 0 IROHF=0.

 **********************************************************************

            Population analysis using the SCF density.

 **********************************************************************

 Alpha  occ. eigenvalues --  -19.62628  -1.13449  -0.60829  -0.47593  -0.40044
 Alpha virt. eigenvalues --    0.04856   0.09453   0.10583   0.12682   0.14843
 Alpha virt. eigenvalues --    0.16165   0.17443   0.18993   0.19059   0.19172
 Alpha virt. eigenvalues --    0.20388   0.21686   0.22416   0.28684   0.30653
 Alpha virt. eigenvalues --    0.31836   0.33585   0.36738   0.51448   0.53690
 Alpha virt. eigenvalues --    0.56476   0.60772   0.74386   0.75356   0.79468
 Alpha virt. eigenvalues --    0.80528   0.81366   0.87527   0.95036   0.98246
 Alpha virt. eigenvalues --    1.01790   1.03654   1.05595   1.11249   1.13013
 Alpha virt. eigenvalues --    1.19639   1.20624   1.40980   1.56261   1.68293
 Alpha virt. eigenvalues --    1.75582   1.75763   1.78121   1.81104   1.86041
 Alpha virt. eigenvalues --    1.89092   1.89489   1.98961   2.06464   2.10146
 Alpha virt. eigenvalues --    2.12965   2.21070   2.25449   2.31532   2.35543
 Alpha virt. eigenvalues --    2.42542   2.46161   2.51117   2.51710   2.54258
 Alpha virt. eigenvalues --    2.56581   2.60270   2.64447   2.65211   2.69244
 Alpha virt. eigenvalues --    2.74053   2.75521   2.78965   2.80492   2.83656
 Alpha virt. eigenvalues --    2.89707   3.01124   3.01961   3.07081   3.10616
 Alpha virt. eigenvalues --    3.45783   3.59769   3.60259   3.66748   4.51665
 Alpha virt. eigenvalues --    4.62079   5.08405   5.13880   5.27026   5.52711
 Alpha virt. eigenvalues --    5.93367   6.80766   6.81053   6.91512   6.95344
 Alpha virt. eigenvalues --    7.09776   9.70359   9.76049   9.83080   9.84548
 Alpha virt. eigenvalues --   10.00359  10.25822  10.29602  10.34599  10.43285
 Alpha virt. eigenvalues --   10.59347  12.79838  13.18234  13.39526  13.70838
 Alpha virt. eigenvalues --   13.77915  14.30134  17.66829  18.39273  49.98480
 Alpha virt. eigenvalues --  136.56384 139.75940
          Condensed to atoms (all electrons):
               1          2          3          4          5          6
     1  O    0.027556  -0.003135  -0.035727  -0.000000  -0.000000   0.000000
     2  H   -0.003135   0.001264   0.002180   0.000000   0.000000  -0.000000
     3  H   -0.035727   0.002180   0.055369   0.000000   0.000000  -0.000000
     4  O   -0.000000   0.000000   0.000000   0.000000  -0.000000  -0.000000
     5  H   -0.000000   0.000000   0.000000  -0.000000   0.000000  -0.000000
     6  H    0.000000  -0.000000  -0.000000  -0.000000  -0.000000   0.000000
     7  O    0.054308  -0.004624  -0.096466  -0.000000  -0.000000   0.000000
     8  H   -0.003123   0.000319   0.005673   0.000000   0.000000  -0.000000
     9  H   -0.002925   0.000502   0.004556   0.000000   0.000000  -0.000000
               7          8          9
     1  O    0.054308  -0.003123  -0.002925
     2  H   -0.004624   0.000319   0.000502
     3  H   -0.096466   0.005673   0.004556
     4  O   -0.000000   0.000000   0.000000
     5  H   -0.000000   0.000000   0.000000
     6  H    0.000000  -0.000000  -0.000000
     7  O    7.970071   0.328166   0.329854
     8  H    0.328166   0.421225  -0.026216
     9  H    0.329854  -0.026216   0.417831
 Mulliken charges:
               1
     1  O   -0.036954
     2  H    0.003493
     3  H    0.064415
     4  O    0.000000
     5  H    0.000000
     6  H   -0.000000
     7  O   -0.581309
     8  H    0.273955
     9  H    0.276399
 Sum of Mulliken charges =   0.00000
 Mulliken charges with hydrogens summed into heavy atoms:
               1
     1  O    0.030955
     4  O    0.000000
     7  O   -0.030955
         Mulliken charges condensed to fragments:
      1      0.030955
      2      0.000000
      3     -0.030955
 Electronic spatial extent (au):  <R**2>=           6186.5444
 Charge=             -0.0000 electrons
 Dipole moment (field-independent basis, Debye):
    X=              1.3084    Y=             -0.1704    Z=             -1.5679  Tot=              2.0492
 Quadrupole moment (field-independent basis, Debye-Ang):
   XX=             11.9899   YY=             -7.1916   ZZ=            -32.3263
   XY=              9.1870   XZ=             -1.3036   YZ=            -12.4693
 Traceless Quadrupole moment (field-independent basis, Debye-Ang):
   XX=             21.1659   YY=              1.9844   ZZ=            -23.1503
   XY=              9.1870   XZ=             -1.3036   YZ=            -12.4693
 Octapole moment (field-independent basis, Debye-Ang**2):
  XXX=             55.3110  YYY=           -131.1998  ZZZ=           -478.3711  XYY=             31.1575
  XXY=             91.2026  XXZ=              6.4121  XZZ=           -156.8787  YZZ=           -241.9013
  YYZ=           -137.6994  XYZ=            -10.0241
 Hexadecapole moment (field-independent basis, Debye-Ang**3):
 XXXX=           -190.5692 YYYY=          -1803.4789 ZZZZ=          -6114.3082 XXXY=            476.4374
 XXXZ=           -245.5652 YYYX=           -283.9009 YYYZ=          -1639.6741 ZZZX=          -2870.6900
 ZZZY=          -3525.0728 XXYY=            455.4400 XXZZ=          -1045.0556 YYZZ=          -2137.8652
 XXYZ=             93.0821 YYXZ=           -354.4046 ZZXY=          -1133.3070
 N-N= 9.124257504866D+00 E-N=-1.990969556053D+02  KE= 7.619868998969D+01
 No NMR shielding tensors so no spin-rotation constants.
 Leave Link  601 at Mon Feb 20 08:34:09 2023, MaxMem=  6710886400 cpu:               1.9 elap:               0.1
 (Enter /data0/home/software/g16/l122.exe)
 CPIOFr:  IOpCl= 0 IRwI=-1 IRwCP=  731 ICalc=  3 LCPTot=       22668 Len1MO=       57607 IndFrg=      253096
 Counterpoise: doing calculation for fragment   1 using the basis set of the fragment.
 Leave Link  122 at Mon Feb 20 08:34:09 2023, MaxMem=  6710886400 cpu:               0.1 elap:               0.0
 (Enter /data0/home/software/g16/l301.exe)
 Basis read from rwf:  (5D, 7F)
 No pseudopotential information found on rwf file.
    39 basis functions,    58 primitive gaussians,    41 cartesian basis functions
     5 alpha electrons        5 beta electrons
       nuclear repulsion energy         9.1239410491 Hartrees.
 IExCor= 4336 DFT=T Ex+Corr=M062X ExCW=0 ScaHFX=  0.540000
 ScaDFX=  1.000000  1.000000  1.000000  1.000000 ScalE2=  1.000000  1.000000
 IRadAn=      5 IRanWt=     -1 IRanGd=            0 ICorTp=0 IEmpDi=131
 NAtoms=    9 NActive=    3 NUniq=    3 SFac= 1.00D+00 NAtFMM=   60 NAOKFM=F Big=F
 Integral buffers will be    131072 words long.
 Raffenetti 2 integral format.
 Two-electron integral symmetry is turned off.
 R6Disp:  Grimme-D3 Dispersion energy=       -0.0000000079 Hartrees.
 Nuclear repulsion after empirical dispersion term =        9.1239410412 Hartrees.
 No density basis found on file   718.
 Leave Link  301 at Mon Feb 20 08:34:09 2023, MaxMem=  6710886400 cpu:               1.3 elap:               0.1
 (Enter /data0/home/software/g16/l302.exe)
 NPDir=0 NMtPBC=     1 NCelOv=     1 NCel=       1 NClECP=     1 NCelD=      1
         NCelK=      1 NCelE2=     1 NClLst=     1 CellRange=     0.0.
 One-electron integrals computed using PRISM.
 NBasis=    39 RedAO= T EigKep=  3.06D-03  NBF=    39
 NBsUse=    39 1.00D-06 EigRej= -1.00D+00 NBFU=    39
 Precomputing XC quadrature grid using
 IXCGrd= 4 IRadAn=           5 IRanWt=          -1 IRanGd=           0 AccXCQ= 0.00D+00.
 Generated NRdTot=       0 NPtTot=           0 NUsed=           0 NTot=          32
 NSgBfM=    41    41    41    41    41 MxSgAt=     3 MxSgA2=     3.
 Leave Link  302 at Mon Feb 20 08:34:10 2023, MaxMem=  6710886400 cpu:               2.3 elap:               0.1
 (Enter /data0/home/software/g16/l303.exe)
 DipDrv:  MaxL=1.
 Leave Link  303 at Mon Feb 20 08:34:10 2023, MaxMem=  6710886400 cpu:               0.4 elap:               0.0
 (Enter /data0/home/software/g16/l401.exe)
 ExpMin= 8.45D-02 ExpMax= 8.59D+03 ExpMxC= 1.30D+03 IAcc=3 IRadAn=         5 AccDes= 0.00D+00
 Harris functional with IExCor= 1009 and IRadAn=       5 diagonalized for initial guess.
 HarFok:  IExCor= 1009 AccDes= 0.00D+00 IRadAn=         5 IDoV= 1 UseB2=F ITyADJ=14
 ICtDFT=  3500011 ScaDFX=  1.000000  1.000000  1.000000  1.000000
 FoFCou: FMM=F IPFlag=           0 FMFlag=      100000 FMFlg1=           0
         NFxFlg=           0 DoJE=T BraDBF=F KetDBF=T FulRan=T
         wScrn=  0.000000 ICntrl=       500 IOpCl=  0 I1Cent=   200000004 NGrid=           0
         NMat0=    1 NMatS0=      1 NMatT0=    0 NMatD0=    1 NMtDS0=    0 NMtDT0=    0
 Symmetry not used in FoFCou.
 Harris En= -76.4169670485435    
 JPrj=0 DoOrth=F DoCkMO=F.
 Leave Link  401 at Mon Feb 20 08:34:10 2023, MaxMem=  6710886400 cpu:               2.9 elap:               0.1
 (Enter /data0/home/software/g16/l502.exe)
 Keep R1 ints in memory in canonical form, NReq=21036630.
 FoFCou: FMM=F IPFlag=           0 FMFlag=           0 FMFlg1=           0
         NFxFlg=           0 DoJE=F BraDBF=F KetDBF=F FulRan=T
         wScrn=  0.000000 ICntrl=       600 IOpCl=  0 I1Cent=           0 NGrid=           0
         NMat0=    1 NMatS0=    780 NMatT0=    0 NMatD0=    1 NMtDS0=    0 NMtDT0=    0
 Symmetry not used in FoFCou.
 Two-electron integral symmetry not used.
 Closed shell SCF:
 Using DIIS extrapolation, IDIIS=  1040.
 NGot=  6710886400 LenX=  6710576844 LenY=  6710574722
 Requested convergence on RMS density matrix=1.00D-08 within 128 cycles.
 Requested convergence on MAX density matrix=1.00D-06.
 Requested convergence on             energy=1.00D-06.
 No special actions if energy rises.
 Integral accuracy reduced to 1.0D-05 until final iterations.

 Cycle   1  Pass 0  IDiag  1:
 E= -76.3462842885162    
 DIIS: error= 7.05D-02 at cycle   1 NSaved=   1.
 NSaved= 1 IEnMin= 1 EnMin= -76.3462842885162     IErMin= 1 ErrMin= 7.05D-02
 ErrMax= 7.05D-02  0.00D+00 EMaxC= 1.00D-01 BMatC= 1.21D-01 BMatP= 1.21D-01
 IDIUse=3 WtCom= 2.95D-01 WtEn= 7.05D-01
 Coeff-Com:  0.100D+01
 Coeff-En:   0.100D+01
 Coeff:      0.100D+01
 Gap=     0.325 Goal=   None    Shift=    0.000
 GapD=    0.325 DampG=1.000 DampE=0.500 DampFc=0.5000 IDamp=-1.
 Damping current iteration by 5.00D-01
 RMSDP=7.87D-03 MaxDP=1.01D-01              OVMax= 1.69D-01

 Cycle   2  Pass 0  IDiag  1:
 E= -76.3779314392324     Delta-E=       -0.031647150716 Rises=F Damp=T
 DIIS: error= 1.16D-02 at cycle   2 NSaved=   2.
 NSaved= 2 IEnMin= 2 EnMin= -76.3779314392324     IErMin= 2 ErrMin= 1.16D-02
 ErrMax= 1.16D-02  0.00D+00 EMaxC= 1.00D-01 BMatC= 4.79D-03 BMatP= 1.21D-01
 IDIUse=3 WtCom= 8.84D-01 WtEn= 1.16D-01
 Coeff-Com:  0.808D-01 0.919D+00
 Coeff-En:   0.185D+00 0.815D+00
 Coeff:      0.929D-01 0.907D+00
 Gap=     0.458 Goal=   None    Shift=    0.000
 RMSDP=9.32D-04 MaxDP=1.38D-02 DE=-3.16D-02 OVMax= 1.01D-01

 Cycle   3  Pass 0  IDiag  1:
 E= -76.4219339518027     Delta-E=       -0.044002512570 Rises=F Damp=F
 DIIS: error= 2.17D-03 at cycle   3 NSaved=   3.
 NSaved= 3 IEnMin= 3 EnMin= -76.4219339518027     IErMin= 3 ErrMin= 2.17D-03
 ErrMax= 2.17D-03  0.00D+00 EMaxC= 1.00D-01 BMatC= 9.07D-05 BMatP= 4.79D-03
 IDIUse=3 WtCom= 9.78D-01 WtEn= 2.17D-02
 Coeff-Com: -0.199D-01 0.396D-01 0.980D+00
 Coeff-En:   0.000D+00 0.000D+00 0.100D+01
 Coeff:     -0.195D-01 0.388D-01 0.981D+00
 Gap=     0.463 Goal=   None    Shift=    0.000
 RMSDP=1.14D-04 MaxDP=1.01D-03 DE=-4.40D-02 OVMax= 3.29D-03

 Cycle   4  Pass 0  IDiag  1:
 E= -76.4220111118579     Delta-E=       -0.000077160055 Rises=F Damp=F
 DIIS: error= 4.09D-04 at cycle   4 NSaved=   4.
[...]
 ErrMax= 1.38D-08  0.00D+00 EMaxC= 1.00D-01 BMatC= 4.63D-15 BMatP= 3.35D-13
 IDIUse=1 WtCom= 1.00D+00 WtEn= 0.00D+00
 Coeff-Com: -0.156D-03 0.251D-02 0.275D-02-0.181D-01-0.899D-01 0.110D+01
 Coeff:     -0.156D-03 0.251D-02 0.275D-02-0.181D-01-0.899D-01 0.110D+01
 Gap=     0.461 Goal=   None    Shift=    0.000
 RMSDP=3.94D-09 MaxDP=3.06D-08 DE=-9.24D-13 OVMax= 8.86D-08

 SCF Done:  E(RM062X) =  -76.4207749752     A.U. after   11 cycles
            NFock= 11  Conv=0.39D-08     -V/T= 2.0032
 KE= 7.618005550632D+01 PE=-1.989699128288D+02 EE= 3.730733048742D+01
 Leave Link  502 at Mon Feb 20 08:34:11 2023, MaxMem=  6710886400 cpu:               8.6 elap:               0.4
 (Enter /data0/home/software/g16/l601.exe)
 Copying SCF densities to generalized density rwf, IOpCl= 0 IROHF=0.

 **********************************************************************

            Population analysis using the SCF density.

 **********************************************************************

 Alpha  occ. eigenvalues --  -19.62619  -1.13103  -0.60748  -0.47242  -0.39921
 Alpha virt. eigenvalues --    0.06153   0.13245   0.17398   0.17958   0.18969
 Alpha virt. eigenvalues --    0.23226   0.50026   0.53907   0.97754   1.00486
 Alpha virt. eigenvalues --    1.06031   1.19279   1.19577   1.32709   1.34079
 Alpha virt. eigenvalues --    1.68563   1.73504   1.75948   2.06050   2.10108
 Alpha virt. eigenvalues --    2.34246   2.43075   2.53902   2.87383   3.01073
 Alpha virt. eigenvalues --    5.05683   5.45996   5.91921   6.78138   6.80436
 Alpha virt. eigenvalues --    6.86841   6.91418   7.10014  49.95611
          Condensed to atoms (all electrons):
               4          5          6
     4  O    7.920032   0.324661   0.316715
     5  H    0.324661   0.422571  -0.024357
     6  H    0.316715  -0.024357   0.423359
 Mulliken charges:
               1
     1  O    0.000000
     2  H    0.000000
     3  H    0.000000
     4  O   -0.561407
     5  H    0.277125
     6  H    0.284282
     7  O    0.000000
     8  H    0.000000
     9  H    0.000000
 Sum of Mulliken charges =  -0.00000
 Mulliken charges with hydrogens summed into heavy atoms:
               1
     1  O    0.000000
     4  O   -0.000000
     7  O    0.000000
         Mulliken charges condensed to fragments:
      1      0.000000
      2     -0.000000
      3      0.000000
 Electronic spatial extent (au):  <R**2>=          15248.0868
 Charge=              0.0000 electrons
 Dipole moment (field-independent basis, Debye):
    X=              1.6085    Y=             -0.6145    Z=             -1.2087  Tot=              2.1038
 Quadrupole moment (field-independent basis, Debye-Ang):
   XX=             30.5167   YY=            -20.6227   ZZ=            -35.6376
   XY=             14.1892   XZ=              5.0802   YZ=            -21.3895
 Traceless Quadrupole moment (field-independent basis, Debye-Ang):
   XX=             39.0979   YY=            -12.0415   ZZ=            -27.0564
   XY=             14.1892   XZ=              5.0802   YZ=            -21.3895
 Octapole moment (field-independent basis, Debye-Ang**2):
  XXX=            418.0253  YYY=           -486.3983  ZZZ=           -757.9424  XYY=             44.0645
  XXY=            326.7721  XXZ=            199.8895  XZZ=           -184.9091  YZZ=           -508.5657
  YYZ=           -408.8299  XYZ=              4.7081
 Hexadecapole moment (field-independent basis, Debye-Ang**3):
 XXXX=           4791.7156 YYYY=          -9794.1025 ZZZZ=         -13953.3169 XXXY=           4752.1843
 XXXZ=           3082.3927 YYYX=          -1869.5240 YYYZ=          -7678.3624 ZZZX=          -6039.5358
 ZZZY=         -10094.1758 XXYY=           2729.5682 XXZZ=           -453.0312 YYZZ=          -7901.5244
 XXYZ=           1978.5314 YYXZ=          -1386.3941 ZZXY=          -2880.0903
 N-N= 9.061751859832D+00 E-N=-1.989699129490D+02  KE= 7.618005550632D+01
 No NMR shielding tensors so no spin-rotation constants.
 Leave Link  601 at Mon Feb 20 08:34:11 2023, MaxMem=  6710886400 cpu:               1.8 elap:               0.1
 (Enter /data0/home/software/g16/l122.exe)
 CPIOFr:  IOpCl= 0 IRwI=-1 IRwCP=  731 ICalc=  5 LCPTot=       22668 Len1MO=       57607 IndFrg=      368310
 Counterpoise: doing calculation for fragment   3 using the basis set of the fragment.
 Leave Link  122 at Mon Feb 20 08:34:11 2023, MaxMem=  6710886400 cpu:               0.1 elap:               0.0
 (Enter /data0/home/software/g16/l301.exe)
 Basis read from rwf:  (5D, 7F)
 No pseudopotential information found on rwf file.
    39 basis functions,    58 primitive gaussians,    41 cartesian basis functions
     5 alpha electrons        5 beta electrons
       nuclear repulsion energy         9.1242575124 Hartrees.
 IExCor= 4336 DFT=T Ex+Corr=M062X ExCW=0 ScaHFX=  0.540000
 ScaDFX=  1.000000  1.000000  1.000000  1.000000 ScalE2=  1.000000  1.000000
 IRadAn=      5 IRanWt=     -1 IRanGd=            0 ICorTp=0 IEmpDi=131
 NAtoms=    9 NActive=    3 NUniq=    3 SFac= 1.00D+00 NAtFMM=   60 NAOKFM=F Big=F
 Integral buffers will be    131072 words long.
 Raffenetti 2 integral format.
 Two-electron integral symmetry is turned off.
 R6Disp:  Grimme-D3 Dispersion energy=       -0.0000000075 Hartrees.
 Nuclear repulsion after empirical dispersion term =        9.1242575049 Hartrees.
 No density basis found on file   718.
 Leave Link  301 at Mon Feb 20 08:34:11 2023, MaxMem=  6710886400 cpu:               1.3 elap:               0.1
 (Enter /data0/home/software/g16/l302.exe)
 NPDir=0 NMtPBC=     1 NCelOv=     1 NCel=       1 NClECP=     1 NCelD=      1
         NCelK=      1 NCelE2=     1 NClLst=     1 CellRange=     0.0.
 One-electron integrals computed using PRISM.
 NBasis=    39 RedAO= T EigKep=  3.01D-03  NBF=    39
 NBsUse=    39 1.00D-06 EigRej= -1.00D+00 NBFU=    39
 Precomputing XC quadrature grid using
 IXCGrd= 4 IRadAn=           5 IRanWt=          -1 IRanGd=           0 AccXCQ= 0.00D+00.
 Generated NRdTot=       0 NPtTot=           0 NUsed=           0 NTot=          32
 NSgBfM=    41    41    41    41    41 MxSgAt=     3 MxSgA2=     3.
 Leave Link  302 at Mon Feb 20 08:34:11 2023, MaxMem=  6710886400 cpu:               2.3 elap:               0.1
 (Enter /data0/home/software/g16/l303.exe)
 DipDrv:  MaxL=1.
 Leave Link  303 at Mon Feb 20 08:34:11 2023, MaxMem=  6710886400 cpu:               0.4 elap:               0.0
 (Enter /data0/home/software/g16/l401.exe)
 ExpMin= 8.45D-02 ExpMax= 8.59D+03 ExpMxC= 1.30D+03 IAcc=3 IRadAn=         5 AccDes= 0.00D+00
 Harris functional with IExCor= 1009 and IRadAn=       5 diagonalized for initial guess.
 HarFok:  IExCor= 1009 AccDes= 0.00D+00 IRadAn=         5 IDoV= 1 UseB2=F ITyADJ=14
 ICtDFT=  3500011 ScaDFX=  1.000000  1.000000  1.000000  1.000000
 FoFCou: FMM=F IPFlag=           0 FMFlag=      100000 FMFlg1=           0
         NFxFlg=           0 DoJE=T BraDBF=F KetDBF=T FulRan=T
         wScrn=  0.000000 ICntrl=       500 IOpCl=  0 I1Cent=   200000004 NGrid=           0
         NMat0=    1 NMatS0=      1 NMatT0=    0 NMatD0=    1 NMtDS0=    0 NMtDT0=    0
 Symmetry not used in FoFCou.
 Harris En= -76.4167491470890    
 JPrj=0 DoOrth=F DoCkMO=F.
 Leave Link  401 at Mon Feb 20 08:34:11 2023, MaxMem=  6710886400 cpu:               2.9 elap:               0.1
 (Enter /data0/home/software/g16/l502.exe)
 Keep R1 ints in memory in canonical form, NReq=21036630.
 FoFCou: FMM=F IPFlag=           0 FMFlag=           0 FMFlg1=           0
         NFxFlg=           0 DoJE=F BraDBF=F KetDBF=F FulRan=T
         wScrn=  0.000000 ICntrl=       600 IOpCl=  0 I1Cent=           0 NGrid=           0
         NMat0=    1 NMatS0=    780 NMatT0=    0 NMatD0=    1 NMtDS0=    0 NMtDT0=    0
 Symmetry not used in FoFCou.
 Two-electron integral symmetry not used.
 Closed shell SCF:
 Using DIIS extrapolation, IDIIS=  1040.
 NGot=  6710886400 LenX=  6710576844 LenY=  6710574722
 Requested convergence on RMS density matrix=1.00D-08 within 128 cycles.
 Requested convergence on MAX density matrix=1.00D-06.
 Requested convergence on             energy=1.00D-06.
 No special actions if energy rises.
 Integral accuracy reduced to 1.0D-05 until final iterations.

 Cycle   1  Pass 0  IDiag  1:
 E= -76.3462015995642    
 DIIS: error= 7.04D-02 at cycle   1 NSaved=   1.
 NSaved= 1 IEnMin= 1 EnMin= -76.3462015995642     IErMin= 1 ErrMin= 7.04D-02
 ErrMax= 7.04D-02  0.00D+00 EMaxC= 1.00D-01 BMatC= 1.21D-01 BMatP= 1.21D-01
 IDIUse=3 WtCom= 2.96D-01 WtEn= 7.04D-01
 Coeff-Com:  0.100D+01
 Coeff-En:   0.100D+01
 Coeff:      0.100D+01
 Gap=     0.325 Goal=   None    Shift=    0.000
 GapD=    0.325 DampG=1.000 DampE=0.500 DampFc=0.5000 IDamp=-1.
 Damping current iteration by 5.00D-01
 RMSDP=7.92D-03 MaxDP=1.01D-01              OVMax= 1.68D-01

 Cycle   2  Pass 0  IDiag  1:
 E= -76.3777999574492     Delta-E=       -0.031598357885 Rises=F Damp=T
 DIIS: error= 1.15D-02 at cycle   2 NSaved=   2.
 NSaved= 2 IEnMin= 2 EnMin= -76.3777999574492     IErMin= 2 ErrMin= 1.15D-02
 ErrMax= 1.15D-02  0.00D+00 EMaxC= 1.00D-01 BMatC= 4.80D-03 BMatP= 1.21D-01
 IDIUse=3 WtCom= 8.85D-01 WtEn= 1.15D-01
 Coeff-Com:  0.812D-01 0.919D+00
 Coeff-En:   0.186D+00 0.814D+00
 Coeff:      0.932D-01 0.907D+00
 Gap=     0.458 Goal=   None    Shift=    0.000
 RMSDP=9.37D-04 MaxDP=1.39D-02 DE=-3.16D-02 OVMax= 1.00D-01

 Cycle   3  Pass 0  IDiag  1:
 E= -76.4217779438816     Delta-E=       -0.043977986432 Rises=F Damp=F
 DIIS: error= 2.16D-03 at cycle   3 NSaved=   3.
 NSaved= 3 IEnMin= 3 EnMin= -76.4217779438816     IErMin= 3 ErrMin= 2.16D-03
 ErrMax= 2.16D-03  0.00D+00 EMaxC= 1.00D-01 BMatC= 9.03D-05 BMatP= 4.80D-03
 IDIUse=3 WtCom= 9.78D-01 WtEn= 2.16D-02
 Coeff-Com: -0.199D-01 0.392D-01 0.981D+00
 Coeff-En:   0.000D+00 0.000D+00 0.100D+01
 Coeff:     -0.195D-01 0.383D-01 0.981D+00
 Gap=     0.462 Goal=   None    Shift=    0.000
 RMSDP=1.14D-04 MaxDP=1.02D-03 DE=-4.40D-02 OVMax= 3.29D-03

 Cycle   4  Pass 0  IDiag  1:
 E= -76.4218548841875     Delta-E=       -0.000076940306 Rises=F Damp=F
 DIIS: error= 4.09D-04 at cycle   4 NSaved=   4.
 NSaved= 4 IEnMin= 4 EnMin= -76.4218548841875     IErMin= 4 ErrMin= 4.09D-04
 ErrMax= 4.09D-04  0.00D+00 EMaxC= 1.00D-01 BMatC= 3.24D-06 BMatP= 9.03D-05
 IDIUse=3 WtCom= 9.96D-01 WtEn= 4.09D-03
 Coeff-Com: -0.186D-02-0.222D-02 0.162D+00 0.843D+00
 Coeff-En:   0.000D+00 0.000D+00 0.000D+00 0.100D+01
 Coeff:     -0.185D-02-0.221D-02 0.161D+00 0.843D+00
 Gap=     0.463 Goal=   None    Shift=    0.000
 RMSDP=2.20D-05 MaxDP=3.52D-04 DE=-7.69D-05 OVMax= 5.30D-04

 Cycle   5  Pass 0  IDiag  1:
 E= -76.4218568819275     Delta-E=       -0.000001997740 Rises=F Damp=F
 DIIS: error= 8.77D-05 at cycle   5 NSaved=   5.
 NSaved= 5 IEnMin= 5 EnMin= -76.4218568819275     IErMin= 5 ErrMin= 8.77D-05
 ErrMax= 8.77D-05  0.00D+00 EMaxC= 1.00D-01 BMatC= 8.12D-08 BMatP= 3.24D-06
 IDIUse=1 WtCom= 1.00D+00 WtEn= 0.00D+00
 Coeff-Com:  0.117D-02-0.178D-02-0.363D-01-0.636D-01 0.110D+01
 Coeff:      0.117D-02-0.178D-02-0.363D-01-0.636D-01 0.110D+01
 Gap=     0.463 Goal=   None    Shift=    0.000
 RMSDP=8.87D-06 MaxDP=1.02D-04 DE=-2.00D-06 OVMax= 1.99D-04

 Initial convergence to 1.0D-05 achieved.  Increase integral accuracy.
 Cycle   6  Pass 1  IDiag  1:
 E= -76.4218595964223     Delta-E=       -0.000002714495 Rises=F Damp=F
 DIIS: error= 3.12D-05 at cycle   1 NSaved=   1.
 NSaved= 1 IEnMin= 1 EnMin= -76.4218595964223     IErMin= 1 ErrMin= 3.12D-05
 ErrMax= 3.12D-05  0.00D+00 EMaxC= 1.00D-01 BMatC= 1.66D-08 BMatP= 1.66D-08
 IDIUse=1 WtCom= 1.00D+00 WtEn= 0.00D+00
 Coeff-Com:  0.100D+01
 Coeff:      0.100D+01
 Gap=     0.463 Goal=   None    Shift=    0.000
 RMSDP=8.87D-06 MaxDP=1.02D-04 DE=-2.71D-06 OVMax= 3.35D-05

 Cycle   7  Pass 1  IDiag  1:
 E= -76.4218596094444     Delta-E=       -0.000000013022 Rises=F Damp=F
 DIIS: error= 8.18D-06 at cycle   2 NSaved=   2.
 NSaved= 2 IEnMin= 2 EnMin= -76.4218596094444     IErMin= 2 ErrMin= 8.18D-06
 ErrMax= 8.18D-06  0.00D+00 EMaxC= 1.00D-01 BMatC= 9.79D-10 BMatP= 1.66D-08
 IDIUse=1 WtCom= 1.00D+00 WtEn= 0.00D+00
 Coeff-Com:  0.234D-01 0.977D+00
 Coeff:      0.234D-01 0.977D+00
 Gap=     0.463 Goal=   None    Shift=    0.000
 RMSDP=6.90D-07 MaxDP=1.02D-05 DE=-1.30D-08 OVMax= 1.90D-05

 Cycle   8  Pass 1  IDiag  1:
 E= -76.4218596095739     Delta-E=       -0.000000000129 Rises=F Damp=F
 DIIS: error= 6.51D-06 at cycle   3 NSaved=   3.
 NSaved= 3 IEnMin= 3 EnMin= -76.4218596095739     IErMin= 3 ErrMin= 6.51D-06
 ErrMax= 6.51D-06  0.00D+00 EMaxC= 1.00D-01 BMatC= 1.03D-09 BMatP= 9.79D-10
 IDIUse=1 WtCom= 1.00D+00 WtEn= 0.00D+00
 Coeff-Com: -0.483D-01 0.527D+00 0.522D+00
 Coeff:     -0.483D-01 0.527D+00 0.522D+00
 Gap=     0.463 Goal=   None    Shift=    0.000
 RMSDP=3.56D-07 MaxDP=5.13D-06 DE=-1.29D-10 OVMax= 7.72D-06

 Cycle   9  Pass 1  IDiag  1:
 E= -76.4218596102473     Delta-E=       -0.000000000673 Rises=F Damp=F
 DIIS: error= 4.98D-07 at cycle   4 NSaved=   4.
 NSaved= 4 IEnMin= 4 EnMin= -76.4218596102473     IErMin= 4 ErrMin= 4.98D-07
 ErrMax= 4.98D-07  0.00D+00 EMaxC= 1.00D-01 BMatC= 2.62D-12 BMatP= 9.79D-10
 IDIUse=1 WtCom= 1.00D+00 WtEn= 0.00D+00
 Coeff-Com:  0.600D-02-0.100D+00-0.619D-01 0.116D+01
 Coeff:      0.600D-02-0.100D+00-0.619D-01 0.116D+01
 Gap=     0.463 Goal=   None    Shift=    0.000
 RMSDP=7.54D-08 MaxDP=6.24D-07 DE=-6.73D-10 OVMax= 1.77D-06

 Cycle  10  Pass 1  IDiag  1:
 E= -76.4218596102532     Delta-E=       -0.000000000006 Rises=F Damp=F
 DIIS: error= 5.41D-08 at cycle   5 NSaved=   5.
 NSaved= 5 IEnMin= 5 EnMin= -76.4218596102532     IErMin= 5 ErrMin= 5.41D-08
 ErrMax= 5.41D-08  0.00D+00 EMaxC= 1.00D-01 BMatC= 7.92D-14 BMatP= 2.62D-12
 IDIUse=1 WtCom= 1.00D+00 WtEn= 0.00D+00
 Coeff-Com:  0.166D-02-0.201D-01-0.205D-01 0.316D-01 0.101D+01
 Coeff:      0.166D-02-0.201D-01-0.205D-01 0.316D-01 0.101D+01
 Gap=     0.463 Goal=   None    Shift=    0.000
 RMSDP=1.66D-08 MaxDP=1.65D-07 DE=-5.91D-12 OVMax= 3.28D-07

 Cycle  11  Pass 1  IDiag  1:
 E= -76.4218596102531     Delta-E=        0.000000000000 Rises=F Damp=F
 DIIS: error= 9.00D-09 at cycle   6 NSaved=   6.
 NSaved= 6 IEnMin= 5 EnMin= -76.4218596102532     IErMin= 6 ErrMin= 9.00D-09
 ErrMax= 9.00D-09  0.00D+00 EMaxC= 1.00D-01 BMatC= 4.40D-15 BMatP= 7.92D-14
 IDIUse=1 WtCom= 1.00D+00 WtEn= 0.00D+00
 Coeff-Com: -0.170D-03 0.334D-02 0.129D-02-0.534D-01 0.922D-01 0.957D+00
 Coeff:     -0.170D-03 0.334D-02 0.129D-02-0.534D-01 0.922D-01 0.957D+00
 Gap=     0.463 Goal=   None    Shift=    0.000
 RMSDP=3.19D-09 MaxDP=3.54D-08 DE= 8.53D-14 OVMax= 6.67D-08

 SCF Done:  E(RM062X) =  -76.4218596103     A.U. after   11 cycles
            NFock= 11  Conv=0.32D-08     -V/T= 2.0029
 KE= 7.620368105210D+01 PE=-1.991028629700D+02 EE= 3.735306480279D+01
 Leave Link  502 at Mon Feb 20 08:34:12 2023, MaxMem=  6710886400 cpu:               8.8 elap:               0.4
 (Enter /data0/home/software/g16/l601.exe)
 Copying SCF densities to generalized density rwf, IOpCl= 0 IROHF=0.

 **********************************************************************

            Population analysis using the SCF density.

 **********************************************************************

 Alpha  occ. eigenvalues --  -19.62572  -1.13451  -0.60833  -0.47550  -0.40005
 Alpha virt. eigenvalues --    0.06312   0.13360   0.17391   0.17944   0.18934
 Alpha virt. eigenvalues --    0.23282   0.51279   0.53600   0.97894   1.00178
 Alpha virt. eigenvalues --    1.06035   1.18391   1.20010   1.32384   1.33774
 Alpha virt. eigenvalues --    1.69966   1.74267   1.75776   2.07925   2.09467
 Alpha virt. eigenvalues --    2.35782   2.41601   2.54599   2.88680   3.01571
 Alpha virt. eigenvalues --    5.05691   5.48417   5.93207   6.78306   6.80198
 Alpha virt. eigenvalues --    6.87152   6.91514   7.09350  49.96039
          Condensed to atoms (all electrons):
               7          8          9
     7  O    7.913972   0.322189   0.319486
     8  H    0.322189   0.425683  -0.024480
     9  H    0.319486  -0.024480   0.425955
 Mulliken charges:
               1
     1  O    0.000000
     2  H    0.000000
     3  H    0.000000
     4  O    0.000000
     5  H    0.000000
     6  H    0.000000
     7  O   -0.555647
     8  H    0.276607
     9  H    0.279040
 Sum of Mulliken charges =   0.00000
 Mulliken charges with hydrogens summed into heavy atoms:
               1
     1  O    0.000000
     4  O    0.000000
     7  O    0.000000
         Mulliken charges condensed to fragments:
      1      0.000000
      2      0.000000
      3      0.000000
 Electronic spatial extent (au):  <R**2>=           6186.9215
 Charge=              0.0000 electrons
 Dipole moment (field-independent basis, Debye):
    X=              1.3411    Y=             -0.1723    Z=             -1.6280  Tot=              2.1163
 Quadrupole moment (field-independent basis, Debye-Ang):
   XX=             12.5077   YY=             -7.2053   ZZ=            -33.3376
   XY=              9.4037   XZ=             -1.4704   YZ=            -12.9180
 Traceless Quadrupole moment (field-independent basis, Debye-Ang):
   XX=             21.8527   YY=              2.1398   ZZ=            -23.9925
   XY=              9.4037   XZ=             -1.4704   YZ=            -12.9180
 Octapole moment (field-independent basis, Debye-Ang**2):
  XXX=             61.5527  YYY=           -131.2029  ZZZ=           -491.2498  XYY=             32.7078
  XXY=             94.7329  XXZ=              7.4657  XZZ=           -162.0137  YZZ=           -249.3079
  YYZ=           -140.9447  XYZ=            -11.3759
 Hexadecapole moment (field-independent basis, Debye-Ang**3):
 XXXX=           -122.7077 YYYY=          -1802.1276 ZZZZ=          -6261.1689 XXXY=            519.3224
 XXXZ=           -218.0190 YYYX=           -271.9666 YYYZ=          -1662.4911 ZZZX=          -2946.0945
 ZZZY=          -3618.6473 XXYY=            480.5837 XXZZ=          -1064.0263 YYZZ=          -2191.3313
 XXYZ=             99.1538 YYXZ=           -364.2434 ZZXY=          -1171.3768
 N-N= 9.124257504866D+00 E-N=-1.991028629341D+02  KE= 7.620368105210D+01
 No NMR shielding tensors so no spin-rotation constants.
 Leave Link  601 at Mon Feb 20 08:34:12 2023, MaxMem=  6710886400 cpu:               1.6 elap:               0.1
 (Enter /data0/home/software/g16/l122.exe)
 CPIOFr:  IOpCl= 0 IRwI=-1 IRwCP=  731 ICalc=  6 LCPTot=       22668 Len1MO=       57607 IndFrg=      425917
 Restoring MOs from calculation   1 to rwf.
 CPIOFr:  IOpCl= 0 IRwI=-2 IRwCP=  731 ICalc=  0 LCPTot=       22668 Len1MO=       57607 IndFrg=       80275
 Counterpoise corrected energy =    -229.269691965452
                   BSSE energy =       0.001065659402
              sum of fragments =    -229.264641598817
           complexation energy =      -3.84 kcal/mole (raw)
           complexation energy =      -3.17 kcal/mole (corrected)
 Leave Link  122 at Mon Feb 20 08:34:12 2023, MaxMem=  6710886400 cpu:               0.1 elap:               0.0
 (Enter /data0/home/software/g16/l9999.exe)
 1\1\GINC-LOCALHOST\SP\RM062X\6-311+G(2d,p)\H6O3\WUHANYU\20-Feb-2023\0\
 \#p M062X/6-311+G(2d,p) nosymm em=GD3 counterpoise=3\\Title Card Requi
 red\\0,1\O,0,8.470898,6.876046,10.718795\H,0,9.368435,7.199403,10.5645
 88\H,0,8.023076,6.969913,9.871807\O,0,11.315486,12.544952,11.888769\H,
 0,12.130073,13.012322,11.758161\H,0,11.395056,11.720235,11.337715\O,0,
 7.173737,7.353745,8.215462\H,0,7.341317,6.581196,7.676528\H,0,7.759569
 ,8.034842,7.842249\\Version=ES64L-G16RevA.03\HF=-76.4218596\RMSD=3.192
 e-09\Dipole=1.3364261,0.0181317,-2.0161673\Quadrupole=58.9869056,7.185
 5821,-66.1724877,25.488016,-7.0901842,-30.914058\PG=C01 [X(H6O3)]\\@


 TRUTH, IN SCIENCE, CAN BE DEFINED AS THE WORKING HYPOTHESIS 
 BEST FITTED TO OPEN THE WAY TO THE NEXT BETTER ONE.

                              -- KONRAD LORENZ
 Job cpu time:       0 days  0 hours  3 minutes 49.1 seconds.
 Elapsed time:       0 days  0 hours  0 minutes 11.9 seconds.
 File lengths (MBytes):  RWF=     15 Int=      0 D2E=      0 Chk=      5 Scr=      1
 Normal termination of Gaussian 16 at Mon Feb 20 08:34:12 2023.
