 Entering Gaussian System, Link 0=g16
 Initial command:
 /data0/home/software/g16/l1.exe "/data0/home/software/g16/scratch/Gau-2486482.inp" -scrdir="/data0/home/software/g16/scratch/"
 Default is to use a total of  22 processors:
                               22 via shared-memory
                                1 via Linda
 Entering Link 1 = /data0/home/software/g16/l1.exe PID=   2486483.
  
 Copyright (c) 1988,1990,1992,1993,1995,1998,2003,2009,2016,
            Gaussian, Inc.  All Rights Reserved.
  
 This is part of the Gaussian(R) 16 program.  It is based on
 the Gaussian(R) 09 system (copyright 2009, Gaussian, Inc.),
 the Gaussian(R) 03 system (copyright 2003, Gaussian, Inc.),
 the Gaussian(R) 98 system (copyright 1998, Gaussian, Inc.),
 the Gaussian(R) 94 system (copyright 1995, Gaussian, Inc.),
 the Gaussian 92(TM) system (copyright 1992, Gaussian, Inc.),
 the Gaussian 90(TM) system (copyright 1990, Gaussian, Inc.),
 the Gaussian 88(TM) system (copyright 1988, Gaussian, Inc.),
 the Gaussian 86(TM) system (copyright 1986, Carnegie Mellon
 University), and the Gaussian 82(TM) system (copyright 1983,
 Carnegie Mellon University). Gaussian is a federally registered
 trademark of Gaussian, Inc.
  
 This software contains proprietary and confidential information,
 including trade secrets, belonging to Gaussian, Inc.
  
 This software is provided under written license and may be
 used, copied, transmitted, or stored only in accord with that
 written license.
  
 The following legend is applicable only to US Government
 contracts under FAR:
  
                    RESTRICTED RIGHTS LEGEND
  
 Use, reproduction and disclosure by the US Government is
 subject to restrictions as set forth in subparagraphs (a)
 and (c) of the Commercial Computer Software - Restricted
 Rights clause in FAR 52.227-19.
  
 Gaussian, Inc.
 340 Quinnipiac St., Bldg. 40, Wallingford CT 06492
  
  
 ---------------------------------------------------------------
 Warning -- This program may not be used in any manner that
 competes with the business of Gaussian, Inc. or will provide
 assistance to any competitor of Gaussian, Inc.  The licensee
 of this program is prohibited from giving any competitor of
 Gaussian, Inc. access to this program.  By using this program,
 the user acknowledges that Gaussian, Inc. is engaged in the
 business of creating and licensing software in the field of
 computational chemistry and represents and warrants to the
 licensee that it is not a competitor of Gaussian, Inc. and that
 it will not use this program in any manner prohibited above.
 ---------------------------------------------------------------
  

 Cite this work as:
 Gaussian 16, Revision A.03,
 M. J. Frisch, G. W. Trucks, H. B. Schlegel, G. E. Scuseria, 
 M. A. Robb, J. R. Cheeseman, G. Scalmani, V. Barone, 
 G. A. Petersson, H. Nakatsuji, X. Li, M. Caricato, A. V. Marenich, 
 J. Bloino, B. G. Janesko, R. Gomperts, B. Mennucci, H. P. Hratchian, 
 J. V. Ortiz, A. F. Izmaylov, J. L. Sonnenberg, D. Williams-Young, 
 F. Ding, F. Lipparini, F. Egidi, J. Goings, B. Peng, A. Petrone, 
 T. Henderson, D. Ranasinghe, V. G. Zakrzewski, J. Gao, N. Rega, 
 G. Zheng, W. Liang, M. Hada, M. Ehara, K. Toyota, R. Fukuda, 
 J. Hasegawa, M. Ishida, T. Nakajima, Y. Honda, O. Kitao, H. Nakai, 
 T. Vreven, K. Throssell, J. A. Montgomery, Jr., J. E. Peralta, 
 F. Ogliaro, M. J. Bearpark, J. J. Heyd, E. N. Brothers, K. N. Kudin, 
 V. N. Staroverov, T. A. Keith, R. Kobayashi, J. Normand, 
 K. Raghavachari, A. P. Rendell, J. C. Burant, S. S. Iyengar, 
 J. Tomasi, M. Cossi, J. M. Millam, M. Klene, C. Adamo, R. Cammi, 
 J. W. Ochterski, R. L. Martin, K. Morokuma, O. Farkas, 
 J. B. Foresman, and D. J. Fox, Gaussian, Inc., Wallingford CT, 2016.
 
 ******************************************
 Gaussian 16:  ES64L-G16RevA.03 25-Dec-2016
                11-Oct-2023 
 ******************************************
 %nprocshared=24
 Will use up to   24 processors via shared memory.
 %mem=50GB
 ----------------------------------------
 #p opt freq b3lyp/6-311+g(2d,p) em=gd3bj
 ----------------------------------------
 1/18=20,19=15,26=3,38=1/1,3;
 2/9=110,12=2,17=6,18=5,40=1/2;
 3/5=4,6=6,7=112,11=2,25=1,30=1,71=1,74=-5,124=41/1,2,3;
 4//1;
 5/5=2,38=5/2;
 6/7=2,8=2,9=2,10=2,28=1/1;
 7//1,2,3,16;
 1/18=20,19=15,26=3/3(2);
 2/9=110/2;
 99//99;
 2/9=110/2;
 3/5=4,6=6,7=112,11=2,25=1,30=1,71=1,74=-5,124=41/1,2,3;
 4/5=5,16=3,69=1/1;
 5/5=2,38=5/2;
 7//1,2,3,16;
 1/18=20,19=15,26=3/3(-5);
 2/9=110/2;
 6/7=2,8=2,9=2,10=2,19=2,28=1/1;
 99/9=1/99;
 Leave Link    1 at Wed Oct 11 11:55:17 2023, MaxMem=  6710886400 cpu:               0.6 elap:               0.0
 (Enter /data0/home/software/g16/l101.exe)
 -------------------
 Title Card Required
 -------------------
 Symbolic Z-matrix:
 Charge =  0 Multiplicity = 1
 C                    -1.14023  -0.72016  -0.0002 
 C                    -1.19428   0.67067  -0.00012 
 C                     0.00001   1.38075   0.00009 
 C                     1.19429   0.67065   0.00021 
 C                     1.14022  -0.72017   0.0001 
 N                    -0.00001  -1.41488  -0.00009 
 H                     0.00001   2.46447   0.00017 
 H                    -2.0554   -1.30454  -0.00037 
 H                    -2.15056   1.1792   -0.00022 
 H                     2.15058   1.17917   0.00038 
 H                     2.05538  -1.30457   0.0002 
 
 ITRead=  0  0  0  0  0  0  0  0  0  0  0
 MicOpt= -1 -1 -1 -1 -1 -1 -1 -1 -1 -1 -1
 NAtoms=     11 NQM=       11 NQMF=       0 NMMI=      0 NMMIF=      0
                NMic=       0 NMicF=      0.
                    Isotopes and Nuclear Properties:
 (Nuclear quadrupole moments (NQMom) in fm**2, nuclear magnetic moments (NMagM)
  in nuclear magnetons)

  Atom         1           2           3           4           5           6           7           8           9          10
 IAtWgt=          12          12          12          12          12          14           1           1           1           1
 AtmWgt=  12.0000000  12.0000000  12.0000000  12.0000000  12.0000000  14.0030740   1.0078250   1.0078250   1.0078250   1.0078250
 NucSpn=           0           0           0           0           0           2           1           1           1           1
 AtZEff=  -0.0000000  -0.0000000  -0.0000000  -0.0000000  -0.0000000  -0.0000000  -0.0000000  -0.0000000  -0.0000000  -0.0000000
 NQMom=    0.0000000   0.0000000   0.0000000   0.0000000   0.0000000   2.0440000   0.0000000   0.0000000   0.0000000   0.0000000
 NMagM=    0.0000000   0.0000000   0.0000000   0.0000000   0.0000000   0.4037610   2.7928460   2.7928460   2.7928460   2.7928460
 AtZNuc=   6.0000000   6.0000000   6.0000000   6.0000000   6.0000000   7.0000000   1.0000000   1.0000000   1.0000000   1.0000000

  Atom        11
 IAtWgt=           1
 AtmWgt=   1.0078250
 NucSpn=           1
 AtZEff=  -0.0000000
 NQMom=    0.0000000
 NMagM=    2.7928460
 AtZNuc=   1.0000000
 Leave Link  101 at Wed Oct 11 11:55:18 2023, MaxMem=  6710886400 cpu:               7.7 elap:               0.3
 (Enter /data0/home/software/g16/l103.exe)

 GradGradGradGradGradGradGradGradGradGradGradGradGradGradGradGradGradGrad
 Berny optimization.
 Initialization pass.
                           ----------------------------
                           !    Initial Parameters    !
                           ! (Angstroms and Degrees)  !
 --------------------------                            --------------------------
 ! Name  Definition              Value          Derivative Info.                !
 --------------------------------------------------------------------------------
 ! R1    R(1,2)                  1.3919         estimate D2E/DX2                !
 ! R2    R(1,6)                  1.3352         estimate D2E/DX2                !
 ! R3    R(1,8)                  1.0858         estimate D2E/DX2                !
 ! R4    R(2,3)                  1.3894         estimate D2E/DX2                !
 ! R5    R(2,9)                  1.0831         estimate D2E/DX2                !
 ! R6    R(3,4)                  1.3894         estimate D2E/DX2                !
 ! R7    R(3,7)                  1.0837         estimate D2E/DX2                !
 ! R8    R(4,5)                  1.3919         estimate D2E/DX2                !
 ! R9    R(4,10)                 1.0831         estimate D2E/DX2                !
 ! R10   R(5,6)                  1.3352         estimate D2E/DX2                !
 ! R11   R(5,11)                 1.0858         estimate D2E/DX2                !
 ! A1    A(2,1,6)              123.5785         estimate D2E/DX2                !
 ! A2    A(2,1,8)              120.3349         estimate D2E/DX2                !
 ! A3    A(6,1,8)              116.0866         estimate D2E/DX2                !
 ! A4    A(1,2,3)              118.5091         estimate D2E/DX2                !
 ! A5    A(1,2,9)              120.2287         estimate D2E/DX2                !
 ! A6    A(3,2,9)              121.2622         estimate D2E/DX2                !
 ! A7    A(2,3,4)              118.5305         estimate D2E/DX2                !
 ! A8    A(2,3,7)              120.7343         estimate D2E/DX2                !
 ! A9    A(4,3,7)              120.7352         estimate D2E/DX2                !
 ! A10   A(3,4,5)              118.5091         estimate D2E/DX2                !
 ! A11   A(3,4,10)             121.2629         estimate D2E/DX2                !
 ! A12   A(5,4,10)             120.228          estimate D2E/DX2                !
 ! A13   A(4,5,6)              123.5785         estimate D2E/DX2                !
 ! A14   A(4,5,11)             120.3351         estimate D2E/DX2                !
 ! A15   A(6,5,11)             116.0864         estimate D2E/DX2                !
 ! A16   A(1,6,5)              117.2943         estimate D2E/DX2                !
 ! D1    D(6,1,2,3)             -0.0006         estimate D2E/DX2                !
 ! D2    D(6,1,2,9)            179.9994         estimate D2E/DX2                !
 ! D3    D(8,1,2,3)           -179.9997         estimate D2E/DX2                !
 ! D4    D(8,1,2,9)              0.0003         estimate D2E/DX2                !
 ! D5    D(2,1,6,5)              0.0001         estimate D2E/DX2                !
 ! D6    D(8,1,6,5)            179.9992         estimate D2E/DX2                !
 ! D7    D(1,2,3,4)              0.0002         estimate D2E/DX2                !
 ! D8    D(1,2,3,7)           -179.9992         estimate D2E/DX2                !
 ! D9    D(9,2,3,4)           -179.9998         estimate D2E/DX2                !
 ! D10   D(9,2,3,7)              0.0008         estimate D2E/DX2                !
 ! D11   D(2,3,4,5)              0.0006         estimate D2E/DX2                !
 ! D12   D(2,3,4,10)          -179.9997         estimate D2E/DX2                !
 ! D13   D(7,3,4,5)           -180.0            estimate D2E/DX2                !
 ! D14   D(7,3,4,10)            -0.0003         estimate D2E/DX2                !
 ! D15   D(3,4,5,6)             -0.0012         estimate D2E/DX2                !
 ! D16   D(3,4,5,11)          -179.9992         estimate D2E/DX2                !
 ! D17   D(10,4,5,6)           179.9991         estimate D2E/DX2                !
 ! D18   D(10,4,5,11)            0.0011         estimate D2E/DX2                !
 ! D19   D(4,5,6,1)              0.0008         estimate D2E/DX2                !
 ! D20   D(11,5,6,1)           179.9989         estimate D2E/DX2                !
 --------------------------------------------------------------------------------
 Trust Radius=3.00D-01 FncErr=1.00D-07 GrdErr=1.00D-06 EigMax=2.50D+02 EigMin=1.00D-04
 Number of steps in this run=     57 maximum allowed number of steps=    100.
 GradGradGradGradGradGradGradGradGradGradGradGradGradGradGradGradGradGrad

 Leave Link  103 at Wed Oct 11 11:55:18 2023, MaxMem=  6710886400 cpu:               0.2 elap:               0.0
 (Enter /data0/home/software/g16/l202.exe)
                          Input orientation:                          
 ---------------------------------------------------------------------
 Center     Atomic      Atomic             Coordinates (Angstroms)
 Number     Number       Type             X           Y           Z
 ---------------------------------------------------------------------
      1          6           0       -1.140232   -0.720161   -0.000198
      2          6           0       -1.194278    0.670666   -0.000121
      3          6           0        0.000009    1.380752    0.000090
      4          6           0        1.194286    0.670653    0.000210
      5          6           0        1.140224   -0.720173    0.000100
      6          7           0       -0.000009   -1.414878   -0.000092
      7          1           0        0.000007    2.464465    0.000169
      8          1           0       -2.055401   -1.304541   -0.000367
      9          1           0       -2.150560    1.179203   -0.000224
     10          1           0        2.150581    1.179167    0.000380
     11          1           0        2.055383   -1.304566    0.000202
 ---------------------------------------------------------------------
                    Distance matrix (angstroms):
                    1          2          3          4          5
     1  C    0.000000
     2  C    1.391877   0.000000
     3  C    2.390394   1.389440   0.000000
     4  C    2.717414   2.388564   1.389438   0.000000
     5  C    2.280456   2.717413   2.390392   1.391876   0.000000
     6  N    1.335193   2.403284   2.795630   2.403285   1.335195
     7  H    3.382601   2.155002   1.083713   2.155009   3.382605
     8  H    1.085833   2.154757   3.381643   3.802875   3.248616
     9  H    2.151359   1.083091   2.159993   3.383285   3.799591
    10  H    3.799592   3.383291   2.159999   1.083091   2.151352
    11  H    3.248613   3.802872   3.381641   2.154757   1.085832
                    6          7          8          9         10
     6  N    0.000000
     7  H    3.879343   0.000000
     8  H    2.058351   4.293030   0.000000
     9  H    3.369588   2.505362   2.485566   0.000000
    10  H    3.369586   2.505386   4.884577   4.301141   0.000000
    11  H    2.058350   4.293037   4.110784   4.884574   2.485557
                   11
    11  H    0.000000
 Stoichiometry    C5H5N
 Framework group  C1[X(C5H5N)]
 Deg. of freedom    27
 Full point group                 C1      NOp   1
 Largest Abelian subgroup         C1      NOp   1
 Largest concise Abelian subgroup C1      NOp   1
                         Standard orientation:                         
 ---------------------------------------------------------------------
 Center     Atomic      Atomic             Coordinates (Angstroms)
 Number     Number       Type             X           Y           Z
 ---------------------------------------------------------------------
      1          6           0        1.140227    0.720169   -0.000198
      2          6           0        1.194283   -0.670657   -0.000121
      3          6           0        0.000001   -1.380752    0.000090
      4          6           0       -1.194281   -0.670661    0.000210
      5          6           0       -1.140229    0.720165    0.000100
      6          7           0       -0.000001    1.414878   -0.000092
      7          1           0        0.000010   -2.464465    0.000169
      8          1           0        2.055392    1.304556   -0.000367
      9          1           0        2.150568   -1.179188   -0.000224
     10          1           0       -2.150573   -1.179182    0.000380
     11          1           0       -2.055392    1.304552    0.000202
 ---------------------------------------------------------------------
 Rotational constants (GHZ):           6.0690161           5.8462299           2.9777701
 Leave Link  202 at Wed Oct 11 11:55:18 2023, MaxMem=  6710886400 cpu:               0.1 elap:               0.0
 (Enter /data0/home/software/g16/l301.exe)
 Standard basis: 6-311+G(2d,p) (5D, 7F)
 Ernie: Thresh=  0.10000D-02 Tol=  0.10000D-05 Strict=F.
 There are   204 symmetry adapted cartesian basis functions of A   symmetry.
 There are   192 symmetry adapted basis functions of A   symmetry.
   192 basis functions,   292 primitive gaussians,   204 cartesian basis functions
    21 alpha electrons       21 beta electrons
       nuclear repulsion energy       206.4924745230 Hartrees.
 IExCor=  402 DFT=T Ex+Corr=B3LYP ExCW=0 ScaHFX=  0.200000
 ScaDFX=  0.800000  0.720000  1.000000  0.810000 ScalE2=  1.000000  1.000000
 IRadAn=      5 IRanWt=     -1 IRanGd=            0 ICorTp=0 IEmpDi=141
 NAtoms=   11 NActive=   11 NUniq=   11 SFac= 1.00D+00 NAtFMM=   60 NAOKFM=F Big=F
 Integral buffers will be    131072 words long.
 Raffenetti 2 integral format.
 Two-electron integral symmetry is turned on.
 R6Disp:  Grimme-D3(BJ) Dispersion energy=       -0.0171686580 Hartrees.
 Nuclear repulsion after empirical dispersion term =      206.4753058649 Hartrees.
 Leave Link  301 at Wed Oct 11 11:55:18 2023, MaxMem=  6710886400 cpu:               1.1 elap:               0.1
 (Enter /data0/home/software/g16/l302.exe)
 NPDir=0 NMtPBC=     1 NCelOv=     1 NCel=       1 NClECP=     1 NCelD=      1
         NCelK=      1 NCelE2=     1 NClLst=     1 CellRange=     0.0.
 One-electron integrals computed using PRISM.
 One-electron integral symmetry used in STVInt
 NBasis=   192 RedAO= T EigKep=  1.91D-05  NBF=   192
 NBsUse=   192 1.00D-06 EigRej= -1.00D+00 NBFU=   192
 Precomputing XC quadrature grid using
 IXCGrd= 4 IRadAn=           5 IRanWt=          -1 IRanGd=           0 AccXCQ= 0.00D+00.
 Generated NRdTot=       0 NPtTot=           0 NUsed=           0 NTot=          32
 NSgBfM=   204   204   204   204   204 MxSgAt=    11 MxSgA2=    11.
 Leave Link  302 at Wed Oct 11 11:55:18 2023, MaxMem=  6710886400 cpu:               3.2 elap:               0.2
 (Enter /data0/home/software/g16/l303.exe)
 DipDrv:  MaxL=1.
 Leave Link  303 at Wed Oct 11 11:55:18 2023, MaxMem=  6710886400 cpu:               0.5 elap:               0.0
 (Enter /data0/home/software/g16/l401.exe)
 ExpMin= 4.38D-02 ExpMax= 6.29D+03 ExpMxC= 9.49D+02 IAcc=3 IRadAn=         5 AccDes= 0.00D+00
 Harris functional with IExCor=  402 and IRadAn=       5 diagonalized for initial guess.
 HarFok:  IExCor=  402 AccDes= 0.00D+00 IRadAn=         5 IDoV= 1 UseB2=F ITyADJ=14
 ICtDFT=  3500011 ScaDFX=  1.000000  1.000000  1.000000  1.000000
 FoFCou: FMM=F IPFlag=           0 FMFlag=      100000 FMFlg1=           0
         NFxFlg=           0 DoJE=T BraDBF=F KetDBF=T FulRan=T
         wScrn=  0.000000 ICntrl=       500 IOpCl=  0 I1Cent=   200000004 NGrid=           0
         NMat0=    1 NMatS0=      1 NMatT0=    0 NMatD0=    1 NMtDS0=    0 NMtDT0=    0
 Petite list used in FoFCou.
 Harris En= -248.383185785948    
 JPrj=0 DoOrth=F DoCkMO=F.
 Leave Link  401 at Wed Oct 11 11:55:18 2023, MaxMem=  6710886400 cpu:               8.1 elap:               0.4
 (Enter /data0/home/software/g16/l502.exe)
 Keep R1 ints in memory in canonical form, NReq=196445503.
 FoFCou: FMM=F IPFlag=           0 FMFlag=           0 FMFlg1=           0
         NFxFlg=           0 DoJE=F BraDBF=F KetDBF=F FulRan=T
         wScrn=  0.000000 ICntrl=       600 IOpCl=  0 I1Cent=           0 NGrid=           0
         NMat0=    1 NMatS0=  18528 NMatT0=    0 NMatD0=    1 NMtDS0=    0 NMtDT0=    0
 Symmetry not used in FoFCou.
 Two-electron integral symmetry not used.
 Closed shell SCF:
 Using DIIS extrapolation, IDIIS=  1040.
 NGot=  6710886400 LenX=  6539143647 LenY=  6539101590
 Requested convergence on RMS density matrix=1.00D-08 within 128 cycles.
 Requested convergence on MAX density matrix=1.00D-06.
 Requested convergence on             energy=1.00D-06.
 No special actions if energy rises.

 Cycle   1  Pass 1  IDiag  1:
 E= -248.245901342935    
 DIIS: error= 3.92D-02 at cycle   1 NSaved=   1.
 NSaved= 1 IEnMin= 1 EnMin= -248.245901342935     IErMin= 1 ErrMin= 3.92D-02
 ErrMax= 3.92D-02  0.00D+00 EMaxC= 1.00D-01 BMatC= 1.36D-01 BMatP= 1.36D-01
 IDIUse=3 WtCom= 6.08D-01 WtEn= 3.92D-01
 Coeff-Com:  0.100D+01
 Coeff-En:   0.100D+01
 Coeff:      0.100D+01
 Gap=     0.239 Goal=   None    Shift=    0.000
 GapD=    0.239 DampG=1.000 DampE=0.500 DampFc=0.5000 IDamp=-1.
 Damping current iteration by 5.00D-01
 RMSDP=7.30D-03 MaxDP=2.04D-01              OVMax= 1.70D-01

 Cycle   2  Pass 1  IDiag  1:
 E= -248.303744168289     Delta-E=       -0.057842825354 Rises=F Damp=T
 DIIS: error= 6.73D-03 at cycle   2 NSaved=   2.
 NSaved= 2 IEnMin= 2 EnMin= -248.303744168289     IErMin= 2 ErrMin= 6.73D-03
 ErrMax= 6.73D-03  0.00D+00 EMaxC= 1.00D-01 BMatC= 8.86D-03 BMatP= 1.36D-01
 IDIUse=3 WtCom= 9.33D-01 WtEn= 6.73D-02
 Coeff-Com: -0.323D-02 0.100D+01
 Coeff-En:   0.655D-01 0.935D+00
 Coeff:      0.140D-02 0.999D+00
 Gap=     0.272 Goal=   None    Shift=    0.000
 RMSDP=2.21D-03 MaxDP=7.32D-02 DE=-5.78D-02 OVMax= 1.09D-01

 Cycle   3  Pass 1  IDiag  1:
 E= -248.370930614775     Delta-E=       -0.067186446486 Rises=F Damp=F
 DIIS: error= 6.13D-03 at cycle   3 NSaved=   3.
 NSaved= 3 IEnMin= 3 EnMin= -248.370930614775     IErMin= 3 ErrMin= 6.13D-03
 ErrMax= 6.13D-03  0.00D+00 EMaxC= 1.00D-01 BMatC= 4.40D-03 BMatP= 8.86D-03
 IDIUse=3 WtCom= 9.39D-01 WtEn= 6.13D-02
 Coeff-Com: -0.773D-01 0.413D+00 0.664D+00
 Coeff-En:   0.000D+00 0.000D+00 0.100D+01
 Coeff:     -0.725D-01 0.388D+00 0.685D+00
 Gap=     0.225 Goal=   None    Shift=    0.000
 RMSDP=4.30D-04 MaxDP=1.06D-02 DE=-6.72D-02 OVMax= 2.82D-02

 Cycle   4  Pass 1  IDiag  1:
 E= -248.374577215289     Delta-E=       -0.003646600514 Rises=F Damp=F
 DIIS: error= 2.42D-03 at cycle   4 NSaved=   4.
 NSaved= 4 IEnMin= 4 EnMin= -248.374577215289     IErMin= 4 ErrMin= 2.42D-03
 ErrMax= 2.42D-03  0.00D+00 EMaxC= 1.00D-01 BMatC= 5.77D-04 BMatP= 4.40D-03
 IDIUse=3 WtCom= 9.76D-01 WtEn= 2.42D-02
 Coeff-Com: -0.380D-01 0.140D+00 0.343D+00 0.554D+00
 Coeff-En:   0.000D+00 0.000D+00 0.000D+00 0.100D+01
 Coeff:     -0.370D-01 0.137D+00 0.335D+00 0.565D+00
 Gap=     0.225 Goal=   None    Shift=    0.000
 RMSDP=1.10D-04 MaxDP=4.13D-03 DE=-3.65D-03 OVMax= 1.18D-02

 Cycle   5  Pass 1  IDiag  1:
 E= -248.375041059762     Delta-E=       -0.000463844473 Rises=F Damp=F
 DIIS: error= 8.72D-04 at cycle   5 NSaved=   5.
 NSaved= 5 IEnMin= 5 EnMin= -248.375041059762     IErMin= 5 ErrMin= 8.72D-04
 ErrMax= 8.72D-04  0.00D+00 EMaxC= 1.00D-01 BMatC= 7.75D-05 BMatP= 5.77D-04
 IDIUse=3 WtCom= 9.91D-01 WtEn= 8.72D-03
 Coeff-Com: -0.119D-01 0.242D-01 0.956D-01 0.310D+00 0.583D+00
 Coeff-En:   0.000D+00 0.000D+00 0.000D+00 0.921D-01 0.908D+00
 Coeff:     -0.118D-01 0.240D-01 0.947D-01 0.308D+00 0.585D+00
 Gap=     0.225 Goal=   None    Shift=    0.000
 RMSDP=4.09D-05 MaxDP=7.85D-04 DE=-4.64D-04 OVMax= 3.31D-03

 Cycle   6  Pass 1  IDiag  1:
 E= -248.375111174083     Delta-E=       -0.000070114321 Rises=F Damp=F
 DIIS: error= 1.12D-04 at cycle   6 NSaved=   6.
 NSaved= 6 IEnMin= 6 EnMin= -248.375111174083     IErMin= 6 ErrMin= 1.12D-04
 ErrMax= 1.12D-04  0.00D+00 EMaxC= 1.00D-01 BMatC= 5.53D-07 BMatP= 7.75D-05
 IDIUse=3 WtCom= 9.99D-01 WtEn= 1.12D-03
 Coeff-Com: -0.338D-02 0.601D-02 0.279D-01 0.952D-01 0.201D+00 0.673D+00
 Coeff-En:   0.000D+00 0.000D+00 0.000D+00 0.000D+00 0.000D+00 0.100D+01
 Coeff:     -0.338D-02 0.600D-02 0.279D-01 0.951D-01 0.201D+00 0.674D+00
 Gap=     0.225 Goal=   None    Shift=    0.000
 RMSDP=5.52D-06 MaxDP=1.79D-04 DE=-7.01D-05 OVMax= 7.42D-04

 Cycle   7  Pass 1  IDiag  1:
 E= -248.375111302314     Delta-E=       -0.000000128231 Rises=F Damp=F
 DIIS: error= 1.01D-04 at cycle   7 NSaved=   7.
 NSaved= 7 IEnMin= 7 EnMin= -248.375111302314     IErMin= 7 ErrMin= 1.01D-04
 ErrMax= 1.01D-04  0.00D+00 EMaxC= 1.00D-01 BMatC= 4.91D-07 BMatP= 5.53D-07
 IDIUse=3 WtCom= 9.99D-01 WtEn= 1.01D-03
 Coeff-Com: -0.252D-03-0.999D-04 0.288D-02 0.120D-01 0.406D-01 0.493D+00
 Coeff-Com:  0.452D+00
 Coeff-En:   0.000D+00 0.000D+00 0.000D+00 0.000D+00 0.000D+00 0.452D+00
 Coeff-En:   0.548D+00
 Coeff:     -0.251D-03-0.998D-04 0.288D-02 0.120D-01 0.405D-01 0.493D+00
 Coeff:      0.452D+00
 Gap=     0.225 Goal=   None    Shift=    0.000
 RMSDP=5.92D-06 MaxDP=1.50D-04 DE=-1.28D-07 OVMax= 3.34D-04

 Cycle   8  Pass 1  IDiag  1:
 E= -248.375111775046     Delta-E=       -0.000000472731 Rises=F Damp=F
 DIIS: error= 1.02D-05 at cycle   8 NSaved=   8.
 NSaved= 8 IEnMin= 8 EnMin= -248.375111775046     IErMin= 8 ErrMin= 1.02D-05
 ErrMax= 1.02D-05  0.00D+00 EMaxC= 1.00D-01 BMatC= 1.09D-08 BMatP= 4.91D-07
 IDIUse=1 WtCom= 1.00D+00 WtEn= 0.00D+00
 Coeff-Com:  0.435D-04-0.396D-03 0.613D-04 0.159D-02 0.119D-01 0.232D+00
 Coeff-Com:  0.233D+00 0.522D+00
 Coeff:      0.435D-04-0.396D-03 0.613D-04 0.159D-02 0.119D-01 0.232D+00
 Coeff:      0.233D+00 0.522D+00
 Gap=     0.225 Goal=   None    Shift=    0.000
 RMSDP=4.86D-07 MaxDP=1.46D-05 DE=-4.73D-07 OVMax= 4.68D-05

 Cycle   9  Pass 1  IDiag  1:
 E= -248.375111784128     Delta-E=       -0.000000009082 Rises=F Damp=F
 DIIS: error= 3.84D-06 at cycle   9 NSaved=   9.
 NSaved= 9 IEnMin= 9 EnMin= -248.375111784128     IErMin= 9 ErrMin= 3.84D-06
 ErrMax= 3.84D-06  0.00D+00 EMaxC= 1.00D-01 BMatC= 1.01D-09 BMatP= 1.09D-08
 IDIUse=1 WtCom= 1.00D+00 WtEn= 0.00D+00
 Coeff-Com:  0.355D-04-0.780D-04-0.303D-03-0.988D-03-0.111D-02 0.534D-02
 Coeff-Com:  0.672D-02 0.235D+00 0.755D+00
 Coeff:      0.355D-04-0.780D-04-0.303D-03-0.988D-03-0.111D-02 0.534D-02
 Coeff:      0.672D-02 0.235D+00 0.755D+00
 Gap=     0.225 Goal=   None    Shift=    0.000
 RMSDP=4.02D-07 MaxDP=1.03D-05 DE=-9.08D-09 OVMax= 1.80D-05

 Cycle  10  Pass 1  IDiag  1:
 E= -248.375111785156     Delta-E=       -0.000000001028 Rises=F Damp=F
 DIIS: error= 4.02D-07 at cycle  10 NSaved=  10.
 NSaved=10 IEnMin=10 EnMin= -248.375111785156     IErMin=10 ErrMin= 4.02D-07
 ErrMax= 4.02D-07  0.00D+00 EMaxC= 1.00D-01 BMatC= 1.29D-11 BMatP= 1.01D-09
 IDIUse=1 WtCom= 1.00D+00 WtEn= 0.00D+00
 Coeff-Com:  0.356D-05-0.370D-05-0.336D-04-0.196D-03-0.250D-03-0.305D-02
 Coeff-Com: -0.386D-02 0.113D-01 0.116D+00 0.880D+00
 Coeff:      0.356D-05-0.370D-05-0.336D-04-0.196D-03-0.250D-03-0.305D-02
 Coeff:     -0.386D-02 0.113D-01 0.116D+00 0.880D+00
 Gap=     0.225 Goal=   None    Shift=    0.000
 RMSDP=3.37D-08 MaxDP=7.45D-07 DE=-1.03D-09 OVMax= 1.31D-06

 Cycle  11  Pass 1  IDiag  1:
 E= -248.375111785168     Delta-E=       -0.000000000012 Rises=F Damp=F
 DIIS: error= 8.80D-08 at cycle  11 NSaved=  11.
 NSaved=11 IEnMin=11 EnMin= -248.375111785168     IErMin=11 ErrMin= 8.80D-08
 ErrMax= 8.80D-08  0.00D+00 EMaxC= 1.00D-01 BMatC= 5.88D-13 BMatP= 1.29D-11
 IDIUse=1 WtCom= 1.00D+00 WtEn= 0.00D+00
 Coeff-Com: -0.758D-06 0.192D-05 0.954D-05 0.786D-05 0.226D-04-0.294D-03
 Coeff-Com: -0.123D-02-0.834D-02-0.123D-01 0.975D-01 0.925D+00
 Coeff:     -0.758D-06 0.192D-05 0.954D-05 0.786D-05 0.226D-04-0.294D-03
 Coeff:     -0.123D-02-0.834D-02-0.123D-01 0.975D-01 0.925D+00
 Gap=     0.225 Goal=   None    Shift=    0.000
 RMSDP=9.70D-09 MaxDP=2.25D-07 DE=-1.23D-11 OVMax= 3.50D-07

 SCF Done:  E(RB3LYP) =  -248.375111785     A.U. after   11 cycles
            NFock= 11  Conv=0.97D-08     -V/T= 2.0043
 KE= 2.473115431839D+02 PE=-9.898848291176D+02 EE= 2.877228682836D+02
 Leave Link  502 at Wed Oct 11 11:55:26 2023, MaxMem=  6710886400 cpu:              96.9 elap:               7.8
 (Enter /data0/home/software/g16/l601.exe)
 Copying SCF densities to generalized density rwf, IOpCl= 0 IROHF=0.

 **********************************************************************

            Population analysis using the SCF density.

 **********************************************************************

 Orbital symmetries:
       Occupied  (A) (A) (A) (A) (A) (A) (A) (A) (A) (A) (A) (A)
                 (A) (A) (A) (A) (A) (A) (A) (A) (A)
       Virtual   (A) (A) (A) (A) (A) (A) (A) (A) (A) (A) (A) (A)
                 (A) (A) (A) (A) (A) (A) (A) (A) (A) (A) (A) (A)
                 (A) (A) (A) (A) (A) (A) (A) (A) (A) (A) (A) (A)
                 (A) (A) (A) (A) (A) (A) (A) (A) (A) (A) (A) (A)
                 (A) (A) (A) (A) (A) (A) (A) (A) (A) (A) (A) (A)
                 (A) (A) (A) (A) (A) (A) (A) (A) (A) (A) (A) (A)
                 (A) (A) (A) (A) (A) (A) (A) (A) (A) (A) (A) (A)
                 (A) (A) (A) (A) (A) (A) (A) (A) (A) (A) (A) (A)
                 (A) (A) (A) (A) (A) (A) (A) (A) (A) (A) (A) (A)
                 (A) (A) (A) (A) (A) (A) (A) (A) (A) (A) (A) (A)
                 (A) (A) (A) (A) (A) (A) (A) (A) (A) (A) (A) (A)
                 (A) (A) (A) (A) (A) (A) (A) (A) (A) (A) (A) (A)
                 (A) (A) (A) (A) (A) (A) (A) (A) (A) (A) (A) (A)
                 (A) (A) (A) (A) (A) (A) (A) (A) (A) (A) (A) (A)
                 (A) (A) (A)
 The electronic state is 1-A.
 Alpha  occ. eigenvalues --  -14.31499 -10.21177 -10.21177 -10.19843 -10.18852
 Alpha  occ. eigenvalues --  -10.18850  -0.95119  -0.81449  -0.77072  -0.63914
 Alpha  occ. eigenvalues --   -0.63734  -0.53851  -0.49152  -0.47851  -0.43832
 Alpha  occ. eigenvalues --   -0.41388  -0.40769  -0.37410  -0.29864  -0.27365
 Alpha  occ. eigenvalues --   -0.26576
 Alpha virt. eigenvalues --   -0.04081  -0.02757   0.00040   0.01957   0.02718
 Alpha virt. eigenvalues --    0.04647   0.05068   0.05402   0.06189   0.08499
 Alpha virt. eigenvalues --    0.08521   0.09422   0.09719   0.11766   0.13589
 Alpha virt. eigenvalues --    0.13878   0.13889   0.14470   0.14913   0.15682
 Alpha virt. eigenvalues --    0.16581   0.19427   0.19938   0.20166   0.20723
 Alpha virt. eigenvalues --    0.20891   0.22384   0.23175   0.24366   0.24924
 Alpha virt. eigenvalues --    0.27510   0.29644   0.30495   0.31554   0.31624
 Alpha virt. eigenvalues --    0.32575   0.42700   0.45308   0.47526   0.47928
 Alpha virt. eigenvalues --    0.50272   0.50821   0.52203   0.52619   0.54392
 Alpha virt. eigenvalues --    0.55863   0.56492   0.60006   0.60933   0.61229
 Alpha virt. eigenvalues --    0.61885   0.62332   0.63323   0.64975   0.68429
 Alpha virt. eigenvalues --    0.72341   0.73085   0.75768   0.76924   0.78160
 Alpha virt. eigenvalues --    0.78218   0.80171   0.80355   0.80889   0.82259
 Alpha virt. eigenvalues --    0.84612   0.85362   0.87189   0.91445   0.91670
 Alpha virt. eigenvalues --    0.92672   0.99065   1.04606   1.12929   1.13785
 Alpha virt. eigenvalues --    1.15890   1.17541   1.25028   1.27847   1.31584
 Alpha virt. eigenvalues --    1.31598   1.31622   1.33992   1.35856   1.40608
 Alpha virt. eigenvalues --    1.40624   1.46022   1.47121   1.49011   1.49375
 Alpha virt. eigenvalues --    1.52321   1.58708   1.61187   1.64185   1.71504
 Alpha virt. eigenvalues --    1.81173   1.84049   1.87791   1.92067   1.96826
 Alpha virt. eigenvalues --    2.00685   2.14809   2.15347   2.21882   2.36421
 Alpha virt. eigenvalues --    2.38330   2.48200   2.49097   2.64240   2.65562
 Alpha virt. eigenvalues --    2.68766   2.68930   2.73637   2.74303   2.78932
 Alpha virt. eigenvalues --    2.80423   2.81050   2.81284   2.82999   2.99199
 Alpha virt. eigenvalues --    3.00748   3.05707   3.09034   3.09068   3.11111
 Alpha virt. eigenvalues --    3.18507   3.19883   3.25592   3.26124   3.26516
 Alpha virt. eigenvalues --    3.27205   3.33089   3.40102   3.40969   3.41381
 Alpha virt. eigenvalues --    3.50977   3.53955   3.56032   3.56095   3.56309
 Alpha virt. eigenvalues --    3.57672   3.58575   3.66236   3.67458   3.68543
 Alpha virt. eigenvalues --    3.74311   3.78102   3.79040   3.84406   3.88643
 Alpha virt. eigenvalues --    3.95467   3.95531   3.96924   3.99853   4.42379
 Alpha virt. eigenvalues --    4.53228   4.55419   4.83025   4.96702   5.00811
 Alpha virt. eigenvalues --    5.06605   5.14012   5.23383   5.62064   5.64275
 Alpha virt. eigenvalues --   23.73678  23.99839  24.00276  24.03900  24.08580
 Alpha virt. eigenvalues --   35.65850
          Condensed to atoms (all electrons):
               1          2          3          4          5          6
     1  C    5.041369   0.328529   0.037009  -0.202561   0.120377   0.272738
     2  C    0.328529   4.942009   0.467242   0.055194  -0.202561   0.127433
     3  C    0.037009   0.467242   4.834825   0.467242   0.037008  -0.092976
     4  C   -0.202561   0.055194   0.467242   4.942010   0.328528   0.127434
     5  C    0.120377  -0.202561   0.037008   0.328528   5.041369   0.272738
     6  N    0.272738   0.127433  -0.092976   0.127434   0.272738   6.736968
     7  H    0.005139  -0.038799   0.404305  -0.038797   0.005139   0.000394
     8  H    0.449580  -0.089230   0.018871  -0.004997   0.015605  -0.075983
     9  H   -0.044510   0.407388  -0.047467   0.017243   0.001992   0.002551
    10  H    0.001992   0.017243  -0.047465   0.407387  -0.044511   0.002551
    11  H    0.015604  -0.004997   0.018871  -0.089229   0.449579  -0.075983
               7          8          9         10         11
     1  C    0.005139   0.449580  -0.044510   0.001992   0.015604
     2  C   -0.038799  -0.089230   0.407388   0.017243  -0.004997
     3  C    0.404305   0.018871  -0.047467  -0.047465   0.018871
     4  C   -0.038797  -0.004997   0.017243   0.407387  -0.089229
     5  C    0.005139   0.015605   0.001992  -0.044511   0.449579
     6  N    0.000394  -0.075983   0.002551   0.002551  -0.075983
     7  H    0.584276  -0.000391  -0.005951  -0.005951  -0.000391
     8  H   -0.000391   0.593493  -0.003004   0.000140  -0.000055
     9  H   -0.005951  -0.003004   0.581027  -0.000308   0.000140
    10  H   -0.005951   0.000140  -0.000308   0.581027  -0.003004
    11  H   -0.000391  -0.000055   0.000140  -0.003004   0.593492
 Mulliken charges:
               1
     1  C   -0.025266
     2  C   -0.009452
     3  C   -0.097467
     4  C   -0.009454
     5  C   -0.025264
     6  N   -0.297865
     7  H    0.091026
     8  H    0.095972
     9  H    0.090898
    10  H    0.090899
    11  H    0.095972
 Sum of Mulliken charges =  -0.00000
 Mulliken charges with hydrogens summed into heavy atoms:
               1
     1  C    0.070706
     2  C    0.081446
     3  C   -0.006441
     4  C    0.081444
     5  C    0.070709
     6  N   -0.297865
 Electronic spatial extent (au):  <R**2>=            433.9573
 Charge=             -0.0000 electrons
 Dipole moment (field-independent basis, Debye):
    X=              0.0000    Y=             -2.3130    Z=              0.0002  Tot=              2.3130
 Quadrupole moment (field-independent basis, Debye-Ang):
   XX=            -29.6205   YY=            -36.7852   ZZ=            -38.1732
   XY=             -0.0000   XZ=             -0.0012   YZ=             -0.0001
 Traceless Quadrupole moment (field-independent basis, Debye-Ang):
   XX=              5.2391   YY=             -1.9255   ZZ=             -3.3136
   XY=             -0.0000   XZ=             -0.0012   YZ=             -0.0001
 Octapole moment (field-independent basis, Debye-Ang**2):
  XXX=             -0.0001  YYY=            -16.0695  ZZZ=             -0.0002  XYY=              0.0001
  XXY=              1.9708  XXZ=             -0.0001  XZZ=             -0.0000  YZZ=              1.2506
  YYZ=              0.0013  XYZ=             -0.0001
 Hexadecapole moment (field-independent basis, Debye-Ang**3):
 XXXX=           -255.0995 YYYY=           -290.6685 ZZZZ=            -44.6234 XXXY=             -0.0001
 XXXZ=              0.0100 YYYX=             -0.0002 YYYZ=              0.0075 ZZZX=              0.0183
 ZZZY=              0.0086 XXYY=            -81.6865 XXZZ=            -59.7663 YYZZ=            -58.3247
 XXYZ=              0.0015 YYXZ=              0.0031 ZZXY=             -0.0000
 N-N= 2.064753058649D+02 E-N=-9.898848304498D+02  KE= 2.473115431839D+02
 No NMR shielding tensors so no spin-rotation constants.
 Leave Link  601 at Wed Oct 11 11:55:26 2023, MaxMem=  6710886400 cpu:               2.2 elap:               0.1
 (Enter /data0/home/software/g16/l701.exe)
 ... and contract with generalized density number  0.
 Compute integral first derivatives.
 R6Disp: Adding Grimme-D3(BJ) dispersion energy 1st derivatives to the gradient.
 Leave Link  701 at Wed Oct 11 11:55:26 2023, MaxMem=  6710886400 cpu:               2.6 elap:               0.1
 (Enter /data0/home/software/g16/l702.exe)
 L702 exits ... SP integral derivatives will be done elsewhere.
 Leave Link  702 at Wed Oct 11 11:55:26 2023, MaxMem=  6710886400 cpu:               0.4 elap:               0.0
 (Enter /data0/home/software/g16/l703.exe)
 Integral derivatives from FoFJK, PRISM(SPDF).
 Compute integral first derivatives, UseDBF=F ICtDFT=           0.
 Calling FoFJK, ICntrl=      2127 FMM=F ISym2X=0 I1Cent= 0 IOpClX= 0 NMat=1 NMatS=1 NMatT=0.
 FoFJK:  IHMeth= 1 ICntrl=    2127 DoSepK=F KAlg= 0 I1Cent=           0 FoldK=F
 IRaf=         0 NMat=       1 IRICut=       1 DoRegI=T DoRafI=F ISym2E= 0 IDoP0=0 IntGTp=1.
 FoFCou: FMM=F IPFlag=           0 FMFlag=      100000 FMFlg1=         800
         NFxFlg=           0 DoJE=F BraDBF=F KetDBF=F FulRan=T
         wScrn=  0.000000 ICntrl=      2127 IOpCl=  0 I1Cent=           0 NGrid=           0
         NMat0=    1 NMatS0=      1 NMatT0=    0 NMatD0=    1 NMtDS0=    0 NMtDT0=    0
 Symmetry not used in FoFCou.
 Leave Link  703 at Wed Oct 11 11:55:28 2023, MaxMem=  6710886400 cpu:              31.6 elap:               1.3
 (Enter /data0/home/software/g16/l716.exe)
 Dipole        = 3.29566538D-07-9.09987247D-01 6.24922551D-05
 ***** Axes restored to original set *****
 -------------------------------------------------------------------
 Center     Atomic                   Forces (Hartrees/Bohr)
 Number     Number              X              Y              Z
 -------------------------------------------------------------------
      1        6           0.000020707    0.000283135   -0.000001783
      2        6           0.000442690   -0.000396904    0.000000149
      3        6          -0.000001805   -0.000533145    0.000000782
      4        6          -0.000439934   -0.000398004   -0.000001350
      5        6          -0.000023770    0.000282013    0.000003393
      6        7           0.000001354    0.000990889   -0.000000504
      7        1           0.000000837   -0.000267665   -0.000000351
      8        1           0.000145955    0.000178492    0.000000658
      9        1           0.000227697   -0.000159110    0.000000256
     10        1          -0.000228690   -0.000158083   -0.000000133
     11        1          -0.000145041    0.000178383   -0.000001117
 -------------------------------------------------------------------
 Cartesian Forces:  Max     0.000990889 RMS     0.000273274
 Leave Link  716 at Wed Oct 11 11:55:28 2023, MaxMem=  6710886400 cpu:               0.5 elap:               0.0
 (Enter /data0/home/software/g16/l103.exe)

 GradGradGradGradGradGradGradGradGradGradGradGradGradGradGradGradGradGrad
 Berny optimization.
 FormGI is forming the generalized inverse of G from B-inverse, IUseBI=4.
 Internal  Forces:  Max     0.000961502 RMS     0.000285431
 Search for a local minimum.
 Step number   1 out of a maximum of   57
 All quantities printed in internal units (Hartrees-Bohrs-Radians)
 RMS Force = .28543D-03 SwitMx=.10000D-02 MixMth= 2
 Mixed Optimization -- En-DIIS/RFO-DIIS
 Second derivative matrix not updated -- first step.
 ITU=  0
     Eigenvalues ---    0.02210   0.02212   0.02219   0.02228   0.02246
     Eigenvalues ---    0.02297   0.02324   0.02474   0.16000   0.16000
     Eigenvalues ---    0.16000   0.16000   0.16000   0.22000   0.22000
     Eigenvalues ---    0.23195   0.35299   0.35299   0.35549   0.35623
     Eigenvalues ---    0.35623   0.42799   0.45040   0.46995   0.47334
     Eigenvalues ---    0.56079   0.57409
 RFO step:  Lambda=-8.73155308D-06 EMin= 2.20978288D-02
 Linear search not attempted -- first point.
 Iteration  1 RMS(Cart)=  0.00095562 RMS(Int)=  0.00000018
 Iteration  2 RMS(Cart)=  0.00000025 RMS(Int)=  0.00000002
 ITry= 1 IFail=0 DXMaxC= 2.94D-03 DCOld= 1.00D+10 DXMaxT= 3.00D-01 DXLimC= 3.00D+00 Rises=F
 Variable       Old X    -DE/DX   Delta X   Delta X   Delta X     New X
                                 (Linear)    (Quad)   (Total)
    R1        2.63027  -0.00096   0.00000  -0.00205  -0.00205   2.62822
    R2        2.52315  -0.00052   0.00000  -0.00089  -0.00089   2.52226
    R3        2.05193  -0.00022   0.00000  -0.00062  -0.00062   2.05131
    R4        2.62566  -0.00066   0.00000  -0.00139  -0.00139   2.62427
    R5        2.04674  -0.00028   0.00000  -0.00077  -0.00077   2.04597
    R6        2.62566  -0.00066   0.00000  -0.00139  -0.00139   2.62427
    R7        2.04792  -0.00027   0.00000  -0.00075  -0.00075   2.04717
    R8        2.63027  -0.00096   0.00000  -0.00204  -0.00204   2.62822
    R9        2.04675  -0.00028   0.00000  -0.00078  -0.00078   2.04597
   R10        2.52315  -0.00053   0.00000  -0.00089  -0.00089   2.52226
   R11        2.05193  -0.00022   0.00000  -0.00062  -0.00062   2.05131
    A1        2.15685  -0.00021   0.00000  -0.00089  -0.00089   2.15596
    A2        2.10024   0.00003   0.00000  -0.00001  -0.00001   2.10023
    A3        2.02609   0.00018   0.00000   0.00091   0.00091   2.02700
    A4        2.06837   0.00001   0.00000   0.00004   0.00004   2.06841
    A5        2.09839  -0.00004   0.00000  -0.00023  -0.00023   2.09815
    A6        2.11642   0.00003   0.00000   0.00019   0.00019   2.11662
    A7        2.06875   0.00012   0.00000   0.00052   0.00052   2.06927
    A8        2.10721  -0.00006   0.00000  -0.00025  -0.00025   2.10696
    A9        2.10723  -0.00006   0.00000  -0.00026  -0.00026   2.10696
   A10        2.06837   0.00001   0.00000   0.00004   0.00004   2.06841
   A11        2.11644   0.00003   0.00000   0.00019   0.00019   2.11662
   A12        2.09837  -0.00004   0.00000  -0.00023  -0.00023   2.09815
   A13        2.15685  -0.00021   0.00000  -0.00089  -0.00089   2.15596
   A14        2.10024   0.00003   0.00000  -0.00002  -0.00002   2.10023
   A15        2.02609   0.00018   0.00000   0.00091   0.00091   2.02700
   A16        2.04717   0.00028   0.00000   0.00119   0.00119   2.04836
    D1       -0.00001   0.00000   0.00000   0.00002   0.00002   0.00001
    D2        3.14158   0.00000   0.00000   0.00002   0.00002  -3.14159
    D3       -3.14159  -0.00000   0.00000  -0.00001  -0.00001   3.14159
    D4        0.00001  -0.00000   0.00000  -0.00001  -0.00001  -0.00001
    D5        0.00000  -0.00000   0.00000  -0.00001  -0.00001  -0.00000
    D6        3.14158   0.00000   0.00000   0.00002   0.00002  -3.14158
    D7        0.00000  -0.00000   0.00000  -0.00001  -0.00001  -0.00000
    D8       -3.14158  -0.00000   0.00000  -0.00002  -0.00002   3.14159
    D9       -3.14159  -0.00000   0.00000  -0.00000  -0.00000  -3.14159
   D10        0.00001  -0.00000   0.00000  -0.00001  -0.00001  -0.00000
   D11        0.00001  -0.00000   0.00000  -0.00002  -0.00002  -0.00001
   D12       -3.14159  -0.00000   0.00000  -0.00001  -0.00001   3.14159
   D13       -3.14159  -0.00000   0.00000  -0.00001  -0.00001   3.14159
   D14       -0.00000   0.00000   0.00000   0.00000   0.00000  -0.00000
   D15       -0.00002   0.00000   0.00000   0.00003   0.00003   0.00001
   D16       -3.14158  -0.00000   0.00000  -0.00002  -0.00002   3.14158
   D17        3.14158   0.00000   0.00000   0.00003   0.00003  -3.14158
   D18        0.00002  -0.00000   0.00000  -0.00003  -0.00003  -0.00001
   D19        0.00001  -0.00000   0.00000  -0.00002  -0.00002  -0.00001
   D20        3.14157   0.00000   0.00000   0.00003   0.00003  -3.14158
         Item               Value     Threshold  Converged?
 Maximum Force            0.000962     0.000450     NO 
 RMS     Force            0.000285     0.000300     YES
 Maximum Displacement     0.002936     0.001800     NO 
 RMS     Displacement     0.000956     0.001200     YES
 Predicted change in Energy=-4.365779D-06
 Lowest energy point so far.  Saving SCF results.
 GradGradGradGradGradGradGradGradGradGradGradGradGradGradGradGradGradGrad

 Leave Link  103 at Wed Oct 11 11:55:28 2023, MaxMem=  6710886400 cpu:               0.4 elap:               0.0
 (Enter /data0/home/software/g16/l202.exe)
                          Input orientation:                          
 ---------------------------------------------------------------------
 Center     Atomic      Atomic             Coordinates (Angstroms)
 Number     Number       Type             X           Y           Z
 ---------------------------------------------------------------------
      1          6           0       -1.140241   -0.719563   -0.000209
      2          6           0       -1.193828    0.670198   -0.000119
      3          6           0        0.000009    1.379597    0.000093
      4          6           0        1.193836    0.670184    0.000211
      5          6           0        1.140232   -0.719577    0.000118
      6          7           0       -0.000009   -1.413360   -0.000092
      7          1           0        0.000013    2.462911    0.000165
      8          1           0       -2.055317   -1.303479   -0.000370
      9          1           0       -2.149716    1.178605   -0.000218
     10          1           0        2.149732    1.178575    0.000372
     11          1           0        2.055300   -1.303504    0.000198
 ---------------------------------------------------------------------
                    Distance matrix (angstroms):
                    1          2          3          4          5
     1  C    0.000000
     2  C    1.390794   0.000000
     3  C    2.388858   1.388702   0.000000
     4  C    2.716490   2.387665   1.388701   0.000000
     5  C    2.280473   2.716489   2.388857   1.390794   0.000000
     6  N    1.334722   2.401337   2.792957   2.401338   1.334723
     7  H    3.380581   2.153852   1.083315   2.153854   3.380582
     8  H    1.085505   2.153500   3.379831   3.801624   3.248458
     9  H    2.149903   1.082681   2.159100   3.381986   3.798269
    10  H    3.798270   3.381988   2.159102   1.082681   2.149900
    11  H    3.248457   3.801623   3.379831   2.153501   1.085505
                    6          7          8          9         10
     6  N    0.000000
     7  H    3.876271   0.000000
     8  H    2.058243   4.290697   0.000000
     9  H    3.367420   2.504152   2.483878   0.000000
    10  H    3.367420   2.504159   4.882933   4.299448   0.000000
    11  H    2.058243   4.290699   4.110617   4.882932   2.483875
                   11
    11  H    0.000000
 Stoichiometry    C5H5N
 Framework group  C1[X(C5H5N)]
 Deg. of freedom    27
 Full point group                 C1      NOp   1
 RotChk:  IX=3 Diff= 9.48D-06
 Largest Abelian subgroup         C1      NOp   1
 Largest concise Abelian subgroup C1      NOp   1
                         Standard orientation:                         
 ---------------------------------------------------------------------
 Center     Atomic      Atomic             Coordinates (Angstroms)
 Number     Number       Type             X           Y           Z
 ---------------------------------------------------------------------
      1          6           0        1.140241    0.719674   -0.000211
      2          6           0        1.193828   -0.670088   -0.000121
      3          6           0       -0.000008   -1.379487    0.000092
      4          6           0       -1.193836   -0.670074    0.000209
      5          6           0       -1.140232    0.719687    0.000117
      6          7           0        0.000009    1.413470   -0.000094
      7          1           0       -0.000012   -2.462801    0.000164
      8          1           0        2.055317    1.303590   -0.000372
      9          1           0        2.149716   -1.178494   -0.000220
     10          1           0       -2.149732   -1.178466    0.000370
     11          1           0       -2.055301    1.303614    0.000196
 ---------------------------------------------------------------------
 Rotational constants (GHZ):           6.0714458           5.8563691           2.9809842
 Leave Link  202 at Wed Oct 11 11:55:28 2023, MaxMem=  6710886400 cpu:               0.1 elap:               0.0
 (Enter /data0/home/software/g16/l301.exe)
 Standard basis: 6-311+G(2d,p) (5D, 7F)
 Ernie: Thresh=  0.10000D-02 Tol=  0.10000D-05 Strict=F.
 There are   204 symmetry adapted cartesian basis functions of A   symmetry.
 There are   192 symmetry adapted basis functions of A   symmetry.
   192 basis functions,   292 primitive gaussians,   204 cartesian basis functions
    21 alpha electrons       21 beta electrons
       nuclear repulsion energy       206.5994286845 Hartrees.
 IExCor=  402 DFT=T Ex+Corr=B3LYP ExCW=0 ScaHFX=  0.200000
 ScaDFX=  0.800000  0.720000  1.000000  0.810000 ScalE2=  1.000000  1.000000
 IRadAn=      5 IRanWt=     -1 IRanGd=            0 ICorTp=0 IEmpDi=141
 NAtoms=   11 NActive=   11 NUniq=   11 SFac= 1.00D+00 NAtFMM=   60 NAOKFM=F Big=F
 Integral buffers will be    131072 words long.
 Raffenetti 2 integral format.
 Two-electron integral symmetry is turned on.
 R6Disp:  Grimme-D3(BJ) Dispersion energy=       -0.0171732226 Hartrees.
 Nuclear repulsion after empirical dispersion term =      206.5822554619 Hartrees.
 Leave Link  301 at Wed Oct 11 11:55:28 2023, MaxMem=  6710886400 cpu:               1.2 elap:               0.1
 (Enter /data0/home/software/g16/l302.exe)
 NPDir=0 NMtPBC=     1 NCelOv=     1 NCel=       1 NClECP=     1 NCelD=      1
         NCelK=      1 NCelE2=     1 NClLst=     1 CellRange=     0.0.
 One-electron integrals computed using PRISM.
 One-electron integral symmetry used in STVInt
 NBasis=   192 RedAO= T EigKep=  1.90D-05  NBF=   192
 NBsUse=   192 1.00D-06 EigRej= -1.00D+00 NBFU=   192
 Precomputing XC quadrature grid using
 IXCGrd= 4 IRadAn=           5 IRanWt=          -1 IRanGd=           0 AccXCQ= 0.00D+00.
 Generated NRdTot=       0 NPtTot=           0 NUsed=           0 NTot=          32
 NSgBfM=   204   204   204   204   204 MxSgAt=    11 MxSgA2=    11.
 Leave Link  302 at Wed Oct 11 11:55:28 2023, MaxMem=  6710886400 cpu:               3.2 elap:               0.2
 (Enter /data0/home/software/g16/l303.exe)
 DipDrv:  MaxL=1.
 Leave Link  303 at Wed Oct 11 11:55:28 2023, MaxMem=  6710886400 cpu:               0.5 elap:               0.0
 (Enter /data0/home/software/g16/l401.exe)
 Initial guess from the checkpoint file:  "/data0/home/software/g16/scratch/Gau-2486483.chk"
 B after Tr=     0.000000    0.000000    0.000000
         Rot=    1.000000    0.000000   -0.000002    0.000003 Ang=   0.00 deg.
 Guess basis will be translated and rotated to current coordinates.
 JPrj=2 DoOrth=T DoCkMO=T.
 Leave Link  401 at Wed Oct 11 11:55:28 2023, MaxMem=  6710886400 cpu:               2.5 elap:               0.1
 (Enter /data0/home/software/g16/l502.exe)
 Keep R1 ints in memory in canonical form, NReq=196445503.
 FoFCou: FMM=F IPFlag=           0 FMFlag=           0 FMFlg1=           0
         NFxFlg=           0 DoJE=F BraDBF=F KetDBF=F FulRan=T
         wScrn=  0.000000 ICntrl=       600 IOpCl=  0 I1Cent=           0 NGrid=           0
         NMat0=    1 NMatS0=  18528 NMatT0=    0 NMatD0=    1 NMtDS0=    0 NMtDT0=    0
 Symmetry not used in FoFCou.
 Two-electron integral symmetry not used.
 Closed shell SCF:
 Using DIIS extrapolation, IDIIS=  1040.
 NGot=  6710886400 LenX=  6539143647 LenY=  6539101590
 Requested convergence on RMS density matrix=1.00D-08 within 128 cycles.
 Requested convergence on MAX density matrix=1.00D-06.
 Requested convergence on             energy=1.00D-06.
 No special actions if energy rises.

 Cycle   1  Pass 1  IDiag  1:
 E= -248.375114496017    
 DIIS: error= 8.34D-05 at cycle   1 NSaved=   1.
 NSaved= 1 IEnMin= 1 EnMin= -248.375114496017     IErMin= 1 ErrMin= 8.34D-05
 ErrMax= 8.34D-05  0.00D+00 EMaxC= 1.00D-01 BMatC= 1.69D-06 BMatP= 1.69D-06
 IDIUse=1 WtCom= 1.00D+00 WtEn= 0.00D+00
 Coeff-Com:  0.100D+01
 Coeff:      0.100D+01
 Gap=     0.482 Goal=   None    Shift=    0.000
 RMSDP=1.61D-05 MaxDP=3.58D-04              OVMax= 3.38D-04

 Cycle   2  Pass 1  IDiag  1:
 E= -248.375115690638     Delta-E=       -0.000001194621 Rises=F Damp=F
 DIIS: error= 5.07D-05 at cycle   2 NSaved=   2.
 NSaved= 2 IEnMin= 2 EnMin= -248.375115690638     IErMin= 2 ErrMin= 5.07D-05
 ErrMax= 5.07D-05  0.00D+00 EMaxC= 1.00D-01 BMatC= 2.26D-07 BMatP= 1.69D-06
 IDIUse=1 WtCom= 1.00D+00 WtEn= 0.00D+00
 Coeff-Com:  0.185D+00 0.815D+00
 Coeff:      0.185D+00 0.815D+00
 Gap=     0.225 Goal=   None    Shift=    0.000
 RMSDP=4.55D-06 MaxDP=1.09D-04 DE=-1.19D-06 OVMax= 2.01D-04

 Cycle   3  Pass 1  IDiag  1:
 E= -248.375115767101     Delta-E=       -0.000000076464 Rises=F Damp=F
 DIIS: error= 3.96D-05 at cycle   3 NSaved=   3.
 NSaved= 3 IEnMin= 3 EnMin= -248.375115767101     IErMin= 3 ErrMin= 3.96D-05
 ErrMax= 3.96D-05  0.00D+00 EMaxC= 1.00D-01 BMatC= 1.48D-07 BMatP= 2.26D-07
 IDIUse=1 WtCom= 1.00D+00 WtEn= 0.00D+00
 Coeff-Com:  0.862D-02 0.445D+00 0.546D+00
 Coeff:      0.862D-02 0.445D+00 0.546D+00
 Gap=     0.225 Goal=   None    Shift=    0.000
 RMSDP=2.05D-06 MaxDP=4.29D-05 DE=-7.65D-08 OVMax= 1.17D-04

 Cycle   4  Pass 1  IDiag  1:
 E= -248.375115905608     Delta-E=       -0.000000138507 Rises=F Damp=F
 DIIS: error= 1.29D-05 at cycle   4 NSaved=   4.
 NSaved= 4 IEnMin= 4 EnMin= -248.375115905608     IErMin= 4 ErrMin= 1.29D-05
 ErrMax= 1.29D-05  0.00D+00 EMaxC= 1.00D-01 BMatC= 1.25D-08 BMatP= 1.48D-07
 IDIUse=1 WtCom= 1.00D+00 WtEn= 0.00D+00
 Coeff-Com: -0.231D-02 0.238D+00 0.337D+00 0.427D+00
 Coeff:     -0.231D-02 0.238D+00 0.337D+00 0.427D+00
 Gap=     0.225 Goal=   None    Shift=    0.000
 RMSDP=9.28D-07 MaxDP=2.08D-05 DE=-1.39D-07 OVMax= 5.21D-05

 Cycle   5  Pass 1  IDiag  1:
 E= -248.375115916478     Delta-E=       -0.000000010870 Rises=F Damp=F
 DIIS: error= 4.00D-06 at cycle   5 NSaved=   5.
 NSaved= 5 IEnMin= 5 EnMin= -248.375115916478     IErMin= 5 ErrMin= 4.00D-06
 ErrMax= 4.00D-06  0.00D+00 EMaxC= 1.00D-01 BMatC= 8.12D-10 BMatP= 1.25D-08
 IDIUse=1 WtCom= 1.00D+00 WtEn= 0.00D+00
 Coeff-Com: -0.238D-02 0.445D-01 0.851D-01 0.230D+00 0.643D+00
 Coeff:     -0.238D-02 0.445D-01 0.851D-01 0.230D+00 0.643D+00
 Gap=     0.225 Goal=   None    Shift=    0.000
 RMSDP=2.29D-07 MaxDP=4.80D-06 DE=-1.09D-08 OVMax= 1.54D-05

 Cycle   6  Pass 1  IDiag  1:
 E= -248.375115917287     Delta-E=       -0.000000000809 Rises=F Damp=F
 DIIS: error= 7.64D-07 at cycle   6 NSaved=   6.
 NSaved= 6 IEnMin= 6 EnMin= -248.375115917287     IErMin= 6 ErrMin= 7.64D-07
 ErrMax= 7.64D-07  0.00D+00 EMaxC= 1.00D-01 BMatC= 3.83D-11 BMatP= 8.12D-10
 IDIUse=1 WtCom= 1.00D+00 WtEn= 0.00D+00
 Coeff-Com: -0.785D-03 0.497D-02 0.176D-01 0.663D-01 0.269D+00 0.643D+00
 Coeff:     -0.785D-03 0.497D-02 0.176D-01 0.663D-01 0.269D+00 0.643D+00
 Gap=     0.225 Goal=   None    Shift=    0.000
 RMSDP=3.22D-08 MaxDP=1.75D-06 DE=-8.09D-10 OVMax= 3.84D-06

 Cycle   7  Pass 1  IDiag  1:
 E= -248.375115917321     Delta-E=       -0.000000000033 Rises=F Damp=F
 DIIS: error= 2.64D-07 at cycle   7 NSaved=   7.
 NSaved= 7 IEnMin= 7 EnMin= -248.375115917321     IErMin= 7 ErrMin= 2.64D-07
 ErrMax= 2.64D-07  0.00D+00 EMaxC= 1.00D-01 BMatC= 8.34D-12 BMatP= 3.83D-11
 IDIUse=1 WtCom= 1.00D+00 WtEn= 0.00D+00
 Coeff-Com: -0.244D-03-0.696D-03 0.308D-02 0.174D-01 0.969D-01 0.370D+00
 Coeff-Com:  0.513D+00
 Coeff:     -0.244D-03-0.696D-03 0.308D-02 0.174D-01 0.969D-01 0.370D+00
 Coeff:      0.513D+00
 Gap=     0.225 Goal=   None    Shift=    0.000
 RMSDP=1.12D-08 MaxDP=4.64D-07 DE=-3.33D-11 OVMax= 1.16D-06

 Cycle   8  Pass 1  IDiag  1:
 E= -248.375115917326     Delta-E=       -0.000000000005 Rises=F Damp=F
 DIIS: error= 3.89D-08 at cycle   8 NSaved=   8.
 NSaved= 8 IEnMin= 8 EnMin= -248.375115917326     IErMin= 8 ErrMin= 3.89D-08
 ErrMax= 3.89D-08  0.00D+00 EMaxC= 1.00D-01 BMatC= 7.91D-14 BMatP= 8.34D-12
 IDIUse=1 WtCom= 1.00D+00 WtEn= 0.00D+00
 Coeff-Com: -0.253D-04-0.486D-03-0.316D-03 0.101D-02 0.126D-01 0.589D-01
 Coeff-Com:  0.127D+00 0.801D+00
 Coeff:     -0.253D-04-0.486D-03-0.316D-03 0.101D-02 0.126D-01 0.589D-01
 Coeff:      0.127D+00 0.801D+00
 Gap=     0.225 Goal=   None    Shift=    0.000
 RMSDP=1.98D-09 MaxDP=5.38D-08 DE=-5.46D-12 OVMax= 2.66D-07

 SCF Done:  E(RB3LYP) =  -248.375115917     A.U. after    8 cycles
            NFock=  8  Conv=0.20D-08     -V/T= 2.0042
 KE= 2.473254117453D+02 PE=-9.901102731353D+02 EE= 2.878274900108D+02
 Leave Link  502 at Wed Oct 11 11:55:34 2023, MaxMem=  6710886400 cpu:              74.8 elap:               5.9
 (Enter /data0/home/software/g16/l701.exe)
 ... and contract with generalized density number  0.
 Compute integral first derivatives.
 R6Disp: Adding Grimme-D3(BJ) dispersion energy 1st derivatives to the gradient.
 Leave Link  701 at Wed Oct 11 11:55:34 2023, MaxMem=  6710886400 cpu:               2.6 elap:               0.1
 (Enter /data0/home/software/g16/l702.exe)
 L702 exits ... SP integral derivatives will be done elsewhere.
 Leave Link  702 at Wed Oct 11 11:55:34 2023, MaxMem=  6710886400 cpu:               0.4 elap:               0.0
 (Enter /data0/home/software/g16/l703.exe)
 Integral derivatives from FoFJK, PRISM(SPDF).
 Compute integral first derivatives, UseDBF=F ICtDFT=           0.
 Calling FoFJK, ICntrl=      2127 FMM=F ISym2X=0 I1Cent= 0 IOpClX= 0 NMat=1 NMatS=1 NMatT=0.
 FoFJK:  IHMeth= 1 ICntrl=    2127 DoSepK=F KAlg= 0 I1Cent=           0 FoldK=F
 IRaf=         0 NMat=       1 IRICut=       1 DoRegI=T DoRafI=F ISym2E= 0 IDoP0=0 IntGTp=1.
 FoFCou: FMM=F IPFlag=           0 FMFlag=      100000 FMFlg1=         800
         NFxFlg=           0 DoJE=F BraDBF=F KetDBF=F FulRan=T
         wScrn=  0.000000 ICntrl=      2127 IOpCl=  0 I1Cent=           0 NGrid=           0
         NMat0=    1 NMatS0=      1 NMatT0=    0 NMatD0=    1 NMtDS0=    0 NMtDT0=    0
 Symmetry not used in FoFCou.
 Leave Link  703 at Wed Oct 11 11:55:36 2023, MaxMem=  6710886400 cpu:              32.0 elap:               1.4
 (Enter /data0/home/software/g16/l716.exe)
 Dipole        =-5.58956634D-06-9.09494131D-01 5.83573964D-05
 ***** Axes restored to original set *****
 -------------------------------------------------------------------
 Center     Atomic                   Forces (Hartrees/Bohr)
 Number     Number              X              Y              Z
 -------------------------------------------------------------------
      1        6           0.000057464   -0.000111337    0.000001418
      2        6           0.000003725    0.000036121   -0.000000357
      3        6          -0.000000677    0.000049339   -0.000000125
      4        6          -0.000002906    0.000035560    0.000000653
      5        6          -0.000058274   -0.000111827   -0.000002215
      6        7           0.000000530    0.000069331    0.000000290
      7        1           0.000000244    0.000021976   -0.000000049
      8        1          -0.000000254   -0.000021276   -0.000000514
      9        1          -0.000013763    0.000026505   -0.000000000
     10        1           0.000013519    0.000026849    0.000000187
     11        1           0.000000391   -0.000021241    0.000000712
 -------------------------------------------------------------------
 Cartesian Forces:  Max     0.000111827 RMS     0.000036773
 Leave Link  716 at Wed Oct 11 11:55:36 2023, MaxMem=  6710886400 cpu:               0.4 elap:               0.0
 (Enter /data0/home/software/g16/l103.exe)

 GradGradGradGradGradGradGradGradGradGradGradGradGradGradGradGradGradGrad
 Berny optimization.
 Using GEDIIS/GDIIS optimizer.
 FormGI is forming the generalized inverse of G from B-inverse, IUseBI=4.
 Internal  Forces:  Max     0.000098240 RMS     0.000027514
 Search for a local minimum.
 Step number   2 out of a maximum of   57
 All quantities printed in internal units (Hartrees-Bohrs-Radians)
 RMS Force = .27514D-04 SwitMx=.10000D-02 MixMth= 2
 Mixed Optimization -- En-DIIS/RFO-DIIS
 Swapping is turned off.
 Update second derivatives using D2CorX and points    1    2
 DE= -4.13D-06 DEPred=-4.37D-06 R= 9.46D-01
 TightC=F SS=  1.41D+00  RLast= 4.65D-03 DXNew= 5.0454D-01 1.3948D-02
 Trust test= 9.46D-01 RLast= 4.65D-03 DXMaxT set to 3.00D-01
 ITU=  1  0
     Eigenvalues ---    0.02210   0.02212   0.02219   0.02228   0.02246
     Eigenvalues ---    0.02297   0.02324   0.02474   0.15994   0.16000
     Eigenvalues ---    0.16000   0.16000   0.16141   0.21973   0.22000
     Eigenvalues ---    0.23059   0.35299   0.35315   0.35567   0.35623
     Eigenvalues ---    0.35854   0.42799   0.45201   0.47334   0.50577
     Eigenvalues ---    0.54257   0.57410
 En-DIIS/RFO-DIIS/Sim-DIIS IScMMF=       -3 using points:     2    1
 RFO step:  Lambda=-7.42429805D-08.
 NNeg= 0 NGDIIS= 2 SimSw=  2.50D-03 Rises=F DC= -4.13D-06 SmlDif=  1.00D-05
 NRisDI= 0 DoIntr=F SqrtH=F CThrHd= 10.0 CDAdj=  3.0
 RMS Error=  0.6881405617D-04 NUsed= 2 OKEnD=F EnDIS=F
 InvSVX:  RCond= 2.43D-05 Info=           0 Equed=N FErr=  9.51D-16 BErr=  1.05D-16
 DidBck=F Rises=F RFO-DIIS coefs:    0.94880    0.05120
 Iteration  1 RMS(Cart)=  0.00010926 RMS(Int)=  0.00000000
 Iteration  2 RMS(Cart)=  0.00000000 RMS(Int)=  0.00000000
 ITry= 1 IFail=0 DXMaxC= 3.58D-04 DCOld= 1.00D+10 DXMaxT= 3.00D-01 DXLimC= 3.00D+00 Rises=F
 Variable       Old X    -DE/DX   Delta X   Delta X   Delta X     New X
                                 (Linear)    (Quad)   (Total)
    R1        2.62822   0.00010   0.00010   0.00008   0.00018   2.62841
    R2        2.52226  -0.00006   0.00005  -0.00016  -0.00012   2.52214
    R3        2.05131   0.00001   0.00003  -0.00000   0.00003   2.05133
    R4        2.62427   0.00002   0.00007  -0.00002   0.00005   2.62431
    R5        2.04597   0.00002   0.00004   0.00002   0.00006   2.04603
    R6        2.62427   0.00002   0.00007  -0.00002   0.00005   2.62431
    R7        2.04717   0.00002   0.00004   0.00002   0.00005   2.04722
    R8        2.62822   0.00010   0.00010   0.00008   0.00018   2.62841
    R9        2.04597   0.00002   0.00004   0.00002   0.00006   2.04603
   R10        2.52226  -0.00007   0.00005  -0.00016  -0.00012   2.52214
   R11        2.05131   0.00001   0.00003  -0.00000   0.00003   2.05133
    A1        2.15596   0.00000   0.00005  -0.00006  -0.00001   2.15595
    A2        2.10023   0.00002   0.00000   0.00011   0.00011   2.10034
    A3        2.02700  -0.00002  -0.00005  -0.00005  -0.00010   2.02690
    A4        2.06841   0.00000  -0.00000   0.00004   0.00003   2.06845
    A5        2.09815   0.00002   0.00001   0.00007   0.00008   2.09824
    A6        2.11662  -0.00002  -0.00001  -0.00011  -0.00012   2.11650
    A7        2.06927  -0.00003  -0.00003  -0.00007  -0.00010   2.06917
    A8        2.10696   0.00002   0.00001   0.00004   0.00005   2.10701
    A9        2.10696   0.00002   0.00001   0.00003   0.00005   2.10701
   A10        2.06841   0.00000  -0.00000   0.00004   0.00003   2.06845
   A11        2.11662  -0.00002  -0.00001  -0.00011  -0.00012   2.11650
   A12        2.09815   0.00002   0.00001   0.00008   0.00009   2.09824
   A13        2.15596   0.00000   0.00005  -0.00006  -0.00001   2.15595
   A14        2.10023   0.00002   0.00000   0.00011   0.00011   2.10034
   A15        2.02700  -0.00002  -0.00005  -0.00005  -0.00010   2.02690
   A16        2.04836   0.00002  -0.00006   0.00011   0.00005   2.04841
    D1        0.00001  -0.00000  -0.00000  -0.00001  -0.00001  -0.00001
    D2       -3.14159  -0.00000  -0.00000  -0.00001  -0.00001   3.14159
    D3        3.14159   0.00000   0.00000   0.00001   0.00001  -3.14159
    D4       -0.00001   0.00000   0.00000   0.00001   0.00001   0.00000
    D5       -0.00000   0.00000   0.00000   0.00001   0.00001   0.00000
    D6       -3.14158  -0.00000  -0.00000  -0.00001  -0.00002   3.14159
    D7       -0.00000   0.00000   0.00000   0.00000   0.00000   0.00000
    D8        3.14159   0.00000   0.00000   0.00001   0.00001  -3.14159
    D9       -3.14159   0.00000   0.00000   0.00000   0.00000  -3.14159
   D10       -0.00000   0.00000   0.00000   0.00000   0.00000   0.00000
   D11       -0.00001   0.00000   0.00000   0.00001   0.00001   0.00000
   D12        3.14159   0.00000   0.00000   0.00001   0.00001  -3.14159
   D13        3.14159   0.00000   0.00000   0.00001   0.00001  -3.14159
   D14       -0.00000   0.00000  -0.00000   0.00001   0.00001   0.00000
   D15        0.00001  -0.00000  -0.00000  -0.00002  -0.00002  -0.00001
   D16        3.14158   0.00000   0.00000   0.00001   0.00001  -3.14159
   D17       -3.14158  -0.00000  -0.00000  -0.00002  -0.00002   3.14159
   D18       -0.00001   0.00000   0.00000   0.00002   0.00002   0.00001
   D19       -0.00001   0.00000   0.00000   0.00001   0.00001   0.00000
   D20       -3.14158  -0.00000  -0.00000  -0.00002  -0.00002   3.14159
         Item               Value     Threshold  Converged?
 Maximum Force            0.000098     0.000450     YES
 RMS     Force            0.000028     0.000300     YES
 Maximum Displacement     0.000358     0.001800     YES
 RMS     Displacement     0.000109     0.001200     YES
 Predicted change in Energy=-3.992414D-08
 Optimization completed.
    -- Stationary point found.
                           ----------------------------
                           !   Optimized Parameters   !
                           ! (Angstroms and Degrees)  !
 --------------------------                            --------------------------
 ! Name  Definition              Value          Derivative Info.                !
 --------------------------------------------------------------------------------
 ! R1    R(1,2)                  1.3908         -DE/DX =    0.0001              !
 ! R2    R(1,6)                  1.3347         -DE/DX =   -0.0001              !
 ! R3    R(1,8)                  1.0855         -DE/DX =    0.0                 !
 ! R4    R(2,3)                  1.3887         -DE/DX =    0.0                 !
 ! R5    R(2,9)                  1.0827         -DE/DX =    0.0                 !
 ! R6    R(3,4)                  1.3887         -DE/DX =    0.0                 !
 ! R7    R(3,7)                  1.0833         -DE/DX =    0.0                 !
 ! R8    R(4,5)                  1.3908         -DE/DX =    0.0001              !
 ! R9    R(4,10)                 1.0827         -DE/DX =    0.0                 !
 ! R10   R(5,6)                  1.3347         -DE/DX =   -0.0001              !
 ! R11   R(5,11)                 1.0855         -DE/DX =    0.0                 !
 ! A1    A(2,1,6)              123.5274         -DE/DX =    0.0                 !
 ! A2    A(2,1,8)              120.334          -DE/DX =    0.0                 !
 ! A3    A(6,1,8)              116.1386         -DE/DX =    0.0                 !
 ! A4    A(1,2,3)              118.5114         -DE/DX =    0.0                 !
 ! A5    A(1,2,9)              120.2153         -DE/DX =    0.0                 !
 ! A6    A(3,2,9)              121.2733         -DE/DX =    0.0                 !
 ! A7    A(2,3,4)              118.5603         -DE/DX =    0.0                 !
 ! A8    A(2,3,7)              120.7197         -DE/DX =    0.0                 !
 ! A9    A(4,3,7)              120.72           -DE/DX =    0.0                 !
 ! A10   A(3,4,5)              118.5114         -DE/DX =    0.0                 !
 ! A11   A(3,4,10)             121.2736         -DE/DX =    0.0                 !
 ! A12   A(5,4,10)             120.2151         -DE/DX =    0.0                 !
 ! A13   A(4,5,6)              123.5274         -DE/DX =    0.0                 !
 ! A14   A(4,5,11)             120.3341         -DE/DX =    0.0                 !
 ! A15   A(6,5,11)             116.1385         -DE/DX =    0.0                 !
 ! A16   A(1,6,5)              117.3622         -DE/DX =    0.0                 !
 ! D1    D(6,1,2,3)              0.0005         -DE/DX =    0.0                 !
 ! D2    D(6,1,2,9)            180.0003         -DE/DX =    0.0                 !
 ! D3    D(8,1,2,3)           -180.0003         -DE/DX =    0.0                 !
 ! D4    D(8,1,2,9)             -0.0005         -DE/DX =    0.0                 !
 ! D5    D(2,1,6,5)             -0.0002         -DE/DX =    0.0                 !
 ! D6    D(8,1,6,5)            180.0006         -DE/DX =    0.0                 !
 ! D7    D(1,2,3,4)             -0.0002         -DE/DX =    0.0                 !
 ! D8    D(1,2,3,7)           -180.0002         -DE/DX =    0.0                 !
 ! D9    D(9,2,3,4)           -180.0            -DE/DX =    0.0                 !
 ! D10   D(9,2,3,7)              0.0            -DE/DX =    0.0                 !
 ! D11   D(2,3,4,5)             -0.0004         -DE/DX =    0.0                 !
 ! D12   D(2,3,4,10)          -180.0003         -DE/DX =    0.0                 !
 ! D13   D(7,3,4,5)           -180.0003         -DE/DX =    0.0                 !
 ! D14   D(7,3,4,10)            -0.0002         -DE/DX =    0.0                 !
 ! D15   D(3,4,5,6)              0.0007         -DE/DX =    0.0                 !
 ! D16   D(3,4,5,11)          -180.0005         -DE/DX =    0.0                 !
 ! D17   D(10,4,5,6)           180.0007         -DE/DX =    0.0                 !
 ! D18   D(10,4,5,11)           -0.0006         -DE/DX =    0.0                 !
 ! D19   D(4,5,6,1)             -0.0004         -DE/DX =    0.0                 !
 ! D20   D(11,5,6,1)           180.0008         -DE/DX =    0.0                 !
 --------------------------------------------------------------------------------
 Lowest energy point so far.  Saving SCF results.
 Largest change from initial coordinates is atom    7       0.001 Angstoms.
 GradGradGradGradGradGradGradGradGradGradGradGradGradGradGradGradGradGrad

 Leave Link  103 at Wed Oct 11 11:55:36 2023, MaxMem=  6710886400 cpu:               0.4 elap:               0.0
 (Enter /data0/home/software/g16/l202.exe)
                          Input orientation:                          
 ---------------------------------------------------------------------
 Center     Atomic      Atomic             Coordinates (Angstroms)
 Number     Number       Type             X           Y           Z
 ---------------------------------------------------------------------
      1          6           0       -1.140241   -0.719563   -0.000209
      2          6           0       -1.193828    0.670198   -0.000119
      3          6           0        0.000009    1.379597    0.000093
      4          6           0        1.193836    0.670184    0.000211
      5          6           0        1.140232   -0.719577    0.000118
      6          7           0       -0.000009   -1.413360   -0.000092
      7          1           0        0.000013    2.462911    0.000165
      8          1           0       -2.055317   -1.303479   -0.000370
      9          1           0       -2.149716    1.178605   -0.000218
     10          1           0        2.149732    1.178575    0.000372
     11          1           0        2.055300   -1.303504    0.000198
 ---------------------------------------------------------------------
                    Distance matrix (angstroms):
                    1          2          3          4          5
     1  C    0.000000
     2  C    1.390794   0.000000
     3  C    2.388858   1.388702   0.000000
     4  C    2.716490   2.387665   1.388701   0.000000
     5  C    2.280473   2.716489   2.388857   1.390794   0.000000
     6  N    1.334722   2.401337   2.792957   2.401338   1.334723
     7  H    3.380581   2.153852   1.083315   2.153854   3.380582
     8  H    1.085505   2.153500   3.379831   3.801624   3.248458
     9  H    2.149903   1.082681   2.159100   3.381986   3.798269
    10  H    3.798270   3.381988   2.159102   1.082681   2.149900
    11  H    3.248457   3.801623   3.379831   2.153501   1.085505
                    6          7          8          9         10
     6  N    0.000000
     7  H    3.876271   0.000000
     8  H    2.058243   4.290697   0.000000
     9  H    3.367420   2.504152   2.483878   0.000000
    10  H    3.367420   2.504159   4.882933   4.299448   0.000000
    11  H    2.058243   4.290699   4.110617   4.882932   2.483875
                   11
    11  H    0.000000
 Stoichiometry    C5H5N
 Framework group  C1[X(C5H5N)]
 Deg. of freedom    27
 Full point group                 C1      NOp   1
 RotChk:  IX=3 Diff= 1.07D-14
 Largest Abelian subgroup         C1      NOp   1
 Largest concise Abelian subgroup C1      NOp   1
                         Standard orientation:                         
 ---------------------------------------------------------------------
 Center     Atomic      Atomic             Coordinates (Angstroms)
 Number     Number       Type             X           Y           Z
 ---------------------------------------------------------------------
      1          6           0        1.140241    0.719674   -0.000211
      2          6           0        1.193828   -0.670088   -0.000121
      3          6           0       -0.000008   -1.379487    0.000092
      4          6           0       -1.193836   -0.670074    0.000209
      5          6           0       -1.140232    0.719687    0.000117
      6          7           0        0.000009    1.413470   -0.000094
      7          1           0       -0.000012   -2.462801    0.000164
      8          1           0        2.055317    1.303590   -0.000372
      9          1           0        2.149716   -1.178494   -0.000220
     10          1           0       -2.149732   -1.178466    0.000370
     11          1           0       -2.055301    1.303614    0.000196
 ---------------------------------------------------------------------
 Rotational constants (GHZ):           6.0714458           5.8563691           2.9809842
 Leave Link  202 at Wed Oct 11 11:55:36 2023, MaxMem=  6710886400 cpu:               0.1 elap:               0.0
 (Enter /data0/home/software/g16/l601.exe)
 Copying SCF densities to generalized density rwf, IOpCl= 0 IROHF=0.

 **********************************************************************

            Population analysis using the SCF density.

 **********************************************************************

 Orbital symmetries:
       Occupied  (A) (A) (A) (A) (A) (A) (A) (A) (A) (A) (A) (A)
                 (A) (A) (A) (A) (A) (A) (A) (A) (A)
       Virtual   (A) (A) (A) (A) (A) (A) (A) (A) (A) (A) (A) (A)
                 (A) (A) (A) (A) (A) (A) (A) (A) (A) (A) (A) (A)
                 (A) (A) (A) (A) (A) (A) (A) (A) (A) (A) (A) (A)
                 (A) (A) (A) (A) (A) (A) (A) (A) (A) (A) (A) (A)
                 (A) (A) (A) (A) (A) (A) (A) (A) (A) (A) (A) (A)
                 (A) (A) (A) (A) (A) (A) (A) (A) (A) (A) (A) (A)
                 (A) (A) (A) (A) (A) (A) (A) (A) (A) (A) (A) (A)
                 (A) (A) (A) (A) (A) (A) (A) (A) (A) (A) (A) (A)
                 (A) (A) (A) (A) (A) (A) (A) (A) (A) (A) (A) (A)
                 (A) (A) (A) (A) (A) (A) (A) (A) (A) (A) (A) (A)
                 (A) (A) (A) (A) (A) (A) (A) (A) (A) (A) (A) (A)
                 (A) (A) (A) (A) (A) (A) (A) (A) (A) (A) (A) (A)
                 (A) (A) (A) (A) (A) (A) (A) (A) (A) (A) (A) (A)
                 (A) (A) (A) (A) (A) (A) (A) (A) (A) (A) (A) (A)
                 (A) (A) (A)
 The electronic state is 1-A.
 Alpha  occ. eigenvalues --  -14.31477 -10.21153 -10.21153 -10.19815 -10.18822
 Alpha  occ. eigenvalues --  -10.18819  -0.95145  -0.81465  -0.77103  -0.63923
 Alpha  occ. eigenvalues --   -0.63751  -0.53873  -0.49174  -0.47847  -0.43854
 Alpha  occ. eigenvalues --   -0.41384  -0.40791  -0.37418  -0.29866  -0.27382
 Alpha  occ. eigenvalues --   -0.26554
 Alpha virt. eigenvalues --   -0.04066  -0.02736   0.00041   0.01957   0.02721
 Alpha virt. eigenvalues --    0.04652   0.05071   0.05398   0.06189   0.08500
 Alpha virt. eigenvalues --    0.08520   0.09426   0.09723   0.11788   0.13588
 Alpha virt. eigenvalues --    0.13883   0.13895   0.14478   0.14921   0.15703
 Alpha virt. eigenvalues --    0.16589   0.19435   0.19943   0.20166   0.20727
 Alpha virt. eigenvalues --    0.20898   0.22409   0.23193   0.24368   0.24936
 Alpha virt. eigenvalues --    0.27507   0.29647   0.30520   0.31583   0.31658
 Alpha virt. eigenvalues --    0.32629   0.42725   0.45311   0.47540   0.47979
 Alpha virt. eigenvalues --    0.50296   0.50840   0.52203   0.52608   0.54445
 Alpha virt. eigenvalues --    0.55862   0.56517   0.60009   0.60957   0.61234
 Alpha virt. eigenvalues --    0.61890   0.62342   0.63354   0.64999   0.68475
 Alpha virt. eigenvalues --    0.72394   0.73105   0.75799   0.76941   0.78199
 Alpha virt. eigenvalues --    0.78267   0.80171   0.80347   0.80899   0.82290
 Alpha virt. eigenvalues --    0.84630   0.85419   0.87218   0.91450   0.91701
 Alpha virt. eigenvalues --    0.92703   0.99067   1.04628   1.12965   1.13801
 Alpha virt. eigenvalues --    1.15897   1.17572   1.25071   1.27900   1.31618
 Alpha virt. eigenvalues --    1.31649   1.31682   1.34090   1.35919   1.40651
 Alpha virt. eigenvalues --    1.40667   1.46042   1.47119   1.49002   1.49454
 Alpha virt. eigenvalues --    1.52385   1.58752   1.61255   1.64228   1.71554
 Alpha virt. eigenvalues --    1.81212   1.84029   1.87895   1.92113   1.96902
 Alpha virt. eigenvalues --    2.00762   2.14894   2.15435   2.21970   2.36496
 Alpha virt. eigenvalues --    2.38424   2.48332   2.49167   2.64403   2.65590
 Alpha virt. eigenvalues --    2.68935   2.68964   2.73698   2.74331   2.78952
 Alpha virt. eigenvalues --    2.80469   2.81086   2.81327   2.83033   2.99306
 Alpha virt. eigenvalues --    3.00831   3.05775   3.08959   3.09087   3.11079
 Alpha virt. eigenvalues --    3.18482   3.19831   3.25664   3.26048   3.26483
 Alpha virt. eigenvalues --    3.27139   3.33099   3.40149   3.40984   3.41447
 Alpha virt. eigenvalues --    3.51046   3.53949   3.56109   3.56109   3.56371
 Alpha virt. eigenvalues --    3.57774   3.58637   3.66369   3.67491   3.68658
 Alpha virt. eigenvalues --    3.74354   3.78207   3.79050   3.84511   3.88748
 Alpha virt. eigenvalues --    3.95507   3.95571   3.96980   3.99957   4.42452
 Alpha virt. eigenvalues --    4.53446   4.55616   4.83209   4.96904   5.00834
 Alpha virt. eigenvalues --    5.06654   5.14055   5.23475   5.62174   5.64593
 Alpha virt. eigenvalues --   23.73725  24.00093  24.00490  24.04020  24.08894
 Alpha virt. eigenvalues --   35.65933
          Condensed to atoms (all electrons):
               1          2          3          4          5          6
     1  C    5.041291   0.327852   0.037245  -0.202975   0.120833   0.272362
     2  C    0.327852   4.942944   0.466799   0.055728  -0.202975   0.127980
     3  C    0.037245   0.466799   4.834837   0.466799   0.037245  -0.093412
     4  C   -0.202975   0.055728   0.466799   4.942944   0.327852   0.127981
     5  C    0.120833  -0.202975   0.037245   0.327852   5.041292   0.272362
     6  N    0.272362   0.127980  -0.093412   0.127981   0.272362   6.737571
     7  H    0.005184  -0.038912   0.404477  -0.038912   0.005183   0.000389
     8  H    0.449998  -0.089655   0.018987  -0.005074   0.015624  -0.076069
     9  H   -0.044655   0.407514  -0.047453   0.017266   0.001998   0.002559
    10  H    0.001998   0.017266  -0.047453   0.407514  -0.044655   0.002559
    11  H    0.015624  -0.005074   0.018987  -0.089655   0.449998  -0.076069
               7          8          9         10         11
     1  C    0.005184   0.449998  -0.044655   0.001998   0.015624
     2  C   -0.038912  -0.089655   0.407514   0.017266  -0.005074
     3  C    0.404477   0.018987  -0.047453  -0.047453   0.018987
     4  C   -0.038912  -0.005074   0.017266   0.407514  -0.089655
     5  C    0.005183   0.015624   0.001998  -0.044655   0.449998
     6  N    0.000389  -0.076069   0.002559   0.002559  -0.076069
     7  H    0.584548  -0.000393  -0.005975  -0.005975  -0.000393
     8  H   -0.000393   0.593678  -0.003009   0.000140  -0.000050
     9  H   -0.005975  -0.003009   0.581280  -0.000309   0.000140
    10  H   -0.005975   0.000140  -0.000309   0.581280  -0.003009
    11  H   -0.000393  -0.000050   0.000140  -0.003009   0.593678
 Mulliken charges:
               1
     1  C   -0.024758
     2  C   -0.009466
     3  C   -0.097059
     4  C   -0.009467
     5  C   -0.024757
     6  N   -0.298211
     7  H    0.090779
[...]
    A6        2.11662  -0.00002   0.00000  -0.00014  -0.00014   2.11648
    A7        2.06927  -0.00003   0.00000  -0.00007  -0.00007   2.06920
    A8        2.10696   0.00002   0.00000   0.00004   0.00004   2.10699
    A9        2.10696   0.00002   0.00000   0.00003   0.00003   2.10699
   A10        2.06841   0.00000   0.00000   0.00002   0.00002   2.06843
   A11        2.11662  -0.00002   0.00000  -0.00014  -0.00014   2.11648
   A12        2.09815   0.00002   0.00000   0.00013   0.00013   2.09827
   A13        2.15596   0.00000   0.00000  -0.00004  -0.00004   2.15592
   A14        2.10023   0.00002   0.00000   0.00010   0.00010   2.10033
   A15        2.02700  -0.00002   0.00000  -0.00006  -0.00006   2.02694
   A16        2.04836   0.00002   0.00000   0.00012   0.00012   2.04848
    D1        0.00001  -0.00000   0.00000  -0.00001  -0.00001  -0.00000
    D2       -3.14159  -0.00000   0.00000  -0.00001  -0.00001   3.14159
    D3        3.14159   0.00000   0.00000   0.00001   0.00001   3.14159
    D4       -0.00001   0.00000   0.00000   0.00001   0.00001  -0.00000
    D5       -0.00000   0.00000   0.00000   0.00000   0.00000   0.00000
    D6       -3.14158  -0.00000   0.00000  -0.00001  -0.00001   3.14159
    D7       -0.00000   0.00000   0.00000   0.00000   0.00000   0.00000
    D8        3.14159   0.00000   0.00000   0.00000   0.00000  -3.14159
    D9       -3.14159   0.00000   0.00000  -0.00000  -0.00000  -3.14159
   D10       -0.00000   0.00000   0.00000   0.00000   0.00000   0.00000
   D11       -0.00001   0.00000   0.00000   0.00001   0.00001   0.00000
   D12        3.14159   0.00000   0.00000   0.00001   0.00001   3.14159
   D13        3.14159   0.00000   0.00000   0.00001   0.00001  -3.14159
   D14       -0.00000   0.00000   0.00000   0.00000   0.00000   0.00000
   D15        0.00001  -0.00000   0.00000  -0.00001  -0.00001  -0.00000
   D16        3.14158   0.00000   0.00000   0.00001   0.00001   3.14159
   D17       -3.14158  -0.00000   0.00000  -0.00001  -0.00001   3.14159
   D18       -0.00001   0.00000   0.00000   0.00001   0.00001  -0.00000
   D19       -0.00001   0.00000   0.00000   0.00001   0.00001   0.00000
   D20       -3.14158  -0.00000   0.00000  -0.00001  -0.00001  -3.14159
         Item               Value     Threshold  Converged?
 Maximum Force            0.000098     0.000450     YES
 RMS     Force            0.000028     0.000300     YES
 Maximum Displacement     0.000384     0.001800     YES
 RMS     Displacement     0.000115     0.001200     YES
 Predicted change in Energy=-4.481034D-08
 Optimization completed.
    -- Stationary point found.
                           ----------------------------
                           !   Optimized Parameters   !
                           ! (Angstroms and Degrees)  !
 --------------------------                            --------------------------
 ! Name  Definition              Value          Derivative Info.                !
 --------------------------------------------------------------------------------
 ! R1    R(1,2)                  1.3908         -DE/DX =    0.0001              !
 ! R2    R(1,6)                  1.3347         -DE/DX =   -0.0001              !
 ! R3    R(1,8)                  1.0855         -DE/DX =    0.0                 !
 ! R4    R(2,3)                  1.3887         -DE/DX =    0.0                 !
 ! R5    R(2,9)                  1.0827         -DE/DX =    0.0                 !
 ! R6    R(3,4)                  1.3887         -DE/DX =    0.0                 !
 ! R7    R(3,7)                  1.0833         -DE/DX =    0.0                 !
 ! R8    R(4,5)                  1.3908         -DE/DX =    0.0001              !
 ! R9    R(4,10)                 1.0827         -DE/DX =    0.0                 !
 ! R10   R(5,6)                  1.3347         -DE/DX =   -0.0001              !
 ! R11   R(5,11)                 1.0855         -DE/DX =    0.0                 !
 ! A1    A(2,1,6)              123.5274         -DE/DX =    0.0                 !
 ! A2    A(2,1,8)              120.334          -DE/DX =    0.0                 !
 ! A3    A(6,1,8)              116.1386         -DE/DX =    0.0                 !
 ! A4    A(1,2,3)              118.5114         -DE/DX =    0.0                 !
 ! A5    A(1,2,9)              120.2153         -DE/DX =    0.0                 !
 ! A6    A(3,2,9)              121.2733         -DE/DX =    0.0                 !
 ! A7    A(2,3,4)              118.5603         -DE/DX =    0.0                 !
 ! A8    A(2,3,7)              120.7197         -DE/DX =    0.0                 !
 ! A9    A(4,3,7)              120.72           -DE/DX =    0.0                 !
 ! A10   A(3,4,5)              118.5114         -DE/DX =    0.0                 !
 ! A11   A(3,4,10)             121.2736         -DE/DX =    0.0                 !
 ! A12   A(5,4,10)             120.2151         -DE/DX =    0.0                 !
 ! A13   A(4,5,6)              123.5274         -DE/DX =    0.0                 !
 ! A14   A(4,5,11)             120.3341         -DE/DX =    0.0                 !
 ! A15   A(6,5,11)             116.1385         -DE/DX =    0.0                 !
 ! A16   A(1,6,5)              117.3622         -DE/DX =    0.0                 !
 ! D1    D(6,1,2,3)              0.0005         -DE/DX =    0.0                 !
 ! D2    D(6,1,2,9)            180.0003         -DE/DX =    0.0                 !
 ! D3    D(8,1,2,3)            179.9997         -DE/DX =    0.0                 !
 ! D4    D(8,1,2,9)             -0.0005         -DE/DX =    0.0                 !
 ! D5    D(2,1,6,5)             -0.0002         -DE/DX =    0.0                 !
 ! D6    D(8,1,6,5)            180.0006         -DE/DX =    0.0                 !
 ! D7    D(1,2,3,4)             -0.0002         -DE/DX =    0.0                 !
 ! D8    D(1,2,3,7)           -180.0002         -DE/DX =    0.0                 !
 ! D9    D(9,2,3,4)           -180.0            -DE/DX =    0.0                 !
 ! D10   D(9,2,3,7)              0.0            -DE/DX =    0.0                 !
 ! D11   D(2,3,4,5)             -0.0004         -DE/DX =    0.0                 !
 ! D12   D(2,3,4,10)           179.9997         -DE/DX =    0.0                 !
 ! D13   D(7,3,4,5)           -180.0003         -DE/DX =    0.0                 !
 ! D14   D(7,3,4,10)            -0.0002         -DE/DX =    0.0                 !
 ! D15   D(3,4,5,6)              0.0007         -DE/DX =    0.0                 !
 ! D16   D(3,4,5,11)           179.9995         -DE/DX =    0.0                 !
 ! D17   D(10,4,5,6)           180.0007         -DE/DX =    0.0                 !
 ! D18   D(10,4,5,11)           -0.0006         -DE/DX =    0.0                 !
 ! D19   D(4,5,6,1)             -0.0004         -DE/DX =    0.0                 !
 ! D20   D(11,5,6,1)          -179.9992         -DE/DX =    0.0                 !
 --------------------------------------------------------------------------------
 GradGradGradGradGradGradGradGradGradGradGradGradGradGradGradGradGradGrad

 Leave Link  103 at Wed Oct 11 11:56:19 2023, MaxMem=  6710886400 cpu:               0.3 elap:               0.0
 (Enter /data0/home/software/g16/l9999.exe)

 ----------------------------------------------------------------------

 Electric dipole moment (input orientation):
 (Debye = 10**-18 statcoulomb cm , SI units = C m)
                  (au)            (Debye)         (10**-30 SI)
   Tot        0.909492D+00      0.231170D+01      0.771100D+01
   x          0.000000D+00      0.000000D+00      0.000000D+00
   y          0.909492D+00      0.231170D+01      0.771100D+01
   z          0.583578D-04      0.148331D-03      0.494778D-03

 Dipole polarizability, Alpha (input orientation).
 (esu units = cm**3 , SI units = C**2 m**2 J**-1)
 Alpha(0;0):
               (au)            (10**-24 esu)      (10**-40 SI)
   iso        0.620565D+02      0.919582D+01      0.102317D+02
   aniso      0.348642D+02      0.516634D+01      0.574832D+01
   xx         0.756993D+02      0.112175D+02      0.124811D+02
   yx        -0.318516D-04     -0.471992D-05     -0.525162D-05
   yy         0.715315D+02      0.105999D+02      0.117939D+02
   zx         0.516434D-02      0.765276D-03      0.851485D-03
   zy         0.214936D-02      0.318503D-03      0.354382D-03
   zz         0.389386D+02      0.577010D+01      0.642010D+01

 ----------------------------------------------------------------------

 Dipole orientation:
     6         -2.15473520          0.00032152         -1.35979177
     6         -2.25601676          0.00032150          1.26647622
     6         -0.00000032         -0.00000933          2.60706027
     6          2.25601563         -0.00033136          1.26647847
     6          2.15473497         -0.00032495         -1.35978951
     7         -0.00000032          0.00000223         -2.67086302
     1         -0.00000578         -0.00001370          4.65422812
     1         -3.88397109          0.00056635         -2.46324297
     1         -4.06238799          0.00058081          2.22721456
     1          4.06239042         -0.00058607          2.22721052
     1          3.88397006         -0.00055629         -2.46324128

 Electric dipole moment (dipole orientation):
 (Debye = 10**-18 statcoulomb cm , SI units = C m)
                  (au)            (Debye)         (10**-30 SI)
   Tot        0.909492D+00      0.231170D+01      0.771100D+01
   x          0.000000D+00      0.000000D+00      0.000000D+00
   y          0.000000D+00      0.000000D+00      0.000000D+00
   z          0.909492D+00      0.231170D+01      0.771100D+01

 Dipole polarizability, Alpha (dipole orientation).
 (esu units = cm**3 , SI units = C**2 m**2 J**-1)
 Alpha(0;0):
               (au)            (10**-24 esu)      (10**-40 SI)
   iso        0.620565D+02      0.919582D+01      0.102317D+02
   aniso      0.348642D+02      0.516634D+01      0.574832D+01
   xx         0.756993D+02      0.112175D+02      0.124811D+02
   yx        -0.540067D-02     -0.800296D-03     -0.890450D-03
   yy         0.389386D+02      0.577010D+01      0.642010D+01
   zx         0.000000D+00      0.000000D+00      0.000000D+00
   zy        -0.580656D-04     -0.860443D-05     -0.957372D-05
   zz         0.715315D+02      0.105999D+02      0.117939D+02

 ----------------------------------------------------------------------
 1\1\GINC-LOCALHOST\Freq\RB3LYP\6-311+G(2d,p)\C5H5N1\WUHANYU\11-Oct-202
 3\0\\#P Geom=AllCheck Guess=TCheck SCRF=Check GenChk RB3LYP/6-311+G(2d
 ,p) Freq\\Title Card Required\\0,1\C,-1.1402413882,-0.7195634714,-0.00
 02089804\C,-1.1938283513,0.6701980398,-0.0001194503\C,0.0000086984,1.3
 795968803,0.000093459\C,1.1938363708,0.6701838553,0.0002106755\C,1.140
 2320158,-0.7195769621,0.0001184543\N,-0.0000092562,-1.4133598414,-0.00
 00918699\H,0.0000127749,2.4629114525,0.0001652818\H,-2.0553173725,-1.3
 034788081,-0.0003701235\H,-2.1497155723,1.178605025,-0.0002179075\H,2.
 1497320134,1.1785752081,0.0003719362\H,2.0553000671,-1.303504378,0.000
 1975247\\Version=ES64L-G16RevA.03\State=1-A\HF=-248.3751159\RMSD=2.053
 e-09\RMSF=3.679e-05\ZeroPoint=0.0884608\Thermal=0.0927407\Dipole=0.000
 0058,0.9094925,0.0000584\DipoleDeriv=0.2763448,0.0189197,0.00004,0.216
 7803,0.3002797,0.0000518,0.0000499,0.0000198,-0.0039021,-0.0481553,-0.
 0896431,0.0000008,-0.249948,-0.1757913,-0.0000398,-0.0000072,-0.000017
 1,-0.1067295,0.1673131,-0.0000002,0.0000391,-0.0000008,0.1839076,0.000
 019,0.0000385,0.0000193,-0.1012322,-0.0481498,0.089641,0.0000121,0.249
 9462,-0.1757954,0.0000296,0.0000246,0.0000066,-0.1067293,0.2763403,-0.
 0189191,0.0000365,-0.2167796,0.3002816,-0.0000113,0.0000185,0.0000219,
 -0.0039024,-0.4183658,-0.0000001,-0.0000155,-0.0000004,-0.4874277,-0.0
 000127,-0.0000189,-0.0000135,-0.28716,0.0775265,-0.0000002,-0.0000064,
 -0.0000009,-0.0834041,-0.0000138,-0.000007,-0.0000135,0.1246617,-0.082
 4082,-0.0548066,-0.0000301,-0.079044,0.0304805,-0.0000163,-0.0000283,-
 0.0000106,0.1059577,-0.0590187,0.0645116,-0.0000228,0.0656353,0.038493
 9,0.0000024,-0.0000234,0.000002,0.1365392,-0.0590208,-0.0645106,-0.000
 031,-0.0656332,0.0384963,-0.0000152,-0.0000311,-0.0000146,0.1365391,-0
 .082406,0.0548077,-0.0000226,0.0790452,0.0304789,0.0000062,-0.0000156,
 -0.0000003,0.1059579\Polar=75.6993207,-0.0000319,71.5314681,0.0051643,
 0.0021494,38.9385745\Quadrupole=3.8944031,-1.4376748,-2.4567284,-0.000
 039,0.0008612,0.0000667\PG=C01 [X(C5H5N1)]\NImag=0\\0.72696498,0.05601
 924,0.67577790,0.00008265,0.00004198,0.15834211,-0.13790244,0.03271255
 ,-0.00000714,0.73572035,-0.03890041,-0.31576370,-0.00002249,-0.0359568
 3,0.66747847,-0.00001191,-0.00001272,-0.07052307,0.00008170,0.00003177
 ,0.12985108,0.04304944,-0.08150686,-0.00000064,-0.28276096,-0.05789315
 ,-0.00003441,0.65775277,-0.03281227,-0.02874230,-0.00000697,-0.1216578
 2,-0.18763758,-0.00002527,-0.00000107,0.74993286,0.00000245,-0.0000139
 0,0.00880228,-0.00003853,-0.00001627,-0.06319829,0.00007154,0.00004050
 ,0.14008186,-0.01842628,0.02464559,0.00000051,-0.05814147,-0.02068748,
 -0.00001032,-0.28276026,0.12165981,-0.00002209,0.73572335,0.04029453,-
 0.05781006,0.00000244,0.02068909,0.06984714,0.00000713,0.05789536,-0.1
 8764018,-0.00000033,0.03595440,0.66747678,0.00000147,0.00000035,-0.010
 55334,-0.00000765,0.00000111,0.00685060,-0.00002617,0.00000872,-0.0631
 9799,0.00008481,0.00003865,0.12985096,-0.09960984,0.02623586,-0.000012
 81,-0.01842713,-0.04029500,-0.00000384,0.04305081,0.03281142,0.0000067
 3,-0.13790234,0.03889814,-0.00000658,0.72696221,-0.02623380,0.06301086
 ,0.00000040,-0.02464607,-0.05780925,-0.00000660,0.08150603,-0.02874382
 ,0.00000897,-0.03271494,-0.31576387,-0.00001928,-0.05602109,0.67577943
 ,-0.00001621,0.00000763,0.00355147,-0.00000275,-0.00000871,-0.01055336
 ,0.00001018,0.00000187,0.00880227,-0.00001133,-0.00000966,-0.07052308,
 0.00007395,0.00002694,0.15834219,-0.27423408,0.07488677,-0.00002433,0.
 02877181,0.10104999,0.00000726,-0.08239466,0.00000055,-0.00000984,0.02
 877014,-0.10105061,-0.00000614,-0.27423462,-0.07488463,-0.00003416,0.6
 3858665,0.10458857,-0.18328434,0.00000719,0.03686241,-0.02947683,0.000
 00160,0.00000053,0.00429259,0.00000102,-0.03686303,-0.02947499,-0.0000
 0873,-0.10458646,-0.18328171,-0.00002261,-0.00000252,0.40595290,-0.000
 02259,0.00000331,-0.06804097,0.00000320,0.00001059,0.02414046,-0.00001
 026,0.00000100,-0.01074897,-0.00000165,-0.00001760,0.02414044,-0.00003
 650,-0.00001890,-0.06804121,0.00007734,0.00002072,0.09500741,-0.004928
 54,-0.00251675,-0.00000205,0.00566618,-0.02842345,-0.00000177,-0.06109
 639,-0.00000098,-0.00000286,0.00566655,0.02842314,0.00000196,-0.004928
 47,0.00251682,-0.00000170,-0.00072449,0.00000001,0.00000049,0.05809710
 ,-0.00358262,0.00093032,-0.00000100,0.00208404,-0.01173360,-0.00000080
 ,-0.00000110,-0.33495927,-0.00001954,-0.00208424,-0.01173375,-0.000001
 36,0.00358267,0.00093028,-0.00000005,0.,0.00056952,0.00000031,0.000001
 25,0.35561245,-0.00000219,-0.00000077,0.00873695,0.00000014,-0.0000051
 4,0.00478666,-0.00000268,-0.00001953,-0.04005040,-0.00000014,0.0000029
 6,0.00478660,-0.00000170,-0.00000027,0.00873696,0.00000062,0.00000033,
 -0.00417710,0.00000444,0.00002183,0.02593318,-0.23586230,-0.12708663,-
 0.00003457,0.00471271,0.00206858,-0.00000011,0.00118675,0.00058753,-0.
 00000076,-0.00001499,0.00022063,0.00000009,-0.00202287,0.00267398,-0.0
 0000155,-0.03416360,-0.00699185,-0.00000471,0.00011318,0.00026365,0.00
 000009,0.26638502,-0.12755313,-0.14655661,-0.00002419,-0.02736973,-0.0
 1155568,-0.00000493,0.00153458,-0.00589132,-0.00000066,0.00112476,-0.0
 0035578,0.00000017,0.00456846,0.00050894,0.,0.01852934,0.01430995,0.00
 000378,-0.00142404,-0.00067289,-0.00000022,0.12962730,0.14908337,-0.00
 003418,-0.00002391,-0.04168552,-0.00000222,-0.00000106,0.00673631,-0.0
 0000072,-0.00000086,0.00714620,0.00000020,-0.00000002,-0.00057765,-0.0
 0000146,-0.00000015,0.01073931,-0.00000327,0.00000027,-0.00402185,-0.0
 0000004,0.,-0.00038961,0.00004107,0.00002556,0.02652684,0.00271767,-0.
 00166426,0.00000012,-0.27499592,0.11509286,-0.00002551,-0.01860718,0.0
 1492657,-0.00000195,-0.00262827,-0.00416552,-0.00000174,0.00025433,-0.
 00094846,0.00000003,0.00189330,0.00001009,-0.00000083,0.00101084,-0.00
 023075,0.00000068,0.00043426,0.00049397,0.00000052,0.29070687,0.030651
 64,-0.00671311,0.00000378,0.11494540,-0.12216081,0.00001003,-0.0157470
 1,0.01264014,-0.00000151,-0.00346170,-0.00083229,-0.00000108,-0.002096
 70,-0.00135795,-0.00000037,0.00068950,-0.00695858,-0.00000092,0.000661
 98,0.00086492,0.00000042,-0.00055566,0.00068319,0.00000019,-0.12447050
 ,0.12326188,0.00000240,-0.00000081,0.00098915,-0.00002558,0.00001015,-
 0.03550425,-0.00000399,0.00000275,0.00260845,-0.00000170,-0.00000115,0
 .00799149,-0.00000008,-0.00000024,-0.00035834,-0.00000078,-0.00000098,
 0.00788182,0.00000073,0.00000029,-0.00398681,0.00000043,0.00000031,-0.
 00305594,0.00002853,-0.00001060,0.02493645,0.00025437,0.00094843,0.000
 00015,-0.00262814,0.00416554,-0.00000116,-0.01860704,-0.01492612,-0.00
 000387,-0.27499947,-0.11509035,-0.00003970,0.00271721,0.00166410,0.000
 00032,0.00189329,-0.00001022,-0.00000079,0.00101083,0.00023075,0.00000
 069,0.00001623,-0.00008967,0.00000025,-0.00080214,-0.00086631,-0.00000
 022,0.29071058,0.00209669,-0.00135800,0.00000024,0.00346173,-0.0008323
 9,-0.00000006,0.01574735,0.01264018,0.00000278,-0.11494266,-0.12215703
 ,-0.00002093,-0.03065190,-0.00671288,-0.00000472,-0.00068962,-0.006958
 57,-0.00000103,-0.00066201,0.00086490,0.00000021,-0.00024938,0.0001321
 3,0.00000008,0.00086633,0.00044050,0.00000014,0.12446780,0.12325796,0.
 00000019,0.00000007,-0.00035834,-0.00000123,-0.00000001,0.00799151,-0.
 00000193,-0.00000138,0.00260840,-0.00003966,-0.00002109,-0.03550432,-0
 .00000161,-0.00000017,0.00098922,-0.00000091,-0.00000099,0.00788182,0.
 00000064,0.00000036,-0.00398681,0.00000025,0.00000011,-0.00186599,-0.0
 0000011,-0.00000011,0.00036397,0.00004388,0.00002301,0.02493649,-0.002
 02298,-0.00267395,-0.00000189,-0.00001500,-0.00022064,0.00000006,0.001
 18672,-0.00058762,-0.00000081,0.00471304,-0.00206883,-0.00000036,-0.23
 585929,0.12708806,-0.00001679,-0.03416373,0.00699249,-0.00000370,0.000
 11320,-0.00026366,0.00000005,-0.00078440,0.00055815,-0.00000015,0.0000
 1624,0.00024938,0.00000027,0.00043428,0.00055566,0.00000049,0.26638193
 ,-0.00456843,0.00050903,-0.00000138,-0.00112477,-0.00035577,-0.0000001
 4,-0.00153466,-0.00589130,-0.00000107,0.02736948,-0.01155596,0.0000023
 8,0.12755459,-0.14656003,0.00000968,-0.01852877,0.01431005,-0.00000126
 ,0.00142403,-0.00067289,0.00000018,-0.00055814,0.00031470,-0.00000010,
 0.00008967,0.00013213,0.00000015,-0.00049396,0.00068319,0.00000020,-0.
 12962905,0.14908686,-0.00000208,-0.00000122,0.01073929,0.00000006,0.00
 000005,-0.00057765,-0.00000093,-0.00000083,0.00714619,0.00000137,-0.00
 000133,0.00673629,-0.00001611,0.00000929,-0.04168543,-0.00000579,0.000
 00218,-0.00402185,0.00000014,-0.00000004,-0.00038960,-0.00000022,0.000
 00008,0.00044791,0.00000027,0.00000018,-0.00186599,0.00000044,0.000000
 29,-0.00305595,0.00002283,-0.00000865,0.02652678\\-0.00005747,0.000111
 40,-0.00000142,-0.00000372,-0.00003606,0.00000036,0.00000068,-0.000049
 38,0.00000012,0.00000290,-0.00003550,-0.00000065,0.00005828,0.00011189
 ,0.00000222,-0.00000053,-0.00006941,-0.00000029,-0.00000024,-0.0000220
 0,0.00000005,0.00000022,0.00002125,0.00000051,0.00001380,-0.00002653,0
 .,-0.00001355,-0.00002687,-0.00000019,-0.00000036,0.00002121,-0.000000
 71\\\@


 Where a calculator on the ENIAC is equipped with 18,000
 vacuum tubes and weighs 30 tons, computers inthe future
 may  have only 1,000 vacuum tubes and weigh only 1 1/2 tons.
              ---Popular Mechanics, March 1949
 Job cpu time:       0 days  0 hours 16 minutes 55.7 seconds.
 Elapsed time:       0 days  0 hours  0 minutes 43.2 seconds.
 File lengths (MBytes):  RWF=     40 Int=      0 D2E=      0 Chk=      4 Scr=      1
 Normal termination of Gaussian 16 at Wed Oct 11 11:56:19 2023.
