 Entering Gaussian System, Link 0=g16
 Initial command:
 /data0/home/software/g16/l1.exe "/data0/home/software/g16/scratch/Gau-2487681.inp" -scrdir="/data0/home/software/g16/scratch/"
 Default is to use a total of  22 processors:
                               22 via shared-memory
                                1 via Linda
 Entering Link 1 = /data0/home/software/g16/l1.exe PID=   2487682.
  
 Copyright (c) 1988,1990,1992,1993,1995,1998,2003,2009,2016,
            Gaussian, Inc.  All Rights Reserved.
  
 This is part of the Gaussian(R) 16 program.  It is based on
 the Gaussian(R) 09 system (copyright 2009, Gaussian, Inc.),
 the Gaussian(R) 03 system (copyright 2003, Gaussian, Inc.),
 the Gaussian(R) 98 system (copyright 1998, Gaussian, Inc.),
 the Gaussian(R) 94 system (copyright 1995, Gaussian, Inc.),
 the Gaussian 92(TM) system (copyright 1992, Gaussian, Inc.),
 the Gaussian 90(TM) system (copyright 1990, Gaussian, Inc.),
 the Gaussian 88(TM) system (copyright 1988, Gaussian, Inc.),
 the Gaussian 86(TM) system (copyright 1986, Carnegie Mellon
 University), and the Gaussian 82(TM) system (copyright 1983,
 Carnegie Mellon University). Gaussian is a federally registered
 trademark of Gaussian, Inc.
  
 This software contains proprietary and confidential information,
 including trade secrets, belonging to Gaussian, Inc.
  
 This software is provided under written license and may be
 used, copied, transmitted, or stored only in accord with that
 written license.
  
 The following legend is applicable only to US Government
 contracts under FAR:
  
                    RESTRICTED RIGHTS LEGEND
  
 Use, reproduction and disclosure by the US Government is
 subject to restrictions as set forth in subparagraphs (a)
 and (c) of the Commercial Computer Software - Restricted
 Rights clause in FAR 52.227-19.
  
 Gaussian, Inc.
 340 Quinnipiac St., Bldg. 40, Wallingford CT 06492
  
  
 ---------------------------------------------------------------
 Warning -- This program may not be used in any manner that
 competes with the business of Gaussian, Inc. or will provide
 assistance to any competitor of Gaussian, Inc.  The licensee
 of this program is prohibited from giving any competitor of
 Gaussian, Inc. access to this program.  By using this program,
 the user acknowledges that Gaussian, Inc. is engaged in the
 business of creating and licensing software in the field of
 computational chemistry and represents and warrants to the
 licensee that it is not a competitor of Gaussian, Inc. and that
 it will not use this program in any manner prohibited above.
 ---------------------------------------------------------------
  

 Cite this work as:
 Gaussian 16, Revision A.03,
 M. J. Frisch, G. W. Trucks, H. B. Schlegel, G. E. Scuseria, 
 M. A. Robb, J. R. Cheeseman, G. Scalmani, V. Barone, 
 G. A. Petersson, H. Nakatsuji, X. Li, M. Caricato, A. V. Marenich, 
 J. Bloino, B. G. Janesko, R. Gomperts, B. Mennucci, H. P. Hratchian, 
 J. V. Ortiz, A. F. Izmaylov, J. L. Sonnenberg, D. Williams-Young, 
 F. Ding, F. Lipparini, F. Egidi, J. Goings, B. Peng, A. Petrone, 
 T. Henderson, D. Ranasinghe, V. G. Zakrzewski, J. Gao, N. Rega, 
 G. Zheng, W. Liang, M. Hada, M. Ehara, K. Toyota, R. Fukuda, 
 J. Hasegawa, M. Ishida, T. Nakajima, Y. Honda, O. Kitao, H. Nakai, 
 T. Vreven, K. Throssell, J. A. Montgomery, Jr., J. E. Peralta, 
 F. Ogliaro, M. J. Bearpark, J. J. Heyd, E. N. Brothers, K. N. Kudin, 
 V. N. Staroverov, T. A. Keith, R. Kobayashi, J. Normand, 
 K. Raghavachari, A. P. Rendell, J. C. Burant, S. S. Iyengar, 
 J. Tomasi, M. Cossi, J. M. Millam, M. Klene, C. Adamo, R. Cammi, 
 J. W. Ochterski, R. L. Martin, K. Morokuma, O. Farkas, 
 J. B. Foresman, and D. J. Fox, Gaussian, Inc., Wallingford CT, 2016.
 
 ******************************************
 Gaussian 16:  ES64L-G16RevA.03 25-Dec-2016
                11-Oct-2023 
 ******************************************
 %nprocshared=24
 Will use up to   24 processors via shared memory.
 %mem=50GB
 ---------------
 #p M052X/6-31G*
 ---------------
 1/38=1,172=1/1;
 2/12=2,17=6,18=5,40=1/2;
 3/5=1,6=6,7=1,11=2,25=1,30=1,74=-38/1,2,3;
 4//1;
 5/5=2,38=5/2;
 6/7=2,8=2,9=2,10=2,28=1/1;
 99/5=1,9=1/99;
 Leave Link    1 at Wed Oct 11 11:57:08 2023, MaxMem=  6710886400 cpu:               0.5 elap:               0.0
 (Enter /data0/home/software/g16/l101.exe)
 -------------------
 Title Card Required
 -------------------
 Symbolic Z-matrix:
 Charge =  0 Multiplicity = 1
 C                     1.14024   0.71967  -0.00021 
 C                     1.19383  -0.67009  -0.00012 
 C                    -0.00001  -1.37949   0.00009 
 C                    -1.19384  -0.67007   0.00021 
 C                    -1.14023   0.71969   0.00012 
 N                     0.00001   1.41347  -0.00009 
 H                    -0.00001  -2.4628    0.00016 
 H                     2.05532   1.30359  -0.00037 
 H                     2.14972  -1.17849  -0.00022 
 H                    -2.14973  -1.17847   0.00037 
 H                    -2.0553    1.30361   0.0002 
 
 ITRead=  0  0  0  0  0  0  0  0  0  0  0
 MicOpt= -1 -1 -1 -1 -1 -1 -1 -1 -1 -1 -1
 NAtoms=     11 NQM=       11 NQMF=       0 NMMI=      0 NMMIF=      0
                NMic=       0 NMicF=      0.
                    Isotopes and Nuclear Properties:
 (Nuclear quadrupole moments (NQMom) in fm**2, nuclear magnetic moments (NMagM)
  in nuclear magnetons)

  Atom         1           2           3           4           5           6           7           8           9          10
 IAtWgt=          12          12          12          12          12          14           1           1           1           1
 AtmWgt=  12.0000000  12.0000000  12.0000000  12.0000000  12.0000000  14.0030740   1.0078250   1.0078250   1.0078250   1.0078250
 NucSpn=           0           0           0           0           0           2           1           1           1           1
 AtZEff=  -0.0000000  -0.0000000  -0.0000000  -0.0000000  -0.0000000  -0.0000000  -0.0000000  -0.0000000  -0.0000000  -0.0000000
 NQMom=    0.0000000   0.0000000   0.0000000   0.0000000   0.0000000   2.0440000   0.0000000   0.0000000   0.0000000   0.0000000
 NMagM=    0.0000000   0.0000000   0.0000000   0.0000000   0.0000000   0.4037610   2.7928460   2.7928460   2.7928460   2.7928460
 AtZNuc=   6.0000000   6.0000000   6.0000000   6.0000000   6.0000000   7.0000000   1.0000000   1.0000000   1.0000000   1.0000000

  Atom        11
 IAtWgt=           1
 AtmWgt=   1.0078250
 NucSpn=           1
 AtZEff=  -0.0000000
 NQMom=    0.0000000
 NMagM=    2.7928460
 AtZNuc=   1.0000000
 Leave Link  101 at Wed Oct 11 11:57:09 2023, MaxMem=  6710886400 cpu:               1.8 elap:               0.1
 (Enter /data0/home/software/g16/l202.exe)
                          Input orientation:                          
 ---------------------------------------------------------------------
 Center     Atomic      Atomic             Coordinates (Angstroms)
 Number     Number       Type             X           Y           Z
 ---------------------------------------------------------------------
      1          6           0        1.140241    0.719674   -0.000211
      2          6           0        1.193828   -0.670088   -0.000121
      3          6           0       -0.000008   -1.379487    0.000092
      4          6           0       -1.193836   -0.670074    0.000209
      5          6           0       -1.140232    0.719687    0.000117
      6          7           0        0.000009    1.413470   -0.000094
      7          1           0       -0.000012   -2.462801    0.000164
      8          1           0        2.055317    1.303590   -0.000372
      9          1           0        2.149716   -1.178494   -0.000220
     10          1           0       -2.149732   -1.178466    0.000370
     11          1           0       -2.055301    1.303614    0.000196
 ---------------------------------------------------------------------
                    Distance matrix (angstroms):
                    1          2          3          4          5
     1  C    0.000000
     2  C    1.390795   0.000000
     3  C    2.388858   1.388701   0.000000
     4  C    2.716489   2.387664   1.388702   0.000000
     5  C    2.280473   2.716489   2.388858   1.390794   0.000000
     6  N    1.334722   2.401337   2.792957   2.401337   1.334723
     7  H    3.380580   2.153851   1.083314   2.153854   3.380582
     8  H    1.085505   2.153501   3.379832   3.801624   3.248458
     9  H    2.149903   1.082681   2.159100   3.381986   3.798269
    10  H    3.798270   3.381988   2.159102   1.082682   2.149901
    11  H    3.248457   3.801623   3.379831   2.153501   1.085505
                    6          7          8          9         10
     6  N    0.000000
     7  H    3.876271   0.000000
     8  H    2.058243   4.290697   0.000000
     9  H    3.367420   2.504152   2.483878   0.000000
    10  H    3.367420   2.504159   4.882934   4.299448   0.000000
    11  H    2.058244   4.290699   4.110618   4.882932   2.483876
                   11
    11  H    0.000000
 Stoichiometry    C5H5N
 Framework group  C1[X(C5H5N)]
 Deg. of freedom    27
 Full point group                 C1      NOp   1
 Largest Abelian subgroup         C1      NOp   1
 Largest concise Abelian subgroup C1      NOp   1
                         Standard orientation:                         
 ---------------------------------------------------------------------
 Center     Atomic      Atomic             Coordinates (Angstroms)
 Number     Number       Type             X           Y           Z
 ---------------------------------------------------------------------
      1          6           0        1.140239    0.719677   -0.000211
      2          6           0        1.193829   -0.670085   -0.000121
      3          6           0       -0.000005   -1.379487    0.000092
      4          6           0       -1.193835   -0.670077    0.000209
      5          6           0       -1.140234    0.719684    0.000117
      6          7           0        0.000005    1.413470   -0.000094
      7          1           0       -0.000006   -2.462801    0.000164
      8          1           0        2.055314    1.303595   -0.000372
      9          1           0        2.149719   -1.178489   -0.000220
     10          1           0       -2.149729   -1.178471    0.000370
     11          1           0       -2.055304    1.303609    0.000196
 ---------------------------------------------------------------------
 Rotational constants (GHZ):           6.0714478           5.8563677           2.9809843
 Leave Link  202 at Wed Oct 11 11:57:09 2023, MaxMem=  6710886400 cpu:               0.1 elap:               0.0
 (Enter /data0/home/software/g16/l301.exe)
 Standard basis: 6-31G(d) (6D, 7F)
 Ernie: Thresh=  0.10000D-02 Tol=  0.10000D-05 Strict=F.
 There are   100 symmetry adapted cartesian basis functions of A   symmetry.
 There are   100 symmetry adapted basis functions of A   symmetry.
   100 basis functions,   188 primitive gaussians,   100 cartesian basis functions
    21 alpha electrons       21 beta electrons
       nuclear repulsion energy       206.5994315052 Hartrees.
 IExCor= 3428 DFT=T Ex+Corr=M052X ExCW=0 ScaHFX=  0.560000
 ScaDFX=  0.440000  0.440000  1.000000  1.000000 ScalE2=  1.000000  1.000000
 IRadAn=      5 IRanWt=     -1 IRanGd=            0 ICorTp=0 IEmpDi=  4
 NAtoms=   11 NActive=   11 NUniq=   11 SFac= 1.00D+00 NAtFMM=   60 NAOKFM=F Big=F
 Integral buffers will be    131072 words long.
 Raffenetti 2 integral format.
 Two-electron integral symmetry is turned on.
 Leave Link  301 at Wed Oct 11 11:57:09 2023, MaxMem=  6710886400 cpu:               1.1 elap:               0.1
 (Enter /data0/home/software/g16/l302.exe)
 NPDir=0 NMtPBC=     1 NCelOv=     1 NCel=       1 NClECP=     1 NCelD=      1
         NCelK=      1 NCelE2=     1 NClLst=     1 CellRange=     0.0.
 One-electron integrals computed using PRISM.
 One-electron integral symmetry used in STVInt
 NBasis=   100 RedAO= T EigKep=  8.46D-04  NBF=   100
 NBsUse=   100 1.00D-06 EigRej= -1.00D+00 NBFU=   100
 Precomputing XC quadrature grid using
 IXCGrd= 4 IRadAn=           5 IRanWt=          -1 IRanGd=           0 AccXCQ= 0.00D+00.
 Generated NRdTot=       0 NPtTot=           0 NUsed=           0 NTot=          32
 NSgBfM=   100   100   100   100   100 MxSgAt=    11 MxSgA2=    11.
 Leave Link  302 at Wed Oct 11 11:57:09 2023, MaxMem=  6710886400 cpu:               2.6 elap:               0.1
 (Enter /data0/home/software/g16/l303.exe)
 DipDrv:  MaxL=1.
 Leave Link  303 at Wed Oct 11 11:57:09 2023, MaxMem=  6710886400 cpu:               0.4 elap:               0.0
 (Enter /data0/home/software/g16/l401.exe)
 ExpMin= 1.61D-01 ExpMax= 4.17D+03 ExpMxC= 6.27D+02 IAcc=3 IRadAn=         5 AccDes= 0.00D+00
 Harris functional with IExCor= 1009 and IRadAn=       5 diagonalized for initial guess.
 HarFok:  IExCor= 1009 AccDes= 0.00D+00 IRadAn=         5 IDoV= 1 UseB2=F ITyADJ=14
 ICtDFT=  3500011 ScaDFX=  1.000000  1.000000  1.000000  1.000000
 FoFCou: FMM=F IPFlag=           0 FMFlag=      100000 FMFlg1=           0
         NFxFlg=           0 DoJE=T BraDBF=F KetDBF=T FulRan=T
         wScrn=  0.000000 ICntrl=       500 IOpCl=  0 I1Cent=   200000004 NGrid=           0
         NMat0=    1 NMatS0=      1 NMatT0=    0 NMatD0=    1 NMtDS0=    0 NMtDT0=    0
 Petite list used in FoFCou.
 Harris En= -248.049851316578    
 JPrj=0 DoOrth=F DoCkMO=F.
 Leave Link  401 at Wed Oct 11 11:57:09 2023, MaxMem=  6710886400 cpu:               5.0 elap:               0.2
 (Enter /data0/home/software/g16/l502.exe)
 Keep R1 ints in memory in canonical form, NReq=34978190.
 FoFCou: FMM=F IPFlag=           0 FMFlag=           0 FMFlg1=           0
         NFxFlg=           0 DoJE=F BraDBF=F KetDBF=F FulRan=T
         wScrn=  0.000000 ICntrl=       600 IOpCl=  0 I1Cent=           0 NGrid=           0
         NMat0=    1 NMatS0=   5050 NMatT0=    0 NMatD0=    1 NMtDS0=    0 NMtDT0=    0
 Symmetry not used in FoFCou.
 Two-electron integral symmetry not used.
 Closed shell SCF:
 Using DIIS extrapolation, IDIIS=  1040.
 NGot=  6710886400 LenX=  6698109000 LenY=  6698098559
 Requested convergence on RMS density matrix=1.00D-08 within 128 cycles.
 Requested convergence on MAX density matrix=1.00D-06.
 Requested convergence on             energy=1.00D-06.
 No special actions if energy rises.
 Integral accuracy reduced to 1.0D-05 until final iterations.

 Cycle   1  Pass 0  IDiag  1:
 E= -248.140651669073    
 DIIS: error= 4.43D-02 at cycle   1 NSaved=   1.
 NSaved= 1 IEnMin= 1 EnMin= -248.140651669073     IErMin= 1 ErrMin= 4.43D-02
 ErrMax= 4.43D-02  0.00D+00 EMaxC= 1.00D-01 BMatC= 1.10D-01 BMatP= 1.10D-01
 IDIUse=3 WtCom= 5.57D-01 WtEn= 4.43D-01
 Coeff-Com:  0.100D+01
 Coeff-En:   0.100D+01
 Coeff:      0.100D+01
 Gap=     0.354 Goal=   None    Shift=    0.000
 GapD=    0.354 DampG=1.000 DampE=0.500 DampFc=0.5000 IDamp=-1.
 Damping current iteration by 5.00D-01
 RMSDP=5.87D-03 MaxDP=7.51D-02              OVMax= 1.12D-01

 Cycle   2  Pass 0  IDiag  1:
 E= -248.200101045629     Delta-E=       -0.059449376556 Rises=F Damp=T
 DIIS: error= 1.19D-02 at cycle   2 NSaved=   2.
 NSaved= 2 IEnMin= 2 EnMin= -248.200101045629     IErMin= 2 ErrMin= 1.19D-02
 ErrMax= 1.19D-02  0.00D+00 EMaxC= 1.00D-01 BMatC= 1.03D-02 BMatP= 1.10D-01
 IDIUse=3 WtCom= 8.81D-01 WtEn= 1.19D-01
 Coeff-Com: -0.231D+00 0.123D+01
 Coeff-En:   0.000D+00 0.100D+01
 Coeff:     -0.203D+00 0.120D+01
 Gap=     0.337 Goal=   None    Shift=    0.000
 RMSDP=1.30D-03 MaxDP=1.43D-02 DE=-5.94D-02 OVMax= 5.34D-02

 Cycle   3  Pass 0  IDiag  1:
 E= -248.250856005795     Delta-E=       -0.050754960166 Rises=F Damp=F
 DIIS: error= 2.60D-03 at cycle   3 NSaved=   3.
 NSaved= 3 IEnMin= 3 EnMin= -248.250856005795     IErMin= 3 ErrMin= 2.60D-03
 ErrMax= 2.60D-03  0.00D+00 EMaxC= 1.00D-01 BMatC= 8.58D-04 BMatP= 1.03D-02
 IDIUse=3 WtCom= 9.74D-01 WtEn= 2.60D-02
 Coeff-Com: -0.823D-01 0.269D+00 0.814D+00
 Coeff-En:   0.000D+00 0.000D+00 0.100D+01
 Coeff:     -0.802D-01 0.262D+00 0.819D+00
 Gap=     0.344 Goal=   None    Shift=    0.000
 RMSDP=4.15D-04 MaxDP=5.45D-03 DE=-5.08D-02 OVMax= 1.90D-02

 Cycle   4  Pass 0  IDiag  1:
 E= -248.251404118971     Delta-E=       -0.000548113176 Rises=F Damp=F
 DIIS: error= 2.00D-03 at cycle   4 NSaved=   4.
 NSaved= 4 IEnMin= 4 EnMin= -248.251404118971     IErMin= 4 ErrMin= 2.00D-03
 ErrMax= 2.00D-03  0.00D+00 EMaxC= 1.00D-01 BMatC= 2.83D-04 BMatP= 8.58D-04
 IDIUse=3 WtCom= 9.80D-01 WtEn= 2.00D-02
 Coeff-Com: -0.256D-01 0.672D-01 0.395D+00 0.564D+00
 Coeff-En:   0.000D+00 0.000D+00 0.229D+00 0.771D+00
 Coeff:     -0.251D-01 0.658D-01 0.392D+00 0.568D+00
 Gap=     0.337 Goal=   None    Shift=    0.000
 RMSDP=1.99D-04 MaxDP=2.52D-03 DE=-5.48D-04 OVMax= 8.41D-03

 Cycle   5  Pass 0  IDiag  1:
 E= -248.251691759784     Delta-E=       -0.000287640813 Rises=F Damp=F
 DIIS: error= 5.28D-04 at cycle   5 NSaved=   5.
 NSaved= 5 IEnMin= 5 EnMin= -248.251691759784     IErMin= 5 ErrMin= 5.28D-04
 ErrMax= 5.28D-04  0.00D+00 EMaxC= 1.00D-01 BMatC= 1.73D-05 BMatP= 2.83D-04
 IDIUse=3 WtCom= 9.95D-01 WtEn= 5.28D-03
 Coeff-Com: -0.363D-02 0.558D-02 0.100D+00 0.247D+00 0.650D+00
 Coeff-En:   0.000D+00 0.000D+00 0.000D+00 0.000D+00 0.100D+01
 Coeff:     -0.361D-02 0.555D-02 0.999D-01 0.246D+00 0.652D+00
 Gap=     0.336 Goal=   None    Shift=    0.000
 RMSDP=4.87D-05 MaxDP=9.47D-04 DE=-2.88D-04 OVMax= 1.84D-03

 Cycle   6  Pass 0  IDiag  1:
 E= -248.251707454784     Delta-E=       -0.000015695000 Rises=F Damp=F
 DIIS: error= 1.31D-04 at cycle   6 NSaved=   6.
 NSaved= 6 IEnMin= 6 EnMin= -248.251707454784     IErMin= 6 ErrMin= 1.31D-04
 ErrMax= 1.31D-04  0.00D+00 EMaxC= 1.00D-01 BMatC= 1.59D-06 BMatP= 1.73D-05
 IDIUse=3 WtCom= 9.99D-01 WtEn= 1.31D-03
 Coeff-Com: -0.462D-03-0.646D-03 0.293D-01 0.920D-01 0.324D+00 0.556D+00
 Coeff-En:   0.000D+00 0.000D+00 0.000D+00 0.000D+00 0.000D+00 0.100D+01
 Coeff:     -0.462D-03-0.645D-03 0.292D-01 0.919D-01 0.324D+00 0.556D+00
 Gap=     0.337 Goal=   None    Shift=    0.000
 RMSDP=1.13D-05 MaxDP=3.27D-04 DE=-1.57D-05 OVMax= 4.12D-04

 Cycle   7  Pass 0  IDiag  1:
 E= -248.251708779554     Delta-E=       -0.000001324770 Rises=F Damp=F
 DIIS: error= 1.61D-05 at cycle   7 NSaved=   7.
 NSaved= 7 IEnMin= 7 EnMin= -248.251708779554     IErMin= 7 ErrMin= 1.61D-05
 ErrMax= 1.61D-05  0.00D+00 EMaxC= 1.00D-01 BMatC= 3.57D-08 BMatP= 1.59D-06
 IDIUse=1 WtCom= 1.00D+00 WtEn= 0.00D+00
 Coeff-Com:  0.461D-03-0.999D-03-0.778D-02-0.177D-01-0.288D-01 0.901D-01
 Coeff-Com:  0.965D+00
 Coeff:      0.461D-03-0.999D-03-0.778D-02-0.177D-01-0.288D-01 0.901D-01
 Coeff:      0.965D+00
 Gap=     0.337 Goal=   None    Shift=    0.000
 RMSDP=3.10D-06 MaxDP=5.30D-05 DE=-1.32D-06 OVMax= 6.43D-05

 Initial convergence to 1.0D-05 achieved.  Increase integral accuracy.
 Cycle   8  Pass 1  IDiag  1:
 E= -248.251670911525     Delta-E=        0.000037868029 Rises=F Damp=F
 DIIS: error= 2.45D-05 at cycle   1 NSaved=   1.
 NSaved= 1 IEnMin= 1 EnMin= -248.251670911525     IErMin= 1 ErrMin= 2.45D-05
 ErrMax= 2.45D-05  0.00D+00 EMaxC= 1.00D-01 BMatC= 3.61D-08 BMatP= 3.61D-08
 IDIUse=1 WtCom= 1.00D+00 WtEn= 0.00D+00
 Coeff-Com:  0.100D+01
 Coeff:      0.100D+01
 Gap=     0.337 Goal=   None    Shift=    0.000
 RMSDP=3.10D-06 MaxDP=5.30D-05 DE= 3.79D-05 OVMax= 4.55D-05

 Cycle   9  Pass 1  IDiag  1:
 E= -248.251670946665     Delta-E=       -0.000000035140 Rises=F Damp=F
 DIIS: error= 5.28D-06 at cycle   2 NSaved=   2.
 NSaved= 2 IEnMin= 2 EnMin= -248.251670946665     IErMin= 2 ErrMin= 5.28D-06
 ErrMax= 5.28D-06  0.00D+00 EMaxC= 1.00D-01 BMatC= 3.39D-09 BMatP= 3.61D-08
 IDIUse=1 WtCom= 1.00D+00 WtEn= 0.00D+00
 Coeff-Com:  0.899D-01 0.910D+00
 Coeff:      0.899D-01 0.910D+00
 Gap=     0.337 Goal=   None    Shift=    0.000
 RMSDP=8.66D-07 MaxDP=1.55D-05 DE=-3.51D-08 OVMax= 2.83D-05

 Cycle  10  Pass 1  IDiag  1:
 E= -248.251670947814     Delta-E=       -0.000000001149 Rises=F Damp=F
 DIIS: error= 4.76D-06 at cycle   3 NSaved=   3.
 NSaved= 3 IEnMin= 3 EnMin= -248.251670947814     IErMin= 3 ErrMin= 4.76D-06
 ErrMax= 4.76D-06  0.00D+00 EMaxC= 1.00D-01 BMatC= 2.41D-09 BMatP= 3.39D-09
 IDIUse=1 WtCom= 1.00D+00 WtEn= 0.00D+00
 Coeff-Com: -0.398D-01 0.463D+00 0.577D+00
 Coeff:     -0.398D-01 0.463D+00 0.577D+00
 Gap=     0.337 Goal=   None    Shift=    0.000
 RMSDP=4.34D-07 MaxDP=7.65D-06 DE=-1.15D-09 OVMax= 1.50D-05

 Cycle  11  Pass 1  IDiag  1:
 E= -248.251670950005     Delta-E=       -0.000000002191 Rises=F Damp=F
 DIIS: error= 8.89D-07 at cycle   4 NSaved=   4.
 NSaved= 4 IEnMin= 4 EnMin= -248.251670950005     IErMin= 4 ErrMin= 8.89D-07
 ErrMax= 8.89D-07  0.00D+00 EMaxC= 1.00D-01 BMatC= 4.77D-11 BMatP= 2.41D-09
 IDIUse=1 WtCom= 1.00D+00 WtEn= 0.00D+00
 Coeff-Com: -0.171D-01 0.160D+00 0.225D+00 0.633D+00
 Coeff:     -0.171D-01 0.160D+00 0.225D+00 0.633D+00
 Gap=     0.337 Goal=   None    Shift=    0.000
 RMSDP=1.04D-07 MaxDP=2.39D-06 DE=-2.19D-09 OVMax= 4.17D-06

 Cycle  12  Pass 1  IDiag  1:
 E= -248.251670950036     Delta-E=       -0.000000000031 Rises=F Damp=F
 DIIS: error= 3.70D-07 at cycle   5 NSaved=   5.
 NSaved= 5 IEnMin= 5 EnMin= -248.251670950036     IErMin= 5 ErrMin= 3.70D-07
 ErrMax= 3.70D-07  0.00D+00 EMaxC= 1.00D-01 BMatC= 1.07D-11 BMatP= 4.77D-11
 IDIUse=1 WtCom= 1.00D+00 WtEn= 0.00D+00
 Coeff-Com: -0.265D-03-0.194D-01-0.117D-01 0.319D+00 0.713D+00
 Coeff:     -0.265D-03-0.194D-01-0.117D-01 0.319D+00 0.713D+00
 Gap=     0.337 Goal=   None    Shift=    0.000
 RMSDP=3.30D-08 MaxDP=6.77D-07 DE=-3.09D-11 OVMax= 1.18D-06

 Cycle  13  Pass 1  IDiag  1:
 E= -248.251670950045     Delta-E=       -0.000000000009 Rises=F Damp=F
 DIIS: error= 3.15D-08 at cycle   6 NSaved=   6.
 NSaved= 6 IEnMin= 6 EnMin= -248.251670950045     IErMin= 6 ErrMin= 3.15D-08
 ErrMax= 3.15D-08  0.00D+00 EMaxC= 1.00D-01 BMatC= 9.25D-14 BMatP= 1.07D-11
 IDIUse=1 WtCom= 1.00D+00 WtEn= 0.00D+00
 Coeff-Com:  0.514D-03-0.927D-02-0.906D-02 0.444D-01 0.127D+00 0.847D+00
 Coeff:      0.514D-03-0.927D-02-0.906D-02 0.444D-01 0.127D+00 0.847D+00
 Gap=     0.337 Goal=   None    Shift=    0.000
 RMSDP=7.02D-09 MaxDP=1.72D-07 DE=-8.75D-12 OVMax= 1.72D-07

 SCF Done:  E(RM052X) =  -248.251670950     A.U. after   13 cycles
            NFock= 13  Conv=0.70D-08     -V/T= 2.0093
 KE= 2.459618240035D+02 PE=-9.886103549045D+02 EE= 2.877974284457D+02
 Leave Link  502 at Wed Oct 11 11:57:11 2023, MaxMem=  6710886400 cpu:              46.6 elap:               2.2
 (Enter /data0/home/software/g16/l601.exe)
 Copying SCF densities to generalized density rwf, IOpCl= 0 IROHF=0.

 **********************************************************************

            Population analysis using the SCF density.

 **********************************************************************

 Orbital symmetries:
       Occupied  (A) (A) (A) (A) (A) (A) (A) (A) (A) (A) (A) (A)
                 (A) (A) (A) (A) (A) (A) (A) (A) (A)
       Virtual   (A) (A) (A) (A) (A) (A) (A) (A) (A) (A) (A) (A)
                 (A) (A) (A) (A) (A) (A) (A) (A) (A) (A) (A) (A)
                 (A) (A) (A) (A) (A) (A) (A) (A) (A) (A) (A) (A)
                 (A) (A) (A) (A) (A) (A) (A) (A) (A) (A) (A) (A)
                 (A) (A) (A) (A) (A) (A) (A) (A) (A) (A) (A) (A)
                 (A) (A) (A) (A) (A) (A) (A) (A) (A) (A) (A) (A)
                 (A) (A) (A) (A) (A) (A) (A)
 The electronic state is 1-A.
 Alpha  occ. eigenvalues --  -14.79475 -10.61184 -10.61182 -10.59997 -10.58825
 Alpha  occ. eigenvalues --  -10.58822  -1.06064  -0.91419  -0.86900  -0.72276
 Alpha  occ. eigenvalues --   -0.72036  -0.61513  -0.55443  -0.54961  -0.50268
 Alpha  occ. eigenvalues --   -0.47667  -0.47451  -0.43034  -0.34585  -0.32115
 Alpha  occ. eigenvalues --   -0.31691
 Alpha virt. eigenvalues --    0.01965   0.03252   0.14721   0.19652   0.21083
 Alpha virt. eigenvalues --    0.21319   0.23608   0.23665   0.29403   0.34822
 Alpha virt. eigenvalues --    0.37543   0.37888   0.50896   0.50988   0.57871
 Alpha virt. eigenvalues --    0.60138   0.63482   0.65077   0.65115   0.65808
 Alpha virt. eigenvalues --    0.66368   0.66369   0.71878   0.72593   0.74740
 Alpha virt. eigenvalues --    0.75824   0.91933   0.92010   0.93041   0.93472
 Alpha virt. eigenvalues --    0.93769   0.94179   0.99162   1.01191   1.03848
 Alpha virt. eigenvalues --    1.10643   1.12261   1.16996   1.21863   1.26944
 Alpha virt. eigenvalues --    1.32419   1.43537   1.44933   1.53109   1.55291
 Alpha virt. eigenvalues --    1.55718   1.59009   1.60189   1.76022   1.85850
 Alpha virt. eigenvalues --    1.88416   1.89805   2.01415   2.07267   2.13388
 Alpha virt. eigenvalues --    2.20052   2.20483   2.24167   2.24841   2.26003
 Alpha virt. eigenvalues --    2.36001   2.38032   2.45063   2.58223   2.60605
 Alpha virt. eigenvalues --    2.70683   2.73174   2.75139   2.79139   2.83962
 Alpha virt. eigenvalues --    2.84185   3.10747   3.43400   4.07191   4.15495
 Alpha virt. eigenvalues --    4.17352   4.28447   4.37233   4.63091
          Condensed to atoms (all electrons):
               1          2          3          4          5          6
     1  C    4.796081   0.502595  -0.032902  -0.042102  -0.074826   0.476296
     2  C    0.502595   4.976788   0.549722  -0.031285  -0.042102  -0.036396
     3  C   -0.032902   0.549722   4.848821   0.549722  -0.032903  -0.042917
     4  C   -0.042102  -0.031285   0.549722   4.976788   0.502595  -0.036396
     5  C   -0.074826  -0.042102  -0.032903   0.502595   4.796082   0.476295
     6  N    0.476296  -0.036396  -0.042917  -0.036396   0.476295   6.676081
     7  H    0.004264  -0.041541   0.375122  -0.041541   0.004264  -0.000144
     8  H    0.390410  -0.062979   0.003659   0.000104   0.005267  -0.051450
     9  H   -0.033204   0.364034  -0.040390   0.004795   0.000255   0.004236
    10  H    0.000255   0.004795  -0.040390   0.364034  -0.033204   0.004236
    11  H    0.005267   0.000104   0.003659  -0.062979   0.390410  -0.051450
               7          8          9         10         11
     1  C    0.004264   0.390410  -0.033204   0.000255   0.005267
     2  C   -0.041541  -0.062979   0.364034   0.004795   0.000104
     3  C    0.375122   0.003659  -0.040390  -0.040390   0.003659
     4  C   -0.041541   0.000104   0.004795   0.364034  -0.062979
     5  C    0.004264   0.005267   0.000255  -0.033204   0.390410
     6  N   -0.000144  -0.051450   0.004236   0.004236  -0.051450
     7  H    0.523609  -0.000141  -0.004996  -0.004996  -0.000141
     8  H   -0.000141   0.535265  -0.001925   0.000021  -0.000123
     9  H   -0.004996  -0.001925   0.526621  -0.000100   0.000021
    10  H   -0.004996   0.000021  -0.000100   0.526621  -0.001925
    11  H   -0.000141  -0.000123   0.000021  -0.001925   0.535265
 Mulliken charges:
               1
     1  C    0.007867
     2  C   -0.183736
     3  C   -0.141203
     4  C   -0.183736
     5  C    0.007867
     6  N   -0.418392
     7  H    0.186242
     8  H    0.181893
     9  H    0.180653
    10  H    0.180653
    11  H    0.181893
 Sum of Mulliken charges =  -0.00000
 Mulliken charges with hydrogens summed into heavy atoms:
               1
     1  C    0.189759
     2  C   -0.003083
     3  C    0.045039
     4  C   -0.003083
     5  C    0.189759
     6  N   -0.418392
 Electronic spatial extent (au):  <R**2>=            431.1538
 Charge=              0.0000 electrons
 Dipole moment (field-independent basis, Debye):
    X=             -0.0000    Y=             -2.2608    Z=              0.0001  Tot=              2.2608
 Quadrupole moment (field-independent basis, Debye-Ang):
   XX=            -28.5160   YY=            -35.4642   ZZ=            -37.3257
   XY=             -0.0000   XZ=             -0.0012   YZ=             -0.0001
 Traceless Quadrupole moment (field-independent basis, Debye-Ang):
   XX=              5.2526   YY=             -1.6956   ZZ=             -3.5570
   XY=             -0.0000   XZ=             -0.0012   YZ=             -0.0001
 Octapole moment (field-independent basis, Debye-Ang**2):
  XXX=             -0.0000  YYY=            -14.9295  ZZZ=             -0.0003  XYY=             -0.0000
  XXY=              1.9446  XXZ=             -0.0002  XZZ=              0.0000  YZZ=              1.3486
  YYZ=              0.0012  XYZ=             -0.0001
 Hexadecapole moment (field-independent basis, Debye-Ang**3):
 XXXX=           -242.5956 YYYY=           -273.4892 ZZZZ=            -37.7181 XXXY=              0.0000
 XXXZ=              0.0105 YYYX=             -0.0002 YYYZ=              0.0073 ZZZX=              0.0184
 ZZZY=              0.0083 XXYY=            -77.6773 XXZZ=            -56.3222 YYZZ=            -54.5360
 XXYZ=              0.0014 YYXZ=              0.0033 ZZXY=              0.0000
 N-N= 2.065994315052D+02 E-N=-9.886103526534D+02  KE= 2.459618240035D+02
 No NMR shielding tensors so no spin-rotation constants.
 Leave Link  601 at Wed Oct 11 11:57:11 2023, MaxMem=  6710886400 cpu:               1.9 elap:               0.1
 (Enter /data0/home/software/g16/l9999.exe)
 1\1\GINC-LOCALHOST\SP\RM052X\6-31G(d)\C5H5N1\WUHANYU\11-Oct-2023\0\\#p
  M052X/6-31G*\\Title Card Required\\0,1\C,0,1.140241,0.719674,-0.00021
 1\C,0,1.193828,-0.670088,-0.000121\C,0,-0.000008,-1.379487,0.000092\C,
 0,-1.193836,-0.670074,0.000209\C,0,-1.140232,0.719687,0.000117\N,0,0.0
 00009,1.41347,-0.000094\H,0,-0.000012,-2.462801,0.000164\H,0,2.055317,
 1.30359,-0.000372\H,0,2.149716,-1.178494,-0.00022\H,0,-2.149732,-1.178
 466,0.00037\H,0,-2.055301,1.303614,0.000196\\Version=ES64L-G16RevA.03\
 State=1-A\HF=-248.251671\RMSD=7.024e-09\Dipole=-0.0000052,-0.8894525,0
 .0000573\Quadrupole=3.9051987,-1.2606313,-2.6445674,-0.0000354,-0.0008
 924,-0.0000895\PG=C01 [X(C5H5N1)]\\@


 IT IS BY EATING THE LIGHT OF A STAR THAT WE EXIST, 
 IN THE FINAL ANALYSIS, 
 JUST AS IT IS BY PERCEIVING THE LIGHT OF STARS
 THAT WE DEFINE THE WORLD AROUND US.

                                    -- GILBERT GROSVENOR
 Job cpu time:       0 days  0 hours  1 minutes  0.6 seconds.
 Elapsed time:       0 days  0 hours  0 minutes  2.9 seconds.
 File lengths (MBytes):  RWF=     10 Int=      0 D2E=      0 Chk=      2 Scr=      1
 Normal termination of Gaussian 16 at Wed Oct 11 11:57:11 2023.
