 Entering Gaussian System, Link 0=g16
 Initial command:
 /data0/hywu0/study/g16/l1.exe "/data0/hywu0/study/g16/scratch/Gau-2811761.inp" -scrdir="/data0/hywu0/study/g16/scratch/"
 Default is to use a total of  16 processors:
                               16 via shared-memory
                                1 via Linda
 Entering Link 1 = /data0/hywu0/study/g16/l1.exe PID=   2811762.
  
 Copyright (c) 1988,1990,1992,1993,1995,1998,2003,2009,2016,
            Gaussian, Inc.  All Rights Reserved.
  
 This is part of the Gaussian(R) 16 program.  It is based on
 the Gaussian(R) 09 system (copyright 2009, Gaussian, Inc.),
 the Gaussian(R) 03 system (copyright 2003, Gaussian, Inc.),
 the Gaussian(R) 98 system (copyright 1998, Gaussian, Inc.),
 the Gaussian(R) 94 system (copyright 1995, Gaussian, Inc.),
 the Gaussian 92(TM) system (copyright 1992, Gaussian, Inc.),
 the Gaussian 90(TM) system (copyright 1990, Gaussian, Inc.),
 the Gaussian 88(TM) system (copyright 1988, Gaussian, Inc.),
 the Gaussian 86(TM) system (copyright 1986, Carnegie Mellon
 University), and the Gaussian 82(TM) system (copyright 1983,
 Carnegie Mellon University). Gaussian is a federally registered
 trademark of Gaussian, Inc.
  
 This software contains proprietary and confidential information,
 including trade secrets, belonging to Gaussian, Inc.
  
 This software is provided under written license and may be
 used, copied, transmitted, or stored only in accord with that
 written license.
  
 The following legend is applicable only to US Government
 contracts under FAR:
  
                    RESTRICTED RIGHTS LEGEND
  
 Use, reproduction and disclosure by the US Government is
 subject to restrictions as set forth in subparagraphs (a)
 and (c) of the Commercial Computer Software - Restricted
 Rights clause in FAR 52.227-19.
  
 Gaussian, Inc.
 340 Quinnipiac St., Bldg. 40, Wallingford CT 06492
  
  
 ---------------------------------------------------------------
 Warning -- This program may not be used in any manner that
 competes with the business of Gaussian, Inc. or will provide
 assistance to any competitor of Gaussian, Inc.  The licensee
 of this program is prohibited from giving any competitor of
 Gaussian, Inc. access to this program.  By using this program,
 the user acknowledges that Gaussian, Inc. is engaged in the
 business of creating and licensing software in the field of
 computational chemistry and represents and warrants to the
 licensee that it is not a competitor of Gaussian, Inc. and that
 it will not use this program in any manner prohibited above.
 ---------------------------------------------------------------
  

 Cite this work as:
 Gaussian 16, Revision A.03,
 M. J. Frisch, G. W. Trucks, H. B. Schlegel, G. E. Scuseria, 
 M. A. Robb, J. R. Cheeseman, G. Scalmani, V. Barone, 
 G. A. Petersson, H. Nakatsuji, X. Li, M. Caricato, A. V. Marenich, 
 J. Bloino, B. G. Janesko, R. Gomperts, B. Mennucci, H. P. Hratchian, 
 J. V. Ortiz, A. F. Izmaylov, J. L. Sonnenberg, D. Williams-Young, 
 F. Ding, F. Lipparini, F. Egidi, J. Goings, B. Peng, A. Petrone, 
 T. Henderson, D. Ranasinghe, V. G. Zakrzewski, J. Gao, N. Rega, 
 G. Zheng, W. Liang, M. Hada, M. Ehara, K. Toyota, R. Fukuda, 
 J. Hasegawa, M. Ishida, T. Nakajima, Y. Honda, O. Kitao, H. Nakai, 
 T. Vreven, K. Throssell, J. A. Montgomery, Jr., J. E. Peralta, 
 F. Ogliaro, M. J. Bearpark, J. J. Heyd, E. N. Brothers, K. N. Kudin, 
 V. N. Staroverov, T. A. Keith, R. Kobayashi, J. Normand, 
 K. Raghavachari, A. P. Rendell, J. C. Burant, S. S. Iyengar, 
 J. Tomasi, M. Cossi, J. M. Millam, M. Klene, C. Adamo, R. Cammi, 
 J. W. Ochterski, R. L. Martin, K. Morokuma, O. Farkas, 
 J. B. Foresman, and D. J. Fox, Gaussian, Inc., Wallingford CT, 2016.
 
 ******************************************
 Gaussian 16:  ES64L-G16RevA.03 25-Dec-2016
                26-Apr-2022 
 ******************************************
 %chk=BI_PA_H2O_3.chk
 %nproc=16
 Will use up to   16 processors via shared memory.
 %mem=80000MB
 ---------------------------------------------------
 #p M062X/6-311+G(2d,p) nosymm em=GD3 counterpoise=5
 ---------------------------------------------------
 1/38=1,62=5,172=1/1;
 2/12=2,15=1,17=6,18=5,40=1/2;
 1/38=1,53=2,62=5,63=1/22;
 3/5=4,6=6,7=112,11=2,25=1,30=1,74=-55,124=31/1,2,3;
 4//1;
 5/5=2,38=5/2;
 6/7=2,8=2,9=2,10=2,28=1/1;
 1/53=2,62=5,63=1/22;
 3/5=7,6=11,7=112,11=2,25=1,30=1,74=-55,82=7,124=31/1,2,3;
 4//1;
 5/5=2,38=5/2;
 6/7=2,8=2,9=2,10=2,28=1/1;
 1/53=2,62=5,63=1/22(-4);
 99/5=1,9=1/99;
 Leave Link    1 at Tue Apr 26 18:51:41 2022, MaxMem= 10485760000 cpu:               0.5 elap:               0.0
 (Enter /data0/hywu0/study/g16/l101.exe)
 -------------------
 Title Card Required
 -------------------
 Symbolic Z-matrix:
 Charge =  0 Multiplicity = 1 in supermolecule
 Charge =  0 Multiplicity = 1 in fragment      1.
 Charge =  0 Multiplicity = 1 in fragment      2.
 Charge =  0 Multiplicity = 1 in fragment      3.
 Charge =  0 Multiplicity = 1 in fragment      4.
 Charge =  0 Multiplicity = 1 in fragment      5.
 C                     7.16029   14.55047   11.40365    
 C                     8.44721   14.29225   10.82075    
 C                     9.48465   15.21874   10.97254    
 C                     9.21767   16.36513   11.6991    
 C                     7.94881   16.60892   12.27192    
 C                     6.90317   15.71461   12.13259    
 H                     10.45692   15.02909   10.52227    
 H                     10.0017   17.10827   11.84084    
 H                     7.80024   17.52903   12.83675    
 H                     5.9189    15.89404   12.56049    
 H                     5.36531   13.38772   11.27696    
 C                     7.14162   12.60626   10.2869    
 H                     6.76105   11.69208   9.85042    
 N                     6.35709   13.45949   11.06458    
 N                     8.39235   13.07096   10.14252    
 P                     7.88287   13.95529   6.92709    
 O                     6.57421   13.75779   7.56741    
 O                     9.05851   12.99575   7.37339    
 H                     9.06657   12.9461   8.43511    
 O                     7.79692   13.67698   5.36224    
 H                     8.74696   13.80669   4.97427    
 O                     8.53049   15.405    6.99094    
 H                     8.04076   15.99978   7.68706    
 O                     7.23294   17.05619   8.92688    
 H                     7.59515   16.83343   9.79017    
 H                     6.33434   16.69939   8.93169    
 O                     3.99414   14.55967   11.18424    
 H                     4.21084   15.01533   10.35368    
 H                     3.04941   14.43677   11.17598    
 O                     4.74795   15.65523   8.68669    
 H                     4.24475   15.97607   7.93876    
 H                     5.33625   14.96748   8.31213    
 
 ITRead=  0  0  0  0  0  0  0  0  0  0  0  0  0  0  0  0  0  0  0  0
 ITRead=  0  0  0  0  0  0  0  0  0  0  0  0
 MicOpt= -1 -1 -1 -1 -1 -1 -1 -1 -1 -1 -1 -1 -1 -1 -1 -1 -1 -1 -1 -1
 MicOpt= -1 -1 -1 -1 -1 -1 -1 -1 -1 -1 -1 -1
 NAtoms=     32 NQM=       32 NQMF=       0 NMMI=      0 NMMIF=      0
                NMic=       0 NMicF=      0.
                    Isotopes and Nuclear Properties:
 (Nuclear quadrupole moments (NQMom) in fm**2, nuclear magnetic moments (NMagM)
  in nuclear magnetons)

  Atom         1           2           3           4           5           6           7           8           9          10
 IAtWgt=          12          12          12          12          12          12           1           1           1           1
 AtmWgt=  12.0000000  12.0000000  12.0000000  12.0000000  12.0000000  12.0000000   1.0078250   1.0078250   1.0078250   1.0078250
 NucSpn=           0           0           0           0           0           0           1           1           1           1
 AtZEff=  -0.0000000  -0.0000000  -0.0000000  -0.0000000  -0.0000000  -0.0000000  -0.0000000  -0.0000000  -0.0000000  -0.0000000
 NQMom=    0.0000000   0.0000000   0.0000000   0.0000000   0.0000000   0.0000000   0.0000000   0.0000000   0.0000000   0.0000000
 NMagM=    0.0000000   0.0000000   0.0000000   0.0000000   0.0000000   0.0000000   2.7928460   2.7928460   2.7928460   2.7928460
 AtZNuc=   6.0000000   6.0000000   6.0000000   6.0000000   6.0000000   6.0000000   1.0000000   1.0000000   1.0000000   1.0000000

  Atom        11          12          13          14          15          16          17          18          19          20
 IAtWgt=           1          12           1          14          14          31          16          16           1          16
 AtmWgt=   1.0078250  12.0000000   1.0078250  14.0030740  14.0030740  30.9737634  15.9949146  15.9949146   1.0078250  15.9949146
 NucSpn=           1           0           1           2           2           1           0           0           1           0
 AtZEff=  -0.0000000  -0.0000000  -0.0000000  -0.0000000  -0.0000000  -0.0000000  -0.0000000  -0.0000000  -0.0000000  -0.0000000
 NQMom=    0.0000000   0.0000000   0.0000000   2.0440000   2.0440000   0.0000000   0.0000000   0.0000000   0.0000000   0.0000000
 NMagM=    2.7928460   0.0000000   2.7928460   0.4037610   0.4037610   1.1316000   0.0000000   0.0000000   2.7928460   0.0000000
 AtZNuc=   1.0000000   6.0000000   1.0000000   7.0000000   7.0000000  15.0000000   8.0000000   8.0000000   1.0000000   8.0000000

  Atom        21          22          23          24          25          26          27          28          29          30
 IAtWgt=           1          16           1          16           1           1          16           1           1          16
 AtmWgt=   1.0078250  15.9949146   1.0078250  15.9949146   1.0078250   1.0078250  15.9949146   1.0078250   1.0078250  15.9949146
 NucSpn=           1           0           1           0           1           1           0           1           1           0
 AtZEff=  -0.0000000  -0.0000000  -0.0000000  -0.0000000  -0.0000000  -0.0000000  -0.0000000  -0.0000000  -0.0000000  -0.0000000
 NQMom=    0.0000000   0.0000000   0.0000000   0.0000000   0.0000000   0.0000000   0.0000000   0.0000000   0.0000000   0.0000000
 NMagM=    2.7928460   0.0000000   2.7928460   0.0000000   2.7928460   2.7928460   0.0000000   2.7928460   2.7928460   0.0000000
 AtZNuc=   1.0000000   8.0000000   1.0000000   8.0000000   1.0000000   1.0000000   8.0000000   1.0000000   1.0000000   8.0000000

  Atom        31          32
 IAtWgt=           1           1
 AtmWgt=   1.0078250   1.0078250
 NucSpn=           1           1
 AtZEff=  -0.0000000  -0.0000000
 NQMom=    0.0000000   0.0000000
 NMagM=    2.7928460   2.7928460
 AtZNuc=   1.0000000   1.0000000
 Leave Link  101 at Tue Apr 26 18:51:41 2022, MaxMem= 10485760000 cpu:               1.4 elap:               0.1
 (Enter /data0/hywu0/study/g16/l202.exe)
                          Input orientation:                          
 ---------------------------------------------------------------------
 Center     Atomic      Atomic             Coordinates (Angstroms)
 Number     Number       Type             X           Y           Z
 ---------------------------------------------------------------------
      1          6           0        7.160287   14.550474   11.403647
      2          6           0        8.447205   14.292247   10.820754
      3          6           0        9.484645   15.218739   10.972543
      4          6           0        9.217667   16.365133   11.699099
      5          6           0        7.948807   16.608921   12.271916
      6          6           0        6.903167   15.714614   12.132590
      7          1           0       10.456920   15.029094   10.522272
      8          1           0       10.001697   17.108270   11.840836
      9          1           0        7.800242   17.529030   12.836752
     10          1           0        5.918897   15.894040   12.560490
     11          1           0        5.365306   13.387720   11.276964
     12          6           0        7.141619   12.606259   10.286899
     13          1           0        6.761054   11.692080    9.850423
     14          7           0        6.357091   13.459488   11.064583
     15          7           0        8.392350   13.070957   10.142523
     16         15           0        7.882867   13.955294    6.927085
     17          8           0        6.574207   13.757794    7.567406
     18          8           0        9.058512   12.995752    7.373388
     19          1           0        9.066572   12.946098    8.435115
     20          8           0        7.796918   13.676976    5.362238
     21          1           0        8.746960   13.806691    4.974266
     22          8           0        8.530486   15.404999    6.990936
     23          1           0        8.040763   15.999781    7.687062
     24          8           0        7.232938   17.056195    8.926883
     25          1           0        7.595148   16.833430    9.790171
     26          1           0        6.334343   16.699391    8.931689
     27          8           0        3.994137   14.559665   11.184243
     28          1           0        4.210838   15.015326   10.353683
     29          1           0        3.049413   14.436769   11.175978
     30          8           0        4.747952   15.655234    8.686694
     31          1           0        4.244748   15.976073    7.938755
     32          1           0        5.336254   14.967477    8.312128
 ---------------------------------------------------------------------
                    Distance matrix (angstroms):
                    1          2          3          4          5
     1  C    0.000000
     2  C    1.436177   0.000000
     3  C    2.456638   1.399182   0.000000
     4  C    2.759183   2.379487   1.383250   0.000000
     5  C    2.369147   2.778714   2.445358   1.413350   0.000000
     6  C    1.397387   2.475499   2.873261   2.442949   1.382953
     7  H    3.445822   2.161247   1.088130   2.169256   3.442054
     8  H    3.847995   3.374463   2.142803   1.089516   2.156278
     9  H    3.366768   3.867761   3.413200   2.158241   1.089822
    10  H    2.164372   3.461902   3.961334   3.441774   2.171374
    11  H    2.142429   3.244133   4.518214   4.887113   4.247416
    12  C    2.242197   2.198206   3.575602   4.520334   4.540170
    13  H    3.277546   3.247386   4.595044   5.593744   5.608004
    14  N    1.396545   2.263077   3.589572   4.126533   3.729630
    15  N    2.301605   1.398054   2.548531   3.735729   4.153099
    16  P    4.573398   3.948756   4.530752   5.510094   5.967688
    17  O    3.960881   3.791838   4.711684   5.554906   5.670173
    18  O    4.718411   3.733487   4.251726   5.485420   6.187246
    19  H    3.875581   2.808381   3.431942   4.729294   5.420951
    20  O    6.137338   5.531440   6.058133   7.028551   7.507531
    21  H    6.663909   5.874269   6.206238   7.210449   7.857814
    22  O    4.698902   3.989067   4.098574   4.853954   5.447617
    23  H    4.085185   3.591781   3.672766   4.197026   4.626056
    24  O    3.523957   3.563790   3.554033   3.478778   3.449894
    25  H    2.829187   2.871535   2.752350   2.548701   2.516851
    26  H    3.377959   3.718480   4.035073   4.010467   3.711037
    27  O    3.173756   4.475874   5.533974   5.550681   4.584964
    28  H    3.165085   4.322939   5.313888   5.357281   4.493504
    29  H    4.118743   5.411398   6.485759   6.483795   5.470227
    30  O    3.797590   4.482903   5.277489   5.436625   4.899878
    31  H    4.747439   5.366734   6.101962   6.246717   5.735576
    32  H    3.613652   4.053043   4.934581   5.337638   5.019930
                    6          7          8          9         10
     6  C    0.000000
     7  H    3.961341   0.000000
     8  H    3.410027   2.503760   0.000000
     9  H    2.143057   4.320236   2.452609   0.000000
    10  H    1.088154   5.049368   4.319897   2.507782   0.000000
    11  H    2.917456   5.402611   5.971312   5.050970   2.869763
    12  C    3.622886   4.112998   5.555436   5.582939   4.180164
    13  H    4.627014   5.024586   6.618053   6.638378   5.070519
    14  N    2.554297   4.423388   5.215298   4.667380   2.890812
    15  N    3.628630   2.870707   4.666279   5.242507   4.464788
    16  P    5.581425   4.550183   6.210930   6.906705   6.273051
    17  O    4.977777   5.042112   6.421494   6.594800   5.470271
    18  O    5.889629   4.000687   6.144957   7.209868   6.720363
    19  H    5.100620   3.260087   5.458669   6.479295   5.967993
    20  O    7.126600   5.960687   7.655525   8.408727   7.762549
    21  H    7.634222   5.932841   7.721695   8.750472   8.360966
    22  O    5.401910   4.040147   5.346693   6.262454   6.170858
    23  H    4.597626   3.849476   4.725235   5.377338   5.316371
    24  O    3.490723   4.128979   4.019933   3.979005   4.034899
    25  H    2.686543   3.461407   3.173680   3.131705   3.371489
    26  H    3.396927   4.723927   4.698915   4.252843   3.740238
    27  O    3.270432   6.513535   6.558756   5.102387   2.716489
    28  H    3.301840   6.248372   6.334515   5.036682   2.925680
    29  H    4.171261   7.459849   7.477513   5.906829   3.503491
    30  O    4.064810   6.029404   6.297758   5.481840   4.053941
    31  H    4.972304   6.794292   7.046316   6.248487   4.916293
    32  H    4.196351   5.577612   6.229056   5.753696   4.387091
                   11         12         13         14         15
    11  H    0.000000
    12  C    2.178577   0.000000
    13  H    2.618841   1.082157   0.000000
    14  N    1.016806   1.395807   2.181995   0.000000
    15  N    3.248121   1.342057   2.155864   2.267913   0.000000
    16  P    5.057836   3.695632   3.863484   4.437646   3.373524
    17  O    3.919084   3.007263   3.084518   3.516585   3.226239
    18  O    5.388072   3.509235   3.621267   4.597570   2.849129
    19  H    4.687271   2.692590   2.981790   3.810375   1.839948
    20  O    6.401593   5.082139   5.015639   5.885333   4.855195
    21  H    7.164853   5.678224   5.673827   6.551640   5.232393
    22  O    5.697176   4.541505   5.009324   5.010315   3.924199
    23  H    5.183467   4.368478   4.987391   4.549229   3.838087
    24  O    4.740110   4.654021   5.463454   4.274713   4.324828
    25  H    4.365280   4.280351   5.208918   3.813187   3.862109
    26  H    4.172111   4.386572   5.108749   3.879011   4.343621
    27  O    1.806144   3.811517   4.202136   2.609264   4.758751
    28  H    2.198715   3.794409   4.219104   2.744524   4.616297
    29  H    2.544418   4.570271   4.802780   3.450829   5.610744
    30  O    3.497463   4.193632   4.594936   3.614552   4.698889
    31  H    4.370224   5.026061   5.323426   4.534974   5.522580
    32  H    3.359573   3.568531   3.889040   3.300325   4.035698
                   16         17         18         19         20
    16  P    0.000000
    17  O    1.470241   0.000000
    18  O    1.581786   2.605786   0.000000
    19  H    2.166515   2.761096   1.062918   0.000000
    20  O    1.591727   2.522760   2.469901   3.404229   0.000000
    21  H    2.140617   3.383433   2.551563   3.580537   1.034373
    22  O    1.589066   2.621570   2.495907   2.901592   2.485325
    23  H    2.186875   2.681718   3.187224   3.307090   3.295404
    24  O    3.746623   3.627886   4.715216   4.527355   4.944076
    25  H    4.069854   3.929700   4.765506   4.371798   5.441553
    26  H    3.734492   3.251430   4.854518   4.668926   4.900520
    27  O    5.797489   4.514562   6.528119   5.990901   7.009709
    28  H    5.133131   3.863967   6.038276   5.616116   6.290125
    29  H    6.453463   5.089889   7.255721   6.777952   7.544247
    30  O    3.976646   2.861519   5.232451   5.104232   4.925617
    31  H    4.282865   3.238061   5.689840   5.716389   4.954008
    32  H    3.070521   1.884269   4.315569   4.244570   4.052420
                   21         22         23         24         25
    21  H    0.000000
    22  O    2.582326   0.000000
    23  H    3.559160   1.038357   0.000000
    24  O    5.336171   2.856216   1.818172   0.000000
    25  H    5.803513   3.278870   2.305778   0.962334   0.000000
    26  H    5.463482   3.203907   2.224954   0.966853   1.531204
    27  O    7.856215   6.235132   5.538898   4.670992   4.481152
    28  H    7.139701   5.488103   4.769522   3.915864   3.882860
    29  H    8.445133   6.963778   6.287218   5.424178   5.322420
    30  O    5.761189   4.152803   3.458407   2.862785   3.272970
    31  H    5.810708   4.426289   3.804424   3.327513   3.922752
    32  H    4.911381   3.484263   2.961541   2.887573   3.281615
                   26         27         28         29         30
    26  H    0.000000
    27  O    3.889600   0.000000
    28  H    3.060623   0.971811   0.000000
    29  H    4.576795   0.952720   1.536166   0.000000
    30  O    1.914921   2.829533   1.864625   3.250573   0.000000
    31  H    2.423946   3.549959   2.599243   3.778610   0.956851
    32  H    2.092741   3.196347   2.331694   3.703097   0.979494
                   31         32
    31  H    0.000000
    32  H    1.532338   0.000000
 Symmetry turned off by external request.
 Stoichiometry    C7H15N2O7P
 Framework group  C1[X(C7H15N2O7P)]
 Deg. of freedom    90
 Full point group                 C1      NOp   1
 Rotational constants (GHZ):           0.5265757           0.3023800           0.2709221
 Leave Link  202 at Tue Apr 26 18:51:41 2022, MaxMem= 10485760000 cpu:               0.1 elap:               0.0
 (Enter /data0/hywu0/study/g16/l122.exe)
 Counterpoise: doing full-system calculation.
 Leave Link  122 at Tue Apr 26 18:51:41 2022, MaxMem= 10485760000 cpu:               0.0 elap:               0.0
 (Enter /data0/hywu0/study/g16/l301.exe)
 Standard basis: 6-311+G(2d,p) (5D, 7F)
 Ernie: Thresh=  0.10000D-02 Tol=  0.10000D-05 Strict=F.
   557 basis functions,   848 primitive gaussians,   591 cartesian basis functions
    71 alpha electrons       71 beta electrons
       nuclear repulsion energy      1538.6161492452 Hartrees.
 IExCor= 4336 DFT=T Ex+Corr=M062X ExCW=0 ScaHFX=  0.540000
 ScaDFX=  1.000000  1.000000  1.000000  1.000000 ScalE2=  1.000000  1.000000
 IRadAn=      5 IRanWt=     -1 IRanGd=            0 ICorTp=0 IEmpDi=131
 NAtoms=   32 NActive=   32 NUniq=   32 SFac= 1.00D+00 NAtFMM=   60 NAOKFM=F Big=F
 Integral buffers will be    131072 words long.
 Raffenetti 2 integral format.
 Two-electron integral symmetry is turned off.
 R6Disp:  Grimme-D3 Dispersion energy=       -0.0024449224 Hartrees.
 Nuclear repulsion after empirical dispersion term =     1538.6137043227 Hartrees.
 Leave Link  301 at Tue Apr 26 18:51:41 2022, MaxMem= 10485760000 cpu:               0.8 elap:               0.1
 (Enter /data0/hywu0/study/g16/l302.exe)
 NPDir=0 NMtPBC=     1 NCelOv=     1 NCel=       1 NClECP=     1 NCelD=      1
         NCelK=      1 NCelE2=     1 NClLst=     1 CellRange=     0.0.
 One-electron integrals computed using PRISM.
 NBasis=   557 RedAO= T EigKep=  1.24D-06  NBF=   557
 NBsUse=   556 1.00D-06 EigRej=  9.52D-07 NBFU=   556
 Precomputing XC quadrature grid using
 IXCGrd= 4 IRadAn=           5 IRanWt=          -1 IRanGd=           0 AccXCQ= 0.00D+00.
 Generated NRdTot=       0 NPtTot=           0 NUsed=           0 NTot=          32
 NSgBfM=   589   589   589   589   589 MxSgAt=    32 MxSgA2=    32.
 Leave Link  302 at Tue Apr 26 18:51:42 2022, MaxMem= 10485760000 cpu:               9.2 elap:               0.6
 (Enter /data0/hywu0/study/g16/l303.exe)
 DipDrv:  MaxL=1.
 Leave Link  303 at Tue Apr 26 18:51:42 2022, MaxMem= 10485760000 cpu:               1.0 elap:               0.1
 (Enter /data0/hywu0/study/g16/l401.exe)
 ExpMin= 3.48D-02 ExpMax= 7.75D+04 ExpMxC= 2.65D+03 IAcc=3 IRadAn=         5 AccDes= 0.00D+00
 Harris functional with IExCor= 1009 and IRadAn=       5 diagonalized for initial guess.
 HarFok:  IExCor= 1009 AccDes= 0.00D+00 IRadAn=         5 IDoV= 1 UseB2=F ITyADJ=14
 ICtDFT=  3500011 ScaDFX=  1.000000  1.000000  1.000000  1.000000
 FoFCou: FMM=F IPFlag=           0 FMFlag=      100000 FMFlg1=           0
         NFxFlg=           0 DoJE=T BraDBF=F KetDBF=T FulRan=T
         wScrn=  0.000000 ICntrl=       500 IOpCl=  0 I1Cent=   200000004 NGrid=           0
         NMat0=    1 NMatS0=      1 NMatT0=    0 NMatD0=    1 NMtDS0=    0 NMtDT0=    0
 Symmetry not used in FoFCou.
 Harris En= -1252.81867470780    
 JPrj=0 DoOrth=F DoCkMO=F.
 Leave Link  401 at Tue Apr 26 18:51:45 2022, MaxMem= 10485760000 cpu:              44.7 elap:               2.8
 (Enter /data0/hywu0/study/g16/l502.exe)
 Two-electron integral symmetry not used.
 Closed shell SCF:
 Using DIIS extrapolation, IDIIS=  1040.
 NGot= 10485760000 LenX= 10485047863 LenY= 10484697991
 Requested convergence on RMS density matrix=1.00D-08 within 128 cycles.
 Requested convergence on MAX density matrix=1.00D-06.
 Requested convergence on             energy=1.00D-06.
 No special actions if energy rises.
 Fock matrices will be formed incrementally for  20 cycles.

 Cycle   1  Pass 1  IDiag  1:
 FoFJK:  IHMeth= 1 ICntrl=       0 DoSepK=F KAlg= 0 I1Cent=           0 FoldK=F
 IRaf= 850000000 NMat=       1 IRICut=       1 DoRegI=T DoRafI=F ISym2E= 0 IDoP0=0 IntGTp=1.
 FoFCou: FMM=F IPFlag=           0 FMFlag=      100000 FMFlg1=           0
         NFxFlg=           0 DoJE=F BraDBF=F KetDBF=F FulRan=T
         wScrn=  0.000000 ICntrl=         0 IOpCl=  0 I1Cent=           0 NGrid=           0
         NMat0=    1 NMatS0=      1 NMatT0=    0 NMatD0=    1 NMtDS0=    0 NMtDT0=    0
 Symmetry not used in FoFCou.
 E= -1252.71773682635    
 DIIS: error= 2.59D-02 at cycle   1 NSaved=   1.
 NSaved= 1 IEnMin= 1 EnMin= -1252.71773682635     IErMin= 1 ErrMin= 2.59D-02
 ErrMax= 2.59D-02  0.00D+00 EMaxC= 1.00D-01 BMatC= 1.02D+00 BMatP= 1.02D+00
 IDIUse=3 WtCom= 7.41D-01 WtEn= 2.59D-01
 Coeff-Com:  0.100D+01
 Coeff-En:   0.100D+01
 Coeff:      0.100D+01
 Gap=     0.308 Goal=   None    Shift=    0.000
 GapD=    0.308 DampG=1.000 DampE=0.500 DampFc=0.5000 IDamp=-1.
 Damping current iteration by 5.00D-01
 RMSDP=2.61D-02 MaxDP=7.61D+00              OVMax= 1.96D-01

 Cycle   2  Pass 1  IDiag  1:
 RMSU=  8.37D-03    CP:  1.41D+00
 E= -1253.00285523225     Delta-E=       -0.285118405907 Rises=F Damp=T
 DIIS: error= 5.31D-03 at cycle   2 NSaved=   2.
 NSaved= 2 IEnMin= 2 EnMin= -1253.00285523225     IErMin= 2 ErrMin= 5.31D-03
 ErrMax= 5.31D-03  0.00D+00 EMaxC= 1.00D-01 BMatC= 5.65D-02 BMatP= 1.02D+00
 IDIUse=3 WtCom= 9.47D-01 WtEn= 5.31D-02
 Coeff-Com:  0.141D-02 0.999D+00
 Coeff-En:   0.657D-01 0.934D+00
 Coeff:      0.483D-02 0.995D+00
 Gap=     0.306 Goal=   None    Shift=    0.000
 RMSDP=4.08D-03 MaxDP=6.79D-01 DE=-2.85D-01 OVMax= 1.25D-01

 Cycle   3  Pass 1  IDiag  1:
 RMSU=  3.21D-03    CP:  1.31D+00  1.04D+00
 E= -1253.32455952927     Delta-E=       -0.321704297020 Rises=F Damp=F
 DIIS: error= 2.93D-03 at cycle   3 NSaved=   3.
 NSaved= 3 IEnMin= 3 EnMin= -1253.32455952927     IErMin= 3 ErrMin= 2.93D-03
 ErrMax= 2.93D-03  0.00D+00 EMaxC= 1.00D-01 BMatC= 1.40D-02 BMatP= 5.65D-02
 IDIUse=3 WtCom= 9.71D-01 WtEn= 2.93D-02
 Coeff-Com: -0.562D-01 0.286D+00 0.770D+00
 Coeff-En:   0.000D+00 0.000D+00 0.100D+01
 Coeff:     -0.545D-01 0.278D+00 0.777D+00
 Gap=     0.284 Goal=   None    Shift=    0.000
 RMSDP=1.66D-03 MaxDP=3.68D-01 DE=-3.22D-01 OVMax= 3.50D-02

 Cycle   4  Pass 1  IDiag  1:
 RMSU=  9.46D-04    CP:  1.26D+00  9.88D-01  9.05D-01
 E= -1253.33233503429     Delta-E=       -0.007775505016 Rises=F Damp=F
 DIIS: error= 1.73D-03 at cycle   4 NSaved=   4.
 NSaved= 4 IEnMin= 4 EnMin= -1253.33233503429     IErMin= 4 ErrMin= 1.73D-03
 ErrMax= 1.73D-03  0.00D+00 EMaxC= 1.00D-01 BMatC= 3.97D-03 BMatP= 1.40D-02
 IDIUse=3 WtCom= 9.83D-01 WtEn= 1.73D-02
 Coeff-Com: -0.288D-01 0.758D-01 0.408D+00 0.545D+00
 Coeff-En:   0.000D+00 0.000D+00 0.188D+00 0.812D+00
 Coeff:     -0.283D-01 0.745D-01 0.404D+00 0.549D+00
 Gap=     0.282 Goal=   None    Shift=    0.000
 RMSDP=4.78D-04 MaxDP=1.22D-01 DE=-7.78D-03 OVMax= 1.17D-02

 Cycle   5  Pass 1  IDiag  1:
 RMSU=  2.60D-04    CP:  1.27D+00  1.00D+00  9.14D-01  7.57D-01
 E= -1253.33529814422     Delta-E=       -0.002963109932 Rises=F Damp=F
 DIIS: error= 3.43D-04 at cycle   5 NSaved=   5.
 NSaved= 5 IEnMin= 5 EnMin= -1253.33529814422     IErMin= 5 ErrMin= 3.43D-04
 ErrMax= 3.43D-04  0.00D+00 EMaxC= 1.00D-01 BMatC= 1.37D-04 BMatP= 3.97D-03
 IDIUse=3 WtCom= 9.97D-01 WtEn= 3.43D-03
 Coeff-Com: -0.852D-02 0.158D-01 0.129D+00 0.236D+00 0.628D+00
 Coeff-En:   0.000D+00 0.000D+00 0.000D+00 0.000D+00 0.100D+01
 Coeff:     -0.849D-02 0.158D-01 0.128D+00 0.235D+00 0.629D+00
 Gap=     0.282 Goal=   None    Shift=    0.000
 RMSDP=9.37D-05 MaxDP=2.30D-02 DE=-2.96D-03 OVMax= 2.20D-03

 Cycle   6  Pass 1  IDiag  1:
 RMSU=  5.66D-05    CP:  1.27D+00  1.00D+00  9.21D-01  7.47D-01  7.60D-01
 E= -1253.33539941090     Delta-E=       -0.000101266679 Rises=F Damp=F
 DIIS: error= 8.13D-05 at cycle   6 NSaved=   6.
 NSaved= 6 IEnMin= 6 EnMin= -1253.33539941090     IErMin= 6 ErrMin= 8.13D-05
 ErrMax= 8.13D-05  0.00D+00 EMaxC= 1.00D-01 BMatC= 8.89D-06 BMatP= 1.37D-04
 IDIUse=1 WtCom= 1.00D+00 WtEn= 0.00D+00
 Coeff-Com: -0.127D-02 0.107D-02 0.219D-01 0.518D-01 0.251D+00 0.675D+00
 Coeff:     -0.127D-02 0.107D-02 0.219D-01 0.518D-01 0.251D+00 0.675D+00
 Gap=     0.282 Goal=   None    Shift=    0.000
 RMSDP=3.91D-05 MaxDP=1.04D-02 DE=-1.01D-04 OVMax= 7.93D-04

 Cycle   7  Pass 1  IDiag  1:
 RMSU=  1.82D-05    CP:  1.27D+00  1.00D+00  9.19D-01  7.62D-01  8.30D-01
                    CP:  8.61D-01
 E= -1253.33540733237     Delta-E=       -0.000007921473 Rises=F Damp=F
 DIIS: error= 2.45D-05 at cycle   7 NSaved=   7.
 NSaved= 7 IEnMin= 7 EnMin= -1253.33540733237     IErMin= 7 ErrMin= 2.45D-05
 ErrMax= 2.45D-05  0.00D+00 EMaxC= 1.00D-01 BMatC= 6.65D-07 BMatP= 8.89D-06
 IDIUse=1 WtCom= 1.00D+00 WtEn= 0.00D+00
 Coeff-Com:  0.453D-03-0.122D-02-0.588D-02-0.817D-02 0.167D-01 0.197D+00
 Coeff-Com:  0.801D+00
 Coeff:      0.453D-03-0.122D-02-0.588D-02-0.817D-02 0.167D-01 0.197D+00
 Coeff:      0.801D+00
 Gap=     0.282 Goal=   None    Shift=    0.000
 RMSDP=1.95D-05 MaxDP=5.21D-03 DE=-7.92D-06 OVMax= 4.47D-04

 Cycle   8  Pass 1  IDiag  1:
 RMSU=  9.50D-06    CP:  1.27D+00  1.00D+00  9.19D-01  7.64D-01  8.34D-01
                    CP:  9.33D-01  1.05D+00
 E= -1253.33540803299     Delta-E=       -0.000000700619 Rises=F Damp=F
 DIIS: error= 2.45D-05 at cycle   8 NSaved=   8.
 NSaved= 8 IEnMin= 8 EnMin= -1253.33540803299     IErMin= 7 ErrMin= 2.45D-05
 ErrMax= 2.45D-05  0.00D+00 EMaxC= 1.00D-01 BMatC= 2.64D-07 BMatP= 6.65D-07
 IDIUse=1 WtCom= 1.00D+00 WtEn= 0.00D+00
 Coeff-Com:  0.435D-03-0.830D-03-0.651D-02-0.125D-01-0.283D-01 0.817D-03
 Coeff-Com:  0.436D+00 0.611D+00
 Coeff:      0.435D-03-0.830D-03-0.651D-02-0.125D-01-0.283D-01 0.817D-03
 Coeff:      0.436D+00 0.611D+00
 Gap=     0.282 Goal=   None    Shift=    0.000
 RMSDP=8.44D-06 MaxDP=2.46D-03 DE=-7.01D-07 OVMax= 2.23D-04

 Cycle   9  Pass 1  IDiag  1:
 RMSU=  2.55D-06    CP:  1.27D+00  9.99D-01  9.19D-01  7.65D-01  8.45D-01
                    CP:  9.42D-01  1.15D+00  7.13D-01
 E= -1253.33540832903     Delta-E=       -0.000000296037 Rises=F Damp=F
 DIIS: error= 8.07D-06 at cycle   9 NSaved=   9.
 NSaved= 9 IEnMin= 9 EnMin= -1253.33540832903     IErMin= 9 ErrMin= 8.07D-06
 ErrMax= 8.07D-06  0.00D+00 EMaxC= 1.00D-01 BMatC= 1.10D-08 BMatP= 2.64D-07
 IDIUse=1 WtCom= 1.00D+00 WtEn= 0.00D+00
 Coeff-Com:  0.746D-04-0.123D-03-0.123D-02-0.272D-02-0.806D-02-0.133D-01
 Coeff-Com:  0.553D-01 0.174D+00 0.796D+00
 Coeff:      0.746D-04-0.123D-03-0.123D-02-0.272D-02-0.806D-02-0.133D-01
 Coeff:      0.553D-01 0.174D+00 0.796D+00
 Gap=     0.282 Goal=   None    Shift=    0.000
 RMSDP=1.74D-06 MaxDP=4.77D-04 DE=-2.96D-07 OVMax= 9.86D-05

 Cycle  10  Pass 1  IDiag  1:
 RMSU=  8.47D-07    CP:  1.27D+00  1.00D+00  9.19D-01  7.65D-01  8.43D-01
                    CP:  9.47D-01  1.15D+00  7.66D-01  9.98D-01
 E= -1253.33540834526     Delta-E=       -0.000000016233 Rises=F Damp=F
 DIIS: error= 2.90D-06 at cycle  10 NSaved=  10.
 NSaved=10 IEnMin=10 EnMin= -1253.33540834526     IErMin=10 ErrMin= 2.90D-06
 ErrMax= 2.90D-06  0.00D+00 EMaxC= 1.00D-01 BMatC= 6.31D-09 BMatP= 1.10D-08
 IDIUse=1 WtCom= 1.00D+00 WtEn= 0.00D+00
 Coeff-Com: -0.408D-04 0.877D-04 0.534D-03 0.736D-03 0.376D-03-0.904D-02
 Coeff-Com: -0.556D-01-0.186D-01 0.479D+00 0.603D+00
 Coeff:     -0.408D-04 0.877D-04 0.534D-03 0.736D-03 0.376D-03-0.904D-02
 Coeff:     -0.556D-01-0.186D-01 0.479D+00 0.603D+00
 Gap=     0.282 Goal=   None    Shift=    0.000
 RMSDP=1.23D-06 MaxDP=4.09D-04 DE=-1.62D-08 OVMax= 4.46D-05

 Cycle  11  Pass 1  IDiag  1:
 RMSU=  4.53D-07    CP:  1.27D+00  9.99D-01  9.19D-01  7.65D-01  8.45D-01
                    CP:  9.45D-01  1.16D+00  7.83D-01  1.15D+00  6.73D-01
 E= -1253.33540835315     Delta-E=       -0.000000007887 Rises=F Damp=F
 DIIS: error= 1.01D-06 at cycle  11 NSaved=  11.
 NSaved=11 IEnMin=11 EnMin= -1253.33540835315     IErMin=11 ErrMin= 1.01D-06
 ErrMax= 1.01D-06  0.00D+00 EMaxC= 1.00D-01 BMatC= 2.72D-10 BMatP= 6.31D-09
 IDIUse=1 WtCom= 1.00D+00 WtEn= 0.00D+00
 Coeff-Com: -0.211D-04 0.415D-04 0.337D-03 0.576D-03 0.112D-02-0.138D-02
 Coeff-Com: -0.264D-01-0.291D-01 0.536D-01 0.182D+00 0.820D+00
 Coeff:     -0.211D-04 0.415D-04 0.337D-03 0.576D-03 0.112D-02-0.138D-02
 Coeff:     -0.264D-01-0.291D-01 0.536D-01 0.182D+00 0.820D+00
 Gap=     0.282 Goal=   None    Shift=    0.000
 RMSDP=3.74D-07 MaxDP=8.97D-05 DE=-7.89D-09 OVMax= 2.11D-05

 Cycle  12  Pass 1  IDiag  1:
 RMSU=  1.16D-07    CP:  1.27D+00  9.99D-01  9.19D-01  7.65D-01  8.45D-01
                    CP:  9.46D-01  1.16D+00  7.94D-01  1.19D+00  7.54D-01
                    CP:  1.01D+00
 E= -1253.33540835392     Delta-E=       -0.000000000772 Rises=F Damp=F
 DIIS: error= 4.81D-07 at cycle  12 NSaved=  12.
 NSaved=12 IEnMin=12 EnMin= -1253.33540835392     IErMin=12 ErrMin= 4.81D-07
 ErrMax= 4.81D-07  0.00D+00 EMaxC= 1.00D-01 BMatC= 5.22D-11 BMatP= 2.72D-10
 IDIUse=1 WtCom= 1.00D+00 WtEn= 0.00D+00
 Coeff-Com: -0.173D-05 0.283D-05 0.562D-04 0.115D-03 0.352D-03 0.697D-03
 Coeff-Com: -0.260D-02-0.820D-02-0.424D-01-0.195D-01 0.290D+00 0.781D+00
 Coeff:     -0.173D-05 0.283D-05 0.562D-04 0.115D-03 0.352D-03 0.697D-03
 Coeff:     -0.260D-02-0.820D-02-0.424D-01-0.195D-01 0.290D+00 0.781D+00
 Gap=     0.282 Goal=   None    Shift=    0.000
 RMSDP=1.97D-07 MaxDP=6.21D-05 DE=-7.72D-10 OVMax= 8.46D-06

 Cycle  13  Pass 1  IDiag  1:
 RMSU=  5.01D-08    CP:  1.27D+00  9.99D-01  9.19D-01  7.65D-01  8.45D-01
                    CP:  9.45D-01  1.17D+00  7.97D-01  1.21D+00  7.36D-01
                    CP:  1.17D+00  1.25D+00
 E= -1253.33540835400     Delta-E=       -0.000000000079 Rises=F Damp=F
 DIIS: error= 1.60D-07 at cycle  13 NSaved=  13.
 NSaved=13 IEnMin=13 EnMin= -1253.33540835400     IErMin=13 ErrMin= 1.60D-07
 ErrMax= 1.60D-07  0.00D+00 EMaxC= 1.00D-01 BMatC= 1.37D-11 BMatP= 5.22D-11
 IDIUse=1 WtCom= 1.00D+00 WtEn= 0.00D+00
 Coeff-Com:  0.328D-05-0.651D-05-0.358D-04-0.535D-04-0.375D-04 0.661D-03
 Coeff-Com:  0.389D-02 0.199D-02-0.292D-01-0.443D-01-0.123D-01 0.398D+00
 Coeff-Com:  0.681D+00
 Coeff:      0.328D-05-0.651D-05-0.358D-04-0.535D-04-0.375D-04 0.661D-03
 Coeff:      0.389D-02 0.199D-02-0.292D-01-0.443D-01-0.123D-01 0.398D+00
 Coeff:      0.681D+00
 Gap=     0.282 Goal=   None    Shift=    0.000
 RMSDP=3.41D-08 MaxDP=6.19D-06 DE=-7.91D-11 OVMax= 3.13D-06

 Cycle  14  Pass 1  IDiag  1:
 RMSU=  2.07D-08    CP:  1.27D+00  9.99D-01  9.19D-01  7.65D-01  8.45D-01
                    CP:  9.45D-01  1.17D+00  7.98D-01  1.20D+00  7.33D-01
                    CP:  1.21D+00  1.34D+00  1.07D+00
 E= -1253.33540835405     Delta-E=       -0.000000000051 Rises=F Damp=F
 DIIS: error= 6.79D-08 at cycle  14 NSaved=  14.
 NSaved=14 IEnMin=14 EnMin= -1253.33540835405     IErMin=14 ErrMin= 6.79D-08
 ErrMax= 6.79D-08  0.00D+00 EMaxC= 1.00D-01 BMatC= 9.49D-13 BMatP= 1.37D-11
 IDIUse=1 WtCom= 1.00D+00 WtEn= 0.00D+00
 Coeff-Com:  0.112D-05-0.225D-05-0.173D-04-0.294D-04-0.611D-04 0.103D-03
 Coeff-Com:  0.138D-02 0.171D-02-0.323D-02-0.112D-01-0.457D-01 0.261D-01
 Coeff-Com:  0.213D+00 0.818D+00
 Coeff:      0.112D-05-0.225D-05-0.173D-04-0.294D-04-0.611D-04 0.103D-03
 Coeff:      0.138D-02 0.171D-02-0.323D-02-0.112D-01-0.457D-01 0.261D-01
 Coeff:      0.213D+00 0.818D+00
 Gap=     0.282 Goal=   None    Shift=    0.000
 RMSDP=3.54D-08 MaxDP=1.11D-05 DE=-5.14D-11 OVMax= 1.15D-06

 Cycle  15  Pass 1  IDiag  1:
 RMSU=  6.42D-09    CP:  1.27D+00  9.99D-01  9.19D-01  7.65D-01  8.45D-01
                    CP:  9.45D-01  1.17D+00  7.98D-01  1.21D+00  7.30D-01
                    CP:  1.22D+00  1.39D+00  1.17D+00  1.06D+00
 E= -1253.33540835408     Delta-E=       -0.000000000030 Rises=F Damp=F
 DIIS: error= 1.49D-08 at cycle  15 NSaved=  15.
 NSaved=15 IEnMin=15 EnMin= -1253.33540835408     IErMin=15 ErrMin= 1.49D-08
 ErrMax= 1.49D-08  0.00D+00 EMaxC= 1.00D-01 BMatC= 1.73D-13 BMatP= 9.49D-13
 IDIUse=1 WtCom= 1.00D+00 WtEn= 0.00D+00
 Coeff-Com: -0.250D-07 0.158D-07-0.201D-05-0.401D-05-0.167D-04-0.295D-04
 Coeff-Com:  0.226D-04 0.447D-03 0.240D-02 0.158D-02-0.150D-01-0.407D-01
 Coeff-Com: -0.158D-01 0.320D+00 0.747D+00
 Coeff:     -0.250D-07 0.158D-07-0.201D-05-0.401D-05-0.167D-04-0.295D-04
 Coeff:      0.226D-04 0.447D-03 0.240D-02 0.158D-02-0.150D-01-0.407D-01
 Coeff:     -0.158D-01 0.320D+00 0.747D+00
 Gap=     0.282 Goal=   None    Shift=    0.000
 RMSDP=7.74D-09 MaxDP=1.94D-06 DE=-3.05D-11 OVMax= 2.97D-07

 Cycle  16  Pass 1  IDiag  1:
 RMSU=  2.38D-09    CP:  1.27D+00  9.99D-01  9.19D-01  7.65D-01  8.45D-01
                    CP:  9.45D-01  1.17D+00  7.98D-01  1.21D+00  7.30D-01
                    CP:  1.23D+00  1.40D+00  1.19D+00  1.14D+00  1.03D+00
 E= -1253.33540835397     Delta-E=        0.000000000117 Rises=F Damp=F
 DIIS: error= 4.88D-09 at cycle  16 NSaved=  16.
 NSaved=16 IEnMin=15 EnMin= -1253.33540835408     IErMin=16 ErrMin= 4.88D-09
 ErrMax= 4.88D-09  0.00D+00 EMaxC= 1.00D-01 BMatC= 2.41D-14 BMatP= 1.73D-13
 IDIUse=1 WtCom= 1.00D+00 WtEn= 0.00D+00
 Coeff-Com: -0.139D-06 0.256D-06 0.944D-06 0.158D-05-0.554D-06-0.225D-04
 Coeff-Com: -0.152D-03 0.138D-04 0.128D-02 0.195D-02-0.138D-02-0.206D-01
 Coeff-Com: -0.335D-01 0.567D-01 0.324D+00 0.672D+00
 Coeff:     -0.139D-06 0.256D-06 0.944D-06 0.158D-05-0.554D-06-0.225D-04
 Coeff:     -0.152D-03 0.138D-04 0.128D-02 0.195D-02-0.138D-02-0.206D-01
 Coeff:     -0.335D-01 0.567D-01 0.324D+00 0.672D+00
 Gap=     0.282 Goal=   None    Shift=    0.000
 RMSDP=1.57D-09 MaxDP=3.36D-07 DE= 1.17D-10 OVMax= 9.12D-08

 SCF Done:  E(RM062X) =  -1253.33540835     A.U. after   16 cycles
            NFock= 16  Conv=0.16D-08     -V/T= 2.0033
 KE= 1.249200100695D+03 PE=-6.030320715686D+03 EE= 1.989171502314D+03
 Leave Link  502 at Tue Apr 26 18:54:41 2022, MaxMem= 10485760000 cpu:            2804.3 elap:             175.9
 (Enter /data0/hywu0/study/g16/l601.exe)
 Copying SCF densities to generalized density rwf, IOpCl= 0 IROHF=0.

 **********************************************************************

            Population analysis using the SCF density.

 **********************************************************************

 Alpha  occ. eigenvalues --  -78.15153 -19.65551 -19.65406 -19.63937 -19.63934
 Alpha  occ. eigenvalues --  -19.63656 -19.62783 -19.59275 -14.80870 -14.76125
 Alpha  occ. eigenvalues --  -10.63490 -10.59649 -10.58498 -10.56066 -10.55825
 Alpha  occ. eigenvalues --  -10.55635 -10.55403  -6.95852  -5.07762  -5.07697
 Alpha  occ. eigenvalues --   -5.07632  -1.21326  -1.16823  -1.15349  -1.14039
 Alpha  occ. eigenvalues --   -1.13397  -1.12938  -1.12451  -1.09260  -0.99103
 Alpha  occ. eigenvalues --   -0.96334  -0.85539  -0.84439  -0.72795  -0.71621
 Alpha  occ. eigenvalues --   -0.70050  -0.69186  -0.64566  -0.63664  -0.62824
 Alpha  occ. eigenvalues --   -0.62388  -0.61448  -0.60550  -0.58255  -0.56967
 Alpha  occ. eigenvalues --   -0.55657  -0.53349  -0.52962  -0.52057  -0.51756
 Alpha  occ. eigenvalues --   -0.50733  -0.50038  -0.49242  -0.49137  -0.48056
 Alpha  occ. eigenvalues --   -0.46905  -0.44823  -0.44295  -0.44166  -0.43457
 Alpha  occ. eigenvalues --   -0.42864  -0.42506  -0.41859  -0.40721  -0.39716
 Alpha  occ. eigenvalues --   -0.39114  -0.38304  -0.37673  -0.36799  -0.29807
 Alpha  occ. eigenvalues --   -0.29346
 Alpha virt. eigenvalues --   -0.01135   0.00269   0.01347   0.01653   0.02475
 Alpha virt. eigenvalues --    0.02609   0.03211   0.03752   0.04511   0.04706
 Alpha virt. eigenvalues --    0.04950   0.06196   0.06663   0.07050   0.07617
 Alpha virt. eigenvalues --    0.08139   0.08591   0.09356   0.10444   0.10993
 Alpha virt. eigenvalues --    0.12067   0.12311   0.12688   0.12782   0.13504
 Alpha virt. eigenvalues --    0.14175   0.14648   0.14997   0.15519   0.15715
 Alpha virt. eigenvalues --    0.16069   0.16882   0.17125   0.17428   0.17500
 Alpha virt. eigenvalues --    0.18221   0.18640   0.19082   0.19112   0.19488
 Alpha virt. eigenvalues --    0.19908   0.20533   0.20746   0.20979   0.21256
 Alpha virt. eigenvalues --    0.21718   0.21962   0.22272   0.22810   0.23195
 Alpha virt. eigenvalues --    0.23716   0.23878   0.24170   0.24468   0.24868
 Alpha virt. eigenvalues --    0.24921   0.25117   0.25622   0.26345   0.26611
 Alpha virt. eigenvalues --    0.26749   0.27157   0.27621   0.28299   0.28494
 Alpha virt. eigenvalues --    0.28808   0.29336   0.29694   0.29747   0.29980
 Alpha virt. eigenvalues --    0.30628   0.31169   0.31699   0.31775   0.32460
 Alpha virt. eigenvalues --    0.33137   0.33873   0.34048   0.34789   0.35084
 Alpha virt. eigenvalues --    0.35495   0.36552   0.37116   0.37446   0.38182
 Alpha virt. eigenvalues --    0.39605   0.40235   0.40706   0.41297   0.41591
 Alpha virt. eigenvalues --    0.42360   0.42915   0.43999   0.45189   0.46285
 Alpha virt. eigenvalues --    0.46394   0.46941   0.47631   0.48497   0.49407
 Alpha virt. eigenvalues --    0.51604   0.51870   0.53409   0.54253   0.54888
 Alpha virt. eigenvalues --    0.55669   0.56340   0.56667   0.57411   0.57505
 Alpha virt. eigenvalues --    0.58297   0.59427   0.60056   0.60580   0.60933
 Alpha virt. eigenvalues --    0.61921   0.63549   0.64119   0.65325   0.66063
 Alpha virt. eigenvalues --    0.66449   0.67009   0.67619   0.67853   0.68465
 Alpha virt. eigenvalues --    0.68868   0.69832   0.70908   0.71990   0.72482
 Alpha virt. eigenvalues --    0.73515   0.74064   0.74302   0.75080   0.76546
 Alpha virt. eigenvalues --    0.76906   0.77627   0.79258   0.80372   0.80888
 Alpha virt. eigenvalues --    0.81762   0.83182   0.83896   0.85049   0.85128
 Alpha virt. eigenvalues --    0.85800   0.86294   0.86792   0.86980   0.88455
 Alpha virt. eigenvalues --    0.88903   0.89959   0.90260   0.91128   0.91842
 Alpha virt. eigenvalues --    0.94132   0.94413   0.95370   0.96180   0.97062
 Alpha virt. eigenvalues --    0.99442   1.00936   1.03244   1.04616   1.05548
 Alpha virt. eigenvalues --    1.06443   1.07522   1.08096   1.09330   1.10118
 Alpha virt. eigenvalues --    1.11110   1.12381   1.12695   1.13316   1.13948
 Alpha virt. eigenvalues --    1.15050   1.15603   1.15997   1.16860   1.17249
 Alpha virt. eigenvalues --    1.18132   1.18241   1.19192   1.20466   1.20758
 Alpha virt. eigenvalues --    1.21432   1.22076   1.22788   1.23446   1.23994
 Alpha virt. eigenvalues --    1.24562   1.25243   1.26001   1.27214   1.27940
 Alpha virt. eigenvalues --    1.27975   1.28497   1.29716   1.30794   1.31278
 Alpha virt. eigenvalues --    1.32484   1.33154   1.34426   1.34668   1.35216
 Alpha virt. eigenvalues --    1.36244   1.36368   1.38191   1.38972   1.39477
 Alpha virt. eigenvalues --    1.39565   1.40401   1.41119   1.42157   1.43842
 Alpha virt. eigenvalues --    1.44428   1.45070   1.45718   1.47053   1.48295
 Alpha virt. eigenvalues --    1.48868   1.49886   1.50242   1.52724   1.52921
 Alpha virt. eigenvalues --    1.54397   1.55143   1.56832   1.58957   1.59392
 Alpha virt. eigenvalues --    1.60775   1.61211   1.61948   1.63193   1.64411
 Alpha virt. eigenvalues --    1.66333   1.67141   1.67979   1.69068   1.69770
 Alpha virt. eigenvalues --    1.70025   1.70823   1.71866   1.73009   1.74130
 Alpha virt. eigenvalues --    1.75464   1.76103   1.76698   1.77679   1.78743
 Alpha virt. eigenvalues --    1.80037   1.81348   1.81849   1.82529   1.86329
 Alpha virt. eigenvalues --    1.88508   1.89372   1.90174   1.91338   1.92347
 Alpha virt. eigenvalues --    1.92771   1.94284   1.95324   1.97437   1.98062
 Alpha virt. eigenvalues --    1.99112   2.00326   2.01240   2.01469   2.03469
 Alpha virt. eigenvalues --    2.04040   2.05716   2.07233   2.07815   2.08504
 Alpha virt. eigenvalues --    2.10034   2.12050   2.12594   2.14217   2.15981
 Alpha virt. eigenvalues --    2.17062   2.18899   2.20660   2.21850   2.22975
 Alpha virt. eigenvalues --    2.24817   2.25308   2.29571   2.32121   2.32954
 Alpha virt. eigenvalues --    2.33630   2.36620   2.36705   2.38752   2.41477
 Alpha virt. eigenvalues --    2.42677   2.44107   2.47161   2.47820   2.51325
 Alpha virt. eigenvalues --    2.53026   2.55979   2.56686   2.59501   2.60989
 Alpha virt. eigenvalues --    2.62595   2.63801   2.65052   2.65509   2.68571
 Alpha virt. eigenvalues --    2.69093   2.69698   2.71396   2.72017   2.74168
 Alpha virt. eigenvalues --    2.76311   2.77207   2.78392   2.79174   2.80938
 Alpha virt. eigenvalues --    2.83729   2.84818   2.85752   2.86696   2.88665
 Alpha virt. eigenvalues --    2.91252   2.92088   2.93594   2.94830   2.96214
 Alpha virt. eigenvalues --    2.97016   2.98306   2.99283   3.00603   3.01139
 Alpha virt. eigenvalues --    3.04949   3.07089   3.09552   3.11315   3.14300
 Alpha virt. eigenvalues --    3.15524   3.17125   3.18041   3.18757   3.21361
 Alpha virt. eigenvalues --    3.24253   3.26113   3.29730   3.30165   3.30997
 Alpha virt. eigenvalues --    3.31434   3.36241   3.36386   3.38675   3.39962
 Alpha virt. eigenvalues --    3.40889   3.43529   3.45272   3.48011   3.48550
 Alpha virt. eigenvalues --    3.50396   3.51708   3.54521   3.57370   3.58660
 Alpha virt. eigenvalues --    3.59773   3.61106   3.62344   3.63940   3.65118
 Alpha virt. eigenvalues --    3.68770   3.73759   3.74779   3.75024   3.77689
 Alpha virt. eigenvalues --    3.79846   3.84136   3.87545   3.93306   3.94222
 Alpha virt. eigenvalues --    3.95451   3.96201   4.00496   4.01852   4.04632
 Alpha virt. eigenvalues --    4.07027   4.09864   4.15648   4.26228   4.43595
 Alpha virt. eigenvalues --    4.57336   4.66703   4.71777   4.74799   4.92620
 Alpha virt. eigenvalues --    5.00870   5.02030   5.04340   5.08014   5.09857
 Alpha virt. eigenvalues --    5.11788   5.13447   5.14504   5.14947   5.17117
 Alpha virt. eigenvalues --    5.17824   5.19084   5.20207   5.22352   5.22885
 Alpha virt. eigenvalues --    5.25609   5.27605   5.31615   5.32631   5.36651
 Alpha virt. eigenvalues --    5.41305   5.42578   5.43986   5.55244   5.58827
 Alpha virt. eigenvalues --    5.60299   5.60678   5.63884   5.65214   5.66400
 Alpha virt. eigenvalues --    5.69649   5.94793   5.97994   6.00061   6.75046
 Alpha virt. eigenvalues --    6.76765   6.77973   6.79805   6.80895   6.81087
 Alpha virt. eigenvalues --    6.81767   6.81894   6.83208   6.83966   6.84348
 Alpha virt. eigenvalues --    6.87693   6.88664   6.89487   6.90729   6.92013
 Alpha virt. eigenvalues --    6.92834   6.94802   6.94972   6.95228   6.98046
 Alpha virt. eigenvalues --    6.99409   7.01045   7.03663   7.06818   7.12910
 Alpha virt. eigenvalues --    7.13198   7.16292   7.18575   7.18816   7.26650
 Alpha virt. eigenvalues --    7.28459   7.35069   7.37203   7.44263   7.70357
 Alpha virt. eigenvalues --   14.28146  14.30020  14.40589  23.81464  24.03267
 Alpha virt. eigenvalues --   24.06790  24.11580  24.13048  24.25243  24.27907
 Alpha virt. eigenvalues --   35.75227  35.81207  50.01684  50.03382  50.04461
 Alpha virt. eigenvalues --   50.06377  50.08208  50.09982  50.13346 163.95630
          Condensed to atoms (all electrons):
               1          2          3          4          5          6
     1  C   23.039342 -12.935361  -1.185360  -1.291338   0.825204  -3.896048
     2  C  -12.935361  20.803245  -1.418119   0.894321  -1.430470   1.132899
     3  C   -1.185360  -1.418119   8.616494  -0.355499   0.079513   1.283311
     4  C   -1.291338   0.894321  -0.355499   6.196080   0.348872  -0.053447
     5  C    0.825204  -1.430470   0.079513   0.348872   5.680581   0.287850
     6  C   -3.896048   1.132899   1.283311  -0.053447   0.287850   8.105495
     7  H    0.038204  -0.021682   0.341069  -0.007968   0.007880  -0.018306
     8  H   -0.008235   0.032402  -0.046164   0.394112  -0.033769   0.011271
     9  H    0.040354   0.000580   0.003516  -0.032792   0.395196  -0.057224
    10  H    0.034182  -0.007677  -0.015270   0.010718  -0.012823   0.342928
    11  H    0.047035  -0.018516  -0.012554   0.000551  -0.003615  -0.041117
    12  C    0.529424  -0.855199  -0.525012   0.033714  -0.025018  -0.556032
    13  H    0.015619   0.022423   0.013901   0.000505   0.001037   0.013194
    14  N   -1.090808   1.102180  -0.062519   0.070163  -0.052037   0.070856
    15  N    1.799332  -1.516912  -0.433841  -0.076926   0.085344  -0.227875
    16  P   -0.023318   0.078429  -0.017283  -0.004795   0.012852   0.010579
    17  O   -0.052165   0.082188  -0.011522   0.012188   0.003253  -0.016495
    18  O   -0.042441  -0.019018   0.071417   0.003923  -0.002566   0.017595
    19  H    0.000546   0.052433  -0.058827   0.007148   0.000771  -0.015525
    20  O    0.004036  -0.011367   0.005214   0.000576  -0.000055  -0.000019
    21  H    0.000196   0.000353  -0.000325  -0.000243  -0.000024   0.000042
    22  O    0.071008  -0.049082  -0.021111  -0.022777   0.000767  -0.020602
    23  H   -0.078576   0.043776   0.061592  -0.023581  -0.002074   0.038163
    24  O    0.183745   0.185429  -0.252760   0.104497  -0.011674  -0.244408
    25  H   -0.031708  -0.129874   0.116002  -0.027505  -0.008783   0.076665
    26  H   -0.015569  -0.088858   0.067499  -0.031533   0.019757   0.085109
    27  O   -0.056308   0.072045   0.006238   0.001419  -0.026052   0.010846
    28  H    0.019999  -0.015716   0.001865  -0.002245   0.004739   0.005522
    29  H   -0.017283   0.002932  -0.000191   0.000077   0.004414   0.008251
    30  O   -0.062428   0.049622  -0.002301   0.003078  -0.006434   0.009846
    31  H   -0.003910   0.001999  -0.001097   0.000439  -0.000206  -0.002031
    32  H    0.029166  -0.018367   0.001520  -0.000138   0.000273  -0.004188
               7          8          9         10         11         12
     1  C    0.038204  -0.008235   0.040354   0.034182   0.047035   0.529424
     2  C   -0.021682   0.032402   0.000580  -0.007677  -0.018516  -0.855199
     3  C    0.341069  -0.046164   0.003516  -0.015270  -0.012554  -0.525012
     4  C   -0.007968   0.394112  -0.032792   0.010718   0.000551   0.033714
     5  C    0.007880  -0.033769   0.395196  -0.012823  -0.003615  -0.025018
     6  C   -0.018306   0.011271  -0.057224   0.342928  -0.041117  -0.556032
     7  H    0.509069  -0.005099  -0.000203   0.000078   0.000027   0.006057
     8  H   -0.005099   0.530784  -0.005294  -0.000216  -0.000001   0.000626
     9  H   -0.000203  -0.005294   0.530607  -0.004408   0.000011   0.000857
    10  H    0.000078  -0.000216  -0.004408   0.492569   0.001270   0.003525
    11  H    0.000027  -0.000001   0.000011   0.001270   0.359637   0.015228
    12  C    0.006057   0.000626   0.000857   0.003525   0.015228   5.930043
    13  H   -0.000020  -0.000000  -0.000000  -0.000012  -0.002973   0.374951
    14  N   -0.001187   0.000546  -0.000687  -0.005778   0.326863   0.294330
    15  N    0.008652  -0.000703   0.000228   0.000014   0.001957   0.644921
    16  P   -0.000397   0.000054   0.000001   0.000055   0.000048  -0.034300
    17  O    0.000160   0.000001  -0.000001   0.000064  -0.000759   0.000249
    18  O   -0.000863  -0.000000  -0.000001  -0.000011   0.000008  -0.030710
    19  H    0.001482  -0.000003   0.000001   0.000009  -0.000044   0.015270
    20  O   -0.000002  -0.000000   0.000000  -0.000000   0.000022  -0.004459
    21  H   -0.000003   0.000000   0.000000  -0.000000   0.000000   0.001528
    22  O   -0.000195  -0.000021   0.000002   0.000022   0.000145   0.054724
    23  H   -0.000716   0.000022  -0.000012  -0.000061  -0.000099  -0.019334
    24  O    0.001383   0.000010   0.000205   0.002472   0.001708   0.075296
    25  H   -0.000640  -0.000241  -0.000577  -0.001471  -0.000335  -0.011616
    26  H   -0.000137  -0.000008  -0.000161  -0.000970  -0.000733  -0.023776
    27  O   -0.000008  -0.000000   0.000052  -0.002905  -0.041391  -0.015860
    28  H   -0.000000  -0.000000   0.000003  -0.000695   0.004431  -0.002825
    29  H   -0.000000  -0.000000  -0.000000   0.000401   0.000946   0.000353
    30  O    0.000002   0.000003  -0.000013   0.000145  -0.001948   0.005938
    31  H   -0.000000   0.000000   0.000000   0.000008   0.000140   0.003214
    32  H    0.000005  -0.000001  -0.000003  -0.000076   0.000373  -0.008290
              13         14         15         16         17         18
     1  C    0.015619  -1.090808   1.799332  -0.023318  -0.052165  -0.042441
     2  C    0.022423   1.102180  -1.516912   0.078429   0.082188  -0.019018
     3  C    0.013901  -0.062519  -0.433841  -0.017283  -0.011522   0.071417
     4  C    0.000505   0.070163  -0.076926  -0.004795   0.012188   0.003923
     5  C    0.001037  -0.052037   0.085344   0.012852   0.003253  -0.002566
     6  C    0.013194   0.070856  -0.227875   0.010579  -0.016495   0.017595
     7  H   -0.000020  -0.001187   0.008652  -0.000397   0.000160  -0.000863
     8  H   -0.000000   0.000546  -0.000703   0.000054   0.000001  -0.000000
     9  H   -0.000000  -0.000687   0.000228   0.000001  -0.000001  -0.000001
    10  H   -0.000012  -0.005778   0.000014   0.000055   0.000064  -0.000011
    11  H   -0.002973   0.326863   0.001957   0.000048  -0.000759   0.000008
    12  C    0.374951   0.294330   0.644921  -0.034300   0.000249  -0.030710
    13  H    0.486620  -0.039203  -0.055906   0.000384  -0.003597   0.001465
    14  N   -0.039203   6.822180  -0.181145  -0.000084   0.018750   0.002638
    15  N   -0.055906  -0.181145   7.319125  -0.022271  -0.030154  -0.021979
    16  P    0.000384  -0.000084  -0.022271  12.400091   0.490198   0.312801
    17  O   -0.003597   0.018750  -0.030154   0.490198   8.192590  -0.021110
    18  O    0.001465   0.002638  -0.021979   0.312801  -0.021110   8.100388
    19  H   -0.000696   0.005199   0.044192   0.009104  -0.006929   0.227133
    20  O    0.000112  -0.000283   0.001488   0.269901  -0.001356  -0.000532
    21  H   -0.000001  -0.000061  -0.000291   0.003131  -0.007080  -0.006500
    22  O   -0.000537  -0.008112   0.013729   0.278652  -0.049648  -0.014034
    23  H    0.000039   0.002035  -0.008275   0.020388  -0.019023   0.010851
    24  O   -0.000080  -0.009989  -0.027516  -0.002055   0.036024  -0.011782
    25  H   -0.000016  -0.003933   0.010203  -0.005995  -0.007834   0.001933
    26  H    0.000042  -0.000433   0.004259   0.008788  -0.009725   0.001811
    27  O    0.000117  -0.004052  -0.002707  -0.000606   0.000066  -0.000021
    28  H    0.000055  -0.007353   0.000064   0.001623  -0.001612   0.000031
    29  H    0.000003   0.005491  -0.000039   0.000036   0.000047  -0.000000
    30  O   -0.000326   0.017198  -0.005072  -0.008359  -0.028505  -0.002228
    31  H   -0.000009   0.000159   0.000114  -0.001135   0.000048  -0.000062
    32  H    0.000323   0.004195   0.000538   0.013300   0.085693   0.003435
              19         20         21         22         23         24
     1  C    0.000546   0.004036   0.000196   0.071008  -0.078576   0.183745
     2  C    0.052433  -0.011367   0.000353  -0.049082   0.043776   0.185429
     3  C   -0.058827   0.005214  -0.000325  -0.021111   0.061592  -0.252760
     4  C    0.007148   0.000576  -0.000243  -0.022777  -0.023581   0.104497
     5  C    0.000771  -0.000055  -0.000024   0.000767  -0.002074  -0.011674
     6  C   -0.015525  -0.000019   0.000042  -0.020602   0.038163  -0.244408
     7  H    0.001482  -0.000002  -0.000003  -0.000195  -0.000716   0.001383
     8  H   -0.000003  -0.000000   0.000000  -0.000021   0.000022   0.000010
     9  H    0.000001   0.000000   0.000000   0.000002  -0.000012   0.000205
    10  H    0.000009  -0.000000  -0.000000   0.000022  -0.000061   0.002472
    11  H   -0.000044   0.000022   0.000000   0.000145  -0.000099   0.001708
    12  C    0.015270  -0.004459   0.001528   0.054724  -0.019334   0.075296
    13  H   -0.000696   0.000112  -0.000001  -0.000537   0.000039  -0.000080
    14  N    0.005199  -0.000283  -0.000061  -0.008112   0.002035  -0.009989
    15  N    0.044192   0.001488  -0.000291   0.013729  -0.008275  -0.027516
    16  P    0.009104   0.269901   0.003131   0.278652   0.020388  -0.002055
    17  O   -0.006929  -0.001356  -0.007080  -0.049648  -0.019023   0.036024
    18  O    0.227133  -0.000532  -0.006500  -0.014034   0.010851  -0.011782
    19  H    0.313463  -0.000364   0.001916  -0.006294  -0.001886   0.002929
    20  O   -0.000364   7.952364   0.250887  -0.008226   0.004813   0.001622
    21  H    0.001916   0.250887   0.447883  -0.007251   0.000952   0.000007
    22  O   -0.006294  -0.008226  -0.007251   8.138159   0.203433   0.046127
    23  H   -0.001886   0.004813   0.000952   0.203433   0.367958  -0.073214
    24  O    0.002929   0.001622   0.000007   0.046127  -0.073214   8.198589
    25  H   -0.000472  -0.000175   0.000004  -0.013580   0.030249   0.197583
    26  H   -0.000322  -0.000293   0.000019  -0.020306   0.039928   0.174668
    27  O    0.000012  -0.000030   0.000000   0.000041  -0.000076   0.002842
    28  H    0.000008   0.000028   0.000001  -0.000329   0.000440  -0.008500
    29  H   -0.000000  -0.000000   0.000000  -0.000002   0.000006  -0.000339
    30  O    0.000061  -0.000532   0.000035   0.008744  -0.011321   0.048646
    31  H   -0.000000  -0.000196  -0.000010   0.000804  -0.000900   0.003257
    32  H    0.000155   0.000993   0.000024  -0.013194   0.008270  -0.029451
              25         26         27         28         29         30
     1  C   -0.031708  -0.015569  -0.056308   0.019999  -0.017283  -0.062428
     2  C   -0.129874  -0.088858   0.072045  -0.015716   0.002932   0.049622
     3  C    0.116002   0.067499   0.006238   0.001865  -0.000191  -0.002301
     4  C   -0.027505  -0.031533   0.001419  -0.002245   0.000077   0.003078
     5  C   -0.008783   0.019757  -0.026052   0.004739   0.004414  -0.006434
     6  C    0.076665   0.085109   0.010846   0.005522   0.008251   0.009846
     7  H   -0.000640  -0.000137  -0.000008  -0.000000  -0.000000   0.000002
     8  H   -0.000241  -0.000008  -0.000000  -0.000000  -0.000000   0.000003
     9  H   -0.000577  -0.000161   0.000052   0.000003  -0.000000  -0.000013
    10  H   -0.001471  -0.000970  -0.002905  -0.000695   0.000401   0.000145
    11  H   -0.000335  -0.000733  -0.041391   0.004431   0.000946  -0.001948
    12  C   -0.011616  -0.023776  -0.015860  -0.002825   0.000353   0.005938
    13  H   -0.000016   0.000042   0.000117   0.000055   0.000003  -0.000326
    14  N   -0.003933  -0.000433  -0.004052  -0.007353   0.005491   0.017198
    15  N    0.010203   0.004259  -0.002707   0.000064  -0.000039  -0.005072
    16  P   -0.005995   0.008788  -0.000606   0.001623   0.000036  -0.008359
    17  O   -0.007834  -0.009725   0.000066  -0.001612   0.000047  -0.028505
    18  O    0.001933   0.001811  -0.000021   0.000031  -0.000000  -0.002228
    19  H   -0.000472  -0.000322   0.000012   0.000008  -0.000000   0.000061
    20  O   -0.000175  -0.000293  -0.000030   0.000028  -0.000000  -0.000532
    21  H    0.000004   0.000019   0.000000   0.000001   0.000000   0.000035
    22  O   -0.013580  -0.020306   0.000041  -0.000329  -0.000002   0.008744
    23  H    0.030249   0.039928  -0.000076   0.000440   0.000006  -0.011321
    24  O    0.197583   0.174668   0.002842  -0.008500  -0.000339   0.048646
    25  H    0.448937   0.033952  -0.000278   0.001037   0.000044  -0.009814
    26  H    0.033952   0.432194  -0.003519   0.005359   0.000367  -0.014532
    27  O   -0.000278  -0.003519   8.192060   0.282106   0.269084  -0.002328
    28  H    0.001037   0.005359   0.282106   0.350189  -0.010369   0.000697
    29  H    0.000044   0.000367   0.269084  -0.010369   0.408018   0.002398
    30  O   -0.009814  -0.014532  -0.002328   0.000697   0.002398   8.131227
    31  H   -0.000207  -0.003339   0.001069  -0.001765  -0.000593   0.275433
    32  H    0.003261   0.007105  -0.009401   0.007100   0.000364   0.277973
              31         32
     1  C   -0.003910   0.029166
     2  C    0.001999  -0.018367
     3  C   -0.001097   0.001520
     4  C    0.000439  -0.000138
     5  C   -0.000206   0.000273
     6  C   -0.002031  -0.004188
     7  H   -0.000000   0.000005
     8  H    0.000000  -0.000001
     9  H    0.000000  -0.000003
    10  H    0.000008  -0.000076
    11  H    0.000140   0.000373
    12  C    0.003214  -0.008290
    13  H   -0.000009   0.000323
    14  N    0.000159   0.004195
    15  N    0.000114   0.000538
    16  P   -0.001135   0.013300
    17  O    0.000048   0.085693
    18  O   -0.000062   0.003435
    19  H   -0.000000   0.000155
    20  O   -0.000196   0.000993
    21  H   -0.000010   0.000024
    22  O    0.000804  -0.013194
    23  H   -0.000900   0.008270
    24  O    0.003257  -0.029451
    25  H   -0.000207   0.003261
    26  H   -0.003339   0.007105
    27  O    0.001069  -0.009401
    28  H   -0.001765   0.007100
    29  H   -0.000593   0.000364
    30  O    0.275433   0.277973
    31  H    0.400280  -0.016492
    32  H   -0.016492   0.317487
 Mulliken charges:
               1
     1  C    0.113463
     2  C   -0.021039
     3  C   -0.249396
     4  C   -0.151593
     5  C   -0.142700
     6  C   -0.357102
     7  H    0.143360
     8  H    0.129925
     9  H    0.129764
    10  H    0.163912
    11  H    0.363689
    12  C    0.122183
    13  H    0.172589
    14  N   -0.275118
    15  N   -0.322546
    16  P    1.210183
    17  O   -0.654005
    18  O   -0.581571
    19  H    0.409529
    20  O   -0.464164
    21  H    0.314812
    22  O   -0.561053
    23  H    0.406234
    24  O   -0.595271
    25  H    0.335183
    26  H    0.333356
    27  O   -0.672454
    28  H    0.366114
    29  H    0.325587
    30  O   -0.674906
    31  H    0.344989
    32  H    0.338046
 Sum of Mulliken charges =  -0.00000
 Mulliken charges with hydrogens summed into heavy atoms:
               1
     1  C    0.113463
     2  C   -0.021039
     3  C   -0.106036
     4  C   -0.021668
     5  C   -0.012937
     6  C   -0.193190
    12  C    0.294772
    14  N    0.088571
    15  N   -0.322546
    16  P    1.210183
    17  O   -0.654005
    18  O   -0.172042
    20  O   -0.149352
    22  O   -0.154819
    24  O    0.073268
    27  O    0.019246
    30  O    0.008130
         Mulliken charges condensed to fragments:
      1     -0.180609
      2      0.079965
      3      0.073268
      4      0.019246
      5      0.008130
 Electronic spatial extent (au):  <R**2>=         184941.2932
 Charge=             -0.0000 electrons
 Dipole moment (field-independent basis, Debye):
    X=             -3.3880    Y=              0.6318    Z=              1.9439  Tot=              3.9568
 Quadrupole moment (field-independent basis, Debye-Ang):
   XX=           -139.5067   YY=            -91.5058   ZZ=            -72.3441
   XY=            -42.9380   XZ=            -21.1112   YZ=             34.0979
 Traceless Quadrupole moment (field-independent basis, Debye-Ang):
   XX=            -38.3879   YY=              9.6131   ZZ=             28.7748
   XY=            -42.9380   XZ=            -21.1112   YZ=             34.0979
 Octapole moment (field-independent basis, Debye-Ang**2):
  XXX=          -2628.9486  YYY=          -4445.1915  ZZZ=          -2604.3703  XYY=          -1361.9087
  XXY=          -1965.2394  XXZ=          -1264.6501  XZZ=           -896.9146  YZZ=           -989.4145
  YYZ=           -433.1386  XYZ=           -223.8674
 Hexadecapole moment (field-independent basis, Debye-Ang**3):
 XXXX=         -38561.8376 YYYY=        -135953.9920 ZZZZ=         -56003.1746 XXXY=         -37599.4026
 XXXZ=         -24577.1237 YYYX=         -42935.2016 YYYZ=         -35312.5947 ZZZX=         -22927.5572
 ZZZY=         -37404.5977 XXYY=         -34357.1187 XXZZ=         -17984.6041 YYZZ=         -23516.0814
 XXYZ=         -17565.3936 YYXZ=          -9638.8680 ZZXY=         -12000.5651
 N-N= 1.538613704323D+03 E-N=-6.030320714168D+03  KE= 1.249200100695D+03
 No NMR shielding tensors so no spin-rotation constants.
 Leave Link  601 at Tue Apr 26 18:54:41 2022, MaxMem= 10485760000 cpu:               2.6 elap:               0.2
 (Enter /data0/hywu0/study/g16/l122.exe)
 CPIOFr:  IOpCl= 0 IRwI=-1 IRwCP=  731 ICalc= -1 LCPTot=      476108 Len1MO=     1251798 IndFrg=      476108
 CPIOFr:  IOpCl= 0 IRwI=-1 IRwCP=  731 ICalc=  0 LCPTot=      476108 Len1MO=     1251798 IndFrg=     1727906
 Counterpoise: doing calculation for fragment   1 using the basis set of the full-system, NewBq=T
 Leave Link  122 at Tue Apr 26 18:54:41 2022, MaxMem= 10485760000 cpu:               0.3 elap:               0.0
 (Enter /data0/hywu0/study/g16/l301.exe)
 Basis read from rwf:  (5D, 7F)
 No pseudopotential information found on rwf file.
   557 basis functions,   848 primitive gaussians,   591 cartesian basis functions
    31 alpha electrons       31 beta electrons
       nuclear repulsion energy       401.5229154926 Hartrees.
 IExCor= 4336 DFT=T Ex+Corr=M062X ExCW=0 ScaHFX=  0.540000
 ScaDFX=  1.000000  1.000000  1.000000  1.000000 ScalE2=  1.000000  1.000000
 IRadAn=      5 IRanWt=     -1 IRanGd=            0 ICorTp=0 IEmpDi=131
 NAtoms=   32 NActive=   32 NUniq=   32 SFac= 1.00D+00 NAtFMM=   60 NAOKFM=F Big=F
 Integral buffers will be    131072 words long.
 Raffenetti 2 integral format.
 Two-electron integral symmetry is turned off.
 R6Disp:  Grimme-D3 Dispersion energy=       -0.0002902521 Hartrees.
 Nuclear repulsion after empirical dispersion term =      401.5226252405 Hartrees.
 No density basis found on file   718.
 Leave Link  301 at Tue Apr 26 18:54:41 2022, MaxMem= 10485760000 cpu:               0.9 elap:               0.1
 (Enter /data0/hywu0/study/g16/l302.exe)
 NPDir=0 NMtPBC=     1 NCelOv=     1 NCel=       1 NClECP=     1 NCelD=      1
         NCelK=      1 NCelE2=     1 NClLst=     1 CellRange=     0.0.
 One-electron integrals computed using PRISM.
 NBasis=   557 RedAO= T EigKep=  1.24D-06  NBF=   557
 NBsUse=   556 1.00D-06 EigRej=  9.52D-07 NBFU=   556
 Precomputing XC quadrature grid using
 IXCGrd= 4 IRadAn=           5 IRanWt=          -1 IRanGd=           0 AccXCQ= 0.00D+00.
 Generated NRdTot=       0 NPtTot=           0 NUsed=           0 NTot=          32
 NSgBfM=   589   589   589   589   589 MxSgAt=    32 MxSgA2=    32.
 Leave Link  302 at Tue Apr 26 18:54:42 2022, MaxMem= 10485760000 cpu:              10.4 elap:               0.7
 (Enter /data0/hywu0/study/g16/l303.exe)
 DipDrv:  MaxL=1.
 Leave Link  303 at Tue Apr 26 18:54:42 2022, MaxMem= 10485760000 cpu:               1.0 elap:               0.1
 (Enter /data0/hywu0/study/g16/l401.exe)
 ExpMin= 3.48D-02 ExpMax= 7.75D+04 ExpMxC= 2.65D+03 IAcc=3 IRadAn=         5 AccDes= 0.00D+00
 Harris functional with IExCor= 1009 and IRadAn=       5 diagonalized for initial guess.
 HarFok:  IExCor= 1009 AccDes= 0.00D+00 IRadAn=         5 IDoV= 1 UseB2=F ITyADJ=14
 ICtDFT=  3500011 ScaDFX=  1.000000  1.000000  1.000000  1.000000
 FoFCou: FMM=F IPFlag=           0 FMFlag=      100000 FMFlg1=           0
         NFxFlg=           0 DoJE=T BraDBF=F KetDBF=T FulRan=T
         wScrn=  0.000000 ICntrl=       500 IOpCl=  0 I1Cent=   200000004 NGrid=           0
         NMat0=    1 NMatS0=      1 NMatT0=    0 NMatD0=    1 NMtDS0=    0 NMtDT0=    0
 Symmetry not used in FoFCou.
 Harris En= -379.614470685039    
 JPrj=0 DoOrth=F DoCkMO=F.
 Leave Link  401 at Tue Apr 26 18:54:45 2022, MaxMem= 10485760000 cpu:              45.1 elap:               2.8
 (Enter /data0/hywu0/study/g16/l502.exe)
 Two-electron integral symmetry not used.
 Closed shell SCF:
 Using DIIS extrapolation, IDIIS=  1040.
 NGot= 10485760000 LenX= 10485047863 LenY= 10484697991
 Requested convergence on RMS density matrix=1.00D-08 within 128 cycles.
 Requested convergence on MAX density matrix=1.00D-06.
 Requested convergence on             energy=1.00D-06.
 No special actions if energy rises.
 Fock matrices will be formed incrementally for  20 cycles.

 Cycle   1  Pass 1  IDiag  1:
 FoFJK:  IHMeth= 1 ICntrl=       0 DoSepK=F KAlg= 0 I1Cent=           0 FoldK=F
 IRaf= 850000000 NMat=       1 IRICut=       1 DoRegI=T DoRafI=F ISym2E= 0 IDoP0=0 IntGTp=1.
 FoFCou: FMM=F IPFlag=           0 FMFlag=      100000 FMFlg1=           0
         NFxFlg=           0 DoJE=F BraDBF=F KetDBF=F FulRan=T
         wScrn=  0.000000 ICntrl=         0 IOpCl=  0 I1Cent=           0 NGrid=           0
         NMat0=    1 NMatS0=      1 NMatT0=    0 NMatD0=    1 NMtDS0=    0 NMtDT0=    0
 Symmetry not used in FoFCou.
 E= -379.611399533091    
 DIIS: error= 1.46D-02 at cycle   1 NSaved=   1.
 NSaved= 1 IEnMin= 1 EnMin= -379.611399533091     IErMin= 1 ErrMin= 1.46D-02
 ErrMax= 1.46D-02  0.00D+00 EMaxC= 1.00D-01 BMatC= 2.49D-01 BMatP= 2.49D-01
 IDIUse=3 WtCom= 8.54D-01 WtEn= 1.46D-01
 Coeff-Com:  0.100D+01
 Coeff-En:   0.100D+01
 Coeff:      0.100D+01
 Gap=     0.306 Goal=   None    Shift=    0.000
 GapD=    0.306 DampG=1.000 DampE=0.500 DampFc=0.5000 IDamp=-1.
 Damping current iteration by 5.00D-01
 RMSDP=7.44D-03 MaxDP=1.91D+00              OVMax= 2.14D-01

 Cycle   2  Pass 1  IDiag  1:
 RMSU=  3.08D-03    CP:  1.17D+00
 E= -379.708052699278     Delta-E=       -0.096653166187 Rises=F Damp=T
 DIIS: error= 4.79D-03 at cycle   2 NSaved=   2.
 NSaved= 2 IEnMin= 2 EnMin= -379.708052699278     IErMin= 2 ErrMin= 4.79D-03
 ErrMax= 4.79D-03  0.00D+00 EMaxC= 1.00D-01 BMatC= 2.64D-02 BMatP= 2.49D-01
 IDIUse=3 WtCom= 9.52D-01 WtEn= 4.79D-02
 Coeff-Com: -0.895D-01 0.109D+01
 Coeff-En:   0.000D+00 0.100D+01
 Coeff:     -0.852D-01 0.109D+01
 Gap=     0.298 Goal=   None    Shift=    0.000
 RMSDP=1.81D-03 MaxDP=2.87D-01 DE=-9.67D-02 OVMax= 1.77D-01

 Cycle   3  Pass 1  IDiag  1:
 RMSU=  1.64D-03    CP:  1.11D+00  9.82D-01
 E= -379.800258025948     Delta-E=       -0.092205326670 Rises=F Damp=F
 DIIS: error= 5.25D-03 at cycle   3 NSaved=   3.
 NSaved= 3 IEnMin= 3 EnMin= -379.800258025948     IErMin= 2 ErrMin= 4.79D-03
 ErrMax= 5.25D-03  0.00D+00 EMaxC= 1.00D-01 BMatC= 1.80D-02 BMatP= 2.64D-02
 IDIUse=3 WtCom= 9.47D-01 WtEn= 5.25D-02
 Coeff-Com: -0.138D+00 0.539D+00 0.598D+00
 Coeff-En:   0.000D+00 0.000D+00 0.100D+01
 Coeff:     -0.131D+00 0.511D+00 0.620D+00
 Gap=     0.279 Goal=   None    Shift=    0.000
 RMSDP=9.93D-04 MaxDP=2.57D-01 DE=-9.22D-02 OVMax= 6.05D-02

 Cycle   4  Pass 1  IDiag  1:
 RMSU=  6.34D-04    CP:  1.06D+00  9.40D-01  7.57D-01
 E= -379.815415128382     Delta-E=       -0.015157102434 Rises=F Damp=F
 DIIS: error= 1.58D-03 at cycle   4 NSaved=   4.
 NSaved= 4 IEnMin= 4 EnMin= -379.815415128382     IErMin= 4 ErrMin= 1.58D-03
 ErrMax= 1.58D-03  0.00D+00 EMaxC= 1.00D-01 BMatC= 2.47D-03 BMatP= 1.80D-02
 IDIUse=3 WtCom= 9.84D-01 WtEn= 1.58D-02
 Coeff-Com: -0.584D-01 0.150D+00 0.328D+00 0.581D+00
 Coeff-En:   0.000D+00 0.000D+00 0.640D-01 0.936D+00
 Coeff:     -0.575D-01 0.147D+00 0.324D+00 0.586D+00
 Gap=     0.277 Goal=   None    Shift=    0.000
 RMSDP=2.72D-04 MaxDP=6.28D-02 DE=-1.52D-02 OVMax= 1.30D-02

 Cycle   5  Pass 1  IDiag  1:
 RMSU=  1.77D-04    CP:  1.06D+00  8.99D-01  7.80D-01  7.51D-01
 E= -379.817521778488     Delta-E=       -0.002106650106 Rises=F Damp=F
 DIIS: error= 3.59D-04 at cycle   5 NSaved=   5.
 NSaved= 5 IEnMin= 5 EnMin= -379.817521778488     IErMin= 5 ErrMin= 3.59D-04
 ErrMax= 3.59D-04  0.00D+00 EMaxC= 1.00D-01 BMatC= 9.54D-05 BMatP= 2.47D-03
 IDIUse=3 WtCom= 9.96D-01 WtEn= 3.59D-03
 Coeff-Com: -0.200D-01 0.425D-01 0.117D+00 0.264D+00 0.597D+00
 Coeff-En:   0.000D+00 0.000D+00 0.000D+00 0.000D+00 0.100D+01
 Coeff:     -0.199D-01 0.424D-01 0.117D+00 0.263D+00 0.598D+00
 Gap=     0.275 Goal=   None    Shift=    0.000
 RMSDP=6.36D-05 MaxDP=1.44D-02 DE=-2.11D-03 OVMax= 4.00D-03

 Cycle   6  Pass 1  IDiag  1:
 RMSU=  4.50D-05    CP:  1.06D+00  9.08D-01  7.82D-01  7.65D-01  8.78D-01
 E= -379.817609397342     Delta-E=       -0.000087618854 Rises=F Damp=F
 DIIS: error= 1.68D-04 at cycle   6 NSaved=   6.
 NSaved= 6 IEnMin= 6 EnMin= -379.817609397342     IErMin= 6 ErrMin= 1.68D-04
 ErrMax= 1.68D-04  0.00D+00 EMaxC= 1.00D-01 BMatC= 1.16D-05 BMatP= 9.54D-05
 IDIUse=3 WtCom= 9.98D-01 WtEn= 1.68D-03
 Coeff-Com: -0.278D-02 0.338D-02 0.186D-01 0.533D-01 0.288D+00 0.640D+00
 Coeff-En:   0.000D+00 0.000D+00 0.000D+00 0.000D+00 0.284D-01 0.972D+00
 Coeff:     -0.277D-02 0.337D-02 0.185D-01 0.532D-01 0.287D+00 0.640D+00
 Gap=     0.276 Goal=   None    Shift=    0.000
 RMSDP=3.07D-05 MaxDP=6.03D-03 DE=-8.76D-05 OVMax= 1.47D-03

 Cycle   7  Pass 1  IDiag  1:
 RMSU=  1.86D-05    CP:  1.06D+00  9.01D-01  7.83D-01  7.69D-01  8.99D-01
                    CP:  1.06D+00
 E= -379.817622246419     Delta-E=       -0.000012849078 Rises=F Damp=F
 DIIS: error= 4.67D-05 at cycle   7 NSaved=   7.
 NSaved= 7 IEnMin= 7 EnMin= -379.817622246419     IErMin= 7 ErrMin= 4.67D-05
 ErrMax= 4.67D-05  0.00D+00 EMaxC= 1.00D-01 BMatC= 4.14D-07 BMatP= 1.16D-05
 IDIUse=1 WtCom= 1.00D+00 WtEn= 0.00D+00
 Coeff-Com:  0.148D-02-0.362D-02-0.660D-02-0.167D-01-0.414D-02 0.963D-01
 Coeff-Com:  0.933D+00
 Coeff:      0.148D-02-0.362D-02-0.660D-02-0.167D-01-0.414D-02 0.963D-01
 Coeff:      0.933D+00
 Gap=     0.276 Goal=   None    Shift=    0.000
 RMSDP=1.06D-05 MaxDP=2.36D-03 DE=-1.28D-05 OVMax= 4.67D-04

 Cycle   8  Pass 1  IDiag  1:
 RMSU=  3.20D-06    CP:  1.06D+00  8.99D-01  7.84D-01  7.68D-01  9.20D-01
                    CP:  1.16D+00  1.18D+00
 E= -379.817622912278     Delta-E=       -0.000000665858 Rises=F Damp=F
 DIIS: error= 1.60D-05 at cycle   8 NSaved=   8.
 NSaved= 8 IEnMin= 8 EnMin= -379.817622912278     IErMin= 8 ErrMin= 1.60D-05
 ErrMax= 1.60D-05  0.00D+00 EMaxC= 1.00D-01 BMatC= 1.78D-07 BMatP= 4.14D-07
 IDIUse=1 WtCom= 1.00D+00 WtEn= 0.00D+00
 Coeff-Com:  0.107D-02-0.221D-02-0.513D-02-0.147D-01-0.328D-01-0.203D-01
 Coeff-Com:  0.495D+00 0.579D+00
 Coeff:      0.107D-02-0.221D-02-0.513D-02-0.147D-01-0.328D-01-0.203D-01
 Coeff:      0.495D+00 0.579D+00
 Gap=     0.276 Goal=   None    Shift=    0.000
 RMSDP=1.99D-06 MaxDP=2.15D-04 DE=-6.66D-07 OVMax= 2.18D-04

 Cycle   9  Pass 1  IDiag  1:
 RMSU=  1.49D-06    CP:  1.06D+00  8.99D-01  7.84D-01  7.68D-01  9.19D-01
                    CP:  1.17D+00  1.23D+00  1.01D+00
 E= -379.817623131467     Delta-E=       -0.000000219190 Rises=F Damp=F
 DIIS: error= 8.91D-06 at cycle   9 NSaved=   9.
 NSaved= 9 IEnMin= 9 EnMin= -379.817623131467     IErMin= 9 ErrMin= 8.91D-06
 ErrMax= 8.91D-06  0.00D+00 EMaxC= 1.00D-01 BMatC= 8.99D-09 BMatP= 1.78D-07
 IDIUse=1 WtCom= 1.00D+00 WtEn= 0.00D+00
 Coeff-Com: -0.557D-04 0.173D-03 0.433D-03 0.379D-03-0.269D-02-0.150D-01
 Coeff-Com: -0.672D-01 0.111D+00 0.973D+00
 Coeff:     -0.557D-04 0.173D-03 0.433D-03 0.379D-03-0.269D-02-0.150D-01
 Coeff:     -0.672D-01 0.111D+00 0.973D+00
 Gap=     0.276 Goal=   None    Shift=    0.000
 RMSDP=1.38D-06 MaxDP=3.07D-04 DE=-2.19D-07 OVMax= 9.42D-05

 Cycle  10  Pass 1  IDiag  1:
 RMSU=  4.57D-07    CP:  1.06D+00  8.99D-01  7.84D-01  7.67D-01  9.19D-01
                    CP:  1.17D+00  1.24D+00  1.19D+00  1.14D+00
 E= -379.817623153711     Delta-E=       -0.000000022244 Rises=F Damp=F
 DIIS: error= 1.84D-06 at cycle  10 NSaved=  10.
 NSaved=10 IEnMin=10 EnMin= -379.817623153711     IErMin=10 ErrMin= 1.84D-06
 ErrMax= 1.84D-06  0.00D+00 EMaxC= 1.00D-01 BMatC= 9.61D-10 BMatP= 8.99D-09
 IDIUse=1 WtCom= 1.00D+00 WtEn= 0.00D+00
 Coeff-Com: -0.991D-04 0.222D-03 0.581D-03 0.127D-02 0.164D-02-0.263D-02
 Coeff-Com: -0.619D-01-0.205D-01 0.272D+00 0.809D+00
 Coeff:     -0.991D-04 0.222D-03 0.581D-03 0.127D-02 0.164D-02-0.263D-02
 Coeff:     -0.619D-01-0.205D-01 0.272D+00 0.809D+00
 Gap=     0.276 Goal=   None    Shift=    0.000
 RMSDP=4.36D-07 MaxDP=8.80D-05 DE=-2.22D-08 OVMax= 3.57D-05

 Cycle  11  Pass 1  IDiag  1:
 RMSU=  1.31D-07    CP:  1.06D+00  8.99D-01  7.84D-01  7.67D-01  9.19D-01
                    CP:  1.17D+00  1.24D+00  1.23D+00  1.22D+00  1.07D+00
 E= -379.817623155862     Delta-E=       -0.000000002151 Rises=F Damp=F
 DIIS: error= 1.04D-06 at cycle  11 NSaved=  11.
 NSaved=11 IEnMin=11 EnMin= -379.817623155862     IErMin=11 ErrMin= 1.04D-06
 ErrMax= 1.04D-06  0.00D+00 EMaxC= 1.00D-01 BMatC= 2.74D-10 BMatP= 9.61D-10
 IDIUse=1 WtCom= 1.00D+00 WtEn= 0.00D+00
 Coeff-Com: -0.334D-04 0.707D-04 0.204D-03 0.508D-03 0.991D-03 0.841D-03
 Coeff-Com: -0.196D-01-0.275D-01-0.103D-01 0.393D+00 0.662D+00
 Coeff:     -0.334D-04 0.707D-04 0.204D-03 0.508D-03 0.991D-03 0.841D-03
 Coeff:     -0.196D-01-0.275D-01-0.103D-01 0.393D+00 0.662D+00
 Gap=     0.276 Goal=   None    Shift=    0.000
 RMSDP=9.56D-08 MaxDP=1.37D-05 DE=-2.15D-09 OVMax= 1.43D-05

 Cycle  12  Pass 1  IDiag  1:
 RMSU=  5.98D-08    CP:  1.06D+00  8.99D-01  7.84D-01  7.67D-01  9.19D-01
                    CP:  1.17D+00  1.24D+00  1.24D+00  1.24D+00  1.14D+00
                    CP:  1.05D+00
 E= -379.817623156286     Delta-E=       -0.000000000424 Rises=F Damp=F
 DIIS: error= 1.90D-07 at cycle  12 NSaved=  12.
 NSaved=12 IEnMin=12 EnMin= -379.817623156286     IErMin=12 ErrMin= 1.90D-07
 ErrMax= 1.90D-07  0.00D+00 EMaxC= 1.00D-01 BMatC= 1.47D-11 BMatP= 2.74D-10
 IDIUse=1 WtCom= 1.00D+00 WtEn= 0.00D+00
 Coeff-Com:  0.887D-05-0.200D-04-0.487D-04-0.871D-04-0.867D-04 0.695D-03
 Coeff-Com:  0.587D-02-0.452D-02-0.448D-01-0.350D-01 0.126D+00 0.952D+00
 Coeff:      0.887D-05-0.200D-04-0.487D-04-0.871D-04-0.867D-04 0.695D-03
 Coeff:      0.587D-02-0.452D-02-0.448D-01-0.350D-01 0.126D+00 0.952D+00
 Gap=     0.276 Goal=   None    Shift=    0.000
 RMSDP=5.59D-08 MaxDP=1.17D-05 DE=-4.24D-10 OVMax= 6.30D-06

 Cycle  13  Pass 1  IDiag  1:
 RMSU=  3.24D-08    CP:  1.06D+00  8.99D-01  7.84D-01  7.67D-01  9.19D-01
                    CP:  1.18D+00  1.24D+00  1.24D+00  1.23D+00  1.17D+00
                    CP:  1.19D+00  1.32D+00
 E= -379.817623156334     Delta-E=       -0.000000000048 Rises=F Damp=F
 DIIS: error= 8.23D-08 at cycle  13 NSaved=  13.
 NSaved=13 IEnMin=13 EnMin= -379.817623156334     IErMin=13 ErrMin= 8.23D-08
 ErrMax= 8.23D-08  0.00D+00 EMaxC= 1.00D-01 BMatC= 2.74D-12 BMatP= 1.47D-11
 IDIUse=1 WtCom= 1.00D+00 WtEn= 0.00D+00
 Coeff-Com:  0.506D-05-0.113D-04-0.308D-04-0.615D-04-0.109D-03 0.198D-03
 Coeff-Com:  0.335D-02 0.351D-03-0.118D-01-0.373D-01-0.243D-01 0.300D+00
 Coeff-Com:  0.769D+00
 Coeff:      0.506D-05-0.113D-04-0.308D-04-0.615D-04-0.109D-03 0.198D-03
 Coeff:      0.335D-02 0.351D-03-0.118D-01-0.373D-01-0.243D-01 0.300D+00
 Coeff:      0.769D+00
 Gap=     0.276 Goal=   None    Shift=    0.000
 RMSDP=1.44D-08 MaxDP=2.49D-06 DE=-4.77D-11 OVMax= 1.87D-06

 Cycle  14  Pass 1  IDiag  1:
 RMSU=  7.56D-09    CP:  1.06D+00  8.99D-01  7.84D-01  7.67D-01  9.19D-01
                    CP:  1.18D+00  1.24D+00  1.24D+00  1.23D+00  1.18D+00
                    CP:  1.20D+00  1.42D+00  1.11D+00
 E= -379.817623156320     Delta-E=        0.000000000014 Rises=F Damp=F
 DIIS: error= 3.85D-08 at cycle  14 NSaved=  14.
 NSaved=14 IEnMin=13 EnMin= -379.817623156334     IErMin=14 ErrMin= 3.85D-08
 ErrMax= 3.85D-08  0.00D+00 EMaxC= 1.00D-01 BMatC= 8.68D-13 BMatP= 2.74D-12
 IDIUse=1 WtCom= 1.00D+00 WtEn= 0.00D+00
 Coeff-Com:  0.242D-06-0.586D-06-0.375D-05-0.690D-05-0.353D-04-0.479D-04
 Coeff-Com:  0.203D-03 0.102D-02 0.512D-02-0.867D-02-0.489D-01-0.846D-01
 Coeff-Com:  0.391D+00 0.745D+00
 Coeff:      0.242D-06-0.586D-06-0.375D-05-0.690D-05-0.353D-04-0.479D-04
 Coeff:      0.203D-03 0.102D-02 0.512D-02-0.867D-02-0.489D-01-0.846D-01
 Coeff:      0.391D+00 0.745D+00
[...]
    24  O    0.000000
    25  H    0.000000
    26  H    0.000000
    27  O   -0.560538
    28  H    0.281765
    29  H    0.278773
    30  O    0.000000
    31  H    0.000000
    32  H    0.000000
 Sum of Mulliken charges =  -0.00000
 Mulliken charges with hydrogens summed into heavy atoms:
               1
     1  C    0.000000
     2  C    0.000000
     3  C    0.000000
     4  C    0.000000
     5  C    0.000000
     6  C    0.000000
    12  C    0.000000
    14  N    0.000000
    15  N    0.000000
    16  P    0.000000
    17  O    0.000000
    18  O    0.000000
    20  O    0.000000
    22  O    0.000000
    24  O    0.000000
    27  O   -0.000000
    30  O    0.000000
         Mulliken charges condensed to fragments:
      1      0.000000
      2      0.000000
      3      0.000000
      4     -0.000000
      5      0.000000
 Electronic spatial extent (au):  <R**2>=          12593.5009
 Charge=             -0.0000 electrons
 Dipole moment (field-independent basis, Debye):
    X=             -1.3182    Y=              0.5945    Z=             -1.5032  Tot=              2.0859
 Quadrupole moment (field-independent basis, Debye-Ang):
   XX=            -15.5862   YY=             10.2078   ZZ=            -39.4530
   XY=            -16.1681   XZ=            -21.3115   YZ=            -16.2911
 Traceless Quadrupole moment (field-independent basis, Debye-Ang):
   XX=             -0.6424   YY=             25.1516   ZZ=            -24.5092
   XY=            -16.1681   XZ=            -21.3115   YZ=            -16.2911
 Octapole moment (field-independent basis, Debye-Ang**2):
  XXX=           -124.4728  YYY=             67.5319  ZZZ=           -759.7283  XYY=           -219.3711
  XXY=           -212.5848  XXZ=           -202.5315  XZZ=           -334.4720  YZZ=           -523.1311
  YYZ=           -235.1684  XYZ=           -280.8458
 Hexadecapole moment (field-independent basis, Debye-Ang**3):
 XXXX=           -838.7147 YYYY=          -1718.0053 ZZZZ=         -12796.3497 XXXY=          -1747.0320
 XXXZ=          -1511.6431 YYYX=          -3369.3039 YYYZ=          -4553.9525 ZZZX=          -5069.8495
 ZZZY=         -10608.8373 XXYY=          -2999.1907 XXZZ=          -2671.2581 YYZZ=          -7760.3721
 XXYZ=          -2806.5658 YYXZ=          -3973.6138 ZZXY=          -4587.3902
 N-N= 9.144202498566D+00 E-N=-1.991483508457D+02  KE= 7.620972817876D+01
 No NMR shielding tensors so no spin-rotation constants.
 Leave Link  601 at Tue Apr 26 19:04:49 2022, MaxMem= 10485760000 cpu:               1.0 elap:               0.1
 (Enter /data0/hywu0/study/g16/l122.exe)
 CPIOFr:  IOpCl= 0 IRwI=-1 IRwCP=  731 ICalc=  9 LCPTot=      476108 Len1MO=     1251798 IndFrg=    12994088
 Counterpoise: doing calculation for fragment   5 using the basis set of the fragment.
 Leave Link  122 at Tue Apr 26 19:04:49 2022, MaxMem= 10485760000 cpu:               0.2 elap:               0.0
 (Enter /data0/hywu0/study/g16/l301.exe)
 Basis read from rwf:  (5D, 7F)
 No pseudopotential information found on rwf file.
    39 basis functions,    58 primitive gaussians,    41 cartesian basis functions
     5 alpha electrons        5 beta electrons
       nuclear repulsion energy         9.0917058522 Hartrees.
 IExCor= 4336 DFT=T Ex+Corr=M062X ExCW=0 ScaHFX=  0.540000
 ScaDFX=  1.000000  1.000000  1.000000  1.000000 ScalE2=  1.000000  1.000000
 IRadAn=      5 IRanWt=     -1 IRanGd=            0 ICorTp=0 IEmpDi=131
 NAtoms=   32 NActive=    3 NUniq=    3 SFac= 1.00D+00 NAtFMM=   60 NAOKFM=F Big=F
 Integral buffers will be    131072 words long.
 Raffenetti 2 integral format.
 Two-electron integral symmetry is turned off.
 R6Disp:  Grimme-D3 Dispersion energy=       -0.0000000080 Hartrees.
 Nuclear repulsion after empirical dispersion term =        9.0917058443 Hartrees.
 No density basis found on file   718.
 Leave Link  301 at Tue Apr 26 19:04:49 2022, MaxMem= 10485760000 cpu:               0.6 elap:               0.1
 (Enter /data0/hywu0/study/g16/l302.exe)
 NPDir=0 NMtPBC=     1 NCelOv=     1 NCel=       1 NClECP=     1 NCelD=      1
         NCelK=      1 NCelE2=     1 NClLst=     1 CellRange=     0.0.
 One-electron integrals computed using PRISM.
 NBasis=    39 RedAO= T EigKep=  3.08D-03  NBF=    39
 NBsUse=    39 1.00D-06 EigRej= -1.00D+00 NBFU=    39
 Precomputing XC quadrature grid using
 IXCGrd= 4 IRadAn=           5 IRanWt=          -1 IRanGd=           0 AccXCQ= 0.00D+00.
 Generated NRdTot=       0 NPtTot=           0 NUsed=           0 NTot=          32
 NSgBfM=    41    41    41    41    41 MxSgAt=     3 MxSgA2=     3.
 Leave Link  302 at Tue Apr 26 19:04:49 2022, MaxMem= 10485760000 cpu:               1.3 elap:               0.1
 (Enter /data0/hywu0/study/g16/l303.exe)
 DipDrv:  MaxL=1.
 Leave Link  303 at Tue Apr 26 19:04:50 2022, MaxMem= 10485760000 cpu:               0.3 elap:               0.0
 (Enter /data0/hywu0/study/g16/l401.exe)
 ExpMin= 8.45D-02 ExpMax= 8.59D+03 ExpMxC= 1.30D+03 IAcc=3 IRadAn=         5 AccDes= 0.00D+00
 Harris functional with IExCor= 1009 and IRadAn=       5 diagonalized for initial guess.
 HarFok:  IExCor= 1009 AccDes= 0.00D+00 IRadAn=         5 IDoV= 1 UseB2=F ITyADJ=14
 ICtDFT=  3500011 ScaDFX=  1.000000  1.000000  1.000000  1.000000
 FoFCou: FMM=F IPFlag=           0 FMFlag=      100000 FMFlg1=           0
         NFxFlg=           0 DoJE=T BraDBF=F KetDBF=T FulRan=T
         wScrn=  0.000000 ICntrl=       500 IOpCl=  0 I1Cent=   200000004 NGrid=           0
         NMat0=    1 NMatS0=      1 NMatT0=    0 NMatD0=    1 NMtDS0=    0 NMtDT0=    0
 Symmetry not used in FoFCou.
 Harris En= -76.4164324395561    
 JPrj=0 DoOrth=F DoCkMO=F.
 Leave Link  401 at Tue Apr 26 19:04:50 2022, MaxMem= 10485760000 cpu:               1.6 elap:               0.1
 (Enter /data0/hywu0/study/g16/l502.exe)
 Keep R1 ints in memory in canonical form, NReq=14130985.
 FoFCou: FMM=F IPFlag=           0 FMFlag=           0 FMFlg1=           0
         NFxFlg=           0 DoJE=F BraDBF=F KetDBF=F FulRan=T
         wScrn=  0.000000 ICntrl=       600 IOpCl=  0 I1Cent=           0 NGrid=           0
         NMat0=    1 NMatS0=    780 NMatT0=    0 NMatD0=    1 NMtDS0=    0 NMtDT0=    0
 Symmetry not used in FoFCou.
 Two-electron integral symmetry not used.
 Closed shell SCF:
 Using DIIS extrapolation, IDIIS=  1040.
 NGot= 10485760000 LenX= 10485450023 LenY= 10485447901
 Requested convergence on RMS density matrix=1.00D-08 within 128 cycles.
 Requested convergence on MAX density matrix=1.00D-06.
 Requested convergence on             energy=1.00D-06.
 No special actions if energy rises.
 Integral accuracy reduced to 1.0D-05 until final iterations.

 Cycle   1  Pass 0  IDiag  1:
 E= -76.3462754621005    
 DIIS: error= 7.01D-02 at cycle   1 NSaved=   1.
 NSaved= 1 IEnMin= 1 EnMin= -76.3462754621005     IErMin= 1 ErrMin= 7.01D-02
 ErrMax= 7.01D-02  0.00D+00 EMaxC= 1.00D-01 BMatC= 1.21D-01 BMatP= 1.21D-01
 IDIUse=3 WtCom= 2.99D-01 WtEn= 7.01D-01
 Coeff-Com:  0.100D+01
 Coeff-En:   0.100D+01
 Coeff:      0.100D+01
 Gap=     0.325 Goal=   None    Shift=    0.000
 GapD=    0.325 DampG=1.000 DampE=0.500 DampFc=0.5000 IDamp=-1.
 Damping current iteration by 5.00D-01
 RMSDP=7.89D-03 MaxDP=1.01D-01              OVMax= 1.68D-01

 Cycle   2  Pass 0  IDiag  1:
 E= -76.3776647720542     Delta-E=       -0.031389309954 Rises=F Damp=T
 DIIS: error= 1.14D-02 at cycle   2 NSaved=   2.
 NSaved= 2 IEnMin= 2 EnMin= -76.3776647720542     IErMin= 2 ErrMin= 1.14D-02
 ErrMax= 1.14D-02  0.00D+00 EMaxC= 1.00D-01 BMatC= 4.85D-03 BMatP= 1.21D-01
 IDIUse=3 WtCom= 8.86D-01 WtEn= 1.14D-01
 Coeff-Com:  0.827D-01 0.917D+00
 Coeff-En:   0.188D+00 0.812D+00
 Coeff:      0.946D-01 0.905D+00
 Gap=     0.457 Goal=   None    Shift=    0.000
 RMSDP=9.42D-04 MaxDP=1.40D-02 DE=-3.14D-02 OVMax= 1.01D-01

 Cycle   3  Pass 0  IDiag  1:
 E= -76.4215984940084     Delta-E=       -0.043933721954 Rises=F Damp=F
 DIIS: error= 2.19D-03 at cycle   3 NSaved=   3.
 NSaved= 3 IEnMin= 3 EnMin= -76.4215984940084     IErMin= 3 ErrMin= 2.19D-03
 ErrMax= 2.19D-03  0.00D+00 EMaxC= 1.00D-01 BMatC= 9.23D-05 BMatP= 4.85D-03
 IDIUse=3 WtCom= 9.78D-01 WtEn= 2.19D-02
 Coeff-Com: -0.200D-01 0.402D-01 0.980D+00
 Coeff-En:   0.000D+00 0.000D+00 0.100D+01
 Coeff:     -0.195D-01 0.394D-01 0.980D+00
 Gap=     0.461 Goal=   None    Shift=    0.000
 RMSDP=1.15D-04 MaxDP=9.55D-04 DE=-4.39D-02 OVMax= 3.33D-03

 Cycle   4  Pass 0  IDiag  1:
 E= -76.4216770297531     Delta-E=       -0.000078535745 Rises=F Damp=F
 DIIS: error= 4.15D-04 at cycle   4 NSaved=   4.
 NSaved= 4 IEnMin= 4 EnMin= -76.4216770297531     IErMin= 4 ErrMin= 4.15D-04
 ErrMax= 4.15D-04  0.00D+00 EMaxC= 1.00D-01 BMatC= 3.35D-06 BMatP= 9.23D-05
 IDIUse=3 WtCom= 9.96D-01 WtEn= 4.15D-03
 Coeff-Com: -0.196D-02-0.214D-02 0.164D+00 0.840D+00
 Coeff-En:   0.000D+00 0.000D+00 0.000D+00 0.100D+01
 Coeff:     -0.195D-02-0.213D-02 0.164D+00 0.840D+00
 Gap=     0.462 Goal=   None    Shift=    0.000
 RMSDP=2.22D-05 MaxDP=3.54D-04 DE=-7.85D-05 OVMax= 5.36D-04

 Cycle   5  Pass 0  IDiag  1:
 E= -76.4216790906519     Delta-E=       -0.000002060899 Rises=F Damp=F
 DIIS: error= 9.00D-05 at cycle   5 NSaved=   5.
 NSaved= 5 IEnMin= 5 EnMin= -76.4216790906519     IErMin= 5 ErrMin= 9.00D-05
 ErrMax= 9.00D-05  0.00D+00 EMaxC= 1.00D-01 BMatC= 8.41D-08 BMatP= 3.35D-06
 IDIUse=1 WtCom= 1.00D+00 WtEn= 0.00D+00
 Coeff-Com:  0.118D-02-0.180D-02-0.366D-01-0.689D-01 0.111D+01
 Coeff:      0.118D-02-0.180D-02-0.366D-01-0.689D-01 0.111D+01
 Gap=     0.462 Goal=   None    Shift=    0.000
 RMSDP=9.04D-06 MaxDP=1.03D-04 DE=-2.06D-06 OVMax= 2.04D-04

 Initial convergence to 1.0D-05 achieved.  Increase integral accuracy.
 Cycle   6  Pass 1  IDiag  1:
 E= -76.4216812241156     Delta-E=       -0.000002133464 Rises=F Damp=F
 DIIS: error= 2.38D-05 at cycle   1 NSaved=   1.
 NSaved= 1 IEnMin= 1 EnMin= -76.4216812241156     IErMin= 1 ErrMin= 2.38D-05
 ErrMax= 2.38D-05  0.00D+00 EMaxC= 1.00D-01 BMatC= 1.27D-08 BMatP= 1.27D-08
 IDIUse=1 WtCom= 1.00D+00 WtEn= 0.00D+00
 Coeff-Com:  0.100D+01
 Coeff:      0.100D+01
 Gap=     0.462 Goal=   None    Shift=    0.000
 RMSDP=9.04D-06 MaxDP=1.03D-04 DE=-2.13D-06 OVMax= 3.83D-05

 Cycle   7  Pass 1  IDiag  1:
 E= -76.4216812334845     Delta-E=       -0.000000009369 Rises=F Damp=F
 DIIS: error= 7.09D-06 at cycle   2 NSaved=   2.
 NSaved= 2 IEnMin= 2 EnMin= -76.4216812334845     IErMin= 2 ErrMin= 7.09D-06
 ErrMax= 7.09D-06  0.00D+00 EMaxC= 1.00D-01 BMatC= 8.16D-10 BMatP= 1.27D-08
 IDIUse=1 WtCom= 1.00D+00 WtEn= 0.00D+00
 Coeff-Com:  0.378D-01 0.962D+00
 Coeff:      0.378D-01 0.962D+00
 Gap=     0.462 Goal=   None    Shift=    0.000
 RMSDP=6.20D-07 MaxDP=1.01D-05 DE=-9.37D-09 OVMax= 1.65D-05

 Cycle   8  Pass 1  IDiag  1:
 E= -76.4216812336443     Delta-E=       -0.000000000160 Rises=F Damp=F
 DIIS: error= 5.60D-06 at cycle   3 NSaved=   3.
 NSaved= 3 IEnMin= 3 EnMin= -76.4216812336443     IErMin= 3 ErrMin= 5.60D-06
 ErrMax= 5.60D-06  0.00D+00 EMaxC= 1.00D-01 BMatC= 8.00D-10 BMatP= 8.16D-10
 IDIUse=1 WtCom= 1.00D+00 WtEn= 0.00D+00
 Coeff-Com: -0.443D-01 0.513D+00 0.532D+00
 Coeff:     -0.443D-01 0.513D+00 0.532D+00
 Gap=     0.462 Goal=   None    Shift=    0.000
 RMSDP=3.31D-07 MaxDP=4.28D-06 DE=-1.60D-10 OVMax= 7.73D-06

 Cycle   9  Pass 1  IDiag  1:
 E= -76.4216812341737     Delta-E=       -0.000000000529 Rises=F Damp=F
 DIIS: error= 6.22D-07 at cycle   4 NSaved=   4.
 NSaved= 4 IEnMin= 4 EnMin= -76.4216812341737     IErMin= 4 ErrMin= 6.22D-07
 ErrMax= 6.22D-07  0.00D+00 EMaxC= 1.00D-01 BMatC= 4.32D-12 BMatP= 8.00D-10
 IDIUse=1 WtCom= 1.00D+00 WtEn= 0.00D+00
 Coeff-Com: -0.235D-02-0.238D-01 0.248D-01 0.100D+01
 Coeff:     -0.235D-02-0.238D-01 0.248D-01 0.100D+01
 Gap=     0.462 Goal=   None    Shift=    0.000
 RMSDP=7.02D-08 MaxDP=5.47D-07 DE=-5.29D-10 OVMax= 1.41D-06

 Cycle  10  Pass 1  IDiag  1:
 E= -76.4216812341806     Delta-E=       -0.000000000007 Rises=F Damp=F
 DIIS: error= 8.42D-08 at cycle   5 NSaved=   5.
 NSaved= 5 IEnMin= 5 EnMin= -76.4216812341806     IErMin= 5 ErrMin= 8.42D-08
 ErrMax= 8.42D-08  0.00D+00 EMaxC= 1.00D-01 BMatC= 2.07D-13 BMatP= 4.32D-12
 IDIUse=1 WtCom= 1.00D+00 WtEn= 0.00D+00
 Coeff-Com:  0.335D-02-0.432D-01-0.398D-01 0.455D-01 0.103D+01
 Coeff:      0.335D-02-0.432D-01-0.398D-01 0.455D-01 0.103D+01
 Gap=     0.462 Goal=   None    Shift=    0.000
 RMSDP=2.37D-08 MaxDP=1.87D-07 DE=-6.93D-12 OVMax= 4.92D-07

 Cycle  11  Pass 1  IDiag  1:
 E= -76.4216812341815     Delta-E=       -0.000000000001 Rises=F Damp=F
 DIIS: error= 7.35D-09 at cycle   6 NSaved=   6.
 NSaved= 6 IEnMin= 6 EnMin= -76.4216812341815     IErMin= 6 ErrMin= 7.35D-09
 ErrMax= 7.35D-09  0.00D+00 EMaxC= 1.00D-01 BMatC= 1.81D-15 BMatP= 2.07D-13
 IDIUse=1 WtCom= 1.00D+00 WtEn= 0.00D+00
 Coeff-Com: -0.216D-03 0.374D-02 0.201D-02-0.189D-01-0.790D-01 0.109D+01
 Coeff:     -0.216D-03 0.374D-02 0.201D-02-0.189D-01-0.790D-01 0.109D+01
 Gap=     0.462 Goal=   None    Shift=    0.000
 RMSDP=2.58D-09 MaxDP=2.45D-08 DE=-8.67D-13 OVMax= 4.66D-08

 SCF Done:  E(RM062X) =  -76.4216812342     A.U. after   11 cycles
            NFock= 11  Conv=0.26D-08     -V/T= 2.0030
 KE= 7.619090589556D+01 PE=-1.990335656592D+02 EE= 3.732927268524D+01
 Leave Link  502 at Tue Apr 26 19:04:50 2022, MaxMem= 10485760000 cpu:               6.5 elap:               0.4
 (Enter /data0/hywu0/study/g16/l601.exe)
 Copying SCF densities to generalized density rwf, IOpCl= 0 IROHF=0.

 **********************************************************************

            Population analysis using the SCF density.

 **********************************************************************

 Alpha  occ. eigenvalues --  -19.62603  -1.13268  -0.60778  -0.47413  -0.39964
 Alpha virt. eigenvalues --    0.06249   0.13301   0.17396   0.17951   0.18941
 Alpha virt. eigenvalues --    0.23260   0.50971   0.53410   0.97891   1.00268
 Alpha virt. eigenvalues --    1.06039   1.18774   1.19804   1.32506   1.33938
 Alpha virt. eigenvalues --    1.69359   1.73989   1.75760   2.07421   2.09366
 Alpha virt. eigenvalues --    2.35145   2.42185   2.54257   2.88244   3.00948
 Alpha virt. eigenvalues --    5.05674   5.47422   5.92321   6.78244   6.80316
 Alpha virt. eigenvalues --    6.87055   6.91457   7.09699  49.95725
          Condensed to atoms (all electrons):
              30         31         32
    30  O    7.916917   0.322589   0.318764
    31  H    0.322589   0.424400  -0.024405
    32  H    0.318764  -0.024405   0.424786
 Mulliken charges:
               1
     1  C    0.000000
     2  C    0.000000
     3  C    0.000000
     4  C    0.000000
     5  C    0.000000
     6  C    0.000000
     7  H    0.000000
     8  H    0.000000
     9  H    0.000000
    10  H    0.000000
    11  H    0.000000
    12  C    0.000000
    13  H    0.000000
    14  N    0.000000
    15  N    0.000000
    16  P    0.000000
    17  O    0.000000
    18  O    0.000000
    19  H    0.000000
    20  O    0.000000
    21  H    0.000000
    22  O    0.000000
    23  H    0.000000
    24  O    0.000000
    25  H    0.000000
    26  H    0.000000
    27  O    0.000000
    28  H    0.000000
    29  H    0.000000
    30  O   -0.558270
    31  H    0.277416
    32  H    0.280854
 Sum of Mulliken charges =  -0.00000
 Mulliken charges with hydrogens summed into heavy atoms:
               1
     1  C    0.000000
     2  C    0.000000
     3  C    0.000000
     4  C    0.000000
     5  C    0.000000
     6  C    0.000000
    12  C    0.000000
    14  N    0.000000
    15  N    0.000000
    16  P    0.000000
    17  O    0.000000
    18  O    0.000000
    20  O    0.000000
    22  O    0.000000
    24  O    0.000000
    27  O    0.000000
    30  O   -0.000000
         Mulliken charges condensed to fragments:
      1      0.000000
      2      0.000000
      3      0.000000
      4      0.000000
      5     -0.000000
 Electronic spatial extent (au):  <R**2>=          12204.1060
 Charge=             -0.0000 electrons
 Dipole moment (field-independent basis, Debye):
    X=              0.1421    Y=             -0.6454    Z=             -2.0050  Tot=              2.1111
 Quadrupole moment (field-independent basis, Debye-Ang):
   XX=             -4.6703   YY=            -26.3172   ZZ=            -40.6968
   XY=             -2.4614   XZ=             -7.8106   YZ=            -37.0033
 Traceless Quadrupole moment (field-independent basis, Debye-Ang):
   XX=             19.2245   YY=             -2.4224   ZZ=            -16.8021
   XY=             -2.4614   XZ=             -7.8106   YZ=            -37.0033
 Octapole moment (field-independent basis, Debye-Ang**2):
  XXX=            -76.1201  YYY=           -761.5346  ZZZ=           -606.1668  XYY=           -140.4842
  XXY=           -103.2213  XXZ=            -81.4313  XZZ=           -174.7195  YZZ=           -685.6149
  YYZ=           -720.2890  XYZ=           -162.4672
 Hexadecapole moment (field-independent basis, Debye-Ang**3):
 XXXX=           -760.3498 YYYY=         -18901.0971 ZZZZ=          -7900.9866 XXXY=          -1372.8885
 XXXZ=           -846.1042 YYYX=          -4243.5662 YYYZ=         -14315.4075 ZZZX=          -2689.0363
 ZZZY=          -9905.8616 XXYY=          -2223.0827 XXZZ=          -1201.0105 YYZZ=         -11956.5031
 XXYZ=          -1531.2007 YYXZ=          -3421.2396 ZZXY=          -3078.5053
 N-N= 9.091705844262D+00 E-N=-1.990335655477D+02  KE= 7.619090589556D+01
 No NMR shielding tensors so no spin-rotation constants.
 Leave Link  601 at Tue Apr 26 19:04:50 2022, MaxMem= 10485760000 cpu:               0.9 elap:               0.1
 (Enter /data0/hywu0/study/g16/l122.exe)
 CPIOFr:  IOpCl= 0 IRwI=-1 IRwCP=  731 ICalc= 10 LCPTot=      476108 Len1MO=     1251798 IndFrg=    14245886
 Restoring MOs from calculation   1 to rwf.
 CPIOFr:  IOpCl= 0 IRwI=-2 IRwCP=  731 ICalc=  0 LCPTot=      476108 Len1MO=     1251798 IndFrg=     1727906
 Counterpoise corrected energy =   -1253.328196965980
                   BSSE energy =       0.007211387985
              sum of fragments =   -1253.231460191848
           complexation energy =     -65.23 kcal/mole (raw)
           complexation energy =     -60.70 kcal/mole (corrected)
 Leave Link  122 at Tue Apr 26 19:04:50 2022, MaxMem= 10485760000 cpu:               0.3 elap:               0.0
 (Enter /data0/hywu0/study/g16/l9999.exe)
 1\1\GINC-LOCALHOST\SP\RM062X\6-311+G(2d,p)\C7H15N2O7P1\HYWU0\26-Apr-20
 22\0\\#p M062X/6-311+G(2d,p) nosymm em=GD3 counterpoise=5\\Title Card 
 Required\\0,1\C,0,7.160287,14.550474,11.403647\C,0,8.447205,14.292247,
 10.820754\C,0,9.484645,15.218739,10.972543\C,0,9.217667,16.365133,11.6
 99099\C,0,7.948807,16.608921,12.271916\C,0,6.903167,15.714614,12.13259
 \H,0,10.45692,15.029094,10.522272\H,0,10.001697,17.10827,11.840836\H,0
 ,7.800242,17.52903,12.836752\H,0,5.918897,15.89404,12.56049\H,0,5.3653
 06,13.38772,11.276964\C,0,7.141619,12.606259,10.286899\H,0,6.761054,11
 .69208,9.850423\N,0,6.357091,13.459488,11.064583\N,0,8.39235,13.070957
 ,10.142523\P,0,7.882867,13.955294,6.927085\O,0,6.574207,13.757794,7.56
 7406\O,0,9.058512,12.995752,7.373388\H,0,9.066572,12.946098,8.435115\O
 ,0,7.796918,13.676976,5.362238\H,0,8.74696,13.806691,4.974266\O,0,8.53
 0486,15.404999,6.990936\H,0,8.040763,15.999781,7.687062\O,0,7.232938,1
 7.056195,8.926883\H,0,7.595148,16.83343,9.790171\H,0,6.334343,16.69939
 1,8.931689\O,0,3.994137,14.559665,11.184243\H,0,4.210838,15.015326,10.
 353683\H,0,3.049413,14.436769,11.175978\O,0,4.747952,15.655234,8.68669
 4\H,0,4.244748,15.976073,7.938755\H,0,5.336254,14.967477,8.312128\\Ver
 sion=ES64L-G16RevA.03\HF=-76.4216812\RMSD=2.578e-09\Dipole=-1.3958225,
 0.2270526,0.7600257\Quadrupole=-28.8294174,6.7484911,22.0809263,-34.02
 9583,-16.5382251,25.0599875\PG=C01 [X(C7H15N2O7P1)]\\@


 The best way to pay for a lovely moment is to enjoy it.
 -- Richard Bach
 Job cpu time:       0 days  3 hours 28 minutes 54.5 seconds.
 Elapsed time:       0 days  0 hours 13 minutes  8.7 seconds.
 File lengths (MBytes):  RWF=    305 Int=      0 D2E=      0 Chk=    127 Scr=      1
 Normal termination of Gaussian 16 at Tue Apr 26 19:04:50 2022.
