 Entering Gaussian System, Link 0=g16
 Initial command:
 /data0/home/software/g16/l1.exe "/data0/home/software/g16/scratch/Gau-349279.inp" -scrdir="/data0/home/software/g16/scratch/"
 Default is to use a total of  22 processors:
                               22 via shared-memory
                                1 via Linda
 Entering Link 1 = /data0/home/software/g16/l1.exe PID=    349280.
  
 Copyright (c) 1988,1990,1992,1993,1995,1998,2003,2009,2016,
            Gaussian, Inc.  All Rights Reserved.
  
 This is part of the Gaussian(R) 16 program.  It is based on
 the Gaussian(R) 09 system (copyright 2009, Gaussian, Inc.),
 the Gaussian(R) 03 system (copyright 2003, Gaussian, Inc.),
 the Gaussian(R) 98 system (copyright 1998, Gaussian, Inc.),
 the Gaussian(R) 94 system (copyright 1995, Gaussian, Inc.),
 the Gaussian 92(TM) system (copyright 1992, Gaussian, Inc.),
 the Gaussian 90(TM) system (copyright 1990, Gaussian, Inc.),
 the Gaussian 88(TM) system (copyright 1988, Gaussian, Inc.),
 the Gaussian 86(TM) system (copyright 1986, Carnegie Mellon
 University), and the Gaussian 82(TM) system (copyright 1983,
 Carnegie Mellon University). Gaussian is a federally registered
 trademark of Gaussian, Inc.
  
 This software contains proprietary and confidential information,
 including trade secrets, belonging to Gaussian, Inc.
  
 This software is provided under written license and may be
 used, copied, transmitted, or stored only in accord with that
 written license.
  
 The following legend is applicable only to US Government
 contracts under FAR:
  
                    RESTRICTED RIGHTS LEGEND
  
 Use, reproduction and disclosure by the US Government is
 subject to restrictions as set forth in subparagraphs (a)
 and (c) of the Commercial Computer Software - Restricted
 Rights clause in FAR 52.227-19.
  
 Gaussian, Inc.
 340 Quinnipiac St., Bldg. 40, Wallingford CT 06492
  
  
 ---------------------------------------------------------------
 Warning -- This program may not be used in any manner that
 competes with the business of Gaussian, Inc. or will provide
 assistance to any competitor of Gaussian, Inc.  The licensee
 of this program is prohibited from giving any competitor of
 Gaussian, Inc. access to this program.  By using this program,
 the user acknowledges that Gaussian, Inc. is engaged in the
 business of creating and licensing software in the field of
 computational chemistry and represents and warrants to the
 licensee that it is not a competitor of Gaussian, Inc. and that
 it will not use this program in any manner prohibited above.
 ---------------------------------------------------------------
  

 Cite this work as:
 Gaussian 16, Revision A.03,
 M. J. Frisch, G. W. Trucks, H. B. Schlegel, G. E. Scuseria, 
 M. A. Robb, J. R. Cheeseman, G. Scalmani, V. Barone, 
 G. A. Petersson, H. Nakatsuji, X. Li, M. Caricato, A. V. Marenich, 
 J. Bloino, B. G. Janesko, R. Gomperts, B. Mennucci, H. P. Hratchian, 
 J. V. Ortiz, A. F. Izmaylov, J. L. Sonnenberg, D. Williams-Young, 
 F. Ding, F. Lipparini, F. Egidi, J. Goings, B. Peng, A. Petrone, 
 T. Henderson, D. Ranasinghe, V. G. Zakrzewski, J. Gao, N. Rega, 
 G. Zheng, W. Liang, M. Hada, M. Ehara, K. Toyota, R. Fukuda, 
 J. Hasegawa, M. Ishida, T. Nakajima, Y. Honda, O. Kitao, H. Nakai, 
 T. Vreven, K. Throssell, J. A. Montgomery, Jr., J. E. Peralta, 
 F. Ogliaro, M. J. Bearpark, J. J. Heyd, E. N. Brothers, K. N. Kudin, 
 V. N. Staroverov, T. A. Keith, R. Kobayashi, J. Normand, 
 K. Raghavachari, A. P. Rendell, J. C. Burant, S. S. Iyengar, 
 J. Tomasi, M. Cossi, J. M. Millam, M. Klene, C. Adamo, R. Cammi, 
 J. W. Ochterski, R. L. Martin, K. Morokuma, O. Farkas, 
 J. B. Foresman, and D. J. Fox, Gaussian, Inc., Wallingford CT, 2016.
 
 ******************************************
 Gaussian 16:  ES64L-G16RevA.03 25-Dec-2016
                20-Feb-2023 
 ******************************************
 %nproc=24
 Will use up to   24 processors via shared memory.
 %mem=50GB
 ---------------------------------------------------
 #p M062X/6-311+G(2d,p) nosymm em=GD3 counterpoise=3
 ---------------------------------------------------
 1/38=1,62=3,172=1/1;
 2/12=2,15=1,17=6,18=5,40=1/2;
 1/38=1,53=2,62=3,63=1/22;
 3/5=4,6=6,7=112,11=2,25=1,30=1,74=-55,124=31/1,2,3;
 4//1;
 5/5=2,38=5/2;
 6/7=2,8=2,9=2,10=2,28=1/1;
 1/53=2,62=3,63=1/22;
 3/5=7,6=11,7=112,11=2,25=1,30=1,74=-55,82=7,124=31/1,2,3;
 4//1;
 5/5=2,38=5/2;
 6/7=2,8=2,9=2,10=2,28=1/1;
 1/53=2,62=3,63=1/22(-4);
 99/5=1,9=1/99;
 Leave Link    1 at Mon Feb 20 00:33:41 2023, MaxMem=  6710886400 cpu:               0.7 elap:               0.0
 (Enter /data0/home/software/g16/l101.exe)
 -------------------
 Title Card Required
 -------------------
 Symbolic Z-matrix:
 Charge =  0 Multiplicity = 1 in supermolecule
 Charge =  0 Multiplicity = 1 in fragment      1.
 Charge =  0 Multiplicity = 1 in fragment      2.
 Charge =  0 Multiplicity = 1 in fragment      3.
 C                     13.77381   17.67676   15.61013    
 H                     14.38281   17.0922   14.87908    
 H                     14.47129   18.16407   16.30377    
 H                     13.16541   16.93392   16.15888    
 C                     12.20749   19.52625   15.91647    
 H                     11.59755   20.30903   15.43284    
 H                     11.53411   18.91215   16.53973    
 H                     12.92675   20.02779   16.58457    
 C                     13.7872   19.54258   14.03921    
 H                     13.2004   20.20281   13.37103    
 H                     14.47828   20.14538   14.64044    
 H                     14.39442   18.91909   13.34061    
 C                     11.88704   17.93221   14.05193    
 H                     11.33595   17.21195   14.69832    
 H                     12.46076   17.28557   13.33186    
 C                     10.91393   18.85824   13.30898    
 H                     11.32721   19.88261   13.19522    
 H                     9.96937   18.96345   13.87334    
 C                     10.62658   18.31322   11.9088    
 H                     10.02643   19.02533   11.31623    
 H                     10.03878   17.37565   11.95276    
 N                     12.90939   18.67871   14.89525    
 C                     11.9584   18.07339   11.18313    
 O                     12.8237   18.9594   11.2615    
 O                     12.09225   16.95632   10.63218    
 O                     11.101    15.0383   12.28057    
 H                     11.4385   15.71674   11.64326    
 H                     11.17454   14.21565   11.80568    
 O                     12.77373   15.15883   14.51086    
 H                     13.60813   15.22179   14.03477    
 H                     12.12472   15.00322   13.80236    
 
 ITRead=  0  0  0  0  0  0  0  0  0  0  0  0  0  0  0  0  0  0  0  0
 ITRead=  0  0  0  0  0  0  0  0  0  0  0
 MicOpt= -1 -1 -1 -1 -1 -1 -1 -1 -1 -1 -1 -1 -1 -1 -1 -1 -1 -1 -1 -1
 MicOpt= -1 -1 -1 -1 -1 -1 -1 -1 -1 -1 -1
 NAtoms=     31 NQM=       31 NQMF=       0 NMMI=      0 NMMIF=      0
                NMic=       0 NMicF=      0.
                    Isotopes and Nuclear Properties:
 (Nuclear quadrupole moments (NQMom) in fm**2, nuclear magnetic moments (NMagM)
  in nuclear magnetons)

  Atom         1           2           3           4           5           6           7           8           9          10
 IAtWgt=          12           1           1           1          12           1           1           1          12           1
 AtmWgt=  12.0000000   1.0078250   1.0078250   1.0078250  12.0000000   1.0078250   1.0078250   1.0078250  12.0000000   1.0078250
 NucSpn=           0           1           1           1           0           1           1           1           0           1
 AtZEff=  -0.0000000  -0.0000000  -0.0000000  -0.0000000  -0.0000000  -0.0000000  -0.0000000  -0.0000000  -0.0000000  -0.0000000
 NQMom=    0.0000000   0.0000000   0.0000000   0.0000000   0.0000000   0.0000000   0.0000000   0.0000000   0.0000000   0.0000000
 NMagM=    0.0000000   2.7928460   2.7928460   2.7928460   0.0000000   2.7928460   2.7928460   2.7928460   0.0000000   2.7928460
 AtZNuc=   6.0000000   1.0000000   1.0000000   1.0000000   6.0000000   1.0000000   1.0000000   1.0000000   6.0000000   1.0000000

  Atom        11          12          13          14          15          16          17          18          19          20
 IAtWgt=           1           1          12           1           1          12           1           1          12           1
 AtmWgt=   1.0078250   1.0078250  12.0000000   1.0078250   1.0078250  12.0000000   1.0078250   1.0078250  12.0000000   1.0078250
 NucSpn=           1           1           0           1           1           0           1           1           0           1
 AtZEff=  -0.0000000  -0.0000000  -0.0000000  -0.0000000  -0.0000000  -0.0000000  -0.0000000  -0.0000000  -0.0000000  -0.0000000
 NQMom=    0.0000000   0.0000000   0.0000000   0.0000000   0.0000000   0.0000000   0.0000000   0.0000000   0.0000000   0.0000000
 NMagM=    2.7928460   2.7928460   0.0000000   2.7928460   2.7928460   0.0000000   2.7928460   2.7928460   0.0000000   2.7928460
 AtZNuc=   1.0000000   1.0000000   6.0000000   1.0000000   1.0000000   6.0000000   1.0000000   1.0000000   6.0000000   1.0000000

  Atom        21          22          23          24          25          26          27          28          29          30
 IAtWgt=           1          14          12          16          16          16           1           1          16           1
 AtmWgt=   1.0078250  14.0030740  12.0000000  15.9949146  15.9949146  15.9949146   1.0078250   1.0078250  15.9949146   1.0078250
 NucSpn=           1           2           0           0           0           0           1           1           0           1
 AtZEff=  -0.0000000  -0.0000000  -0.0000000  -0.0000000  -0.0000000  -0.0000000  -0.0000000  -0.0000000  -0.0000000  -0.0000000
 NQMom=    0.0000000   2.0440000   0.0000000   0.0000000   0.0000000   0.0000000   0.0000000   0.0000000   0.0000000   0.0000000
 NMagM=    2.7928460   0.4037610   0.0000000   0.0000000   0.0000000   0.0000000   2.7928460   2.7928460   0.0000000   2.7928460
 AtZNuc=   1.0000000   7.0000000   6.0000000   8.0000000   8.0000000   8.0000000   1.0000000   1.0000000   8.0000000   1.0000000

  Atom        31
 IAtWgt=           1
 AtmWgt=   1.0078250
 NucSpn=           1
 AtZEff=  -0.0000000
 NQMom=    0.0000000
 NMagM=    2.7928460
 AtZNuc=   1.0000000
 Leave Link  101 at Mon Feb 20 00:33:41 2023, MaxMem=  6710886400 cpu:               2.3 elap:               0.1
 (Enter /data0/home/software/g16/l202.exe)
                          Input orientation:                          
 ---------------------------------------------------------------------
 Center     Atomic      Atomic             Coordinates (Angstroms)
 Number     Number       Type             X           Y           Z
 ---------------------------------------------------------------------
      1          6           0       13.773813   17.676761   15.610132
      2          1           0       14.382808   17.092195   14.879084
      3          1           0       14.471295   18.164067   16.303770
      4          1           0       13.165413   16.933917   16.158878
      5          6           0       12.207495   19.526250   15.916474
      6          1           0       11.597552   20.309032   15.432836
      7          1           0       11.534113   18.912148   16.539732
      8          1           0       12.926749   20.027787   16.584572
      9          6           0       13.787202   19.542581   14.039210
     10          1           0       13.200401   20.202813   13.371028
     11          1           0       14.478284   20.145376   14.640438
     12          1           0       14.394422   18.919095   13.340611
     13          6           0       11.887037   17.932210   14.051933
     14          1           0       11.335949   17.211951   14.698322
     15          1           0       12.460763   17.285571   13.331855
     16          6           0       10.913926   18.858243   13.308978
     17          1           0       11.327213   19.882605   13.195219
     18          1           0        9.969373   18.963453   13.873336
     19          6           0       10.626577   18.313223   11.908798
     20          1           0       10.026430   19.025335   11.316230
     21          1           0       10.038780   17.375646   11.952763
     22          7           0       12.909387   18.678706   14.895252
     23          6           0       11.958398   18.073388   11.183128
     24          8           0       12.823703   18.959399   11.261503
     25          8           0       12.092247   16.956318   10.632175
     26          8           0       11.100997   15.038299   12.280570
     27          1           0       11.438500   15.716736   11.643264
     28          1           0       11.174540   14.215646   11.805682
     29          8           0       12.773726   15.158833   14.510860
     30          1           0       13.608127   15.221788   14.034773
     31          1           0       12.124724   15.003221   13.802359
 ---------------------------------------------------------------------
                    Distance matrix (angstroms):
                    1          2          3          4          5
     1  C    0.000000
     2  H    1.116702   0.000000
     3  H    1.097762   1.785069   0.000000
     4  H    1.105934   1.773408   1.799886   0.000000
     5  C    2.442910   3.425316   2.670268   2.774267   0.000000
     6  H    3.419999   4.290959   3.690230   3.791665   1.103940
     7  H    2.721506   3.766304   3.040122   2.592217   1.104090
     8  H    2.682233   3.694117   2.436786   3.132125   1.102370
     9  C    2.439110   2.657918   2.737977   3.418295   2.453541
    10  H    3.423934   3.653528   3.791125   4.296395   2.814764
    11  H    2.744202   3.063981   2.586949   3.787184   2.677325
    12  H    2.660691   2.388430   3.058805   3.659785   3.433126
    13  C    2.460317   2.760195   3.435537   2.658957   2.473898
    14  H    2.643979   3.054565   3.648888   2.357428   2.756713
    15  H    2.658510   2.474989   3.694086   2.934664   3.430021
    16  C    3.856185   4.197297   4.701652   4.110250   2.986401
    17  H    4.084532   4.467488   4.743597   4.566948   2.882206
    18  H    4.375591   4.898116   5.178159   4.422374   3.082263
    19  C    4.900005   4.941941   5.841223   5.139198   4.475735
    20  H    5.856546   5.950545   6.736035   6.138280   5.115682
    21  H    5.236171   5.245405   6.260995   5.259502   5.003941
    22  N    1.504054   2.165236   2.165256   2.169467   1.501292
    23  C    4.801188   4.527758   5.704722   5.245319   4.957562
    24  O    4.632326   4.359375   5.363914   5.310709   4.729671
    25  O    5.303467   4.827149   6.267816   5.629976   5.877214
    26  O    5.019105   4.662730   6.108639   4.785024   5.880973
    27  H    5.003142   4.585997   6.075162   4.985432   5.776164
    28  H    5.762758   5.292761   6.833112   5.504806   6.794713
    29  O    2.923788   2.542169   3.889434   2.453631   4.622845
    30  H    2.921661   2.193494   3.814500   2.763911   4.902138
    31  H    3.624273   3.259155   4.664161   3.219286   4.993408
                    6          7          8          9         10
     6  H    0.000000
     7  H    1.783404   0.000000
     8  H    1.781112   1.784964   0.000000
     9  C    2.706327   3.424393   2.730325   0.000000
    10  H    2.613706   3.805656   3.229920   1.107569   0.000000
    11  H    2.992206   3.714339   2.490130   1.096554   1.802134
    12  H    3.759230   4.291362   3.729148   1.116016   1.753438
    13  C    2.764051   2.697031   3.447710   2.490800   2.710017
    14  H    3.193722   2.514106   3.743997   3.445999   3.766052
    15  H    3.781610   3.714150   4.279843   2.711805   3.009801
    16  C    2.661373   3.290184   4.018558   3.042577   2.653241
    17  H    2.293873   3.488605   3.750641   2.622877   1.908475
    18  H    2.625565   3.092040   4.150865   3.865064   3.496837
    19  C    4.164720   4.756877   5.485744   4.004938   3.511871
    20  H    4.589417   5.437913   6.096900   4.671784   3.960144
    21  H    4.810970   5.063314   6.068597   4.806198   4.472158
    22  N    2.160526   2.156430   2.161972   1.499882   2.175052
    23  C    4.815426   5.438450   5.825202   3.695978   3.296047
    24  O    4.552469   5.433689   5.430206   2.997347   2.477514
    25  O    5.876373   6.247881   6.749914   4.601034   4.389653
    26  O    6.161491   5.773626   6.837601   5.531462   5.680563
    27  H    5.956118   5.847666   6.724327   5.088619   5.119995
    28  H    7.103840   6.678147   7.725866   6.339628   6.511574
    29  O    5.362646   4.443010   5.294375   4.524028   5.188738
    30  H    5.645976   4.918853   5.483008   4.324505   5.041568
    31  H    5.575661   4.808507   5.799157   4.840012   5.327184
                   11         12         13         14         15
    11  H    0.000000
    12  H    1.788952   0.000000
    13  C    3.458179   2.786916   0.000000
    14  H    4.299140   3.756591   1.113683   0.000000
    15  H    3.736478   2.531307   1.125085   1.771400   0.000000
    16  C    4.016733   3.481172   1.535078   2.195144   2.206020
    17  H    3.476630   3.218270   2.202590   3.064602   2.836933
    18  H    4.723946   4.457221   2.184673   2.369787   3.052133
    19  C    5.065006   4.076006   2.515344   3.081794   2.538779
    20  H    5.667791   4.815471   3.484372   4.054843   3.607700
    21  H    5.882533   4.824933   2.851724   3.040976   2.788550
    22  N    2.162750   2.163336   1.521066   2.160060   2.141565
    23  C    4.753520   3.362167   2.873163   3.672343   2.343086
    24  O    3.944792   2.606045   3.117525   4.132640   2.686965
    25  O    5.650614   4.060558   3.562193   4.143777   2.744537
    26  O    6.561805   5.199126   3.482859   3.259676   2.829204
    27  H    6.151113   4.676918   3.303210   3.402876   2.521429
    28  H    7.356104   5.903057   4.400698   4.167885   3.661695
    29  O    5.271425   4.258604   2.947618   2.513491   2.451737
    30  H    5.036439   3.843202   3.210737   3.092546   2.463684
    31  H    5.716938   4.549594   2.949196   2.510658   2.354446
                   16         17         18         19         20
    16  C    0.000000
    17  H    1.110434   0.000000
    18  H    1.105328   1.774377   0.000000
    19  C    1.529745   2.146795   2.171204   0.000000
    20  H    2.187833   2.440809   2.558491   1.103819   0.000000
    21  H    2.191642   3.080357   2.492900   1.107470   1.768276
    22  N    2.555458   2.615867   3.125552   3.776732   4.608795
    23  C    2.495227   2.778520   3.462031   1.535534   2.157874
    24  O    2.801720   2.613628   3.868965   2.379894   2.798585
    25  O    3.488701   3.964546   4.363520   2.370474   3.002726
    26  O    3.960378   4.935084   4.384554   3.329927   4.240413
    27  H    3.594280   4.446956   4.203894   2.733399   3.612163
    28  H    4.886873   5.836827   5.316887   4.135340   4.968987
    29  O    4.311498   5.112468   4.769273   4.618566   5.718665
    30  H    4.583591   5.256485   5.221748   4.792325   5.889482
    31  H    4.070706   4.981268   4.509325   4.097088   5.173111
                   21         22         23         24         25
    21  H    0.000000
    22  N    4.312377   0.000000
    23  C    2.182685   3.879517   0.000000
    24  O    3.277485   3.645581   1.240931   0.000000
    25  O    2.477199   4.669921   1.252721   2.223379   0.000000
    26  O    2.588234   4.833156   3.339353   4.402413   2.716354
    27  H    2.192484   4.638125   2.456792   3.546744   1.728077
    28  H    3.361128   5.698600   3.985496   5.051640   3.119389
    29  O    4.351787   3.543398   4.498132   5.000512   4.328922
    30  H    4.659840   3.630281   4.357190   4.719755   4.109034
    31  H    3.660679   3.913988   4.039054   4.753511   3.723669
                   26         27         28         29         30
    26  O    0.000000
    27  H    0.990123   0.000000
    28  H    0.952725   1.532751   0.000000
    29  O    2.790474   3.212038   3.281004   0.000000
    30  H    3.065387   3.266737   3.450147   0.962729   0.000000
    31  H    1.834418   2.375226   2.347305   0.973341   1.517324
                   31
    31  H    0.000000
 Symmetry turned off by external request.
 Stoichiometry    C7H19NO4
 Framework group  C1[X(C7H19NO4)]
 Deg. of freedom    87
 Full point group                 C1      NOp   1
 Rotational constants (GHZ):           0.9478070           0.6406903           0.4867458
 Leave Link  202 at Mon Feb 20 00:33:41 2023, MaxMem=  6710886400 cpu:               0.1 elap:               0.0
 (Enter /data0/home/software/g16/l122.exe)
 Counterpoise: doing full-system calculation.
 Leave Link  122 at Mon Feb 20 00:33:41 2023, MaxMem=  6710886400 cpu:               0.0 elap:               0.0
 (Enter /data0/home/software/g16/l301.exe)
 Standard basis: 6-311+G(2d,p) (5D, 7F)
 Ernie: Thresh=  0.10000D-02 Tol=  0.10000D-05 Strict=F.
   438 basis functions,   656 primitive gaussians,   462 cartesian basis functions
    50 alpha electrons       50 beta electrons
       nuclear repulsion energy       838.2607543978 Hartrees.
 IExCor= 4336 DFT=T Ex+Corr=M062X ExCW=0 ScaHFX=  0.540000
 ScaDFX=  1.000000  1.000000  1.000000  1.000000 ScalE2=  1.000000  1.000000
 IRadAn=      5 IRanWt=     -1 IRanGd=            0 ICorTp=0 IEmpDi=131
 NAtoms=   31 NActive=   31 NUniq=   31 SFac= 1.00D+00 NAtFMM=   60 NAOKFM=F Big=F
 Integral buffers will be    131072 words long.
 Raffenetti 2 integral format.
 Two-electron integral symmetry is turned off.
 R6Disp:  Grimme-D3 Dispersion energy=       -0.0018331049 Hartrees.
 Nuclear repulsion after empirical dispersion term =      838.2589212929 Hartrees.
 Leave Link  301 at Mon Feb 20 00:33:41 2023, MaxMem=  6710886400 cpu:               1.1 elap:               0.1
 (Enter /data0/home/software/g16/l302.exe)
 NPDir=0 NMtPBC=     1 NCelOv=     1 NCel=       1 NClECP=     1 NCelD=      1
         NCelK=      1 NCelE2=     1 NClLst=     1 CellRange=     0.0.
 One-electron integrals computed using PRISM.
 NBasis=   438 RedAO= T EigKep=  6.49D-06  NBF=   438
 NBsUse=   438 1.00D-06 EigRej= -1.00D+00 NBFU=   438
 Precomputing XC quadrature grid using
 IXCGrd= 4 IRadAn=           5 IRanWt=          -1 IRanGd=           0 AccXCQ= 0.00D+00.
 Generated NRdTot=       0 NPtTot=           0 NUsed=           0 NTot=          32
 NSgBfM=   462   462   462   462   462 MxSgAt=    31 MxSgA2=    31.
 Leave Link  302 at Mon Feb 20 00:33:42 2023, MaxMem=  6710886400 cpu:               9.6 elap:               0.4
 (Enter /data0/home/software/g16/l303.exe)
 DipDrv:  MaxL=1.
 Leave Link  303 at Mon Feb 20 00:33:42 2023, MaxMem=  6710886400 cpu:               1.1 elap:               0.1
 (Enter /data0/home/software/g16/l401.exe)
 ExpMin= 4.38D-02 ExpMax= 8.59D+03 ExpMxC= 1.30D+03 IAcc=3 IRadAn=         5 AccDes= 0.00D+00
 Harris functional with IExCor= 1009 and IRadAn=       5 diagonalized for initial guess.
 HarFok:  IExCor= 1009 AccDes= 0.00D+00 IRadAn=         5 IDoV= 1 UseB2=F ITyADJ=14
 ICtDFT=  3500011 ScaDFX=  1.000000  1.000000  1.000000  1.000000
 FoFCou: FMM=F IPFlag=           0 FMFlag=      100000 FMFlg1=           0
         NFxFlg=           0 DoJE=T BraDBF=F KetDBF=T FulRan=T
         wScrn=  0.000000 ICntrl=       500 IOpCl=  0 I1Cent=   200000004 NGrid=           0
         NMat0=    1 NMatS0=      1 NMatT0=    0 NMatD0=    1 NMtDS0=    0 NMtDT0=    0
 Symmetry not used in FoFCou.
 Harris En= -633.555210789166    
 JPrj=0 DoOrth=F DoCkMO=F.
 Leave Link  401 at Mon Feb 20 00:33:43 2023, MaxMem=  6710886400 cpu:              42.6 elap:               1.8
 (Enter /data0/home/software/g16/l502.exe)
 Two-electron integral symmetry not used.
 Closed shell SCF:
 Using DIIS extrapolation, IDIIS=  1040.
 NGot=  6710886400 LenX=  6710444981 LenY=  6710231075
 Requested convergence on RMS density matrix=1.00D-08 within 128 cycles.
 Requested convergence on MAX density matrix=1.00D-06.
 Requested convergence on             energy=1.00D-06.
 No special actions if energy rises.
 Fock matrices will be formed incrementally for  20 cycles.

 Cycle   1  Pass 1  IDiag  1:
 FoFJK:  IHMeth= 1 ICntrl=       0 DoSepK=F KAlg= 0 I1Cent=           0 FoldK=F
 IRaf= 920000000 NMat=       1 IRICut=       1 DoRegI=T DoRafI=F ISym2E= 0 IDoP0=0 IntGTp=1.
 FoFCou: FMM=F IPFlag=           0 FMFlag=      100000 FMFlg1=           0
         NFxFlg=           0 DoJE=F BraDBF=F KetDBF=F FulRan=T
         wScrn=  0.000000 ICntrl=         0 IOpCl=  0 I1Cent=           0 NGrid=           0
         NMat0=    1 NMatS0=      1 NMatT0=    0 NMatD0=    1 NMtDS0=    0 NMtDT0=    0
 Symmetry not used in FoFCou.
 E= -633.258264480804    
 DIIS: error= 2.52D-02 at cycle   1 NSaved=   1.
 NSaved= 1 IEnMin= 1 EnMin= -633.258264480804     IErMin= 1 ErrMin= 2.52D-02
 ErrMax= 2.52D-02  0.00D+00 EMaxC= 1.00D-01 BMatC= 6.98D-01 BMatP= 6.98D-01
 IDIUse=3 WtCom= 7.48D-01 WtEn= 2.52D-01
 Coeff-Com:  0.100D+01
 Coeff-En:   0.100D+01
 Coeff:      0.100D+01
 Gap=     0.343 Goal=   None    Shift=    0.000
 GapD=    0.343 DampG=1.000 DampE=0.500 DampFc=0.5000 IDamp=-1.
 Damping current iteration by 5.00D-01
 RMSDP=7.58D-03 MaxDP=8.79D-01              OVMax= 1.86D-01

 Cycle   2  Pass 1  IDiag  1:
 RMSU=  3.78D-03    CP:  9.86D-01
 E= -633.484751650800     Delta-E=       -0.226487169996 Rises=F Damp=T
 DIIS: error= 5.21D-03 at cycle   2 NSaved=   2.
 NSaved= 2 IEnMin= 2 EnMin= -633.484751650800     IErMin= 2 ErrMin= 5.21D-03
 ErrMax= 5.21D-03  0.00D+00 EMaxC= 1.00D-01 BMatC= 4.15D-02 BMatP= 6.98D-01
 IDIUse=3 WtCom= 9.48D-01 WtEn= 5.21D-02
 Coeff-Com:  0.995D-02 0.990D+00
 Coeff-En:   0.377D-01 0.962D+00
 Coeff:      0.114D-01 0.989D+00
 Gap=     0.252 Goal=   None    Shift=    0.000
 RMSDP=3.39D-03 MaxDP=6.14D-01 DE=-2.26D-01 OVMax= 1.18D-01

 Cycle   3  Pass 1  IDiag  1:
 RMSU=  2.77D-03    CP:  8.44D-01  6.75D-01
 E= -633.736787467811     Delta-E=       -0.252035817011 Rises=F Damp=F
 DIIS: error= 2.99D-03 at cycle   3 NSaved=   3.
 NSaved= 3 IEnMin= 3 EnMin= -633.736787467811     IErMin= 3 ErrMin= 2.99D-03
 ErrMax= 2.99D-03  0.00D+00 EMaxC= 1.00D-01 BMatC= 1.03D-02 BMatP= 4.15D-02
 IDIUse=3 WtCom= 9.70D-01 WtEn= 2.99D-02
 Coeff-Com: -0.504D-01 0.291D+00 0.760D+00
 Coeff-En:   0.000D+00 0.000D+00 0.100D+01
 Coeff:     -0.488D-01 0.282D+00 0.767D+00
 Gap=     0.254 Goal=   None    Shift=    0.000
 RMSDP=4.20D-04 MaxDP=3.20D-02 DE=-2.52D-01 OVMax= 1.88D-02

 Cycle   4  Pass 1  IDiag  1:
 RMSU=  4.14D-04    CP:  8.47D-01  6.78D-01  1.02D+00
 E= -633.742222887492     Delta-E=       -0.005435419681 Rises=F Damp=F
 DIIS: error= 2.08D-03 at cycle   4 NSaved=   4.
 NSaved= 4 IEnMin= 4 EnMin= -633.742222887492     IErMin= 4 ErrMin= 2.08D-03
 ErrMax= 2.08D-03  0.00D+00 EMaxC= 1.00D-01 BMatC= 2.61D-03 BMatP= 1.03D-02
 IDIUse=3 WtCom= 9.79D-01 WtEn= 2.08D-02
 Coeff-Com: -0.238D-01 0.656D-01 0.385D+00 0.573D+00
 Coeff-En:   0.000D+00 0.000D+00 0.187D+00 0.813D+00
 Coeff:     -0.233D-01 0.642D-01 0.381D+00 0.578D+00
 Gap=     0.251 Goal=   None    Shift=    0.000
 RMSDP=1.86D-04 MaxDP=2.51D-02 DE=-5.44D-03 OVMax= 1.08D-02

 Cycle   5  Pass 1  IDiag  1:
 RMSU=  1.45D-04    CP:  8.41D-01  6.72D-01  1.03D+00  7.75D-01
 E= -633.744320100483     Delta-E=       -0.002097212991 Rises=F Damp=F
 DIIS: error= 3.89D-04 at cycle   5 NSaved=   5.
 NSaved= 5 IEnMin= 5 EnMin= -633.744320100483     IErMin= 5 ErrMin= 3.89D-04
 ErrMax= 3.89D-04  0.00D+00 EMaxC= 1.00D-01 BMatC= 1.42D-04 BMatP= 2.61D-03
 IDIUse=3 WtCom= 9.96D-01 WtEn= 3.89D-03
 Coeff-Com: -0.834D-02 0.160D-01 0.140D+00 0.277D+00 0.575D+00
 Coeff-En:   0.000D+00 0.000D+00 0.000D+00 0.000D+00 0.100D+01
 Coeff:     -0.831D-02 0.159D-01 0.139D+00 0.276D+00 0.577D+00
 Gap=     0.251 Goal=   None    Shift=    0.000
 RMSDP=5.32D-05 MaxDP=5.29D-03 DE=-2.10D-03 OVMax= 4.01D-03

 Cycle   6  Pass 1  IDiag  1:
 RMSU=  3.72D-05    CP:  8.41D-01  6.69D-01  1.03D+00  8.44D-01  8.82D-01
 E= -633.744410735511     Delta-E=       -0.000090635028 Rises=F Damp=F
 DIIS: error= 1.29D-04 at cycle   6 NSaved=   6.
 NSaved= 6 IEnMin= 6 EnMin= -633.744410735511     IErMin= 6 ErrMin= 1.29D-04
 ErrMax= 1.29D-04  0.00D+00 EMaxC= 1.00D-01 BMatC= 1.57D-05 BMatP= 1.42D-04
 IDIUse=3 WtCom= 9.99D-01 WtEn= 1.29D-03
 Coeff-Com: -0.138D-02 0.763D-03 0.256D-01 0.732D-01 0.289D+00 0.613D+00
 Coeff-En:   0.000D+00 0.000D+00 0.000D+00 0.000D+00 0.276D-02 0.997D+00
 Coeff:     -0.138D-02 0.762D-03 0.256D-01 0.731D-01 0.288D+00 0.613D+00
 Gap=     0.250 Goal=   None    Shift=    0.000
 RMSDP=2.40D-05 MaxDP=3.16D-03 DE=-9.06D-05 OVMax= 1.21D-03

 Cycle   7  Pass 1  IDiag  1:
 RMSU=  1.82D-05    CP:  8.42D-01  6.68D-01  1.03D+00  8.71D-01  9.01D-01
                    CP:  1.09D+00
 E= -633.744422711195     Delta-E=       -0.000011975684 Rises=F Damp=F
 DIIS: error= 3.29D-05 at cycle   7 NSaved=   7.
 NSaved= 7 IEnMin= 7 EnMin= -633.744422711195     IErMin= 7 ErrMin= 3.29D-05
 ErrMax= 3.29D-05  0.00D+00 EMaxC= 1.00D-01 BMatC= 1.30D-06 BMatP= 1.57D-05
 IDIUse=1 WtCom= 1.00D+00 WtEn= 0.00D+00
 Coeff-Com:  0.494D-03-0.180D-02-0.583D-02-0.202D-02 0.508D-01 0.252D+00
 Coeff-Com:  0.707D+00
 Coeff:      0.494D-03-0.180D-02-0.583D-02-0.202D-02 0.508D-01 0.252D+00
 Coeff:      0.707D+00
 Gap=     0.250 Goal=   None    Shift=    0.000
 RMSDP=8.97D-06 MaxDP=1.23D-03 DE=-1.20D-05 OVMax= 3.07D-04

 Cycle   8  Pass 1  IDiag  1:
 RMSU=  5.08D-06    CP:  8.42D-01  6.67D-01  1.03D+00  8.77D-01  9.21D-01
                    CP:  1.16D+00  9.36D-01
 E= -633.744423712256     Delta-E=       -0.000001001061 Rises=F Damp=F
 DIIS: error= 1.50D-05 at cycle   8 NSaved=   8.
 NSaved= 8 IEnMin= 8 EnMin= -633.744423712256     IErMin= 8 ErrMin= 1.50D-05
 ErrMax= 1.50D-05  0.00D+00 EMaxC= 1.00D-01 BMatC= 2.16D-07 BMatP= 1.30D-06
 IDIUse=1 WtCom= 1.00D+00 WtEn= 0.00D+00
 Coeff-Com:  0.440D-03-0.906D-03-0.632D-02-0.120D-01-0.203D-01 0.240D-01
 Coeff-Com:  0.329D+00 0.686D+00
 Coeff:      0.440D-03-0.906D-03-0.632D-02-0.120D-01-0.203D-01 0.240D-01
 Coeff:      0.329D+00 0.686D+00
 Gap=     0.250 Goal=   None    Shift=    0.000
 RMSDP=2.49D-06 MaxDP=3.43D-04 DE=-1.00D-06 OVMax= 9.59D-05

 Cycle   9  Pass 1  IDiag  1:
 RMSU=  1.67D-06    CP:  8.42D-01  6.66D-01  1.03D+00  8.78D-01  9.28D-01
                    CP:  1.17D+00  9.77D-01  9.17D-01
 E= -633.744423890734     Delta-E=       -0.000000178478 Rises=F Damp=F
 DIIS: error= 2.96D-06 at cycle   9 NSaved=   9.
 NSaved= 9 IEnMin= 9 EnMin= -633.744423890734     IErMin= 9 ErrMin= 2.96D-06
 ErrMax= 2.96D-06  0.00D+00 EMaxC= 1.00D-01 BMatC= 8.29D-09 BMatP= 2.16D-07
 IDIUse=1 WtCom= 1.00D+00 WtEn= 0.00D+00
 Coeff-Com:  0.925D-04-0.149D-03-0.148D-02-0.348D-02-0.879D-02-0.697D-02
 Coeff-Com:  0.560D-01 0.212D+00 0.753D+00
 Coeff:      0.925D-04-0.149D-03-0.148D-02-0.348D-02-0.879D-02-0.697D-02
 Coeff:      0.560D-01 0.212D+00 0.753D+00
 Gap=     0.250 Goal=   None    Shift=    0.000
 RMSDP=7.32D-07 MaxDP=5.62D-05 DE=-1.78D-07 OVMax= 3.29D-05

 Cycle  10  Pass 1  IDiag  1:
 RMSU=  5.85D-07    CP:  8.42D-01  6.66D-01  1.03D+00  8.78D-01  9.26D-01
                    CP:  1.17D+00  9.87D-01  9.46D-01  1.12D+00
 E= -633.744423898167     Delta-E=       -0.000000007433 Rises=F Damp=F
 DIIS: error= 1.41D-06 at cycle  10 NSaved=  10.
 NSaved=10 IEnMin=10 EnMin= -633.744423898167     IErMin=10 ErrMin= 1.41D-06
 ErrMax= 1.41D-06  0.00D+00 EMaxC= 1.00D-01 BMatC= 1.18D-09 BMatP= 8.29D-09
 IDIUse=1 WtCom= 1.00D+00 WtEn= 0.00D+00
 Coeff-Com: -0.199D-04 0.451D-04 0.187D-03 0.835D-04-0.877D-03-0.553D-02
 Coeff-Com: -0.199D-01-0.354D-02 0.271D+00 0.759D+00
 Coeff:     -0.199D-04 0.451D-04 0.187D-03 0.835D-04-0.877D-03-0.553D-02
 Coeff:     -0.199D-01-0.354D-02 0.271D+00 0.759D+00
 Gap=     0.250 Goal=   None    Shift=    0.000
 RMSDP=2.88D-07 MaxDP=3.67D-05 DE=-7.43D-09 OVMax= 1.02D-05

 Cycle  11  Pass 1  IDiag  1:
 RMSU=  1.26D-07    CP:  8.42D-01  6.66D-01  1.03D+00  8.78D-01  9.25D-01
                    CP:  1.16D+00  9.86D-01  9.53D-01  1.22D+00  1.09D+00
 E= -633.744423899334     Delta-E=       -0.000000001167 Rises=F Damp=F
 DIIS: error= 5.20D-07 at cycle  11 NSaved=  11.
 NSaved=11 IEnMin=11 EnMin= -633.744423899334     IErMin=11 ErrMin= 5.20D-07
 ErrMax= 5.20D-07  0.00D+00 EMaxC= 1.00D-01 BMatC= 1.81D-10 BMatP= 1.18D-09
 IDIUse=1 WtCom= 1.00D+00 WtEn= 0.00D+00
 Coeff-Com: -0.171D-04 0.353D-04 0.216D-03 0.356D-03 0.531D-03-0.142D-02
 Coeff-Com: -0.137D-01-0.225D-01 0.352D-01 0.334D+00 0.667D+00
 Coeff:     -0.171D-04 0.353D-04 0.216D-03 0.356D-03 0.531D-03-0.142D-02
 Coeff:     -0.137D-01-0.225D-01 0.352D-01 0.334D+00 0.667D+00
 Gap=     0.250 Goal=   None    Shift=    0.000
 RMSDP=8.17D-08 MaxDP=1.02D-05 DE=-1.17D-09 OVMax= 3.66D-06

 Cycle  12  Pass 1  IDiag  1:
 RMSU=  4.19D-08    CP:  8.42D-01  6.66D-01  1.03D+00  8.78D-01  9.25D-01
                    CP:  1.16D+00  9.86D-01  9.60D-01  1.24D+00  1.11D+00
                    CP:  1.13D+00
 E= -633.744423899519     Delta-E=       -0.000000000185 Rises=F Damp=F
 DIIS: error= 1.22D-07 at cycle  12 NSaved=  12.
 NSaved=12 IEnMin=12 EnMin= -633.744423899519     IErMin=12 ErrMin= 1.22D-07
 ErrMax= 1.22D-07  0.00D+00 EMaxC= 1.00D-01 BMatC= 9.64D-12 BMatP= 1.81D-10
 IDIUse=1 WtCom= 1.00D+00 WtEn= 0.00D+00
 Coeff-Com: -0.369D-05 0.740D-05 0.572D-04 0.108D-03 0.251D-03-0.169D-05
 Coeff-Com: -0.277D-02-0.683D-02-0.126D-01 0.397D-01 0.194D+00 0.788D+00
 Coeff:     -0.369D-05 0.740D-05 0.572D-04 0.108D-03 0.251D-03-0.169D-05
 Coeff:     -0.277D-02-0.683D-02-0.126D-01 0.397D-01 0.194D+00 0.788D+00
 Gap=     0.250 Goal=   None    Shift=    0.000
 RMSDP=2.49D-08 MaxDP=2.33D-06 DE=-1.85D-10 OVMax= 1.59D-06

 Cycle  13  Pass 1  IDiag  1:
 RMSU=  1.51D-08    CP:  8.42D-01  6.66D-01  1.03D+00  8.78D-01  9.25D-01
                    CP:  1.16D+00  9.86D-01  9.60D-01  1.25D+00  1.13D+00
                    CP:  1.15D+00  9.76D-01
 E= -633.744423899509     Delta-E=        0.000000000010 Rises=F Damp=F
 DIIS: error= 6.12D-08 at cycle  13 NSaved=  13.
 NSaved=13 IEnMin=12 EnMin= -633.744423899519     IErMin=13 ErrMin= 6.12D-08
 ErrMax= 6.12D-08  0.00D+00 EMaxC= 1.00D-01 BMatC= 2.21D-12 BMatP= 9.64D-12
 IDIUse=1 WtCom= 1.00D+00 WtEn= 0.00D+00
 Coeff-Com:  0.143D-05-0.280D-05-0.115D-04-0.151D-04 0.204D-04 0.210D-03
 Coeff-Com:  0.940D-03 0.621D-03-0.104D-01-0.335D-01-0.311D-01 0.312D+00
 Coeff-Com:  0.761D+00
 Coeff:      0.143D-05-0.280D-05-0.115D-04-0.151D-04 0.204D-04 0.210D-03
 Coeff:      0.940D-03 0.621D-03-0.104D-01-0.335D-01-0.311D-01 0.312D+00
 Coeff:      0.761D+00
 Gap=     0.250 Goal=   None    Shift=    0.000
 RMSDP=1.04D-08 MaxDP=1.18D-06 DE= 1.02D-11 OVMax= 7.83D-07

 Cycle  14  Pass 1  IDiag  1:
 RMSU=  5.52D-09    CP:  8.42D-01  6.66D-01  1.03D+00  8.78D-01  9.25D-01
                    CP:  1.16D+00  9.86D-01  9.60D-01  1.25D+00  1.13D+00
                    CP:  1.18D+00  1.07D+00  1.10D+00
 E= -633.744423899552     Delta-E=       -0.000000000044 Rises=F Damp=F
 DIIS: error= 1.30D-08 at cycle  14 NSaved=  14.
 NSaved=14 IEnMin=14 EnMin= -633.744423899552     IErMin=14 ErrMin= 1.30D-08
 ErrMax= 1.30D-08  0.00D+00 EMaxC= 1.00D-01 BMatC= 1.35D-13 BMatP= 2.21D-12
 IDIUse=1 WtCom= 1.00D+00 WtEn= 0.00D+00
 Coeff-Com:  0.659D-06-0.136D-05-0.758D-05-0.132D-04-0.168D-04 0.417D-04
 Coeff-Com:  0.478D-03 0.811D-03-0.650D-03-0.113D-01-0.279D-01-0.204D-01
 Coeff-Com:  0.167D+00 0.892D+00
 Coeff:      0.659D-06-0.136D-05-0.758D-05-0.132D-04-0.168D-04 0.417D-04
 Coeff:      0.478D-03 0.811D-03-0.650D-03-0.113D-01-0.279D-01-0.204D-01
 Coeff:      0.167D+00 0.892D+00
 Gap=     0.250 Goal=   None    Shift=    0.000
 RMSDP=3.58D-09 MaxDP=4.65D-07 DE=-4.37D-11 OVMax= 3.67D-07

 SCF Done:  E(RM062X) =  -633.744423900     A.U. after   14 cycles
            NFock= 14  Conv=0.36D-08     -V/T= 2.0043
 KE= 6.310520492411D+02 PE=-3.159706986463D+03 EE= 1.056651592030D+03
 Leave Link  502 at Mon Feb 20 00:34:59 2023, MaxMem=  6710886400 cpu:            1807.8 elap:              75.6
 (Enter /data0/home/software/g16/l601.exe)
 Copying SCF densities to generalized density rwf, IOpCl= 0 IROHF=0.

 **********************************************************************

            Population analysis using the SCF density.

 **********************************************************************

 Alpha  occ. eigenvalues --  -19.60781 -19.59595 -19.52237 -19.52015 -14.91535
 Alpha  occ. eigenvalues --  -10.63780 -10.62830 -10.61343 -10.61167 -10.58437
 Alpha  occ. eigenvalues --  -10.55350 -10.51410  -1.16052  -1.12391  -1.11708
 Alpha  occ. eigenvalues --   -1.10333  -1.01803  -0.90661  -0.87883  -0.86574
 Alpha  occ. eigenvalues --   -0.82135  -0.74752  -0.69544  -0.63418  -0.62734
 Alpha  occ. eigenvalues --   -0.61396  -0.59637  -0.58769  -0.56162  -0.54428
 Alpha  occ. eigenvalues --   -0.53872  -0.51327  -0.51226  -0.49930  -0.49673
 Alpha  occ. eigenvalues --   -0.48945  -0.48801  -0.47834  -0.46870  -0.45755
 Alpha  occ. eigenvalues --   -0.44707  -0.43682  -0.42101  -0.40524  -0.39228
 Alpha  occ. eigenvalues --   -0.38278  -0.37367  -0.28114  -0.27202  -0.27127
 Alpha virt. eigenvalues --   -0.02145  -0.00112   0.00630   0.01415   0.02150
 Alpha virt. eigenvalues --    0.03003   0.03796   0.03945   0.04929   0.05160
 Alpha virt. eigenvalues --    0.07240   0.07601   0.08202   0.08457   0.08594
 Alpha virt. eigenvalues --    0.09052   0.10381   0.10895   0.11140   0.11564
 Alpha virt. eigenvalues --    0.12199   0.12409   0.12972   0.13694   0.13844
 Alpha virt. eigenvalues --    0.14123   0.15014   0.15338   0.16046   0.16570
 Alpha virt. eigenvalues --    0.16866   0.17531   0.17657   0.18680   0.19381
 Alpha virt. eigenvalues --    0.19617   0.19905   0.20597   0.20863   0.21416
 Alpha virt. eigenvalues --    0.22214   0.22297   0.22768   0.24040   0.24185
 Alpha virt. eigenvalues --    0.24513   0.25346   0.25603   0.25933   0.26005
 Alpha virt. eigenvalues --    0.27159   0.27704   0.28360   0.29183   0.29482
 Alpha virt. eigenvalues --    0.29662   0.30743   0.30880   0.31767   0.32440
 Alpha virt. eigenvalues --    0.33310   0.33759   0.35269   0.35802   0.36441
 Alpha virt. eigenvalues --    0.36686   0.37403   0.37585   0.38828   0.39659
 Alpha virt. eigenvalues --    0.40128   0.41829   0.42353   0.43090   0.43771
 Alpha virt. eigenvalues --    0.45084   0.46361   0.48426   0.49585   0.50090
 Alpha virt. eigenvalues --    0.50821   0.51616   0.52405   0.53901   0.54344
 Alpha virt. eigenvalues --    0.55094   0.56198   0.57011   0.57420   0.58149
 Alpha virt. eigenvalues --    0.58547   0.59724   0.60363   0.60749   0.61494
 Alpha virt. eigenvalues --    0.62084   0.62800   0.62926   0.63774   0.65471
 Alpha virt. eigenvalues --    0.65789   0.66638   0.67277   0.67817   0.68217
 Alpha virt. eigenvalues --    0.68646   0.69990   0.70543   0.72179   0.73275
 Alpha virt. eigenvalues --    0.73616   0.74788   0.75283   0.75448   0.76138
 Alpha virt. eigenvalues --    0.78178   0.78876   0.79811   0.80743   0.81558
 Alpha virt. eigenvalues --    0.82763   0.84561   0.86307   0.86895   0.87786
 Alpha virt. eigenvalues --    0.89727   0.91527   0.93421   0.94800   0.95493
 Alpha virt. eigenvalues --    0.96484   0.99971   1.01433   1.03100   1.04674
 Alpha virt. eigenvalues --    1.07667   1.08867   1.10511   1.10637   1.12592
 Alpha virt. eigenvalues --    1.13830   1.15353   1.15506   1.16569   1.17381
 Alpha virt. eigenvalues --    1.18057   1.18612   1.19651   1.19941   1.20107
 Alpha virt. eigenvalues --    1.22327   1.22989   1.23534   1.24323   1.24862
 Alpha virt. eigenvalues --    1.26216   1.27815   1.28953   1.29770   1.30843
 Alpha virt. eigenvalues --    1.31132   1.32279   1.32791   1.33467   1.35433
 Alpha virt. eigenvalues --    1.36232   1.37495   1.38614   1.39415   1.41501
 Alpha virt. eigenvalues --    1.42379   1.42605   1.43421   1.45886   1.46790
 Alpha virt. eigenvalues --    1.47159   1.47785   1.48558   1.51333   1.52475
 Alpha virt. eigenvalues --    1.55090   1.55996   1.57930   1.59042   1.59866
 Alpha virt. eigenvalues --    1.63830   1.64652   1.66768   1.70342   1.71429
 Alpha virt. eigenvalues --    1.73642   1.74073   1.75957   1.77556   1.78074
 Alpha virt. eigenvalues --    1.78817   1.79260   1.80157   1.81479   1.82030
 Alpha virt. eigenvalues --    1.82710   1.83599   1.85091   1.86606   1.88838
 Alpha virt. eigenvalues --    1.89103   1.89684   1.90980   1.92895   1.95169
 Alpha virt. eigenvalues --    1.96702   1.97360   1.99654   2.01097   2.03937
 Alpha virt. eigenvalues --    2.05719   2.08120   2.10081   2.10984   2.12407
 Alpha virt. eigenvalues --    2.14010   2.16146   2.17024   2.18261   2.20933
 Alpha virt. eigenvalues --    2.21670   2.23698   2.23862   2.25007   2.26066
 Alpha virt. eigenvalues --    2.27021   2.29023   2.29630   2.33021   2.33533
 Alpha virt. eigenvalues --    2.34939   2.35062   2.36401   2.36830   2.37330
 Alpha virt. eigenvalues --    2.37652   2.38609   2.40245   2.41843   2.42478
 Alpha virt. eigenvalues --    2.43896   2.45704   2.46168   2.47224   2.49737
 Alpha virt. eigenvalues --    2.50987   2.54908   2.55646   2.59328   2.62483
 Alpha virt. eigenvalues --    2.64686   2.64950   2.67372   2.67824   2.69419
 Alpha virt. eigenvalues --    2.70896   2.73537   2.74998   2.77934   2.80402
 Alpha virt. eigenvalues --    2.81311   2.82811   2.85857   2.88442   2.92677
 Alpha virt. eigenvalues --    2.94238   2.99954   3.00541   3.02412   3.03420
 Alpha virt. eigenvalues --    3.05199   3.07152   3.09997   3.10556   3.14774
 Alpha virt. eigenvalues --    3.15663   3.17363   3.18426   3.19580   3.20982
 Alpha virt. eigenvalues --    3.21917   3.25226   3.30769   3.33265   3.34515
 Alpha virt. eigenvalues --    3.35052   3.37322   3.38023   3.38779   3.41460
 Alpha virt. eigenvalues --    3.42586   3.43707   3.47429   3.50382   3.52188
 Alpha virt. eigenvalues --    3.55772   3.57125   3.58670   3.60661   3.61480
 Alpha virt. eigenvalues --    3.62581   3.63390   3.66266   3.66810   3.67739
 Alpha virt. eigenvalues --    3.68455   3.69610   3.72352   3.72955   3.76274
 Alpha virt. eigenvalues --    3.78787   3.80423   3.83623   3.84505   3.87654
 Alpha virt. eigenvalues --    3.90144   3.92178   4.00288   4.04328   4.11555
 Alpha virt. eigenvalues --    4.13924   4.14653   4.14981   4.17327   4.18295
 Alpha virt. eigenvalues --    4.20466   4.26814   4.28571   4.39520   4.44001
 Alpha virt. eigenvalues --    4.55205   4.77625   4.79872   4.82753   5.19266
 Alpha virt. eigenvalues --    5.20288   5.22168   5.24506   5.33665   5.36047
 Alpha virt. eigenvalues --    5.42428   5.45603   5.48129   5.49579   5.51933
 Alpha virt. eigenvalues --    5.60058   5.63096   5.96267   5.99242   6.00385
 Alpha virt. eigenvalues --    6.28154   6.82659   6.84520   6.86192   6.91239
 Alpha virt. eigenvalues --    6.92659   6.93583   6.94821   6.96211   6.97646
 Alpha virt. eigenvalues --    6.98631   7.00185   7.05433   7.13736   7.17014
 Alpha virt. eigenvalues --    7.19263   7.21179   7.23846   7.32262   7.37806
 Alpha virt. eigenvalues --    7.42813  23.95013  23.99016  24.05347  24.07600
 Alpha virt. eigenvalues --   24.08935  24.11898  24.27663  35.51349  50.05837
 Alpha virt. eigenvalues --   50.08457  50.21392  50.24805
          Condensed to atoms (all electrons):
               1          2          3          4          5          6
     1  C    5.638347   0.405290   0.381359   0.414009  -0.189135   0.022702
     2  H    0.405290   0.474787  -0.018033  -0.019263   0.020417  -0.000316
     3  H    0.381359  -0.018033   0.466037  -0.018576  -0.016694   0.000081
     4  H    0.414009  -0.019263  -0.018576   0.420937  -0.014137   0.000004
     5  C   -0.189135   0.020417  -0.016694  -0.014137   5.610311   0.407658
     6  H    0.022702  -0.000316   0.000081   0.000004   0.407658   0.447912
     7  H   -0.013795   0.000025  -0.000148   0.001634   0.413798  -0.017798
     8  H   -0.021202   0.000182  -0.000157   0.000143   0.398712  -0.020075
     9  C   -0.134815  -0.004685  -0.016584   0.017936  -0.177989  -0.007539
    10  H    0.024114   0.000339   0.000019  -0.000209  -0.012145   0.000948
    11  H   -0.022042  -0.000223  -0.001578   0.000003  -0.015710  -0.000195
    12  H   -0.014591   0.001425   0.000261   0.000371   0.016313   0.000252
    13  C   -0.552998  -0.005696   0.048028  -0.029804  -0.227624  -0.064746
    14  H   -0.005646  -0.000549   0.000186   0.003553  -0.018317  -0.000110
    15  H    0.007171   0.004389   0.000233   0.000957   0.000537   0.000010
    16  C    0.019661  -0.010055   0.001612  -0.002020   0.022888   0.022919
    17  H    0.015560   0.000073   0.000001   0.000067  -0.018347  -0.000413
    18  H   -0.005690   0.000020  -0.000006   0.000036   0.001025  -0.001303
    19  C   -0.036291   0.000867   0.000720   0.002129  -0.054683  -0.002126
    20  H   -0.000040  -0.000001  -0.000000   0.000002   0.000612   0.000023
    21  H    0.002024  -0.000003  -0.000001  -0.000000  -0.000209   0.000007
    22  N    0.415327  -0.035777  -0.029342  -0.009424   0.207111  -0.006785
    23  C    0.039930  -0.001393  -0.000018   0.001440  -0.025795   0.002681
    24  O   -0.011155  -0.000862  -0.000152  -0.000045   0.008321  -0.000150
    25  O    0.002283   0.000226  -0.000001   0.000041  -0.000269   0.000015
    26  O    0.004300  -0.000089  -0.000010   0.000024  -0.002526   0.000006
    27  H   -0.000422   0.000101   0.000007   0.000003   0.000458  -0.000003
    28  H   -0.000440   0.000001   0.000000  -0.000006   0.000115   0.000000
    29  O   -0.063439   0.000861   0.002691  -0.012740  -0.014232   0.000043
    30  H    0.007052   0.003740  -0.000103   0.000771   0.000493  -0.000007
    31  H   -0.002897   0.000073   0.000035   0.001451   0.004072  -0.000009
               7          8          9         10         11         12
     1  C   -0.013795  -0.021202  -0.134815   0.024114  -0.022042  -0.014591
     2  H    0.000025   0.000182  -0.004685   0.000339  -0.000223   0.001425
     3  H   -0.000148  -0.000157  -0.016584   0.000019  -0.001578   0.000261
     4  H    0.001634   0.000143   0.017936  -0.000209   0.000003   0.000371
     5  C    0.413798   0.398712  -0.177989  -0.012145  -0.015710   0.016313
     6  H   -0.017798  -0.020075  -0.007539   0.000948  -0.000195   0.000252
     7  H    0.440711  -0.019533   0.016429  -0.000024   0.000241  -0.000220
     8  H   -0.019533   0.460643  -0.024037   0.000329  -0.000568   0.000243
     9  C    0.016429  -0.024037   5.668228   0.408790   0.371915   0.427110
    10  H   -0.000024   0.000329   0.408790   0.414441  -0.018115  -0.012155
    11  H    0.000241  -0.000568   0.371915  -0.018115   0.471188  -0.019891
    12  H   -0.000220   0.000243   0.427110  -0.012155  -0.019891   0.404133
    13  C   -0.008993   0.047792  -0.247284  -0.037849   0.060854  -0.038955
    14  H   -0.000143  -0.000011   0.011462  -0.000007  -0.000127   0.000285
    15  H    0.000420  -0.000390   0.009636   0.000466  -0.000106   0.000648
    16  C   -0.009536   0.003557  -0.205759  -0.010957   0.001330   0.002736
    17  H    0.000408  -0.000395  -0.016078   0.003671  -0.000332   0.000287
    18  H    0.000276   0.000023   0.007176   0.000393  -0.000028  -0.000078
    19  C   -0.003065   0.003391   0.045834   0.001637  -0.001980   0.005724
    20  H   -0.000002  -0.000003   0.000869  -0.000050   0.000002   0.000022
    21  H    0.000016  -0.000002  -0.002049   0.000012   0.000001  -0.000013
    22  N   -0.016558  -0.030254   0.276216  -0.012211  -0.022324  -0.014365
    23  C    0.000278  -0.000440   0.020851   0.008701  -0.002102   0.000116
    24  O    0.000076  -0.000020  -0.052498   0.003032   0.004123  -0.010029
    25  O   -0.000003  -0.000002   0.003776   0.000111  -0.000047   0.000555
    26  O    0.000025   0.000001   0.001231  -0.000005   0.000007   0.000005
    27  H   -0.000006  -0.000000  -0.000153   0.000011  -0.000004   0.000060
    28  H   -0.000000   0.000000   0.000077  -0.000001  -0.000000  -0.000006
    29  O   -0.000202  -0.000002   0.009194   0.000187   0.000007  -0.000565
    30  H    0.000003  -0.000007   0.000581  -0.000024  -0.000005  -0.000025
    31  H   -0.000013  -0.000001  -0.000786  -0.000021  -0.000003   0.000044
              13         14         15         16         17         18
     1  C   -0.552998  -0.005646   0.007171   0.019661   0.015560  -0.005690
     2  H   -0.005696  -0.000549   0.004389  -0.010055   0.000073   0.000020
     3  H    0.048028   0.000186   0.000233   0.001612   0.000001  -0.000006
     4  H   -0.029804   0.003553   0.000957  -0.002020   0.000067   0.000036
     5  C   -0.227624  -0.018317   0.000537   0.022888  -0.018347   0.001025
     6  H   -0.064746  -0.000110   0.000010   0.022919  -0.000413  -0.001303
     7  H   -0.008993  -0.000143   0.000420  -0.009536   0.000408   0.000276
     8  H    0.047792  -0.000011  -0.000390   0.003557  -0.000395   0.000023
     9  C   -0.247284   0.011462   0.009636  -0.205759  -0.016078   0.007176
    10  H   -0.037849  -0.000007   0.000466  -0.010957   0.003671   0.000393
    11  H    0.060854  -0.000127  -0.000106   0.001330  -0.000332  -0.000028
    12  H   -0.038955   0.000285   0.000648   0.002736   0.000287  -0.000078
    13  C    7.807080   0.323282   0.427936  -0.774030  -0.202710   0.018604
    14  H    0.323282   0.448077  -0.028629   0.006840   0.003916  -0.010392
    15  H    0.427936  -0.028629   0.517903  -0.098245   0.000484   0.006196
    16  C   -0.774030   0.006840  -0.098245   7.018792   0.507239   0.327450
    17  H   -0.202710   0.003916   0.000484   0.507239   0.527395  -0.039095
    18  H    0.018604  -0.010392   0.006196   0.327450  -0.039095   0.532766
    19  C    0.157080   0.009821  -0.009586  -0.463676  -0.049146   0.022941
    20  H    0.053952  -0.000151   0.000951  -0.030702  -0.008211  -0.002489
    21  H   -0.027370  -0.000277  -0.000431  -0.060809   0.005998  -0.006062
    22  N   -0.365186   0.024892  -0.050447   0.074960   0.087220  -0.026062
    23  C   -0.369128   0.015834   0.028960  -0.113943   0.037055   0.008530
    24  O    0.129440  -0.000071  -0.010543   0.011440  -0.012707   0.001959
    25  O    0.002937   0.000083   0.013114   0.015856  -0.000894  -0.001610
    26  O   -0.012971   0.001266   0.012366   0.011639  -0.000088   0.000096
    27  H    0.000488  -0.000465   0.002678  -0.005363  -0.000002  -0.000101
    28  H    0.001564  -0.000006  -0.001597  -0.001145   0.000007  -0.000023
    29  O    0.047068  -0.019232   0.019897  -0.004042  -0.000114   0.000050
    30  H    0.004486   0.000395   0.002443  -0.005403  -0.000007   0.000006
    31  H    0.010324   0.005173  -0.007156   0.005991  -0.000030  -0.000079
              19         20         21         22         23         24
     1  C   -0.036291  -0.000040   0.002024   0.415327   0.039930  -0.011155
     2  H    0.000867  -0.000001  -0.000003  -0.035777  -0.001393  -0.000862
     3  H    0.000720  -0.000000  -0.000001  -0.029342  -0.000018  -0.000152
     4  H    0.002129   0.000002  -0.000000  -0.009424   0.001440  -0.000045
     5  C   -0.054683   0.000612  -0.000209   0.207111  -0.025795   0.008321
     6  H   -0.002126   0.000023   0.000007  -0.006785   0.002681  -0.000150
     7  H   -0.003065  -0.000002   0.000016  -0.016558   0.000278   0.000076
     8  H    0.003391  -0.000003  -0.000002  -0.030254  -0.000440  -0.000020
     9  C    0.045834   0.000869  -0.002049   0.276216   0.020851  -0.052498
    10  H    0.001637  -0.000050   0.000012  -0.012211   0.008701   0.003032
    11  H   -0.001980   0.000002   0.000001  -0.022324  -0.002102   0.004123
    12  H    0.005724   0.000022  -0.000013  -0.014365   0.000116  -0.010029
    13  C    0.157080   0.053952  -0.027370  -0.365186  -0.369128   0.129440
    14  H    0.009821  -0.000151  -0.000277   0.024892   0.015834  -0.000071
    15  H   -0.009586   0.000951  -0.000431  -0.050447   0.028960  -0.010543
    16  C   -0.463676  -0.030702  -0.060809   0.074960  -0.113943   0.011440
    17  H   -0.049146  -0.008211   0.005998   0.087220   0.037055  -0.012707
    18  H    0.022941  -0.002489  -0.006062  -0.026062   0.008530   0.001959
    19  C    6.099195   0.387541   0.487591  -0.079624   0.068004  -0.115430
    20  H    0.387541   0.519441  -0.028348  -0.002058  -0.064049  -0.005229
    21  H    0.487591  -0.028348   0.482996   0.003869  -0.032317   0.004363
    22  N   -0.079624  -0.002058   0.003869   6.885997   0.086032  -0.054126
    23  C    0.068004  -0.064049  -0.032317   0.086032   5.359099   0.319867
    24  O   -0.115430  -0.005229   0.004363  -0.054126   0.319867   8.453735
    25  O   -0.110768   0.007607  -0.014252  -0.004146   0.405229  -0.088635
    26  O   -0.015924   0.000036  -0.005013  -0.008369   0.005875   0.004935
    27  H    0.012052   0.000416  -0.000137   0.001824  -0.005201  -0.004683
    28  H    0.001716  -0.000049   0.000455   0.000543  -0.000275  -0.000078
    29  O    0.013624  -0.000080  -0.000434  -0.038897  -0.022156  -0.001576
    30  H   -0.000305   0.000005  -0.000013  -0.001343  -0.000485   0.000241
    31  H    0.000516   0.000034  -0.000089   0.005957  -0.001208   0.000139
              25         26         27         28         29         30
     1  C    0.002283   0.004300  -0.000422  -0.000440  -0.063439   0.007052
     2  H    0.000226  -0.000089   0.000101   0.000001   0.000861   0.003740
     3  H   -0.000001  -0.000010   0.000007   0.000000   0.002691  -0.000103
     4  H    0.000041   0.000024   0.000003  -0.000006  -0.012740   0.000771
     5  C   -0.000269  -0.002526   0.000458   0.000115  -0.014232   0.000493
     6  H    0.000015   0.000006  -0.000003   0.000000   0.000043  -0.000007
     7  H   -0.000003   0.000025  -0.000006  -0.000000  -0.000202   0.000003
     8  H   -0.000002   0.000001  -0.000000   0.000000  -0.000002  -0.000007
     9  C    0.003776   0.001231  -0.000153   0.000077   0.009194   0.000581
    10  H    0.000111  -0.000005   0.000011  -0.000001   0.000187  -0.000024
    11  H   -0.000047   0.000007  -0.000004  -0.000000   0.000007  -0.000005
    12  H    0.000555   0.000005   0.000060  -0.000006  -0.000565  -0.000025
    13  C    0.002937  -0.012971   0.000488   0.001564   0.047068   0.004486
    14  H    0.000083   0.001266  -0.000465  -0.000006  -0.019232   0.000395
    15  H    0.013114   0.012366   0.002678  -0.001597   0.019897   0.002443
    16  C    0.015856   0.011639  -0.005363  -0.001145  -0.004042  -0.005403
    17  H   -0.000894  -0.000088  -0.000002   0.000007  -0.000114  -0.000007
    18  H   -0.001610   0.000096  -0.000101  -0.000023   0.000050   0.000006
    19  C   -0.110768  -0.015924   0.012052   0.001716   0.013624  -0.000305
    20  H    0.007607   0.000036   0.000416  -0.000049  -0.000080   0.000005
    21  H   -0.014252  -0.005013  -0.000137   0.000455  -0.000434  -0.000013
    22  N   -0.004146  -0.008369   0.001824   0.000543  -0.038897  -0.001343
    23  C    0.405229   0.005875  -0.005201  -0.000275  -0.022156  -0.000485
    24  O   -0.088635   0.004935  -0.004683  -0.000078  -0.001576   0.000241
    25  O    8.284334  -0.076567   0.107282   0.004375  -0.000489  -0.000014
    26  O   -0.076567   8.328584   0.207450   0.260858   0.013392   0.000569
    27  H    0.107282   0.207450   0.334613  -0.009786  -0.006440  -0.000964
    28  H    0.004375   0.260858  -0.009786   0.437722  -0.000207  -0.001037
    29  O   -0.000489   0.013392  -0.006440  -0.000207   7.998248   0.328287
    30  H   -0.000014   0.000569  -0.000964  -0.001037   0.328287   0.444671
    31  H   -0.000366  -0.030159   0.008628  -0.002275   0.322800  -0.029053
              31
     1  C   -0.002897
     2  H    0.000073
     3  H    0.000035
     4  H    0.001451
     5  C    0.004072
     6  H   -0.000009
     7  H   -0.000013
     8  H   -0.000001
     9  C   -0.000786
    10  H   -0.000021
    11  H   -0.000003
    12  H    0.000044
    13  C    0.010324
    14  H    0.005173
    15  H   -0.007156
    16  C    0.005991
    17  H   -0.000030
    18  H   -0.000079
    19  C    0.000516
    20  H    0.000034
    21  H   -0.000089
    22  N    0.005957
    23  C   -0.001208
    24  O    0.000139
    25  O   -0.000366
    26  O   -0.030159
    27  H    0.008628
    28  H   -0.002275
    29  O    0.322800
    30  H   -0.029053
    31  H    0.328987
 Mulliken charges:
               1
     1  C   -0.324531
     2  H    0.184129
     3  H    0.200133
     4  H    0.240718
     5  C   -0.325033
     6  H    0.216313
     7  H    0.215698
     8  H    0.202082
     9  C   -0.407054
    10  H    0.236575
    11  H    0.195712
    12  H    0.250304
    13  C   -0.175570
    14  H    0.229068
    15  H    0.149735
    16  C   -0.259222
    17  H    0.159187
    18  H    0.165472
    19  C   -0.377781
    20  H    0.169947
    21  H    0.190498
    22  N   -0.262650
    23  C    0.230025
    24  O   -0.573678
    25  O   -0.549762
    26  O   -0.700944
    27  H    0.357659
    28  H    0.309500
    29  O   -0.571503
    30  H    0.245052
    31  H    0.379921
 Sum of Mulliken charges =  -0.00000
 Mulliken charges with hydrogens summed into heavy atoms:
               1
     1  C    0.300448
     5  C    0.309060
     9  C    0.275538
    13  C    0.203233
    16  C    0.065437
    19  C   -0.017336
    22  N   -0.262650
    23  C    0.230025
    24  O   -0.573678
    25  O   -0.549762
    26  O   -0.033784
    29  O    0.053470
         Mulliken charges condensed to fragments:
      1     -0.019686
      2     -0.033784
      3      0.053470
 Electronic spatial extent (au):  <R**2>=         232796.6237
 Charge=              0.0000 electrons
 Dipole moment (field-independent basis, Debye):
    X=              1.4117    Y=              3.2780    Z=             10.8160  Tot=             11.3896
 Quadrupole moment (field-independent basis, Debye-Ang):
   XX=            -36.5516   YY=             42.9688   ZZ=            202.0674
   XY=             62.9218   XZ=            159.5776   YZ=            249.9876
 Traceless Quadrupole moment (field-independent basis, Debye-Ang):
   XX=           -106.0465   YY=            -26.5261   ZZ=            132.5726
   XY=             62.9218   XZ=            159.5776   YZ=            249.9876
 Octapole moment (field-independent basis, Debye-Ang**2):
  XXX=          -1958.9844  YYY=           -840.2660  ZZZ=           2388.7978  XYY=            892.5409
  XXY=           -217.8890  XXZ=           1347.8500  XZZ=           2939.6647  YZZ=           4558.6415
  YYZ=           4476.3154  XYZ=           3520.1657
 Hexadecapole moment (field-independent basis, Debye-Ang**3):
 XXXX=         -53308.7879 YYYY=         -68610.5239 ZZZZ=          12855.6568 XXXY=         -30030.8438
 XXXZ=          -2331.4303 YYYX=          -4448.0131 YYYZ=          62199.9783 ZZZX=          36595.2991
 ZZZY=          58043.3736 XXYY=          -7446.4979 XXZZ=          28978.8372 YYZZ=          84369.0114
 XXYZ=          31965.6890 YYXZ=          62548.1367 ZZXY=          63864.9756
 N-N= 8.382589212929D+02 E-N=-3.159706986734D+03  KE= 6.310520492411D+02
 No NMR shielding tensors so no spin-rotation constants.
 Leave Link  601 at Mon Feb 20 00:34:59 2023, MaxMem=  6710886400 cpu:               3.2 elap:               0.2
 (Enter /data0/home/software/g16/l122.exe)
 CPIOFr:  IOpCl= 0 IRwI=-1 IRwCP=  731 ICalc= -1 LCPTot=      297970 Len1MO=      777042 IndFrg=      297970
 CPIOFr:  IOpCl= 0 IRwI=-1 IRwCP=  731 ICalc=  0 LCPTot=      297970 Len1MO=      777042 IndFrg=     1075012
 Counterpoise: doing calculation for fragment   1 using the basis set of the full-system, NewBq=T
 Leave Link  122 at Mon Feb 20 00:34:59 2023, MaxMem=  6710886400 cpu:               0.3 elap:               0.0
 (Enter /data0/home/software/g16/l301.exe)
 Basis read from rwf:  (5D, 7F)
 No pseudopotential information found on rwf file.
   438 basis functions,   656 primitive gaussians,   462 cartesian basis functions
    40 alpha electrons       40 beta electrons
       nuclear repulsion energy       590.6435284880 Hartrees.
 IExCor= 4336 DFT=T Ex+Corr=M062X ExCW=0 ScaHFX=  0.540000
 ScaDFX=  1.000000  1.000000  1.000000  1.000000 ScalE2=  1.000000  1.000000
 IRadAn=      5 IRanWt=     -1 IRanGd=            0 ICorTp=0 IEmpDi=131
 NAtoms=   31 NActive=   31 NUniq=   31 SFac= 1.00D+00 NAtFMM=   60 NAOKFM=F Big=F
 Integral buffers will be    131072 words long.
 Raffenetti 2 integral format.
 Two-electron integral symmetry is turned off.
 R6Disp:  Grimme-D3 Dispersion energy=       -0.0010165983 Hartrees.
 Nuclear repulsion after empirical dispersion term =      590.6425118898 Hartrees.
 No density basis found on file   718.
 Leave Link  301 at Mon Feb 20 00:34:59 2023, MaxMem=  6710886400 cpu:               1.3 elap:               0.1
 (Enter /data0/home/software/g16/l302.exe)
 NPDir=0 NMtPBC=     1 NCelOv=     1 NCel=       1 NClECP=     1 NCelD=      1
         NCelK=      1 NCelE2=     1 NClLst=     1 CellRange=     0.0.
 One-electron integrals computed using PRISM.
 NBasis=   438 RedAO= T EigKep=  6.49D-06  NBF=   438
 NBsUse=   438 1.00D-06 EigRej= -1.00D+00 NBFU=   438
 Precomputing XC quadrature grid using
 IXCGrd= 4 IRadAn=           5 IRanWt=          -1 IRanGd=           0 AccXCQ= 0.00D+00.
 Generated NRdTot=       0 NPtTot=           0 NUsed=           0 NTot=          32
 NSgBfM=   462   462   462   462   462 MxSgAt=    31 MxSgA2=    31.
 Leave Link  302 at Mon Feb 20 00:35:00 2023, MaxMem=  6710886400 cpu:               9.6 elap:               0.4
 (Enter /data0/home/software/g16/l303.exe)
 DipDrv:  MaxL=1.
 Leave Link  303 at Mon Feb 20 00:35:00 2023, MaxMem=  6710886400 cpu:               1.1 elap:               0.1
 (Enter /data0/home/software/g16/l401.exe)
 ExpMin= 4.38D-02 ExpMax= 8.59D+03 ExpMxC= 1.30D+03 IAcc=3 IRadAn=         5 AccDes= 0.00D+00
 Harris functional with IExCor= 1009 and IRadAn=       5 diagonalized for initial guess.
 HarFok:  IExCor= 1009 AccDes= 0.00D+00 IRadAn=         5 IDoV= 1 UseB2=F ITyADJ=14
 ICtDFT=  3500011 ScaDFX=  1.000000  1.000000  1.000000  1.000000
 FoFCou: FMM=F IPFlag=           0 FMFlag=      100000 FMFlg1=           0
         NFxFlg=           0 DoJE=T BraDBF=F KetDBF=T FulRan=T
         wScrn=  0.000000 ICntrl=       500 IOpCl=  0 I1Cent=   200000004 NGrid=           0
         NMat0=    1 NMatS0=      1 NMatT0=    0 NMatD0=    1 NMtDS0=    0 NMtDT0=    0
 Symmetry not used in FoFCou.
 Harris En= -480.725539432793    
 JPrj=0 DoOrth=F DoCkMO=F.
 Leave Link  401 at Mon Feb 20 00:35:02 2023, MaxMem=  6710886400 cpu:              42.6 elap:               1.8
 (Enter /data0/home/software/g16/l502.exe)
 Two-electron integral symmetry not used.
 Closed shell SCF:
 Using DIIS extrapolation, IDIIS=  1040.
 NGot=  6710886400 LenX=  6710444981 LenY=  6710231075
 Requested convergence on RMS density matrix=1.00D-08 within 128 cycles.
 Requested convergence on MAX density matrix=1.00D-06.
 Requested convergence on             energy=1.00D-06.
 No special actions if energy rises.
 Fock matrices will be formed incrementally for  20 cycles.

 Cycle   1  Pass 1  IDiag  1:
 FoFJK:  IHMeth= 1 ICntrl=       0 DoSepK=F KAlg= 0 I1Cent=           0 FoldK=F
 IRaf= 920000000 NMat=       1 IRICut=       1 DoRegI=T DoRafI=F ISym2E= 0 IDoP0=0 IntGTp=1.
 FoFCou: FMM=F IPFlag=           0 FMFlag=      100000 FMFlg1=           0
         NFxFlg=           0 DoJE=F BraDBF=F KetDBF=F FulRan=T
         wScrn=  0.000000 ICntrl=         0 IOpCl=  0 I1Cent=           0 NGrid=           0
         NMat0=    1 NMatS0=      1 NMatT0=    0 NMatD0=    1 NMtDS0=    0 NMtDT0=    0
 Symmetry not used in FoFCou.
 E= -480.476081991455    
 DIIS: error= 1.91D-02 at cycle   1 NSaved=   1.
 NSaved= 1 IEnMin= 1 EnMin= -480.476081991455     IErMin= 1 ErrMin= 1.91D-02
 ErrMax= 1.91D-02  0.00D+00 EMaxC= 1.00D-01 BMatC= 4.96D-01 BMatP= 4.96D-01
 IDIUse=3 WtCom= 8.09D-01 WtEn= 1.91D-01
 Coeff-Com:  0.100D+01
 Coeff-En:   0.100D+01
 Coeff:      0.100D+01
 Gap=     0.310 Goal=   None    Shift=    0.000
 GapD=    0.310 DampG=1.000 DampE=0.500 DampFc=0.5000 IDamp=-1.
 Damping current iteration by 5.00D-01
 RMSDP=9.76D-02 MaxDP=9.63D+00              OVMax= 8.89D-01

 Cycle   2  Pass 1  IDiag  1:
 RMSU=  4.87D-02    CP:  1.36D+00
 E= -480.386045972562     Delta-E=        0.090036018893 Rises=F Damp=T
 DIIS: error= 1.05D-02 at cycle   2 NSaved=   2.
 NSaved= 2 IEnMin= 1 EnMin= -480.476081991455     IErMin= 2 ErrMin= 1.05D-02
 ErrMax= 1.05D-02  0.00D+00 EMaxC= 1.00D-01 BMatC= 1.06D-01 BMatP= 4.96D-01
 IDIUse=3 WtCom= 8.95D-01 WtEn= 1.05D-01
 Coeff-Com:  0.213D+00 0.787D+00
 Coeff-En:   0.600D+00 0.400D+00
 Coeff:      0.254D+00 0.746D+00
 Gap=    -0.175 Goal=   None    Shift=    0.000
 RMSDP=4.90D-02 MaxDP=5.11D+00 DE= 9.00D-02 OVMax= 7.29D-01

 Cycle   3  Pass 1  IDiag  1:
 RMSU=  2.94D-03    CP:  8.51D-01  3.72D-04
 E= -480.736294641158     Delta-E=       -0.350248668596 Rises=F Damp=F
 DIIS: error= 1.12D-02 at cycle   3 NSaved=   3.
 NSaved= 3 IEnMin= 3 EnMin= -480.736294641158     IErMin= 2 ErrMin= 1.05D-02
 ErrMax= 1.12D-02  0.00D+00 EMaxC= 1.00D-01 BMatC= 1.32D-01 BMatP= 1.06D-01
 IDIUse=2 WtCom= 0.00D+00 WtEn= 1.00D+00
 Coeff-En:   0.000D+00 0.000D+00 0.100D+01
 Coeff:      0.000D+00 0.000D+00 0.100D+01
 Gap=     0.185 Goal=   None    Shift=    0.000
 RMSDP=7.80D-02 MaxDP=9.45D+00 DE=-3.50D-01 OVMax= 9.67D-01

 Cycle   4  Pass 1  IDiag  1:
 RMSU=  1.84D-02    CP:  1.46D+00  1.55D+00  4.34D-01
 E= -479.022059936741     Delta-E=        1.714234704416 Rises=F Damp=F
 DIIS: error= 3.49D-02 at cycle   4 NSaved=   4.
 NSaved= 4 IEnMin= 3 EnMin= -480.736294641158     IErMin= 2 ErrMin= 1.05D-02
 ErrMax= 3.49D-02  0.00D+00 EMaxC= 1.00D-01 BMatC= 1.19D+00 BMatP= 1.06D-01
 IDIUse=2 WtCom= 0.00D+00 WtEn= 1.00D+00
 Coeff-En:   0.000D+00 0.000D+00 0.927D+00 0.727D-01
 Coeff:      0.000D+00 0.000D+00 0.927D+00 0.727D-01
 Gap=    -0.060 Goal=   None    Shift=    0.000
 RMSDP=7.75D-02 MaxDP=9.23D+00 DE= 1.71D+00 OVMax= 9.56D-01

 Cycle   5  Pass 1  IDiag  1:
 RMSU=  2.93D-03    CP:  8.51D-01  1.35D-02  1.04D+00 -2.01D-03
 E= -480.769372529113     Delta-E=       -1.747312592372 Rises=F Damp=F
 DIIS: error= 1.13D-02 at cycle   5 NSaved=   5.
 NSaved= 5 IEnMin= 5 EnMin= -480.769372529113     IErMin= 2 ErrMin= 1.05D-02
 ErrMax= 1.13D-02  0.00D+00 EMaxC= 1.00D-01 BMatC= 1.13D-01 BMatP= 1.06D-01
 IDIUse=3 WtCom= 8.87D-01 WtEn= 1.13D-01
 Coeff-Com: -0.322D-02 0.113D+00 0.457D+00-0.740D-02 0.440D+00
 Coeff-En:   0.000D+00 0.000D+00 0.423D+00 0.000D+00 0.577D+00
 Coeff:     -0.285D-02 0.100D+00 0.453D+00-0.656D-02 0.456D+00
 Gap=     0.202 Goal=   None    Shift=    0.000
 RMSDP=1.88D-03 MaxDP=2.32D-01 DE=-1.75D+00 OVMax= 9.78D-02

 Cycle   6  Pass 1  IDiag  1:
 RMSU=  9.24D-04    CP:  8.31D-01  3.80D-03  1.12D+00 -6.12D-03  4.74D-01
 E= -480.850372267051     Delta-E=       -0.080999737937 Rises=F Damp=F
 DIIS: error= 1.85D-03 at cycle   6 NSaved=   6.
 NSaved= 6 IEnMin= 6 EnMin= -480.850372267051     IErMin= 6 ErrMin= 1.85D-03
 ErrMax= 1.85D-03  0.00D+00 EMaxC= 1.00D-01 BMatC= 2.47D-03 BMatP= 1.06D-01
 IDIUse=3 WtCom= 9.82D-01 WtEn= 1.85D-02
 Coeff-Com: -0.128D-01 0.231D-01 0.126D+00-0.101D-03 0.189D+00 0.675D+00
 Coeff-En:   0.000D+00 0.000D+00 0.000D+00 0.000D+00 0.000D+00 0.100D+01
 Coeff:     -0.125D-01 0.226D-01 0.123D+00-0.989D-04 0.185D+00 0.681D+00
 Gap=     0.205 Goal=   None    Shift=    0.000
 RMSDP=1.67D-04 MaxDP=9.29D-03 DE=-8.10D-02 OVMax= 1.69D-02

 Cycle   7  Pass 1  IDiag  1:
 RMSU=  1.55D-04    CP:  8.31D-01  3.68D-03  1.12D+00 -5.57D-03  4.93D-01
                    CP:  1.03D+00
 E= -480.852263838258     Delta-E=       -0.001891571207 Rises=F Damp=F
 DIIS: error= 3.65D-04 at cycle   7 NSaved=   7.
 NSaved= 7 IEnMin= 7 EnMin= -480.852263838258     IErMin= 7 ErrMin= 3.65D-04
 ErrMax= 3.65D-04  0.00D+00 EMaxC= 1.00D-01 BMatC= 1.77D-04 BMatP= 2.47D-03
 IDIUse=3 WtCom= 9.96D-01 WtEn= 3.65D-03
 Coeff-Com: -0.433D-02 0.208D-02-0.306D-01 0.152D-02-0.124D-01 0.246D+00
 Coeff-Com:  0.798D+00
 Coeff-En:   0.000D+00 0.000D+00 0.000D+00 0.000D+00 0.000D+00 0.000D+00
 Coeff-En:   0.100D+01
 Coeff:     -0.431D-02 0.207D-02-0.305D-01 0.151D-02-0.124D-01 0.245D+00
 Coeff:      0.799D+00
 Gap=     0.208 Goal=   None    Shift=    0.000
 RMSDP=1.04D-04 MaxDP=1.02D-02 DE=-1.89D-03 OVMax= 3.62D-03

 Cycle   8  Pass 1  IDiag  1:
 RMSU=  7.05D-05    CP:  8.31D-01  3.61D-03  1.12D+00 -6.44D-03  4.99D-01
                    CP:  1.10D+00  1.10D+00
 E= -480.852441687797     Delta-E=       -0.000177849539 Rises=F Damp=F
 DIIS: error= 9.51D-05 at cycle   8 NSaved=   8.
 NSaved= 8 IEnMin= 8 EnMin= -480.852441687797     IErMin= 8 ErrMin= 9.51D-05
 ErrMax= 9.51D-05  0.00D+00 EMaxC= 1.00D-01 BMatC= 9.17D-06 BMatP= 1.77D-04
 IDIUse=1 WtCom= 1.00D+00 WtEn= 0.00D+00
 Coeff-Com: -0.817D-03 0.188D-03-0.145D-01 0.115D-02-0.107D-01 0.401D-01
 Coeff-Com:  0.194D+00 0.791D+00
 Coeff:     -0.817D-03 0.188D-03-0.145D-01 0.115D-02-0.107D-01 0.401D-01
 Coeff:      0.194D+00 0.791D+00
 Gap=     0.208 Goal=   None    Shift=    0.000
 RMSDP=1.93D-05 MaxDP=1.95D-03 DE=-1.78D-04 OVMax= 1.20D-03

 Cycle   9  Pass 1  IDiag  1:
 RMSU=  1.13D-05    CP:  8.31D-01  3.59D-03  1.12D+00 -6.56D-03  4.98D-01
                    CP:  1.12D+00  1.12D+00  1.13D+00
 E= -480.852450836167     Delta-E=       -0.000009148370 Rises=F Damp=F
 DIIS: error= 7.68D-05 at cycle   9 NSaved=   9.
 NSaved= 9 IEnMin= 9 EnMin= -480.852450836167     IErMin= 9 ErrMin= 7.68D-05
 ErrMax= 7.68D-05  0.00D+00 EMaxC= 1.00D-01 BMatC= 3.57D-06 BMatP= 9.17D-06
 IDIUse=1 WtCom= 1.00D+00 WtEn= 0.00D+00
 Coeff-Com: -0.443D-04 0.215D-03-0.405D-02 0.360D-03-0.337D-02-0.143D-01
 Coeff-Com: -0.252D-01 0.398D+00 0.648D+00
 Coeff:     -0.443D-04 0.215D-03-0.405D-02 0.360D-03-0.337D-02-0.143D-01
 Coeff:     -0.252D-01 0.398D+00 0.648D+00
 Gap=     0.208 Goal=   None    Shift=    0.000
 RMSDP=9.10D-06 MaxDP=6.09D-04 DE=-9.15D-06 OVMax= 4.73D-04

 Cycle  10  Pass 1  IDiag  1:
 RMSU=  5.07D-06    CP:  8.31D-01  3.58D-03  1.12D+00 -6.62D-03  4.98D-01
                    CP:  1.12D+00  1.13D+00  1.20D+00  1.09D+00
 E= -480.852454187732     Delta-E=       -0.000003351566 Rises=F Damp=F
 DIIS: error= 1.82D-05 at cycle  10 NSaved=  10.
 NSaved=10 IEnMin=10 EnMin= -480.852454187732     IErMin=10 ErrMin= 1.82D-05
 ErrMax= 1.82D-05  0.00D+00 EMaxC= 1.00D-01 BMatC= 2.36D-07 BMatP= 3.57D-06
 IDIUse=1 WtCom= 1.00D+00 WtEn= 0.00D+00
 Coeff-Com: -0.352D-04 0.162D-03 0.230D-03 0.717D-04 0.302D-03-0.728D-02
 Coeff-Com: -0.293D-01-0.258D-02 0.161D+00 0.878D+00
 Coeff:     -0.352D-04 0.162D-03 0.230D-03 0.717D-04 0.302D-03-0.728D-02
 Coeff:     -0.293D-01-0.258D-02 0.161D+00 0.878D+00
 Gap=     0.208 Goal=   None    Shift=    0.000
 RMSDP=3.84D-06 MaxDP=5.14D-04 DE=-3.35D-06 OVMax= 3.07D-04

 Cycle  11  Pass 1  IDiag  1:
 RMSU=  1.79D-06    CP:  8.31D-01  3.57D-03  1.12D+00 -6.65D-03  4.98D-01
                    CP:  1.12D+00  1.13D+00  1.24D+00  1.24D+00  1.05D+00
 E= -480.852454540598     Delta-E=       -0.000000352866 Rises=F Damp=F
 DIIS: error= 5.33D-06 at cycle  11 NSaved=  11.
 NSaved=11 IEnMin=11 EnMin= -480.852454540598     IErMin=11 ErrMin= 5.33D-06
 ErrMax= 5.33D-06  0.00D+00 EMaxC= 1.00D-01 BMatC= 1.99D-08 BMatP= 2.36D-07
 IDIUse=1 WtCom= 1.00D+00 WtEn= 0.00D+00
 Coeff-Com: -0.407D-04 0.907D-04 0.248D-03 0.232D-05 0.226D-03-0.490D-03
 Coeff-Com: -0.579D-02-0.345D-01-0.189D-01 0.248D+00 0.811D+00
 Coeff:     -0.407D-04 0.907D-04 0.248D-03 0.232D-05 0.226D-03-0.490D-03
 Coeff:     -0.579D-02-0.345D-01-0.189D-01 0.248D+00 0.811D+00
 Gap=     0.208 Goal=   None    Shift=    0.000
 RMSDP=1.01D-06 MaxDP=1.07D-04 DE=-3.53D-07 OVMax= 8.77D-05

 Cycle  12  Pass 1  IDiag  1:
 RMSU=  4.34D-07    CP:  8.31D-01  3.57D-03  1.12D+00 -6.65D-03  4.98D-01
                    CP:  1.12D+00  1.13D+00  1.24D+00  1.27D+00  1.12D+00
                    CP:  1.18D+00
 E= -480.852454571274     Delta-E=       -0.000000030676 Rises=F Damp=F
 DIIS: error= 1.41D-06 at cycle  12 NSaved=  12.
 NSaved=12 IEnMin=12 EnMin= -480.852454571274     IErMin=12 ErrMin= 1.41D-06
 ErrMax= 1.41D-06  0.00D+00 EMaxC= 1.00D-01 BMatC= 2.22D-09 BMatP= 1.99D-08
 IDIUse=1 WtCom= 1.00D+00 WtEn= 0.00D+00
 Coeff-Com: -0.965D-05 0.100D-04 0.504D-04 0.403D-05-0.182D-04 0.729D-03
 Coeff-Com:  0.121D-02-0.841D-02-0.275D-01-0.428D-01 0.236D+00 0.840D+00
 Coeff:     -0.965D-05 0.100D-04 0.504D-04 0.403D-05-0.182D-04 0.729D-03
 Coeff:      0.121D-02-0.841D-02-0.275D-01-0.428D-01 0.236D+00 0.840D+00
 Gap=     0.208 Goal=   None    Shift=    0.000
 RMSDP=4.02D-07 MaxDP=3.46D-05 DE=-3.07D-08 OVMax= 3.18D-05

 Cycle  13  Pass 1  IDiag  1:
 RMSU=  2.06D-07    CP:  8.31D-01  3.57D-03  1.12D+00 -6.66D-03  4.98D-01
                    CP:  1.12D+00  1.13D+00  1.25D+00  1.29D+00  1.14D+00
                    CP:  1.27D+00  1.17D+00
 E= -480.852454575064     Delta-E=       -0.000000003790 Rises=F Damp=F
 DIIS: error= 3.45D-07 at cycle  13 NSaved=  13.
 NSaved=13 IEnMin=13 EnMin= -480.852454575064     IErMin=13 ErrMin= 3.45D-07
 ErrMax= 3.45D-07  0.00D+00 EMaxC= 1.00D-01 BMatC= 1.22D-10 BMatP= 2.22D-09
 IDIUse=1 WtCom= 1.00D+00 WtEn= 0.00D+00
 Coeff-Com:  0.127D-06 0.320D-06-0.838D-05-0.591D-06-0.235D-04 0.216D-03
 Coeff-Com:  0.648D-03 0.116D-02-0.421D-02-0.292D-01-0.263D-01 0.158D+00
 Coeff-Com:  0.899D+00
 Coeff:      0.127D-06 0.320D-06-0.838D-05-0.591D-06-0.235D-04 0.216D-03
 Coeff:      0.648D-03 0.116D-02-0.421D-02-0.292D-01-0.263D-01 0.158D+00
 Coeff:      0.899D+00
 Gap=     0.208 Goal=   None    Shift=    0.000
 RMSDP=1.11D-07 MaxDP=1.34D-05 DE=-3.79D-09 OVMax= 8.61D-06

 Cycle  14  Pass 1  IDiag  1:
 RMSU=  6.14D-08    CP:  8.31D-01  3.57D-03  1.12D+00 -6.66D-03  4.98D-01
                    CP:  1.12D+00  1.13D+00  1.25D+00  1.29D+00  1.14D+00
                    CP:  1.29D+00  1.26D+00  1.12D+00
 E= -480.852454575256     Delta-E=       -0.000000000191 Rises=F Damp=F
 DIIS: error= 9.77D-08 at cycle  14 NSaved=  14.
 NSaved=14 IEnMin=14 EnMin= -480.852454575256     IErMin=14 ErrMin= 9.77D-08
 ErrMax= 9.77D-08  0.00D+00 EMaxC= 1.00D-01 BMatC= 1.03D-11 BMatP= 1.22D-10
 IDIUse=1 WtCom= 1.00D+00 WtEn= 0.00D+00
 Coeff-Com:  0.921D-06-0.957D-06-0.212D-05-0.417D-06-0.232D-05-0.186D-04
 Coeff-Com: -0.177D-04 0.103D-02 0.139D-02-0.183D-02-0.248D-01-0.340D-01
 Coeff-Com:  0.176D+00 0.883D+00
 Coeff:      0.921D-06-0.957D-06-0.212D-05-0.417D-06-0.232D-05-0.186D-04
 Coeff:     -0.177D-04 0.103D-02 0.139D-02-0.183D-02-0.248D-01-0.340D-01
 Coeff:      0.176D+00 0.883D+00
 Gap=     0.208 Goal=   None    Shift=    0.000
 RMSDP=2.96D-08 MaxDP=2.96D-06 DE=-1.91D-10 OVMax= 1.57D-06

 Cycle  15  Pass 1  IDiag  1:
 RMSU=  1.79D-08    CP:  8.31D-01  3.57D-03  1.12D+00 -6.66D-03  4.98D-01
                    CP:  1.12D+00  1.13D+00  1.25D+00  1.28D+00  1.14D+00
                    CP:  1.29D+00  1.27D+00  1.19D+00  1.07D+00
 E= -480.852454575318     Delta-E=       -0.000000000062 Rises=F Damp=F
 DIIS: error= 3.11D-08 at cycle  15 NSaved=  15.
 NSaved=15 IEnMin=15 EnMin= -480.852454575318     IErMin=15 ErrMin= 3.11D-08
 ErrMax= 3.11D-08  0.00D+00 EMaxC= 1.00D-01 BMatC= 1.32D-12 BMatP= 1.03D-11
 IDIUse=1 WtCom= 1.00D+00 WtEn= 0.00D+00
 Coeff-Com:  0.298D-06-0.504D-07 0.361D-06-0.301D-06 0.549D-06-0.163D-04
 Coeff-Com: -0.366D-04 0.275D-03 0.633D-03 0.123D-02-0.624D-02-0.198D-01
 Coeff-Com:  0.483D-03 0.278D+00 0.745D+00
 Coeff:      0.298D-06-0.504D-07 0.361D-06-0.301D-06 0.549D-06-0.163D-04
 Coeff:     -0.366D-04 0.275D-03 0.633D-03 0.123D-02-0.624D-02-0.198D-01
 Coeff:      0.483D-03 0.278D+00 0.745D+00
 Gap=     0.208 Goal=   None    Shift=    0.000
 RMSDP=1.12D-08 MaxDP=1.45D-06 DE=-6.18D-11 OVMax= 3.36D-07

 Cycle  16  Pass 1  IDiag  1:
 RMSU=  5.40D-09    CP:  8.31D-01  3.57D-03  1.12D+00 -6.66D-03  4.98D-01
                    CP:  1.12D+00  1.13D+00  1.25D+00  1.28D+00  1.14D+00
                    CP:  1.29D+00  1.27D+00  1.19D+00  1.17D+00  1.08D+00
 E= -480.852454575308     Delta-E=        0.000000000010 Rises=F Damp=F
 DIIS: error= 1.54D-08 at cycle  16 NSaved=  16.
 NSaved=16 IEnMin=15 EnMin= -480.852454575318     IErMin=16 ErrMin= 1.54D-08
 ErrMax= 1.54D-08  0.00D+00 EMaxC= 1.00D-01 BMatC= 1.70D-13 BMatP= 1.32D-12
 IDIUse=1 WtCom= 1.00D+00 WtEn= 0.00D+00
 Coeff-Com:  0.332D-07-0.163D-06 0.574D-06-0.369D-07 0.380D-06-0.206D-05
 Coeff-Com: -0.833D-05-0.158D-04 0.282D-04 0.634D-03 0.646D-03-0.268D-02
 Coeff-Com: -0.188D-01-0.374D-02 0.254D+00 0.770D+00
 Coeff:      0.332D-07-0.163D-06 0.574D-06-0.369D-07 0.380D-06-0.206D-05
 Coeff:     -0.833D-05-0.158D-04 0.282D-04 0.634D-03 0.646D-03-0.268D-02
 Coeff:     -0.188D-01-0.374D-02 0.254D+00 0.770D+00
 Gap=     0.208 Goal=   None    Shift=    0.000
 RMSDP=3.84D-09 MaxDP=4.38D-07 DE= 9.55D-12 OVMax= 1.43D-07

 SCF Done:  E(RM062X) =  -480.852454575     A.U. after   16 cycles
            NFock= 16  Conv=0.38D-08     -V/T= 2.0048
 KE= 4.785552438854D+02 PE=-2.302571121029D+03 EE= 7.525209106781D+02
 Leave Link  502 at Mon Feb 20 00:36:28 2023, MaxMem=  6710886400 cpu:            2060.1 elap:              86.1
 (Enter /data0/home/software/g16/l601.exe)
 Copying SCF densities to generalized density rwf, IOpCl= 0 IROHF=0.

 **********************************************************************

            Population analysis using the SCF density.

 **********************************************************************

 Alpha  occ. eigenvalues --  -19.49926 -19.48839 -14.92479 -10.64589 -10.64555
 Alpha  occ. eigenvalues --  -10.62297 -10.61678 -10.55910 -10.55491 -10.50528
 Alpha  occ. eigenvalues --   -1.17008  -1.08892  -0.98774  -0.91105  -0.88920
 Alpha  occ. eigenvalues --   -0.87433  -0.82380  -0.75131  -0.69472  -0.64185
 Alpha  occ. eigenvalues --   -0.63559  -0.62129  -0.56375  -0.55128  -0.53708
 Alpha  occ. eigenvalues --   -0.52051  -0.51200  -0.51038  -0.49663  -0.49348
 Alpha  occ. eigenvalues --   -0.47832  -0.46505  -0.43531  -0.43220  -0.41410
 Alpha  occ. eigenvalues --   -0.39208  -0.37427  -0.25290  -0.24987  -0.23739
 Alpha virt. eigenvalues --   -0.02957  -0.00683  -0.00497   0.00992   0.01287
 Alpha virt. eigenvalues --    0.02797   0.03104   0.03625   0.03720   0.04982
 Alpha virt. eigenvalues --    0.06560   0.06862   0.07519   0.08103   0.08576
 Alpha virt. eigenvalues --    0.08959   0.09928   0.10961   0.11141   0.11457
 Alpha virt. eigenvalues --    0.12195   0.12819   0.12976   0.13393   0.14079
 Alpha virt. eigenvalues --    0.14679   0.14700   0.14891   0.15805   0.16362
 Alpha virt. eigenvalues --    0.16811   0.17157   0.17598   0.17915   0.18305
 Alpha virt. eigenvalues --    0.19659   0.19763   0.20489   0.20808   0.21044
 Alpha virt. eigenvalues --    0.21768   0.22322   0.22881   0.23159   0.23713
 Alpha virt. eigenvalues --    0.24380   0.24621   0.25039   0.25634   0.26805
 Alpha virt. eigenvalues --    0.26941   0.28429   0.28634   0.29081   0.30065
 Alpha virt. eigenvalues --    0.30212   0.31282   0.31795   0.32976   0.33469
 Alpha virt. eigenvalues --    0.33707   0.34828   0.36336   0.36955   0.37021
 Alpha virt. eigenvalues --    0.37669   0.38032   0.39387   0.39831   0.40606
 Alpha virt. eigenvalues --    0.41475   0.42166   0.42691   0.44033   0.45232
 Alpha virt. eigenvalues --    0.45806   0.47363   0.48296   0.49778   0.51038
 Alpha virt. eigenvalues --    0.51595   0.52115   0.52691   0.52967   0.54095
 Alpha virt. eigenvalues --    0.55050   0.55834   0.56961   0.57831   0.58600
 Alpha virt. eigenvalues --    0.59875   0.60519   0.61048   0.61255   0.62315
 Alpha virt. eigenvalues --    0.62878   0.63973   0.64504   0.65474   0.65743
 Alpha virt. eigenvalues --    0.66728   0.67194   0.68208   0.68932   0.70020
 Alpha virt. eigenvalues --    0.71164   0.72329   0.72919   0.73707   0.74456
 Alpha virt. eigenvalues --    0.74802   0.75415   0.77621   0.77807   0.78595
 Alpha virt. eigenvalues --    0.79164   0.79705   0.80435   0.81467   0.82242
 Alpha virt. eigenvalues --    0.82618   0.83926   0.85144   0.86446   0.87355
 Alpha virt. eigenvalues --    0.87619   0.87995   0.90522   0.91704   0.92738
 Alpha virt. eigenvalues --    0.94513   0.95410   0.96634   0.97621   0.98576
[...]
    11  H    0.000000
    12  H    0.000000
    13  C    0.000000
    14  H    0.000000
    15  H    0.000000
    16  C    0.000000
    17  H    0.000000
    18  H    0.000000
    19  C    0.000000
    20  H    0.000000
    21  H    0.000000
    22  N    0.000000
    23  C    0.000000
    24  O    0.000000
    25  O    0.000000
    26  O   -0.557747
    27  H    0.281675
    28  H    0.276072
    29  O    0.000000
    30  H    0.000000
    31  H    0.000000
 Sum of Mulliken charges =   0.00000
 Mulliken charges with hydrogens summed into heavy atoms:
               1
     1  C    0.000000
     5  C    0.000000
     9  C    0.000000
    13  C    0.000000
    16  C    0.000000
    19  C    0.000000
    22  N    0.000000
    23  C    0.000000
    24  O    0.000000
    25  O    0.000000
    26  O    0.000000
    29  O    0.000000
         Mulliken charges condensed to fragments:
      1      0.000000
      2      0.000000
      3      0.000000
 Electronic spatial extent (au):  <R**2>=          17832.2227
 Charge=              0.0000 electrons
 Dipole moment (field-independent basis, Debye):
    X=              0.7263    Y=             -0.2782    Z=             -1.9734  Tot=              2.1212
 Quadrupole moment (field-independent basis, Debye-Ang):
   XX=              8.6952   YY=            -12.8433   ZZ=            -54.5540
   XY=              8.3150   XZ=            -13.6460   YZ=            -33.2008
 Traceless Quadrupole moment (field-independent basis, Debye-Ang):
   XX=             28.2625   YY=              6.7241   ZZ=            -34.9866
   XY=              8.3150   XZ=            -13.6460   YZ=            -33.2008
 Octapole moment (field-independent basis, Debye-Ang**2):
  XXX=             20.5678  YYY=           -391.0492  ZZZ=          -1116.2653  XYY=             36.3736
  XXY=            107.3299  XXZ=           -150.6980  XZZ=           -512.1255  YZZ=           -864.7672
  YYZ=           -608.0125  XYZ=           -238.6756
 Hexadecapole moment (field-independent basis, Debye-Ang**3):
 XXXX=          -1548.6254 YYYY=          -9886.7293 ZZZZ=         -20096.1474 XXXY=            112.5768
 XXXZ=          -2679.2121 YYYX=          -1534.1319 YYYZ=         -11621.0975 ZZZX=         -11340.1291
 ZZZY=         -17342.3828 XXYY=            712.9436 XXZZ=          -5762.1931 YYZZ=         -14367.6187
 XXYZ=          -2572.6869 YYXZ=          -4708.5446 ZZXY=          -8127.3694
 N-N= 9.064376857128D+00 E-N=-1.989739854843D+02  KE= 7.618156400911D+01
 No NMR shielding tensors so no spin-rotation constants.
 Leave Link  601 at Mon Feb 20 00:38:52 2023, MaxMem=  6710886400 cpu:               1.8 elap:               0.1
 (Enter /data0/home/software/g16/l122.exe)
 CPIOFr:  IOpCl= 0 IRwI=-1 IRwCP=  731 ICalc=  5 LCPTot=      297970 Len1MO=      777042 IndFrg=     4960222
 Counterpoise: doing calculation for fragment   3 using the basis set of the fragment.
 Leave Link  122 at Mon Feb 20 00:38:52 2023, MaxMem=  6710886400 cpu:               0.2 elap:               0.0
 (Enter /data0/home/software/g16/l301.exe)
 Basis read from rwf:  (5D, 7F)
 No pseudopotential information found on rwf file.
    39 basis functions,    58 primitive gaussians,    41 cartesian basis functions
     5 alpha electrons        5 beta electrons
       nuclear repulsion energy         9.0954348208 Hartrees.
 IExCor= 4336 DFT=T Ex+Corr=M062X ExCW=0 ScaHFX=  0.540000
 ScaDFX=  1.000000  1.000000  1.000000  1.000000 ScalE2=  1.000000  1.000000
 IRadAn=      5 IRanWt=     -1 IRanGd=            0 ICorTp=0 IEmpDi=131
 NAtoms=   31 NActive=    3 NUniq=    3 SFac= 1.00D+00 NAtFMM=   60 NAOKFM=F Big=F
 Integral buffers will be    131072 words long.
 Raffenetti 2 integral format.
 Two-electron integral symmetry is turned off.
 R6Disp:  Grimme-D3 Dispersion energy=       -0.0000000074 Hartrees.
 Nuclear repulsion after empirical dispersion term =        9.0954348134 Hartrees.
 No density basis found on file   718.
 Leave Link  301 at Mon Feb 20 00:38:52 2023, MaxMem=  6710886400 cpu:               1.3 elap:               0.1
 (Enter /data0/home/software/g16/l302.exe)
 NPDir=0 NMtPBC=     1 NCelOv=     1 NCel=       1 NClECP=     1 NCelD=      1
         NCelK=      1 NCelE2=     1 NClLst=     1 CellRange=     0.0.
 One-electron integrals computed using PRISM.
 NBasis=    39 RedAO= T EigKep=  3.01D-03  NBF=    39
 NBsUse=    39 1.00D-06 EigRej= -1.00D+00 NBFU=    39
 Precomputing XC quadrature grid using
 IXCGrd= 4 IRadAn=           5 IRanWt=          -1 IRanGd=           0 AccXCQ= 0.00D+00.
 Generated NRdTot=       0 NPtTot=           0 NUsed=           0 NTot=          32
 NSgBfM=    41    41    41    41    41 MxSgAt=     3 MxSgA2=     3.
 Leave Link  302 at Mon Feb 20 00:38:52 2023, MaxMem=  6710886400 cpu:               2.2 elap:               0.1
 (Enter /data0/home/software/g16/l303.exe)
 DipDrv:  MaxL=1.
 Leave Link  303 at Mon Feb 20 00:38:52 2023, MaxMem=  6710886400 cpu:               0.4 elap:               0.0
 (Enter /data0/home/software/g16/l401.exe)
 ExpMin= 8.45D-02 ExpMax= 8.59D+03 ExpMxC= 1.30D+03 IAcc=3 IRadAn=         5 AccDes= 0.00D+00
 Harris functional with IExCor= 1009 and IRadAn=       5 diagonalized for initial guess.
 HarFok:  IExCor= 1009 AccDes= 0.00D+00 IRadAn=         5 IDoV= 1 UseB2=F ITyADJ=14
 ICtDFT=  3500011 ScaDFX=  1.000000  1.000000  1.000000  1.000000
 FoFCou: FMM=F IPFlag=           0 FMFlag=      100000 FMFlg1=           0
         NFxFlg=           0 DoJE=T BraDBF=F KetDBF=T FulRan=T
         wScrn=  0.000000 ICntrl=       500 IOpCl=  0 I1Cent=   200000004 NGrid=           0
         NMat0=    1 NMatS0=      1 NMatT0=    0 NMatD0=    1 NMtDS0=    0 NMtDT0=    0
 Symmetry not used in FoFCou.
 Harris En= -76.4163866401666    
 JPrj=0 DoOrth=F DoCkMO=F.
 Leave Link  401 at Mon Feb 20 00:38:52 2023, MaxMem=  6710886400 cpu:               2.9 elap:               0.1
 (Enter /data0/home/software/g16/l502.exe)
 Keep R1 ints in memory in canonical form, NReq=21042276.
 FoFCou: FMM=F IPFlag=           0 FMFlag=           0 FMFlg1=           0
         NFxFlg=           0 DoJE=F BraDBF=F KetDBF=F FulRan=T
         wScrn=  0.000000 ICntrl=       600 IOpCl=  0 I1Cent=           0 NGrid=           0
         NMat0=    1 NMatS0=    780 NMatT0=    0 NMatD0=    1 NMtDS0=    0 NMtDT0=    0
 Symmetry not used in FoFCou.
 Two-electron integral symmetry not used.
 Closed shell SCF:
 Using DIIS extrapolation, IDIIS=  1040.
 NGot=  6710886400 LenX=  6710576126 LenY=  6710574004
 Requested convergence on RMS density matrix=1.00D-08 within 128 cycles.
 Requested convergence on MAX density matrix=1.00D-06.
 Requested convergence on             energy=1.00D-06.
 No special actions if energy rises.
 Integral accuracy reduced to 1.0D-05 until final iterations.

 Cycle   1  Pass 0  IDiag  1:
 E= -76.3466153841241    
 DIIS: error= 6.99D-02 at cycle   1 NSaved=   1.
 NSaved= 1 IEnMin= 1 EnMin= -76.3466153841241     IErMin= 1 ErrMin= 6.99D-02
 ErrMax= 6.99D-02  0.00D+00 EMaxC= 1.00D-01 BMatC= 1.20D-01 BMatP= 1.20D-01
 IDIUse=3 WtCom= 3.01D-01 WtEn= 6.99D-01
 Coeff-Com:  0.100D+01
 Coeff-En:   0.100D+01
 Coeff:      0.100D+01
 Gap=     0.325 Goal=   None    Shift=    0.000
 GapD=    0.325 DampG=1.000 DampE=0.500 DampFc=0.5000 IDamp=-1.
 Damping current iteration by 5.00D-01
 RMSDP=7.96D-03 MaxDP=1.01D-01              OVMax= 1.68D-01

 Cycle   2  Pass 0  IDiag  1:
 E= -76.3779105717376     Delta-E=       -0.031295187614 Rises=F Damp=T
 DIIS: error= 1.14D-02 at cycle   2 NSaved=   2.
 NSaved= 2 IEnMin= 2 EnMin= -76.3779105717376     IErMin= 2 ErrMin= 1.14D-02
 ErrMax= 1.14D-02  0.00D+00 EMaxC= 1.00D-01 BMatC= 4.84D-03 BMatP= 1.20D-01
 IDIUse=3 WtCom= 8.86D-01 WtEn= 1.14D-01
 Coeff-Com:  0.829D-01 0.917D+00
 Coeff-En:   0.188D+00 0.812D+00
 Coeff:      0.949D-01 0.905D+00
 Gap=     0.457 Goal=   None    Shift=    0.000
 RMSDP=9.47D-04 MaxDP=1.41D-02 DE=-3.13D-02 OVMax= 1.00D-01

 Cycle   3  Pass 0  IDiag  1:
 E= -76.4217198270437     Delta-E=       -0.043809255306 Rises=F Damp=F
 DIIS: error= 2.16D-03 at cycle   3 NSaved=   3.
 NSaved= 3 IEnMin= 3 EnMin= -76.4217198270437     IErMin= 3 ErrMin= 2.16D-03
 ErrMax= 2.16D-03  0.00D+00 EMaxC= 1.00D-01 BMatC= 9.04D-05 BMatP= 4.84D-03
 IDIUse=3 WtCom= 9.78D-01 WtEn= 2.16D-02
 Coeff-Com: -0.199D-01 0.393D-01 0.981D+00
 Coeff-En:   0.000D+00 0.000D+00 0.100D+01
 Coeff:     -0.195D-01 0.384D-01 0.981D+00
 Gap=     0.462 Goal=   None    Shift=    0.000
 RMSDP=1.14D-04 MaxDP=1.04D-03 DE=-4.38D-02 OVMax= 3.31D-03

 Cycle   4  Pass 0  IDiag  1:
 E= -76.4217969858777     Delta-E=       -0.000077158834 Rises=F Damp=F
 DIIS: error= 4.13D-04 at cycle   4 NSaved=   4.
 NSaved= 4 IEnMin= 4 EnMin= -76.4217969858777     IErMin= 4 ErrMin= 4.13D-04
 ErrMax= 4.13D-04  0.00D+00 EMaxC= 1.00D-01 BMatC= 3.27D-06 BMatP= 9.04D-05
 IDIUse=3 WtCom= 9.96D-01 WtEn= 4.13D-03
 Coeff-Com: -0.188D-02-0.226D-02 0.162D+00 0.842D+00
 Coeff-En:   0.000D+00 0.000D+00 0.000D+00 0.100D+01
 Coeff:     -0.187D-02-0.225D-02 0.161D+00 0.843D+00
 Gap=     0.462 Goal=   None    Shift=    0.000
 RMSDP=2.21D-05 MaxDP=3.54D-04 DE=-7.72D-05 OVMax= 5.36D-04

 Cycle   5  Pass 0  IDiag  1:
 E= -76.4217990062611     Delta-E=       -0.000002020383 Rises=F Damp=F
 DIIS: error= 8.86D-05 at cycle   5 NSaved=   5.
 NSaved= 5 IEnMin= 5 EnMin= -76.4217990062611     IErMin= 5 ErrMin= 8.86D-05
 ErrMax= 8.86D-05  0.00D+00 EMaxC= 1.00D-01 BMatC= 8.21D-08 BMatP= 3.27D-06
 IDIUse=1 WtCom= 1.00D+00 WtEn= 0.00D+00
 Coeff-Com:  0.118D-02-0.179D-02-0.367D-01-0.640D-01 0.110D+01
 Coeff:      0.118D-02-0.179D-02-0.367D-01-0.640D-01 0.110D+01
 Gap=     0.462 Goal=   None    Shift=    0.000
 RMSDP=8.96D-06 MaxDP=1.02D-04 DE=-2.02D-06 OVMax= 2.02D-04

 Initial convergence to 1.0D-05 achieved.  Increase integral accuracy.
 Cycle   6  Pass 1  IDiag  1:
 E= -76.4218024807350     Delta-E=       -0.000003474474 Rises=F Damp=F
 DIIS: error= 1.22D-05 at cycle   1 NSaved=   1.
 NSaved= 1 IEnMin= 1 EnMin= -76.4218024807350     IErMin= 1 ErrMin= 1.22D-05
 ErrMax= 1.22D-05  0.00D+00 EMaxC= 1.00D-01 BMatC= 8.61D-09 BMatP= 8.61D-09
 IDIUse=1 WtCom= 1.00D+00 WtEn= 0.00D+00
 Coeff-Com:  0.100D+01
 Coeff:      0.100D+01
 Gap=     0.462 Goal=   None    Shift=    0.000
 RMSDP=8.96D-06 MaxDP=1.02D-04 DE=-3.47D-06 OVMax= 3.42D-05

 Cycle   7  Pass 1  IDiag  1:
 E= -76.4218024878705     Delta-E=       -0.000000007136 Rises=F Damp=F
 DIIS: error= 7.94D-06 at cycle   2 NSaved=   2.
 NSaved= 2 IEnMin= 2 EnMin= -76.4218024878705     IErMin= 2 ErrMin= 7.94D-06
 ErrMax= 7.94D-06  0.00D+00 EMaxC= 1.00D-01 BMatC= 7.68D-10 BMatP= 8.61D-09
 IDIUse=1 WtCom= 1.00D+00 WtEn= 0.00D+00
 Coeff-Com:  0.665D-01 0.933D+00
 Coeff:      0.665D-01 0.933D+00
 Gap=     0.462 Goal=   None    Shift=    0.000
 RMSDP=5.89D-07 MaxDP=9.48D-06 DE=-7.14D-09 OVMax= 1.67D-05

 Cycle   8  Pass 1  IDiag  1:
 E= -76.4218024880672     Delta-E=       -0.000000000197 Rises=F Damp=F
 DIIS: error= 4.97D-06 at cycle   3 NSaved=   3.
 NSaved= 3 IEnMin= 3 EnMin= -76.4218024880672     IErMin= 3 ErrMin= 4.97D-06
 ErrMax= 4.97D-06  0.00D+00 EMaxC= 1.00D-01 BMatC= 6.88D-10 BMatP= 7.68D-10
 IDIUse=1 WtCom= 1.00D+00 WtEn= 0.00D+00
 Coeff-Com: -0.544D-01 0.500D+00 0.554D+00
 Coeff:     -0.544D-01 0.500D+00 0.554D+00
 Gap=     0.462 Goal=   None    Shift=    0.000
 RMSDP=3.07D-07 MaxDP=3.97D-06 DE=-1.97D-10 OVMax= 7.23D-06

 Cycle   9  Pass 1  IDiag  1:
 E= -76.4218024885237     Delta-E=       -0.000000000457 Rises=F Damp=F
 DIIS: error= 5.85D-07 at cycle   4 NSaved=   4.
 NSaved= 4 IEnMin= 4 EnMin= -76.4218024885237     IErMin= 4 ErrMin= 5.85D-07
 ErrMax= 5.85D-07  0.00D+00 EMaxC= 1.00D-01 BMatC= 3.11D-12 BMatP= 6.88D-10
 IDIUse=1 WtCom= 1.00D+00 WtEn= 0.00D+00
 Coeff-Com:  0.106D-02-0.574D-01-0.146D-01 0.107D+01
 Coeff:      0.106D-02-0.574D-01-0.146D-01 0.107D+01
 Gap=     0.462 Goal=   None    Shift=    0.000
 RMSDP=5.68D-08 MaxDP=4.74D-07 DE=-4.57D-10 OVMax= 1.36D-06

 Cycle  10  Pass 1  IDiag  1:
 E= -76.4218024885288     Delta-E=       -0.000000000005 Rises=F Damp=F
 DIIS: error= 7.80D-08 at cycle   5 NSaved=   5.
 NSaved= 5 IEnMin= 5 EnMin= -76.4218024885288     IErMin= 5 ErrMin= 7.80D-08
 ErrMax= 7.80D-08  0.00D+00 EMaxC= 1.00D-01 BMatC= 1.89D-13 BMatP= 3.11D-12
 IDIUse=1 WtCom= 1.00D+00 WtEn= 0.00D+00
 Coeff-Com:  0.276D-02-0.369D-01-0.331D-01 0.181D+00 0.886D+00
 Coeff:      0.276D-02-0.369D-01-0.331D-01 0.181D+00 0.886D+00
 Gap=     0.462 Goal=   None    Shift=    0.000
 RMSDP=1.32D-08 MaxDP=1.18D-07 DE=-5.10D-12 OVMax= 3.14D-07

 Cycle  11  Pass 1  IDiag  1:
 E= -76.4218024885292     Delta-E=       -0.000000000000 Rises=F Damp=F
 DIIS: error= 8.55D-09 at cycle   6 NSaved=   6.
 NSaved= 6 IEnMin= 6 EnMin= -76.4218024885292     IErMin= 6 ErrMin= 8.55D-09
 ErrMax= 8.55D-09  0.00D+00 EMaxC= 1.00D-01 BMatC= 2.83D-15 BMatP= 1.89D-13
 IDIUse=1 WtCom= 1.00D+00 WtEn= 0.00D+00
 Coeff-Com:  0.127D-03 0.333D-03-0.146D-02-0.291D-01 0.201D-02 0.103D+01
 Coeff:      0.127D-03 0.333D-03-0.146D-02-0.291D-01 0.201D-02 0.103D+01
 Gap=     0.462 Goal=   None    Shift=    0.000
 RMSDP=2.22D-09 MaxDP=2.15D-08 DE=-3.13D-13 OVMax= 5.65D-08

 SCF Done:  E(RM062X) =  -76.4218024885     A.U. after   11 cycles
            NFock= 11  Conv=0.22D-08     -V/T= 2.0030
 KE= 7.619336827959D+01 PE=-1.990394779795D+02 EE= 3.732887239795D+01
 Leave Link  502 at Mon Feb 20 00:38:53 2023, MaxMem=  6710886400 cpu:               8.6 elap:               0.4
 (Enter /data0/home/software/g16/l601.exe)
 Copying SCF densities to generalized density rwf, IOpCl= 0 IROHF=0.

 **********************************************************************

            Population analysis using the SCF density.

 **********************************************************************

 Alpha  occ. eigenvalues --  -19.62660  -1.13366  -0.60528  -0.47679  -0.39999
 Alpha virt. eigenvalues --    0.06233   0.13313   0.17415   0.17943   0.18906
 Alpha virt. eigenvalues --    0.23382   0.51029   0.53359   0.98087   1.00233
 Alpha virt. eigenvalues --    1.06013   1.17698   1.20116   1.32020   1.33969
 Alpha virt. eigenvalues --    1.70371   1.74306   1.75349   2.07593   2.09420
 Alpha virt. eigenvalues --    2.36282   2.39901   2.54816   2.87973   3.01211
 Alpha virt. eigenvalues --    5.05635   5.48723   5.91152   6.78453   6.80075
 Alpha virt. eigenvalues --    6.87314   6.91593   7.09493  49.95594
          Condensed to atoms (all electrons):
              29         30         31
    29  O    7.917472   0.318989   0.317224
    30  H    0.318989   0.428884  -0.023929
    31  H    0.317224  -0.023929   0.429074
 Mulliken charges:
               1
     1  C    0.000000
     2  H    0.000000
     3  H    0.000000
     4  H    0.000000
     5  C    0.000000
     6  H    0.000000
     7  H    0.000000
     8  H    0.000000
     9  C    0.000000
    10  H    0.000000
    11  H    0.000000
    12  H    0.000000
    13  C    0.000000
    14  H    0.000000
    15  H    0.000000
    16  C    0.000000
    17  H    0.000000
    18  H    0.000000
    19  C    0.000000
    20  H    0.000000
    21  H    0.000000
    22  N    0.000000
    23  C    0.000000
    24  O    0.000000
    25  O    0.000000
    26  O    0.000000
    27  H    0.000000
    28  H    0.000000
    29  O   -0.553686
    30  H    0.276055
    31  H    0.277630
 Sum of Mulliken charges =  -0.00000
 Mulliken charges with hydrogens summed into heavy atoms:
               1
     1  C    0.000000
     5  C    0.000000
     9  C    0.000000
    13  C    0.000000
    16  C    0.000000
    19  C    0.000000
    22  N    0.000000
    23  C    0.000000
    24  O    0.000000
    25  O    0.000000
    26  O    0.000000
    29  O   -0.000000
         Mulliken charges condensed to fragments:
      1      0.000000
      2      0.000000
      3     -0.000000
 Electronic spatial extent (au):  <R**2>=          21499.0239
 Charge=             -0.0000 electrons
 Dipole moment (field-independent basis, Debye):
    X=              0.3351    Y=             -0.1634    Z=             -2.0999  Tot=              2.1328
 Quadrupole moment (field-independent basis, Debye-Ang):
   XX=              4.0379   YY=            -12.6142   ZZ=            -66.7549
   XY=              3.4369   XZ=            -21.7639   YZ=            -33.9867
 Traceless Quadrupole moment (field-independent basis, Debye-Ang):
   XX=             29.1483   YY=             12.4962   ZZ=            -41.6445
   XY=              3.4369   XZ=            -21.7639   YZ=            -33.9867
 Octapole moment (field-independent basis, Debye-Ang**2):
  XXX=             -8.9154  YYY=           -460.9016  ZZZ=          -1578.8634  XYY=            -70.7696
  XXY=             45.8799  XXZ=           -279.7866  XZZ=           -776.7844  YZZ=          -1040.1285
  YYZ=           -658.5363  XYZ=           -351.1931
 Hexadecapole moment (field-independent basis, Debye-Ang**3):
 XXXX=          -1620.9276 YYYY=         -12838.8844 ZZZZ=         -32977.7530 XXXY=           -258.5165
 XXXZ=          -4439.3986 YYYX=          -4418.8118 YYYZ=         -13831.6365 ZZZX=         -19034.8185
 ZZZY=         -24299.7939 XXYY=           -791.9760 XXZZ=          -9929.2628 YYZZ=         -17796.2897
 XXYZ=          -4433.3287 YYXZ=          -7061.4874 ZZXY=         -12047.5836
 N-N= 9.095434813409D+00 E-N=-1.990394778994D+02  KE= 7.619336827959D+01
 No NMR shielding tensors so no spin-rotation constants.
 Leave Link  601 at Mon Feb 20 00:38:53 2023, MaxMem=  6710886400 cpu:               1.8 elap:               0.1
 (Enter /data0/home/software/g16/l122.exe)
 CPIOFr:  IOpCl= 0 IRwI=-1 IRwCP=  731 ICalc=  6 LCPTot=      297970 Len1MO=      777042 IndFrg=     5737264
 Restoring MOs from calculation   1 to rwf.
 CPIOFr:  IOpCl= 0 IRwI=-2 IRwCP=  731 ICalc=  0 LCPTot=      297970 Len1MO=      777042 IndFrg=     1075012
 Counterpoise corrected energy =    -633.741345620282
                   BSSE energy =       0.003078279270
              sum of fragments =    -633.695052564703
           complexation energy =     -30.98 kcal/mole (raw)
           complexation energy =     -29.05 kcal/mole (corrected)
 Leave Link  122 at Mon Feb 20 00:38:53 2023, MaxMem=  6710886400 cpu:               0.4 elap:               0.0
 (Enter /data0/home/software/g16/l9999.exe)
 1\1\GINC-LOCALHOST\SP\RM062X\6-311+G(2d,p)\C7H19N1O4\WUHANYU\20-Feb-20
 23\0\\#p M062X/6-311+G(2d,p) nosymm em=GD3 counterpoise=3\\Title Card 
 Required\\0,1\C,0,13.773813,17.676761,15.610132\H,0,14.382808,17.09219
 5,14.879084\H,0,14.471295,18.164067,16.30377\H,0,13.165413,16.933917,1
 6.158878\C,0,12.207495,19.52625,15.916474\H,0,11.597552,20.309032,15.4
 32836\H,0,11.534113,18.912148,16.539732\H,0,12.926749,20.027787,16.584
 572\C,0,13.787202,19.542581,14.03921\H,0,13.200401,20.202813,13.371028
 \H,0,14.478284,20.145376,14.640438\H,0,14.394422,18.919095,13.340611\C
 ,0,11.887037,17.93221,14.051933\H,0,11.335949,17.211951,14.698322\H,0,
 12.460763,17.285571,13.331855\C,0,10.913926,18.858243,13.308978\H,0,11
 .327213,19.882605,13.195219\H,0,9.969373,18.963453,13.873336\C,0,10.62
 6577,18.313223,11.908798\H,0,10.02643,19.025335,11.31623\H,0,10.03878,
 17.375646,11.952763\N,0,12.909387,18.678706,14.895252\C,0,11.958398,18
 .073388,11.183128\O,0,12.823703,18.959399,11.261503\O,0,12.092247,16.9
 56318,10.632175\O,0,11.100997,15.038299,12.28057\H,0,11.4385,15.716736
 ,11.643264\H,0,11.17454,14.215646,11.805682\O,0,12.773726,15.158833,14
 .51086\H,0,13.608127,15.221788,14.034773\H,0,12.124724,15.003221,13.80
 2359\\Version=ES64L-G16RevA.03\HF=-76.4218025\RMSD=2.220e-09\Dipole=0.
 5713859,1.2810801,4.1628762\Quadrupole=-76.6623171,-18.7279293,95.3902
 463,47.0426524,116.9547033,183.0125582\PG=C01 [X(C7H19N1O4)]\\@


 In the race for quality, there is no finish line.
                               -- David T. Kearns
 Job cpu time:       0 days  2 hours  3 minutes 51.4 seconds.
 Elapsed time:       0 days  0 hours  5 minutes 11.8 seconds.
 File lengths (MBytes):  RWF=    162 Int=      0 D2E=      0 Chk=     55 Scr=      1
 Normal termination of Gaussian 16 at Mon Feb 20 00:38:53 2023.
