 Entering Gaussian System, Link 0=g16
 Initial command:
 /data0/home/software/g16/l1.exe "/data0/home/software/g16/scratch/Gau-233758.inp" -scrdir="/data0/home/software/g16/scratch/"
 Default is to use a total of  22 processors:
                               22 via shared-memory
                                1 via Linda
 Entering Link 1 = /data0/home/software/g16/l1.exe PID=    233759.
  
 Copyright (c) 1988,1990,1992,1993,1995,1998,2003,2009,2016,
            Gaussian, Inc.  All Rights Reserved.
  
 This is part of the Gaussian(R) 16 program.  It is based on
 the Gaussian(R) 09 system (copyright 2009, Gaussian, Inc.),
 the Gaussian(R) 03 system (copyright 2003, Gaussian, Inc.),
 the Gaussian(R) 98 system (copyright 1998, Gaussian, Inc.),
 the Gaussian(R) 94 system (copyright 1995, Gaussian, Inc.),
 the Gaussian 92(TM) system (copyright 1992, Gaussian, Inc.),
 the Gaussian 90(TM) system (copyright 1990, Gaussian, Inc.),
 the Gaussian 88(TM) system (copyright 1988, Gaussian, Inc.),
 the Gaussian 86(TM) system (copyright 1986, Carnegie Mellon
 University), and the Gaussian 82(TM) system (copyright 1983,
 Carnegie Mellon University). Gaussian is a federally registered
 trademark of Gaussian, Inc.
  
 This software contains proprietary and confidential information,
 including trade secrets, belonging to Gaussian, Inc.
  
 This software is provided under written license and may be
 used, copied, transmitted, or stored only in accord with that
 written license.
  
 The following legend is applicable only to US Government
 contracts under FAR:
  
                    RESTRICTED RIGHTS LEGEND
  
 Use, reproduction and disclosure by the US Government is
 subject to restrictions as set forth in subparagraphs (a)
 and (c) of the Commercial Computer Software - Restricted
 Rights clause in FAR 52.227-19.
  
 Gaussian, Inc.
 340 Quinnipiac St., Bldg. 40, Wallingford CT 06492
  
  
 ---------------------------------------------------------------
 Warning -- This program may not be used in any manner that
 competes with the business of Gaussian, Inc. or will provide
 assistance to any competitor of Gaussian, Inc.  The licensee
 of this program is prohibited from giving any competitor of
 Gaussian, Inc. access to this program.  By using this program,
 the user acknowledges that Gaussian, Inc. is engaged in the
 business of creating and licensing software in the field of
 computational chemistry and represents and warrants to the
 licensee that it is not a competitor of Gaussian, Inc. and that
 it will not use this program in any manner prohibited above.
 ---------------------------------------------------------------
  

 Cite this work as:
 Gaussian 16, Revision A.03,
 M. J. Frisch, G. W. Trucks, H. B. Schlegel, G. E. Scuseria, 
 M. A. Robb, J. R. Cheeseman, G. Scalmani, V. Barone, 
 G. A. Petersson, H. Nakatsuji, X. Li, M. Caricato, A. V. Marenich, 
 J. Bloino, B. G. Janesko, R. Gomperts, B. Mennucci, H. P. Hratchian, 
 J. V. Ortiz, A. F. Izmaylov, J. L. Sonnenberg, D. Williams-Young, 
 F. Ding, F. Lipparini, F. Egidi, J. Goings, B. Peng, A. Petrone, 
 T. Henderson, D. Ranasinghe, V. G. Zakrzewski, J. Gao, N. Rega, 
 G. Zheng, W. Liang, M. Hada, M. Ehara, K. Toyota, R. Fukuda, 
 J. Hasegawa, M. Ishida, T. Nakajima, Y. Honda, O. Kitao, H. Nakai, 
 T. Vreven, K. Throssell, J. A. Montgomery, Jr., J. E. Peralta, 
 F. Ogliaro, M. J. Bearpark, J. J. Heyd, E. N. Brothers, K. N. Kudin, 
 V. N. Staroverov, T. A. Keith, R. Kobayashi, J. Normand, 
 K. Raghavachari, A. P. Rendell, J. C. Burant, S. S. Iyengar, 
 J. Tomasi, M. Cossi, J. M. Millam, M. Klene, C. Adamo, R. Cammi, 
 J. W. Ochterski, R. L. Martin, K. Morokuma, O. Farkas, 
 J. B. Foresman, and D. J. Fox, Gaussian, Inc., Wallingford CT, 2016.
 
 ******************************************
 Gaussian 16:  ES64L-G16RevA.03 25-Dec-2016
                17-Feb-2023 
 ******************************************
 %nproc=24
 Will use up to   24 processors via shared memory.
 %mem=50GB
 ---------------------------------------------------
 #p M062X/6-311+G(2d,p) nosymm em=GD3 counterpoise=5
 ---------------------------------------------------
 1/38=1,62=5,172=1/1;
 2/12=2,15=1,17=6,18=5,40=1/2;
 1/38=1,53=2,62=5,63=1/22;
 3/5=4,6=6,7=112,11=2,25=1,30=1,74=-55,124=31/1,2,3;
 4//1;
 5/5=2,38=5/2;
 6/7=2,8=2,9=2,10=2,28=1/1;
 1/53=2,62=5,63=1/22;
 3/5=7,6=11,7=112,11=2,25=1,30=1,74=-55,82=7,124=31/1,2,3;
 4//1;
 5/5=2,38=5/2;
 6/7=2,8=2,9=2,10=2,28=1/1;
 1/53=2,62=5,63=1/22(-4);
 99/5=1,9=1/99;
 Leave Link    1 at Fri Feb 17 21:39:11 2023, MaxMem=  6710886400 cpu:               0.7 elap:               0.0
 (Enter /data0/home/software/g16/l101.exe)
 -------------------
 Title Card Required
 -------------------
 Symbolic Z-matrix:
 Charge =  0 Multiplicity = 1 in supermolecule
 Charge =  0 Multiplicity = 1 in fragment      1.
 Charge =  0 Multiplicity = 1 in fragment      2.
 Charge =  0 Multiplicity = 1 in fragment      3.
 Charge =  0 Multiplicity = 1 in fragment      4.
 Charge =  0 Multiplicity = 1 in fragment      5.
 C                     4.48369   5.43284   11.48948    
 C                     5.41592   4.97754   12.42329    
 C                     4.71534   6.9402    13.13346    
 N                     4.043     6.67472   11.94996    
 H                     3.43237   7.30598   11.43784    
 H                     4.10815   4.9838    10.59537    
 H                     5.9784    4.0649    12.44176    
 H                     4.57643   7.83689   13.72087    
 N                     5.54736   5.92048   13.43117    
 O                     3.67244   8.51085   10.12043    
 H                     3.93197   9.39889   10.47557    
 H                     3.11131   8.69084   9.37243    
 O                     4.41556   10.89725   11.10308    
 H                     4.95702   10.5222   11.82902    
 H                     5.05604   11.37715   10.57377    
 O                     6.34072   7.36789   9.86927    
 H                     6.26272   6.53466   10.34283    
 H                     5.46631   7.77545   9.94487    
 O                     7.50022   6.71841   15.13437    
 H                     6.75515   6.98626   15.67244    
 H                     7.07432   6.15855   14.43277    
 
 ITRead=  0  0  0  0  0  0  0  0  0  0  0  0  0  0  0  0  0  0  0  0
 ITRead=  0
 MicOpt= -1 -1 -1 -1 -1 -1 -1 -1 -1 -1 -1 -1 -1 -1 -1 -1 -1 -1 -1 -1
 MicOpt= -1
 NAtoms=     21 NQM=       21 NQMF=       0 NMMI=      0 NMMIF=      0
                NMic=       0 NMicF=      0.
                    Isotopes and Nuclear Properties:
 (Nuclear quadrupole moments (NQMom) in fm**2, nuclear magnetic moments (NMagM)
  in nuclear magnetons)

  Atom         1           2           3           4           5           6           7           8           9          10
 IAtWgt=          12          12          12          14           1           1           1           1          14          16
 AtmWgt=  12.0000000  12.0000000  12.0000000  14.0030740   1.0078250   1.0078250   1.0078250   1.0078250  14.0030740  15.9949146
 NucSpn=           0           0           0           2           1           1           1           1           2           0
 AtZEff=  -0.0000000  -0.0000000  -0.0000000  -0.0000000  -0.0000000  -0.0000000  -0.0000000  -0.0000000  -0.0000000  -0.0000000
 NQMom=    0.0000000   0.0000000   0.0000000   2.0440000   0.0000000   0.0000000   0.0000000   0.0000000   2.0440000   0.0000000
 NMagM=    0.0000000   0.0000000   0.0000000   0.4037610   2.7928460   2.7928460   2.7928460   2.7928460   0.4037610   0.0000000
 AtZNuc=   6.0000000   6.0000000   6.0000000   7.0000000   1.0000000   1.0000000   1.0000000   1.0000000   7.0000000   8.0000000

  Atom        11          12          13          14          15          16          17          18          19          20
 IAtWgt=           1           1          16           1           1          16           1           1          16           1
 AtmWgt=   1.0078250   1.0078250  15.9949146   1.0078250   1.0078250  15.9949146   1.0078250   1.0078250  15.9949146   1.0078250
 NucSpn=           1           1           0           1           1           0           1           1           0           1
 AtZEff=  -0.0000000  -0.0000000  -0.0000000  -0.0000000  -0.0000000  -0.0000000  -0.0000000  -0.0000000  -0.0000000  -0.0000000
 NQMom=    0.0000000   0.0000000   0.0000000   0.0000000   0.0000000   0.0000000   0.0000000   0.0000000   0.0000000   0.0000000
 NMagM=    2.7928460   2.7928460   0.0000000   2.7928460   2.7928460   0.0000000   2.7928460   2.7928460   0.0000000   2.7928460
 AtZNuc=   1.0000000   1.0000000   8.0000000   1.0000000   1.0000000   8.0000000   1.0000000   1.0000000   8.0000000   1.0000000

  Atom        21
 IAtWgt=           1
 AtmWgt=   1.0078250
 NucSpn=           1
 AtZEff=  -0.0000000
 NQMom=    0.0000000
 NMagM=    2.7928460
 AtZNuc=   1.0000000
 Leave Link  101 at Fri Feb 17 21:39:11 2023, MaxMem=  6710886400 cpu:               2.1 elap:               0.1
 (Enter /data0/home/software/g16/l202.exe)
                          Input orientation:                          
 ---------------------------------------------------------------------
 Center     Atomic      Atomic             Coordinates (Angstroms)
 Number     Number       Type             X           Y           Z
 ---------------------------------------------------------------------
      1          6           0        4.483690    5.432844   11.489475
      2          6           0        5.415920    4.977543   12.423295
      3          6           0        4.715339    6.940200   13.133457
      4          7           0        4.043001    6.674720   11.949956
      5          1           0        3.432369    7.305985   11.437840
      6          1           0        4.108149    4.983802   10.595374
      7          1           0        5.978397    4.064896   12.441755
      8          1           0        4.576425    7.836886   13.720872
      9          7           0        5.547356    5.920481   13.431168
     10          8           0        3.672439    8.510855   10.120425
     11          1           0        3.931973    9.398895   10.475567
     12          1           0        3.111310    8.690845    9.372432
     13          8           0        4.415563   10.897246   11.103081
     14          1           0        4.957023   10.522205   11.829021
     15          1           0        5.056042   11.377145   10.573773
     16          8           0        6.340723    7.367890    9.869274
     17          1           0        6.262719    6.534657   10.342832
     18          1           0        5.466309    7.775445    9.944871
     19          8           0        7.500217    6.718414   15.134370
     20          1           0        6.755145    6.986262   15.672441
     21          1           0        7.074324    6.158545   14.432774
 ---------------------------------------------------------------------
                    Distance matrix (angstroms):
                    1          2          3          4          5
     1  C    0.000000
     2  C    1.395841   0.000000
     3  C    2.242423   2.201628   0.000000
     4  N    1.395889   2.233689   1.386792   0.000000
     5  H    2.148627   3.213602   2.157528   1.016676   0.000000
     6  H    1.068684   2.247576   3.261601   2.167566   2.561047
     7  H    2.238809   1.072215   3.215764   3.286154   4.242023
     8  H    3.281334   3.250277   1.080925   2.184334   2.608248
     9  N    2.267013   1.386440   1.349337   2.241863   3.219650
    10  O    3.465051   4.563686   3.554287   2.618376   1.801368
    11  H    4.130613   5.054117   3.704487   3.099561   2.357084
    12  H    4.120664   5.329878   4.447806   3.402417   2.507354
    13  O    5.478470   6.147078   4.457635   4.322699   3.738434
    14  H    5.122590   5.595268   3.819781   3.956413   3.580735
    15  H    6.041590   6.671218   5.133667   5.003292   4.467356
    16  O    3.133373   3.618293   3.671469   3.176358   3.304959
    17  H    2.386153   2.733130   3.216588   2.744014   3.131273
    18  H    2.973066   3.738098   3.380632   2.694024   2.566371
    19  O    4.902794   3.837298   3.436333   4.700505   5.527835
    20  H    5.006977   4.047891   3.257203   4.616241   5.392115
    21  H    3.987610   2.860608   2.804286   3.952182   4.852843
                    6          7          8          9         10
     6  H    0.000000
     7  H    2.784123   0.000000
     8  H    4.257712   4.222508   0.000000
     9  N    3.315179   2.146609   2.167774   0.000000
    10  O    3.585460   5.520196   3.772883   4.602865   0.000000
    11  H    4.420231   6.041961   3.658852   4.841942   0.991009
    12  H    4.028826   6.248227   4.667412   5.484758   0.952237
    13  O    5.943155   7.135510   4.030448   5.609736   2.685649
    14  H    5.737280   6.566238   3.306795   4.908282   2.935129
    15  H    6.463266   7.603228   4.761061   6.179100   3.214887
    16  O    3.345965   4.202227   4.262336   3.925750   2.913621
    17  H    2.666665   3.253619   3.993813   3.229052   3.265635
    18  H    3.171912   4.501648   3.879929   3.949902   1.946694
    19  O    5.926001   4.075202   3.434751   2.711321   6.557772
    20  H    6.065727   4.424370   3.046146   2.760063   6.530876
    21  H    4.990376   3.090077   3.092431   1.841608   5.975160
                   11         12         13         14         15
    11  H    0.000000
    12  H    1.546522   0.000000
    13  O    1.694901   3.092641   0.000000
    14  H    2.035778   3.577061   0.980216   0.000000
    15  H    2.277421   3.527238   0.959522   1.521964   0.000000
    16  O    3.208528   3.525077   4.205339   3.962946   4.268589
    17  H    3.695112   3.939823   4.798140   4.451308   4.995908
    18  H    2.295956   2.590688   3.491584   3.369582   3.679141
    19  O    6.451495   7.506858   6.574878   5.644643   6.962529
    20  H    6.387378   7.474841   6.453564   5.523406   6.939973
    21  H    6.002810   6.908334   6.372688   5.504909   6.796995
                   16         17         18         19         20
    16  O    0.000000
    17  H    0.961571   0.000000
    18  H    0.967686   1.527153   0.000000
    19  O    5.430238   4.952172   5.673182   0.000000
    20  H    5.830449   5.371328   5.923594   0.957285   0.000000
    21  H    4.777679   4.186620   5.034019   0.993517   1.524390
                   21
    21  H    0.000000
 Symmetry turned off by external request.
 Stoichiometry    C3H12N2O4
 Framework group  C1[X(C3H12N2O4)]
 Deg. of freedom    57
 Full point group                 C1      NOp   1
 Rotational constants (GHZ):           1.3472792           0.6674616           0.5562567
 Leave Link  202 at Fri Feb 17 21:39:11 2023, MaxMem=  6710886400 cpu:               0.1 elap:               0.0
 (Enter /data0/home/software/g16/l122.exe)
 Counterpoise: doing full-system calculation.
 Leave Link  122 at Fri Feb 17 21:39:11 2023, MaxMem=  6710886400 cpu:               0.0 elap:               0.0
 (Enter /data0/home/software/g16/l301.exe)
 Standard basis: 6-311+G(2d,p) (5D, 7F)
 Ernie: Thresh=  0.10000D-02 Tol=  0.10000D-05 Strict=F.
   315 basis functions,   474 primitive gaussians,   333 cartesian basis functions
    38 alpha electrons       38 beta electrons
       nuclear repulsion energy       472.1079789025 Hartrees.
 IExCor= 4336 DFT=T Ex+Corr=M062X ExCW=0 ScaHFX=  0.540000
 ScaDFX=  1.000000  1.000000  1.000000  1.000000 ScalE2=  1.000000  1.000000
 IRadAn=      5 IRanWt=     -1 IRanGd=            0 ICorTp=0 IEmpDi=131
 NAtoms=   21 NActive=   21 NUniq=   21 SFac= 1.00D+00 NAtFMM=   60 NAOKFM=F Big=F
 Integral buffers will be    131072 words long.
 Raffenetti 2 integral format.
 Two-electron integral symmetry is turned off.
 R6Disp:  Grimme-D3 Dispersion energy=       -0.0008444115 Hartrees.
 Nuclear repulsion after empirical dispersion term =      472.1071344911 Hartrees.
 Leave Link  301 at Fri Feb 17 21:39:11 2023, MaxMem=  6710886400 cpu:               1.1 elap:               0.1
 (Enter /data0/home/software/g16/l302.exe)
 NPDir=0 NMtPBC=     1 NCelOv=     1 NCel=       1 NClECP=     1 NCelD=      1
         NCelK=      1 NCelE2=     1 NClLst=     1 CellRange=     0.0.
 One-electron integrals computed using PRISM.
 NBasis=   315 RedAO= T EigKep=  3.61D-05  NBF=   315
 NBsUse=   315 1.00D-06 EigRej= -1.00D+00 NBFU=   315
 Precomputing XC quadrature grid using
 IXCGrd= 4 IRadAn=           5 IRanWt=          -1 IRanGd=           0 AccXCQ= 0.00D+00.
 Generated NRdTot=       0 NPtTot=           0 NUsed=           0 NTot=          32
 NSgBfM=   333   333   333   333   333 MxSgAt=    21 MxSgA2=    21.
 Leave Link  302 at Fri Feb 17 21:39:11 2023, MaxMem=  6710886400 cpu:               5.2 elap:               0.2
 (Enter /data0/home/software/g16/l303.exe)
 DipDrv:  MaxL=1.
 Leave Link  303 at Fri Feb 17 21:39:11 2023, MaxMem=  6710886400 cpu:               0.7 elap:               0.0
 (Enter /data0/home/software/g16/l401.exe)
 ExpMin= 4.38D-02 ExpMax= 8.59D+03 ExpMxC= 1.30D+03 IAcc=3 IRadAn=         5 AccDes= 0.00D+00
 Harris functional with IExCor= 1009 and IRadAn=       5 diagonalized for initial guess.
 HarFok:  IExCor= 1009 AccDes= 0.00D+00 IRadAn=         5 IDoV= 1 UseB2=F ITyADJ=14
 ICtDFT=  3500011 ScaDFX=  1.000000  1.000000  1.000000  1.000000
 FoFCou: FMM=F IPFlag=           0 FMFlag=      100000 FMFlg1=           0
         NFxFlg=           0 DoJE=T BraDBF=F KetDBF=T FulRan=T
         wScrn=  0.000000 ICntrl=       500 IOpCl=  0 I1Cent=   200000004 NGrid=           0
         NMat0=    1 NMatS0=      1 NMatT0=    0 NMatD0=    1 NMtDS0=    0 NMtDT0=    0
 Symmetry not used in FoFCou.
 Harris En= -531.722965515319    
 JPrj=0 DoOrth=F DoCkMO=F.
 Leave Link  401 at Fri Feb 17 21:39:12 2023, MaxMem=  6710886400 cpu:              18.6 elap:               0.8
 (Enter /data0/home/software/g16/l502.exe)
 Two-electron integral symmetry not used.
 Closed shell SCF:
 Using DIIS extrapolation, IDIIS=  1040.
 NGot=  6710886400 LenX=  6710654184 LenY=  6710542854
 Requested convergence on RMS density matrix=1.00D-08 within 128 cycles.
 Requested convergence on MAX density matrix=1.00D-06.
 Requested convergence on             energy=1.00D-06.
 No special actions if energy rises.
 Fock matrices will be formed incrementally for  20 cycles.

 Cycle   1  Pass 1  IDiag  1:
 FoFJK:  IHMeth= 1 ICntrl=       0 DoSepK=F KAlg= 0 I1Cent=           0 FoldK=F
 IRaf= 890000000 NMat=       1 IRICut=       1 DoRegI=T DoRafI=F ISym2E= 0 IDoP0=0 IntGTp=1.
 FoFCou: FMM=F IPFlag=           0 FMFlag=      100000 FMFlg1=           0
         NFxFlg=           0 DoJE=F BraDBF=F KetDBF=F FulRan=T
         wScrn=  0.000000 ICntrl=         0 IOpCl=  0 I1Cent=           0 NGrid=           0
         NMat0=    1 NMatS0=      1 NMatT0=    0 NMatD0=    1 NMtDS0=    0 NMtDT0=    0
 Symmetry not used in FoFCou.
 E= -531.557674773842    
 DIIS: error= 4.28D-02 at cycle   1 NSaved=   1.
 NSaved= 1 IEnMin= 1 EnMin= -531.557674773842     IErMin= 1 ErrMin= 4.28D-02
 ErrMax= 4.28D-02  0.00D+00 EMaxC= 1.00D-01 BMatC= 5.66D-01 BMatP= 5.66D-01
 IDIUse=3 WtCom= 5.72D-01 WtEn= 4.28D-01
 Coeff-Com:  0.100D+01
 Coeff-En:   0.100D+01
 Coeff:      0.100D+01
 Gap=     0.315 Goal=   None    Shift=    0.000
 GapD=    0.315 DampG=1.000 DampE=0.500 DampFc=0.5000 IDamp=-1.
 Damping current iteration by 5.00D-01
 RMSDP=7.46D-03 MaxDP=9.53D-01              OVMax= 1.94D-01

 Cycle   2  Pass 1  IDiag  1:
 RMSU=  3.65D-03    CP:  1.07D+00
 E= -531.716396655744     Delta-E=       -0.158721881902 Rises=F Damp=T
 DIIS: error= 8.24D-03 at cycle   2 NSaved=   2.
 NSaved= 2 IEnMin= 2 EnMin= -531.716396655744     IErMin= 2 ErrMin= 8.24D-03
 ErrMax= 8.24D-03  0.00D+00 EMaxC= 1.00D-01 BMatC= 3.17D-02 BMatP= 5.66D-01
 IDIUse=3 WtCom= 9.18D-01 WtEn= 8.24D-02
 Coeff-Com:  0.249D-01 0.975D+00
 Coeff-En:   0.982D-01 0.902D+00
 Coeff:      0.309D-01 0.969D+00
 Gap=     0.338 Goal=   None    Shift=    0.000
 RMSDP=1.89D-03 MaxDP=2.98D-01 DE=-1.59D-01 OVMax= 1.17D-01

 Cycle   3  Pass 1  IDiag  1:
 RMSU=  1.10D-03    CP:  1.02D+00  6.05D-01
 E= -531.907184794541     Delta-E=       -0.190788138797 Rises=F Damp=F
 DIIS: error= 4.98D-03 at cycle   3 NSaved=   3.
 NSaved= 3 IEnMin= 3 EnMin= -531.907184794541     IErMin= 3 ErrMin= 4.98D-03
 ErrMax= 4.98D-03  0.00D+00 EMaxC= 1.00D-01 BMatC= 5.62D-03 BMatP= 3.17D-02
 IDIUse=3 WtCom= 9.50D-01 WtEn= 4.98D-02
 Coeff-Com: -0.472D-01 0.235D+00 0.813D+00
 Coeff-En:   0.000D+00 0.000D+00 0.100D+01
 Coeff:     -0.448D-01 0.223D+00 0.822D+00
 Gap=     0.293 Goal=   None    Shift=    0.000
 RMSDP=3.18D-04 MaxDP=1.21D-02 DE=-1.91D-01 OVMax= 2.34D-02

 Cycle   4  Pass 1  IDiag  1:
 RMSU=  2.70D-04    CP:  1.02D+00  6.50D-01  9.98D-01
 E= -531.910141201534     Delta-E=       -0.002956406993 Rises=F Damp=F
 DIIS: error= 2.21D-03 at cycle   4 NSaved=   4.
 NSaved= 4 IEnMin= 4 EnMin= -531.910141201534     IErMin= 4 ErrMin= 2.21D-03
 ErrMax= 2.21D-03  0.00D+00 EMaxC= 1.00D-01 BMatC= 1.68D-03 BMatP= 5.62D-03
 IDIUse=3 WtCom= 9.78D-01 WtEn= 2.21D-02
 Coeff-Com: -0.244D-01 0.622D-01 0.423D+00 0.539D+00
 Coeff-En:   0.000D+00 0.000D+00 0.205D+00 0.795D+00
 Coeff:     -0.238D-01 0.609D-01 0.418D+00 0.545D+00
 Gap=     0.287 Goal=   None    Shift=    0.000
 RMSDP=1.43D-04 MaxDP=1.00D-02 DE=-2.96D-03 OVMax= 1.06D-02

 Cycle   5  Pass 1  IDiag  1:
 RMSU=  8.72D-05    CP:  1.02D+00  6.29D-01  1.02D+00  7.28D-01
 E= -531.911461327273     Delta-E=       -0.001320125739 Rises=F Damp=F
 DIIS: error= 5.79D-04 at cycle   5 NSaved=   5.
 NSaved= 5 IEnMin= 5 EnMin= -531.911461327273     IErMin= 5 ErrMin= 5.79D-04
 ErrMax= 5.79D-04  0.00D+00 EMaxC= 1.00D-01 BMatC= 9.65D-05 BMatP= 1.68D-03
 IDIUse=3 WtCom= 9.94D-01 WtEn= 5.79D-03
 Coeff-Com: -0.843D-02 0.154D-01 0.152D+00 0.265D+00 0.576D+00
 Coeff-En:   0.000D+00 0.000D+00 0.000D+00 0.000D+00 0.100D+01
 Coeff:     -0.838D-02 0.153D-01 0.151D+00 0.264D+00 0.579D+00
 Gap=     0.285 Goal=   None    Shift=    0.000
 RMSDP=3.62D-05 MaxDP=1.42D-03 DE=-1.32D-03 OVMax= 3.39D-03

 Cycle   6  Pass 1  IDiag  1:
 RMSU=  2.80D-05    CP:  1.02D+00  6.29D-01  1.02D+00  7.09D-01  7.48D-01
 E= -531.911540227616     Delta-E=       -0.000078900343 Rises=F Damp=F
 DIIS: error= 1.79D-04 at cycle   6 NSaved=   6.
 NSaved= 6 IEnMin= 6 EnMin= -531.911540227616     IErMin= 6 ErrMin= 1.79D-04
 ErrMax= 1.79D-04  0.00D+00 EMaxC= 1.00D-01 BMatC= 9.60D-06 BMatP= 9.65D-05
 IDIUse=3 WtCom= 9.98D-01 WtEn= 1.79D-03
 Coeff-Com: -0.133D-02 0.571D-03 0.271D-01 0.640D-01 0.275D+00 0.634D+00
 Coeff-En:   0.000D+00 0.000D+00 0.000D+00 0.000D+00 0.000D+00 0.100D+01
 Coeff:     -0.133D-02 0.570D-03 0.271D-01 0.638D-01 0.275D+00 0.635D+00
 Gap=     0.286 Goal=   None    Shift=    0.000
 RMSDP=1.26D-05 MaxDP=1.04D-03 DE=-7.89D-05 OVMax= 7.74D-04

 Cycle   7  Pass 1  IDiag  1:
 RMSU=  8.26D-06    CP:  1.02D+00  6.28D-01  1.03D+00  7.21D-01  8.11D-01
                    CP:  8.25D-01
 E= -531.911548609076     Delta-E=       -0.000008381460 Rises=F Damp=F
 DIIS: error= 3.52D-05 at cycle   7 NSaved=   7.
 NSaved= 7 IEnMin= 7 EnMin= -531.911548609076     IErMin= 7 ErrMin= 3.52D-05
 ErrMax= 3.52D-05  0.00D+00 EMaxC= 1.00D-01 BMatC= 4.77D-07 BMatP= 9.60D-06
 IDIUse=1 WtCom= 1.00D+00 WtEn= 0.00D+00
 Coeff-Com:  0.718D-03-0.172D-02-0.110D-01-0.174D-01 0.384D-03 0.151D+00
 Coeff-Com:  0.878D+00
 Coeff:      0.718D-03-0.172D-02-0.110D-01-0.174D-01 0.384D-03 0.151D+00
 Coeff:      0.878D+00
 Gap=     0.286 Goal=   None    Shift=    0.000
 RMSDP=7.53D-06 MaxDP=9.35D-04 DE=-8.38D-06 OVMax= 2.82D-04

 Cycle   8  Pass 1  IDiag  1:
 RMSU=  2.70D-06    CP:  1.02D+00  6.26D-01  1.03D+00  7.21D-01  8.26D-01
                    CP:  9.06D-01  1.12D+00
 E= -531.911549050288     Delta-E=       -0.000000441212 Rises=F Damp=F
 DIIS: error= 1.64D-05 at cycle   8 NSaved=   8.
 NSaved= 8 IEnMin= 8 EnMin= -531.911549050288     IErMin= 8 ErrMin= 1.64D-05
 ErrMax= 1.64D-05  0.00D+00 EMaxC= 1.00D-01 BMatC= 1.54D-07 BMatP= 4.77D-07
 IDIUse=1 WtCom= 1.00D+00 WtEn= 0.00D+00
 Coeff-Com:  0.486D-03-0.894D-03-0.811D-02-0.152D-01-0.264D-01 0.598D-02
 Coeff-Com:  0.439D+00 0.606D+00
 Coeff:      0.486D-03-0.894D-03-0.811D-02-0.152D-01-0.264D-01 0.598D-02
 Coeff:      0.439D+00 0.606D+00
 Gap=     0.286 Goal=   None    Shift=    0.000
 RMSDP=1.66D-06 MaxDP=1.50D-04 DE=-4.41D-07 OVMax= 9.70D-05

 Cycle   9  Pass 1  IDiag  1:
 RMSU=  8.35D-07    CP:  1.02D+00  6.26D-01  1.03D+00  7.21D-01  8.34D-01
                    CP:  9.21D-01  1.18D+00  7.88D-01
 E= -531.911549181629     Delta-E=       -0.000000131341 Rises=F Damp=F
 DIIS: error= 2.99D-06 at cycle   9 NSaved=   9.
 NSaved= 9 IEnMin= 9 EnMin= -531.911549181629     IErMin= 9 ErrMin= 2.99D-06
 ErrMax= 2.99D-06  0.00D+00 EMaxC= 1.00D-01 BMatC= 2.58D-09 BMatP= 1.54D-07
 IDIUse=1 WtCom= 1.00D+00 WtEn= 0.00D+00
 Coeff-Com: -0.265D-04 0.604D-04 0.138D-03-0.197D-03-0.135D-02-0.122D-01
 Coeff-Com: -0.197D-01 0.498D-01 0.983D+00
 Coeff:     -0.265D-04 0.604D-04 0.138D-03-0.197D-03-0.135D-02-0.122D-01
 Coeff:     -0.197D-01 0.498D-01 0.983D+00
 Gap=     0.286 Goal=   None    Shift=    0.000
 RMSDP=3.94D-07 MaxDP=1.26D-05 DE=-1.31D-07 OVMax= 2.88D-05

 Cycle  10  Pass 1  IDiag  1:
 RMSU=  2.53D-07    CP:  1.02D+00  6.26D-01  1.03D+00  7.21D-01  8.34D-01
                    CP:  9.22D-01  1.21D+00  8.53D-01  1.10D+00
 E= -531.911549184657     Delta-E=       -0.000000003028 Rises=F Damp=F
 DIIS: error= 2.15D-06 at cycle  10 NSaved=  10.
 NSaved=10 IEnMin=10 EnMin= -531.911549184657     IErMin=10 ErrMin= 2.15D-06
 ErrMax= 2.15D-06  0.00D+00 EMaxC= 1.00D-01 BMatC= 9.74D-10 BMatP= 2.58D-09
 IDIUse=1 WtCom= 1.00D+00 WtEn= 0.00D+00
 Coeff-Com: -0.467D-04 0.930D-04 0.618D-03 0.905D-03 0.124D-02-0.688D-02
 Coeff-Com: -0.391D-01-0.171D-01 0.490D+00 0.570D+00
 Coeff:     -0.467D-04 0.930D-04 0.618D-03 0.905D-03 0.124D-02-0.688D-02
 Coeff:     -0.391D-01-0.171D-01 0.490D+00 0.570D+00
 Gap=     0.286 Goal=   None    Shift=    0.000
 RMSDP=1.49D-07 MaxDP=1.73D-05 DE=-3.03D-09 OVMax= 1.39D-05

 Cycle  11  Pass 1  IDiag  1:
 RMSU=  7.18D-08    CP:  1.02D+00  6.26D-01  1.03D+00  7.21D-01  8.34D-01
                    CP:  9.22D-01  1.21D+00  8.60D-01  1.17D+00  8.02D-01
 E= -531.911549185604     Delta-E=       -0.000000000947 Rises=F Damp=F
 DIIS: error= 4.17D-07 at cycle  11 NSaved=  11.
 NSaved=11 IEnMin=11 EnMin= -531.911549185604     IErMin=11 ErrMin= 4.17D-07
 ErrMax= 4.17D-07  0.00D+00 EMaxC= 1.00D-01 BMatC= 4.75D-11 BMatP= 9.74D-10
 IDIUse=1 WtCom= 1.00D+00 WtEn= 0.00D+00
 Coeff-Com: -0.661D-05 0.134D-04 0.121D-03 0.201D-03 0.455D-03-0.617D-03
 Coeff-Com: -0.685D-02-0.108D-01-0.661D-02 0.150D+00 0.874D+00
 Coeff:     -0.661D-05 0.134D-04 0.121D-03 0.201D-03 0.455D-03-0.617D-03
 Coeff:     -0.685D-02-0.108D-01-0.661D-02 0.150D+00 0.874D+00
 Gap=     0.286 Goal=   None    Shift=    0.000
 RMSDP=3.76D-08 MaxDP=1.38D-06 DE=-9.47D-10 OVMax= 3.15D-06

 Cycle  12  Pass 1  IDiag  1:
 RMSU=  2.70D-08    CP:  1.02D+00  6.26D-01  1.03D+00  7.21D-01  8.34D-01
                    CP:  9.22D-01  1.21D+00  8.64D-01  1.18D+00  8.66D-01
                    CP:  1.02D+00
 E= -531.911549185682     Delta-E=       -0.000000000078 Rises=F Damp=F
 DIIS: error= 1.44D-07 at cycle  12 NSaved=  12.
 NSaved=12 IEnMin=12 EnMin= -531.911549185682     IErMin=12 ErrMin= 1.44D-07
 ErrMax= 1.44D-07  0.00D+00 EMaxC= 1.00D-01 BMatC= 3.26D-12 BMatP= 4.75D-11
 IDIUse=1 WtCom= 1.00D+00 WtEn= 0.00D+00
 Coeff-Com:  0.218D-05-0.403D-05-0.131D-04-0.226D-04 0.354D-04 0.304D-03
 Coeff-Com:  0.131D-02-0.122D-02-0.364D-01-0.286D-02 0.222D+00 0.817D+00
 Coeff:      0.218D-05-0.403D-05-0.131D-04-0.226D-04 0.354D-04 0.304D-03
 Coeff:      0.131D-02-0.122D-02-0.364D-01-0.286D-02 0.222D+00 0.817D+00
 Gap=     0.286 Goal=   None    Shift=    0.000
 RMSDP=1.11D-08 MaxDP=4.46D-07 DE=-7.78D-11 OVMax= 1.52D-06

 Cycle  13  Pass 1  IDiag  1:
 RMSU=  7.50D-09    CP:  1.02D+00  6.26D-01  1.03D+00  7.21D-01  8.34D-01
                    CP:  9.22D-01  1.21D+00  8.64D-01  1.19D+00  8.83D-01
                    CP:  1.10D+00  1.01D+00
 E= -531.911549185683     Delta-E=       -0.000000000001 Rises=F Damp=F
 DIIS: error= 5.96D-08 at cycle  13 NSaved=  13.
 NSaved=13 IEnMin=13 EnMin= -531.911549185683     IErMin=13 ErrMin= 5.96D-08
 ErrMax= 5.96D-08  0.00D+00 EMaxC= 1.00D-01 BMatC= 7.70D-13 BMatP= 3.26D-12
 IDIUse=1 WtCom= 1.00D+00 WtEn= 0.00D+00
 Coeff-Com:  0.172D-05-0.332D-05-0.169D-04-0.291D-04-0.194D-04 0.235D-03
 Coeff-Com:  0.129D-02 0.464D-03-0.174D-01-0.190D-01 0.570D-03 0.355D+00
 Coeff-Com:  0.679D+00
 Coeff:      0.172D-05-0.332D-05-0.169D-04-0.291D-04-0.194D-04 0.235D-03
 Coeff:      0.129D-02 0.464D-03-0.174D-01-0.190D-01 0.570D-03 0.355D+00
 Coeff:      0.679D+00
 Gap=     0.286 Goal=   None    Shift=    0.000
 RMSDP=3.86D-09 MaxDP=2.14D-07 DE=-1.14D-12 OVMax= 2.26D-07

 SCF Done:  E(RM062X) =  -531.911549186     A.U. after   13 cycles
            NFock= 13  Conv=0.39D-08     -V/T= 2.0037
 KE= 5.299305197908D+02 PE=-2.193661351434D+03 EE= 6.597121479660D+02
 Leave Link  502 at Fri Feb 17 21:39:38 2023, MaxMem=  6710886400 cpu:             618.8 elap:              25.9
 (Enter /data0/home/software/g16/l601.exe)
 Copying SCF densities to generalized density rwf, IOpCl= 0 IROHF=0.

 **********************************************************************

            Population analysis using the SCF density.

 **********************************************************************

 Alpha  occ. eigenvalues --  -19.68829 -19.65534 -19.59230 -19.56801 -14.81228
 Alpha  occ. eigenvalues --  -14.75085 -10.61828 -10.58551 -10.57129  -1.19931
 Alpha  occ. eigenvalues --   -1.16782  -1.12547  -1.10287  -1.07614  -0.97930
 Alpha  occ. eigenvalues --   -0.84853  -0.71130  -0.68108  -0.67007  -0.65475
 Alpha  occ. eigenvalues --   -0.64706  -0.58596  -0.55713  -0.55073  -0.53230
 Alpha  occ. eigenvalues --   -0.51868  -0.51218  -0.49798  -0.49364  -0.46011
 Alpha  occ. eigenvalues --   -0.44911  -0.43736  -0.42944  -0.37173  -0.35690
 Alpha  occ. eigenvalues --   -0.35312  -0.34277  -0.29767
 Alpha virt. eigenvalues --   -0.01184   0.01395   0.02202   0.03076   0.04118
 Alpha virt. eigenvalues --    0.04504   0.05157   0.05921   0.06401   0.07684
 Alpha virt. eigenvalues --    0.08559   0.08886   0.10168   0.11597   0.12415
 Alpha virt. eigenvalues --    0.12791   0.13652   0.14764   0.15565   0.16387
 Alpha virt. eigenvalues --    0.17047   0.17397   0.18817   0.19388   0.19610
 Alpha virt. eigenvalues --    0.19902   0.20646   0.21268   0.21769   0.22400
 Alpha virt. eigenvalues --    0.23274   0.23726   0.24358   0.25024   0.25244
 Alpha virt. eigenvalues --    0.25469   0.26311   0.26426   0.27365   0.27674
 Alpha virt. eigenvalues --    0.28313   0.28843   0.29479   0.30873   0.31516
 Alpha virt. eigenvalues --    0.33359   0.34359   0.35337   0.37540   0.38517
 Alpha virt. eigenvalues --    0.41146   0.43147   0.43852   0.44201   0.47312
 Alpha virt. eigenvalues --    0.48319   0.49361   0.53473   0.54741   0.55434
 Alpha virt. eigenvalues --    0.55992   0.57881   0.58842   0.60347   0.60702
 Alpha virt. eigenvalues --    0.62241   0.62893   0.64089   0.65429   0.67026
 Alpha virt. eigenvalues --    0.68237   0.69986   0.70478   0.71326   0.73596
 Alpha virt. eigenvalues --    0.76333   0.77854   0.79412   0.79828   0.82050
 Alpha virt. eigenvalues --    0.83025   0.85532   0.88551   0.88962   0.93294
 Alpha virt. eigenvalues --    0.94002   0.94280   0.96002   0.97683   0.99025
 Alpha virt. eigenvalues --    0.99638   1.00390   1.03983   1.06083   1.06228
 Alpha virt. eigenvalues --    1.07357   1.09496   1.10384   1.10990   1.11556
 Alpha virt. eigenvalues --    1.12251   1.14533   1.14892   1.15568   1.17706
 Alpha virt. eigenvalues --    1.20008   1.20817   1.22978   1.23693   1.25500
 Alpha virt. eigenvalues --    1.26835   1.28126   1.30927   1.32426   1.32943
 Alpha virt. eigenvalues --    1.34029   1.35536   1.37078   1.37827   1.38302
 Alpha virt. eigenvalues --    1.39678   1.41049   1.42845   1.45160   1.45935
 Alpha virt. eigenvalues --    1.46505   1.46850   1.48614   1.50595   1.51603
 Alpha virt. eigenvalues --    1.54330   1.57400   1.59884   1.64159   1.68023
 Alpha virt. eigenvalues --    1.69479   1.71079   1.71460   1.73261   1.74166
 Alpha virt. eigenvalues --    1.75456   1.77597   1.79604   1.80189   1.81057
 Alpha virt. eigenvalues --    1.84017   1.87510   1.90479   1.91750   1.93358
 Alpha virt. eigenvalues --    1.95204   1.99175   2.01414   2.03424   2.08960
 Alpha virt. eigenvalues --    2.09999   2.10394   2.13294   2.14175   2.15017
 Alpha virt. eigenvalues --    2.19555   2.22353   2.23467   2.25172   2.28437
 Alpha virt. eigenvalues --    2.31920   2.34770   2.41700   2.42560   2.44273
 Alpha virt. eigenvalues --    2.44916   2.48808   2.50992   2.53394   2.54320
 Alpha virt. eigenvalues --    2.56325   2.58741   2.61644   2.62215   2.66794
 Alpha virt. eigenvalues --    2.67750   2.70748   2.74069   2.79043   2.80445
 Alpha virt. eigenvalues --    2.85018   2.86503   2.88222   2.92055   2.93378
 Alpha virt. eigenvalues --    2.95995   2.99283   2.99929   3.00775   3.01733
 Alpha virt. eigenvalues --    3.10369   3.11319   3.14552   3.16428   3.21211
 Alpha virt. eigenvalues --    3.26178   3.30000   3.34143   3.35021   3.38794
 Alpha virt. eigenvalues --    3.40539   3.43856   3.45442   3.47238   3.54610
 Alpha virt. eigenvalues --    3.58916   3.61149   3.65428   3.69133   3.70256
 Alpha virt. eigenvalues --    3.74478   3.95559   3.98551   3.99822   4.02822
 Alpha virt. eigenvalues --    4.06561   4.49128   4.61101   4.90499   4.98213
 Alpha virt. eigenvalues --    4.99431   5.01496   5.04942   5.06001   5.07228
 Alpha virt. eigenvalues --    5.10021   5.13121   5.15153   5.16126   5.22252
 Alpha virt. eigenvalues --    5.26976   5.34810   5.45823   5.47382   5.53667
 Alpha virt. eigenvalues --    5.55859   5.57451   5.61314   5.63234   5.85572
 Alpha virt. eigenvalues --    5.93439   6.00036   6.01862   6.74640   6.75511
 Alpha virt. eigenvalues --    6.80277   6.83135   6.84106   6.84347   6.84883
 Alpha virt. eigenvalues --    6.86352   6.86370   6.87525   6.94541   6.94837
 Alpha virt. eigenvalues --    6.97757   6.98261   6.99627   7.00578   7.04650
 Alpha virt. eigenvalues --    7.18297   7.19553   7.20147  23.90997  24.08455
 Alpha virt. eigenvalues --   24.13143  35.65412  35.70642  49.93371  50.01817
 Alpha virt. eigenvalues --   50.04917  50.06047
          Condensed to atoms (all electrons):
               1          2          3          4          5          6
     1  C    6.766814  -0.616683  -0.435543  -0.047566  -0.028580   0.379777
     2  C   -0.616683   6.027068  -0.026433   0.101994   0.017753  -0.005872
     3  C   -0.435543  -0.026433   5.287100   0.319497  -0.015564   0.014387
     4  N   -0.047566   0.101994   0.319497   6.703392   0.350724  -0.030607
     5  H   -0.028580   0.017753  -0.015564   0.350724   0.366642  -0.002374
     6  H    0.379777  -0.005872   0.014387  -0.030607  -0.002374   0.488421
     7  H   -0.055468   0.432697   0.014121   0.008140   0.000029  -0.000595
     8  H    0.005996   0.014401   0.424935  -0.052268  -0.000657  -0.000060
     9  N    0.190372   0.102198   0.413471  -0.082505  -0.001794   0.005942
    10  O    0.034179  -0.008477   0.003987  -0.077905  -0.022632   0.001070
    11  H    0.008110  -0.003135  -0.006432   0.003500   0.002310  -0.000018
    12  H   -0.010139   0.004106   0.003392   0.008677   0.001153   0.000041
    13  O   -0.006743   0.001634   0.009186  -0.001310  -0.003665   0.000006
    14  H    0.002386  -0.000530  -0.000679   0.000001   0.000179  -0.000002
    15  H    0.001331  -0.000512  -0.000942  -0.000468   0.000200  -0.000000
    16  O    0.002120  -0.000259   0.008857   0.026631  -0.003371  -0.002602
    17  H    0.009838  -0.007119  -0.002900   0.008040  -0.000239  -0.000413
    18  H    0.002120  -0.004862  -0.010080   0.016812  -0.003372  -0.000034
    19  O   -0.007031   0.012614   0.002730   0.001683   0.000024   0.000012
    20  H   -0.002566   0.008051  -0.010541   0.001709   0.000003  -0.000001
    21  H    0.001740   0.001393  -0.009938  -0.001051  -0.000009   0.000002
               7          8          9         10         11         12
     1  C   -0.055468   0.005996   0.190372   0.034179   0.008110  -0.010139
     2  C    0.432697   0.014401   0.102198  -0.008477  -0.003135   0.004106
     3  C    0.014121   0.424935   0.413471   0.003987  -0.006432   0.003392
     4  N    0.008140  -0.052268  -0.082505  -0.077905   0.003500   0.008677
     5  H    0.000029  -0.000657  -0.001794  -0.022632   0.002310   0.001153
     6  H   -0.000595  -0.000060   0.005942   0.001070  -0.000018   0.000041
     7  H    0.512547  -0.000054  -0.047803  -0.000016   0.000000  -0.000001
     8  H   -0.000054   0.505162  -0.038867   0.000647  -0.000104   0.000008
     9  N   -0.047803  -0.038867   6.835954   0.003534   0.000667  -0.000150
    10  O   -0.000016   0.000647   0.003534   8.290388   0.282994   0.288924
    11  H    0.000000  -0.000104   0.000667   0.282994   0.344052  -0.017871
    12  H   -0.000001   0.000008  -0.000150   0.288924  -0.017871   0.383712
    13  O    0.000000  -0.000234  -0.000927   0.027565  -0.090807   0.015309
    14  H   -0.000000   0.000505   0.000464  -0.001773   0.005878  -0.000482
    15  H   -0.000000   0.000022   0.000073  -0.002443   0.006440  -0.001807
    16  O   -0.000145  -0.000142  -0.004647  -0.004289  -0.002141  -0.001521
    17  H   -0.000200  -0.000059   0.000651   0.001920  -0.000041  -0.000120
    18  H    0.000028  -0.000284   0.000582  -0.021650   0.000915   0.000706
    19  O    0.000708  -0.000099  -0.037840  -0.000001   0.000006   0.000001
    20  H    0.000086   0.000142   0.015822   0.000005  -0.000001   0.000000
    21  H   -0.000418   0.000064   0.034846   0.000044  -0.000002   0.000000
              13         14         15         16         17         18
     1  C   -0.006743   0.002386   0.001331   0.002120   0.009838   0.002120
     2  C    0.001634  -0.000530  -0.000512  -0.000259  -0.007119  -0.004862
     3  C    0.009186  -0.000679  -0.000942   0.008857  -0.002900  -0.010080
     4  N   -0.001310   0.000001  -0.000468   0.026631   0.008040   0.016812
     5  H   -0.003665   0.000179   0.000200  -0.003371  -0.000239  -0.003372
     6  H    0.000006  -0.000002  -0.000000  -0.002602  -0.000413  -0.000034
     7  H    0.000000  -0.000000  -0.000000  -0.000145  -0.000200   0.000028
     8  H   -0.000234   0.000505   0.000022  -0.000142  -0.000059  -0.000284
     9  N   -0.000927   0.000464   0.000073  -0.004647   0.000651   0.000582
    10  O    0.027565  -0.001773  -0.002443  -0.004289   0.001920  -0.021650
    11  H   -0.090807   0.005878   0.006440  -0.002141  -0.000041   0.000915
    12  H    0.015309  -0.000482  -0.001807  -0.001521  -0.000120   0.000706
    13  O    8.048370   0.305952   0.311525   0.003606   0.000279  -0.003543
    14  H    0.305952   0.392654  -0.015483  -0.001545  -0.000081  -0.000110
    15  H    0.311525  -0.015483   0.386917  -0.001011  -0.000032   0.000350
    16  O    0.003606  -0.001545  -0.001011   7.945751   0.321562   0.304790
    17  H    0.000279  -0.000081  -0.000032   0.321562   0.385612  -0.027630
    18  H   -0.003543  -0.000110   0.000350   0.304790  -0.027630   0.396739
    19  O   -0.000025   0.000008   0.000000   0.000112  -0.000043   0.000042
    20  H    0.000002  -0.000001  -0.000000   0.000014   0.000001  -0.000003
    21  H   -0.000004   0.000008   0.000000  -0.000249  -0.000095  -0.000024
              19         20         21
     1  C   -0.007031  -0.002566   0.001740
     2  C    0.012614   0.008051   0.001393
     3  C    0.002730  -0.010541  -0.009938
     4  N    0.001683   0.001709  -0.001051
     5  H    0.000024   0.000003  -0.000009
     6  H    0.000012  -0.000001   0.000002
     7  H    0.000708   0.000086  -0.000418
     8  H   -0.000099   0.000142   0.000064
     9  N   -0.037840   0.015822   0.034846
    10  O   -0.000001   0.000005   0.000044
    11  H    0.000006  -0.000001  -0.000002
    12  H    0.000001   0.000000   0.000000
    13  O   -0.000025   0.000002  -0.000004
    14  H    0.000008  -0.000001   0.000008
    15  H    0.000000  -0.000000   0.000000
    16  O    0.000112   0.000014  -0.000249
    17  H   -0.000043   0.000001  -0.000095
    18  H    0.000042  -0.000003  -0.000024
    19  O    8.008156   0.302627   0.314663
    20  H    0.302627   0.466399  -0.030455
    21  H    0.314663  -0.030455   0.315060
 Mulliken charges:
               1
     1  C   -0.194464
     2  C   -0.050028
     3  C    0.017387
     4  N   -0.257122
     5  H    0.343242
     6  H    0.152920
     7  H    0.136344
     8  H    0.140946
     9  N   -0.390043
    10  O   -0.796072
    11  H    0.465680
    12  H    0.326063
    13  O   -0.616176
    14  H    0.312650
    15  H    0.315839
    16  O   -0.591523
    17  H    0.311066
    18  H    0.348507
    19  O   -0.598347
    20  H    0.248705
    21  H    0.374425
 Sum of Mulliken charges =  -0.00000
 Mulliken charges with hydrogens summed into heavy atoms:
               1
     1  C   -0.041544
     2  C    0.086317
     3  C    0.158333
     4  N    0.086120
     9  N   -0.390043
    10  O   -0.004329
    13  O    0.012313
    16  O    0.068051
    19  O    0.024783
         Mulliken charges condensed to fragments:
      1     -0.100818
      2     -0.004329
      3      0.012313
      4      0.068051
      5      0.024783
 Electronic spatial extent (au):  <R**2>=          62669.3056
 Charge=             -0.0000 electrons
 Dipole moment (field-independent basis, Debye):
    X=             -5.8252    Y=              3.4962    Z=             -3.1528  Tot=              7.4898
 Quadrupole moment (field-independent basis, Debye-Ang):
   XX=           -128.8243   YY=             10.3956   ZZ=           -139.0993
   XY=            -23.0813   XZ=            -88.4128   YZ=             19.6547
 Traceless Quadrupole moment (field-independent basis, Debye-Ang):
   XX=            -42.9816   YY=             96.2382   ZZ=            -53.2567
   XY=            -23.0813   XZ=            -88.4128   YZ=             19.6547
 Octapole moment (field-independent basis, Debye-Ang**2):
  XXX=          -1569.6796  YYY=           -271.4850  ZZZ=          -3671.3573  XYY=           -211.7224
  XXY=           -821.8619  XXZ=          -1696.4482  XZZ=          -1672.8785  YZZ=           -454.4629
  YYZ=            -67.2926  XYZ=           -401.0088
 Hexadecapole moment (field-independent basis, Debye-Ang**3):
 XXXX=         -15627.4316 YYYY=          -6698.4641 ZZZZ=         -78834.2545 XXXY=         -10595.6176
 XXXZ=         -20372.9286 YYYX=          -2744.3589 YYYZ=          -5015.5459 ZZZX=         -32439.6978
 ZZZY=         -18805.0922 XXYY=          -6246.3207 XXZZ=         -24851.8687 YYZZ=          -6198.3101
 XXYZ=         -10789.9769 YYXZ=          -3605.4253 ZZXY=          -8898.9231
 N-N= 4.721071344911D+02 E-N=-2.193661354020D+03  KE= 5.299305197908D+02
 No NMR shielding tensors so no spin-rotation constants.
 Leave Link  601 at Fri Feb 17 21:39:38 2023, MaxMem=  6710886400 cpu:               2.5 elap:               0.1
 (Enter /data0/home/software/g16/l122.exe)
 CPIOFr:  IOpCl= 0 IRwI=-1 IRwCP=  731 ICalc= -1 LCPTot=      154853 Len1MO=      403729 IndFrg=      154853
 CPIOFr:  IOpCl= 0 IRwI=-1 IRwCP=  731 ICalc=  0 LCPTot=      154853 Len1MO=      403729 IndFrg=      558582
 Counterpoise: doing calculation for fragment   1 using the basis set of the full-system, NewBq=T
 Leave Link  122 at Fri Feb 17 21:39:38 2023, MaxMem=  6710886400 cpu:               0.2 elap:               0.0
 (Enter /data0/home/software/g16/l301.exe)
 Basis read from rwf:  (5D, 7F)
 No pseudopotential information found on rwf file.
   315 basis functions,   474 primitive gaussians,   333 cartesian basis functions
    18 alpha electrons       18 beta electrons
       nuclear repulsion energy       160.9616343537 Hartrees.
 IExCor= 4336 DFT=T Ex+Corr=M062X ExCW=0 ScaHFX=  0.540000
 ScaDFX=  1.000000  1.000000  1.000000  1.000000 ScalE2=  1.000000  1.000000
 IRadAn=      5 IRanWt=     -1 IRanGd=            0 ICorTp=0 IEmpDi=131
 NAtoms=   21 NActive=   21 NUniq=   21 SFac= 1.00D+00 NAtFMM=   60 NAOKFM=F Big=F
 Integral buffers will be    131072 words long.
 Raffenetti 2 integral format.
 Two-electron integral symmetry is turned off.
 R6Disp:  Grimme-D3 Dispersion energy=       -0.0000418210 Hartrees.
 Nuclear repulsion after empirical dispersion term =      160.9615925326 Hartrees.
 No density basis found on file   718.
 Leave Link  301 at Fri Feb 17 21:39:38 2023, MaxMem=  6710886400 cpu:               1.3 elap:               0.1
 (Enter /data0/home/software/g16/l302.exe)
 NPDir=0 NMtPBC=     1 NCelOv=     1 NCel=       1 NClECP=     1 NCelD=      1
         NCelK=      1 NCelE2=     1 NClLst=     1 CellRange=     0.0.
 One-electron integrals computed using PRISM.
 NBasis=   315 RedAO= T EigKep=  3.61D-05  NBF=   315
 NBsUse=   315 1.00D-06 EigRej= -1.00D+00 NBFU=   315
 Precomputing XC quadrature grid using
 IXCGrd= 4 IRadAn=           5 IRanWt=          -1 IRanGd=           0 AccXCQ= 0.00D+00.
 Generated NRdTot=       0 NPtTot=           0 NUsed=           0 NTot=          32
 NSgBfM=   333   333   333   333   333 MxSgAt=    21 MxSgA2=    21.
 Leave Link  302 at Fri Feb 17 21:39:39 2023, MaxMem=  6710886400 cpu:               5.2 elap:               0.2
 (Enter /data0/home/software/g16/l303.exe)
 DipDrv:  MaxL=1.
 Leave Link  303 at Fri Feb 17 21:39:39 2023, MaxMem=  6710886400 cpu:               0.7 elap:               0.0
 (Enter /data0/home/software/g16/l401.exe)
 ExpMin= 4.38D-02 ExpMax= 8.59D+03 ExpMxC= 1.30D+03 IAcc=3 IRadAn=         5 AccDes= 0.00D+00
 Harris functional with IExCor= 1009 and IRadAn=       5 diagonalized for initial guess.
 HarFok:  IExCor= 1009 AccDes= 0.00D+00 IRadAn=         5 IDoV= 1 UseB2=F ITyADJ=14
 ICtDFT=  3500011 ScaDFX=  1.000000  1.000000  1.000000  1.000000
 FoFCou: FMM=F IPFlag=           0 FMFlag=      100000 FMFlg1=           0
         NFxFlg=           0 DoJE=T BraDBF=F KetDBF=T FulRan=T
         wScrn=  0.000000 ICntrl=       500 IOpCl=  0 I1Cent=   200000004 NGrid=           0
         NMat0=    1 NMatS0=      1 NMatT0=    0 NMatD0=    1 NMtDS0=    0 NMtDT0=    0
 Symmetry not used in FoFCou.
 Harris En= -226.054147993298    
 JPrj=0 DoOrth=F DoCkMO=F.
 Leave Link  401 at Fri Feb 17 21:39:39 2023, MaxMem=  6710886400 cpu:              18.4 elap:               0.8
 (Enter /data0/home/software/g16/l502.exe)
 Two-electron integral symmetry not used.
 Closed shell SCF:
 Using DIIS extrapolation, IDIIS=  1040.
 NGot=  6710886400 LenX=  6710654184 LenY=  6710542854
 Requested convergence on RMS density matrix=1.00D-08 within 128 cycles.
 Requested convergence on MAX density matrix=1.00D-06.
 Requested convergence on             energy=1.00D-06.
 No special actions if energy rises.
 Fock matrices will be formed incrementally for  20 cycles.

 Cycle   1  Pass 1  IDiag  1:
 FoFJK:  IHMeth= 1 ICntrl=       0 DoSepK=F KAlg= 0 I1Cent=           0 FoldK=F
 IRaf= 890000000 NMat=       1 IRICut=       1 DoRegI=T DoRafI=F ISym2E= 0 IDoP0=0 IntGTp=1.
 FoFCou: FMM=F IPFlag=           0 FMFlag=      100000 FMFlg1=           0
         NFxFlg=           0 DoJE=F BraDBF=F KetDBF=F FulRan=T
         wScrn=  0.000000 ICntrl=         0 IOpCl=  0 I1Cent=           0 NGrid=           0
         NMat0=    1 NMatS0=      1 NMatT0=    0 NMatD0=    1 NMtDS0=    0 NMtDT0=    0
 Symmetry not used in FoFCou.
 E= -226.087175421270    
 DIIS: error= 1.69D-02 at cycle   1 NSaved=   1.
 NSaved= 1 IEnMin= 1 EnMin= -226.087175421270     IErMin= 1 ErrMin= 1.69D-02
 ErrMax= 1.69D-02  0.00D+00 EMaxC= 1.00D-01 BMatC= 1.33D-01 BMatP= 1.33D-01
 IDIUse=3 WtCom= 8.31D-01 WtEn= 1.69D-01
 Coeff-Com:  0.100D+01
 Coeff-En:   0.100D+01
 Coeff:      0.100D+01
 Gap=     0.309 Goal=   None    Shift=    0.000
 GapD=    0.309 DampG=1.000 DampE=0.500 DampFc=0.5000 IDamp=-1.
 Damping current iteration by 5.00D-01
 RMSDP=2.94D-03 MaxDP=2.47D-01              OVMax= 1.75D-01

 Cycle   2  Pass 1  IDiag  1:
 RMSU=  1.47D-03    CP:  1.02D+00
 E= -226.134475214494     Delta-E=       -0.047299793224 Rises=F Damp=T
 DIIS: error= 5.16D-03 at cycle   2 NSaved=   2.
 NSaved= 2 IEnMin= 2 EnMin= -226.134475214494     IErMin= 2 ErrMin= 5.16D-03
 ErrMax= 5.16D-03  0.00D+00 EMaxC= 1.00D-01 BMatC= 1.57D-02 BMatP= 1.33D-01
 IDIUse=3 WtCom= 9.48D-01 WtEn= 5.16D-02
 Coeff-Com: -0.932D-01 0.109D+01
 Coeff-En:   0.000D+00 0.100D+01
 Coeff:     -0.884D-01 0.109D+01
 Gap=     0.286 Goal=   None    Shift=    0.000
 RMSDP=8.27D-04 MaxDP=8.25D-02 DE=-4.73D-02 OVMax= 1.16D-01

 Cycle   3  Pass 1  IDiag  1:
 RMSU=  6.67D-04    CP:  9.94D-01  6.85D-01
 E= -226.179431001727     Delta-E=       -0.044955787233 Rises=F Damp=F
 DIIS: error= 5.94D-03 at cycle   3 NSaved=   3.
 NSaved= 3 IEnMin= 3 EnMin= -226.179431001727     IErMin= 2 ErrMin= 5.16D-03
 ErrMax= 5.94D-03  0.00D+00 EMaxC= 1.00D-01 BMatC= 1.04D-02 BMatP= 1.57D-02
 IDIUse=3 WtCom= 9.41D-01 WtEn= 5.94D-02
 Coeff-Com: -0.152D+00 0.541D+00 0.611D+00
 Coeff-En:   0.000D+00 0.000D+00 0.100D+01
 Coeff:     -0.143D+00 0.509D+00 0.634D+00
 Gap=     0.289 Goal=   None    Shift=    0.000
 RMSDP=3.02D-04 MaxDP=1.41D-02 DE=-4.50D-02 OVMax= 4.34D-02

 Cycle   4  Pass 1  IDiag  1:
 RMSU=  2.42D-04    CP:  9.95D-01  7.91D-01  8.65D-01
 E= -226.187304688297     Delta-E=       -0.007873686571 Rises=F Damp=F
 DIIS: error= 2.13D-03 at cycle   4 NSaved=   4.
 NSaved= 4 IEnMin= 4 EnMin= -226.187304688297     IErMin= 4 ErrMin= 2.13D-03
 ErrMax= 2.13D-03  0.00D+00 EMaxC= 1.00D-01 BMatC= 1.44D-03 BMatP= 1.04D-02
 IDIUse=3 WtCom= 9.79D-01 WtEn= 2.13D-02
 Coeff-Com: -0.650D-01 0.161D+00 0.337D+00 0.567D+00
 Coeff-En:   0.000D+00 0.000D+00 0.797D-01 0.920D+00
 Coeff:     -0.636D-01 0.157D+00 0.331D+00 0.575D+00
 Gap=     0.283 Goal=   None    Shift=    0.000
 RMSDP=1.24D-04 MaxDP=5.00D-03 DE=-7.87D-03 OVMax= 1.04D-02

 Cycle   5  Pass 1  IDiag  1:
 RMSU=  8.13D-05    CP:  9.91D-01  7.53D-01  9.21D-01  7.60D-01
 E= -226.188530289403     Delta-E=       -0.001225601105 Rises=F Damp=F
 DIIS: error= 3.66D-04 at cycle   5 NSaved=   5.
 NSaved= 5 IEnMin= 5 EnMin= -226.188530289403     IErMin= 5 ErrMin= 3.66D-04
 ErrMax= 3.66D-04  0.00D+00 EMaxC= 1.00D-01 BMatC= 2.66D-05 BMatP= 1.44D-03
 IDIUse=3 WtCom= 9.96D-01 WtEn= 3.66D-03
 Coeff-Com: -0.155D-01 0.309D-01 0.830D-01 0.199D+00 0.703D+00
 Coeff-En:   0.000D+00 0.000D+00 0.000D+00 0.000D+00 0.100D+01
 Coeff:     -0.155D-01 0.308D-01 0.827D-01 0.198D+00 0.704D+00
 Gap=     0.283 Goal=   None    Shift=    0.000
 RMSDP=1.72D-05 MaxDP=8.35D-04 DE=-1.23D-03 OVMax= 2.25D-03

 Cycle   6  Pass 1  IDiag  1:
 RMSU=  1.53D-05    CP:  9.91D-01  7.53D-01  9.26D-01  7.73D-01  9.23D-01
 E= -226.188551203018     Delta-E=       -0.000020913615 Rises=F Damp=F
 DIIS: error= 1.34D-04 at cycle   6 NSaved=   6.
 NSaved= 6 IEnMin= 6 EnMin= -226.188551203018     IErMin= 6 ErrMin= 1.34D-04
 ErrMax= 1.34D-04  0.00D+00 EMaxC= 1.00D-01 BMatC= 4.42D-06 BMatP= 2.66D-05
 IDIUse=3 WtCom= 9.99D-01 WtEn= 1.34D-03
 Coeff-Com: -0.408D-02 0.617D-02 0.227D-01 0.641D-01 0.350D+00 0.561D+00
 Coeff-En:   0.000D+00 0.000D+00 0.000D+00 0.000D+00 0.195D-01 0.980D+00
 Coeff:     -0.408D-02 0.616D-02 0.226D-01 0.640D-01 0.350D+00 0.561D+00
 Gap=     0.283 Goal=   None    Shift=    0.000
 RMSDP=8.93D-06 MaxDP=7.90D-04 DE=-2.09D-05 OVMax= 9.50D-04

 Cycle   7  Pass 1  IDiag  1:
 RMSU=  5.30D-06    CP:  9.91D-01  7.49D-01  9.29D-01  7.77D-01  9.57D-01
                    CP:  9.06D-01
 E= -226.188555325993     Delta-E=       -0.000004122975 Rises=F Damp=F
 DIIS: error= 2.16D-05 at cycle   7 NSaved=   7.
 NSaved= 7 IEnMin= 7 EnMin= -226.188555325993     IErMin= 7 ErrMin= 2.16D-05
 ErrMax= 2.16D-05  0.00D+00 EMaxC= 1.00D-01 BMatC= 1.55D-07 BMatP= 4.42D-06
 IDIUse=1 WtCom= 1.00D+00 WtEn= 0.00D+00
 Coeff-Com:  0.192D-02-0.407D-02-0.843D-02-0.222D-01-0.533D-01 0.809D-01
 Coeff-Com:  0.101D+01
 Coeff:      0.192D-02-0.407D-02-0.843D-02-0.222D-01-0.533D-01 0.809D-01
 Coeff:      0.101D+01
 Gap=     0.283 Goal=   None    Shift=    0.000
 RMSDP=4.87D-06 MaxDP=3.12D-04 DE=-4.12D-06 OVMax= 2.35D-04

 Cycle   8  Pass 1  IDiag  1:
 RMSU=  1.27D-06    CP:  9.91D-01  7.47D-01  9.31D-01  7.77D-01  9.77D-01
                    CP:  1.04D+00  1.16D+00
 E= -226.188555551788     Delta-E=       -0.000000225795 Rises=F Damp=F
 DIIS: error= 8.06D-06 at cycle   8 NSaved=   8.
 NSaved= 8 IEnMin= 8 EnMin= -226.188555551788     IErMin= 8 ErrMin= 8.06D-06
 ErrMax= 8.06D-06  0.00D+00 EMaxC= 1.00D-01 BMatC= 1.34D-08 BMatP= 1.55D-07
 IDIUse=1 WtCom= 1.00D+00 WtEn= 0.00D+00
 Coeff-Com:  0.748D-03-0.152D-02-0.310D-02-0.911D-02-0.256D-01 0.130D-01
 Coeff-Com:  0.345D+00 0.680D+00
 Coeff:      0.748D-03-0.152D-02-0.310D-02-0.911D-02-0.256D-01 0.130D-01
 Coeff:      0.345D+00 0.680D+00
 Gap=     0.283 Goal=   None    Shift=    0.000
 RMSDP=5.38D-07 MaxDP=2.30D-05 DE=-2.26D-07 OVMax= 5.45D-05

 Cycle   9  Pass 1  IDiag  1:
 RMSU=  3.45D-07    CP:  9.91D-01  7.47D-01  9.31D-01  7.76D-01  9.78D-01
                    CP:  1.04D+00  1.19D+00  1.09D+00
 E= -226.188555564305     Delta-E=       -0.000000012517 Rises=F Damp=F
 DIIS: error= 3.64D-06 at cycle   9 NSaved=   9.
 NSaved= 9 IEnMin= 9 EnMin= -226.188555564305     IErMin= 9 ErrMin= 3.64D-06
 ErrMax= 3.64D-06  0.00D+00 EMaxC= 1.00D-01 BMatC= 3.07D-09 BMatP= 1.34D-08
 IDIUse=1 WtCom= 1.00D+00 WtEn= 0.00D+00
 Coeff-Com: -0.111D-03 0.246D-03 0.706D-03 0.107D-02 0.116D-02-0.134D-01
 Coeff-Com: -0.847D-01 0.302D+00 0.793D+00
 Coeff:     -0.111D-03 0.246D-03 0.706D-03 0.107D-02 0.116D-02-0.134D-01
 Coeff:     -0.847D-01 0.302D+00 0.793D+00
 Gap=     0.283 Goal=   None    Shift=    0.000
 RMSDP=3.09D-07 MaxDP=2.41D-05 DE=-1.25D-08 OVMax= 2.04D-05

 Cycle  10  Pass 1  IDiag  1:
 RMSU=  1.26D-07    CP:  9.91D-01  7.47D-01  9.31D-01  7.76D-01  9.77D-01
                    CP:  1.05D+00  1.20D+00  1.25D+00  1.06D+00
 E= -226.188555567392     Delta-E=       -0.000000003087 Rises=F Damp=F
 DIIS: error= 5.18D-07 at cycle  10 NSaved=  10.
 NSaved=10 IEnMin=10 EnMin= -226.188555567392     IErMin=10 ErrMin= 5.18D-07
 ErrMax= 5.18D-07  0.00D+00 EMaxC= 1.00D-01 BMatC= 6.56D-11 BMatP= 3.07D-09
 IDIUse=1 WtCom= 1.00D+00 WtEn= 0.00D+00
 Coeff-Com: -0.479D-04 0.103D-03 0.271D-03 0.533D-03 0.131D-02-0.186D-02
 Coeff-Com: -0.288D-01 0.152D-01 0.944D-01 0.919D+00
 Coeff:     -0.479D-04 0.103D-03 0.271D-03 0.533D-03 0.131D-02-0.186D-02
 Coeff:     -0.288D-01 0.152D-01 0.944D-01 0.919D+00
 Gap=     0.283 Goal=   None    Shift=    0.000
 RMSDP=5.11D-08 MaxDP=3.61D-06 DE=-3.09D-09 OVMax= 4.45D-06

 Cycle  11  Pass 1  IDiag  1:
 RMSU=  2.53D-08    CP:  9.91D-01  7.47D-01  9.31D-01  7.76D-01  9.77D-01
                    CP:  1.05D+00  1.20D+00  1.27D+00  1.11D+00  1.09D+00
 E= -226.188555567476     Delta-E=       -0.000000000084 Rises=F Damp=F
 DIIS: error= 2.61D-07 at cycle  11 NSaved=  11.
 NSaved=11 IEnMin=11 EnMin= -226.188555567476     IErMin=11 ErrMin= 2.61D-07
 ErrMax= 2.61D-07  0.00D+00 EMaxC= 1.00D-01 BMatC= 1.61D-11 BMatP= 6.56D-11
 IDIUse=1 WtCom= 1.00D+00 WtEn= 0.00D+00
 Coeff-Com: -0.671D-05 0.141D-04 0.451D-04 0.893D-04 0.332D-03 0.423D-03
 Coeff-Com: -0.434D-02-0.169D-01-0.318D-01 0.395D+00 0.657D+00
 Coeff:     -0.671D-05 0.141D-04 0.451D-04 0.893D-04 0.332D-03 0.423D-03
 Coeff:     -0.434D-02-0.169D-01-0.318D-01 0.395D+00 0.657D+00
 Gap=     0.283 Goal=   None    Shift=    0.000
 RMSDP=1.50D-08 MaxDP=9.31D-07 DE=-8.41D-11 OVMax= 1.90D-06

 Cycle  12  Pass 1  IDiag  1:
 RMSU=  1.09D-08    CP:  9.91D-01  7.47D-01  9.31D-01  7.75D-01  9.77D-01
                    CP:  1.05D+00  1.20D+00  1.27D+00  1.12D+00  1.13D+00
                    CP:  9.34D-01
 E= -226.188555567484     Delta-E=       -0.000000000008 Rises=F Damp=F
 DIIS: error= 1.09D-07 at cycle  12 NSaved=  12.
 NSaved=12 IEnMin=12 EnMin= -226.188555567484     IErMin=12 ErrMin= 1.09D-07
 ErrMax= 1.09D-07  0.00D+00 EMaxC= 1.00D-01 BMatC= 1.79D-12 BMatP= 1.61D-11
 IDIUse=1 WtCom= 1.00D+00 WtEn= 0.00D+00
 Coeff-Com:  0.364D-05-0.780D-05-0.149D-04-0.318D-04-0.256D-04 0.431D-03
 Coeff-Com:  0.198D-02-0.673D-02-0.259D-01 0.214D-02 0.257D+00 0.771D+00
 Coeff:      0.364D-05-0.780D-05-0.149D-04-0.318D-04-0.256D-04 0.431D-03
 Coeff:      0.198D-02-0.673D-02-0.259D-01 0.214D-02 0.257D+00 0.771D+00
 Gap=     0.283 Goal=   None    Shift=    0.000
 RMSDP=5.69D-09 MaxDP=3.39D-07 DE=-7.90D-12 OVMax= 3.94D-07

 SCF Done:  E(RM062X) =  -226.188555567     A.U. after   12 cycles
            NFock= 12  Conv=0.57D-08     -V/T= 2.0053
 KE= 2.249979581739D+02 PE=-8.483685981240D+02 EE= 2.362204918500D+02
 Leave Link  502 at Fri Feb 17 21:40:02 2023, MaxMem=  6710886400 cpu:             544.7 elap:              22.8
 (Enter /data0/home/software/g16/l601.exe)
 Copying SCF densities to generalized density rwf, IOpCl= 0 IROHF=0.

 **********************************************************************

            Population analysis using the SCF density.

 **********************************************************************

 Alpha  occ. eigenvalues --  -14.81486 -14.73543 -10.60493 -10.57683 -10.55851
 Alpha  occ. eigenvalues --   -1.11697  -0.96861  -0.83707  -0.70098  -0.67005
 Alpha  occ. eigenvalues --   -0.64218  -0.51353  -0.50725  -0.49987  -0.47997
 Alpha  occ. eigenvalues --   -0.34470  -0.34114  -0.28532
 Alpha virt. eigenvalues --   -0.00221   0.02356   0.03199   0.03549   0.05055
 Alpha virt. eigenvalues --    0.05288   0.05657   0.06825   0.07115   0.08121
 Alpha virt. eigenvalues --    0.09906   0.10532   0.10630   0.12222   0.13297
 Alpha virt. eigenvalues --    0.13638   0.14696   0.15399   0.16096   0.17515
 Alpha virt. eigenvalues --    0.17691   0.19027   0.19133   0.19968   0.20739
 Alpha virt. eigenvalues --    0.21714   0.22151   0.22268   0.23690   0.24048
 Alpha virt. eigenvalues --    0.24781   0.25328   0.25998   0.26406   0.26889
 Alpha virt. eigenvalues --    0.27314   0.28685   0.28947   0.29984   0.30390
 Alpha virt. eigenvalues --    0.30543   0.31242   0.33303   0.34372   0.35086
 Alpha virt. eigenvalues --    0.35781   0.36783   0.37997   0.39865   0.41802
 Alpha virt. eigenvalues --    0.43182   0.44136   0.45328   0.46226   0.48808
 Alpha virt. eigenvalues --    0.50101   0.57616   0.57737   0.58669   0.60109
 Alpha virt. eigenvalues --    0.60221   0.61724   0.63076   0.65012   0.65739
 Alpha virt. eigenvalues --    0.67584   0.69709   0.70313   0.71592   0.71818
 Alpha virt. eigenvalues --    0.73845   0.74094   0.76226   0.76449   0.76907
 Alpha virt. eigenvalues --    0.77940   0.78292   0.78933   0.79491   0.80601
 Alpha virt. eigenvalues --    0.81533   0.82290   0.83815   0.84963   0.85801
 Alpha virt. eigenvalues --    0.86097   0.87908   0.90475   0.91143   0.92550
 Alpha virt. eigenvalues --    0.94815   0.95732   0.96536   0.97883   1.00506
 Alpha virt. eigenvalues --    1.01895   1.02480   1.03064   1.04310   1.04685
 Alpha virt. eigenvalues --    1.05289   1.08141   1.10774   1.12631   1.13954
 Alpha virt. eigenvalues --    1.19995   1.21413   1.23018   1.26951   1.29299
 Alpha virt. eigenvalues --    1.31776   1.35503   1.36913   1.38368   1.41782
 Alpha virt. eigenvalues --    1.42962   1.44869   1.48016   1.48887   1.51700
 Alpha virt. eigenvalues --    1.55107   1.66298   1.68963   1.72646   1.72948
 Alpha virt. eigenvalues --    1.77534   1.78218   1.80148   1.80961   1.83172
 Alpha virt. eigenvalues --    1.83982   1.85419   1.87908   1.89298   1.91242
 Alpha virt. eigenvalues --    1.93110   1.96292   1.97755   2.00385   2.02111
 Alpha virt. eigenvalues --    2.05270   2.06993   2.09418   2.12402   2.18620
 Alpha virt. eigenvalues --    2.19526   2.20595   2.22831   2.26037   2.27454
 Alpha virt. eigenvalues --    2.28821   2.30162   2.31675   2.35710   2.40472
 Alpha virt. eigenvalues --    2.41444   2.45214   2.45491   2.46702   2.47554
 Alpha virt. eigenvalues --    2.49909   2.50911   2.53600   2.54203   2.54783
 Alpha virt. eigenvalues --    2.55896   2.57065   2.58727   2.61633   2.62200
 Alpha virt. eigenvalues --    2.63978   2.64756   2.65565   2.67871   2.68654
 Alpha virt. eigenvalues --    2.70557   2.71885   2.72925   2.74065   2.76061
 Alpha virt. eigenvalues --    2.78318   2.81437   2.83396   2.85259   2.86309
 Alpha virt. eigenvalues --    2.88329   2.90619   2.91693   2.93802   2.94266
 Alpha virt. eigenvalues --    2.97187   2.97482   3.00093   3.03144   3.04765
 Alpha virt. eigenvalues --    3.09484   3.12921   3.16614   3.17401   3.19847
 Alpha virt. eigenvalues --    3.27597   3.31322   3.34787   3.36264   3.39772
 Alpha virt. eigenvalues --    3.40321   3.43280   3.45024   3.45624   3.49903
 Alpha virt. eigenvalues --    3.50419   3.55254   3.58168   3.58544   3.60515
 Alpha virt. eigenvalues --    3.62870   3.63794   3.65824   3.67667   3.69764
 Alpha virt. eigenvalues --    3.71552   3.73871   3.76880   3.80166   3.96980
 Alpha virt. eigenvalues --    3.99964   4.01304   4.05770   4.08536   4.49455
 Alpha virt. eigenvalues --    4.54140   4.57067   4.57824   4.63566   4.65792
 Alpha virt. eigenvalues --    4.91440   4.99127   5.00257   5.01159   5.03691
 Alpha virt. eigenvalues --    5.06760   5.09743   5.11428   5.12695   5.19466
 Alpha virt. eigenvalues --    5.21797   5.24286   5.28098   5.35818   5.53257
 Alpha virt. eigenvalues --    5.55769   5.60810   9.63822   9.66528   9.72019
 Alpha virt. eigenvalues --    9.74016   9.79241   9.81768   9.82342   9.86120
 Alpha virt. eigenvalues --    9.87735   9.91780   9.98930  10.01426  10.01639
 Alpha virt. eigenvalues --   10.04876  10.12065  10.14525  10.22314  10.23838
 Alpha virt. eigenvalues --   10.36981  10.40506  12.56073  12.79190  12.92469
 Alpha virt. eigenvalues --   12.97420  13.24958  13.26707  13.32935  13.38719
 Alpha virt. eigenvalues --   13.59001  13.65962  13.84123  14.07372  17.27066
 Alpha virt. eigenvalues --   17.55012  17.80422  18.17911  23.92132  24.09794
 Alpha virt. eigenvalues --   24.14220  35.65580  35.71818 129.32173 134.04315
 Alpha virt. eigenvalues --  135.07373 138.90676
          Condensed to atoms (all electrons):
               1          2          3          4          5          6
     1  C    5.700102   0.048927  -0.311803   0.404452  -0.057053   0.384878
     2  C    0.048927   5.477429   0.015935  -0.196293   0.028656  -0.001670
     3  C   -0.311803   0.015935   5.127231   0.328494  -0.013777   0.010619
     4  N    0.404452  -0.196293   0.328494   6.297820   0.366696  -0.034377
     5  H   -0.057053   0.028656  -0.013777   0.366696   0.402562  -0.001814
     6  H    0.384878  -0.001670   0.010619  -0.034377  -0.001814   0.504357
     7  H   -0.067148   0.437990   0.019004   0.008010  -0.000016  -0.000118
     8  H    0.001701   0.017643   0.430800  -0.056698   0.000049  -0.000028
     9  N    0.072186   0.187800   0.409859   0.017398  -0.002055   0.002985
    10  O   -0.013757   0.010713   0.004664   0.023520   0.001968   0.000214
    11  H    0.001699  -0.000976   0.000228  -0.003723  -0.000757   0.000011
    12  H   -0.001123   0.000552   0.000345  -0.000299  -0.000591   0.000006
    13  O    0.000388  -0.000106  -0.000846   0.000090   0.000038  -0.000002
    14  H   -0.000293   0.000086   0.000450   0.000282  -0.000090   0.000000
    15  H   -0.000083   0.000006   0.000115   0.000009  -0.000006   0.000000
    16  O    0.000087   0.016114   0.001762   0.006051   0.000280   0.000031
    17  H   -0.025530  -0.008945   0.006682   0.001847  -0.000155  -0.000051
    18  H    0.010111  -0.006835  -0.003107  -0.012363  -0.000412  -0.000165
    19  O    0.004447  -0.004860  -0.001515  -0.000274  -0.000024  -0.000001
    20  H   -0.000440   0.000285   0.000323   0.000007   0.000000   0.000000
    21  H   -0.005168   0.007068   0.001926   0.000117   0.000030   0.000006
               7          8          9         10         11         12
     1  C   -0.067148   0.001701   0.072186  -0.013757   0.001699  -0.001123
     2  C    0.437990   0.017643   0.187800   0.010713  -0.000976   0.000552
     3  C    0.019004   0.430800   0.409859   0.004664   0.000228   0.000345
     4  N    0.008010  -0.056698   0.017398   0.023520  -0.003723  -0.000299
     5  H   -0.000016   0.000049  -0.002055   0.001968  -0.000757  -0.000591
     6  H   -0.000118  -0.000028   0.002985   0.000214   0.000011   0.000006
     7  H    0.527576  -0.000007  -0.052643  -0.000015   0.000000  -0.000001
     8  H   -0.000007   0.500830  -0.039342   0.000151   0.000072   0.000010
     9  N   -0.052643  -0.039342   6.722136  -0.000873   0.000106  -0.000004
    10  O   -0.000015   0.000151  -0.000873   0.017283  -0.004347   0.001420
    11  H    0.000000   0.000072   0.000106  -0.004347   0.002247  -0.000864
    12  H   -0.000001   0.000010  -0.000004   0.001420  -0.000864   0.001400
    13  O    0.000000  -0.000156   0.000000  -0.000409   0.000136  -0.000023
    14  H   -0.000000   0.000145   0.000012   0.000651  -0.000332   0.000064
    15  H   -0.000000   0.000003  -0.000001   0.000092  -0.000065   0.000027
    16  O   -0.000009   0.000127   0.000305   0.004638  -0.000554   0.000421
    17  H   -0.000063   0.000007   0.000847  -0.000264   0.000005  -0.000002
    18  H    0.000017  -0.000084   0.000375  -0.006330   0.001155  -0.000716
    19  O   -0.000012   0.000133   0.018449  -0.000041   0.000003  -0.000000
    20  H    0.000003  -0.000010  -0.000921   0.000003  -0.000000   0.000000
    21  H    0.000054  -0.000044  -0.024338   0.000026  -0.000001   0.000000
              13         14         15         16         17         18
     1  C    0.000388  -0.000293  -0.000083   0.000087  -0.025530   0.010111
     2  C   -0.000106   0.000086   0.000006   0.016114  -0.008945  -0.006835
     3  C   -0.000846   0.000450   0.000115   0.001762   0.006682  -0.003107
     4  N    0.000090   0.000282   0.000009   0.006051   0.001847  -0.012363
     5  H    0.000038  -0.000090  -0.000006   0.000280  -0.000155  -0.000412
     6  H   -0.000002   0.000000   0.000000   0.000031  -0.000051  -0.000165
     7  H    0.000000  -0.000000  -0.000000  -0.000009  -0.000063   0.000017
     8  H   -0.000156   0.000145   0.000003   0.000127   0.000007  -0.000084
     9  N    0.000000   0.000012  -0.000001   0.000305   0.000847   0.000375
    10  O   -0.000409   0.000651   0.000092   0.004638  -0.000264  -0.006330
    11  H    0.000136  -0.000332  -0.000065  -0.000554   0.000005   0.001155
    12  H   -0.000023   0.000064   0.000027   0.000421  -0.000002  -0.000716
    13  O    0.000692  -0.000445  -0.000222  -0.000038  -0.000023   0.000089
    14  H   -0.000445   0.000417   0.000106   0.000042   0.000013  -0.000119
    15  H   -0.000222   0.000106   0.000118   0.000007   0.000005  -0.000022
    16  O   -0.000038   0.000042   0.000007   0.010243  -0.004083  -0.006106
    17  H   -0.000023   0.000013   0.000005  -0.004083   0.005242   0.000267
    18  H    0.000089  -0.000119  -0.000022  -0.006106   0.000267   0.006379
    19  O    0.000005  -0.000007  -0.000000  -0.000013  -0.000019   0.000018
    20  H   -0.000000   0.000000   0.000000   0.000003   0.000000  -0.000001
    21  H   -0.000001   0.000002   0.000000   0.000025   0.000014  -0.000016
              19         20         21
     1  C    0.004447  -0.000440  -0.005168
     2  C   -0.004860   0.000285   0.007068
     3  C   -0.001515   0.000323   0.001926
     4  N   -0.000274   0.000007   0.000117
     5  H   -0.000024   0.000000   0.000030
     6  H   -0.000001   0.000000   0.000006
     7  H   -0.000012   0.000003   0.000054
     8  H    0.000133  -0.000010  -0.000044
     9  N    0.018449  -0.000921  -0.024338
    10  O   -0.000041   0.000003   0.000026
    11  H    0.000003  -0.000000  -0.000001
    12  H   -0.000000   0.000000   0.000000
    13  O    0.000005  -0.000000  -0.000001
    14  H   -0.000007   0.000000   0.000002
    15  H   -0.000000   0.000000   0.000000
    16  O   -0.000013   0.000003   0.000025
    17  H   -0.000019   0.000000   0.000014
    18  H    0.000018  -0.000001  -0.000016
    19  O    0.003051  -0.000340  -0.002354
    20  H   -0.000340   0.000163   0.000161
    21  H   -0.002354   0.000161   0.002267
 Mulliken charges:
               1
     1  C   -0.146581
     2  C   -0.029517
     3  C   -0.027390
     4  N   -0.150766
     5  H    0.276469
     6  H    0.135120
     7  H    0.127379
     8  H    0.144698
     9  N   -0.312281
    10  O   -0.039307
    11  H    0.005958
    12  H   -0.000622
    13  O    0.000833
    14  H   -0.000984
    15  H   -0.000088
    16  O   -0.029333
    17  H    0.024206
    18  H    0.017866
    19  O   -0.016648
    20  H    0.000764
    21  H    0.020227
 Sum of Mulliken charges =  -0.00000
 Mulliken charges with hydrogens summed into heavy atoms:
               1
     1  C   -0.011462
     2  C    0.097861
     3  C    0.117308
     4  N    0.125703
     9  N   -0.312281
    10  O   -0.033971
    13  O   -0.000240
    16  O    0.012739
    19  O    0.004343
         Mulliken charges condensed to fragments:
      1      0.017130
      2     -0.033971
      3     -0.000240
      4      0.012739
      5      0.004343
 Electronic spatial extent (au):  <R**2>=          27878.5655
 Charge=              0.0000 electrons
 Dipole moment (field-independent basis, Debye):
    X=             -2.3991    Y=              1.3741    Z=             -2.4876  Tot=              3.7191
 Quadrupole moment (field-independent basis, Debye-Ang):
   XX=            -53.3644   YY=             -7.8618   ZZ=            -92.1441
   XY=            -11.5276   XZ=            -41.1422   YZ=              3.6423
 Traceless Quadrupole moment (field-independent basis, Debye-Ang):
   XX=             -2.2410   YY=             43.2617   ZZ=            -41.0207
   XY=            -11.5276   XZ=            -41.1422   YZ=              3.6423
 Octapole moment (field-independent basis, Debye-Ang**2):
  XXX=           -609.1280  YYY=           -285.2413  ZZZ=          -2293.7513  XYY=           -170.5006
  XXY=           -322.5019  XXZ=           -720.9223  XZZ=           -806.1411  YZZ=           -300.4446
  YYZ=           -170.0367  XYZ=           -202.9295
 Hexadecapole moment (field-independent basis, Debye-Ang**3):
 XXXX=          -5482.6078 YYYY=          -4100.0669 ZZZZ=         -47881.1774 XXXY=          -3717.0791
 XXXZ=          -7919.2844 YYYX=          -2309.2416 YYYZ=          -3947.3380 ZZZX=         -15675.7944
 ZZZY=         -10329.0308 XXYY=          -2561.1744 XXZZ=         -10499.6618 YYZZ=          -4107.0471
 XXYZ=          -4319.8348 YYXZ=          -2435.3156 ZZXY=          -4165.1422
 N-N= 1.609615925326D+02 E-N=-8.483686018238D+02  KE= 2.249979581739D+02
 No NMR shielding tensors so no spin-rotation constants.
 Leave Link  601 at Fri Feb 17 21:40:02 2023, MaxMem=  6710886400 cpu:               2.4 elap:               0.1
 (Enter /data0/home/software/g16/l122.exe)
 CPIOFr:  IOpCl= 0 IRwI=-1 IRwCP=  731 ICalc=  1 LCPTot=      154853 Len1MO=      403729 IndFrg=      962311
 Counterpoise: doing calculation for fragment   2 using the basis set of the full-system, NewBq=T
 Leave Link  122 at Fri Feb 17 21:40:02 2023, MaxMem=  6710886400 cpu:               0.1 elap:               0.0
 (Enter /data0/home/software/g16/l301.exe)
 Basis read from rwf:  (5D, 7F)
 No pseudopotential information found on rwf file.
   315 basis functions,   474 primitive gaussians,   333 cartesian basis functions
     5 alpha electrons        5 beta electrons
       nuclear repulsion energy         9.0597579287 Hartrees.
 IExCor= 4336 DFT=T Ex+Corr=M062X ExCW=0 ScaHFX=  0.540000
 ScaDFX=  1.000000  1.000000  1.000000  1.000000 ScalE2=  1.000000  1.000000
 IRadAn=      5 IRanWt=     -1 IRanGd=            0 ICorTp=0 IEmpDi=131
 NAtoms=   21 NActive=   21 NUniq=   21 SFac= 1.00D+00 NAtFMM=   60 NAOKFM=F Big=F
 Integral buffers will be    131072 words long.
 Raffenetti 2 integral format.
 Two-electron integral symmetry is turned off.
 R6Disp:  Grimme-D3 Dispersion energy=       -0.0000000085 Hartrees.
 Nuclear repulsion after empirical dispersion term =        9.0597579202 Hartrees.
 No density basis found on file   718.
 Leave Link  301 at Fri Feb 17 21:40:02 2023, MaxMem=  6710886400 cpu:               1.3 elap:               0.1
 (Enter /data0/home/software/g16/l302.exe)
 NPDir=0 NMtPBC=     1 NCelOv=     1 NCel=       1 NClECP=     1 NCelD=      1
         NCelK=      1 NCelE2=     1 NClLst=     1 CellRange=     0.0.
 One-electron integrals computed using PRISM.
 NBasis=   315 RedAO= T EigKep=  3.61D-05  NBF=   315
 NBsUse=   315 1.00D-06 EigRej= -1.00D+00 NBFU=   315
 Precomputing XC quadrature grid using
 IXCGrd= 4 IRadAn=           5 IRanWt=          -1 IRanGd=           0 AccXCQ= 0.00D+00.
 Generated NRdTot=       0 NPtTot=           0 NUsed=           0 NTot=          32
 NSgBfM=   333   333   333   333   333 MxSgAt=    21 MxSgA2=    21.
 Leave Link  302 at Fri Feb 17 21:40:03 2023, MaxMem=  6710886400 cpu:               5.1 elap:               0.2
 (Enter /data0/home/software/g16/l303.exe)
 DipDrv:  MaxL=1.
 Leave Link  303 at Fri Feb 17 21:40:03 2023, MaxMem=  6710886400 cpu:               0.7 elap:               0.0
 (Enter /data0/home/software/g16/l401.exe)
 ExpMin= 4.38D-02 ExpMax= 8.59D+03 ExpMxC= 1.30D+03 IAcc=3 IRadAn=         5 AccDes= 0.00D+00
 Harris functional with IExCor= 1009 and IRadAn=       5 diagonalized for initial guess.
 HarFok:  IExCor= 1009 AccDes= 0.00D+00 IRadAn=         5 IDoV= 1 UseB2=F ITyADJ=14
 ICtDFT=  3500011 ScaDFX=  1.000000  1.000000  1.000000  1.000000
 FoFCou: FMM=F IPFlag=           0 FMFlag=      100000 FMFlg1=           0
         NFxFlg=           0 DoJE=T BraDBF=F KetDBF=T FulRan=T
         wScrn=  0.000000 ICntrl=       500 IOpCl=  0 I1Cent=   200000004 NGrid=           0
         NMat0=    1 NMatS0=      1 NMatT0=    0 NMatD0=    1 NMtDS0=    0 NMtDT0=    0
 Symmetry not used in FoFCou.
 Harris En= -76.4169940027095    
 JPrj=0 DoOrth=F DoCkMO=F.
 Leave Link  401 at Fri Feb 17 21:40:04 2023, MaxMem=  6710886400 cpu:              17.8 elap:               0.8
 (Enter /data0/home/software/g16/l502.exe)
 Two-electron integral symmetry not used.
 Closed shell SCF:
 Using DIIS extrapolation, IDIIS=  1040.
 NGot=  6710886400 LenX=  6710654184 LenY=  6710542854
 Requested convergence on RMS density matrix=1.00D-08 within 128 cycles.
 Requested convergence on MAX density matrix=1.00D-06.
 Requested convergence on             energy=1.00D-06.
 No special actions if energy rises.
 Fock matrices will be formed incrementally for  20 cycles.

 Cycle   1  Pass 1  IDiag  1:
 FoFJK:  IHMeth= 1 ICntrl=       0 DoSepK=F KAlg= 0 I1Cent=           0 FoldK=F
 IRaf= 890000000 NMat=       1 IRICut=       1 DoRegI=T DoRafI=F ISym2E= 0 IDoP0=0 IntGTp=1.
 FoFCou: FMM=F IPFlag=           0 FMFlag=      100000 FMFlg1=           0
         NFxFlg=           0 DoJE=F BraDBF=F KetDBF=F FulRan=T
         wScrn=  0.000000 ICntrl=         0 IOpCl=  0 I1Cent=           0 NGrid=           0
         NMat0=    1 NMatS0=      1 NMatT0=    0 NMatD0=    1 NMtDS0=    0 NMtDT0=    0
 Symmetry not used in FoFCou.
 E= -76.3474420429483    
 DIIS: error= 1.66D-02 at cycle   1 NSaved=   1.
 NSaved= 1 IEnMin= 1 EnMin= -76.3474420429483     IErMin= 1 ErrMin= 1.66D-02
 ErrMax= 1.66D-02  0.00D+00 EMaxC= 1.00D-01 BMatC= 1.20D-01 BMatP= 1.20D-01
 IDIUse=3 WtCom= 8.34D-01 WtEn= 1.66D-01
 Coeff-Com:  0.100D+01
 Coeff-En:   0.100D+01
 Coeff:      0.100D+01
 Gap=     0.276 Goal=   None    Shift=    0.000
 GapD=    0.276 DampG=1.000 DampE=0.500 DampFc=0.5000 IDamp=-1.
 Damping current iteration by 5.00D-01
 RMSDP=1.76D-03 MaxDP=9.75D-02              OVMax= 1.73D-01

 Cycle   2  Pass 1  IDiag  1:
 RMSU=  8.72D-04    CP:  9.71D-01
 E= -76.3780982266417     Delta-E=       -0.030656183693 Rises=F Damp=T
 DIIS: error= 3.36D-03 at cycle   2 NSaved=   2.
 NSaved= 2 IEnMin= 2 EnMin= -76.3780982266417     IErMin= 2 ErrMin= 3.36D-03
 ErrMax= 3.36D-03  0.00D+00 EMaxC= 1.00D-01 BMatC= 5.14D-03 BMatP= 1.20D-01
 IDIUse=3 WtCom= 9.66D-01 WtEn= 3.36D-02
 Coeff-Com:  0.904D-01 0.910D+00
 Coeff-En:   0.202D+00 0.798D+00
 Coeff:      0.942D-01 0.906D+00
 Gap=     0.406 Goal=   None    Shift=    0.000
 RMSDP=3.11D-04 MaxDP=1.76D-02 DE=-3.07D-02 OVMax= 1.05D-01

 Cycle   3  Pass 1  IDiag  1:
 RMSU=  2.68D-04    CP:  9.64D-01  8.23D-01
 E= -76.4225927660463     Delta-E=       -0.044494539405 Rises=F Damp=F
 DIIS: error= 7.57D-04 at cycle   3 NSaved=   3.
 NSaved= 3 IEnMin= 3 EnMin= -76.4225927660463     IErMin= 3 ErrMin= 7.57D-04
 ErrMax= 7.57D-04  0.00D+00 EMaxC= 1.00D-01 BMatC= 1.83D-04 BMatP= 5.14D-03
 IDIUse=3 WtCom= 9.92D-01 WtEn= 7.57D-03
 Coeff-Com: -0.306D-01 0.559D-01 0.975D+00
 Coeff-En:   0.000D+00 0.000D+00 0.100D+01
 Coeff:     -0.304D-01 0.555D-01 0.975D+00
 Gap=     0.407 Goal=   None    Shift=    0.000
 RMSDP=2.56D-05 MaxDP=1.38D-03 DE=-4.45D-02 OVMax= 4.16D-03

 Cycle   4  Pass 1  IDiag  1:
 RMSU=  2.02D-05    CP:  9.62D-01  8.37D-01  1.03D+00
 E= -76.4227356063144     Delta-E=       -0.000142840268 Rises=F Damp=F
 DIIS: error= 7.38D-05 at cycle   4 NSaved=   4.
 NSaved= 4 IEnMin= 4 EnMin= -76.4227356063144     IErMin= 4 ErrMin= 7.38D-05
 ErrMax= 7.38D-05  0.00D+00 EMaxC= 1.00D-01 BMatC= 2.58D-06 BMatP= 1.83D-04
 IDIUse=1 WtCom= 1.00D+00 WtEn= 0.00D+00
 Coeff-Com: -0.346D-02 0.143D-02 0.142D+00 0.860D+00
 Coeff:     -0.346D-02 0.143D-02 0.142D+00 0.860D+00
 Gap=     0.408 Goal=   None    Shift=    0.000
 RMSDP=4.32D-06 MaxDP=3.04D-04 DE=-1.43D-04 OVMax= 5.12D-04

 Cycle   5  Pass 1  IDiag  1:
 RMSU=  3.44D-06    CP:  9.62D-01  8.35D-01  1.03D+00  1.07D+00
 E= -76.4227372918924     Delta-E=       -0.000001685578 Rises=F Damp=F
 DIIS: error= 2.14D-05 at cycle   5 NSaved=   5.
 NSaved= 5 IEnMin= 5 EnMin= -76.4227372918924     IErMin= 5 ErrMin= 2.14D-05
 ErrMax= 2.14D-05  0.00D+00 EMaxC= 1.00D-01 BMatC= 7.43D-08 BMatP= 2.58D-06
 IDIUse=1 WtCom= 1.00D+00 WtEn= 0.00D+00
 Coeff-Com:  0.156D-02-0.245D-02-0.368D-01-0.459D-01 0.108D+01
 Coeff:      0.156D-02-0.245D-02-0.368D-01-0.459D-01 0.108D+01
 Gap=     0.408 Goal=   None    Shift=    0.000
 RMSDP=3.10D-06 MaxDP=1.33D-04 DE=-1.69D-06 OVMax= 2.15D-04

 Cycle   6  Pass 1  IDiag  1:
 RMSU=  1.03D-06    CP:  9.62D-01  8.32D-01  1.03D+00  1.15D+00  1.18D+00
 E= -76.4227374289403     Delta-E=       -0.000000137048 Rises=F Damp=F
 DIIS: error= 2.02D-06 at cycle   6 NSaved=   6.
 NSaved= 6 IEnMin= 6 EnMin= -76.4227374289403     IErMin= 6 ErrMin= 2.02D-06
 ErrMax= 2.02D-06  0.00D+00 EMaxC= 1.00D-01 BMatC= 1.89D-09 BMatP= 7.43D-08
 IDIUse=1 WtCom= 1.00D+00 WtEn= 0.00D+00
 Coeff-Com: -0.266D-03 0.371D-03 0.339D-02-0.940D-02-0.140D+00 0.115D+01
 Coeff:     -0.266D-03 0.371D-03 0.339D-02-0.940D-02-0.140D+00 0.115D+01
 Gap=     0.408 Goal=   None    Shift=    0.000
 RMSDP=3.75D-07 MaxDP=2.09D-05 DE=-1.37D-07 OVMax= 4.01D-05

 Cycle   7  Pass 1  IDiag  1:
 RMSU=  1.30D-07    CP:  9.62D-01  8.32D-01  1.03D+00  1.16D+00  1.23D+00
                    CP:  1.19D+00
 E= -76.4227374327814     Delta-E=       -0.000000003841 Rises=F Damp=F
 DIIS: error= 3.41D-07 at cycle   7 NSaved=   7.
 NSaved= 7 IEnMin= 7 EnMin= -76.4227374327814     IErMin= 7 ErrMin= 3.41D-07
 ErrMax= 3.41D-07  0.00D+00 EMaxC= 1.00D-01 BMatC= 3.86D-11 BMatP= 1.89D-09
 IDIUse=1 WtCom= 1.00D+00 WtEn= 0.00D+00
 Coeff-Com: -0.248D-04 0.515D-04 0.456D-03 0.858D-03-0.266D-01 0.355D-01
 Coeff-Com:  0.990D+00
 Coeff:     -0.248D-04 0.515D-04 0.456D-03 0.858D-03-0.266D-01 0.355D-01
 Coeff:      0.990D+00
 Gap=     0.408 Goal=   None    Shift=    0.000
 RMSDP=4.77D-08 MaxDP=2.66D-06 DE=-3.84D-09 OVMax= 5.45D-06

 Cycle   8  Pass 1  IDiag  1:
 RMSU=  1.96D-08    CP:  9.62D-01  8.32D-01  1.03D+00  1.16D+00  1.23D+00
                    CP:  1.21D+00  1.11D+00
 E= -76.4227374328507     Delta-E=       -0.000000000069 Rises=F Damp=F
 DIIS: error= 1.02D-07 at cycle   8 NSaved=   8.
 NSaved= 8 IEnMin= 8 EnMin= -76.4227374328507     IErMin= 8 ErrMin= 1.02D-07
 ErrMax= 1.02D-07  0.00D+00 EMaxC= 1.00D-01 BMatC= 2.57D-12 BMatP= 3.86D-11
 IDIUse=1 WtCom= 1.00D+00 WtEn= 0.00D+00
 Coeff-Com:  0.136D-04-0.157D-04-0.148D-03 0.734D-03 0.411D-02-0.542D-01
[...]
 Alpha virt. eigenvalues --    1.69605   1.74205   1.75899   2.08398   2.08934
 Alpha virt. eigenvalues --    2.35290   2.42581   2.54387   2.88958   3.01261
 Alpha virt. eigenvalues --    5.05703   5.48017   5.93636   6.78228   6.80296
 Alpha virt. eigenvalues --    6.87014   6.91523   7.09424  49.96066
          Condensed to atoms (all electrons):
              16         17         18
    16  O    7.913582   0.322411   0.321375
    17  H    0.322411   0.424042  -0.024667
    18  H    0.321375  -0.024667   0.424137
 Mulliken charges:
               1
     1  C    0.000000
     2  C    0.000000
     3  C    0.000000
     4  N    0.000000
     5  H    0.000000
     6  H    0.000000
     7  H    0.000000
     8  H    0.000000
     9  N    0.000000
    10  O    0.000000
    11  H    0.000000
    12  H    0.000000
    13  O    0.000000
    14  H    0.000000
    15  H    0.000000
    16  O   -0.557368
    17  H    0.278214
    18  H    0.279154
    19  O    0.000000
    20  H    0.000000
    21  H    0.000000
 Sum of Mulliken charges =  -0.00000
 Mulliken charges with hydrogens summed into heavy atoms:
               1
     1  C    0.000000
     2  C    0.000000
     3  C    0.000000
     4  N    0.000000
     9  N    0.000000
    10  O    0.000000
    13  O    0.000000
    16  O   -0.000000
    19  O    0.000000
         Mulliken charges condensed to fragments:
      1      0.000000
      2      0.000000
      3      0.000000
      4     -0.000000
      5      0.000000
 Electronic spatial extent (au):  <R**2>=           6855.8112
 Charge=             -0.0000 electrons
 Dipole moment (field-independent basis, Debye):
    X=             -1.7006    Y=             -0.7639    Z=              0.9826  Tot=              2.1074
 Quadrupole moment (field-independent basis, Debye-Ang):
   XX=            -27.1858   YY=            -16.5243   ZZ=             12.2903
   XY=            -18.2596   XZ=            -10.7907   YZ=             -1.3256
 Traceless Quadrupole moment (field-independent basis, Debye-Ang):
   XX=            -16.7125   YY=             -6.0510   ZZ=             22.7635
   XY=            -18.2596   XZ=            -10.7907   YZ=             -1.3256
 Octapole moment (field-independent basis, Debye-Ang**2):
  XXX=           -312.1286  YYY=           -241.3497  ZZZ=             76.2679  XYY=           -210.1453
  XXY=           -241.4309  XXZ=           -231.9225  XZZ=            -92.0226  YZZ=             -4.3063
  YYZ=           -124.4038  XYZ=           -142.5533
 Hexadecapole moment (field-independent basis, Debye-Ang**3):
 XXXX=          -3099.2729 YYYY=          -2959.4550 ZZZZ=           -400.8308 XXXY=          -2586.3850
 XXXZ=          -2860.8525 YYYX=          -2354.6726 YYYZ=          -2146.3747 ZZZX=          -1209.3448
 ZZZY=           -478.1632 XXYY=          -2295.8975 XXZZ=          -2213.3426 YYZZ=          -1236.8005
 XXYZ=          -2155.7969 YYXZ=          -1841.5562 ZZXY=          -1365.6315
 N-N= 9.123902354324D+00 E-N=-1.991029875127D+02  KE= 7.620288341124D+01
 No NMR shielding tensors so no spin-rotation constants.
 Leave Link  601 at Fri Feb 17 21:41:18 2023, MaxMem=  6710886400 cpu:               1.8 elap:               0.1
 (Enter /data0/home/software/g16/l122.exe)
 CPIOFr:  IOpCl= 0 IRwI=-1 IRwCP=  731 ICalc=  9 LCPTot=      154853 Len1MO=      403729 IndFrg=     4192143
 Counterpoise: doing calculation for fragment   5 using the basis set of the fragment.
 Leave Link  122 at Fri Feb 17 21:41:18 2023, MaxMem=  6710886400 cpu:               0.1 elap:               0.0
 (Enter /data0/home/software/g16/l301.exe)
 Basis read from rwf:  (5D, 7F)
 No pseudopotential information found on rwf file.
    39 basis functions,    58 primitive gaussians,    41 cartesian basis functions
     5 alpha electrons        5 beta electrons
       nuclear repulsion energy         9.0304996962 Hartrees.
 IExCor= 4336 DFT=T Ex+Corr=M062X ExCW=0 ScaHFX=  0.540000
 ScaDFX=  1.000000  1.000000  1.000000  1.000000 ScalE2=  1.000000  1.000000
 IRadAn=      5 IRanWt=     -1 IRanGd=            0 ICorTp=0 IEmpDi=131
 NAtoms=   21 NActive=    3 NUniq=    3 SFac= 1.00D+00 NAtFMM=   60 NAOKFM=F Big=F
 Integral buffers will be    131072 words long.
 Raffenetti 2 integral format.
 Two-electron integral symmetry is turned off.
 R6Disp:  Grimme-D3 Dispersion energy=       -0.0000000077 Hartrees.
 Nuclear repulsion after empirical dispersion term =        9.0304996885 Hartrees.
 No density basis found on file   718.
 Leave Link  301 at Fri Feb 17 21:41:18 2023, MaxMem=  6710886400 cpu:               1.3 elap:               0.1
 (Enter /data0/home/software/g16/l302.exe)
 NPDir=0 NMtPBC=     1 NCelOv=     1 NCel=       1 NClECP=     1 NCelD=      1
         NCelK=      1 NCelE2=     1 NClLst=     1 CellRange=     0.0.
 One-electron integrals computed using PRISM.
 NBasis=    39 RedAO= T EigKep=  3.08D-03  NBF=    39
 NBsUse=    39 1.00D-06 EigRej= -1.00D+00 NBFU=    39
 Precomputing XC quadrature grid using
 IXCGrd= 4 IRadAn=           5 IRanWt=          -1 IRanGd=           0 AccXCQ= 0.00D+00.
 Generated NRdTot=       0 NPtTot=           0 NUsed=           0 NTot=          32
 NSgBfM=    41    41    41    41    41 MxSgAt=     3 MxSgA2=     3.
 Leave Link  302 at Fri Feb 17 21:41:18 2023, MaxMem=  6710886400 cpu:               2.3 elap:               0.1
 (Enter /data0/home/software/g16/l303.exe)
 DipDrv:  MaxL=1.
 Leave Link  303 at Fri Feb 17 21:41:18 2023, MaxMem=  6710886400 cpu:               0.4 elap:               0.0
 (Enter /data0/home/software/g16/l401.exe)
 ExpMin= 8.45D-02 ExpMax= 8.59D+03 ExpMxC= 1.30D+03 IAcc=3 IRadAn=         5 AccDes= 0.00D+00
 Harris functional with IExCor= 1009 and IRadAn=       5 diagonalized for initial guess.
 HarFok:  IExCor= 1009 AccDes= 0.00D+00 IRadAn=         5 IDoV= 1 UseB2=F ITyADJ=14
 ICtDFT=  3500011 ScaDFX=  1.000000  1.000000  1.000000  1.000000
 FoFCou: FMM=F IPFlag=           0 FMFlag=      100000 FMFlg1=           0
         NFxFlg=           0 DoJE=T BraDBF=F KetDBF=T FulRan=T
         wScrn=  0.000000 ICntrl=       500 IOpCl=  0 I1Cent=   200000004 NGrid=           0
         NMat0=    1 NMatS0=      1 NMatT0=    0 NMatD0=    1 NMtDS0=    0 NMtDT0=    0
 Symmetry not used in FoFCou.
 Harris En= -76.4151777742186    
 JPrj=0 DoOrth=F DoCkMO=F.
 Leave Link  401 at Fri Feb 17 21:41:18 2023, MaxMem=  6710886400 cpu:               2.9 elap:               0.1
 (Enter /data0/home/software/g16/l502.exe)
 Keep R1 ints in memory in canonical form, NReq=21039444.
 FoFCou: FMM=F IPFlag=           0 FMFlag=           0 FMFlg1=           0
         NFxFlg=           0 DoJE=F BraDBF=F KetDBF=F FulRan=T
         wScrn=  0.000000 ICntrl=       600 IOpCl=  0 I1Cent=           0 NGrid=           0
         NMat0=    1 NMatS0=    780 NMatT0=    0 NMatD0=    1 NMtDS0=    0 NMtDT0=    0
 Symmetry not used in FoFCou.
 Two-electron integral symmetry not used.
 Closed shell SCF:
 Using DIIS extrapolation, IDIIS=  1040.
 NGot=  6710886400 LenX=  6710576478 LenY=  6710574356
 Requested convergence on RMS density matrix=1.00D-08 within 128 cycles.
 Requested convergence on MAX density matrix=1.00D-06.
 Requested convergence on             energy=1.00D-06.
 No special actions if energy rises.
 Integral accuracy reduced to 1.0D-05 until final iterations.

 Cycle   1  Pass 0  IDiag  1:
 E= -76.3463129084756    
 DIIS: error= 6.92D-02 at cycle   1 NSaved=   1.
 NSaved= 1 IEnMin= 1 EnMin= -76.3463129084756     IErMin= 1 ErrMin= 6.92D-02
 ErrMax= 6.92D-02  0.00D+00 EMaxC= 1.00D-01 BMatC= 1.19D-01 BMatP= 1.19D-01
 IDIUse=3 WtCom= 3.08D-01 WtEn= 6.92D-01
 Coeff-Com:  0.100D+01
 Coeff-En:   0.100D+01
 Coeff:      0.100D+01
 Gap=     0.323 Goal=   None    Shift=    0.000
 GapD=    0.323 DampG=1.000 DampE=0.500 DampFc=0.5000 IDamp=-1.
 Damping current iteration by 5.00D-01
 RMSDP=7.98D-03 MaxDP=9.97D-02              OVMax= 1.67D-01

 Cycle   2  Pass 0  IDiag  1:
 E= -76.3771251846641     Delta-E=       -0.030812276188 Rises=F Damp=T
 DIIS: error= 1.09D-02 at cycle   2 NSaved=   2.
 NSaved= 2 IEnMin= 2 EnMin= -76.3771251846641     IErMin= 2 ErrMin= 1.09D-02
 ErrMax= 1.09D-02  0.00D+00 EMaxC= 1.00D-01 BMatC= 4.95D-03 BMatP= 1.19D-01
 IDIUse=3 WtCom= 8.91D-01 WtEn= 1.09D-01
 Coeff-Com:  0.866D-01 0.913D+00
 Coeff-En:   0.194D+00 0.806D+00
 Coeff:      0.983D-01 0.902D+00
 Gap=     0.455 Goal=   None    Shift=    0.000
 RMSDP=9.66D-04 MaxDP=1.44D-02 DE=-3.08D-02 OVMax= 1.00D-01

 Cycle   3  Pass 0  IDiag  1:
 E= -76.4208458810395     Delta-E=       -0.043720696375 Rises=F Damp=F
 DIIS: error= 2.20D-03 at cycle   3 NSaved=   3.
 NSaved= 3 IEnMin= 3 EnMin= -76.4208458810395     IErMin= 3 ErrMin= 2.20D-03
 ErrMax= 2.20D-03  0.00D+00 EMaxC= 1.00D-01 BMatC= 9.43D-05 BMatP= 4.95D-03
 IDIUse=3 WtCom= 9.78D-01 WtEn= 2.20D-02
 Coeff-Com: -0.201D-01 0.408D-01 0.979D+00
 Coeff-En:   0.000D+00 0.000D+00 0.100D+01
 Coeff:     -0.197D-01 0.399D-01 0.980D+00
 Gap=     0.459 Goal=   None    Shift=    0.000
 RMSDP=1.17D-04 MaxDP=9.57D-04 DE=-4.37D-02 OVMax= 3.39D-03

 Cycle   4  Pass 0  IDiag  1:
 E= -76.4209264161668     Delta-E=       -0.000080535127 Rises=F Damp=F
 DIIS: error= 4.26D-04 at cycle   4 NSaved=   4.
 NSaved= 4 IEnMin= 4 EnMin= -76.4209264161668     IErMin= 4 ErrMin= 4.26D-04
 ErrMax= 4.26D-04  0.00D+00 EMaxC= 1.00D-01 BMatC= 3.45D-06 BMatP= 9.43D-05
 IDIUse=3 WtCom= 9.96D-01 WtEn= 4.26D-03
 Coeff-Com: -0.203D-02-0.220D-02 0.165D+00 0.840D+00
 Coeff-En:   0.000D+00 0.000D+00 0.000D+00 0.100D+01
 Coeff:     -0.203D-02-0.219D-02 0.164D+00 0.840D+00
 Gap=     0.460 Goal=   None    Shift=    0.000
 RMSDP=2.26D-05 MaxDP=3.60D-04 DE=-8.05D-05 OVMax= 5.54D-04

 Cycle   5  Pass 0  IDiag  1:
 E= -76.4209285580152     Delta-E=       -0.000002141848 Rises=F Damp=F
 DIIS: error= 9.26D-05 at cycle   5 NSaved=   5.
 NSaved= 5 IEnMin= 5 EnMin= -76.4209285580152     IErMin= 5 ErrMin= 9.26D-05
 ErrMax= 9.26D-05  0.00D+00 EMaxC= 1.00D-01 BMatC= 8.80D-08 BMatP= 3.45D-06
 IDIUse=1 WtCom= 1.00D+00 WtEn= 0.00D+00
 Coeff-Com:  0.122D-02-0.186D-02-0.376D-01-0.689D-01 0.111D+01
 Coeff:      0.122D-02-0.186D-02-0.376D-01-0.689D-01 0.111D+01
 Gap=     0.460 Goal=   None    Shift=    0.000
 RMSDP=9.30D-06 MaxDP=1.04D-04 DE=-2.14D-06 OVMax= 2.13D-04

 Initial convergence to 1.0D-05 achieved.  Increase integral accuracy.
 Cycle   6  Pass 1  IDiag  1:
 E= -76.4209327696009     Delta-E=       -0.000004211586 Rises=F Damp=F
 DIIS: error= 1.86D-05 at cycle   1 NSaved=   1.
 NSaved= 1 IEnMin= 1 EnMin= -76.4209327696009     IErMin= 1 ErrMin= 1.86D-05
 ErrMax= 1.86D-05  0.00D+00 EMaxC= 1.00D-01 BMatC= 1.35D-08 BMatP= 1.35D-08
 IDIUse=1 WtCom= 1.00D+00 WtEn= 0.00D+00
 Coeff-Com:  0.100D+01
 Coeff:      0.100D+01
 Gap=     0.460 Goal=   None    Shift=    0.000
 RMSDP=9.30D-06 MaxDP=1.04D-04 DE=-4.21D-06 OVMax= 3.72D-05

 Cycle   7  Pass 1  IDiag  1:
 E= -76.4209327807464     Delta-E=       -0.000000011145 Rises=F Damp=F
 DIIS: error= 1.04D-05 at cycle   2 NSaved=   2.
 NSaved= 2 IEnMin= 2 EnMin= -76.4209327807464     IErMin= 2 ErrMin= 1.04D-05
 ErrMax= 1.04D-05  0.00D+00 EMaxC= 1.00D-01 BMatC= 1.53D-09 BMatP= 1.35D-08
 IDIUse=1 WtCom= 1.00D+00 WtEn= 0.00D+00
 Coeff-Com:  0.113D+00 0.887D+00
 Coeff:      0.113D+00 0.887D+00
 Gap=     0.460 Goal=   None    Shift=    0.000
 RMSDP=8.36D-07 MaxDP=1.16D-05 DE=-1.11D-08 OVMax= 2.13D-05

 Cycle   8  Pass 1  IDiag  1:
 E= -76.4209327811286     Delta-E=       -0.000000000382 Rises=F Damp=F
 DIIS: error= 6.69D-06 at cycle   3 NSaved=   3.
 NSaved= 3 IEnMin= 3 EnMin= -76.4209327811286     IErMin= 3 ErrMin= 6.69D-06
 ErrMax= 6.69D-06  0.00D+00 EMaxC= 1.00D-01 BMatC= 1.22D-09 BMatP= 1.53D-09
 IDIUse=1 WtCom= 1.00D+00 WtEn= 0.00D+00
 Coeff-Com: -0.519D-01 0.478D+00 0.574D+00
 Coeff:     -0.519D-01 0.478D+00 0.574D+00
 Gap=     0.460 Goal=   None    Shift=    0.000
 RMSDP=4.13D-07 MaxDP=5.52D-06 DE=-3.82D-10 OVMax= 9.17D-06

 Cycle   9  Pass 1  IDiag  1:
 E= -76.4209327819361     Delta-E=       -0.000000000807 Rises=F Damp=F
 DIIS: error= 6.86D-07 at cycle   4 NSaved=   4.
 NSaved= 4 IEnMin= 4 EnMin= -76.4209327819361     IErMin= 4 ErrMin= 6.86D-07
 ErrMax= 6.86D-07  0.00D+00 EMaxC= 1.00D-01 BMatC= 5.22D-12 BMatP= 1.22D-09
 IDIUse=1 WtCom= 1.00D+00 WtEn= 0.00D+00
 Coeff-Com: -0.760D-02 0.208D-01 0.597D-01 0.927D+00
 Coeff:     -0.760D-02 0.208D-01 0.597D-01 0.927D+00
 Gap=     0.460 Goal=   None    Shift=    0.000
 RMSDP=6.27D-08 MaxDP=3.91D-07 DE=-8.07D-10 OVMax= 1.37D-06

 Cycle  10  Pass 1  IDiag  1:
 E= -76.4209327819429     Delta-E=       -0.000000000007 Rises=F Damp=F
 DIIS: error= 1.01D-07 at cycle   5 NSaved=   5.
 NSaved= 5 IEnMin= 5 EnMin= -76.4209327819429     IErMin= 5 ErrMin= 1.01D-07
 ErrMax= 1.01D-07  0.00D+00 EMaxC= 1.00D-01 BMatC= 2.31D-13 BMatP= 5.22D-12
 IDIUse=1 WtCom= 1.00D+00 WtEn= 0.00D+00
 Coeff-Com:  0.310D-02-0.341D-01-0.383D-01 0.265D-01 0.104D+01
 Coeff:      0.310D-02-0.341D-01-0.383D-01 0.265D-01 0.104D+01
 Gap=     0.460 Goal=   None    Shift=    0.000
 RMSDP=2.76D-08 MaxDP=1.73D-07 DE=-6.82D-12 OVMax= 4.73D-07

 Cycle  11  Pass 1  IDiag  1:
 E= -76.4209327819433     Delta-E=       -0.000000000000 Rises=F Damp=F
 DIIS: error= 9.31D-09 at cycle   6 NSaved=   6.
 NSaved= 6 IEnMin= 6 EnMin= -76.4209327819433     IErMin= 6 ErrMin= 9.31D-09
 ErrMax= 9.31D-09  0.00D+00 EMaxC= 1.00D-01 BMatC= 3.29D-15 BMatP= 2.31D-13
 IDIUse=1 WtCom= 1.00D+00 WtEn= 0.00D+00
 Coeff-Com: -0.168D-05 0.141D-02 0.417D-03-0.183D-01-0.613D-01 0.108D+01
 Coeff:     -0.168D-05 0.141D-02 0.417D-03-0.183D-01-0.613D-01 0.108D+01
 Gap=     0.460 Goal=   None    Shift=    0.000
 RMSDP=3.24D-09 MaxDP=2.05D-08 DE=-4.12D-13 OVMax= 6.12D-08

 SCF Done:  E(RM062X) =  -76.4209327819     A.U. after   11 cycles
            NFock= 11  Conv=0.32D-08     -V/T= 2.0033
 KE= 7.616991373021D+01 PE=-1.988988638702D+02 EE= 3.727751766953D+01
 Leave Link  502 at Fri Feb 17 21:41:18 2023, MaxMem=  6710886400 cpu:               9.1 elap:               0.4
 (Enter /data0/home/software/g16/l601.exe)
 Copying SCF densities to generalized density rwf, IOpCl= 0 IROHF=0.

 **********************************************************************

            Population analysis using the SCF density.

 **********************************************************************

 Alpha  occ. eigenvalues --  -19.62787  -1.13092  -0.60137  -0.47666  -0.39950
 Alpha virt. eigenvalues --    0.06051   0.13194   0.17445   0.17949   0.18899
 Alpha virt. eigenvalues --    0.23471   0.49914   0.53430   0.98188   1.00498
 Alpha virt. eigenvalues --    1.05981   1.17379   1.20012   1.31782   1.34351
 Alpha virt. eigenvalues --    1.70097   1.73724   1.75128   2.06133   2.09796
 Alpha virt. eigenvalues --    2.36160   2.38621   2.54720   2.86430   3.00713
 Alpha virt. eigenvalues --    5.05572   5.47649   5.88315   6.78526   6.80044
 Alpha virt. eigenvalues --    6.87410   6.91526   7.09988  49.94933
          Condensed to atoms (all electrons):
              19         20         21
    19  O    7.924436   0.317946   0.311976
    20  H    0.317946   0.430742  -0.023243
    21  H    0.311976  -0.023243   0.431464
 Mulliken charges:
               1
     1  C    0.000000
     2  C    0.000000
     3  C    0.000000
     4  N    0.000000
     5  H    0.000000
     6  H    0.000000
     7  H    0.000000
     8  H    0.000000
     9  N    0.000000
    10  O    0.000000
    11  H    0.000000
    12  H    0.000000
    13  O    0.000000
    14  H    0.000000
    15  H    0.000000
    16  O    0.000000
    17  H    0.000000
    18  H    0.000000
    19  O   -0.554358
    20  H    0.274555
    21  H    0.279803
 Sum of Mulliken charges =  -0.00000
 Mulliken charges with hydrogens summed into heavy atoms:
               1
     1  C    0.000000
     2  C    0.000000
     3  C    0.000000
     4  N    0.000000
     9  N    0.000000
    10  O    0.000000
    13  O    0.000000
    16  O    0.000000
    19  O   -0.000000
         Mulliken charges condensed to fragments:
      1      0.000000
      2      0.000000
      3      0.000000
      4      0.000000
      5     -0.000000
 Electronic spatial extent (au):  <R**2>=          11760.1362
 Charge=             -0.0000 electrons
 Dipole moment (field-independent basis, Debye):
    X=             -2.0684    Y=             -0.5025    Z=             -0.2700  Tot=              2.1456
 Quadrupole moment (field-independent basis, Debye-Ang):
   XX=            -36.8218   YY=            -13.4247   ZZ=            -13.7015
   XY=            -17.6101   XZ=            -33.6694   YZ=             -7.8960
 Traceless Quadrupole moment (field-independent basis, Debye-Ang):
   XX=            -15.5058   YY=              7.8913   ZZ=              7.6145
   XY=            -17.6101   XZ=            -33.6694   YZ=             -7.8960
 Octapole moment (field-independent basis, Debye-Ang**2):
  XXX=           -478.8832  YYY=           -202.4215  ZZZ=           -436.6605  XYY=           -193.1701
  XXY=           -274.5817  XXZ=           -577.1288  XZZ=           -587.1808  YZZ=           -161.3069
  YYZ=           -195.1729  XYZ=           -271.5449
 Hexadecapole moment (field-independent basis, Debye-Ang**3):
 XXXX=          -5436.8497 YYYY=          -2421.0082 ZZZZ=         -11355.6321 XXXY=          -3414.8233
 XXXZ=          -7409.4441 YYYX=          -2135.1404 YYYZ=          -2944.6760 ZZZX=         -10694.8824
 ZZZY=          -3640.5073 XXYY=          -2403.1507 XXZZ=          -9353.2313 YYZZ=          -3087.9475
 XXYZ=          -4211.4120 YYXZ=          -2886.2345 ZZXY=          -4468.5326
 N-N= 9.030499688482D+00 E-N=-1.988988637629D+02  KE= 7.616991373021D+01
 No NMR shielding tensors so no spin-rotation constants.
 Leave Link  601 at Fri Feb 17 21:41:19 2023, MaxMem=  6710886400 cpu:               1.7 elap:               0.1
 (Enter /data0/home/software/g16/l122.exe)
 CPIOFr:  IOpCl= 0 IRwI=-1 IRwCP=  731 ICalc= 10 LCPTot=      154853 Len1MO=      403729 IndFrg=     4595872
 Restoring MOs from calculation   1 to rwf.
 CPIOFr:  IOpCl= 0 IRwI=-2 IRwCP=  731 ICalc=  0 LCPTot=      154853 Len1MO=      403729 IndFrg=      558582
 Counterpoise corrected energy =    -531.906386610141
                   BSSE energy =       0.005162575542
              sum of fragments =    -531.873681091528
           complexation energy =     -23.76 kcal/mole (raw)
           complexation energy =     -20.52 kcal/mole (corrected)
 Leave Link  122 at Fri Feb 17 21:41:19 2023, MaxMem=  6710886400 cpu:               0.2 elap:               0.0
 (Enter /data0/home/software/g16/l9999.exe)
 1\1\GINC-LOCALHOST\SP\RM062X\6-311+G(2d,p)\C3H12N2O4\WUHANYU\17-Feb-20
 23\0\\#p M062X/6-311+G(2d,p) nosymm em=GD3 counterpoise=5\\Title Card 
 Required\\0,1\C,0,4.48369,5.432844,11.489475\C,0,5.41592,4.977543,12.4
 23295\C,0,4.715339,6.9402,13.133457\N,0,4.043001,6.67472,11.949956\H,0
 ,3.432369,7.305985,11.43784\H,0,4.108149,4.983802,10.595374\H,0,5.9783
 97,4.064896,12.441755\H,0,4.576425,7.836886,13.720872\N,0,5.547356,5.9
 20481,13.431168\O,0,3.672439,8.510855,10.120425\H,0,3.931973,9.398895,
 10.475567\H,0,3.11131,8.690845,9.372432\O,0,4.415563,10.897246,11.1030
 81\H,0,4.957023,10.522205,11.829021\H,0,5.056042,11.377145,10.573773\O
 ,0,6.340723,7.36789,9.869274\H,0,6.262719,6.534657,10.342832\H,0,5.466
 309,7.775445,9.944871\O,0,7.500217,6.718414,15.13437\H,0,6.755145,6.98
 6262,15.672441\H,0,7.074324,6.158545,14.432774\\Version=ES64L-G16RevA.
 03\HF=-76.4209328\RMSD=3.239e-09\Dipole=-2.3637236,1.4116073,-1.252862
 4\Quadrupole=-33.4275179,73.3947609,-39.9672431,-17.811241,-67.4887192
 ,15.0890874\PG=C01 [X(C3H12N2O4)]\\@


     SCHOPENHAUER'S LAW OF ENTROPY
 IF YOU PUT A SPOONFUL OF WINE IN A BARREL FULL
 OF SEWAGE, YOU GET SEWAGE.
 IF YOU PUT A SPOONFUL OF SEWAGE IN A BARREL FULL
 OF WINE, YOU GET SEWAGE.
 Job cpu time:       0 days  0 hours 49 minutes 33.1 seconds.
 Elapsed time:       0 days  0 hours  2 minutes  7.5 seconds.
 File lengths (MBytes):  RWF=    103 Int=      0 D2E=      0 Chk=     42 Scr=      1
 Normal termination of Gaussian 16 at Fri Feb 17 21:41:19 2023.
