          34
 G =       -0.436548 Gcorr = 0.200568 a.u. Nimag =   0 Frame:     1 Step:     1 Geom:     1
C          14.96533000     11.77955300     15.79278700
H          15.39061900     10.80014900     15.54284800
H          15.09386800     11.97527500     16.87062400
H          15.58687400     12.56090600     15.28123600
C          13.49056100     11.98659600     13.85536500
H          13.91451000     11.05833100     13.42440300
H          14.21135200     12.81256400     13.55802600
C          12.88709200     13.08655500     16.01844700
H          12.94271000     13.98956400     15.34213000
H          11.82361500     12.93222000     16.23378900
H          13.40638800     13.38551100     16.94490600
C          12.80285800     10.64916000     15.82242800
H          12.83016900     10.55398700     16.92152900
H          11.74442400     10.67388000     15.50936800
H          13.25511800      9.74137500     15.39089500
C          12.09261100     12.26097100     13.28323900
H          11.44519300     12.78942500     14.01836500
H          11.57516300     11.30621400     13.06695100
C          12.16901900     13.09836300     12.01152100
H          11.16476000     13.22788500     11.57268800
H          12.77193400     12.59974800     11.23503000
N          13.52425100     11.88869000     15.37298600
S          12.88347800     14.75930800     12.29973200
O          12.47217500     15.10487200     13.69735500
O          14.35394100     14.46874200     12.28967600
O          12.36887900     15.60479700     11.23813000
P          15.56142200     15.78545900     15.28509000
O          15.43811500     14.49686500     15.98239800
O          16.18184300     15.73719200     13.83496000
H          15.49984100     15.22502500     13.17684700
O          14.22536100     16.63807600     15.21695300
H          13.49391400     16.09571500     14.67155100
O          16.55741900     16.74413300     16.08119900
H          16.60521700     17.63291500     15.55656400
          34
 G =       -0.436514 Gcorr = 0.200602 a.u. Nimag =   0 Frame:     2 Step:     2 Geom:     2
C          14.98909500     11.72868000     15.73091200
H          15.36781000     10.74718700     15.42135000
H          15.17233400     11.87340700     16.80884500
H          15.61502400     12.50976400     15.22421200
C          13.43839700     12.07577900     13.87415100
H          13.81209000     11.15663200     13.38157100
H          14.17200400     12.89234800     13.58293500
C          12.96897500     13.09030600     16.11072900
H          13.02399900     14.02158500     15.47418800
H          11.91200400     12.95914300     16.36930800
H          13.53974300     13.32922900     17.02436400
C          12.79231500     10.66898800     15.80664600
H          12.86521900     10.52036500     16.89769800
H          11.72246900     10.74310500     15.54424500
H          13.19310200      9.76868200     15.31293000
C          12.02622600     12.42004500     13.38002300
H          11.43107300     12.93522600     14.16692800
H          11.46768600     11.49296100     13.14623100
C          12.07384400     13.31146000     12.14410100
H          11.05597500     13.49207100     11.75796200
H          12.62485000     12.82995600     11.31966200
N          13.53559900     11.90439100     15.38253200
S          12.85548900     14.93440800     12.47195600
O          12.52122200     15.22674800     13.90223900
O          14.31321100     14.59964200     12.37806500
O          12.31978300     15.84436800     11.47615200
P          15.69616400     15.73267000     15.37340700
O          15.56129300     14.41624300     16.01442300
O          16.25087000     15.73519800     13.89588000
H          15.52456400     15.27689100     13.24640300
O          14.38765900     16.62829900     15.40571800
H          13.61494100     16.13524600     14.86820900
O          16.75765500     16.62027600     16.16737400
H          16.81734300     17.52872000     15.67867100
          34
 G =       -0.433926 Gcorr = 0.202810 a.u. Nimag =   0 Frame:     3 Step:     3 Geom:     3
C          14.91175200     11.75839400     15.82705200
H          15.34380800     10.81260500     15.47702900
H          15.02527700     11.83556000     16.92002800
H          15.53812100     12.59040300     15.40662100
C          13.45822100     12.12309300     13.89632800
H          13.88563100     11.23101800     13.39733700
H          14.18389300     12.96849400     13.66951300
C          12.83890900     13.05713200     16.13203300
H          12.90386500     14.00291900     15.53189900
H          11.77533700     12.88416700     16.33607900
H          13.35853500     13.28471800     17.07975300
C          12.74406700     10.64198500     15.74894400
H          12.76298300     10.45978500     16.83700700
H          11.68818600     10.69684900     15.43078900
H          13.19467000      9.76805800     15.25005000
C          12.06817100     12.44535800     13.33324400
H          11.46571100     13.04723900     14.05079900
H          11.49412100     11.51352300     13.16794800
C          12.17751900     13.21640600     12.02235000
H          11.17990400     13.36043300     11.57365400
H          12.76579900     12.66240800     11.27337600
N          13.47613400     11.90756400     15.40146700
S          12.94649600     14.86516000     12.23741500
O          12.47138400     15.32511100     13.57692500
O          14.40261300     14.51377800     12.33035900
O          12.53175200     15.64822000     11.08743700
P          15.47879700     15.81094400     15.36966500
O          15.28935900     14.51759900     16.04583200
O          16.16923600     15.75643200     13.95204900
H          15.51265300     15.25149100     13.26061800
O          14.17259800     16.69885300     15.25104700
H          13.46350300     16.20140700     14.62775200
O          16.46310500     16.72866400     16.22700900
H          16.55791000     17.62424900     15.72061500
          34
 G =       -0.433929 Gcorr = 0.202807 a.u. Nimag =   0 Frame:     4 Step:     4 Geom:     4
C          14.86203600     11.72539700     15.90603800
H          15.27275300     10.76230100     15.57829200
H          14.95814300     11.81634800     16.99964100
H          15.51971600     12.53251400     15.48485500
C          13.45479400     12.10529500     13.94417100
H          13.86637300     11.19536700     13.46445800
H          14.20761600     12.92732000     13.72021600
C          12.82114400     13.08534300     16.15601200
H          12.92293600     14.02096300     15.54505600
H          11.74977000     12.94430900     16.34291900
H          13.32999000     13.31125800     17.10995300
C          12.66562700     10.66892600     15.80159500
H          12.65985100     10.50035000     16.89200900
H          11.61761300     10.74913000     15.46345200
H          13.10036500      9.77640600     15.32193000
C          12.08476300     12.45824800     13.35133900
H          11.48673800     13.08665400     14.04959400
H          11.48776900     11.54059800     13.18806600
C          12.23950800     13.20751000     12.03240400
H          11.25463300     13.37281300     11.56334600
H          12.82556900     12.62698300     11.30205700
N          13.43918200     11.90901700     15.45194500
S          13.05034100     14.83717400     12.23926600
O          12.56580100     15.32794700     13.56464700
O          14.49423500     14.44752900     12.36167200
O          12.67634000     15.61602000     11.07254800
P          15.55154500     15.75229000     15.40598000
O          15.31399800     14.47374200     16.09502100
O          16.26741800     15.65891700     14.00283700
H          15.60953400     15.16595000     13.30484000
O          14.27337100     16.67425200     15.25054500
H          13.56240000     16.18911500     14.61888500
O          16.54481400     16.65395400     16.27004900
H          16.67333200     17.54007800     15.75438900
          34
 G =       -0.433936 Gcorr = 0.202800 a.u. Nimag =   0 Frame:     5 Step:     5 Geom:     5
C          14.92412800     11.73218700     15.81444600
H          15.33630400     10.77923400     15.45999500
H          15.05768300     11.81090800     16.90507800
H          15.55515200     12.55386100     15.38093300
C          13.44309000     12.11634400     13.90846800
H          13.85022100     11.21860500     13.40271000
H          14.17596200     12.95195900     13.66901700
C          12.87477500     13.05953300     16.15382500
H          12.94326000     14.00436300     15.55245700
H          11.81233400     12.90161600     16.37514400
H          13.41294800     13.27977500     17.09282700
C          12.74023700     10.64578100     15.77383700
H          12.77627200     10.46304200     16.86136600
H          11.67965100     10.71558600     15.47485000
H          13.16935200      9.76575500     15.26678500
C          12.04813600     12.45682800     13.36881100
H          11.46619400     13.06748000     14.09583400
H          11.45879900     11.53276700     13.21434800
C          12.14573700     13.22512700     12.05531500
H          11.14278700     13.38179600     11.62307300
H          12.71423400     12.66276400     11.29740000
N          13.48366700     11.90103600     15.41321800
S          12.93980200     14.86377500     12.25590600
O          12.49470000     15.33013000     13.60346800
O          14.39269000     14.49349000     12.32307400
O          12.51500100     15.65207700     11.11320400
P          15.54029500     15.77501100     15.34189800
O          15.34346700     14.48464700     16.02164200
O          16.20541800     15.70992000     13.91270600
H          15.52928100     15.21516600     13.23264300
O          14.24567900     16.68244900     15.24541900
H          13.51898700     16.19648500     14.63371200
O          16.55255800     16.67802000     16.18209700
H          16.65122100     17.57250400     15.67452500
          34
 G =       -0.436548 Gcorr = 0.200568 a.u. Nimag =   0 Frame:     6 Step:     6 Geom:     6
C          14.87331400     11.80306700     15.85792400
H          15.29690800     10.82229600     15.61047600
H          14.97016400     11.98602000     16.94119500
H          15.51800100     12.58355700     15.37424800
C          13.46123400     12.04346600     13.87792200
H          13.88895300     11.11499400     13.45105700
H          14.19897000     12.86463900     13.61079100
C          12.80239400     13.12914500     16.03199400
H          12.88936100     14.03829400     15.36746400
H          11.73087400     12.98439700     16.21155400
H          13.29465700     13.41296000     16.97784700
C          12.69977500     10.69478300     15.80994300
H          12.68971900     10.59059200     16.90851900
H          11.65255900     10.73204800     15.46225500
H          13.15774000      9.78616400     15.38614700
C          12.08432100     12.33748200     13.26604600
H          11.42006500     12.86578500     13.98617200
H          11.56438900     11.39009200     13.02468800
C          12.20809200     13.18603300     12.00543400
H          11.21927600     13.32960600     11.53709500
H          12.83010100     12.68868900     11.24323100
N          13.44706500     11.93088300     15.39490700
S          12.92948000     14.83700900     12.33148000
O          12.47953800     15.17329800     13.71949300
O          14.39664900     14.53215700     12.36292000
O          12.45535300     15.69805700     11.26354400
P          15.52345700     15.80729200     15.40957800
O          15.36654400     14.51402800     16.09120300
O          16.18866000     15.76533300     13.97913300
H          15.52141000     15.27023800     13.29414700
O          14.19819700     16.67316100     15.30806500
H          13.47992200     16.14473700     14.73201000
O          16.50323000     16.74940800     16.24459400
H          16.57965200     17.64031200     15.72694700
          34
 G =       -0.436536 Gcorr = 0.200581 a.u. Nimag =   0 Frame:     7 Step:     7 Geom:     7
C          14.85757200     11.78025400     15.87554900
H          15.26976500     10.79077300     15.64399900
H          14.94759500     11.97531700     16.95734400
H          15.51711700     12.54575300     15.38813500
C          13.46656300     12.02225700     13.88088100
H          13.88831500     11.08603700     13.46528200
H          14.21530200     12.83356700     13.61440100
C          12.80112100     13.13273800     16.02001500
H          12.90263300     14.03464800     15.34778300
H          11.72698200     13.00106600     16.19363800
H          13.28998300     13.42006900     16.96657400
C          12.67130100     10.69798100     15.81599800
H          12.65362600     10.60016100     16.91505700
H          11.62667100     10.74706800     15.46209400
H          13.11956600      9.78106600     15.39977700
C          12.09839200     12.32592500     13.25417700
H          11.43399900     12.86845000     13.96351700
H          11.56988700     11.38217200     13.01720500
C          12.24265100     13.16102000     11.98684300
H          11.25953700     13.31120500     11.50850500
H          12.86545000     12.64962500     11.23473000
N          13.43725500     11.92173100     15.39843700
S          12.97944200     14.80695700     12.30379700
O          12.52212600     15.16035900     13.68527900
O          14.44286000     14.48667600     12.34948300
O          12.52286100     15.66335600     11.22456800
P          15.55832400     15.77249400     15.39436200
O          15.38210800     14.48533500     16.08292500
O          16.23443700     15.71446700     13.96963400
H          15.56918600     15.21723200     13.28389500
O          14.24327000     16.65151600     15.27632500
H          13.52382700     16.12595100     14.69806400
O          16.54132100     16.70945500     16.23141200
H          16.62897200     17.59733500     15.71033300
          34
 G =       -0.436556 Gcorr = 0.200561 a.u. Nimag =   0 Frame:     8 Step:     8 Geom:     8
C          14.76304000     11.83572100     15.95723100
H          15.16843900     10.83223600     15.78037300
H          14.82700400     12.07726300     17.03142600
H          15.44494900     12.57117000     15.45440500
C          13.42816300     12.00264300     13.91711200
H          13.84691700     11.04267100     13.55625000
H          14.19550800     12.79068000     13.63380500
C          12.72238000     13.21881200     15.98502400
H          12.85247600     14.08720500     15.27485600
H          11.64264600     13.10828100     16.13738400
H          13.19148200     13.54387700     16.92944100
C          12.56454800     10.77900400     15.88888800
H          12.51528900     10.73319000     16.99037400
H          11.53083700     10.82375000     15.50372600
H          13.01207400      9.83827300     15.52879000
C          12.08153400     12.29539100     13.24046900
H          11.40646100     12.87843700     13.90620200
H          11.54587000     11.34887900     13.03233200
C          12.27138400     13.06959400     11.94083400
H          11.30368200     13.21056300     11.42953400
H          12.90665600     12.51614700     11.22998900
N          13.35777000     11.97263700     15.43638500
S          13.02334500     14.71837600     12.20256400
O          12.53338300     15.14185000     13.55266700
O          14.47998900     14.38040800     12.30449900
O          12.60967400     15.52973400     11.07242400
P          15.53199100     15.79341000     15.31574800
O          15.32156900     14.54185600     16.05821100
O          16.24378700     15.66159400     13.91349900
H          15.59066500     15.14045500     13.23419500
O          14.23187100     16.68150100     15.12305200
H          13.52148100     16.13960000     14.54896400
O          16.50516100     16.75664000     16.13426600
H          16.61799700     17.61816900     15.57510400
          34
 G =       -0.436531 Gcorr = 0.200585 a.u. Nimag =   0 Frame:     9 Step:     9 Geom:     9
C          14.75600200     11.85723100     16.01319800
H          15.17995500     10.86070000     15.84066800
H          14.78994100     12.09302700     17.09009600
H          15.43961000     12.60539100     15.53206500
C          13.46995700     12.02196600     13.94170000
H          13.91275300     11.07189300     13.58333900
H          14.23139700     12.82442500     13.68443400
C          12.69409100     13.20904500     16.00109100
H          12.83019700     14.08589100     15.30235700
H          11.61238900     13.08138100     16.12309400
H          13.13283600     13.53187900     16.96064500
C          12.57630600     10.76810300     15.88081700
H          12.50075600     10.71161900     16.98031800
H          11.55177000     10.80091400     15.47073500
H          13.04667000      9.83745300     15.52366800
C          12.13608600     12.29957500     13.23412700
H          11.43558500     12.86612400     13.88770000
H          11.62087300     11.34665900     13.00465900
C          12.34577500     13.08819800     11.94632800
H          11.38892200     13.21834300     11.41221800
H          13.00734900     12.55125900     11.24694800
N          13.36220800     11.97746100     15.45838100
S          13.06419900     14.74642600     12.24082800
O          12.53580400     15.14873600     13.58296800
O          14.52342000     14.43152100     12.37379200
O          12.66363900     15.56193200     11.10894900
P          15.47951600     15.83042600     15.42321200
O          15.26808900     14.56906900     16.14857700
O          16.22880000     15.72175100     14.03860100
H          15.60006900     15.19888500     13.33778900
O          14.17206500     16.70166500     15.20474300
H          13.48353300     16.15347200     14.61038200
O          16.41741500     16.79971700     16.27503800
H          16.53204500     17.66788200     15.72656100
          34
 G =       -0.436540 Gcorr = 0.200576 a.u. Nimag =   0 Frame:    10 Step:    10 Geom:    10
C          14.85891600     11.81958600     15.88772100
H          15.24707300     10.81990300     15.65824500
H          14.98923900     12.02966700     16.96261300
H          15.51315200     12.56627200     15.36553200
C          13.40352200     12.05282700     13.93838100
H          13.79431200     11.10259500     13.52424200
H          14.15650600     12.84628900     13.63290600
C          12.83077100     13.20806800     16.08095000
H          12.92578400     14.09781400     15.39221300
H          11.76065900     13.09795300     16.29090800
H          13.35500300     13.49995100     17.00699700
C          12.65467200     10.77299800     15.92129000
H          12.67159800     10.69423100     17.02191000
H          11.59986600     10.83270300     15.60078900
H          13.07487200      9.84196900     15.50706500
C          12.02000400     12.37108500     13.35384900
H          11.38905200     12.93437500     14.07720400
H          11.46827700     11.43315200     13.14839800
C          12.13510300     13.18572500     12.07034200
H          11.13890100     13.34631500     11.62329700
H          12.72313000     12.65298900     11.30527100
N          13.42531900     11.97695100     15.45753800
S          12.90977700     14.82301700     12.33795900
O          12.50652200     15.20369400     13.72894900
O          14.36821400     14.47763700     12.33822800
O          12.43061600     15.67221300     11.26278900
P          15.60812100     15.79180300     15.32345700
O          15.43435200     14.51876300     16.03836800
O          16.23305100     15.70030400     13.87724400
H          15.53575400     15.20420300     13.22318400
O          14.30444800     16.69116300     15.23669200
H          13.55577200     16.16808200     14.69489000
O          16.63455100     16.72507100     16.11095100
H          16.72311300     17.60065200     15.56965000
          34
 G =       -0.431535 Gcorr = 0.203684 a.u. Nimag =   0 Frame:    11 Step:    11 Geom:    11
C          14.55891300     11.57695700     16.27905100
H          14.83168800     10.54311700     16.02266200
H          14.47436300     11.66443400     17.37454900
H          15.40888100     12.23052800     15.97518000
C          13.57064800     12.16387800     14.10683700
H          14.18002900     11.30653400     13.75666400
H          14.22286800     13.07910700     13.99014600
C          12.81068600     13.29337300     16.18936800
H          13.66496600     14.00137600     16.34634800
H          12.13380800     13.84309800     15.49718700
H          12.31367300     13.14936600     17.15357300
C          12.25201700     10.93735500     15.82607100
H          12.16117000     10.69339400     16.89790000
H          11.25718800     11.27126800     15.47795700
H          12.50388500     10.01063700     15.28451200
C          12.29403900     12.29358000     13.26375400
H          11.51612100     12.88142500     13.80285200
H          11.84995500     11.29504600     13.08396900
C          12.58731500     12.96175800     11.92760400
H          11.70829700     12.89739900     11.26275100
H          13.40452800     12.45447800     11.38931200
N          13.28730200     12.00114700     15.59505700
S          13.03252500     14.73463900     12.09804800
O          12.59309800     15.07644000     13.49037000
O          14.52155300     14.69964600     12.03108400
O          12.33852600     15.41885400     11.02004300
P          15.59206800     15.93201200     15.08496600
O          15.59742900     14.60095900     15.71128300
O          16.21187300     16.04687300     13.64177300
H          15.58930000     15.49032200     12.95356300
O          14.17176800     16.63602600     15.07796800
H          13.50172100     16.06318200     14.47359000
O          16.48438300     16.93377800     15.95146500
H          16.46343800     17.84804200     15.47257000
          34
 G =       -0.435568 Gcorr = 0.200513 a.u. Nimag =   0 Frame:    12 Step:    12 Geom:    12
C          14.71915000     11.82989900     16.19237900
H          15.00726200     10.77774800     16.29993300
H          14.76533300     12.32769100     17.17835700
H          15.51234100     12.33603000     15.58765800
C          13.55699200     12.10896400     14.04739500
H          14.15766100     11.24650600     13.69414700
H          14.19396000     13.02384900     13.87151600
C          12.68159200     13.20081700     16.11184000
H          13.32833200     14.10763700     15.99717100
H          11.76661500     13.46588400     15.54663900
H          12.44832900     13.08521300     17.17540100
C          12.53174700     10.77719400     15.87005500
H          12.47898400     10.60540300     16.95840600
H          11.49768100     10.90161200     15.50210200
H          12.94701600      9.87126300     15.39904300
C          12.24040400     12.20684100     13.26252700
H          11.43821700     12.67641800     13.87535800
H          11.87069200     11.19376700     13.01057500
C          12.42020300     13.01598500     11.98504900
H          11.50240500     12.97938700     11.37256400
H          13.21750900     12.59607100     11.34942200
N          13.36337300     11.98765900     15.55264800
S          12.81751500     14.78098600     12.29847500
O          12.51178100     14.96906500     13.75584100
O          14.29357400     14.81844200     12.08895900
O          11.99738300     15.53987700     11.36959500
P          15.62361500     15.74681000     15.15819100
O          15.56553700     14.39391300     15.73544700
O          16.18858200     15.87590000     13.69422000
H          15.46627100     15.45540000     13.00577800
O          14.24056600     16.52218100     15.22626000
H          13.50930200     15.96882300     14.67995000
O          16.60368900     16.66252200     16.02171500
H          16.61640600     17.59426400     15.57541400
          34
 G =       -0.436538 Gcorr = 0.200578 a.u. Nimag =   0 Frame:    13 Step:    13 Geom:    13
C          14.77856200     11.84096600     16.02738600
H          15.20177300     10.84745500     15.83654100
H          14.82443100     12.06227200     17.10682500
H          15.45574000     12.59645800     15.54845000
C          13.46868500     12.02929400     13.97290800
H          13.90805900     11.08395500     13.59820000
H          14.22640900     12.83545900     13.71644600
C          12.71585200     13.19124600     16.05506100
H          12.84286600     14.07624800     15.36505000
H          11.63574400     13.06122400     16.18848600
H          13.16563300     13.50318300     17.01314200
C          12.59823200     10.75178000     15.90717900
H          12.53603500     10.68177100     17.00673900
H          11.56879700     10.78894900     15.50995000
H          13.06467900      9.82584700     15.53300000
C          12.12651000     12.31399600     13.28418200
H          11.43316000     12.87226700     13.95238400
H          11.60938000     11.36336600     13.04958900
C          12.32066600     13.11779200     12.00338300
H          11.35757500     13.25340600     11.48200900
H          12.97447200     12.58972900     11.29007800
N          13.37839600     11.96669700     15.49009800
S          13.04135900     14.77306300     12.30899700
O          12.52808200     15.15939500     13.66168700
O          14.50210600     14.45774200     12.42156000
O          12.62717700     15.60129100     11.19133200
P          15.49177800     15.82210900     15.47613300
O          15.28965600     14.55200900     16.18878500
O          16.22524600     15.73063100     14.08177800
H          15.58925100     15.21482600     13.38241000
O          14.18131600     16.69459100     15.28286000
H          13.48662800     16.15270900     14.68960400
O          16.43858800     16.78198000     16.32876300
H          16.54718000     17.65631600     15.78902500
          34
 G =       -0.433928 Gcorr = 0.202809 a.u. Nimag =   0 Frame:    14 Step:    14 Geom:    14
C          14.74439900     11.79758700     16.02817000
H          15.17668400     10.82528400     15.76085900
H          14.78102500     11.93156900     17.12094900
H          15.41996900     12.59211300     15.61147600
C          13.44313800     12.08966900     13.98009600
H          13.88357800     11.16386200     13.56013700
H          14.20365900     12.90678400     13.76404900
C          12.68725400     13.15321700     16.11357400
H          11.60781800     13.01332900     16.24753900
H          13.14246100     13.41975200     17.08401000
H          12.81854200     14.06449600     15.47227900
C          12.56132300     10.72368900     15.84884200
H          12.49913000     10.59780200     16.94323900
H          11.53214200     10.78435800     15.45361600
H          13.02406200      9.81574000     15.42790400
C          12.10557800     12.41020200     13.30090800
H          11.46782500     13.06152300     13.94057200
H          11.52237800     11.48292900     13.14214100
C          12.32791000     13.10822800     11.96364000
H          11.36898900     13.24895000     11.43635600
H          12.95472300     12.50318900     11.28914200
N          13.34723600     11.95373200     15.49153900
S          13.11960000     14.74971700     12.14942700
O          12.56093000     15.28969000     13.42542200
O          14.55625300     14.37389500     12.36647800
O          12.80782000     15.47927900     10.93365900
P          15.44165400     15.80712500     15.40612900
O          15.17344500     14.55509800     16.13159800
O          16.23089200     15.66429400     14.04737500
H          15.61401700     15.13706000     13.33631800
O          14.16909400     16.71376200     15.14750100
H          13.49586400     16.20010200     14.49780900
O          16.38336400     16.74849000     16.28544600
H          16.53726900     17.61350000     15.74182700
          34
 G =       -0.433921 Gcorr = 0.202816 a.u. Nimag =   0 Frame:    15 Step:    15 Geom:    15
C          14.66255600     11.85754600     16.11662300
H          15.09356000     10.87231600     15.89937600
H          14.66312200     12.03059500     17.20453300
H          15.36036900     12.63027700     15.69549600
C          13.43540700     12.08814800     14.01555000
H          13.88078900     11.14412000     13.64418100
H          14.21098100     12.89029300     13.79720900
C          12.61784500     13.23416100     16.08249100
H          11.53309600     13.10888600     16.18409700
H          13.04242800     13.53125500     17.05790700
H          12.78020600     14.12051900     15.41396200
C          12.47587800     10.79792200     15.89987800
H          12.37385700     10.71253600     16.99519600
H          11.46195200     10.85325400     15.46631500
H          12.94398200      9.87120900     15.52873200
C          12.12518800     12.39585700     13.27945900
H          11.47245700     13.07534600     13.87304300
H          11.53853500     11.46865400     13.13364800
C          12.40022800     13.04345300     11.92667200
H          11.46145000     13.17343300     11.36175600
H          13.04395800     12.40923200     11.29637600
N          13.28635100     12.00716700     15.52666200
S          13.20120400     14.68366400     12.08133300
O          12.60454400     15.27373800     13.31729000
O          14.62580300     14.30347200     12.36094100
O          12.93832100     15.37194100     10.83040700
P          15.42236300     15.83520900     15.37633700
O          15.11596900     14.61243500     16.13579400
O          16.25619000     15.63644100     14.05167600
H          15.65818400     15.09063100     13.33858100
O          14.16918100     16.74399900     15.04185500
H          13.51287100     16.21344100     14.38857800
O          16.34316800     16.79856100     16.25396000
H          16.52802500     17.64031300     15.68410700
          34
 G =       -0.436534 Gcorr = 0.200583 a.u. Nimag =   0 Frame:    16 Step:    16 Geom:    16
C          14.69204300     11.82631700     16.02831300
H          15.08400500     10.81534100     15.86455300
H          14.73855300     12.07249900     17.10239600
H          15.39616200     12.54780300     15.53601400