 Entering Gaussian System, Link 0=g16
 Initial command:
 /data0/hywu0/study/g16/l1.exe "/data0/hywu0/study/g16/scratch/Gau-3997794.inp" -scrdir="/data0/hywu0/study/g16/scratch/"
 Default is to use a total of  16 processors:
                               16 via shared-memory
                                1 via Linda
 Entering Link 1 = /data0/hywu0/study/g16/l1.exe PID=   3997795.
  
 Copyright (c) 1988,1990,1992,1993,1995,1998,2003,2009,2016,
            Gaussian, Inc.  All Rights Reserved.
  
 This is part of the Gaussian(R) 16 program.  It is based on
 the Gaussian(R) 09 system (copyright 2009, Gaussian, Inc.),
 the Gaussian(R) 03 system (copyright 2003, Gaussian, Inc.),
 the Gaussian(R) 98 system (copyright 1998, Gaussian, Inc.),
 the Gaussian(R) 94 system (copyright 1995, Gaussian, Inc.),
 the Gaussian 92(TM) system (copyright 1992, Gaussian, Inc.),
 the Gaussian 90(TM) system (copyright 1990, Gaussian, Inc.),
 the Gaussian 88(TM) system (copyright 1988, Gaussian, Inc.),
 the Gaussian 86(TM) system (copyright 1986, Carnegie Mellon
 University), and the Gaussian 82(TM) system (copyright 1983,
 Carnegie Mellon University). Gaussian is a federally registered
 trademark of Gaussian, Inc.
  
 This software contains proprietary and confidential information,
 including trade secrets, belonging to Gaussian, Inc.
  
 This software is provided under written license and may be
 used, copied, transmitted, or stored only in accord with that
 written license.
  
 The following legend is applicable only to US Government
 contracts under FAR:
  
                    RESTRICTED RIGHTS LEGEND
  
 Use, reproduction and disclosure by the US Government is
 subject to restrictions as set forth in subparagraphs (a)
 and (c) of the Commercial Computer Software - Restricted
 Rights clause in FAR 52.227-19.
  
 Gaussian, Inc.
 340 Quinnipiac St., Bldg. 40, Wallingford CT 06492
  
  
 ---------------------------------------------------------------
 Warning -- This program may not be used in any manner that
 competes with the business of Gaussian, Inc. or will provide
 assistance to any competitor of Gaussian, Inc.  The licensee
 of this program is prohibited from giving any competitor of
 Gaussian, Inc. access to this program.  By using this program,
 the user acknowledges that Gaussian, Inc. is engaged in the
 business of creating and licensing software in the field of
 computational chemistry and represents and warrants to the
 licensee that it is not a competitor of Gaussian, Inc. and that
 it will not use this program in any manner prohibited above.
 ---------------------------------------------------------------
  

 Cite this work as:
 Gaussian 16, Revision A.03,
 M. J. Frisch, G. W. Trucks, H. B. Schlegel, G. E. Scuseria, 
 M. A. Robb, J. R. Cheeseman, G. Scalmani, V. Barone, 
 G. A. Petersson, H. Nakatsuji, X. Li, M. Caricato, A. V. Marenich, 
 J. Bloino, B. G. Janesko, R. Gomperts, B. Mennucci, H. P. Hratchian, 
 J. V. Ortiz, A. F. Izmaylov, J. L. Sonnenberg, D. Williams-Young, 
 F. Ding, F. Lipparini, F. Egidi, J. Goings, B. Peng, A. Petrone, 
 T. Henderson, D. Ranasinghe, V. G. Zakrzewski, J. Gao, N. Rega, 
 G. Zheng, W. Liang, M. Hada, M. Ehara, K. Toyota, R. Fukuda, 
 J. Hasegawa, M. Ishida, T. Nakajima, Y. Honda, O. Kitao, H. Nakai, 
 T. Vreven, K. Throssell, J. A. Montgomery, Jr., J. E. Peralta, 
 F. Ogliaro, M. J. Bearpark, J. J. Heyd, E. N. Brothers, K. N. Kudin, 
 V. N. Staroverov, T. A. Keith, R. Kobayashi, J. Normand, 
 K. Raghavachari, A. P. Rendell, J. C. Burant, S. S. Iyengar, 
 J. Tomasi, M. Cossi, J. M. Millam, M. Klene, C. Adamo, R. Cammi, 
 J. W. Ochterski, R. L. Martin, K. Morokuma, O. Farkas, 
 J. B. Foresman, and D. J. Fox, Gaussian, Inc., Wallingford CT, 2016.
 
 ******************************************
 Gaussian 16:  ES64L-G16RevA.03 25-Dec-2016
                16-May-2022 
 ******************************************
 %nproc=16
 Will use up to   16 processors via shared memory.
 %mem=20GB
 ---------------------------------------------------
 #p M062X/6-311+G(2d,p) nosymm em=GD3 counterpoise=4
 ---------------------------------------------------
 1/38=1,62=4,172=1/1;
 2/12=2,15=1,17=6,18=5,40=1/2;
 1/38=1,53=2,62=4,63=1/22;
 3/5=4,6=6,7=112,11=2,25=1,30=1,74=-55,124=31/1,2,3;
 4//1;
 5/5=2,38=5/2;
 6/7=2,8=2,9=2,10=2,28=1/1;
 1/53=2,62=4,63=1/22;
 3/5=7,6=11,7=112,11=2,25=1,30=1,74=-55,82=7,124=31/1,2,3;
 4//1;
 5/5=2,38=5/2;
 6/7=2,8=2,9=2,10=2,28=1/1;
 1/53=2,62=4,63=1/22(-4);
 99/5=1,9=1/99;
 Leave Link    1 at Mon May 16 09:02:39 2022, MaxMem=  2684354560 cpu:               0.5 elap:               0.0
 (Enter /data0/hywu0/study/g16/l101.exe)
 -------------------
 Title Card Required
 -------------------
 Symbolic Z-matrix:
 Charge =  0 Multiplicity = 1 in supermolecule
 Charge =  0 Multiplicity = 1 in fragment      1.
 Charge =  0 Multiplicity = 1 in fragment      2.
 Charge =  0 Multiplicity = 1 in fragment      3.
 Charge =  0 Multiplicity = 1 in fragment      4.
 C                     10.18345   12.07911   9.76091    
 C                     10.94969   11.90008   8.61249    
 C                     10.57792   10.93985   7.67137    
 C                     9.43153   10.17519   7.89357    
 C                     8.66401   10.40972   9.04572    
 H                     11.21035   10.75902   6.79627    
 H                     10.49151   12.7695   10.55396    
 H                     11.86517   12.48455   8.47464    
 H                     7.77211   9.78882   9.28046    
 C                     9.04071   9.08074   6.97178    
 H                     7.96038   8.88187   6.96599    
 H                     9.354     9.25997   5.93528    
 H                     9.52745   8.13247   7.29228    
 N                     9.03615   11.3607   9.94051    
 C                     8.18195   11.64365   11.11985    
 H                     7.91458   12.72366   11.09777    
 H                     7.22057   11.07948   11.01258    
 C                     8.86191   11.28414   12.45605    
 H                     9.89787   10.90486   12.29062    
 H                     9.0036    12.20688   13.05358    
 C                     8.06126   10.27347   13.26402    
 H                     7.00921   10.58126   13.37471    
 H                     8.45991   10.21357   14.29489    
 S                     8.11115   8.58845   12.5749    
 O                     8.13227   8.81333   11.08082    
 O                     6.90851   7.94065   13.07265    
 O                     9.41161   8.02913   13.03185    
 P                     11.55887   8.70957   10.47477    
 O                     11.54232   10.18332   10.68773    
 O                     12.77813   8.22175   9.56362    
 H                     12.92472   8.96529   8.85133    
 O                     11.75425   7.83502   11.75755    
 H                     10.79599   7.88434   12.3111    
 O                     10.30035   8.22555   9.64994    
 H                     9.40842   8.3773    10.24516    
 O                     13.60554   11.90661   10.13699    
 H                     12.85495   11.31969   10.40536    
 H                     14.29888   11.6908   10.75656    
 O                     13.51943   10.4901   7.71541    
 H                     14.41657   10.35935   7.42085    
 H                     13.5928   11.04723   8.51414    
 
 ITRead=  0  0  0  0  0  0  0  0  0  0  0  0  0  0  0  0  0  0  0  0
 ITRead=  0  0  0  0  0  0  0  0  0  0  0  0  0  0  0  0  0  0  0  0
 ITRead=  0
 MicOpt= -1 -1 -1 -1 -1 -1 -1 -1 -1 -1 -1 -1 -1 -1 -1 -1 -1 -1 -1 -1
 MicOpt= -1 -1 -1 -1 -1 -1 -1 -1 -1 -1 -1 -1 -1 -1 -1 -1 -1 -1 -1 -1
 MicOpt= -1
 NAtoms=     41 NQM=       41 NQMF=       0 NMMI=      0 NMMIF=      0
                NMic=       0 NMicF=      0.
                    Isotopes and Nuclear Properties:
 (Nuclear quadrupole moments (NQMom) in fm**2, nuclear magnetic moments (NMagM)
  in nuclear magnetons)

  Atom         1           2           3           4           5           6           7           8           9          10
 IAtWgt=          12          12          12          12          12           1           1           1           1          12
 AtmWgt=  12.0000000  12.0000000  12.0000000  12.0000000  12.0000000   1.0078250   1.0078250   1.0078250   1.0078250  12.0000000
 NucSpn=           0           0           0           0           0           1           1           1           1           0
 AtZEff=  -0.0000000  -0.0000000  -0.0000000  -0.0000000  -0.0000000  -0.0000000  -0.0000000  -0.0000000  -0.0000000  -0.0000000
 NQMom=    0.0000000   0.0000000   0.0000000   0.0000000   0.0000000   0.0000000   0.0000000   0.0000000   0.0000000   0.0000000
 NMagM=    0.0000000   0.0000000   0.0000000   0.0000000   0.0000000   2.7928460   2.7928460   2.7928460   2.7928460   0.0000000
 AtZNuc=   6.0000000   6.0000000   6.0000000   6.0000000   6.0000000   1.0000000   1.0000000   1.0000000   1.0000000   6.0000000

  Atom        11          12          13          14          15          16          17          18          19          20
 IAtWgt=           1           1           1          14          12           1           1          12           1           1
 AtmWgt=   1.0078250   1.0078250   1.0078250  14.0030740  12.0000000   1.0078250   1.0078250  12.0000000   1.0078250   1.0078250
 NucSpn=           1           1           1           2           0           1           1           0           1           1
 AtZEff=  -0.0000000  -0.0000000  -0.0000000  -0.0000000  -0.0000000  -0.0000000  -0.0000000  -0.0000000  -0.0000000  -0.0000000
 NQMom=    0.0000000   0.0000000   0.0000000   2.0440000   0.0000000   0.0000000   0.0000000   0.0000000   0.0000000   0.0000000
 NMagM=    2.7928460   2.7928460   2.7928460   0.4037610   0.0000000   2.7928460   2.7928460   0.0000000   2.7928460   2.7928460
 AtZNuc=   1.0000000   1.0000000   1.0000000   7.0000000   6.0000000   1.0000000   1.0000000   6.0000000   1.0000000   1.0000000

  Atom        21          22          23          24          25          26          27          28          29          30
 IAtWgt=          12           1           1          32          16          16          16          31          16          16
 AtmWgt=  12.0000000   1.0078250   1.0078250  31.9720718  15.9949146  15.9949146  15.9949146  30.9737634  15.9949146  15.9949146
 NucSpn=           0           1           1           0           0           0           0           1           0           0
 AtZEff=  -0.0000000  -0.0000000  -0.0000000  -0.0000000  -0.0000000  -0.0000000  -0.0000000  -0.0000000  -0.0000000  -0.0000000
 NQMom=    0.0000000   0.0000000   0.0000000   0.0000000   0.0000000   0.0000000   0.0000000   0.0000000   0.0000000   0.0000000
 NMagM=    0.0000000   2.7928460   2.7928460   0.0000000   0.0000000   0.0000000   0.0000000   1.1316000   0.0000000   0.0000000
 AtZNuc=   6.0000000   1.0000000   1.0000000  16.0000000   8.0000000   8.0000000   8.0000000  15.0000000   8.0000000   8.0000000

  Atom        31          32          33          34          35          36          37          38          39          40
 IAtWgt=           1          16           1          16           1          16           1           1          16           1
 AtmWgt=   1.0078250  15.9949146   1.0078250  15.9949146   1.0078250  15.9949146   1.0078250   1.0078250  15.9949146   1.0078250
 NucSpn=           1           0           1           0           1           0           1           1           0           1
 AtZEff=  -0.0000000  -0.0000000  -0.0000000  -0.0000000  -0.0000000  -0.0000000  -0.0000000  -0.0000000  -0.0000000  -0.0000000
 NQMom=    0.0000000   0.0000000   0.0000000   0.0000000   0.0000000   0.0000000   0.0000000   0.0000000   0.0000000   0.0000000
 NMagM=    2.7928460   0.0000000   2.7928460   0.0000000   2.7928460   0.0000000   2.7928460   2.7928460   0.0000000   2.7928460
 AtZNuc=   1.0000000   8.0000000   1.0000000   8.0000000   1.0000000   8.0000000   1.0000000   1.0000000   8.0000000   1.0000000

  Atom        41
 IAtWgt=           1
 AtmWgt=   1.0078250
 NucSpn=           1
 AtZEff=  -0.0000000
 NQMom=    0.0000000
 NMagM=    2.7928460
 AtZNuc=   1.0000000
 Leave Link  101 at Mon May 16 09:02:39 2022, MaxMem=  2684354560 cpu:               1.5 elap:               0.1
 (Enter /data0/hywu0/study/g16/l202.exe)
                          Input orientation:                          
 ---------------------------------------------------------------------
 Center     Atomic      Atomic             Coordinates (Angstroms)
 Number     Number       Type             X           Y           Z
 ---------------------------------------------------------------------
      1          6           0       10.183452   12.079111    9.760909
      2          6           0       10.949692   11.900079    8.612488
      3          6           0       10.577915   10.939851    7.671365
      4          6           0        9.431530   10.175186    7.893573
      5          6           0        8.664008   10.409720    9.045721
      6          1           0       11.210348   10.759018    6.796268
      7          1           0       10.491507   12.769503   10.553958
      8          1           0       11.865170   12.484553    8.474641
      9          1           0        7.772113    9.788819    9.280464
     10          6           0        9.040711    9.080736    6.971782
     11          1           0        7.960383    8.881871    6.965992
     12          1           0        9.354000    9.259968    5.935282
     13          1           0        9.527454    8.132466    7.292276
     14          7           0        9.036146   11.360701    9.940514
     15          6           0        8.181946   11.643653   11.119849
     16          1           0        7.914575   12.723656   11.097765
     17          1           0        7.220566   11.079476   11.012576
     18          6           0        8.861905   11.284143   12.456052
     19          1           0        9.897868   10.904862   12.290622
     20          1           0        9.003604   12.206875   13.053582
     21          6           0        8.061262   10.273473   13.264020
     22          1           0        7.009207   10.581255   13.374706
     23          1           0        8.459906   10.213572   14.294885
     24         16           0        8.111146    8.588455   12.574903
     25          8           0        8.132268    8.813334   11.080816
     26          8           0        6.908506    7.940652   13.072650
     27          8           0        9.411610    8.029127   13.031851
     28         15           0       11.558873    8.709567   10.474772
     29          8           0       11.542325   10.183315   10.687734
     30          8           0       12.778130    8.221746    9.563623
     31          1           0       12.924720    8.965293    8.851334
     32          8           0       11.754249    7.835016   11.757545
     33          1           0       10.795986    7.884341   12.311098
     34          8           0       10.300349    8.225548    9.649944
     35          1           0        9.408422    8.377296   10.245155
     36          8           0       13.605542   11.906612   10.136987
     37          1           0       12.854946   11.319687   10.405361
     38          1           0       14.298883   11.690803   10.756560
     39          8           0       13.519432   10.490105    7.715405
     40          1           0       14.416565   10.359347    7.420850
     41          1           0       13.592795   11.047230    8.514140
 ---------------------------------------------------------------------
                    Distance matrix (angstroms):
                    1          2          3          4          5
     1  C    0.000000
     2  C    1.392138   0.000000
     3  C    2.412407   1.394980   0.000000
     4  C    2.770787   2.407677   1.395811   0.000000
     5  C    2.367925   2.762827   2.415147   1.404116   0.000000
     6  H    3.403859   2.160698   1.094745   2.170053   3.415537
     7  H    1.095658   2.176037   3.415324   3.864153   3.344115
     8  H    2.155700   1.094857   2.165267   3.404911   3.857266
     9  H    3.360182   3.873063   3.433162   2.196909   1.111800
    10  C    4.251510   3.779526   2.511717   1.483327   2.491852
    11  H    4.793322   4.555930   3.403573   2.167336   2.674824
    12  H    4.824000   4.084587   2.708128   2.162993   3.387159
    13  H    4.701116   4.237998   3.021355   2.131540   3.000999
    14  N    1.365534   2.390866   2.775465   2.398279   1.357758
    15  C    2.458123   3.743398   4.257704   3.758552   2.461094
    16  H    2.711167   4.008343   4.692074   4.366085   3.182269
    17  H    3.368180   4.510010   4.738668   3.928649   2.529944
    18  C    3.105198   4.417150   5.094748   4.729743   3.526207
    19  H    2.803545   3.952905   4.669178   4.481511   3.506702
    20  H    3.500009   4.858467   5.749093   5.562066   4.405456
    21  C    4.476137   5.711885   6.168905   5.543374   4.263322
    22  H    5.037751   6.320240   6.737386   6.006277   4.637661
    23  H    5.196901   6.429073   6.991742   6.474745   5.256791
    24  S    4.939402   5.892786   5.971490   5.116247   4.009712
    25  O    4.076127   4.853712   4.704000   3.701519   2.640607
    26  O    6.230549   7.204255   7.185655   6.179129   5.039270
    27  O    5.262810   6.072951   6.210265   5.568471   4.702698
    28  P    3.708802   3.744138   3.714234   3.651878   3.648692
    29  O    2.509897   2.757742   3.255905   3.501836   3.321472
    30  O    4.653014   4.216394   3.976139   4.219565   4.688438
    31  H    4.247086   3.545526   3.286138   3.818838   4.503090
    32  O    4.946342   5.202253   5.265038   5.079537   4.851049
    33  H    4.947197   5.461638   5.559750   5.159868   4.646026
    34  O    3.856932   3.873001   3.370350   2.764195   2.795229
    35  H    3.812952   4.177453   3.815599   2.960216   2.474579
    36  O    3.447012   3.062300   4.022492   5.045108   5.277339
    37  H    2.851127   2.679784   3.578251   4.397583   4.498958
    38  H    4.251926   3.982201   4.891621   5.846787   6.026604
    39  O    4.223481   3.065346   2.976026   4.103884   5.035012
    40  H    5.133489   3.976564   3.890370   5.010784   5.977847
    41  H    3.773968   2.779032   3.132300   4.296707   4.998194
                    6          7          8          9         10
     6  H    0.000000
     7  H    4.321923   0.000000
     8  H    2.494634   2.508327   0.000000
     9  H    4.351319   4.231001   4.966835   0.000000
    10  C    2.748592   5.342639   4.671416   2.727771   0.000000
    11  H    3.756961   5.864620   5.522925   2.492946   1.098494
    12  H    2.536627   5.911254   4.811680   3.737953   1.097546
    13  H    3.158628   5.750659   5.079721   3.126918   1.113037
    14  N    3.869814   2.116391   3.378639   2.122324   3.743211
    15  C    5.352303   2.630940   4.611982   2.644184   4.951008
    16  H    5.764096   2.634086   4.748173   3.454873   5.618077
    17  H    5.813631   3.710199   5.476103   2.229397   4.861677
    18  C    6.150130   2.912020   5.129544   3.675323   5.913053
    19  H    5.650823   2.616351   4.574649   3.850381   5.687901
    20  H    6.791170   2.962858   5.406696   4.647578   6.838305
    21  C    7.210015   4.413694   6.503595   4.023334   6.478750
    22  H    7.807498   4.987130   7.156365   4.239434   6.883023
    23  H    8.005729   4.965352   7.115365   5.079163   7.432933
    24  S    6.907172   5.218381   6.788551   3.522662   5.701000
    25  O    5.622954   4.636255   5.848466   2.079074   4.216744
    26  O    8.114309   6.519165   8.145995   4.306067   6.562521
    27  O    7.040615   5.456858   6.829271   4.456161   6.161808
    28  P    4.225294   4.198645   4.283090   4.114694   4.330109
    29  O    3.947803   2.794724   3.209004   4.043579   4.613247
    30  O    4.068654   5.185702   4.493429   5.253199   4.628586
    31  H    3.221772   4.826123   3.694555   5.235619   4.316430
    32  O    5.784452   5.233765   5.692799   5.080422   5.640801
    33  H    6.232882   5.200486   6.084695   4.685679   5.746359
    34  O    3.923014   4.636950   4.687123   2.995381   3.080679
    35  H    4.562276   4.534304   5.102930   2.366545   3.368235
    36  O    4.267825   3.258168   2.475137   6.264788   6.232317
    37  H    4.005572   2.776669   2.462570   5.426246   5.599174
    38  H    5.107953   3.962418   3.429308   6.956661   6.984652
    39  O    2.499799   4.735121   2.700156   5.997740   4.753760
    40  H    3.290846   5.570574   3.483761   6.923324   5.544034
    41  H    2.951305   4.092074   2.247698   6.004264   5.193018
                   11         12         13         14         15
    11  H    0.000000
    12  H    1.774116   0.000000
    13  H    1.767422   1.772789   0.000000
    14  N    4.018662   4.533872   4.204289   0.000000
    15  C    4.993101   5.825410   5.365551   1.483425   0.000000
    16  H    5.642070   6.381247   6.177552   2.110639   1.112826
    17  H    4.663865   5.800092   5.277048   2.127142   1.119846
    18  C    6.060067   6.845428   6.086099   2.522727   1.541762
    19  H    6.016479   6.587246   5.727726   2.544280   2.204747
    20  H    7.014465   7.712148   7.075866   3.226184   2.175239
    21  C    6.450728   7.510577   6.511172   3.630173   2.547435
    22  H    6.698079   7.911314   7.023823   4.063212   2.754703
    23  H    7.465629   8.461189   7.382899   4.539659   3.493315
    24  S    5.618603   6.788239   5.488169   3.934587   3.384735
    25  O    4.118983   5.307413   4.094284   2.933660   2.831024
    26  O    6.267664   7.659181   6.348890   5.102339   4.375763
    27  O    6.295068   7.202748   5.741674   4.560342   4.269968
    28  P    5.028952   5.076552   3.819423   3.698391   4.519803
    29  O    5.326859   5.312922   4.449137   2.868015   3.689371
    30  O    5.513088   5.095825   3.966596   4.898727   5.937693
    31  H    5.310943   4.619549   3.829579   4.695242   5.900312
    32  O    6.200670   6.456813   4.998572   4.808341   5.260582
    33  H    6.132362   6.680023   5.182597   4.560897   4.731248
    34  O    3.620746   3.970430   2.482867   3.392908   4.281553
    35  H    3.619989   4.399668   2.965401   3.021937   3.597002
    36  O    7.146474   6.537175   6.242384   4.606083   5.518202
    37  H    6.459795   6.039923   5.560744   3.847207   4.738394
    38  H    7.901588   7.321581   6.886912   5.335850   6.127897
    39  O    5.835329   4.693921   4.655469   5.080246   6.435034
    40  H    6.638683   5.389352   5.373913   6.024975   7.362235
    41  H    6.229736   5.273727   5.149349   4.784962   6.035124
                   16         17         18         19         20
    16  H    0.000000
    17  H    1.786682   0.000000
    18  C    2.194214   2.195337   0.000000
    19  H    2.943530   2.971841   1.115545   0.000000
    20  H    2.297448   2.935295   1.108402   1.754153   0.000000
    21  C    3.273771   2.534839   1.521609   2.172390   2.161096
    22  H    3.254848   2.423335   2.184140   3.102309   2.592948
    23  H    4.101156   3.613766   2.165417   2.561774   2.410331
    24  S    4.395505   3.072326   2.800803   2.939206   3.757470
    25  O    3.916414   2.443616   2.920367   2.992568   4.020840
    26  O    5.271572   3.767426   3.921083   4.281868   4.752942
    27  O    5.293430   4.264126   3.350948   3.009272   4.197680
    28  P    5.457283   4.972586   4.222268   3.297813   5.040915
    29  O    4.447699   4.425633   3.394617   2.407098   4.017105
    30  O    6.802570   6.415029   5.751629   4.788689   6.504469
    31  H    6.653818   6.455859   5.905720   4.975185   6.598628
    32  O    6.251176   5.624569   4.555221   3.626882   5.325309
    33  H    5.761395   4.967764   3.914120   3.151283   4.737955
    34  O    5.293494   4.414378   4.392991   3.783371   5.396042
    35  H    4.674331   3.560537   3.692764   3.288173   4.766216
    36  O    5.829045   6.497594   5.316730   4.403237   5.456603
    37  H    5.182453   5.672094   4.488984   3.531374   4.757417
    38  H    6.476310   7.109278   5.710900   4.726519   5.795051
    39  O    6.916902   7.134032   6.693040   5.849817   7.199732
    40  H    7.834892   8.074744   7.553989   6.665650   8.027526
    41  H    6.459698   6.844598   6.162477   5.285316   6.558352
                   21         22         23         24         25
    21  C    0.000000
    22  H    1.101726   0.000000
    23  H    1.106882   1.756829   0.000000
    24  S    1.821169   2.413546   2.391856   0.000000
    25  O    2.627437   3.106242   3.521115   1.511063   0.000000
    26  O    2.609123   2.659730   3.011124   1.453872   2.495310
    27  O    2.629531   3.521711   2.696812   1.487567   2.461348
    28  P    4.739092   5.710717   5.143821   4.038817   3.481333
    29  O    4.331648   5.284632   4.744867   4.228235   3.695923
    30  O    6.336511   7.305622   6.708149   5.566240   4.922995
    31  H    6.695996   7.620074   7.150176   6.097333   5.287842
    32  O    4.674793   5.715983   4.790440   3.808929   3.812324
    33  H    3.754295   4.769099   3.849415   2.788142   3.077664
    34  O    4.719010   5.500438   5.377262   3.671471   2.663355
    35  H    3.811020   4.517495   4.546637   2.674928   1.586514
    36  O    6.571493   7.466661   6.828768   6.866002   6.357351
    37  H    5.678547   6.598102   5.972291   5.888139   5.389038
    38  H    6.870524   7.824651   6.985385   7.156747   6.812643
    39  O    7.786249   8.626646   8.304507   7.515354   6.569558
    40  H    8.633648   9.506135   9.096999   8.334184   7.434911
    41  H    7.331979   8.196698   7.775509   7.251472   6.433931
                   26         27         28         29         30
    26  O    0.000000
    27  O    2.504999   0.000000
    28  P    5.382018   3.407696   0.000000
    29  O    5.673591   3.830843   1.489147   0.000000
    30  O    6.844324   4.837268   1.598358   2.576547   0.000000
    31  H    7.420528   5.540313   2.136933   2.601338   1.040051
    32  O    5.022140   2.673853   1.564774   2.589192   2.451772
    33  H    3.961771   1.567464   2.152925   2.911634   3.404608
    34  O    4.827078   3.502247   1.580664   2.540150   2.479287
    35  H    3.799338   2.808364   2.188051   2.830393   3.441455
    36  O    8.318488   6.403452   3.811043   2.744073   3.819895
    37  H    7.341148   5.439007   2.915021   1.758991   3.211178
    38  H    8.604974   6.516921   4.058919   3.142590   3.971164
    39  O    8.882800   7.155083   3.824685   3.582989   3.018425
    40  H    9.703807   7.871647   4.496067   4.354856   3.441698
    41  H    8.666635   6.855725   3.666822   3.110512   3.122251
                   31         32         33         34         35
    31  H    0.000000
    32  O    3.330704   0.000000
    33  H    4.203562   1.107755   0.000000
    34  O    2.841184   2.590043   2.728336   0.000000
    35  H    3.827901   2.843290   2.537018   1.082976   0.000000
    36  O    3.281430   4.757246   5.366473   4.971091   5.484851
    37  H    2.821886   3.896520   4.435398   4.082930   4.534519
    38  H    3.598140   4.726968   5.401484   5.405633   5.929374
    39  O    1.992252   5.148229   5.943699   4.385562   5.269156
    40  H    2.493045   5.680413   6.568773   5.144433   6.081671
    41  H    2.212348   4.921204   5.678283   4.482426   5.256799
                   36         37         38         39         40
    36  O    0.000000
    37  H    0.989899   0.000000
    38  H    0.954550   1.531673   0.000000
    39  O    2.806772   2.892337   3.361226   0.000000
    40  H    3.229425   3.502601   3.593548   0.953262   0.000000
    41  H    1.836391   2.048260   2.437456   0.976600   1.532013
                   41
    41  H    0.000000
 Symmetry turned off by external request.
 Stoichiometry    C9H20NO9PS
 Framework group  C1[X(C9H20NO9PS)]
 Deg. of freedom   117
 Full point group                 C1      NOp   1
 Rotational constants (GHZ):           0.3870218           0.2075298           0.1885445
 Leave Link  202 at Mon May 16 09:02:39 2022, MaxMem=  2684354560 cpu:               0.1 elap:               0.0
 (Enter /data0/hywu0/study/g16/l122.exe)
 Counterpoise: doing full-system calculation.
 Leave Link  122 at Mon May 16 09:02:39 2022, MaxMem=  2684354560 cpu:               0.0 elap:               0.0
 (Enter /data0/hywu0/study/g16/l301.exe)
 Standard basis: 6-311+G(2d,p) (5D, 7F)
 Ernie: Thresh=  0.10000D-02 Tol=  0.10000D-05 Strict=F.
   703 basis functions,  1070 primitive gaussians,   745 cartesian basis functions
    92 alpha electrons       92 beta electrons
       nuclear repulsion energy      2490.2739393880 Hartrees.
 IExCor= 4336 DFT=T Ex+Corr=M062X ExCW=0 ScaHFX=  0.540000
 ScaDFX=  1.000000  1.000000  1.000000  1.000000 ScalE2=  1.000000  1.000000
 IRadAn=      5 IRanWt=     -1 IRanGd=            0 ICorTp=0 IEmpDi=131
 NAtoms=   41 NActive=   41 NUniq=   41 SFac= 1.00D+00 NAtFMM=   60 NAOKFM=F Big=F
 Integral buffers will be    131072 words long.
 Raffenetti 2 integral format.
 Two-electron integral symmetry is turned off.
 R6Disp:  Grimme-D3 Dispersion energy=       -0.0037324331 Hartrees.
 Nuclear repulsion after empirical dispersion term =     2490.2702069549 Hartrees.
 Leave Link  301 at Mon May 16 09:02:40 2022, MaxMem=  2684354560 cpu:               0.8 elap:               0.1
 (Enter /data0/hywu0/study/g16/l302.exe)
 NPDir=0 NMtPBC=     1 NCelOv=     1 NCel=       1 NClECP=     1 NCelD=      1
         NCelK=      1 NCelE2=     1 NClLst=     1 CellRange=     0.0.
 One-electron integrals computed using PRISM.
 NBasis=   703 RedAO= T EigKep=  1.52D-06  NBF=   703
 NBsUse=   703 1.00D-06 EigRej= -1.00D+00 NBFU=   703
 Precomputing XC quadrature grid using
 IXCGrd= 4 IRadAn=           5 IRanWt=          -1 IRanGd=           0 AccXCQ= 0.00D+00.
 Generated NRdTot=       0 NPtTot=           0 NUsed=           0 NTot=          32
 NSgBfM=   732   732   732   732   732 MxSgAt=    41 MxSgA2=    41.
 Leave Link  302 at Mon May 16 09:02:40 2022, MaxMem=  2684354560 cpu:              15.0 elap:               1.0
 (Enter /data0/hywu0/study/g16/l303.exe)
 DipDrv:  MaxL=1.
 Leave Link  303 at Mon May 16 09:02:41 2022, MaxMem=  2684354560 cpu:               1.7 elap:               0.1
 (Enter /data0/hywu0/study/g16/l401.exe)
 ExpMin= 3.48D-02 ExpMax= 9.34D+04 ExpMxC= 3.17D+03 IAcc=3 IRadAn=         5 AccDes= 0.00D+00
 Harris functional with IExCor= 1009 and IRadAn=       5 diagonalized for initial guess.
 HarFok:  IExCor= 1009 AccDes= 0.00D+00 IRadAn=         5 IDoV= 1 UseB2=F ITyADJ=14
 ICtDFT=  3500011 ScaDFX=  1.000000  1.000000  1.000000  1.000000
 FoFCou: FMM=F IPFlag=           0 FMFlag=      100000 FMFlg1=           0
         NFxFlg=           0 DoJE=T BraDBF=F KetDBF=T FulRan=T
         wScrn=  0.000000 ICntrl=       500 IOpCl=  0 I1Cent=   200000004 NGrid=           0
         NMat0=    1 NMatS0=      1 NMatT0=    0 NMatD0=    1 NMtDS0=    0 NMtDT0=    0
 Symmetry not used in FoFCou.
 Harris En= -1825.65918942598    
 JPrj=0 DoOrth=F DoCkMO=F.
 Leave Link  401 at Mon May 16 09:02:45 2022, MaxMem=  2684354560 cpu:              68.7 elap:               4.3
 (Enter /data0/hywu0/study/g16/l502.exe)
 Two-electron integral symmetry not used.
 Closed shell SCF:
 Using DIIS extrapolation, IDIIS=  1040.
 NGot=  2684354560 LenX=  2683227422 LenY=  2682671652
 Requested convergence on RMS density matrix=1.00D-08 within 128 cycles.
 Requested convergence on MAX density matrix=1.00D-06.
 Requested convergence on             energy=1.00D-06.
 No special actions if energy rises.
 Fock matrices will be formed incrementally for  20 cycles.

 Cycle   1  Pass 1  IDiag  1:
 FoFJK:  IHMeth= 1 ICntrl=       0 DoSepK=F KAlg= 0 I1Cent=           0 FoldK=F
 IRaf= 830000000 NMat=       1 IRICut=       1 DoRegI=T DoRafI=F ISym2E= 0 IDoP0=0 IntGTp=1.
 FoFCou: FMM=F IPFlag=           0 FMFlag=      100000 FMFlg1=           0
         NFxFlg=           0 DoJE=F BraDBF=F KetDBF=F FulRan=T
         wScrn=  0.000000 ICntrl=         0 IOpCl=  0 I1Cent=           0 NGrid=           0
         NMat0=    1 NMatS0=      1 NMatT0=    0 NMatD0=    1 NMtDS0=    0 NMtDT0=    0
 Symmetry not used in FoFCou.
 E= -1825.50362841373    
 DIIS: error= 2.06D-02 at cycle   1 NSaved=   1.
 NSaved= 1 IEnMin= 1 EnMin= -1825.50362841373     IErMin= 1 ErrMin= 2.06D-02
 ErrMax= 2.06D-02  0.00D+00 EMaxC= 1.00D-01 BMatC= 1.43D+00 BMatP= 1.43D+00
 IDIUse=3 WtCom= 7.94D-01 WtEn= 2.06D-01
 Coeff-Com:  0.100D+01
 Coeff-En:   0.100D+01
 Coeff:      0.100D+01
 Gap=     0.240 Goal=   None    Shift=    0.000
 GapD=    0.240 DampG=1.000 DampE=0.500 DampFc=0.5000 IDamp=-1.
 Damping current iteration by 5.00D-01
 RMSDP=4.27D-02 MaxDP=1.31D+01              OVMax= 1.70D-01

 Cycle   2  Pass 1  IDiag  1:
 RMSU=  1.41D-02    CP:  1.48D+00
 E= -1825.88132766743     Delta-E=       -0.377699253700 Rises=F Damp=T
 DIIS: error= 5.57D-03 at cycle   2 NSaved=   2.
 NSaved= 2 IEnMin= 2 EnMin= -1825.88132766743     IErMin= 2 ErrMin= 5.57D-03
 ErrMax= 5.57D-03  0.00D+00 EMaxC= 1.00D-01 BMatC= 8.26D-02 BMatP= 1.43D+00
 IDIUse=3 WtCom= 9.44D-01 WtEn= 5.57D-02
 Coeff-Com:  0.313D-01 0.969D+00
 Coeff-En:   0.124D+00 0.876D+00
 Coeff:      0.365D-01 0.964D+00
 Gap=     0.306 Goal=   None    Shift=    0.000
 RMSDP=1.35D-02 MaxDP=4.36D+00 DE=-3.78D-01 OVMax= 1.40D-01

 Cycle   3  Pass 1  IDiag  1:
 RMSU=  4.17D-03    CP:  1.13D+00  6.37D-01
 E= -1826.33708441483     Delta-E=       -0.455756747397 Rises=F Damp=F
 DIIS: error= 4.22D-03 at cycle   3 NSaved=   3.
 NSaved= 3 IEnMin= 3 EnMin= -1826.33708441483     IErMin= 3 ErrMin= 4.22D-03
 ErrMax= 4.22D-03  0.00D+00 EMaxC= 1.00D-01 BMatC= 3.13D-02 BMatP= 8.26D-02
 IDIUse=3 WtCom= 9.58D-01 WtEn= 4.22D-02
 Coeff-Com: -0.452D-01 0.347D+00 0.698D+00
 Coeff-En:   0.000D+00 0.000D+00 0.100D+01
 Coeff:     -0.433D-01 0.333D+00 0.711D+00
 Gap=     0.264 Goal=   None    Shift=    0.000
 RMSDP=1.29D-03 MaxDP=2.08D-01 DE=-4.56D-01 OVMax= 4.42D-02

 Cycle   4  Pass 1  IDiag  1:
 RMSU=  1.15D-03    CP:  1.12D+00  6.53D-01  8.84D-01
 E= -1826.35436031345     Delta-E=       -0.017275898624 Rises=F Damp=F
 DIIS: error= 2.23D-03 at cycle   4 NSaved=   4.
 NSaved= 4 IEnMin= 4 EnMin= -1826.35436031345     IErMin= 4 ErrMin= 2.23D-03
 ErrMax= 2.23D-03  0.00D+00 EMaxC= 1.00D-01 BMatC= 1.01D-02 BMatP= 3.13D-02
 IDIUse=3 WtCom= 9.78D-01 WtEn= 2.23D-02
 Coeff-Com: -0.274D-01 0.820D-01 0.403D+00 0.542D+00
 Coeff-En:   0.000D+00 0.000D+00 0.250D+00 0.750D+00
 Coeff:     -0.268D-01 0.802D-01 0.400D+00 0.547D+00
 Gap=     0.265 Goal=   None    Shift=    0.000
 RMSDP=6.97D-04 MaxDP=1.15D-01 DE=-1.73D-02 OVMax= 1.88D-02

 Cycle   5  Pass 1  IDiag  1:
 RMSU=  3.65D-04    CP:  1.12D+00  6.70D-01  9.28D-01  5.64D-01
 E= -1826.36253138725     Delta-E=       -0.008171073800 Rises=F Damp=F
 DIIS: error= 3.66D-04 at cycle   5 NSaved=   5.
 NSaved= 5 IEnMin= 5 EnMin= -1826.36253138725     IErMin= 5 ErrMin= 3.66D-04
 ErrMax= 3.66D-04  0.00D+00 EMaxC= 1.00D-01 BMatC= 3.77D-04 BMatP= 1.01D-02
 IDIUse=3 WtCom= 9.96D-01 WtEn= 3.66D-03
 Coeff-Com: -0.908D-02 0.187D-01 0.144D+00 0.253D+00 0.594D+00
 Coeff-En:   0.000D+00 0.000D+00 0.000D+00 0.000D+00 0.100D+01
 Coeff:     -0.905D-02 0.187D-01 0.143D+00 0.252D+00 0.595D+00
 Gap=     0.265 Goal=   None    Shift=    0.000
 RMSDP=1.71D-04 MaxDP=3.25D-02 DE=-8.17D-03 OVMax= 3.50D-03

 Cycle   6  Pass 1  IDiag  1:
 RMSU=  6.61D-05    CP:  1.12D+00  6.64D-01  9.24D-01  6.20D-01  7.57D-01
 E= -1826.36282028029     Delta-E=       -0.000288893036 Rises=F Damp=F
 DIIS: error= 9.01D-05 at cycle   6 NSaved=   6.
 NSaved= 6 IEnMin= 6 EnMin= -1826.36282028029     IErMin= 6 ErrMin= 9.01D-05
 ErrMax= 9.01D-05  0.00D+00 EMaxC= 1.00D-01 BMatC= 3.40D-05 BMatP= 3.77D-04
 IDIUse=1 WtCom= 1.00D+00 WtEn= 0.00D+00
 Coeff-Com: -0.180D-02 0.167D-02 0.321D-01 0.707D-01 0.283D+00 0.614D+00
 Coeff:     -0.180D-02 0.167D-02 0.321D-01 0.707D-01 0.283D+00 0.614D+00
 Gap=     0.265 Goal=   None    Shift=    0.000
 RMSDP=6.16D-05 MaxDP=1.52D-02 DE=-2.89D-04 OVMax= 7.98D-04

 Cycle   7  Pass 1  IDiag  1:
 RMSU=  4.12D-05    CP:  1.12D+00  6.63D-01  9.33D-01  6.18D-01  7.64D-01
                    CP:  6.35D-01
 E= -1826.36284487249     Delta-E=       -0.000024592203 Rises=F Damp=F
 DIIS: error= 3.20D-05 at cycle   7 NSaved=   7.
 NSaved= 7 IEnMin= 7 EnMin= -1826.36284487249     IErMin= 7 ErrMin= 3.20D-05
 ErrMax= 3.20D-05  0.00D+00 EMaxC= 1.00D-01 BMatC= 2.72D-06 BMatP= 3.40D-05
 IDIUse=1 WtCom= 1.00D+00 WtEn= 0.00D+00
 Coeff-Com:  0.142D-03-0.112D-02-0.810D-03 0.496D-02 0.695D-01 0.260D+00
 Coeff-Com:  0.667D+00
 Coeff:      0.142D-03-0.112D-02-0.810D-03 0.496D-02 0.695D-01 0.260D+00
 Coeff:      0.667D+00
 Gap=     0.265 Goal=   None    Shift=    0.000
 RMSDP=1.39D-05 MaxDP=2.23D-03 DE=-2.46D-05 OVMax= 2.49D-04

 Cycle   8  Pass 1  IDiag  1:
 RMSU=  8.76D-06    CP:  1.12D+00  6.63D-01  9.32D-01  6.22D-01  7.56D-01
                    CP:  7.36D-01  8.78D-01
 E= -1826.36284688143     Delta-E=       -0.000002008943 Rises=F Damp=F
 DIIS: error= 7.98D-06 at cycle   8 NSaved=   8.
 NSaved= 8 IEnMin= 8 EnMin= -1826.36284688143     IErMin= 8 ErrMin= 7.98D-06
 ErrMax= 7.98D-06  0.00D+00 EMaxC= 1.00D-01 BMatC= 2.68D-07 BMatP= 2.72D-06
 IDIUse=1 WtCom= 1.00D+00 WtEn= 0.00D+00
 Coeff-Com:  0.276D-03-0.590D-03-0.475D-02-0.794D-02-0.977D-02 0.817D-02
 Coeff-Com:  0.244D+00 0.770D+00
 Coeff:      0.276D-03-0.590D-03-0.475D-02-0.794D-02-0.977D-02 0.817D-02
 Coeff:      0.244D+00 0.770D+00
 Gap=     0.265 Goal=   None    Shift=    0.000
 RMSDP=1.04D-05 MaxDP=2.49D-03 DE=-2.01D-06 OVMax= 9.62D-05

 Cycle   9  Pass 1  IDiag  1:
 RMSU=  3.17D-06    CP:  1.12D+00  6.63D-01  9.32D-01  6.21D-01  7.68D-01
                    CP:  7.20D-01  9.27D-01  8.68D-01
 E= -1826.36284709979     Delta-E=       -0.000000218355 Rises=F Damp=F
 DIIS: error= 3.15D-06 at cycle   9 NSaved=   9.
 NSaved= 9 IEnMin= 9 EnMin= -1826.36284709979     IErMin= 9 ErrMin= 3.15D-06
 ErrMax= 3.15D-06  0.00D+00 EMaxC= 1.00D-01 BMatC= 3.66D-08 BMatP= 2.68D-07
 IDIUse=1 WtCom= 1.00D+00 WtEn= 0.00D+00
 Coeff-Com:  0.115D-03-0.198D-03-0.225D-02-0.419D-02-0.905D-02-0.139D-01
 Coeff-Com:  0.697D-01 0.362D+00 0.598D+00
 Coeff:      0.115D-03-0.198D-03-0.225D-02-0.419D-02-0.905D-02-0.139D-01
 Coeff:      0.697D-01 0.362D+00 0.598D+00
 Gap=     0.265 Goal=   None    Shift=    0.000
 RMSDP=1.69D-06 MaxDP=2.56D-04 DE=-2.18D-07 OVMax= 3.42D-05

 Cycle  10  Pass 1  IDiag  1:
 RMSU=  8.67D-07    CP:  1.12D+00  6.63D-01  9.32D-01  6.22D-01  7.65D-01
                    CP:  7.28D-01  9.31D-01  9.21D-01  8.72D-01
 E= -1826.36284712793     Delta-E=       -0.000000028142 Rises=F Damp=F
 DIIS: error= 9.43D-07 at cycle  10 NSaved=  10.
 NSaved=10 IEnMin=10 EnMin= -1826.36284712793     IErMin=10 ErrMin= 9.43D-07
 ErrMax= 9.43D-07  0.00D+00 EMaxC= 1.00D-01 BMatC= 3.39D-09 BMatP= 3.66D-08
 IDIUse=1 WtCom= 1.00D+00 WtEn= 0.00D+00
 Coeff-Com:  0.123D-04-0.937D-05-0.375D-03-0.803D-03-0.250D-02-0.679D-02
 Coeff-Com: -0.318D-04 0.575D-01 0.249D+00 0.704D+00
 Coeff:      0.123D-04-0.937D-05-0.375D-03-0.803D-03-0.250D-02-0.679D-02
 Coeff:     -0.318D-04 0.575D-01 0.249D+00 0.704D+00
 Gap=     0.265 Goal=   None    Shift=    0.000
 RMSDP=9.77D-07 MaxDP=2.45D-04 DE=-2.81D-08 OVMax= 1.21D-05

 Cycle  11  Pass 1  IDiag  1:
 RMSU=  3.21D-07    CP:  1.12D+00  6.63D-01  9.32D-01  6.22D-01  7.65D-01
                    CP:  7.25D-01  9.37D-01  9.30D-01  9.17D-01  9.76D-01
 E= -1826.36284713075     Delta-E=       -0.000000002819 Rises=F Damp=F
 DIIS: error= 4.18D-07 at cycle  11 NSaved=  11.
 NSaved=11 IEnMin=11 EnMin= -1826.36284713075     IErMin=11 ErrMin= 4.18D-07
 ErrMax= 4.18D-07  0.00D+00 EMaxC= 1.00D-01 BMatC= 4.69D-10 BMatP= 3.39D-09
 IDIUse=1 WtCom= 1.00D+00 WtEn= 0.00D+00
 Coeff-Com: -0.917D-05 0.209D-04 0.127D-03 0.181D-03 0.448D-04-0.126D-02
 Coeff-Com: -0.923D-02-0.245D-01 0.222D-01 0.301D+00 0.711D+00
 Coeff:     -0.917D-05 0.209D-04 0.127D-03 0.181D-03 0.448D-04-0.126D-02
 Coeff:     -0.923D-02-0.245D-01 0.222D-01 0.301D+00 0.711D+00
 Gap=     0.265 Goal=   None    Shift=    0.000
 RMSDP=1.81D-07 MaxDP=2.78D-05 DE=-2.82D-09 OVMax= 4.88D-06

 Cycle  12  Pass 1  IDiag  1:
 RMSU=  9.65D-08    CP:  1.12D+00  6.63D-01  9.32D-01  6.22D-01  7.65D-01
                    CP:  7.25D-01  9.36D-01  9.31D-01  9.42D-01  1.03D+00
                    CP:  9.43D-01
 E= -1826.36284713095     Delta-E=       -0.000000000199 Rises=F Damp=F
 DIIS: error= 1.20D-07 at cycle  12 NSaved=  12.
 NSaved=12 IEnMin=12 EnMin= -1826.36284713095     IErMin=12 ErrMin= 1.20D-07
 ErrMax= 1.20D-07  0.00D+00 EMaxC= 1.00D-01 BMatC= 4.13D-11 BMatP= 4.69D-10
 IDIUse=1 WtCom= 1.00D+00 WtEn= 0.00D+00
 Coeff-Com: -0.387D-05 0.768D-05 0.777D-04 0.130D-03 0.223D-03 0.129D-03
 Coeff-Com: -0.330D-02-0.144D-01-0.153D-01 0.513D-01 0.278D+00 0.703D+00
 Coeff:     -0.387D-05 0.768D-05 0.777D-04 0.130D-03 0.223D-03 0.129D-03
 Coeff:     -0.330D-02-0.144D-01-0.153D-01 0.513D-01 0.278D+00 0.703D+00
 Gap=     0.265 Goal=   None    Shift=    0.000
 RMSDP=8.67D-08 MaxDP=2.10D-05 DE=-1.99D-10 OVMax= 1.15D-06

 Cycle  13  Pass 1  IDiag  1:
 RMSU=  3.83D-08    CP:  1.12D+00  6.63D-01  9.32D-01  6.22D-01  7.65D-01
                    CP:  7.25D-01  9.36D-01  9.31D-01  9.46D-01  1.06D+00
                    CP:  9.91D-01  8.77D-01
 E= -1826.36284713099     Delta-E=       -0.000000000045 Rises=F Damp=F
 DIIS: error= 3.95D-08 at cycle  13 NSaved=  13.
 NSaved=13 IEnMin=13 EnMin= -1826.36284713099     IErMin=13 ErrMin= 3.95D-08
 ErrMax= 3.95D-08  0.00D+00 EMaxC= 1.00D-01 BMatC= 5.86D-12 BMatP= 4.13D-11
 IDIUse=1 WtCom= 1.00D+00 WtEn= 0.00D+00
 Coeff-Com: -0.378D-06 0.594D-06 0.179D-04 0.332D-04 0.892D-04 0.214D-03
 Coeff-Com: -0.272D-03-0.302D-02-0.904D-02-0.126D-01 0.360D-01 0.305D+00
 Coeff-Com:  0.684D+00
 Coeff:     -0.378D-06 0.594D-06 0.179D-04 0.332D-04 0.892D-04 0.214D-03
 Coeff:     -0.272D-03-0.302D-02-0.904D-02-0.126D-01 0.360D-01 0.305D+00
 Coeff:      0.684D+00
 Gap=     0.265 Goal=   None    Shift=    0.000
 RMSDP=2.89D-08 MaxDP=7.38D-06 DE=-4.46D-11 OVMax= 9.76D-07

 Cycle  14  Pass 1  IDiag  1:
 RMSU=  1.12D-08    CP:  1.12D+00  6.63D-01  9.32D-01  6.22D-01  7.65D-01
                    CP:  7.25D-01  9.36D-01  9.31D-01  9.45D-01  1.06D+00
                    CP:  9.99D-01  9.64D-01  9.07D-01
 E= -1826.36284713094     Delta-E=        0.000000000054 Rises=F Damp=F
 DIIS: error= 3.00D-08 at cycle  14 NSaved=  14.
 NSaved=14 IEnMin=13 EnMin= -1826.36284713099     IErMin=14 ErrMin= 3.00D-08
 ErrMax= 3.00D-08  0.00D+00 EMaxC= 1.00D-01 BMatC= 9.79D-13 BMatP= 5.86D-12
 IDIUse=1 WtCom= 1.00D+00 WtEn= 0.00D+00
 Coeff-Com:  0.431D-06-0.916D-06-0.326D-05-0.424D-05 0.385D-05 0.722D-04
 Coeff-Com:  0.320D-03 0.697D-03-0.199D-02-0.137D-01-0.258D-01 0.372D-01
 Coeff-Com:  0.324D+00 0.679D+00
 Coeff:      0.431D-06-0.916D-06-0.326D-05-0.424D-05 0.385D-05 0.722D-04
 Coeff:      0.320D-03 0.697D-03-0.199D-02-0.137D-01-0.258D-01 0.372D-01
 Coeff:      0.324D+00 0.679D+00
 Gap=     0.265 Goal=   None    Shift=    0.000
 RMSDP=1.43D-08 MaxDP=3.31D-06 DE= 5.37D-11 OVMax= 4.25D-07

 Cycle  15  Pass 1  IDiag  1:
 RMSU=  3.94D-09    CP:  1.12D+00  6.63D-01  9.32D-01  6.22D-01  7.65D-01
                    CP:  7.25D-01  9.36D-01  9.31D-01  9.45D-01  1.06D+00
                    CP:  1.00D+00  9.75D-01  1.01D+00  1.06D+00
 E= -1826.36284713108     Delta-E=       -0.000000000138 Rises=F Damp=F
 DIIS: error= 8.46D-09 at cycle  15 NSaved=  15.
 NSaved=15 IEnMin=15 EnMin= -1826.36284713108     IErMin=15 ErrMin= 8.46D-09
 ErrMax= 8.46D-09  0.00D+00 EMaxC= 1.00D-01 BMatC= 8.22D-14 BMatP= 9.79D-13
 IDIUse=1 WtCom= 1.00D+00 WtEn= 0.00D+00
 Coeff-Com:  0.193D-06-0.383D-06-0.349D-05-0.554D-05-0.957D-05 0.159D-05
 Coeff-Com:  0.157D-03 0.684D-03 0.564D-03-0.320D-02-0.140D-01-0.295D-01
 Coeff-Com:  0.275D-01 0.242D+00 0.776D+00
 Coeff:      0.193D-06-0.383D-06-0.349D-05-0.554D-05-0.957D-05 0.159D-05
 Coeff:      0.157D-03 0.684D-03 0.564D-03-0.320D-02-0.140D-01-0.295D-01
 Coeff:      0.275D-01 0.242D+00 0.776D+00
 Gap=     0.265 Goal=   None    Shift=    0.000
 RMSDP=3.14D-09 MaxDP=7.46D-07 DE=-1.38D-10 OVMax= 1.82D-07

 SCF Done:  E(RM062X) =  -1826.36284713     A.U. after   15 cycles
            NFock= 15  Conv=0.31D-08     -V/T= 2.0030
 KE= 1.820909563112D+03 PE=-9.288923877569D+03 EE= 3.151381260371D+03
 Leave Link  502 at Mon May 16 09:08:22 2022, MaxMem=  2684354560 cpu:            5379.1 elap:             337.2
 (Enter /data0/hywu0/study/g16/l601.exe)
 Copying SCF densities to generalized density rwf, IOpCl= 0 IROHF=0.

 **********************************************************************

            Population analysis using the SCF density.

 **********************************************************************

 Alpha  occ. eigenvalues --  -90.09543 -78.14411 -19.64339 -19.64044 -19.63601
 Alpha  occ. eigenvalues --  -19.62850 -19.62545 -19.61309 -19.60946 -19.59460
 Alpha  occ. eigenvalues --  -19.58471 -14.88751 -10.64666 -10.64113 -10.62954
 Alpha  occ. eigenvalues --  -10.60305 -10.59947 -10.59523 -10.57609 -10.57410
 Alpha  occ. eigenvalues --  -10.55922  -8.42985  -6.95078  -6.35303  -6.35214
 Alpha  occ. eigenvalues --   -6.35175  -5.07015  -5.06935  -5.06827  -1.23994
 Alpha  occ. eigenvalues --   -1.20080  -1.16104  -1.15879  -1.14346  -1.12349
 Alpha  occ. eigenvalues --   -1.11894  -1.10362  -1.09923  -1.08286  -0.98198
 Alpha  occ. eigenvalues --   -0.93049  -0.92240  -0.84760  -0.83386  -0.77298
 Alpha  occ. eigenvalues --   -0.75580  -0.72227  -0.69717  -0.66760  -0.65550
 Alpha  occ. eigenvalues --   -0.64073  -0.63021  -0.62518  -0.61636  -0.60130
 Alpha  occ. eigenvalues --   -0.59358  -0.57480  -0.56722  -0.56548  -0.55190
 Alpha  occ. eigenvalues --   -0.54565  -0.54270  -0.53602  -0.53558  -0.52388
 Alpha  occ. eigenvalues --   -0.51539  -0.51139  -0.49408  -0.49171  -0.48871
 Alpha  occ. eigenvalues --   -0.47758  -0.47580  -0.46941  -0.46031  -0.45520
 Alpha  occ. eigenvalues --   -0.44932  -0.44439  -0.42790  -0.42551  -0.42246
 Alpha  occ. eigenvalues --   -0.41882  -0.41626  -0.41405  -0.40897  -0.39568
 Alpha  occ. eigenvalues --   -0.38040  -0.37651  -0.37277  -0.36586  -0.35212
 Alpha  occ. eigenvalues --   -0.34260  -0.33139
 Alpha virt. eigenvalues --   -0.06661  -0.03113  -0.01104   0.00321   0.00445
 Alpha virt. eigenvalues --    0.01437   0.02247   0.02556   0.03235   0.03757
 Alpha virt. eigenvalues --    0.04229   0.04812   0.05230   0.05818   0.06306
 Alpha virt. eigenvalues --    0.06490   0.07454   0.07564   0.07804   0.08374
 Alpha virt. eigenvalues --    0.08956   0.09419   0.09570   0.10043   0.10488
 Alpha virt. eigenvalues --    0.10935   0.11415   0.11794   0.12115   0.12381
 Alpha virt. eigenvalues --    0.12874   0.13222   0.13503   0.13684   0.13824
 Alpha virt. eigenvalues --    0.14166   0.14887   0.14907   0.15230   0.15442
 Alpha virt. eigenvalues --    0.15716   0.16232   0.16652   0.16692   0.17425
 Alpha virt. eigenvalues --    0.17738   0.17958   0.18022   0.18332   0.18600
 Alpha virt. eigenvalues --    0.18896   0.19278   0.19608   0.19866   0.20250
 Alpha virt. eigenvalues --    0.20662   0.20760   0.21182   0.21554   0.21874
 Alpha virt. eigenvalues --    0.22383   0.22643   0.22767   0.23538   0.23715
 Alpha virt. eigenvalues --    0.23967   0.24301   0.24660   0.24906   0.25533
 Alpha virt. eigenvalues --    0.25783   0.26301   0.26780   0.26989   0.27431
 Alpha virt. eigenvalues --    0.27503   0.28011   0.28554   0.28963   0.29180
 Alpha virt. eigenvalues --    0.29374   0.29462   0.30205   0.30459   0.30696
 Alpha virt. eigenvalues --    0.30986   0.31352   0.31640   0.31805   0.32325
 Alpha virt. eigenvalues --    0.32640   0.32703   0.33346   0.33650   0.34413
 Alpha virt. eigenvalues --    0.34598   0.34850   0.34946   0.35341   0.35621
 Alpha virt. eigenvalues --    0.36078   0.36565   0.37047   0.37317   0.37837
 Alpha virt. eigenvalues --    0.38193   0.38411   0.39262   0.39489   0.39977
 Alpha virt. eigenvalues --    0.40304   0.40544   0.40941   0.41666   0.42286
 Alpha virt. eigenvalues --    0.42865   0.43213   0.43394   0.43847   0.44503
 Alpha virt. eigenvalues --    0.45255   0.45946   0.46805   0.47502   0.48108
 Alpha virt. eigenvalues --    0.49106   0.49424   0.49797   0.50360   0.50827
 Alpha virt. eigenvalues --    0.51314   0.51807   0.52647   0.53541   0.54364
 Alpha virt. eigenvalues --    0.54774   0.55250   0.55782   0.55942   0.56782
 Alpha virt. eigenvalues --    0.57526   0.57891   0.58707   0.58820   0.59900
 Alpha virt. eigenvalues --    0.60068   0.60680   0.61170   0.61730   0.62314
 Alpha virt. eigenvalues --    0.63627   0.64201   0.65154   0.65571   0.66357
 Alpha virt. eigenvalues --    0.66480   0.66978   0.67624   0.67969   0.68419
 Alpha virt. eigenvalues --    0.68755   0.69520   0.69632   0.70676   0.70942
 Alpha virt. eigenvalues --    0.71780   0.72427   0.72927   0.73746   0.74492
 Alpha virt. eigenvalues --    0.75441   0.75807   0.76071   0.76872   0.77415
 Alpha virt. eigenvalues --    0.78613   0.79388   0.80142   0.80291   0.81209
 Alpha virt. eigenvalues --    0.81577   0.82244   0.83023   0.83528   0.84257
 Alpha virt. eigenvalues --    0.84686   0.85714   0.86638   0.86947   0.87262
 Alpha virt. eigenvalues --    0.88339   0.89134   0.89504   0.90367   0.91652
 Alpha virt. eigenvalues --    0.91985   0.92831   0.93380   0.94837   0.95391
 Alpha virt. eigenvalues --    0.97325   0.97719   0.98753   1.00196   1.01540
 Alpha virt. eigenvalues --    1.01877   1.02231   1.03086   1.04372   1.05188
 Alpha virt. eigenvalues --    1.06024   1.07963   1.08938   1.09717   1.10333
 Alpha virt. eigenvalues --    1.10847   1.11660   1.12868   1.13278   1.13687
 Alpha virt. eigenvalues --    1.14406   1.14777   1.15798   1.16483   1.17069
 Alpha virt. eigenvalues --    1.18383   1.18789   1.19467   1.19869   1.20031
 Alpha virt. eigenvalues --    1.20776   1.22255   1.22343   1.23585   1.24254
 Alpha virt. eigenvalues --    1.24304   1.25014   1.25397   1.25579   1.25786
 Alpha virt. eigenvalues --    1.27317   1.27624   1.28429   1.28562   1.29052
 Alpha virt. eigenvalues --    1.29261   1.30272   1.30383   1.31216   1.32938
 Alpha virt. eigenvalues --    1.33106   1.33637   1.34131   1.35049   1.35503
 Alpha virt. eigenvalues --    1.35946   1.37066   1.37672   1.37864   1.38747
 Alpha virt. eigenvalues --    1.39279   1.39699   1.40496   1.40905   1.41180
 Alpha virt. eigenvalues --    1.41416   1.42233   1.43622   1.44160   1.44607
 Alpha virt. eigenvalues --    1.44862   1.45744   1.46507   1.47164   1.48185
 Alpha virt. eigenvalues --    1.49395   1.50546   1.50736   1.51760   1.52014
 Alpha virt. eigenvalues --    1.53663   1.54046   1.55191   1.55801   1.56277
 Alpha virt. eigenvalues --    1.56868   1.57090   1.57949   1.59891   1.60631
 Alpha virt. eigenvalues --    1.61010   1.61868   1.62741   1.63438   1.64076
 Alpha virt. eigenvalues --    1.64300   1.64704   1.66412   1.68210   1.69342
 Alpha virt. eigenvalues --    1.69770   1.71189   1.72259   1.72485   1.73432
 Alpha virt. eigenvalues --    1.74225   1.74930   1.75707   1.77273   1.78286
 Alpha virt. eigenvalues --    1.78734   1.80198   1.80434   1.81184   1.81685
 Alpha virt. eigenvalues --    1.82449   1.83607   1.84185   1.85449   1.85725
 Alpha virt. eigenvalues --    1.86867   1.87041   1.87447   1.89975   1.90836
 Alpha virt. eigenvalues --    1.92794   1.93671   1.93997   1.95007   1.95437
 Alpha virt. eigenvalues --    1.96185   1.97331   1.97638   1.98400   1.99804
 Alpha virt. eigenvalues --    2.00258   2.02022   2.03121   2.04771   2.05342
 Alpha virt. eigenvalues --    2.06354   2.06740   2.08154   2.09235   2.10229
 Alpha virt. eigenvalues --    2.11440   2.11569   2.12338   2.13096   2.13752
 Alpha virt. eigenvalues --    2.15488   2.16107   2.16722   2.17669   2.18736
 Alpha virt. eigenvalues --    2.19197   2.20715   2.22134   2.23776   2.24649
 Alpha virt. eigenvalues --    2.25728   2.25948   2.26788   2.27990   2.28363
 Alpha virt. eigenvalues --    2.29054   2.32094   2.33411   2.34054   2.34276
 Alpha virt. eigenvalues --    2.35954   2.36271   2.36908   2.37422   2.39094
 Alpha virt. eigenvalues --    2.39280   2.40172   2.41426   2.42116   2.43566
 Alpha virt. eigenvalues --    2.43937   2.45791   2.46033   2.47137   2.47759
 Alpha virt. eigenvalues --    2.49965   2.51330   2.53702   2.56739   2.57220
 Alpha virt. eigenvalues --    2.58462   2.60711   2.62539   2.64057   2.65548
 Alpha virt. eigenvalues --    2.67245   2.67776   2.70309   2.71379   2.71672
 Alpha virt. eigenvalues --    2.74017   2.74677   2.75886   2.76242   2.78262
 Alpha virt. eigenvalues --    2.78921   2.82555   2.83016   2.84972   2.86025
 Alpha virt. eigenvalues --    2.86687   2.87944   2.88671   2.89729   2.91088
 Alpha virt. eigenvalues --    2.92249   2.93037   2.94563   2.95069   2.97152
 Alpha virt. eigenvalues --    2.98020   2.98542   2.99746   3.00880   3.01115
 Alpha virt. eigenvalues --    3.02451   3.04197   3.06186   3.07339   3.10074
 Alpha virt. eigenvalues --    3.10719   3.13045   3.14912   3.15230   3.16879
 Alpha virt. eigenvalues --    3.18672   3.20355   3.20578   3.22167   3.26204
 Alpha virt. eigenvalues --    3.27376   3.28542   3.30950   3.31639   3.32477
 Alpha virt. eigenvalues --    3.33635   3.36468   3.38000   3.39228   3.41476
 Alpha virt. eigenvalues --    3.42141   3.43412   3.44834   3.46429   3.48597
 Alpha virt. eigenvalues --    3.49611   3.50347   3.51764   3.52771   3.53204
 Alpha virt. eigenvalues --    3.54035   3.56112   3.57759   3.59798   3.61132
 Alpha virt. eigenvalues --    3.62155   3.63479   3.64383   3.65204   3.66197
 Alpha virt. eigenvalues --    3.67117   3.68775   3.69676   3.71645   3.73464
 Alpha virt. eigenvalues --    3.73908   3.77533   3.78645   3.80600   3.82175
 Alpha virt. eigenvalues --    3.82760   3.85651   3.87968   3.91389   3.93738
 Alpha virt. eigenvalues --    3.97024   3.99159   4.04421   4.05826   4.06885
 Alpha virt. eigenvalues --    4.14880   4.15573   4.18823   4.20134   4.23690
 Alpha virt. eigenvalues --    4.25927   4.28438   4.40273   4.51485   4.52482
 Alpha virt. eigenvalues --    4.64490   4.72106   4.97475   5.03763   5.06880
 Alpha virt. eigenvalues --    5.11193   5.13628   5.15242   5.16630   5.17854
 Alpha virt. eigenvalues --    5.18945   5.20299   5.21370   5.22429   5.24305
 Alpha virt. eigenvalues --    5.27794   5.28878   5.29823   5.31751   5.35831
 Alpha virt. eigenvalues --    5.37804   5.38684   5.43091   5.46243   5.48959
 Alpha virt. eigenvalues --    5.49075   5.54392   5.56702   5.57175   5.57864
 Alpha virt. eigenvalues --    5.58815   5.62364   5.67177   5.69938   5.76933
 Alpha virt. eigenvalues --    5.95417   5.98168   6.76846   6.77256   6.79342
 Alpha virt. eigenvalues --    6.80173   6.80214   6.81136   6.81304   6.81951
 Alpha virt. eigenvalues --    6.82877   6.83147   6.83835   6.84940   6.86100
 Alpha virt. eigenvalues --    6.87864   6.88597   6.89759   6.90124   6.90938
 Alpha virt. eigenvalues --    6.91815   6.92347   6.94378   6.96494   6.97988
 Alpha virt. eigenvalues --    6.99740   7.01063   7.01845   7.03873   7.04382
 Alpha virt. eigenvalues --    7.06541   7.07715   7.08749   7.10821   7.16404
 Alpha virt. eigenvalues --    7.19136   7.21435   7.24615   7.26987   7.27480
 Alpha virt. eigenvalues --    7.29345   7.36178   7.38733   7.41479   7.41766
 Alpha virt. eigenvalues --    7.44616   7.46556   7.76729   8.59082  14.34173
 Alpha virt. eigenvalues --   14.38920  14.46527  17.74667  17.79057  17.85291
 Alpha virt. eigenvalues --   23.84222  23.95986  23.98895  24.03821  24.04679
 Alpha virt. eigenvalues --   24.08729  24.10294  24.12920  24.25160  35.70973
 Alpha virt. eigenvalues --   50.01343  50.05432  50.05831  50.08530  50.11094
 Alpha virt. eigenvalues --   50.13000  50.13839  50.15525  50.19709 164.03525
 Alpha virt. eigenvalues --  189.90497
          Condensed to atoms (all electrons):
               1          2          3          4          5          6
     1  C   12.958223  -8.799887   6.509463  -3.543679  -1.274149  -0.039823
     2  C   -8.799887  21.585449 -13.007549   7.333923  -1.350957   0.073784
     3  C    6.509463 -13.007549  25.749376 -11.438864   0.132839   0.232883
     4  C   -3.543679   7.333923 -11.438864  19.404194  -6.904525   0.083122
     5  C   -1.274149  -1.350957   0.132839  -6.904525  16.191022  -0.012776
     6  H   -0.039823   0.073784   0.232883   0.083122  -0.012776   0.474809
     7  H    0.266782   0.108767  -0.056851   0.030102   0.007358  -0.000134
     8  H    0.132952   0.124935   0.117126  -0.058356   0.005988  -0.004064
     9  H   -0.019893   0.035176  -0.094096   0.062476   0.346995   0.000010
    10  C   -0.141530   0.437190  -1.352685   0.355413  -0.242300   0.008542
    11  H    0.003197  -0.016592  -0.030241  -0.150017   0.106550  -0.000089
    12  H    0.001369   0.022315   0.028796  -0.149398   0.043817   0.002683
    13  H    0.009923  -0.005491  -0.007586   0.113781  -0.109567   0.000395
    14  N    0.100930   0.144141  -0.184524   0.021833  -0.091936   0.000276
    15  C    0.338193  -0.739166   0.247727  -0.526248   0.325883  -0.000421
    16  H   -0.002662   0.000140   0.003871  -0.017844   0.022628   0.000000
    17  H   -0.029177   0.006970  -0.013027   0.033590  -0.003847   0.000001
    18  C   -0.401196   0.698983  -0.451770   0.235096  -0.087877   0.000168
    19  H    0.011846  -0.013359  -0.003935  -0.002211  -0.001847  -0.000002
    20  H   -0.010581  -0.000037  -0.000325   0.002341  -0.001763   0.000000
    21  C    0.169948  -0.359680   0.213205  -0.005127  -0.079765  -0.000180
    22  H   -0.002708   0.001476  -0.001116  -0.002920  -0.005062   0.000000
    23  H    0.000190   0.000434  -0.000083   0.001186  -0.002604   0.000000
    24  S   -0.088684   0.099828  -0.090907   0.038203  -0.163020   0.000169
    25  O   -0.007571   0.002780  -0.004140  -0.035503   0.083076  -0.000017
    26  O    0.004341  -0.004267   0.004201  -0.008042  -0.007114  -0.000000
    27  O    0.000610   0.001660   0.005863   0.031825   0.001844  -0.000001
    28  P    0.098434  -0.214680   0.228456  -0.252946   0.243151  -0.002612
    29  O   -0.384457   0.589713  -0.715002   0.524128  -0.119858   0.003109
    30  O   -0.031709   0.006301  -0.052390   0.094405   0.001522   0.000705
    31  H    0.038824  -0.067641   0.150690  -0.110129   0.017709  -0.002401
    32  O   -0.027608   0.022825  -0.016825   0.007939   0.008694   0.000061
    33  H   -0.001472  -0.000828  -0.001986   0.003834  -0.006253   0.000000
    34  O    0.189922  -0.294326   0.495290  -0.369316  -0.028260  -0.001581
    35  H   -0.049795   0.071504  -0.055915   0.129943  -0.079572   0.000133
    36  O   -0.124278   0.022090  -0.009411   0.032044   0.032170  -0.000431
    37  H    0.139880  -0.073259   0.052598  -0.037424  -0.020724  -0.000040
    38  H    0.026940  -0.024876   0.005000  -0.006239   0.000484  -0.000028
    39  O   -0.073284   0.046371  -0.251567   0.164467   0.040259  -0.002255
    40  H    0.002063   0.000973   0.024196  -0.014208  -0.001443  -0.000684
    41  H    0.088255   0.018550  -0.006613  -0.049919  -0.023651  -0.000908
               7          8          9         10         11         12
     1  C    0.266782   0.132952  -0.019893  -0.141530   0.003197   0.001369
     2  C    0.108767   0.124935   0.035176   0.437190  -0.016592   0.022315
     3  C   -0.056851   0.117126  -0.094096  -1.352685  -0.030241   0.028796
     4  C    0.030102  -0.058356   0.062476   0.355413  -0.150017  -0.149398
     5  C    0.007358   0.005988   0.346995  -0.242300   0.106550   0.043817
     6  H   -0.000134  -0.004064   0.000010   0.008542  -0.000089   0.002683
     7  H    0.478612  -0.004616  -0.000022   0.002023  -0.000003  -0.000001
     8  H   -0.004616   0.466197  -0.000026   0.000794   0.000011  -0.000003
     9  H   -0.000022  -0.000026   0.442021   0.027941   0.003675  -0.000536
    10  C    0.002023   0.000794   0.027941   6.551773   0.442821   0.418517
    11  H   -0.000003   0.000011   0.003675   0.442821   0.502180  -0.020731
    12  H   -0.000001  -0.000003  -0.000536   0.418517  -0.020731   0.505014
    13  H   -0.000007   0.000015   0.000201   0.371663  -0.024835  -0.023651
    14  N   -0.040574   0.008433  -0.044274  -0.097117   0.006882  -0.002334
    15  C    0.009458   0.006344   0.002664  -0.031987   0.003263  -0.000013
    16  H   -0.001067   0.000035  -0.000018  -0.001205   0.000002  -0.000001
    17  H    0.000268   0.000012   0.007558   0.004165   0.000010  -0.000001
    18  C    0.013718  -0.003701   0.025687   0.021498   0.000278  -0.000124
    19  H   -0.002159   0.000079   0.000195   0.000344   0.000001  -0.000000
    20  H   -0.000145   0.000015  -0.000098   0.000004  -0.000000   0.000000
    21  C   -0.002944   0.000821  -0.011354  -0.015895  -0.000163   0.000081
    22  H   -0.000002  -0.000000   0.000055   0.000050   0.000000  -0.000000
    23  H    0.000042  -0.000000   0.000025   0.000004   0.000000  -0.000000
    24  S    0.001514  -0.000289   0.008789  -0.000293   0.000236  -0.000173
    25  O    0.000360  -0.000021  -0.017204   0.017397   0.000092  -0.000050
    26  O   -0.000017   0.000001  -0.000287  -0.003084   0.000005   0.000000
    27  O    0.000060  -0.000009  -0.000161   0.002217  -0.000008   0.000001
    28  P   -0.000472   0.002803  -0.004268  -0.069555   0.000361   0.001768
    29  O   -0.003386  -0.013687   0.003297   0.032502   0.000046  -0.000186
    30  O   -0.000184  -0.000050  -0.000154  -0.006016   0.000044   0.000005
    31  H   -0.000005  -0.000112  -0.000058  -0.013544  -0.000010   0.000071
    32  O    0.000084  -0.000032   0.000105   0.004056  -0.000010   0.000000
    33  H   -0.000006   0.000006   0.000028   0.000328   0.000000   0.000000
    34  O   -0.000281   0.000713  -0.012961  -0.057989  -0.001055   0.000511
    35  H    0.000202  -0.000111   0.009668   0.034632  -0.000692  -0.000114
    36  O    0.001339  -0.010385  -0.000010  -0.000219   0.000000  -0.000006
    37  H   -0.003888   0.003691  -0.000016  -0.002788   0.000002   0.000003
    38  H   -0.000273   0.001013  -0.000000  -0.000198  -0.000000   0.000000
    39  O    0.000096   0.002463   0.000035   0.014163  -0.000011  -0.000262
    40  H    0.000004  -0.000394   0.000000  -0.000831  -0.000000   0.000002
    41  H   -0.000230   0.000541   0.000006   0.001190  -0.000004   0.000005
              13         14         15         16         17         18
     1  C    0.009923   0.100930   0.338193  -0.002662  -0.029177  -0.401196
     2  C   -0.005491   0.144141  -0.739166   0.000140   0.006970   0.698983
     3  C   -0.007586  -0.184524   0.247727   0.003871  -0.013027  -0.451770
     4  C    0.113781   0.021833  -0.526248  -0.017844   0.033590   0.235096
     5  C   -0.109567  -0.091936   0.325883   0.022628  -0.003847  -0.087877
     6  H    0.000395   0.000276  -0.000421   0.000000   0.000001   0.000168
     7  H   -0.000007  -0.040574   0.009458  -0.001067   0.000268   0.013718
     8  H    0.000015   0.008433   0.006344   0.000035   0.000012  -0.003701
     9  H    0.000201  -0.044274   0.002664  -0.000018   0.007558   0.025687
    10  C    0.371663  -0.097117  -0.031987  -0.001205   0.004165   0.021498
    11  H   -0.024835   0.006882   0.003263   0.000002   0.000010   0.000278
    12  H   -0.023651  -0.002334  -0.000013  -0.000001  -0.000001  -0.000124
    13  H    0.445314  -0.000826  -0.000700   0.000001  -0.000007  -0.000354
    14  N   -0.000826   6.625248  -0.043755  -0.051554  -0.060374   0.026878
    15  C   -0.000700  -0.043755   6.776985   0.453278   0.460159  -0.828884
    16  H    0.000001  -0.051554   0.453278   0.495269  -0.026376  -0.064052
    17  H   -0.000007  -0.060374   0.460159  -0.026376   0.464245  -0.018312
    18  C   -0.000354   0.026878  -0.828884  -0.064052  -0.018312   7.665391
    19  H   -0.000001   0.009307  -0.002576   0.001808   0.000294   0.420566
    20  H   -0.000000   0.004995  -0.020968  -0.011655   0.003576   0.364146
    21  C    0.000336   0.048443   0.026401   0.003464  -0.028461  -1.468957
    22  H   -0.000000   0.004789  -0.010526  -0.000056  -0.001007  -0.034159
    23  H   -0.000000  -0.002446   0.028807  -0.000116   0.000182  -0.056097
    24  S   -0.000555   0.099415   0.040015   0.004040   0.014693   0.153476
    25  O   -0.000302  -0.058265  -0.009849   0.002828  -0.008214  -0.126215
    26  O    0.000011   0.004409   0.017745  -0.000074  -0.001459   0.008312
    27  O   -0.000001  -0.029306  -0.005499  -0.000006   0.000463   0.001562
    28  P   -0.000553  -0.002415   0.100810  -0.000901  -0.002027  -0.147429
    29  O   -0.000837  -0.061903  -0.046512  -0.000107   0.000468   0.045644
    30  O    0.000619  -0.006105   0.006036  -0.000013  -0.000032  -0.010007
    31  H    0.000297  -0.002016  -0.001450  -0.000000  -0.000000   0.000632
    32  O   -0.000188   0.001061  -0.004562   0.000042   0.000099   0.008929
    33  H    0.000009   0.002947   0.000581  -0.000008  -0.000028  -0.003474
    34  O    0.000103   0.025808  -0.014878   0.000074   0.000514  -0.027434
    35  H    0.000157  -0.012570  -0.024915  -0.000115   0.000747   0.049159
    36  O   -0.000013   0.007656  -0.001633  -0.000014  -0.000004   0.002892
    37  H    0.000027  -0.006316  -0.000353   0.000072   0.000015  -0.005096
    38  H    0.000001   0.000433   0.000613   0.000000  -0.000000  -0.000995
    39  O   -0.000303   0.001908  -0.000081   0.000000   0.000001  -0.000179
    40  H    0.000006  -0.000085  -0.000025  -0.000000   0.000000   0.000027
    41  H    0.000013  -0.003020   0.000038   0.000000   0.000000   0.000319
              19         20         21         22         23         24
     1  C    0.011846  -0.010581   0.169948  -0.002708   0.000190  -0.088684
     2  C   -0.013359  -0.000037  -0.359680   0.001476   0.000434   0.099828
     3  C   -0.003935  -0.000325   0.213205  -0.001116  -0.000083  -0.090907
     4  C   -0.002211   0.002341  -0.005127  -0.002920   0.001186   0.038203
     5  C   -0.001847  -0.001763  -0.079765  -0.005062  -0.002604  -0.163020
     6  H   -0.000002   0.000000  -0.000180   0.000000   0.000000   0.000169
     7  H   -0.002159  -0.000145  -0.002944  -0.000002   0.000042   0.001514
     8  H    0.000079   0.000015   0.000821  -0.000000  -0.000000  -0.000289
     9  H    0.000195  -0.000098  -0.011354   0.000055   0.000025   0.008789
    10  C    0.000344   0.000004  -0.015895   0.000050   0.000004  -0.000293
    11  H    0.000001  -0.000000  -0.000163   0.000000   0.000000   0.000236
    12  H   -0.000000   0.000000   0.000081  -0.000000  -0.000000  -0.000173
    13  H   -0.000001  -0.000000   0.000336  -0.000000  -0.000000  -0.000555
    14  N    0.009307   0.004995   0.048443   0.004789  -0.002446   0.099415
    15  C   -0.002576  -0.020968   0.026401  -0.010526   0.028807   0.040015
    16  H    0.001808  -0.011655   0.003464  -0.000056  -0.000116   0.004040
    17  H    0.000294   0.003576  -0.028461  -0.001007   0.000182   0.014693
    18  C    0.420566   0.364146  -1.468957  -0.034159  -0.056097   0.153476
    19  H    0.426720  -0.032205  -0.034761   0.003251  -0.002956   0.000056
    20  H   -0.032205   0.526616   0.016045  -0.005627  -0.004503   0.000303
    21  C   -0.034761   0.016045   7.662655   0.469705   0.392644  -0.387855
    22  H    0.003251  -0.005627   0.469705   0.453430  -0.027627  -0.069079
    23  H   -0.002956  -0.004503   0.392644  -0.027627   0.464655  -0.016033
    24  S    0.000056   0.000303  -0.387855  -0.069079  -0.016033  14.424438
    25  O   -0.005095   0.001512   0.003418  -0.000276  -0.002818   0.144919
    26  O    0.001486  -0.001031  -0.067174   0.019170  -0.001252   0.400544
    27  O   -0.003618  -0.000146  -0.013311  -0.005986   0.011787   0.251073
    28  P    0.020192   0.001482   0.117811   0.000209  -0.000439  -0.131600
    29  O   -0.011741   0.000646  -0.041998  -0.000070   0.000163   0.060056
    30  O    0.001967   0.000013   0.002231  -0.000000  -0.000003  -0.017473
    31  H   -0.000113  -0.000000   0.000564  -0.000000   0.000000  -0.000670
    32  O    0.000158  -0.000103  -0.025673   0.000010   0.000220   0.024030
    33  H   -0.000543   0.000040   0.001061  -0.000010  -0.000138   0.030267
    34  O   -0.001747   0.000076   0.012385  -0.000051   0.000150  -0.023982
    35  H   -0.001188  -0.000052  -0.028866   0.000174  -0.000116   0.067528
    36  O    0.000621   0.000014  -0.002660  -0.000001   0.000003   0.001808
    37  H   -0.000964  -0.000021   0.006064   0.000001  -0.000007  -0.003709
    38  H   -0.000061   0.000001   0.000419  -0.000000  -0.000000  -0.000129
    39  O    0.000143   0.000001  -0.000705   0.000000   0.000000   0.000441
    40  H   -0.000001  -0.000000   0.000010   0.000000   0.000000  -0.000014
    41  H   -0.000101  -0.000000   0.000276   0.000000  -0.000000  -0.000085
              25         26         27         28         29         30
     1  C   -0.007571   0.004341   0.000610   0.098434  -0.384457  -0.031709
     2  C    0.002780  -0.004267   0.001660  -0.214680   0.589713   0.006301
     3  C   -0.004140   0.004201   0.005863   0.228456  -0.715002  -0.052390
     4  C   -0.035503  -0.008042   0.031825  -0.252946   0.524128   0.094405
     5  C    0.083076  -0.007114   0.001844   0.243151  -0.119858   0.001522
     6  H   -0.000017  -0.000000  -0.000001  -0.002612   0.003109   0.000705
     7  H    0.000360  -0.000017   0.000060  -0.000472  -0.003386  -0.000184
     8  H   -0.000021   0.000001  -0.000009   0.002803  -0.013687  -0.000050
     9  H   -0.017204  -0.000287  -0.000161  -0.004268   0.003297  -0.000154
    10  C    0.017397  -0.003084   0.002217  -0.069555   0.032502  -0.006016
    11  H    0.000092   0.000005  -0.000008   0.000361   0.000046   0.000044
    12  H   -0.000050   0.000000   0.000001   0.001768  -0.000186   0.000005
    13  H   -0.000302   0.000011  -0.000001  -0.000553  -0.000837   0.000619
    14  N   -0.058265   0.004409  -0.029306  -0.002415  -0.061903  -0.006105
    15  C   -0.009849   0.017745  -0.005499   0.100810  -0.046512   0.006036
    16  H    0.002828  -0.000074  -0.000006  -0.000901  -0.000107  -0.000013
    17  H   -0.008214  -0.001459   0.000463  -0.002027   0.000468  -0.000032
    18  C   -0.126215   0.008312   0.001562  -0.147429   0.045644  -0.010007
    19  H   -0.005095   0.001486  -0.003618   0.020192  -0.011741   0.001967
    20  H    0.001512  -0.001031  -0.000146   0.001482   0.000646   0.000013
    21  C    0.003418  -0.067174  -0.013311   0.117811  -0.041998   0.002231
    22  H   -0.000276   0.019170  -0.005986   0.000209  -0.000070  -0.000000
    23  H   -0.002818  -0.001252   0.011787  -0.000439   0.000163  -0.000003
    24  S    0.144919   0.400544   0.251073  -0.131600   0.060056  -0.017473
    25  O    8.671612  -0.013871  -0.011542   0.050891  -0.004250   0.006912
    26  O   -0.013871   8.214630  -0.085028   0.003183   0.000423  -0.000094
    27  O   -0.011542  -0.085028   8.424299   0.074920  -0.026600   0.007451
    28  P    0.050891   0.003183   0.074920  13.023319   0.156687   0.203546
    29  O   -0.004250   0.000423  -0.026600   0.156687   8.694197  -0.029881
    30  O    0.006912  -0.000094   0.007451   0.203546  -0.029881   8.156741
    31  H    0.000010  -0.000001   0.000046   0.035027  -0.024090   0.228595
    32  O   -0.015553   0.000946  -0.026694   0.181355   0.039886  -0.071937
    33  H    0.000612   0.001908   0.044301   0.016239   0.009425  -0.006614
    34  O    0.023922  -0.001155  -0.000527   0.167964  -0.001114  -0.020040
    35  H    0.002465  -0.001326   0.008092   0.002589  -0.013277  -0.008284
    36  O    0.000105   0.000000  -0.000150  -0.051421   0.028775   0.025006
    37  H   -0.000187   0.000002   0.000356   0.045722   0.015626  -0.018498
    38  H   -0.000007   0.000000  -0.000007   0.006917  -0.003387  -0.003137
    39  O    0.000189  -0.000001  -0.000003  -0.037525   0.031520   0.054659
    40  H    0.000002  -0.000000   0.000000   0.000012   0.000096  -0.002465
    41  H   -0.000021  -0.000000   0.000007   0.012518  -0.005706  -0.015669
              31         32         33         34         35         36
     1  C    0.038824  -0.027608  -0.001472   0.189922  -0.049795  -0.124278
     2  C   -0.067641   0.022825  -0.000828  -0.294326   0.071504   0.022090
     3  C    0.150690  -0.016825  -0.001986   0.495290  -0.055915  -0.009411
     4  C   -0.110129   0.007939   0.003834  -0.369316   0.129943   0.032044
     5  C    0.017709   0.008694  -0.006253  -0.028260  -0.079572   0.032170
     6  H   -0.002401   0.000061   0.000000  -0.001581   0.000133  -0.000431
     7  H   -0.000005   0.000084  -0.000006  -0.000281   0.000202   0.001339
     8  H   -0.000112  -0.000032   0.000006   0.000713  -0.000111  -0.010385
     9  H   -0.000058   0.000105   0.000028  -0.012961   0.009668  -0.000010
    10  C   -0.013544   0.004056   0.000328  -0.057989   0.034632  -0.000219
    11  H   -0.000010  -0.000010   0.000000  -0.001055  -0.000692   0.000000
    12  H    0.000071   0.000000   0.000000   0.000511  -0.000114  -0.000006
    13  H    0.000297  -0.000188   0.000009   0.000103   0.000157  -0.000013
    14  N   -0.002016   0.001061   0.002947   0.025808  -0.012570   0.007656
    15  C   -0.001450  -0.004562   0.000581  -0.014878  -0.024915  -0.001633
    16  H   -0.000000   0.000042  -0.000008   0.000074  -0.000115  -0.000014
    17  H   -0.000000   0.000099  -0.000028   0.000514   0.000747  -0.000004
    18  C    0.000632   0.008929  -0.003474  -0.027434   0.049159   0.002892
    19  H   -0.000113   0.000158  -0.000543  -0.001747  -0.001188   0.000621
    20  H   -0.000000  -0.000103   0.000040   0.000076  -0.000052   0.000014
    21  C    0.000564  -0.025673   0.001061   0.012385  -0.028866  -0.002660
    22  H   -0.000000   0.000010  -0.000010  -0.000051   0.000174  -0.000001
    23  H    0.000000   0.000220  -0.000138   0.000150  -0.000116   0.000003
    24  S   -0.000670   0.024030   0.030267  -0.023982   0.067528   0.001808
    25  O    0.000010  -0.015553   0.000612   0.023922   0.002465   0.000105
    26  O   -0.000001   0.000946   0.001908  -0.001155  -0.001326   0.000000
    27  O    0.000046  -0.026694   0.044301  -0.000527   0.008092  -0.000150
    28  P    0.035027   0.181355   0.016239   0.167964   0.002589  -0.051421
    29  O   -0.024090   0.039886   0.009425  -0.001114  -0.013277   0.028775
    30  O    0.228595  -0.071937  -0.006614  -0.020040  -0.008284   0.025006
    31  H    0.381719  -0.006154  -0.000041   0.016849   0.000384  -0.010638
    32  O   -0.006154   8.178131   0.209412  -0.011292  -0.004168   0.002185
    33  H   -0.000041   0.209412   0.204685  -0.002845   0.008745   0.000272
    34  O    0.016849  -0.011292  -0.002845   8.370503   0.128208  -0.002827
    35  H    0.000384  -0.004168   0.008745   0.128208   0.383151  -0.000086
    36  O   -0.010638   0.002185   0.000272  -0.002827  -0.000086   8.273563
    37  H    0.008667  -0.002657  -0.000446   0.004485  -0.000235   0.134309
    38  H    0.001036   0.000065   0.000021   0.000008   0.000002   0.281329
    39  O   -0.027781   0.003400  -0.000003  -0.008892  -0.000385   0.026679
    40  H   -0.000163  -0.000149  -0.000001   0.000450  -0.000000   0.004101
    41  H    0.004531  -0.000757  -0.000019   0.001914   0.000115  -0.037572
              37         38         39         40         41
     1  C    0.139880   0.026940  -0.073284   0.002063   0.088255
     2  C   -0.073259  -0.024876   0.046371   0.000973   0.018550
     3  C    0.052598   0.005000  -0.251567   0.024196  -0.006613
     4  C   -0.037424  -0.006239   0.164467  -0.014208  -0.049919
     5  C   -0.020724   0.000484   0.040259  -0.001443  -0.023651
     6  H   -0.000040  -0.000028  -0.002255  -0.000684  -0.000908
     7  H   -0.003888  -0.000273   0.000096   0.000004  -0.000230
     8  H    0.003691   0.001013   0.002463  -0.000394   0.000541
     9  H   -0.000016  -0.000000   0.000035   0.000000   0.000006
    10  C   -0.002788  -0.000198   0.014163  -0.000831   0.001190
    11  H    0.000002  -0.000000  -0.000011  -0.000000  -0.000004
    12  H    0.000003   0.000000  -0.000262   0.000002   0.000005
    13  H    0.000027   0.000001  -0.000303   0.000006   0.000013
    14  N   -0.006316   0.000433   0.001908  -0.000085  -0.003020
    15  C   -0.000353   0.000613  -0.000081  -0.000025   0.000038
    16  H    0.000072   0.000000   0.000000  -0.000000   0.000000
    17  H    0.000015  -0.000000   0.000001   0.000000   0.000000
    18  C   -0.005096  -0.000995  -0.000179   0.000027   0.000319
    19  H   -0.000964  -0.000061   0.000143  -0.000001  -0.000101
    20  H   -0.000021   0.000001   0.000001  -0.000000  -0.000000
    21  C    0.006064   0.000419  -0.000705   0.000010   0.000276
    22  H    0.000001  -0.000000   0.000000   0.000000   0.000000
    23  H   -0.000007  -0.000000   0.000000   0.000000  -0.000000
    24  S   -0.003709  -0.000129   0.000441  -0.000014  -0.000085
    25  O   -0.000187  -0.000007   0.000189   0.000002  -0.000021
    26  O    0.000002   0.000000  -0.000001  -0.000000  -0.000000
    27  O    0.000356  -0.000007  -0.000003   0.000000   0.000007
    28  P    0.045722   0.006917  -0.037525   0.000012   0.012518
    29  O    0.015626  -0.003387   0.031520   0.000096  -0.005706
    30  O   -0.018498  -0.003137   0.054659  -0.002465  -0.015669
    31  H    0.008667   0.001036  -0.027781  -0.000163   0.004531
    32  O   -0.002657   0.000065   0.003400  -0.000149  -0.000757
    33  H   -0.000446   0.000021  -0.000003  -0.000001  -0.000019
    34  O    0.004485   0.000008  -0.008892   0.000450   0.001914
    35  H   -0.000235   0.000002  -0.000385  -0.000000   0.000115
    36  O    0.134309   0.281329   0.026679   0.004101  -0.037572
    37  H    0.444546  -0.005147  -0.029318   0.000648   0.021142
    38  H   -0.005147   0.417352  -0.001409  -0.000661  -0.001422
    39  O   -0.029318  -0.001409   8.155590   0.283713   0.276202
    40  H    0.000648  -0.000661   0.283713   0.401951  -0.015769
    41  H    0.021142  -0.001422   0.276202  -0.015769   0.371655
 Mulliken charges:
               1
     1  C   -0.038143
     2  C   -0.483683
     3  C   -0.354170
     4  C    0.979073
     5  C   -0.993120
     6  H    0.187598
     7  H    0.196477
     8  H    0.220866
     9  H    0.228827
    10  C   -0.711990
    11  H    0.174803
    12  H    0.172622
    13  H    0.232905
    14  N    0.655924
    15  C   -0.529996
    16  H    0.190294
    17  H    0.194326
    18  C   -0.007046
    19  H    0.222149
    20  H    0.167435
    21  C   -0.572458
    22  H    0.213964
    23  H    0.216747
    24  S    1.128712
    25  O   -0.692132
    26  O   -0.486040
    27  O   -0.659834
    28  P    1.122475
    29  O   -0.728361
    30  O   -0.496002
    31  H    0.381368
    32  O   -0.479332
    33  H    0.489991
    34  O   -0.557298
    35  H    0.384180
    36  O   -0.625204
    37  H    0.333235
    38  H    0.306343
    39  O   -0.668335
    40  H    0.318639
    41  H    0.364192
 Sum of Mulliken charges =  -0.00000
 Mulliken charges with hydrogens summed into heavy atoms:
               1
     1  C    0.158335
     2  C   -0.262817
     3  C   -0.166572
     4  C    0.979073
     5  C   -0.764293
    10  C   -0.131660
    14  N    0.655924
    15  C   -0.145377
    18  C    0.382538
    21  C   -0.141747
    24  S    1.128712
    25  O   -0.692132
    26  O   -0.486040
    27  O   -0.659834
    28  P    1.122475
    29  O   -0.728361
    30  O   -0.114634
    32  O    0.010660
    34  O   -0.173118
    36  O    0.014374
    39  O    0.014496
         Mulliken charges condensed to fragments:
      1     -0.145892
      2      0.117022
      3      0.014374
      4      0.014496
 Electronic spatial extent (au):  <R**2>=         207879.9532
 Charge=              0.0000 electrons
 Dipole moment (field-independent basis, Debye):
    X=              0.9067    Y=              9.5530    Z=             -5.2324  Tot=             10.9298
 Quadrupole moment (field-independent basis, Debye-Ang):
[...]
    30  O    0.000000
    32  O    0.000000
    34  O    0.000000
    36  O   -0.000000
    39  O    0.000000
         Mulliken charges condensed to fragments:
      1      0.000000
      2      0.000000
      3     -0.000000
      4      0.000000
 Electronic spatial extent (au):  <R**2>=          15356.1464
 Charge=             -0.0000 electrons
 Dipole moment (field-independent basis, Debye):
    X=             -0.0815    Y=             -1.4189    Z=              1.5801  Tot=              2.1252
 Quadrupole moment (field-independent basis, Debye-Ang):
   XX=             -6.9724   YY=            -40.5021   ZZ=             25.5121
   XY=            -19.4651   XZ=             21.3561   YZ=              3.6774
 Traceless Quadrupole moment (field-independent basis, Debye-Ang):
   XX=              0.3484   YY=            -33.1813   ZZ=             32.8329
   XY=            -19.4651   XZ=             21.3561   YZ=              3.6774
 Octapole moment (field-independent basis, Debye-Ang**2):
  XXX=           -239.4029  YYY=           -842.6217  ZZZ=            288.0972  XYY=           -543.7434
  XXY=           -324.1746  XXZ=            240.9506  XZZ=            353.0800  YZZ=            142.8060
  YYZ=           -204.6417  XYZ=             56.5990
 Hexadecapole moment (field-independent basis, Debye-Ang**3):
 XXXX=          -6112.1265 YYYY=         -15267.3805 ZZZZ=           2528.5533 XXXY=          -5995.8994
 XXXZ=           1954.2918 YYYX=         -11272.2867 YYYZ=          -6199.9268 ZZZX=           4060.6340
 ZZZY=           1723.5979 XXYY=          -7987.4717 XXZZ=           4405.0922 YYZZ=           -911.4852
 XXYZ=            286.0108 YYXZ=          -2612.1338 ZZXY=           2098.1840
 N-N= 9.057092964808D+00 E-N=-1.989579687861D+02  KE= 7.617888521785D+01
 No NMR shielding tensors so no spin-rotation constants.
 Leave Link  601 at Mon May 16 09:26:25 2022, MaxMem=  2684354560 cpu:               1.0 elap:               0.1
 (Enter /data0/hywu0/study/g16/l122.exe)
 CPIOFr:  IOpCl= 0 IRwI=-1 IRwCP=  731 ICalc=  7 LCPTot=      756689 Len1MO=     1991349 IndFrg=    16687481
 Counterpoise: doing calculation for fragment   4 using the basis set of the fragment.
 Leave Link  122 at Mon May 16 09:26:25 2022, MaxMem=  2684354560 cpu:               0.2 elap:               0.0
 (Enter /data0/hywu0/study/g16/l301.exe)
 Basis read from rwf:  (5D, 7F)
 No pseudopotential information found on rwf file.
    39 basis functions,    58 primitive gaussians,    41 cartesian basis functions
     5 alpha electrons        5 beta electrons
       nuclear repulsion energy         9.1212468110 Hartrees.
 IExCor= 4336 DFT=T Ex+Corr=M062X ExCW=0 ScaHFX=  0.540000
 ScaDFX=  1.000000  1.000000  1.000000  1.000000 ScalE2=  1.000000  1.000000
 IRadAn=      5 IRanWt=     -1 IRanGd=            0 ICorTp=0 IEmpDi=131
 NAtoms=   41 NActive=    3 NUniq=    3 SFac= 1.00D+00 NAtFMM=   60 NAOKFM=F Big=F
 Integral buffers will be    131072 words long.
 Raffenetti 2 integral format.
 Two-electron integral symmetry is turned off.
 R6Disp:  Grimme-D3 Dispersion energy=       -0.0000000079 Hartrees.
 Nuclear repulsion after empirical dispersion term =        9.1212468031 Hartrees.
 No density basis found on file   718.
 Leave Link  301 at Mon May 16 09:26:25 2022, MaxMem=  2684354560 cpu:               0.8 elap:               0.1
 (Enter /data0/hywu0/study/g16/l302.exe)
 NPDir=0 NMtPBC=     1 NCelOv=     1 NCel=       1 NClECP=     1 NCelD=      1
         NCelK=      1 NCelE2=     1 NClLst=     1 CellRange=     0.0.
 One-electron integrals computed using PRISM.
 NBasis=    39 RedAO= T EigKep=  3.06D-03  NBF=    39
 NBsUse=    39 1.00D-06 EigRej= -1.00D+00 NBFU=    39
 Precomputing XC quadrature grid using
 IXCGrd= 4 IRadAn=           5 IRanWt=          -1 IRanGd=           0 AccXCQ= 0.00D+00.
 Generated NRdTot=       0 NPtTot=           0 NUsed=           0 NTot=          32
 NSgBfM=    41    41    41    41    41 MxSgAt=     3 MxSgA2=     3.
 Leave Link  302 at Mon May 16 09:26:25 2022, MaxMem=  2684354560 cpu:               1.3 elap:               0.1
 (Enter /data0/hywu0/study/g16/l303.exe)
 DipDrv:  MaxL=1.
 Leave Link  303 at Mon May 16 09:26:25 2022, MaxMem=  2684354560 cpu:               0.3 elap:               0.0
 (Enter /data0/hywu0/study/g16/l401.exe)
 ExpMin= 8.45D-02 ExpMax= 8.59D+03 ExpMxC= 1.30D+03 IAcc=3 IRadAn=         5 AccDes= 0.00D+00
 Harris functional with IExCor= 1009 and IRadAn=       5 diagonalized for initial guess.
 HarFok:  IExCor= 1009 AccDes= 0.00D+00 IRadAn=         5 IDoV= 1 UseB2=F ITyADJ=14
 ICtDFT=  3500011 ScaDFX=  1.000000  1.000000  1.000000  1.000000
 FoFCou: FMM=F IPFlag=           0 FMFlag=      100000 FMFlg1=           0
         NFxFlg=           0 DoJE=T BraDBF=F KetDBF=T FulRan=T
         wScrn=  0.000000 ICntrl=       500 IOpCl=  0 I1Cent=   200000004 NGrid=           0
         NMat0=    1 NMatS0=      1 NMatT0=    0 NMatD0=    1 NMtDS0=    0 NMtDT0=    0
 Symmetry not used in FoFCou.
 Harris En= -76.4167477813238    
 JPrj=0 DoOrth=F DoCkMO=F.
 Leave Link  401 at Mon May 16 09:26:25 2022, MaxMem=  2684354560 cpu:               1.7 elap:               0.1
 (Enter /data0/hywu0/study/g16/l502.exe)
 Keep R1 ints in memory in canonical form, NReq=14133442.
 FoFCou: FMM=F IPFlag=           0 FMFlag=           0 FMFlg1=           0
         NFxFlg=           0 DoJE=F BraDBF=F KetDBF=F FulRan=T
         wScrn=  0.000000 ICntrl=       600 IOpCl=  0 I1Cent=           0 NGrid=           0
         NMat0=    1 NMatS0=    780 NMatT0=    0 NMatD0=    1 NMtDS0=    0 NMtDT0=    0
 Symmetry not used in FoFCou.
 Two-electron integral symmetry not used.
 Closed shell SCF:
 Using DIIS extrapolation, IDIIS=  1040.
 NGot=  2684354560 LenX=  2684044304 LenY=  2684042182
 Requested convergence on RMS density matrix=1.00D-08 within 128 cycles.
 Requested convergence on MAX density matrix=1.00D-06.
 Requested convergence on             energy=1.00D-06.
 No special actions if energy rises.
 Integral accuracy reduced to 1.0D-05 until final iterations.

 Cycle   1  Pass 0  IDiag  1:
 E= -76.3459377751131    
 DIIS: error= 7.05D-02 at cycle   1 NSaved=   1.
 NSaved= 1 IEnMin= 1 EnMin= -76.3459377751131     IErMin= 1 ErrMin= 7.05D-02
 ErrMax= 7.05D-02  0.00D+00 EMaxC= 1.00D-01 BMatC= 1.21D-01 BMatP= 1.21D-01
 IDIUse=3 WtCom= 2.95D-01 WtEn= 7.05D-01
 Coeff-Com:  0.100D+01
 Coeff-En:   0.100D+01
 Coeff:      0.100D+01
 Gap=     0.325 Goal=   None    Shift=    0.000
 GapD=    0.325 DampG=1.000 DampE=0.500 DampFc=0.5000 IDamp=-1.
 Damping current iteration by 5.00D-01
 RMSDP=7.87D-03 MaxDP=1.01D-01              OVMax= 1.69D-01

 Cycle   2  Pass 0  IDiag  1:
 E= -76.3775995169060     Delta-E=       -0.031661741793 Rises=F Damp=T
 DIIS: error= 1.15D-02 at cycle   2 NSaved=   2.
 NSaved= 2 IEnMin= 2 EnMin= -76.3775995169060     IErMin= 2 ErrMin= 1.15D-02
 ErrMax= 1.15D-02  0.00D+00 EMaxC= 1.00D-01 BMatC= 4.81D-03 BMatP= 1.21D-01
 IDIUse=3 WtCom= 8.85D-01 WtEn= 1.15D-01
 Coeff-Com:  0.811D-01 0.919D+00
 Coeff-En:   0.186D+00 0.814D+00
 Coeff:      0.931D-01 0.907D+00
 Gap=     0.458 Goal=   None    Shift=    0.000
 RMSDP=9.34D-04 MaxDP=1.38D-02 DE=-3.17D-02 OVMax= 1.01D-01

 Cycle   3  Pass 0  IDiag  1:
 E= -76.4216671438639     Delta-E=       -0.044067626958 Rises=F Damp=F
 DIIS: error= 2.18D-03 at cycle   3 NSaved=   3.
 NSaved= 3 IEnMin= 3 EnMin= -76.4216671438639     IErMin= 3 ErrMin= 2.18D-03
 ErrMax= 2.18D-03  0.00D+00 EMaxC= 1.00D-01 BMatC= 9.17D-05 BMatP= 4.81D-03
 IDIUse=3 WtCom= 9.78D-01 WtEn= 2.18D-02
 Coeff-Com: -0.200D-01 0.399D-01 0.980D+00
 Coeff-En:   0.000D+00 0.000D+00 0.100D+01
 Coeff:     -0.196D-01 0.390D-01 0.981D+00
 Gap=     0.462 Goal=   None    Shift=    0.000
 RMSDP=1.15D-04 MaxDP=9.64D-04 DE=-4.41D-02 OVMax= 3.30D-03

 Cycle   4  Pass 0  IDiag  1:
 E= -76.4217450401012     Delta-E=       -0.000077896237 Rises=F Damp=F
 DIIS: error= 4.11D-04 at cycle   4 NSaved=   4.
 NSaved= 4 IEnMin= 4 EnMin= -76.4217450401012     IErMin= 4 ErrMin= 4.11D-04
 ErrMax= 4.11D-04  0.00D+00 EMaxC= 1.00D-01 BMatC= 3.30D-06 BMatP= 9.17D-05
 IDIUse=3 WtCom= 9.96D-01 WtEn= 4.11D-03
 Coeff-Com: -0.192D-02-0.212D-02 0.164D+00 0.840D+00
 Coeff-En:   0.000D+00 0.000D+00 0.000D+00 0.100D+01
 Coeff:     -0.191D-02-0.211D-02 0.163D+00 0.841D+00
 Gap=     0.463 Goal=   None    Shift=    0.000
 RMSDP=2.20D-05 MaxDP=3.52D-04 DE=-7.79D-05 OVMax= 5.29D-04

 Cycle   5  Pass 0  IDiag  1:
 E= -76.4217470645060     Delta-E=       -0.000002024405 Rises=F Damp=F
 DIIS: error= 8.86D-05 at cycle   5 NSaved=   5.
 NSaved= 5 IEnMin= 5 EnMin= -76.4217470645060     IErMin= 5 ErrMin= 8.86D-05
 ErrMax= 8.86D-05  0.00D+00 EMaxC= 1.00D-01 BMatC= 8.26D-08 BMatP= 3.30D-06
 IDIUse=1 WtCom= 1.00D+00 WtEn= 0.00D+00
 Coeff-Com:  0.117D-02-0.178D-02-0.362D-01-0.672D-01 0.110D+01
 Coeff:      0.117D-02-0.178D-02-0.362D-01-0.672D-01 0.110D+01
 Gap=     0.463 Goal=   None    Shift=    0.000
 RMSDP=8.94D-06 MaxDP=1.03D-04 DE=-2.02D-06 OVMax= 2.00D-04

 Initial convergence to 1.0D-05 achieved.  Increase integral accuracy.
 Cycle   6  Pass 1  IDiag  1:
 E= -76.4217412520177     Delta-E=        0.000005812488 Rises=F Damp=F
 DIIS: error= 1.85D-05 at cycle   1 NSaved=   1.
 NSaved= 1 IEnMin= 1 EnMin= -76.4217412520177     IErMin= 1 ErrMin= 1.85D-05
 ErrMax= 1.85D-05  0.00D+00 EMaxC= 1.00D-01 BMatC= 1.54D-08 BMatP= 1.54D-08
 IDIUse=1 WtCom= 1.00D+00 WtEn= 0.00D+00
 Coeff-Com:  0.100D+01
 Coeff:      0.100D+01
 Gap=     0.463 Goal=   None    Shift=    0.000
 RMSDP=8.94D-06 MaxDP=1.03D-04 DE= 5.81D-06 OVMax= 4.76D-05

 Cycle   7  Pass 1  IDiag  1:
 E= -76.4217412660717     Delta-E=       -0.000000014054 Rises=F Damp=F
 DIIS: error= 9.11D-06 at cycle   2 NSaved=   2.
 NSaved= 2 IEnMin= 2 EnMin= -76.4217412660717     IErMin= 2 ErrMin= 9.11D-06
 ErrMax= 9.11D-06  0.00D+00 EMaxC= 1.00D-01 BMatC= 1.07D-09 BMatP= 1.54D-08
 IDIUse=1 WtCom= 1.00D+00 WtEn= 0.00D+00
 Coeff-Com:  0.237D-01 0.976D+00
 Coeff:      0.237D-01 0.976D+00
 Gap=     0.463 Goal=   None    Shift=    0.000
 RMSDP=8.24D-07 MaxDP=1.30D-05 DE=-1.41D-08 OVMax= 2.09D-05

 Cycle   8  Pass 1  IDiag  1:
 E= -76.4217412663526     Delta-E=       -0.000000000281 Rises=F Damp=F
 DIIS: error= 6.47D-06 at cycle   3 NSaved=   3.
 NSaved= 3 IEnMin= 3 EnMin= -76.4217412663526     IErMin= 3 ErrMin= 6.47D-06
 ErrMax= 6.47D-06  0.00D+00 EMaxC= 1.00D-01 BMatC= 1.09D-09 BMatP= 1.07D-09
 IDIUse=1 WtCom= 1.00D+00 WtEn= 0.00D+00
 Coeff-Com: -0.527D-01 0.526D+00 0.527D+00
 Coeff:     -0.527D-01 0.526D+00 0.527D+00
 Gap=     0.463 Goal=   None    Shift=    0.000
 RMSDP=3.73D-07 MaxDP=4.77D-06 DE=-2.81D-10 OVMax= 8.97D-06

 Cycle   9  Pass 1  IDiag  1:
 E= -76.4217412670719     Delta-E=       -0.000000000719 Rises=F Damp=F
 DIIS: error= 6.14D-07 at cycle   4 NSaved=   4.
 NSaved= 4 IEnMin= 4 EnMin= -76.4217412670719     IErMin= 4 ErrMin= 6.14D-07
 ErrMax= 6.14D-07  0.00D+00 EMaxC= 1.00D-01 BMatC= 4.96D-12 BMatP= 1.07D-09
 IDIUse=1 WtCom= 1.00D+00 WtEn= 0.00D+00
 Coeff-Com:  0.475D-02-0.978D-01-0.557D-01 0.115D+01
 Coeff:      0.475D-02-0.978D-01-0.557D-01 0.115D+01
 Gap=     0.463 Goal=   None    Shift=    0.000
 RMSDP=1.03D-07 MaxDP=6.04D-07 DE=-7.19D-10 OVMax= 1.89D-06

 Cycle  10  Pass 1  IDiag  1:
 E= -76.4217412670825     Delta-E=       -0.000000000011 Rises=F Damp=F
 DIIS: error= 8.53D-08 at cycle   5 NSaved=   5.
 NSaved= 5 IEnMin= 5 EnMin= -76.4217412670825     IErMin= 5 ErrMin= 8.53D-08
 ErrMax= 8.53D-08  0.00D+00 EMaxC= 1.00D-01 BMatC= 2.73D-13 BMatP= 4.96D-12
 IDIUse=1 WtCom= 1.00D+00 WtEn= 0.00D+00
 Coeff-Com:  0.296D-02-0.396D-01-0.312D-01 0.203D+00 0.865D+00
 Coeff:      0.296D-02-0.396D-01-0.312D-01 0.203D+00 0.865D+00
 Gap=     0.463 Goal=   None    Shift=    0.000
 RMSDP=2.11D-08 MaxDP=1.31D-07 DE=-1.06D-11 OVMax= 3.65D-07

 Cycle  11  Pass 1  IDiag  1:
 E= -76.4217412670828     Delta-E=       -0.000000000000 Rises=F Damp=F
 DIIS: error= 1.30D-08 at cycle   6 NSaved=   6.
 NSaved= 6 IEnMin= 6 EnMin= -76.4217412670828     IErMin= 6 ErrMin= 1.30D-08
 ErrMax= 1.30D-08  0.00D+00 EMaxC= 1.00D-01 BMatC= 6.11D-15 BMatP= 2.73D-13
 IDIUse=1 WtCom= 1.00D+00 WtEn= 0.00D+00
 Coeff-Com:  0.113D-03 0.274D-03-0.258D-03-0.327D-01 0.516D-02 0.103D+01
 Coeff:      0.113D-03 0.274D-03-0.258D-03-0.327D-01 0.516D-02 0.103D+01
 Gap=     0.463 Goal=   None    Shift=    0.000
 RMSDP=4.99D-09 MaxDP=3.46D-08 DE=-3.13D-13 OVMax= 9.60D-08

 SCF Done:  E(RM062X) =  -76.4217412671     A.U. after   11 cycles
            NFock= 11  Conv=0.50D-08     -V/T= 2.0029
 KE= 7.620181501234D+01 PE=-1.990978007834D+02 EE= 3.735299770092D+01
 Leave Link  502 at Mon May 16 09:26:25 2022, MaxMem=  2684354560 cpu:               5.8 elap:               0.4
 (Enter /data0/hywu0/study/g16/l601.exe)
 Copying SCF densities to generalized density rwf, IOpCl= 0 IROHF=0.

 **********************************************************************

            Population analysis using the SCF density.

 **********************************************************************

 Alpha  occ. eigenvalues --  -19.62533  -1.13382  -0.61003  -0.47366  -0.39980
 Alpha virt. eigenvalues --    0.06321   0.13350   0.17378   0.17949   0.18959
 Alpha virt. eigenvalues --    0.23198   0.51218   0.53646   0.97762   1.00208
 Alpha virt. eigenvalues --    1.06052   1.19122   1.19796   1.32718   1.33761
 Alpha virt. eigenvalues --    1.69270   1.74049   1.76053   2.07598   2.09626
 Alpha virt. eigenvalues --    2.34848   2.43307   2.54232   2.88834   3.01379
 Alpha virt. eigenvalues --    5.05718   5.47503   5.93972   6.78161   6.80366
 Alpha virt. eigenvalues --    6.86874   6.91531   7.09491  49.96128
          Condensed to atoms (all electrons):
              39         40         41
    39  O    7.913735   0.324507   0.320541
    40  H    0.324507   0.422666  -0.024768
    41  H    0.320541  -0.024768   0.423040
 Mulliken charges:
               1
     1  C    0.000000
     2  C    0.000000
     3  C    0.000000
     4  C    0.000000
     5  C    0.000000
     6  H    0.000000
     7  H    0.000000
     8  H    0.000000
     9  H    0.000000
    10  C    0.000000
    11  H    0.000000
    12  H    0.000000
    13  H    0.000000
    14  N    0.000000
    15  C    0.000000
    16  H    0.000000
    17  H    0.000000
    18  C    0.000000
    19  H    0.000000
    20  H    0.000000
    21  C    0.000000
    22  H    0.000000
    23  H    0.000000
    24  S    0.000000
    25  O    0.000000
    26  O    0.000000
    27  O    0.000000
    28  P    0.000000
    29  O    0.000000
    30  O    0.000000
    31  H    0.000000
    32  O    0.000000
    33  H    0.000000
    34  O    0.000000
    35  H    0.000000
    36  O    0.000000
    37  H    0.000000
    38  H    0.000000
    39  O   -0.558783
    40  H    0.277595
    41  H    0.281188
 Sum of Mulliken charges =   0.00000
 Mulliken charges with hydrogens summed into heavy atoms:
               1
     1  C    0.000000
     2  C    0.000000
     3  C    0.000000
     4  C    0.000000
     5  C    0.000000
    10  C    0.000000
    14  N    0.000000
    15  C    0.000000
    18  C    0.000000
    21  C    0.000000
    24  S    0.000000
    25  O    0.000000
    26  O    0.000000
    27  O    0.000000
    28  P    0.000000
    29  O    0.000000
    30  O    0.000000
    32  O    0.000000
    34  O    0.000000
    36  O    0.000000
    39  O    0.000000
         Mulliken charges condensed to fragments:
      1      0.000000
      2      0.000000
      3      0.000000
      4      0.000000
 Electronic spatial extent (au):  <R**2>=          12698.7941
 Charge=              0.0000 electrons
 Dipole moment (field-independent basis, Debye):
    X=              1.7449    Y=              0.7571    Z=              0.8928  Tot=              2.1012
 Quadrupole moment (field-independent basis, Debye-Ang):
   XX=             41.6939   YY=              9.0660   ZZ=              8.0908
   XY=             28.2680   XZ=             24.8744   YZ=             16.5697
 Traceless Quadrupole moment (field-independent basis, Debye-Ang):
   XX=             22.0770   YY=            -10.5509   ZZ=            -11.5261
   XY=             28.2680   XZ=             24.8744   YZ=             16.5697
 Octapole moment (field-independent basis, Debye-Ang**2):
  XXX=            734.5096  YYY=             35.1331  ZZZ=             28.1441  XYY=            308.5314
  XXY=            567.9956  XXZ=            466.3587  XZZ=            202.9363  YZZ=            151.4875
  YYZ=            197.0504  XYZ=            356.3675
 Hexadecapole moment (field-independent basis, Debye-Ang**3):
 XXXX=          11237.0335 YYYY=          -1022.9417 ZZZZ=           -387.8782 XXXY=           9410.0091
 XXXZ=           7482.8240 YYYX=           2388.7309 YYYZ=           1760.1140 ZZZX=           1060.6430
 ZZZY=            898.7776 XXYY=           6070.5638 XXZZ=           3668.3483 YYZZ=           1884.0952
 XXYZ=           6152.6511 YYXZ=           4029.2321 ZZXY=           3015.2920
 N-N= 9.121246803074D+00 E-N=-1.990978008973D+02  KE= 7.620181501234D+01
 No NMR shielding tensors so no spin-rotation constants.
 Leave Link  601 at Mon May 16 09:26:26 2022, MaxMem=  2684354560 cpu:               1.0 elap:               0.1
 (Enter /data0/hywu0/study/g16/l122.exe)
 CPIOFr:  IOpCl= 0 IRwI=-1 IRwCP=  731 ICalc=  8 LCPTot=      756689 Len1MO=     1991349 IndFrg=    18678830
 Restoring MOs from calculation   1 to rwf.
 CPIOFr:  IOpCl= 0 IRwI=-2 IRwCP=  731 ICalc=  0 LCPTot=      756689 Len1MO=     1991349 IndFrg=     2748038
 Counterpoise corrected energy =   -1826.354761664162
                   BSSE energy =       0.008085466914
              sum of fragments =   -1826.228681137541
           complexation energy =     -84.19 kcal/mole (raw)
           complexation energy =     -79.12 kcal/mole (corrected)
 Leave Link  122 at Mon May 16 09:26:26 2022, MaxMem=  2684354560 cpu:               0.4 elap:               0.0
 (Enter /data0/hywu0/study/g16/l9999.exe)
 1\1\GINC-LOCALHOST\SP\RM062X\6-311+G(2d,p)\C9H20N1O9P1S1\HYWU0\16-May-
 2022\0\\#p M062X/6-311+G(2d,p) nosymm em=GD3 counterpoise=4\\Title Car
 d Required\\0,1\C,0,10.183452,12.079111,9.760909\C,0,10.949692,11.9000
 79,8.612488\C,0,10.577915,10.939851,7.671365\C,0,9.43153,10.175186,7.8
 93573\C,0,8.664008,10.40972,9.045721\H,0,11.210348,10.759018,6.796268\
 H,0,10.491507,12.769503,10.553958\H,0,11.86517,12.484553,8.474641\H,0,
 7.772113,9.788819,9.280464\C,0,9.040711,9.080736,6.971782\H,0,7.960383
 ,8.881871,6.965992\H,0,9.354,9.259968,5.935282\H,0,9.527454,8.132466,7
 .292276\N,0,9.036146,11.360701,9.940514\C,0,8.181946,11.643653,11.1198
 49\H,0,7.914575,12.723656,11.097765\H,0,7.220566,11.079476,11.012576\C
 ,0,8.861905,11.284143,12.456052\H,0,9.897868,10.904862,12.290622\H,0,9
 .003604,12.206875,13.053582\C,0,8.061262,10.273473,13.26402\H,0,7.0092
 07,10.581255,13.374706\H,0,8.459906,10.213572,14.294885\S,0,8.111146,8
 .588455,12.574903\O,0,8.132268,8.813334,11.080816\O,0,6.908506,7.94065
 2,13.07265\O,0,9.41161,8.029127,13.031851\P,0,11.558873,8.709567,10.47
 4772\O,0,11.542325,10.183315,10.687734\O,0,12.77813,8.221746,9.563623\
 H,0,12.92472,8.965293,8.851334\O,0,11.754249,7.835016,11.757545\H,0,10
 .795986,7.884341,12.311098\O,0,10.300349,8.225548,9.649944\H,0,9.40842
 2,8.377296,10.245155\O,0,13.605542,11.906612,10.136987\H,0,12.854946,1
 1.319687,10.405361\H,0,14.298883,11.690803,10.75656\O,0,13.519432,10.4
 90105,7.715405\H,0,14.416565,10.359347,7.42085\H,0,13.592795,11.04723,
 8.51414\\Version=ES64L-G16RevA.03\HF=-76.4217413\RMSD=4.988e-09\Dipole
 =0.3759596,3.7672649,-1.9920538\Quadrupole=-7.405646,107.2144889,-99.8
 088429,73.3338783,-28.1437177,49.4301201\PG=C01 [X(C9H20N1O9P1S1)]\\@


 Just remember, when you're over the hill, you begin to pick up speed.
 -- Charles Schulz
 Job cpu time:       0 days  6 hours 18 minutes 28.9 seconds.
 Elapsed time:       0 days  0 hours 23 minutes 46.1 seconds.
 File lengths (MBytes):  RWF=    445 Int=      0 D2E=      0 Chk=    170 Scr=      1
 Normal termination of Gaussian 16 at Mon May 16 09:26:26 2022.
