 Entering Gaussian System, Link 0=g16
 Initial command:
 /data0/home/wuhanyu/software/g16/l1.exe "/data0/home/wuhanyu/software/g16/scratch/Gau-2353525.inp" -scrdir="/data0/home/wuhanyu/software/g16/scratch/"
 Default is to use a total of  22 processors:
                               22 via shared-memory
                                1 via Linda
 Entering Link 1 = /data0/home/wuhanyu/software/g16/l1.exe PID=   2353526.
  
 Copyright (c) 1988,1990,1992,1993,1995,1998,2003,2009,2016,
            Gaussian, Inc.  All Rights Reserved.
  
 This is part of the Gaussian(R) 16 program.  It is based on
 the Gaussian(R) 09 system (copyright 2009, Gaussian, Inc.),
 the Gaussian(R) 03 system (copyright 2003, Gaussian, Inc.),
 the Gaussian(R) 98 system (copyright 1998, Gaussian, Inc.),
 the Gaussian(R) 94 system (copyright 1995, Gaussian, Inc.),
 the Gaussian 92(TM) system (copyright 1992, Gaussian, Inc.),
 the Gaussian 90(TM) system (copyright 1990, Gaussian, Inc.),
 the Gaussian 88(TM) system (copyright 1988, Gaussian, Inc.),
 the Gaussian 86(TM) system (copyright 1986, Carnegie Mellon
 University), and the Gaussian 82(TM) system (copyright 1983,
 Carnegie Mellon University). Gaussian is a federally registered
 trademark of Gaussian, Inc.
  
 This software contains proprietary and confidential information,
 including trade secrets, belonging to Gaussian, Inc.
  
 This software is provided under written license and may be
 used, copied, transmitted, or stored only in accord with that
 written license.
  
 The following legend is applicable only to US Government
 contracts under FAR:
  
                    RESTRICTED RIGHTS LEGEND
  
 Use, reproduction and disclosure by the US Government is
 subject to restrictions as set forth in subparagraphs (a)
 and (c) of the Commercial Computer Software - Restricted
 Rights clause in FAR 52.227-19.
  
 Gaussian, Inc.
 340 Quinnipiac St., Bldg. 40, Wallingford CT 06492
  
  
 ---------------------------------------------------------------
 Warning -- This program may not be used in any manner that
 competes with the business of Gaussian, Inc. or will provide
 assistance to any competitor of Gaussian, Inc.  The licensee
 of this program is prohibited from giving any competitor of
 Gaussian, Inc. access to this program.  By using this program,
 the user acknowledges that Gaussian, Inc. is engaged in the
 business of creating and licensing software in the field of
 computational chemistry and represents and warrants to the
 licensee that it is not a competitor of Gaussian, Inc. and that
 it will not use this program in any manner prohibited above.
 ---------------------------------------------------------------
  

 Cite this work as:
 Gaussian 16, Revision A.03,
 M. J. Frisch, G. W. Trucks, H. B. Schlegel, G. E. Scuseria, 
 M. A. Robb, J. R. Cheeseman, G. Scalmani, V. Barone, 
 G. A. Petersson, H. Nakatsuji, X. Li, M. Caricato, A. V. Marenich, 
 J. Bloino, B. G. Janesko, R. Gomperts, B. Mennucci, H. P. Hratchian, 
 J. V. Ortiz, A. F. Izmaylov, J. L. Sonnenberg, D. Williams-Young, 
 F. Ding, F. Lipparini, F. Egidi, J. Goings, B. Peng, A. Petrone, 
 T. Henderson, D. Ranasinghe, V. G. Zakrzewski, J. Gao, N. Rega, 
 G. Zheng, W. Liang, M. Hada, M. Ehara, K. Toyota, R. Fukuda, 
 J. Hasegawa, M. Ishida, T. Nakajima, Y. Honda, O. Kitao, H. Nakai, 
 T. Vreven, K. Throssell, J. A. Montgomery, Jr., J. E. Peralta, 
 F. Ogliaro, M. J. Bearpark, J. J. Heyd, E. N. Brothers, K. N. Kudin, 
 V. N. Staroverov, T. A. Keith, R. Kobayashi, J. Normand, 
 K. Raghavachari, A. P. Rendell, J. C. Burant, S. S. Iyengar, 
 J. Tomasi, M. Cossi, J. M. Millam, M. Klene, C. Adamo, R. Cammi, 
 J. W. Ochterski, R. L. Martin, K. Morokuma, O. Farkas, 
 J. B. Foresman, and D. J. Fox, Gaussian, Inc., Wallingford CT, 2016.
 
 ******************************************
 Gaussian 16:  ES64L-G16RevA.03 25-Dec-2016
                19-May-2022 
 ******************************************
 %nproc=22
 Will use up to   22 processors via shared memory.
 %mem=100GB
 ---------------------------------------------------
 #p M062X/6-311+G(2d,p) nosymm em=GD3 counterpoise=6
 ---------------------------------------------------
 1/38=1,62=6,172=1/1;
 2/12=2,15=1,17=6,18=5,40=1/2;
 1/38=1,53=2,62=6,63=1/22;
 3/5=4,6=6,7=112,11=2,25=1,30=1,74=-55,124=31/1,2,3;
 4//1;
 5/5=2,38=5/2;
 6/7=2,8=2,9=2,10=2,28=1/1;
 1/53=2,62=6,63=1/22;
 3/5=7,6=11,7=112,11=2,25=1,30=1,74=-55,82=7,124=31/1,2,3;
 4//1;
 5/5=2,38=5/2;
 6/7=2,8=2,9=2,10=2,28=1/1;
 1/53=2,62=6,63=1/22(-4);
 99/5=1,9=1/99;
 Leave Link    1 at Thu May 19 16:27:31 2022, MaxMem= 13421772800 cpu:               0.6 elap:               0.0
 (Enter /data0/home/wuhanyu/software/g16/l101.exe)
 -------------------
 Title Card Required
 -------------------
 Symbolic Z-matrix:
 Charge =  0 Multiplicity = 1 in supermolecule
 Charge =  0 Multiplicity = 1 in fragment      1.
 Charge =  0 Multiplicity = 1 in fragment      2.
 Charge =  0 Multiplicity = 1 in fragment      3.
 Charge =  0 Multiplicity = 1 in fragment      4.
 Charge =  0 Multiplicity = 1 in fragment      5.
 Charge =  0 Multiplicity = 1 in fragment      6.
 C                     11.28525   10.97493   11.62837    
 C                     11.98453   9.74335   11.38133    
 C                     13.24934   9.76016   10.78486    
 C                     13.78089   10.99133   10.44443    
 C                     13.08881   12.19679   10.69305    
 C                     11.83951   12.21144   11.28875    
 H                     13.78582   8.82916   10.61294    
 H                     14.76317   11.04447   9.97484    
 H                     13.56201   13.13724   10.40879    
 H                     11.30915   13.13765   11.49424    
 H                     9.31048   11.25844   12.43225    
 C                     10.0522   9.22123   12.28919    
 H                     9.20605   8.66477   12.67704    
 N                     10.07142   10.61635   12.2188    
 N                     11.18513   8.68223   11.81439    
 P                     9.33564   7.02224   9.42653    
 O                     8.62017   8.0691    10.17172    
 O                     10.7147   6.53169   10.03422    
 H                     10.95586   7.11598   10.8837    
 O                     8.43896   5.71431   9.3247     
 H                     8.97828   5.01042   8.79349    
 O                     9.65883   7.33079   7.90746    
 H                     10.52746   7.92169   7.84717    
 O                     11.87036   9.04757   7.75375    
 H                     12.40577   8.9596    8.54457    
 H                     11.46319   9.93152   7.83168    
 O                     8.07137   10.66619   9.1878     
 H                     8.26704   9.75984   9.51527    
 H                     7.47084   10.53224   8.45508    
 O                     8.02295   12.17028   11.57041    
 H                     7.99826   11.72363   10.70748    
 H                     7.11487   12.33994   11.80241    
 O                     10.62587   11.48567   8.27213    
 H                     9.73085   11.23548   8.55007    
 H                     11.01498   11.91229   9.03709    
 
 ITRead=  0  0  0  0  0  0  0  0  0  0  0  0  0  0  0  0  0  0  0  0
 ITRead=  0  0  0  0  0  0  0  0  0  0  0  0  0  0  0
 MicOpt= -1 -1 -1 -1 -1 -1 -1 -1 -1 -1 -1 -1 -1 -1 -1 -1 -1 -1 -1 -1
 MicOpt= -1 -1 -1 -1 -1 -1 -1 -1 -1 -1 -1 -1 -1 -1 -1
 NAtoms=     35 NQM=       35 NQMF=       0 NMMI=      0 NMMIF=      0
                NMic=       0 NMicF=      0.
                    Isotopes and Nuclear Properties:
 (Nuclear quadrupole moments (NQMom) in fm**2, nuclear magnetic moments (NMagM)
  in nuclear magnetons)

  Atom         1           2           3           4           5           6           7           8           9          10
 IAtWgt=          12          12          12          12          12          12           1           1           1           1
 AtmWgt=  12.0000000  12.0000000  12.0000000  12.0000000  12.0000000  12.0000000   1.0078250   1.0078250   1.0078250   1.0078250
 NucSpn=           0           0           0           0           0           0           1           1           1           1
 AtZEff=  -0.0000000  -0.0000000  -0.0000000  -0.0000000  -0.0000000  -0.0000000  -0.0000000  -0.0000000  -0.0000000  -0.0000000
 NQMom=    0.0000000   0.0000000   0.0000000   0.0000000   0.0000000   0.0000000   0.0000000   0.0000000   0.0000000   0.0000000
 NMagM=    0.0000000   0.0000000   0.0000000   0.0000000   0.0000000   0.0000000   2.7928460   2.7928460   2.7928460   2.7928460
 AtZNuc=   6.0000000   6.0000000   6.0000000   6.0000000   6.0000000   6.0000000   1.0000000   1.0000000   1.0000000   1.0000000

  Atom        11          12          13          14          15          16          17          18          19          20
 IAtWgt=           1          12           1          14          14          31          16          16           1          16
 AtmWgt=   1.0078250  12.0000000   1.0078250  14.0030740  14.0030740  30.9737634  15.9949146  15.9949146   1.0078250  15.9949146
 NucSpn=           1           0           1           2           2           1           0           0           1           0
 AtZEff=  -0.0000000  -0.0000000  -0.0000000  -0.0000000  -0.0000000  -0.0000000  -0.0000000  -0.0000000  -0.0000000  -0.0000000
 NQMom=    0.0000000   0.0000000   0.0000000   2.0440000   2.0440000   0.0000000   0.0000000   0.0000000   0.0000000   0.0000000
 NMagM=    2.7928460   0.0000000   2.7928460   0.4037610   0.4037610   1.1316000   0.0000000   0.0000000   2.7928460   0.0000000
 AtZNuc=   1.0000000   6.0000000   1.0000000   7.0000000   7.0000000  15.0000000   8.0000000   8.0000000   1.0000000   8.0000000

  Atom        21          22          23          24          25          26          27          28          29          30
 IAtWgt=           1          16           1          16           1           1          16           1           1          16
 AtmWgt=   1.0078250  15.9949146   1.0078250  15.9949146   1.0078250   1.0078250  15.9949146   1.0078250   1.0078250  15.9949146
 NucSpn=           1           0           1           0           1           1           0           1           1           0
 AtZEff=  -0.0000000  -0.0000000  -0.0000000  -0.0000000  -0.0000000  -0.0000000  -0.0000000  -0.0000000  -0.0000000  -0.0000000
 NQMom=    0.0000000   0.0000000   0.0000000   0.0000000   0.0000000   0.0000000   0.0000000   0.0000000   0.0000000   0.0000000
 NMagM=    2.7928460   0.0000000   2.7928460   0.0000000   2.7928460   2.7928460   0.0000000   2.7928460   2.7928460   0.0000000
 AtZNuc=   1.0000000   8.0000000   1.0000000   8.0000000   1.0000000   1.0000000   8.0000000   1.0000000   1.0000000   8.0000000

  Atom        31          32          33          34          35
 IAtWgt=           1           1          16           1           1
 AtmWgt=   1.0078250   1.0078250  15.9949146   1.0078250   1.0078250
 NucSpn=           1           1           0           1           1
 AtZEff=  -0.0000000  -0.0000000  -0.0000000  -0.0000000  -0.0000000
 NQMom=    0.0000000   0.0000000   0.0000000   0.0000000   0.0000000
 NMagM=    2.7928460   2.7928460   0.0000000   2.7928460   2.7928460
 AtZNuc=   1.0000000   1.0000000   8.0000000   1.0000000   1.0000000
 Leave Link  101 at Thu May 19 16:27:31 2022, MaxMem= 13421772800 cpu:               2.3 elap:               0.1
 (Enter /data0/home/wuhanyu/software/g16/l202.exe)
                          Input orientation:                          
 ---------------------------------------------------------------------
 Center     Atomic      Atomic             Coordinates (Angstroms)
 Number     Number       Type             X           Y           Z
 ---------------------------------------------------------------------
      1          6           0       11.285254   10.974930   11.628365
      2          6           0       11.984534    9.743352   11.381329
      3          6           0       13.249335    9.760157   10.784855
      4          6           0       13.780888   10.991328   10.444432
      5          6           0       13.088807   12.196788   10.693046
      6          6           0       11.839510   12.211438   11.288747
      7          1           0       13.785822    8.829164   10.612939
      8          1           0       14.763170   11.044466    9.974841
      9          1           0       13.562010   13.137239   10.408795
     10          1           0       11.309153   13.137645   11.494244
     11          1           0        9.310482   11.258439   12.432248
     12          6           0       10.052203    9.221226   12.289193
     13          1           0        9.206051    8.664774   12.677044
     14          7           0       10.071420   10.616349   12.218796
     15          7           0       11.185129    8.682229   11.814394
     16         15           0        9.335643    7.022243    9.426535
     17          8           0        8.620170    8.069102   10.171723
     18          8           0       10.714696    6.531692   10.034224
     19          1           0       10.955861    7.115981   10.883700
     20          8           0        8.438965    5.714314    9.324705
     21          1           0        8.978276    5.010417    8.793492
     22          8           0        9.658825    7.330790    7.907462
     23          1           0       10.527461    7.921691    7.847168
     24          8           0       11.870360    9.047566    7.753749
     25          1           0       12.405774    8.959601    8.544571
     26          1           0       11.463189    9.931519    7.831676
     27          8           0        8.071370   10.666192    9.187800
     28          1           0        8.267038    9.759843    9.515267
     29          1           0        7.470843   10.532236    8.455076
     30          8           0        8.022953   12.170282   11.570414
     31          1           0        7.998257   11.723634   10.707480
     32          1           0        7.114868   12.339942   11.802415
     33          8           0       10.625871   11.485670    8.272132
     34          1           0        9.730851   11.235480    8.550065
     35          1           0       11.014980   11.912294    9.037093
 ---------------------------------------------------------------------
                    Distance matrix (angstroms):
                    1          2          3          4          5
     1  C    0.000000
     2  C    1.437638   0.000000
     3  C    2.458617   1.398494   0.000000
     4  C    2.762274   2.379518   1.383553   0.000000
     5  C    2.370772   2.777139   2.443638   1.412062   0.000000
     6  C    1.396958   2.474076   2.872332   2.443458   1.384131
     7  H    3.447933   2.161204   1.088173   2.168726   3.439933
     8  H    3.851607   3.375192   2.144124   1.090054   2.155726
     9  H    3.368464   3.866875   3.412311   2.157339   1.090490
    10  H    2.167002   3.462674   3.959162   3.437769   2.166633
    11  H    2.150890   3.248149   4.524745   4.899724   4.263926
    12  C    2.243343   2.197893   3.574232   4.521006   4.541213
    13  H    3.280188   3.249950   4.596563   5.597012   5.611343
    14  N    1.396632   2.263511   3.590041   4.129059   3.732335
    15  N    2.302414   1.397346   2.546139   3.734528   4.151329
    16  P    4.926741   4.271098   4.965701   6.045656   6.516610
    17  O    4.203369   3.947810   4.966364   5.936900   6.105595
    18  O    4.754912   3.707012   4.172628   5.427537   6.177683
    19  H    3.943921   2.865115   3.501637   4.815812   5.513656
    20  O    6.409547   5.747513   6.452948   7.591891   8.094187
    21  H    6.995289   6.175367   6.690852   7.846144   8.494039
    22  O    5.456203   4.826710   5.203170   6.068538   6.572837
    23  H    4.918737   4.234596   4.406650   5.172353   5.738987
    24  O    4.366890   3.695469   3.405431   3.829896   4.476793
    25  H    3.850572   2.973030   2.524155   3.102954   3.944852
    26  H    3.941474   3.592665   3.455568   3.649852   3.995187
    27  O    4.047311   4.579962   5.493888   5.855206   5.457395
    28  H    3.879594   4.159596   5.141511   5.725596   5.529496
    29  H    4.981513   5.436791   6.278132   6.632117   6.272222
    30  O    3.474886   4.649717   5.808690   5.984278   5.141338
    31  H    3.494701   4.501777   5.606697   5.834748   5.112512
    32  H    4.391545   5.534730   6.732192   6.935323   6.077758
    33  O    3.458315   3.814281   4.021658   3.862304   3.525985
    34  H    3.458321   3.914280   4.421605   4.477838   4.097847
    35  H    2.768825   3.337632   3.560717   3.237133   2.669059
                    6          7          8          9         10
     6  C    0.000000
     7  H    3.960382   0.000000
     8  H    3.411152   2.503985   0.000000
     9  H    2.144395   4.318712   2.451693   0.000000
    10  H    1.086907   5.047137   4.315115   2.500713   0.000000
    11  H    2.934584   5.407396   5.984684   5.069491   2.899302
    12  C    3.624462   4.111381   5.556405   5.584783   4.189296
    13  H    4.630475   5.026117   6.621662   6.642460   5.082187
    14  N    2.556451   4.423753   5.218346   4.670675   2.900671
    15  N    3.627649   2.868569   4.665458   5.241411   4.468625
    16  P    6.055157   4.947384   6.777682   7.498012   6.750430
    17  O    5.363846   5.239878   6.828470   7.082655   5.888108
    18  O    5.924403   3.878802   6.062903   7.202829   6.791440
    19  H    5.187348   3.319185   5.545685   6.578229   6.062839
    20  O    7.591692   6.320658   8.296310   9.084088   8.249286
    21  H    8.140495   6.403570   8.442176   9.469163   8.875747
    22  O    6.325283   5.157212   6.642272   7.430099   7.021976
    23  H    5.654013   4.369200   5.676262   6.555331   6.412362
    24  O    4.744180   3.448429   4.158029   5.161044   5.570907
    25  H    4.292505   2.489918   3.456827   4.718567   5.230602
    26  H    4.158243   3.787510   4.089215   4.617709   4.870049
    27  O    4.582646   6.169332   6.748534   6.143617   4.680919
    28  H    4.681678   5.703334   6.637861   6.343652   4.957858
    29  H    5.471258   6.887364   7.466599   6.906908   5.545928
    30  O    3.827158   6.729821   7.017396   5.741561   3.426471
    31  H    3.915488   6.471692   6.838280   5.748290   3.685167
    32  H    4.754220   7.631647   7.969618   6.644057   4.280575
    33  O    3.331610   4.745702   4.495678   3.989226   3.684820
    34  H    3.591562   5.146707   5.233613   4.663619   3.844146
    35  H    2.416461   4.434698   3.959978   3.141563   2.761451
                   11         12         13         14         15
    11  H    0.000000
    12  C    2.172752   0.000000
    13  H    2.607284   1.084454   0.000000
    14  N    1.018267   1.397030   2.183460   0.000000
    15  N    3.245443   1.341444   2.158986   2.268195   0.000000
    16  P    5.194256   3.680190   3.644244   4.610389   3.446451
    17  O    3.969682   2.803888   2.640969   3.575626   3.106977
    18  O    5.483108   3.571747   3.716254   4.676599   2.831099
    19  H    4.718605   2.687762   2.945620   3.849324   1.836270
    20  O    6.415114   4.867151   4.531204   5.922045   4.748525
    21  H    7.238003   5.577110   5.337432   6.659891   5.241970
    22  O    6.001788   4.788325   4.973272   5.436243   4.406825
    23  H    5.799818   4.652553   5.062213   5.155607   4.092655
    24  O    5.773152   4.889387   5.611052   5.062994   4.134229
    25  H    5.475356   4.430569   5.234738   4.657677   3.501236
    26  H    5.249774   4.729150   5.493351   4.653261   4.183310
    27  O    3.523152   3.953513   4.179473   3.631752   4.531071
    28  H    3.441416   3.342393   3.475307   3.361319   3.868138
    29  H    4.441795   4.804438   4.931873   4.575551   5.338864
    30  O    1.797762   3.651223   3.861727   2.651664   4.714382
    31  H    2.216566   3.603131   3.833350   2.794309   4.542197
    32  H    2.527263   4.311761   4.317972   3.447513   5.472297
    33  O    4.369033   4.646889   5.420018   4.079129   4.551887
    34  H    3.904943   4.259292   4.890389   3.736161   4.392022
    35  H    3.854856   4.329543   5.202678   3.562725   4.263293
                   16         17         18         19         20
    16  P    0.000000
    17  O    1.470755   0.000000
    18  O    1.584839   2.601841   0.000000
    19  H    2.181106   2.621222   1.058850   0.000000
    20  O    1.589050   2.509044   2.520015   3.275653   0.000000
    21  H    2.139135   3.373917   2.620849   3.565559   1.033690
    22  O    1.583424   2.598228   2.505302   3.253681   2.471767
    23  H    2.173439   3.010489   2.598147   3.170682   3.378971
    24  O    3.650334   4.167460   3.586885   3.789977   5.035171
    25  H    3.735896   4.215615   3.312635   3.312508   5.184214
    26  H    3.941309   4.126400   4.119500   4.183239   5.399989
    27  O    3.864420   2.830930   4.979729   4.878562   4.967390
    28  H    2.940109   1.847767   4.084275   4.011531   4.053662
    29  H    4.091609   3.214787   5.387081   5.451088   4.990580
    30  O    5.729021   4.374092   6.434210   5.883832   6.848051
    31  H    5.052969   3.745586   5.898184   5.478042   6.182088
    32  H    6.233343   4.813020   7.058401   6.548819   7.196612
    33  O    4.787433   4.393657   5.258779   5.101310   6.260912
    34  H    4.321545   3.726840   5.029543   4.890478   5.722963
    35  H    5.185020   4.668257   5.480449   5.139851   6.718149
                   21         22         23         24         25
    21  H    0.000000
    22  O    2.575330   0.000000
    23  H    3.430892   1.052296   0.000000
    24  O    5.073834   2.803896   1.754907   0.000000
    25  H    5.235051   3.256480   2.256477   0.959065   0.000000
    26  H    5.596171   3.166270   2.217033   0.976337   1.530134
    27  O    5.741581   3.909499   3.919434   4.371359   4.702473
    28  H    4.856322   3.228375   3.357212   4.073600   4.325711
    29  H    5.733879   3.916172   4.065392   4.695940   5.180225
    30  O    7.738708   6.286014   6.179454   6.254664   6.218788
    31  H    7.049189   5.467601   5.388231   5.556892   5.634204
    32  H    8.139278   6.836226   6.841835   7.060180   7.073467
    33  O    6.701887   4.281494   3.590575   2.786005   3.102145
    34  H    6.275112   3.957869   3.479921   3.162054   3.512103
    35  H    7.200237   4.909725   4.192673   3.253508   3.300800
                   26         27         28         29         30
    26  H    0.000000
    27  O    3.726024   0.000000
    28  H    3.616536   0.983356   0.000000
    29  H    4.085133   0.956797   1.534445   0.000000
    30  O    5.552067   2.818063   3.177015   3.562773   0.000000
    31  H    4.846409   1.852824   2.313026   2.602099   0.971987
    32  H    6.362010   3.248468   3.635306   3.820890   0.952485
    33  O    1.819475   2.834690   3.176154   3.301016   4.257058
    34  H    2.284161   1.866728   2.291695   2.368800   3.593505
    35  H    2.361650   3.200050   3.523192   3.847624   3.928931
                   31         32         33         34         35
    31  H    0.000000
    32  H    1.535934   0.000000
    33  O    3.590529   5.051715   0.000000
    34  H    2.809736   4.317521   0.970001   0.000000
    35  H    3.453462   4.800079   0.958425   1.531098   0.000000
 Symmetry turned off by external request.
 Stoichiometry    C7H17N2O8P
 Framework group  C1[X(C7H17N2O8P)]
 Deg. of freedom    99
 Full point group                 C1      NOp   1
 Rotational constants (GHZ):           0.4490617           0.2600898           0.2318487
 Leave Link  202 at Thu May 19 16:27:31 2022, MaxMem= 13421772800 cpu:               0.1 elap:               0.0
 (Enter /data0/home/wuhanyu/software/g16/l122.exe)
 Counterpoise: doing full-system calculation.
 Leave Link  122 at Thu May 19 16:27:31 2022, MaxMem= 13421772800 cpu:               0.0 elap:               0.0
 (Enter /data0/home/wuhanyu/software/g16/l301.exe)
 Standard basis: 6-311+G(2d,p) (5D, 7F)
 Ernie: Thresh=  0.10000D-02 Tol=  0.10000D-05 Strict=F.
   596 basis functions,   906 primitive gaussians,   632 cartesian basis functions
    76 alpha electrons       76 beta electrons
       nuclear repulsion energy      1700.2798519306 Hartrees.
 IExCor= 4336 DFT=T Ex+Corr=M062X ExCW=0 ScaHFX=  0.540000
 ScaDFX=  1.000000  1.000000  1.000000  1.000000 ScalE2=  1.000000  1.000000
 IRadAn=      5 IRanWt=     -1 IRanGd=            0 ICorTp=0 IEmpDi=131
 NAtoms=   35 NActive=   35 NUniq=   35 SFac= 1.00D+00 NAtFMM=   60 NAOKFM=F Big=F
 Integral buffers will be    131072 words long.
 Raffenetti 2 integral format.
 Two-electron integral symmetry is turned off.
 R6Disp:  Grimme-D3 Dispersion energy=       -0.0030085040 Hartrees.
 Nuclear repulsion after empirical dispersion term =     1700.2768434266 Hartrees.
 Leave Link  301 at Thu May 19 16:27:31 2022, MaxMem= 13421772800 cpu:               1.0 elap:               0.1
 (Enter /data0/home/wuhanyu/software/g16/l302.exe)
 NPDir=0 NMtPBC=     1 NCelOv=     1 NCel=       1 NClECP=     1 NCelD=      1
         NCelK=      1 NCelE2=     1 NClLst=     1 CellRange=     0.0.
 One-electron integrals computed using PRISM.
 NBasis=   596 RedAO= T EigKep=  1.14D-06  NBF=   596
 NBsUse=   595 1.00D-06 EigRej=  8.80D-07 NBFU=   595
 Precomputing XC quadrature grid using
 IXCGrd= 4 IRadAn=           5 IRanWt=          -1 IRanGd=           0 AccXCQ= 0.00D+00.
 Generated NRdTot=       0 NPtTot=           0 NUsed=           0 NTot=          32
 NSgBfM=   630   629   629   630   630 MxSgAt=    35 MxSgA2=    35.
 Leave Link  302 at Thu May 19 16:27:31 2022, MaxMem= 13421772800 cpu:              14.9 elap:               0.7
 (Enter /data0/home/wuhanyu/software/g16/l303.exe)
 DipDrv:  MaxL=1.
 Leave Link  303 at Thu May 19 16:27:32 2022, MaxMem= 13421772800 cpu:               1.4 elap:               0.1
 (Enter /data0/home/wuhanyu/software/g16/l401.exe)
 ExpMin= 3.48D-02 ExpMax= 7.75D+04 ExpMxC= 2.65D+03 IAcc=3 IRadAn=         5 AccDes= 0.00D+00
 Harris functional with IExCor= 1009 and IRadAn=       5 diagonalized for initial guess.
 HarFok:  IExCor= 1009 AccDes= 0.00D+00 IRadAn=         5 IDoV= 1 UseB2=F ITyADJ=14
 ICtDFT=  3500011 ScaDFX=  1.000000  1.000000  1.000000  1.000000
 FoFCou: FMM=F IPFlag=           0 FMFlag=      100000 FMFlg1=           0
         NFxFlg=           0 DoJE=T BraDBF=F KetDBF=T FulRan=T
         wScrn=  0.000000 ICntrl=       500 IOpCl=  0 I1Cent=   200000004 NGrid=           0
         NMat0=    1 NMatS0=      1 NMatT0=    0 NMatD0=    1 NMtDS0=    0 NMtDT0=    0
 Symmetry not used in FoFCou.
 Harris En= -1329.24075144587    
 JPrj=0 DoOrth=F DoCkMO=F.
 Leave Link  401 at Thu May 19 16:27:34 2022, MaxMem= 13421772800 cpu:              59.2 elap:               2.7
 (Enter /data0/home/wuhanyu/software/g16/l502.exe)
 Two-electron integral symmetry not used.
 Closed shell SCF:
 Using DIIS extrapolation, IDIIS=  1040.
 NGot= 13421772800 LenX= 13420955631 LenY= 13420555575
 Requested convergence on RMS density matrix=1.00D-08 within 128 cycles.
 Requested convergence on MAX density matrix=1.00D-06.
 Requested convergence on             energy=1.00D-06.
 No special actions if energy rises.
 Fock matrices will be formed incrementally for  20 cycles.

 Cycle   1  Pass 1  IDiag  1:
 FoFJK:  IHMeth= 1 ICntrl=       0 DoSepK=F KAlg= 0 I1Cent=           0 FoldK=F
 IRaf= 840000000 NMat=       1 IRICut=       1 DoRegI=T DoRafI=F ISym2E= 0 IDoP0=0 IntGTp=1.
 FoFCou: FMM=F IPFlag=           0 FMFlag=      100000 FMFlg1=           0
         NFxFlg=           0 DoJE=F BraDBF=F KetDBF=F FulRan=T
         wScrn=  0.000000 ICntrl=         0 IOpCl=  0 I1Cent=           0 NGrid=           0
         NMat0=    1 NMatS0=      1 NMatT0=    0 NMatD0=    1 NMtDS0=    0 NMtDT0=    0
 Symmetry not used in FoFCou.
 E= -1329.09758784430    
 DIIS: error= 2.54D-02 at cycle   1 NSaved=   1.
 NSaved= 1 IEnMin= 1 EnMin= -1329.09758784430     IErMin= 1 ErrMin= 2.54D-02
 ErrMax= 2.54D-02  0.00D+00 EMaxC= 1.00D-01 BMatC= 1.12D+00 BMatP= 1.12D+00
 IDIUse=3 WtCom= 7.46D-01 WtEn= 2.54D-01
 Coeff-Com:  0.100D+01
 Coeff-En:   0.100D+01
 Coeff:      0.100D+01
 Gap=     0.300 Goal=   None    Shift=    0.000
 GapD=    0.300 DampG=1.000 DampE=0.500 DampFc=0.5000 IDamp=-1.
 Damping current iteration by 5.00D-01
 RMSDP=2.73D-02 MaxDP=7.29D+00              OVMax= 1.90D-01

 Cycle   2  Pass 1  IDiag  1:
 RMSU=  8.49D-03    CP:  1.38D+00
 E= -1329.40978366203     Delta-E=       -0.312195817725 Rises=F Damp=T
 DIIS: error= 6.19D-03 at cycle   2 NSaved=   2.
 NSaved= 2 IEnMin= 2 EnMin= -1329.40978366203     IErMin= 2 ErrMin= 6.19D-03
 ErrMax= 6.19D-03  0.00D+00 EMaxC= 1.00D-01 BMatC= 5.99D-02 BMatP= 1.12D+00
 IDIUse=3 WtCom= 9.38D-01 WtEn= 6.19D-02
 Coeff-Com:  0.384D-02 0.996D+00
 Coeff-En:   0.692D-01 0.931D+00
 Coeff:      0.789D-02 0.992D+00
 Gap=     0.307 Goal=   None    Shift=    0.000
 RMSDP=9.05D-03 MaxDP=2.45D+00 DE=-3.12D-01 OVMax= 1.23D-01

 Cycle   3  Pass 1  IDiag  1:
 RMSU=  3.26D-03    CP:  1.09D+00  7.44D-01
 E= -1329.76365552933     Delta-E=       -0.353871867305 Rises=F Damp=F
 DIIS: error= 2.14D-03 at cycle   3 NSaved=   3.
 NSaved= 3 IEnMin= 3 EnMin= -1329.76365552933     IErMin= 3 ErrMin= 2.14D-03
 ErrMax= 2.14D-03  0.00D+00 EMaxC= 1.00D-01 BMatC= 1.38D-02 BMatP= 5.99D-02
 IDIUse=3 WtCom= 9.79D-01 WtEn= 2.14D-02
 Coeff-Com: -0.531D-01 0.272D+00 0.781D+00
 Coeff-En:   0.000D+00 0.000D+00 0.100D+01
 Coeff:     -0.519D-01 0.267D+00 0.785D+00
 Gap=     0.280 Goal=   None    Shift=    0.000
 RMSDP=8.72D-04 MaxDP=7.25D-02 DE=-3.54D-01 OVMax= 3.58D-02

 Cycle   4  Pass 1  IDiag  1:
 RMSU=  7.64D-04    CP:  1.08D+00  7.88D-01  9.62D-01
 E= -1329.77106425090     Delta-E=       -0.007408721568 Rises=F Damp=F
 DIIS: error= 1.49D-03 at cycle   4 NSaved=   4.
 NSaved= 4 IEnMin= 4 EnMin= -1329.77106425090     IErMin= 4 ErrMin= 1.49D-03
 ErrMax= 1.49D-03  0.00D+00 EMaxC= 1.00D-01 BMatC= 4.17D-03 BMatP= 1.38D-02
 IDIUse=3 WtCom= 9.85D-01 WtEn= 1.49D-02
 Coeff-Com: -0.279D-01 0.723D-01 0.415D+00 0.540D+00
 Coeff-En:   0.000D+00 0.000D+00 0.205D+00 0.795D+00
 Coeff:     -0.275D-01 0.712D-01 0.412D+00 0.544D+00
 Gap=     0.279 Goal=   None    Shift=    0.000
 RMSDP=4.20D-04 MaxDP=1.04D-01 DE=-7.41D-03 OVMax= 1.27D-02

 Cycle   5  Pass 1  IDiag  1:
 RMSU=  2.39D-04    CP:  1.07D+00  7.69D-01  9.81D-01  8.42D-01
 E= -1329.77421350071     Delta-E=       -0.003149249806 Rises=F Damp=F
 DIIS: error= 2.66D-04 at cycle   5 NSaved=   5.
 NSaved= 5 IEnMin= 5 EnMin= -1329.77421350071     IErMin= 5 ErrMin= 2.66D-04
 ErrMax= 2.66D-04  0.00D+00 EMaxC= 1.00D-01 BMatC= 1.38D-04 BMatP= 4.17D-03
 IDIUse=3 WtCom= 9.97D-01 WtEn= 2.66D-03
 Coeff-Com: -0.838D-02 0.155D-01 0.131D+00 0.233D+00 0.628D+00
 Coeff-En:   0.000D+00 0.000D+00 0.000D+00 0.000D+00 0.100D+01
 Coeff:     -0.835D-02 0.154D-01 0.131D+00 0.233D+00 0.629D+00
 Gap=     0.278 Goal=   None    Shift=    0.000
 RMSDP=7.70D-05 MaxDP=1.90D-02 DE=-3.15D-03 OVMax= 2.87D-03

 Cycle   6  Pass 1  IDiag  1:
 RMSU=  5.35D-05    CP:  1.07D+00  7.68D-01  9.88D-01  8.16D-01  8.44D-01
 E= -1329.77431917598     Delta-E=       -0.000105675275 Rises=F Damp=F
 DIIS: error= 8.39D-05 at cycle   6 NSaved=   6.
 NSaved= 6 IEnMin= 6 EnMin= -1329.77431917598     IErMin= 6 ErrMin= 8.39D-05
 ErrMax= 8.39D-05  0.00D+00 EMaxC= 1.00D-01 BMatC= 9.64D-06 BMatP= 1.38D-04
 IDIUse=1 WtCom= 1.00D+00 WtEn= 0.00D+00
 Coeff-Com: -0.132D-02 0.118D-02 0.231D-01 0.522D-01 0.256D+00 0.669D+00
 Coeff:     -0.132D-02 0.118D-02 0.231D-01 0.522D-01 0.256D+00 0.669D+00
 Gap=     0.278 Goal=   None    Shift=    0.000
 RMSDP=4.98D-05 MaxDP=1.24D-02 DE=-1.06D-04 OVMax= 8.67D-04

 Cycle   7  Pass 1  IDiag  1:
 RMSU=  1.86D-05    CP:  1.07D+00  7.66D-01  9.88D-01  8.41D-01  9.02D-01
                    CP:  9.03D-01
 E= -1329.77432763315     Delta-E=       -0.000008457162 Rises=F Damp=F
 DIIS: error= 2.61D-05 at cycle   7 NSaved=   7.
 NSaved= 7 IEnMin= 7 EnMin= -1329.77432763315     IErMin= 7 ErrMin= 2.61D-05
 ErrMax= 2.61D-05  0.00D+00 EMaxC= 1.00D-01 BMatC= 9.04D-07 BMatP= 9.64D-06
 IDIUse=1 WtCom= 1.00D+00 WtEn= 0.00D+00
 Coeff-Com:  0.334D-03-0.103D-02-0.429D-02-0.439D-02 0.350D-01 0.236D+00
 Coeff-Com:  0.738D+00
 Coeff:      0.334D-03-0.103D-02-0.429D-02-0.439D-02 0.350D-01 0.236D+00
 Coeff:      0.738D+00
 Gap=     0.278 Goal=   None    Shift=    0.000
 RMSDP=2.34D-05 MaxDP=6.52D-03 DE=-8.46D-06 OVMax= 4.81D-04

 Cycle   8  Pass 1  IDiag  1:
 RMSU=  8.35D-06    CP:  1.07D+00  7.66D-01  9.91D-01  8.39D-01  8.98D-01
                    CP:  1.01D+00  1.03D+00
 E= -1329.77432846439     Delta-E=       -0.000000831244 Rises=F Damp=F
 DIIS: error= 1.91D-05 at cycle   8 NSaved=   8.
 NSaved= 8 IEnMin= 8 EnMin= -1329.77432846439     IErMin= 8 ErrMin= 1.91D-05
 ErrMax= 1.91D-05  0.00D+00 EMaxC= 1.00D-01 BMatC= 3.49D-07 BMatP= 9.04D-07
 IDIUse=1 WtCom= 1.00D+00 WtEn= 0.00D+00
 Coeff-Com:  0.432D-03-0.821D-03-0.677D-02-0.125D-01-0.270D-01 0.447D-02
 Coeff-Com:  0.423D+00 0.620D+00
 Coeff:      0.432D-03-0.821D-03-0.677D-02-0.125D-01-0.270D-01 0.447D-02
 Coeff:      0.423D+00 0.620D+00
 Gap=     0.278 Goal=   None    Shift=    0.000
 RMSDP=1.01D-05 MaxDP=3.09D-03 DE=-8.31D-07 OVMax= 2.53D-04

 Cycle   9  Pass 1  IDiag  1:
 RMSU=  2.58D-06    CP:  1.07D+00  7.65D-01  9.90D-01  8.42D-01  9.11D-01
                    CP:  1.02D+00  1.12D+00  7.57D-01
 E= -1329.77432883878     Delta-E=       -0.000000374391 Rises=F Damp=F
 DIIS: error= 4.12D-06 at cycle   9 NSaved=   9.
 NSaved= 9 IEnMin= 9 EnMin= -1329.77432883878     IErMin= 9 ErrMin= 4.12D-06
 ErrMax= 4.12D-06  0.00D+00 EMaxC= 1.00D-01 BMatC= 1.41D-08 BMatP= 3.49D-07
 IDIUse=1 WtCom= 1.00D+00 WtEn= 0.00D+00
 Coeff-Com:  0.105D-03-0.179D-03-0.176D-02-0.362D-02-0.983D-02-0.136D-01
 Coeff-Com:  0.844D-01 0.198D+00 0.746D+00
 Coeff:      0.105D-03-0.179D-03-0.176D-02-0.362D-02-0.983D-02-0.136D-01
 Coeff:      0.844D-01 0.198D+00 0.746D+00
 Gap=     0.278 Goal=   None    Shift=    0.000
 RMSDP=1.38D-06 MaxDP=3.64D-04 DE=-3.74D-07 OVMax= 9.74D-05

 Cycle  10  Pass 1  IDiag  1:
 RMSU=  9.09D-07    CP:  1.07D+00  7.65D-01  9.90D-01  8.42D-01  9.10D-01
                    CP:  1.02D+00  1.13D+00  7.84D-01  9.73D-01
 E= -1329.77432885811     Delta-E=       -0.000000019330 Rises=F Damp=F
 DIIS: error= 2.32D-06 at cycle  10 NSaved=  10.
 NSaved=10 IEnMin=10 EnMin= -1329.77432885811     IErMin=10 ErrMin= 2.32D-06
 ErrMax= 2.32D-06  0.00D+00 EMaxC= 1.00D-01 BMatC= 6.20D-09 BMatP= 1.41D-08
 IDIUse=1 WtCom= 1.00D+00 WtEn= 0.00D+00
 Coeff-Com: -0.400D-04 0.846D-04 0.547D-03 0.722D-03 0.386D-03-0.942D-02
 Coeff-Com: -0.498D-01-0.350D-01 0.418D+00 0.675D+00
 Coeff:     -0.400D-04 0.846D-04 0.547D-03 0.722D-03 0.386D-03-0.942D-02
 Coeff:     -0.498D-01-0.350D-01 0.418D+00 0.675D+00
 Gap=     0.278 Goal=   None    Shift=    0.000
 RMSDP=9.97D-07 MaxDP=2.43D-04 DE=-1.93D-08 OVMax= 4.34D-05

 Cycle  11  Pass 1  IDiag  1:
 RMSU=  3.16D-07    CP:  1.07D+00  7.65D-01  9.90D-01  8.42D-01  9.10D-01
                    CP:  1.02D+00  1.14D+00  8.23D-01  1.14D+00  7.26D-01
 E= -1329.77432886657     Delta-E=       -0.000000008462 Rises=F Damp=F
 DIIS: error= 5.97D-07 at cycle  11 NSaved=  11.
 NSaved=11 IEnMin=11 EnMin= -1329.77432886657     IErMin=11 ErrMin= 5.97D-07
 ErrMax= 5.97D-07  0.00D+00 EMaxC= 1.00D-01 BMatC= 2.39D-10 BMatP= 6.20D-09
 IDIUse=1 WtCom= 1.00D+00 WtEn= 0.00D+00
 Coeff-Com: -0.200D-04 0.389D-04 0.335D-03 0.549D-03 0.105D-02-0.156D-02
 Coeff-Com: -0.233D-01-0.319D-01 0.401D-01 0.170D+00 0.845D+00
 Coeff:     -0.200D-04 0.389D-04 0.335D-03 0.549D-03 0.105D-02-0.156D-02
 Coeff:     -0.233D-01-0.319D-01 0.401D-01 0.170D+00 0.845D+00
 Gap=     0.278 Goal=   None    Shift=    0.000
 RMSDP=2.64D-07 MaxDP=6.27D-05 DE=-8.46D-09 OVMax= 2.18D-05

 Cycle  12  Pass 1  IDiag  1:
 RMSU=  1.04D-07    CP:  1.07D+00  7.65D-01  9.90D-01  8.42D-01  9.11D-01
                    CP:  1.02D+00  1.14D+00  8.30D-01  1.18D+00  7.47D-01
                    CP:  1.09D+00
 E= -1329.77432886730     Delta-E=       -0.000000000732 Rises=F Damp=F
 DIIS: error= 2.94D-07 at cycle  12 NSaved=  12.
 NSaved=12 IEnMin=12 EnMin= -1329.77432886730     IErMin=12 ErrMin= 2.94D-07
 ErrMax= 2.94D-07  0.00D+00 EMaxC= 1.00D-01 BMatC= 4.79D-11 BMatP= 2.39D-10
 IDIUse=1 WtCom= 1.00D+00 WtEn= 0.00D+00
 Coeff-Com: -0.879D-06 0.118D-05 0.459D-04 0.951D-04 0.317D-03 0.742D-03
 Coeff-Com: -0.155D-02-0.647D-02-0.401D-01-0.368D-01 0.274D+00 0.810D+00
 Coeff:     -0.879D-06 0.118D-05 0.459D-04 0.951D-04 0.317D-03 0.742D-03
 Coeff:     -0.155D-02-0.647D-02-0.401D-01-0.368D-01 0.274D+00 0.810D+00
 Gap=     0.278 Goal=   None    Shift=    0.000
 RMSDP=1.51D-07 MaxDP=3.45D-05 DE=-7.32D-10 OVMax= 8.52D-06

 Cycle  13  Pass 1  IDiag  1:
 RMSU=  4.40D-08    CP:  1.07D+00  7.65D-01  9.90D-01  8.42D-01  9.11D-01
                    CP:  1.02D+00  1.14D+00  8.34D-01  1.19D+00  7.28D-01
                    CP:  1.24D+00  1.24D+00
 E= -1329.77432886743     Delta-E=       -0.000000000126 Rises=F Damp=F
 DIIS: error= 1.05D-07 at cycle  13 NSaved=  13.
 NSaved=13 IEnMin=13 EnMin= -1329.77432886743     IErMin=13 ErrMin= 1.05D-07
 ErrMax= 1.05D-07  0.00D+00 EMaxC= 1.00D-01 BMatC= 1.29D-11 BMatP= 4.79D-11
 IDIUse=1 WtCom= 1.00D+00 WtEn= 0.00D+00
 Coeff-Com:  0.324D-05-0.633D-05-0.367D-04-0.521D-04-0.335D-04 0.678D-03
 Coeff-Com:  0.352D-02 0.293D-02-0.246D-01-0.475D-01-0.157D-01 0.406D+00
 Coeff-Com:  0.674D+00
 Coeff:      0.324D-05-0.633D-05-0.367D-04-0.521D-04-0.335D-04 0.678D-03
 Coeff:      0.352D-02 0.293D-02-0.246D-01-0.475D-01-0.157D-01 0.406D+00
 Coeff:      0.674D+00
 Gap=     0.278 Goal=   None    Shift=    0.000
 RMSDP=3.53D-08 MaxDP=7.02D-06 DE=-1.26D-10 OVMax= 3.31D-06

 Cycle  14  Pass 1  IDiag  1:
 RMSU=  1.87D-08    CP:  1.07D+00  7.65D-01  9.90D-01  8.42D-01  9.11D-01
                    CP:  1.02D+00  1.14D+00  8.34D-01  1.19D+00  7.22D-01
                    CP:  1.28D+00  1.36D+00  1.09D+00
 E= -1329.77432886743     Delta-E=        0.000000000001 Rises=F Damp=F
 DIIS: error= 3.84D-08 at cycle  14 NSaved=  14.
 NSaved=14 IEnMin=13 EnMin= -1329.77432886743     IErMin=14 ErrMin= 3.84D-08
 ErrMax= 3.84D-08  0.00D+00 EMaxC= 1.00D-01 BMatC= 1.04D-12 BMatP= 1.29D-11
 IDIUse=1 WtCom= 1.00D+00 WtEn= 0.00D+00
 Coeff-Com:  0.102D-05-0.203D-05-0.168D-04-0.273D-04-0.584D-04 0.986D-04
 Coeff-Com:  0.116D-02 0.181D-02-0.168D-02-0.966D-02-0.475D-01 0.151D-01
 Coeff-Com:  0.224D+00 0.817D+00
 Coeff:      0.102D-05-0.203D-05-0.168D-04-0.273D-04-0.584D-04 0.986D-04
 Coeff:      0.116D-02 0.181D-02-0.168D-02-0.966D-02-0.475D-01 0.151D-01
 Coeff:      0.224D+00 0.817D+00
 Gap=     0.278 Goal=   None    Shift=    0.000
 RMSDP=3.30D-08 MaxDP=8.71D-06 DE= 9.09D-13 OVMax= 1.18D-06

 Cycle  15  Pass 1  IDiag  1:
 RMSU=  6.07D-09    CP:  1.07D+00  7.65D-01  9.90D-01  8.42D-01  9.11D-01
                    CP:  1.02D+00  1.14D+00  8.35D-01  1.19D+00  7.18D-01
                    CP:  1.29D+00  1.42D+00  1.20D+00  1.06D+00
 E= -1329.77432886743     Delta-E=        0.000000000004 Rises=F Damp=F
 DIIS: error= 1.11D-08 at cycle  15 NSaved=  15.
 NSaved=15 IEnMin=13 EnMin= -1329.77432886743     IErMin=15 ErrMin= 1.11D-08
 ErrMax= 1.11D-08  0.00D+00 EMaxC= 1.00D-01 BMatC= 1.56D-13 BMatP= 1.04D-12
 IDIUse=1 WtCom= 1.00D+00 WtEn= 0.00D+00
 Coeff-Com: -0.506D-07 0.594D-07-0.169D-05-0.315D-05-0.153D-04-0.299D-04
 Coeff-Com: -0.111D-04 0.335D-03 0.227D-02 0.219D-02-0.146D-01-0.450D-01
 Coeff-Com: -0.573D-02 0.308D+00 0.753D+00
 Coeff:     -0.506D-07 0.594D-07-0.169D-05-0.315D-05-0.153D-04-0.299D-04
 Coeff:     -0.111D-04 0.335D-03 0.227D-02 0.219D-02-0.146D-01-0.450D-01
 Coeff:     -0.573D-02 0.308D+00 0.753D+00
 Gap=     0.278 Goal=   None    Shift=    0.000
 RMSDP=4.41D-09 MaxDP=6.30D-07 DE= 3.64D-12 OVMax= 3.05D-07

 SCF Done:  E(RM062X) =  -1329.77432887     A.U. after   15 cycles
            NFock= 15  Conv=0.44D-08     -V/T= 2.0033
 KE= 1.325418138139D+03 PE=-6.534169534760D+03 EE= 2.178700224327D+03
 Leave Link  502 at Thu May 19 16:30:28 2022, MaxMem= 13421772800 cpu:            3797.7 elap:             173.2
 (Enter /data0/home/wuhanyu/software/g16/l601.exe)
 Copying SCF densities to generalized density rwf, IOpCl= 0 IROHF=0.

 **********************************************************************

            Population analysis using the SCF density.

 **********************************************************************

 Alpha  occ. eigenvalues --  -78.15443 -19.66007 -19.65160 -19.64488 -19.64046
 Alpha  occ. eigenvalues --  -19.63830 -19.62428 -19.61953 -19.59237 -14.81111
 Alpha  occ. eigenvalues --  -14.76409 -10.63713 -10.60109 -10.58997 -10.56724
 Alpha  occ. eigenvalues --  -10.56360 -10.56133 -10.55897  -6.96151  -5.08059
 Alpha  occ. eigenvalues --   -5.08015  -5.07913  -1.21744  -1.16552  -1.15174
 Alpha  occ. eigenvalues --   -1.14307  -1.13906  -1.13263  -1.12925  -1.12434
 Alpha  occ. eigenvalues --   -1.09432  -0.99405  -0.96768  -0.86149  -0.84795
 Alpha  occ. eigenvalues --   -0.73222  -0.71846  -0.70267  -0.69521  -0.64504
 Alpha  occ. eigenvalues --   -0.63925  -0.62755  -0.62573  -0.61685  -0.61267
 Alpha  occ. eigenvalues --   -0.60838  -0.58701  -0.57323  -0.55560  -0.53615
 Alpha  occ. eigenvalues --   -0.53171  -0.52744  -0.52099  -0.51469  -0.50354
 Alpha  occ. eigenvalues --   -0.50174  -0.49076  -0.48052  -0.47955  -0.46864
 Alpha  occ. eigenvalues --   -0.45536  -0.44752  -0.43971  -0.43676  -0.42872
 Alpha  occ. eigenvalues --   -0.42779  -0.41817  -0.40984  -0.40317  -0.39601
 Alpha  occ. eigenvalues --   -0.39272  -0.38511  -0.38022  -0.37173  -0.30279
 Alpha  occ. eigenvalues --   -0.29568
 Alpha virt. eigenvalues --   -0.01724   0.00056   0.01013   0.01403   0.02020
 Alpha virt. eigenvalues --    0.02452   0.02704   0.03422   0.04069   0.04517
 Alpha virt. eigenvalues --    0.04681   0.05960   0.06166   0.06662   0.07348
 Alpha virt. eigenvalues --    0.07601   0.08363   0.09320   0.10203   0.10487
 Alpha virt. eigenvalues --    0.11163   0.11413   0.12077   0.12563   0.13044
 Alpha virt. eigenvalues --    0.13698   0.13941   0.14114   0.14512   0.14924
 Alpha virt. eigenvalues --    0.15417   0.15914   0.16263   0.16957   0.17130
 Alpha virt. eigenvalues --    0.17874   0.17996   0.18154   0.18554   0.19037
 Alpha virt. eigenvalues --    0.19444   0.19856   0.19929   0.20123   0.20312
 Alpha virt. eigenvalues --    0.20960   0.21110   0.21532   0.21839   0.22280
 Alpha virt. eigenvalues --    0.22514   0.22827   0.23022   0.23599   0.23663
 Alpha virt. eigenvalues --    0.24144   0.24349   0.24645   0.24915   0.25762
 Alpha virt. eigenvalues --    0.26075   0.26156   0.26591   0.26810   0.27553
 Alpha virt. eigenvalues --    0.27683   0.28244   0.28478   0.28678   0.29020
 Alpha virt. eigenvalues --    0.29404   0.29664   0.30608   0.30867   0.31480
 Alpha virt. eigenvalues --    0.31733   0.32003   0.32363   0.32577   0.33007
 Alpha virt. eigenvalues --    0.33345   0.33962   0.34538   0.35078   0.35495
 Alpha virt. eigenvalues --    0.36156   0.36257   0.36624   0.37571   0.38031
 Alpha virt. eigenvalues --    0.38546   0.39314   0.40103   0.41222   0.41865
 Alpha virt. eigenvalues --    0.42375   0.42579   0.44117   0.44847   0.45197
 Alpha virt. eigenvalues --    0.45771   0.47390   0.47900   0.48591   0.48968
 Alpha virt. eigenvalues --    0.50296   0.51260   0.52236   0.53441   0.54096
 Alpha virt. eigenvalues --    0.54315   0.55200   0.55495   0.55776   0.57177
 Alpha virt. eigenvalues --    0.57438   0.58105   0.58196   0.59158   0.60303
 Alpha virt. eigenvalues --    0.60589   0.61854   0.63088   0.63667   0.64513
 Alpha virt. eigenvalues --    0.64910   0.65843   0.66429   0.67086   0.67635
 Alpha virt. eigenvalues --    0.68181   0.68853   0.68884   0.69522   0.70378
 Alpha virt. eigenvalues --    0.70916   0.71706   0.72433   0.73037   0.74550
 Alpha virt. eigenvalues --    0.75428   0.75904   0.76486   0.77175   0.77760
 Alpha virt. eigenvalues --    0.78868   0.80471   0.80712   0.81798   0.82450
 Alpha virt. eigenvalues --    0.82916   0.83882   0.84451   0.84837   0.85229
 Alpha virt. eigenvalues --    0.85697   0.86365   0.86979   0.88270   0.88741
 Alpha virt. eigenvalues --    0.89464   0.90824   0.92525   0.92954   0.93870
 Alpha virt. eigenvalues --    0.95185   0.95981   0.97081   0.98457   0.99967
 Alpha virt. eigenvalues --    1.01406   1.03512   1.04318   1.05969   1.06911
 Alpha virt. eigenvalues --    1.07507   1.08446   1.09263   1.09958   1.10700
 Alpha virt. eigenvalues --    1.11308   1.11947   1.12048   1.13765   1.14383
 Alpha virt. eigenvalues --    1.14634   1.14777   1.16071   1.16928   1.17157
 Alpha virt. eigenvalues --    1.18409   1.19095   1.19621   1.20379   1.20665
 Alpha virt. eigenvalues --    1.20957   1.21792   1.22361   1.22623   1.23325
 Alpha virt. eigenvalues --    1.23790   1.24215   1.25213   1.25602   1.26119
 Alpha virt. eigenvalues --    1.27036   1.27411   1.27813   1.29460   1.30331
 Alpha virt. eigenvalues --    1.30925   1.31746   1.32010   1.32445   1.33070
 Alpha virt. eigenvalues --    1.33428   1.34445   1.35142   1.35804   1.36703
 Alpha virt. eigenvalues --    1.37377   1.37843   1.38905   1.39849   1.40244
 Alpha virt. eigenvalues --    1.41088   1.41618   1.42411   1.43838   1.44247
 Alpha virt. eigenvalues --    1.45255   1.46430   1.47620   1.48410   1.48867
 Alpha virt. eigenvalues --    1.49146   1.50119   1.51136   1.53133   1.54065
 Alpha virt. eigenvalues --    1.54612   1.56163   1.56916   1.58770   1.59616
 Alpha virt. eigenvalues --    1.60192   1.61695   1.62440   1.63354   1.64660
 Alpha virt. eigenvalues --    1.65862   1.66450   1.67111   1.68160   1.69228
 Alpha virt. eigenvalues --    1.69327   1.70626   1.71288   1.72804   1.73199
 Alpha virt. eigenvalues --    1.74261   1.74871   1.75650   1.76493   1.77037
 Alpha virt. eigenvalues --    1.78752   1.79534   1.80684   1.82199   1.83471
 Alpha virt. eigenvalues --    1.86114   1.87679   1.88237   1.90124   1.91678
 Alpha virt. eigenvalues --    1.92223   1.93442   1.93925   1.95327   1.96381
 Alpha virt. eigenvalues --    1.97669   1.97691   1.98485   1.99824   2.01710
 Alpha virt. eigenvalues --    2.02431   2.02792   2.04135   2.05924   2.07143
 Alpha virt. eigenvalues --    2.08663   2.09813   2.10835   2.11874   2.11923
 Alpha virt. eigenvalues --    2.13201   2.13727   2.14340   2.16756   2.18022
 Alpha virt. eigenvalues --    2.19483   2.20319   2.21662   2.23501   2.25061
 Alpha virt. eigenvalues --    2.27807   2.29544   2.30788   2.31142   2.33078
 Alpha virt. eigenvalues --    2.34786   2.35858   2.36181   2.39255   2.40471
 Alpha virt. eigenvalues --    2.41814   2.43229   2.46124   2.47073   2.50406
 Alpha virt. eigenvalues --    2.50800   2.53296   2.53759   2.54681   2.60424
 Alpha virt. eigenvalues --    2.61445   2.62926   2.64087   2.64536   2.64718
 Alpha virt. eigenvalues --    2.66705   2.67394   2.68794   2.70106   2.70855
 Alpha virt. eigenvalues --    2.71723   2.74584   2.76696   2.76745   2.77860
 Alpha virt. eigenvalues --    2.78850   2.80007   2.80571   2.81424   2.85146
 Alpha virt. eigenvalues --    2.86242   2.87393   2.88844   2.90998   2.91161
 Alpha virt. eigenvalues --    2.93403   2.95180   2.95941   2.96794   2.97460
 Alpha virt. eigenvalues --    2.98786   3.00377   3.00805   3.01912   3.05238
 Alpha virt. eigenvalues --    3.08769   3.09484   3.10227   3.13072   3.16057
 Alpha virt. eigenvalues --    3.16781   3.16906   3.17819   3.19725   3.20578
 Alpha virt. eigenvalues --    3.23434   3.24560   3.29691   3.30259   3.30863
 Alpha virt. eigenvalues --    3.32261   3.35726   3.37598   3.38789   3.39429
 Alpha virt. eigenvalues --    3.40768   3.43687   3.44113   3.45320   3.48275
 Alpha virt. eigenvalues --    3.50417   3.51514   3.54361   3.56114   3.58715
 Alpha virt. eigenvalues --    3.59576   3.60454   3.62258   3.63925   3.66676
 Alpha virt. eigenvalues --    3.70332   3.73325   3.74403   3.75008   3.77230
 Alpha virt. eigenvalues --    3.79418   3.81127   3.87072   3.92763   3.94143
 Alpha virt. eigenvalues --    3.95367   3.96363   3.99472   4.00996   4.03955
 Alpha virt. eigenvalues --    4.08207   4.09656   4.16413   4.25716   4.43368
 Alpha virt. eigenvalues --    4.57293   4.66829   4.71279   4.74344   4.92473
 Alpha virt. eigenvalues --    5.01257   5.02806   5.04781   5.08384   5.09235
 Alpha virt. eigenvalues --    5.11940   5.12342   5.12840   5.14312   5.15368
 Alpha virt. eigenvalues --    5.18503   5.18838   5.20128   5.21271   5.21487
 Alpha virt. eigenvalues --    5.22926   5.24013   5.27901   5.31649   5.32467
 Alpha virt. eigenvalues --    5.34777   5.40699   5.42580   5.43215   5.55413
 Alpha virt. eigenvalues --    5.57575   5.59370   5.60728   5.61514   5.62391
 Alpha virt. eigenvalues --    5.64745   5.65320   5.69684   5.93526   5.98055
 Alpha virt. eigenvalues --    5.98220   6.01076   6.74685   6.77125   6.77385
 Alpha virt. eigenvalues --    6.79030   6.80325   6.81176   6.81246   6.82317
 Alpha virt. eigenvalues --    6.82956   6.83380   6.83808   6.85121   6.86785
 Alpha virt. eigenvalues --    6.88417   6.88804   6.89477   6.90884   6.92382
 Alpha virt. eigenvalues --    6.93254   6.94351   6.95520   6.95545   6.96703
 Alpha virt. eigenvalues --    6.97041   6.98300   7.00269   7.02546   7.04145
 Alpha virt. eigenvalues --    7.07722   7.13010   7.13738   7.17147   7.17700
 Alpha virt. eigenvalues --    7.18619   7.21274   7.26234   7.29480   7.34960
 Alpha virt. eigenvalues --    7.37727   7.44862   7.69748  14.27229  14.29657
 Alpha virt. eigenvalues --   14.40921  23.80193  24.02921  24.06448  24.11443
 Alpha virt. eigenvalues --   24.12633  24.24219  24.27624  35.74538  35.81201
 Alpha virt. eigenvalues --   50.01928  50.03999  50.04115  50.05487  50.07503
 Alpha virt. eigenvalues --   50.08481  50.09370  50.13643 163.95149
          Condensed to atoms (all electrons):
               1          2          3          4          5          6
     1  C   23.536606 -14.143847  -2.921081  -1.046179  -0.343594  -0.366143
     2  C  -14.143847  23.850398   0.526473  -0.418289  -0.557970  -2.062530
     3  C   -2.921081   0.526473   8.035686   0.687720  -0.035404   0.853396
     4  C   -1.046179  -0.418289   0.687720   6.329515   0.077469   0.199614
     5  C   -0.343594  -0.557970  -0.035404   0.077469   6.104301   0.493608
     6  C   -0.366143  -2.062530   0.853396   0.199614   0.493608   7.525082
     7  H   -0.010130  -0.008965   0.360518   0.001990   0.004694  -0.009809
     8  H    0.002441   0.034395  -0.040255   0.367686  -0.024000   0.005008
     9  H    0.028767  -0.005463   0.008137  -0.026978   0.391606  -0.049433
    10  H   -0.030551  -0.004585  -0.005561   0.004677   0.003760   0.384074
    11  H    0.070786   0.007123  -0.009638   0.002857  -0.011988  -0.047203
    12  C    0.712296  -1.331106  -0.577969  -0.034614   0.017651  -0.355804
    13  H   -0.001857   0.036255   0.011630   0.000889   0.000450   0.009936
    14  N   -1.675301   1.630397   0.124857  -0.007831   0.037908  -0.146031
    15  N    2.046352  -1.828022  -0.636031  -0.001740  -0.038318   0.110378
    16  P    0.046246  -0.091626   0.008054  -0.003717   0.005412   0.016337
    17  O   -0.083091   0.048580   0.040774   0.000494   0.001090   0.016274
    18  O   -0.119200   0.012198   0.073817   0.030069  -0.005001  -0.002816
    19  H    0.047515   0.048943  -0.072114  -0.015706   0.002090  -0.007562
    20  O    0.001031  -0.011852   0.003711  -0.000114   0.000108   0.000379
    21  H    0.000489  -0.001595  -0.000022   0.000058  -0.000014  -0.000043
    22  O    0.002161   0.010416  -0.006223  -0.002954  -0.001196  -0.001848
    23  H    0.000211  -0.020135   0.007562   0.005696   0.000268   0.001542
    24  O    0.019356   0.106742  -0.036540  -0.089508  -0.000991  -0.006595
    25  H   -0.012487  -0.045860   0.058210   0.032577  -0.018092   0.007787
    26  H   -0.063238   0.037854   0.011083   0.046977  -0.015427   0.004615
    27  O   -0.087351   0.059753   0.015873  -0.001205   0.001603   0.028081
    28  H    0.021647  -0.030801  -0.005041  -0.000064  -0.001170  -0.005842
    29  H    0.002180  -0.001818  -0.000335   0.000036  -0.000230  -0.000471
    30  O   -0.044783   0.034888   0.003678  -0.000821   0.000600   0.008111
    31  H    0.072503  -0.036116  -0.004187  -0.000034  -0.000631  -0.015667
    32  H   -0.013065   0.013264   0.000024   0.000079  -0.000389  -0.006178
    33  O    0.220930  -0.235876   0.015486  -0.060507   0.065881   0.002127
    34  H    0.033424   0.014123  -0.001696   0.011230  -0.028592  -0.009297
    35  H   -0.013559   0.055339  -0.008959   0.010041  -0.032707   0.000519
               7          8          9         10         11         12
     1  C   -0.010130   0.002441   0.028767  -0.030551   0.070786   0.712296
     2  C   -0.008965   0.034395  -0.005463  -0.004585   0.007123  -1.331106
     3  C    0.360518  -0.040255   0.008137  -0.005561  -0.009638  -0.577969
     4  C    0.001990   0.367686  -0.026978   0.004677   0.002857  -0.034614
     5  C    0.004694  -0.024000   0.391606   0.003760  -0.011988   0.017651
     6  C   -0.009809   0.005008  -0.049433   0.384074  -0.047203  -0.355804
     7  H    0.494312  -0.004608  -0.000227   0.000064   0.000035   0.004533
     8  H   -0.004608   0.531733  -0.005168  -0.000212  -0.000002   0.000615
     9  H   -0.000227  -0.005168   0.529327  -0.004908  -0.000010   0.000389
    10  H    0.000064  -0.000212  -0.004908   0.499131   0.001422   0.002930
    11  H    0.000035  -0.000002  -0.000010   0.001422   0.367263   0.000365
    12  C    0.004533   0.000615   0.000389   0.002930   0.000365   6.316208
    13  H   -0.000021  -0.000000  -0.000000  -0.000005  -0.002304   0.384108
    14  N   -0.000246   0.000493  -0.000652   0.000315   0.304363   0.167146
    15  N    0.006610  -0.000752   0.000533  -0.001338  -0.005612   0.637589
    16  P    0.000448  -0.000009   0.000001   0.000033   0.000433  -0.060629
    17  O   -0.000091   0.000000  -0.000001   0.000006  -0.000506   0.068102
    18  O   -0.000611  -0.000005   0.000001  -0.000008   0.000201   0.002668
    19  H    0.000343   0.000003  -0.000000   0.000010  -0.000099   0.021298
    20  O    0.000006   0.000000  -0.000000  -0.000000   0.000009   0.001113
    21  H   -0.000000  -0.000000   0.000000  -0.000000   0.000000   0.000922
    22  O    0.000009   0.000002   0.000000  -0.000001  -0.000013   0.000325
    23  H    0.000093  -0.000012  -0.000000   0.000000  -0.000001  -0.000315
    24  O   -0.004672   0.000558  -0.000005   0.000024  -0.000005   0.006753
    25  H    0.002335  -0.000749   0.000010  -0.000015   0.000021  -0.002149
    26  H    0.000041  -0.000313  -0.000006  -0.000028   0.000024  -0.004459
    27  O    0.000000   0.000002  -0.000006  -0.000006  -0.004728  -0.027285
    28  H   -0.000003  -0.000000   0.000001  -0.000022   0.000701   0.026655
    29  H    0.000000   0.000000   0.000000  -0.000004  -0.000017   0.000571
    30  O   -0.000006   0.000001  -0.000000  -0.000146  -0.053215  -0.018394
    31  H    0.000001  -0.000000   0.000001  -0.000086   0.010600   0.010108
    32  H    0.000000   0.000000  -0.000000   0.000043   0.001265   0.004752
    33  O    0.000114   0.000196  -0.000126  -0.000384   0.000196   0.009476
    34  H   -0.000008  -0.000020   0.000014  -0.000302   0.000427  -0.002113
    35  H   -0.000052  -0.000000  -0.000328  -0.000387  -0.000523  -0.001521
              13         14         15         16         17         18
     1  C   -0.001857  -1.675301   2.046352   0.046246  -0.083091  -0.119200
     2  C    0.036255   1.630397  -1.828022  -0.091626   0.048580   0.012198
     3  C    0.011630   0.124857  -0.636031   0.008054   0.040774   0.073817
     4  C    0.000889  -0.007831  -0.001740  -0.003717   0.000494   0.030069
     5  C    0.000450   0.037908  -0.038318   0.005412   0.001090  -0.005001
     6  C    0.009936  -0.146031   0.110378   0.016337   0.016274  -0.002816
     7  H   -0.000021  -0.000246   0.006610   0.000448  -0.000091  -0.000611
     8  H   -0.000000   0.000493  -0.000752  -0.000009   0.000000  -0.000005
     9  H   -0.000000  -0.000652   0.000533   0.000001  -0.000001   0.000001
    10  H   -0.000005   0.000315  -0.001338   0.000033   0.000006  -0.000008
    11  H   -0.002304   0.304363  -0.005612   0.000433  -0.000506   0.000201
    12  C    0.384108   0.167146   0.637589  -0.060629   0.068102   0.002668
    13  H    0.469753  -0.036134  -0.050823   0.004064  -0.012597   0.000205
    14  N   -0.036134   7.066530  -0.244746   0.009020   0.004009   0.004560
    15  N   -0.050823  -0.244746   7.293718   0.031200  -0.051494  -0.020833
    16  P    0.004064   0.009020   0.031200  12.505921   0.439270   0.319132
    17  O   -0.012597   0.004009  -0.051494   0.439270   8.270729  -0.052230
    18  O    0.000205   0.004560  -0.020833   0.319132  -0.052230   8.114894
    19  H   -0.001105   0.002429   0.051764  -0.009115  -0.002424   0.250310
    20  O   -0.000119  -0.000401   0.002628   0.184655  -0.010452   0.009037
    21  H    0.000009  -0.000005   0.000588   0.012714  -0.007043  -0.004692
    22  O    0.000235   0.001470  -0.011009   0.313068  -0.046084   0.007333
    23  H    0.000013   0.000276  -0.002315   0.011936   0.013995  -0.016212
    24  O   -0.000028   0.000383  -0.004860   0.029849  -0.022570  -0.000123
    25  H    0.000002   0.000168  -0.001482   0.002795   0.000640   0.005584
    26  H   -0.000002   0.000235  -0.004269  -0.002991   0.003219   0.000318
    27  O    0.000557   0.029996  -0.012331  -0.006209  -0.020773  -0.002345
    28  H   -0.000719  -0.006493   0.012501   0.012371   0.061629   0.002678
    29  H    0.000007  -0.000688   0.000488   0.000027   0.000830  -0.000074
    30  O    0.000466   0.003123   0.000549  -0.000667   0.000738  -0.000046
    31  H   -0.000214  -0.023504   0.001207   0.000754  -0.001764   0.000041
    32  H   -0.000032   0.003137  -0.000490  -0.000104   0.000002  -0.000000
    33  O    0.000065  -0.010783   0.000302   0.000339   0.002322  -0.001345
    34  H   -0.000036  -0.006933   0.003878   0.001136  -0.002967   0.000631
    35  H   -0.000014  -0.004818  -0.000864  -0.000450  -0.000536   0.000092
              19         20         21         22         23         24
     1  C    0.047515   0.001031   0.000489   0.002161   0.000211   0.019356
     2  C    0.048943  -0.011852  -0.001595   0.010416  -0.020135   0.106742
     3  C   -0.072114   0.003711  -0.000022  -0.006223   0.007562  -0.036540
     4  C   -0.015706  -0.000114   0.000058  -0.002954   0.005696  -0.089508
     5  C    0.002090   0.000108  -0.000014  -0.001196   0.000268  -0.000991
     6  C   -0.007562   0.000379  -0.000043  -0.001848   0.001542  -0.006595
     7  H    0.000343   0.000006  -0.000000   0.000009   0.000093  -0.004672
     8  H    0.000003   0.000000  -0.000000   0.000002  -0.000012   0.000558
     9  H   -0.000000  -0.000000   0.000000   0.000000  -0.000000  -0.000005
    10  H    0.000010  -0.000000  -0.000000  -0.000001   0.000000   0.000024
    11  H   -0.000099   0.000009   0.000000  -0.000013  -0.000001  -0.000005
    12  C    0.021298   0.001113   0.000922   0.000325  -0.000315   0.006753
    13  H   -0.001105  -0.000119   0.000009   0.000235   0.000013  -0.000028
    14  N    0.002429  -0.000401  -0.000005   0.001470   0.000276   0.000383
    15  N    0.051764   0.002628   0.000588  -0.011009  -0.002315  -0.004860
    16  P   -0.009115   0.184655   0.012714   0.313068   0.011936   0.029849
    17  O   -0.002424  -0.010452  -0.007043  -0.046084   0.013995  -0.022570
    18  O    0.250310   0.009037  -0.004692   0.007333  -0.016212  -0.000123
    19  H    0.289177  -0.005124   0.000340   0.007521  -0.000907   0.002295
    20  O   -0.005124   8.061681   0.243133  -0.014322  -0.002875   0.004291
    21  H    0.000340   0.243133   0.450223  -0.006966  -0.000260   0.000198
    22  O    0.007521  -0.014322  -0.006966   8.133562   0.227763   0.040107
    23  H   -0.000907  -0.002875  -0.000260   0.227763   0.313128  -0.036529
    24  O    0.002295   0.004291   0.000198   0.040107  -0.036529   8.068886
    25  H   -0.002259  -0.000295   0.000018  -0.014492   0.020146   0.269853
    26  H   -0.000423  -0.000472  -0.000010  -0.015029   0.019878   0.233227
    27  O    0.000488  -0.001242   0.000030   0.006540   0.001398  -0.001457
    28  H   -0.000697   0.001306   0.000049  -0.005063  -0.001824   0.000430
    29  H   -0.000020  -0.000059  -0.000020  -0.000838  -0.000075   0.000542
    30  O    0.000039  -0.000064  -0.000000   0.000013   0.000005   0.000068
    31  H    0.000014   0.000043   0.000001   0.000033  -0.000036   0.000005
    32  H    0.000001   0.000000   0.000000   0.000001  -0.000001   0.000003
    33  O    0.000710   0.000199  -0.000008   0.001669  -0.001680   0.049145
    34  H   -0.000190  -0.000076   0.000007  -0.000502  -0.000401  -0.011042
    35  H   -0.000048  -0.000009   0.000000   0.000073   0.000013  -0.009477
              25         26         27         28         29         30
     1  C   -0.012487  -0.063238  -0.087351   0.021647   0.002180  -0.044783
     2  C   -0.045860   0.037854   0.059753  -0.030801  -0.001818   0.034888
     3  C    0.058210   0.011083   0.015873  -0.005041  -0.000335   0.003678
     4  C    0.032577   0.046977  -0.001205  -0.000064   0.000036  -0.000821
     5  C   -0.018092  -0.015427   0.001603  -0.001170  -0.000230   0.000600
     6  C    0.007787   0.004615   0.028081  -0.005842  -0.000471   0.008111
     7  H    0.002335   0.000041   0.000000  -0.000003   0.000000  -0.000006
     8  H   -0.000749  -0.000313   0.000002  -0.000000   0.000000   0.000001
     9  H    0.000010  -0.000006  -0.000006   0.000001   0.000000  -0.000000
    10  H   -0.000015  -0.000028  -0.000006  -0.000022  -0.000004  -0.000146
    11  H    0.000021   0.000024  -0.004728   0.000701  -0.000017  -0.053215
    12  C   -0.002149  -0.004459  -0.027285   0.026655   0.000571  -0.018394
    13  H    0.000002  -0.000002   0.000557  -0.000719   0.000007   0.000466
    14  N    0.000168   0.000235   0.029996  -0.006493  -0.000688   0.003123
    15  N   -0.001482  -0.004269  -0.012331   0.012501   0.000488   0.000549
    16  P    0.002795  -0.002991  -0.006209   0.012371   0.000027  -0.000667
    17  O    0.000640   0.003219  -0.020773   0.061629   0.000830   0.000738
    18  O    0.005584   0.000318  -0.002345   0.002678  -0.000074  -0.000046
    19  H   -0.002259  -0.000423   0.000488  -0.000697  -0.000020   0.000039
    20  O   -0.000295  -0.000472  -0.001242   0.001306  -0.000059  -0.000064
    21  H    0.000018  -0.000010   0.000030   0.000049  -0.000020  -0.000000
    22  O   -0.014492  -0.015029   0.006540  -0.005063  -0.000838   0.000013
    23  H    0.020146   0.019878   0.001398  -0.001824  -0.000075   0.000005
    24  O    0.269853   0.233227  -0.001457   0.000430   0.000542   0.000068
    25  H    0.408862   0.008843  -0.000325   0.000181  -0.000021  -0.000040
    26  H    0.008843   0.375925  -0.002430   0.001056  -0.000536  -0.000007
    27  O   -0.000325  -0.002430   8.189294   0.257219   0.257148  -0.001488
    28  H    0.000181   0.001056   0.257219   0.337093  -0.005058  -0.011218
    29  H   -0.000021  -0.000536   0.257148  -0.005058   0.408943   0.001429
    30  O   -0.000040  -0.000007  -0.001488  -0.011218   0.001429   8.152881
    31  H    0.000019   0.000102   0.005395   0.009311  -0.001957   0.282774
    32  H   -0.000000  -0.000000   0.000517   0.000328  -0.000590   0.289936
    33  O   -0.013135  -0.057931   0.024508  -0.016758   0.001949  -0.000177
    34  H    0.001363   0.017243  -0.018449   0.009034   0.001760  -0.003451
    35  H    0.000624   0.015558  -0.002210   0.001543  -0.000073   0.000326
              31         32         33         34         35
     1  C    0.072503  -0.013065   0.220930   0.033424  -0.013559
     2  C   -0.036116   0.013264  -0.235876   0.014123   0.055339
     3  C   -0.004187   0.000024   0.015486  -0.001696  -0.008959
     4  C   -0.000034   0.000079  -0.060507   0.011230   0.010041
     5  C   -0.000631  -0.000389   0.065881  -0.028592  -0.032707
     6  C   -0.015667  -0.006178   0.002127  -0.009297   0.000519
     7  H    0.000001   0.000000   0.000114  -0.000008  -0.000052
     8  H   -0.000000   0.000000   0.000196  -0.000020  -0.000000
     9  H    0.000001  -0.000000  -0.000126   0.000014  -0.000328
    10  H   -0.000086   0.000043  -0.000384  -0.000302  -0.000387
    11  H    0.010600   0.001265   0.000196   0.000427  -0.000523
    12  C    0.010108   0.004752   0.009476  -0.002113  -0.001521
    13  H   -0.000214  -0.000032   0.000065  -0.000036  -0.000014
    14  N   -0.023504   0.003137  -0.010783  -0.006933  -0.004818
    15  N    0.001207  -0.000490   0.000302   0.003878  -0.000864
    16  P    0.000754  -0.000104   0.000339   0.001136  -0.000450
    17  O   -0.001764   0.000002   0.002322  -0.002967  -0.000536
    18  O    0.000041  -0.000000  -0.001345   0.000631   0.000092
    19  H    0.000014   0.000001   0.000710  -0.000190  -0.000048
    20  O    0.000043   0.000000   0.000199  -0.000076  -0.000009
    21  H    0.000001   0.000000  -0.000008   0.000007   0.000000
    22  O    0.000033   0.000001   0.001669  -0.000502   0.000073
    23  H   -0.000036  -0.000001  -0.001680  -0.000401   0.000013
    24  O    0.000005   0.000003   0.049145  -0.011042  -0.009477
    25  H    0.000019  -0.000000  -0.013135   0.001363   0.000624
    26  H    0.000102  -0.000000  -0.057931   0.017243   0.015558
    27  O    0.005395   0.000517   0.024508  -0.018449  -0.002210
    28  H    0.009311   0.000328  -0.016758   0.009034   0.001543
    29  H   -0.001957  -0.000590   0.001949   0.001760  -0.000073
    30  O    0.282774   0.289936  -0.000177  -0.003451   0.000326
    31  H    0.346961  -0.016950  -0.005941   0.005323   0.000440
    32  H   -0.016950   0.414579  -0.000134   0.000209   0.000057
    33  O   -0.005941  -0.000134   8.059917   0.257393   0.281431
    34  H    0.005323   0.000209   0.257393   0.368775   0.004477
    35  H    0.000440   0.000057   0.281431   0.004477   0.399413
 Mulliken charges:
               1
     1  C    0.110512
     2  C    0.309311
     3  C   -0.485634
     4  C   -0.099414
     5  C   -0.092787
     6  C   -0.573597
     7  H    0.163302
     8  H    0.132973
     9  H    0.134524
    10  H    0.152058
    11  H    0.367775
    12  C    0.019784
    13  H    0.187368
    14  N   -0.226249
    15  N   -0.282958
    16  P    1.220299
    17  O   -0.658081
    18  O   -0.608227
    19  H    0.392503
    20  O   -0.465857
    21  H    0.311898
    22  O   -0.625763
    23  H    0.459657
    24  O   -0.608316
    25  H    0.291366
    26  H    0.391374
    27  O   -0.688562
    28  H    0.335039
    29  H    0.336969
    30  O   -0.645101
    31  H    0.361453
    32  H    0.309735
    33  O   -0.589570
    34  H    0.355627
    35  H    0.306589
 Sum of Mulliken charges =  -0.00000
 Mulliken charges with hydrogens summed into heavy atoms:
               1
     1  C    0.110512
     2  C    0.309311
     3  C   -0.322332
     4  C    0.033559
     5  C    0.041737
     6  C   -0.421539
    12  C    0.207152
    14  N    0.141527
    15  N   -0.282958
    16  P    1.220299
    17  O   -0.658081
    18  O   -0.215724
    20  O   -0.153960
    22  O   -0.166106
    24  O    0.074424
    27  O   -0.016554
    30  O    0.026087
    33  O    0.072646
         Mulliken charges condensed to fragments:
      1     -0.183031
      2      0.026428
      3      0.074424
      4     -0.016554
      5      0.026087
      6      0.072646
 Electronic spatial extent (au):  <R**2>=         168546.3928
 Charge=             -0.0000 electrons
 Dipole moment (field-independent basis, Debye):
    X=             -1.2379    Y=              2.4056    Z=              2.1296  Tot=              3.4430
 Quadrupole moment (field-independent basis, Debye-Ang):
   XX=           -128.1175   YY=            -63.2143   ZZ=            -78.0125
   XY=              7.4042   XZ=              8.3696   YZ=             49.7389
 Traceless Quadrupole moment (field-independent basis, Debye-Ang):
   XX=            -38.3360   YY=             26.5671   ZZ=             11.7690
   XY=              7.4042   XZ=              8.3696   YZ=             49.7389
 Octapole moment (field-independent basis, Debye-Ang**2):
  XXX=          -3661.4223  YYY=          -2468.8335  ZZZ=          -3033.1392  XYY=           -895.2663
  XXY=          -1024.8334  XXZ=          -1110.6921  XZZ=          -1026.8471  YZZ=           -391.2448
  YYZ=           -370.3142  XYZ=            318.9026
 Hexadecapole moment (field-independent basis, Debye-Ang**3):
 XXXX=         -76712.1979 YYYY=         -53972.8935 ZZZZ=         -67562.3375 XXXY=         -32853.7731
 XXXZ=         -35818.1118 YYYX=         -29083.4057 YYYZ=         -22541.7130 ZZZX=         -35275.2666
 ZZZY=         -25121.7998 XXYY=         -20820.1240 XXZZ=         -24384.0368 YYZZ=         -12705.2318
 XXYZ=          -8335.8287 YYXZ=          -6574.7408 ZZXY=          -7052.0962
 N-N= 1.700276843427D+03 E-N=-6.534169536113D+03  KE= 1.325418138139D+03
 No NMR shielding tensors so no spin-rotation constants.
 Leave Link  601 at Thu May 19 16:30:28 2022, MaxMem= 13421772800 cpu:               3.8 elap:               0.2
 (Enter /data0/home/wuhanyu/software/g16/l122.exe)
 CPIOFr:  IOpCl= 0 IRwI=-1 IRwCP=  731 ICalc= -1 LCPTot=      545025 Len1MO=     1432502 IndFrg=      545025
 CPIOFr:  IOpCl= 0 IRwI=-1 IRwCP=  731 ICalc=  0 LCPTot=      545025 Len1MO=     1432502 IndFrg=     1977527
 Counterpoise: doing calculation for fragment   1 using the basis set of the full-system, NewBq=T
 Leave Link  122 at Thu May 19 16:30:28 2022, MaxMem= 13421772800 cpu:               0.5 elap:               0.0
 (Enter /data0/home/wuhanyu/software/g16/l301.exe)
 Basis read from rwf:  (5D, 7F)
 No pseudopotential information found on rwf file.
   596 basis functions,   906 primitive gaussians,   632 cartesian basis functions
    31 alpha electrons       31 beta electrons
       nuclear repulsion energy       401.4613013505 Hartrees.
 IExCor= 4336 DFT=T Ex+Corr=M062X ExCW=0 ScaHFX=  0.540000
 ScaDFX=  1.000000  1.000000  1.000000  1.000000 ScalE2=  1.000000  1.000000
 IRadAn=      5 IRanWt=     -1 IRanGd=            0 ICorTp=0 IEmpDi=131
 NAtoms=   35 NActive=   35 NUniq=   35 SFac= 1.00D+00 NAtFMM=   60 NAOKFM=F Big=F
 Integral buffers will be    131072 words long.
 Raffenetti 2 integral format.
 Two-electron integral symmetry is turned off.
 R6Disp:  Grimme-D3 Dispersion energy=       -0.0002903571 Hartrees.
 Nuclear repulsion after empirical dispersion term =      401.4610109933 Hartrees.
 No density basis found on file   718.
 Leave Link  301 at Thu May 19 16:30:28 2022, MaxMem= 13421772800 cpu:               1.2 elap:               0.1
 (Enter /data0/home/wuhanyu/software/g16/l302.exe)
 NPDir=0 NMtPBC=     1 NCelOv=     1 NCel=       1 NClECP=     1 NCelD=      1
         NCelK=      1 NCelE2=     1 NClLst=     1 CellRange=     0.0.
 One-electron integrals computed using PRISM.
 NBasis=   596 RedAO= T EigKep=  1.14D-06  NBF=   596
 NBsUse=   595 1.00D-06 EigRej=  8.80D-07 NBFU=   595
 Precomputing XC quadrature grid using
 IXCGrd= 4 IRadAn=           5 IRanWt=          -1 IRanGd=           0 AccXCQ= 0.00D+00.
 Generated NRdTot=       0 NPtTot=           0 NUsed=           0 NTot=          32
 NSgBfM=   630   629   629   630   630 MxSgAt=    35 MxSgA2=    35.
 Leave Link  302 at Thu May 19 16:30:29 2022, MaxMem= 13421772800 cpu:              14.7 elap:               0.7
 (Enter /data0/home/wuhanyu/software/g16/l303.exe)
 DipDrv:  MaxL=1.
 Leave Link  303 at Thu May 19 16:30:29 2022, MaxMem= 13421772800 cpu:               1.3 elap:               0.1
 (Enter /data0/home/wuhanyu/software/g16/l401.exe)
 ExpMin= 3.48D-02 ExpMax= 7.75D+04 ExpMxC= 2.65D+03 IAcc=3 IRadAn=         5 AccDes= 0.00D+00
 Harris functional with IExCor= 1009 and IRadAn=       5 diagonalized for initial guess.
 HarFok:  IExCor= 1009 AccDes= 0.00D+00 IRadAn=         5 IDoV= 1 UseB2=F ITyADJ=14
 ICtDFT=  3500011 ScaDFX=  1.000000  1.000000  1.000000  1.000000
 FoFCou: FMM=F IPFlag=           0 FMFlag=      100000 FMFlg1=           0
         NFxFlg=           0 DoJE=T BraDBF=F KetDBF=T FulRan=T
         wScrn=  0.000000 ICntrl=       500 IOpCl=  0 I1Cent=   200000004 NGrid=           0
         NMat0=    1 NMatS0=      1 NMatT0=    0 NMatD0=    1 NMtDS0=    0 NMtDT0=    0
 Symmetry not used in FoFCou.
 Harris En= -379.614454941665    
 JPrj=0 DoOrth=F DoCkMO=F.
 Leave Link  401 at Thu May 19 16:30:31 2022, MaxMem= 13421772800 cpu:              55.1 elap:               2.5
 (Enter /data0/home/wuhanyu/software/g16/l502.exe)
 Two-electron integral symmetry not used.
 Closed shell SCF:
 Using DIIS extrapolation, IDIIS=  1040.
 NGot= 13421772800 LenX= 13420955631 LenY= 13420555575
 Requested convergence on RMS density matrix=1.00D-08 within 128 cycles.
 Requested convergence on MAX density matrix=1.00D-06.
 Requested convergence on             energy=1.00D-06.
 No special actions if energy rises.
 Fock matrices will be formed incrementally for  20 cycles.

 Cycle   1  Pass 1  IDiag  1:
 FoFJK:  IHMeth= 1 ICntrl=       0 DoSepK=F KAlg= 0 I1Cent=           0 FoldK=F
 IRaf= 840000000 NMat=       1 IRICut=       1 DoRegI=T DoRafI=F ISym2E= 0 IDoP0=0 IntGTp=1.
 FoFCou: FMM=F IPFlag=           0 FMFlag=      100000 FMFlg1=           0
         NFxFlg=           0 DoJE=F BraDBF=F KetDBF=F FulRan=T
         wScrn=  0.000000 ICntrl=         0 IOpCl=  0 I1Cent=           0 NGrid=           0
         NMat0=    1 NMatS0=      1 NMatT0=    0 NMatD0=    1 NMtDS0=    0 NMtDT0=    0
 Symmetry not used in FoFCou.
 E= -379.610980399027    
 DIIS: error= 1.35D-02 at cycle   1 NSaved=   1.
 NSaved= 1 IEnMin= 1 EnMin= -379.610980399027     IErMin= 1 ErrMin= 1.35D-02
 ErrMax= 1.35D-02  0.00D+00 EMaxC= 1.00D-01 BMatC= 2.49D-01 BMatP= 2.49D-01
 IDIUse=3 WtCom= 8.65D-01 WtEn= 1.35D-01
 Coeff-Com:  0.100D+01
 Coeff-En:   0.100D+01
 Coeff:      0.100D+01
 Gap=     0.306 Goal=   None    Shift=    0.000
 GapD=    0.306 DampG=1.000 DampE=0.500 DampFc=0.5000 IDamp=-1.
 Damping current iteration by 5.00D-01
 RMSDP=7.62D-03 MaxDP=2.24D+00              OVMax= 2.15D-01

 Cycle   2  Pass 1  IDiag  1:
 RMSU=  3.09D-03    CP:  1.19D+00
 E= -379.707717707243     Delta-E=       -0.096737308216 Rises=F Damp=T
 DIIS: error= 4.71D-03 at cycle   2 NSaved=   2.
 NSaved= 2 IEnMin= 2 EnMin= -379.707717707243     IErMin= 2 ErrMin= 4.71D-03
 ErrMax= 4.71D-03  0.00D+00 EMaxC= 1.00D-01 BMatC= 2.64D-02 BMatP= 2.49D-01
 IDIUse=3 WtCom= 9.53D-01 WtEn= 4.71D-02
 Coeff-Com: -0.880D-01 0.109D+01
 Coeff-En:   0.000D+00 0.100D+01
 Coeff:     -0.838D-01 0.108D+01
 Gap=     0.297 Goal=   None    Shift=    0.000
 RMSDP=1.98D-03 MaxDP=5.16D-01 DE=-9.67D-02 OVMax= 1.78D-01

 Cycle   3  Pass 1  IDiag  1:
 RMSU=  1.47D-03    CP:  1.09D+00  8.05D-01
 E= -379.800181407985     Delta-E=       -0.092463700742 Rises=F Damp=F
 DIIS: error= 4.12D-03 at cycle   3 NSaved=   3.
 NSaved= 3 IEnMin= 3 EnMin= -379.800181407985     IErMin= 3 ErrMin= 4.12D-03
 ErrMax= 4.12D-03  0.00D+00 EMaxC= 1.00D-01 BMatC= 1.81D-02 BMatP= 2.64D-02
 IDIUse=3 WtCom= 9.59D-01 WtEn= 4.12D-02
 Coeff-Com: -0.137D+00 0.539D+00 0.598D+00
 Coeff-En:   0.000D+00 0.000D+00 0.100D+01
 Coeff:     -0.132D+00 0.517D+00 0.615D+00
 Gap=     0.279 Goal=   None    Shift=    0.000
 RMSDP=8.22D-04 MaxDP=2.18D-01 DE=-9.25D-02 OVMax= 5.99D-02

 Cycle   4  Pass 1  IDiag  1:
 RMSU=  5.98D-04    CP:  1.04D+00  8.52D-01  8.72D-01
 E= -379.815539966506     Delta-E=       -0.015358558521 Rises=F Damp=F
 DIIS: error= 1.45D-03 at cycle   4 NSaved=   4.
 NSaved= 4 IEnMin= 4 EnMin= -379.815539966506     IErMin= 4 ErrMin= 1.45D-03
 ErrMax= 1.45D-03  0.00D+00 EMaxC= 1.00D-01 BMatC= 2.32D-03 BMatP= 1.81D-02
 IDIUse=3 WtCom= 9.85D-01 WtEn= 1.45D-02
 Coeff-Com: -0.592D-01 0.151D+00 0.322D+00 0.586D+00
 Coeff-En:   0.000D+00 0.000D+00 0.495D-01 0.950D+00
 Coeff:     -0.583D-01 0.149D+00 0.318D+00 0.591D+00
 Gap=     0.277 Goal=   None    Shift=    0.000
 RMSDP=2.86D-04 MaxDP=7.50D-02 DE=-1.54D-02 OVMax= 1.27D-02

 Cycle   5  Pass 1  IDiag  1:
 RMSU=  1.68D-04    CP:  1.04D+00  8.02D-01  8.91D-01  7.61D-01
 E= -379.817522573293     Delta-E=       -0.001982606787 Rises=F Damp=F
 DIIS: error= 2.89D-04 at cycle   5 NSaved=   5.
 NSaved= 5 IEnMin= 5 EnMin= -379.817522573293     IErMin= 5 ErrMin= 2.89D-04
 ErrMax= 2.89D-04  0.00D+00 EMaxC= 1.00D-01 BMatC= 9.50D-05 BMatP= 2.32D-03
 IDIUse=3 WtCom= 9.97D-01 WtEn= 2.89D-03
 Coeff-Com: -0.204D-01 0.433D-01 0.115D+00 0.266D+00 0.597D+00
 Coeff-En:   0.000D+00 0.000D+00 0.000D+00 0.000D+00 0.100D+01
 Coeff:     -0.203D-01 0.432D-01 0.114D+00 0.265D+00 0.598D+00
 Gap=     0.275 Goal=   None    Shift=    0.000
 RMSDP=5.99D-05 MaxDP=8.72D-03 DE=-1.98D-03 OVMax= 4.01D-03

 Cycle   6  Pass 1  IDiag  1:
 RMSU=  4.49D-05    CP:  1.04D+00  8.09D-01  9.01D-01  8.00D-01  8.91D-01
 E= -379.817610083368     Delta-E=       -0.000087510075 Rises=F Damp=F
 DIIS: error= 1.13D-04 at cycle   6 NSaved=   6.
 NSaved= 6 IEnMin= 6 EnMin= -379.817610083368     IErMin= 6 ErrMin= 1.13D-04
 ErrMax= 1.13D-04  0.00D+00 EMaxC= 1.00D-01 BMatC= 1.15D-05 BMatP= 9.50D-05
 IDIUse=3 WtCom= 9.99D-01 WtEn= 1.13D-03
 Coeff-Com: -0.285D-02 0.353D-02 0.180D-01 0.534D-01 0.287D+00 0.641D+00
 Coeff-En:   0.000D+00 0.000D+00 0.000D+00 0.000D+00 0.267D-01 0.973D+00
 Coeff:     -0.285D-02 0.353D-02 0.180D-01 0.533D-01 0.287D+00 0.641D+00
 Gap=     0.275 Goal=   None    Shift=    0.000
 RMSDP=3.66D-05 MaxDP=8.68D-03 DE=-8.75D-05 OVMax= 1.47D-03

 Cycle   7  Pass 1  IDiag  1:
 RMSU=  1.80D-05    CP:  1.03D+00  8.02D-01  9.04D-01  8.04D-01  9.35D-01
                    CP:  1.02D+00
 E= -379.817622865889     Delta-E=       -0.000012782521 Rises=F Damp=F
 DIIS: error= 2.74D-05 at cycle   7 NSaved=   7.
 NSaved= 7 IEnMin= 7 EnMin= -379.817622865889     IErMin= 7 ErrMin= 2.74D-05
 ErrMax= 2.74D-05  0.00D+00 EMaxC= 1.00D-01 BMatC= 4.16D-07 BMatP= 1.15D-05
 IDIUse=1 WtCom= 1.00D+00 WtEn= 0.00D+00
 Coeff-Com:  0.151D-02-0.370D-02-0.651D-02-0.170D-01-0.428D-02 0.965D-01
 Coeff-Com:  0.933D+00
 Coeff:      0.151D-02-0.370D-02-0.651D-02-0.170D-01-0.428D-02 0.965D-01
 Coeff:      0.933D+00
 Gap=     0.275 Goal=   None    Shift=    0.000
 RMSDP=1.37D-05 MaxDP=3.37D-03 DE=-1.28D-05 OVMax= 4.72D-04

 Cycle   8  Pass 1  IDiag  1:
 RMSU=  2.88D-06    CP:  1.03D+00  7.99D-01  9.05D-01  8.05D-01  9.59D-01
                    CP:  1.10D+00  1.16D+00
 E= -379.817623535956     Delta-E=       -0.000000670066 Rises=F Damp=F
 DIIS: error= 1.74D-05 at cycle   8 NSaved=   8.
 NSaved= 8 IEnMin= 8 EnMin= -379.817623535956     IErMin= 8 ErrMin= 1.74D-05
 ErrMax= 1.74D-05  0.00D+00 EMaxC= 1.00D-01 BMatC= 1.80D-07 BMatP= 4.16D-07
 IDIUse=1 WtCom= 1.00D+00 WtEn= 0.00D+00
 Coeff-Com:  0.110D-02-0.228D-02-0.503D-02-0.149D-01-0.329D-01-0.205D-01
 Coeff-Com:  0.496D+00 0.579D+00
 Coeff:      0.110D-02-0.228D-02-0.503D-02-0.149D-01-0.329D-01-0.205D-01
 Coeff:      0.496D+00 0.579D+00
 Gap=     0.275 Goal=   None    Shift=    0.000
 RMSDP=2.49D-06 MaxDP=3.69D-04 DE=-6.70D-07 OVMax= 2.19D-04

 Cycle   9  Pass 1  IDiag  1:
 RMSU=  1.48D-06    CP:  1.03D+00  7.99D-01  9.06D-01  8.06D-01  9.60D-01
                    CP:  1.12D+00  1.20D+00  1.10D+00
 E= -379.817623757119     Delta-E=       -0.000000221163 Rises=F Damp=F
 DIIS: error= 5.30D-06 at cycle   9 NSaved=   9.
 NSaved= 9 IEnMin= 9 EnMin= -379.817623757119     IErMin= 9 ErrMin= 5.30D-06
 ErrMax= 5.30D-06  0.00D+00 EMaxC= 1.00D-01 BMatC= 8.97D-09 BMatP= 1.80D-07
 IDIUse=1 WtCom= 1.00D+00 WtEn= 0.00D+00
 Coeff-Com: -0.556D-04 0.172D-03 0.433D-03 0.393D-03-0.266D-02-0.149D-01
 Coeff-Com: -0.667D-01 0.110D+00 0.974D+00
 Coeff:     -0.556D-04 0.172D-03 0.433D-03 0.393D-03-0.266D-02-0.149D-01
 Coeff:     -0.667D-01 0.110D+00 0.974D+00
 Gap=     0.275 Goal=   None    Shift=    0.000
 RMSDP=1.28D-06 MaxDP=2.87D-04 DE=-2.21D-07 OVMax= 9.40D-05

 Cycle  10  Pass 1  IDiag  1:
 RMSU=  4.24D-07    CP:  1.03D+00  7.99D-01  9.06D-01  8.05D-01  9.60D-01
                    CP:  1.12D+00  1.21D+00  1.30D+00  1.16D+00
[...]
 Charge=             -0.0000 electrons
 Dipole moment (field-independent basis, Debye):
    X=             -1.6847    Y=             -0.4938    Z=             -1.1270  Tot=              2.0861
 Quadrupole moment (field-independent basis, Debye-Ang):
   XX=            -32.4571   YY=            -19.1019   ZZ=            -31.5592
   XY=            -24.9109   XZ=            -29.1539   YZ=            -18.2256
 Traceless Quadrupole moment (field-independent basis, Debye-Ang):
   XX=             -4.7510   YY=              8.6041   ZZ=             -3.8531
   XY=            -24.9109   XZ=            -29.1539   YZ=            -18.2256
 Octapole moment (field-independent basis, Debye-Ang**2):
  XXX=           -456.2455  YYY=           -477.8283  ZZZ=           -643.2842  XYY=           -413.3219
  XXY=           -433.5484  XXZ=           -457.3490  XZZ=           -492.8103  YZZ=           -422.8835
  YYZ=           -358.7159  XYZ=           -396.2517
 Hexadecapole moment (field-independent basis, Debye-Ang**3):
 XXXX=          -5592.8373 YYYY=          -9852.9669 ZZZZ=         -11411.8816 XXXY=          -5884.2078
 XXXZ=          -5964.6922 YYYX=          -7056.7919 YYYZ=          -7027.7567 ZZZX=          -8010.3872
 ZZZY=          -8128.8385 XXYY=          -6198.5360 XXZZ=          -6589.2609 YYZZ=          -6570.7240
 XXYZ=          -5935.9099 YYXZ=          -5981.0728 ZZXY=          -6370.8500
 N-N= 9.144559589585D+00 E-N=-1.991490719796D+02  KE= 7.620988254159D+01
 No NMR shielding tensors so no spin-rotation constants.
 Leave Link  601 at Thu May 19 16:43:53 2022, MaxMem= 13421772800 cpu:               1.7 elap:               0.1
 (Enter /data0/home/wuhanyu/software/g16/l122.exe)
 CPIOFr:  IOpCl= 0 IRwI=-1 IRwCP=  731 ICalc= 11 LCPTot=      545025 Len1MO=     1432502 IndFrg=    17735049
 Counterpoise: doing calculation for fragment   6 using the basis set of the fragment.
 Leave Link  122 at Thu May 19 16:43:53 2022, MaxMem= 13421772800 cpu:               0.3 elap:               0.0
 (Enter /data0/home/wuhanyu/software/g16/l301.exe)
 Basis read from rwf:  (5D, 7F)
 No pseudopotential information found on rwf file.
    39 basis functions,    58 primitive gaussians,    41 cartesian basis functions
     5 alpha electrons        5 beta electrons
       nuclear repulsion energy         9.1270167134 Hartrees.
 IExCor= 4336 DFT=T Ex+Corr=M062X ExCW=0 ScaHFX=  0.540000
 ScaDFX=  1.000000  1.000000  1.000000  1.000000 ScalE2=  1.000000  1.000000
 IRadAn=      5 IRanWt=     -1 IRanGd=            0 ICorTp=0 IEmpDi=131
 NAtoms=   35 NActive=    3 NUniq=    3 SFac= 1.00D+00 NAtFMM=   60 NAOKFM=F Big=F
 Integral buffers will be    131072 words long.
 Raffenetti 2 integral format.
 Two-electron integral symmetry is turned off.
 R6Disp:  Grimme-D3 Dispersion energy=       -0.0000000079 Hartrees.
 Nuclear repulsion after empirical dispersion term =        9.1270167055 Hartrees.
 No density basis found on file   718.
 Leave Link  301 at Thu May 19 16:43:54 2022, MaxMem= 13421772800 cpu:               1.2 elap:               0.1
 (Enter /data0/home/wuhanyu/software/g16/l302.exe)
 NPDir=0 NMtPBC=     1 NCelOv=     1 NCel=       1 NClECP=     1 NCelD=      1
         NCelK=      1 NCelE2=     1 NClLst=     1 CellRange=     0.0.
 One-electron integrals computed using PRISM.
 NBasis=    39 RedAO= T EigKep=  3.06D-03  NBF=    39
 NBsUse=    39 1.00D-06 EigRej= -1.00D+00 NBFU=    39
 Precomputing XC quadrature grid using
 IXCGrd= 4 IRadAn=           5 IRanWt=          -1 IRanGd=           0 AccXCQ= 0.00D+00.
 Generated NRdTot=       0 NPtTot=           0 NUsed=           0 NTot=          32
 NSgBfM=    41    41    41    41    41 MxSgAt=     3 MxSgA2=     3.
 Leave Link  302 at Thu May 19 16:43:54 2022, MaxMem= 13421772800 cpu:               2.2 elap:               0.1
 (Enter /data0/home/wuhanyu/software/g16/l303.exe)
 DipDrv:  MaxL=1.
 Leave Link  303 at Thu May 19 16:43:54 2022, MaxMem= 13421772800 cpu:               0.4 elap:               0.0
 (Enter /data0/home/wuhanyu/software/g16/l401.exe)
 ExpMin= 8.45D-02 ExpMax= 8.59D+03 ExpMxC= 1.30D+03 IAcc=3 IRadAn=         5 AccDes= 0.00D+00
 Harris functional with IExCor= 1009 and IRadAn=       5 diagonalized for initial guess.
 HarFok:  IExCor= 1009 AccDes= 0.00D+00 IRadAn=         5 IDoV= 1 UseB2=F ITyADJ=14
 ICtDFT=  3500011 ScaDFX=  1.000000  1.000000  1.000000  1.000000
 FoFCou: FMM=F IPFlag=           0 FMFlag=      100000 FMFlg1=           0
         NFxFlg=           0 DoJE=T BraDBF=F KetDBF=T FulRan=T
         wScrn=  0.000000 ICntrl=       500 IOpCl=  0 I1Cent=   200000004 NGrid=           0
         NMat0=    1 NMatS0=      1 NMatT0=    0 NMatD0=    1 NMtDS0=    0 NMtDT0=    0
 Symmetry not used in FoFCou.
 Harris En= -76.4169588837766    
 JPrj=0 DoOrth=F DoCkMO=F.
 Leave Link  401 at Thu May 19 16:43:54 2022, MaxMem= 13421772800 cpu:               2.8 elap:               0.1
 (Enter /data0/home/wuhanyu/software/g16/l502.exe)
 Keep R1 ints in memory in canonical form, NReq=19315570.
 FoFCou: FMM=F IPFlag=           0 FMFlag=           0 FMFlg1=           0
         NFxFlg=           0 DoJE=F BraDBF=F KetDBF=F FulRan=T
         wScrn=  0.000000 ICntrl=       600 IOpCl=  0 I1Cent=           0 NGrid=           0
         NMat0=    1 NMatS0=    780 NMatT0=    0 NMatD0=    1 NMtDS0=    0 NMtDT0=    0
 Symmetry not used in FoFCou.
 Two-electron integral symmetry not used.
 Closed shell SCF:
 Using DIIS extrapolation, IDIIS=  1040.
 NGot= 13421772800 LenX= 13421462484 LenY= 13421460362
 Requested convergence on RMS density matrix=1.00D-08 within 128 cycles.
 Requested convergence on MAX density matrix=1.00D-06.
 Requested convergence on             energy=1.00D-06.
 No special actions if energy rises.
 Integral accuracy reduced to 1.0D-05 until final iterations.

 Cycle   1  Pass 0  IDiag  1:
 E= -76.3461679135458    
 DIIS: error= 7.06D-02 at cycle   1 NSaved=   1.
 NSaved= 1 IEnMin= 1 EnMin= -76.3461679135458     IErMin= 1 ErrMin= 7.06D-02
 ErrMax= 7.06D-02  0.00D+00 EMaxC= 1.00D-01 BMatC= 1.21D-01 BMatP= 1.21D-01
 IDIUse=3 WtCom= 2.94D-01 WtEn= 7.06D-01
 Coeff-Com:  0.100D+01
 Coeff-En:   0.100D+01
 Coeff:      0.100D+01
 Gap=     0.325 Goal=   None    Shift=    0.000
 GapD=    0.325 DampG=1.000 DampE=0.500 DampFc=0.5000 IDamp=-1.
 Damping current iteration by 5.00D-01
 RMSDP=7.87D-03 MaxDP=1.02D-01              OVMax= 1.69D-01

 Cycle   2  Pass 0  IDiag  1:
 E= -76.3778538376416     Delta-E=       -0.031685924096 Rises=F Damp=T
 DIIS: error= 1.16D-02 at cycle   2 NSaved=   2.
 NSaved= 2 IEnMin= 2 EnMin= -76.3778538376416     IErMin= 2 ErrMin= 1.16D-02
 ErrMax= 1.16D-02  0.00D+00 EMaxC= 1.00D-01 BMatC= 4.79D-03 BMatP= 1.21D-01
 IDIUse=3 WtCom= 8.84D-01 WtEn= 1.16D-01
 Coeff-Com:  0.806D-01 0.919D+00
 Coeff-En:   0.185D+00 0.815D+00
 Coeff:      0.927D-01 0.907D+00
 Gap=     0.458 Goal=   None    Shift=    0.000
 RMSDP=9.32D-04 MaxDP=1.38D-02 DE=-3.17D-02 OVMax= 1.01D-01

 Cycle   3  Pass 0  IDiag  1:
 E= -76.4218861756061     Delta-E=       -0.044032337964 Rises=F Damp=F
 DIIS: error= 2.18D-03 at cycle   3 NSaved=   3.
 NSaved= 3 IEnMin= 3 EnMin= -76.4218861756061     IErMin= 3 ErrMin= 2.18D-03
 ErrMax= 2.18D-03  0.00D+00 EMaxC= 1.00D-01 BMatC= 9.09D-05 BMatP= 4.79D-03
 IDIUse=3 WtCom= 9.78D-01 WtEn= 2.18D-02
 Coeff-Com: -0.199D-01 0.397D-01 0.980D+00
 Coeff-En:   0.000D+00 0.000D+00 0.100D+01
 Coeff:     -0.195D-01 0.388D-01 0.981D+00
 Gap=     0.463 Goal=   None    Shift=    0.000
 RMSDP=1.14D-04 MaxDP=1.01D-03 DE=-4.40D-02 OVMax= 3.29D-03

 Cycle   4  Pass 0  IDiag  1:
 E= -76.4219634463343     Delta-E=       -0.000077270728 Rises=F Damp=F
 DIIS: error= 4.09D-04 at cycle   4 NSaved=   4.
 NSaved= 4 IEnMin= 4 EnMin= -76.4219634463343     IErMin= 4 ErrMin= 4.09D-04
 ErrMax= 4.09D-04  0.00D+00 EMaxC= 1.00D-01 BMatC= 3.27D-06 BMatP= 9.09D-05
 IDIUse=3 WtCom= 9.96D-01 WtEn= 4.09D-03
 Coeff-Com: -0.190D-02-0.213D-02 0.163D+00 0.841D+00
 Coeff-En:   0.000D+00 0.000D+00 0.000D+00 0.100D+01
 Coeff:     -0.189D-02-0.212D-02 0.163D+00 0.841D+00
 Gap=     0.463 Goal=   None    Shift=    0.000
 RMSDP=2.19D-05 MaxDP=3.51D-04 DE=-7.73D-05 OVMax= 5.27D-04

 Cycle   5  Pass 0  IDiag  1:
 E= -76.4219654542523     Delta-E=       -0.000002007918 Rises=F Damp=F
 DIIS: error= 8.82D-05 at cycle   5 NSaved=   5.
 NSaved= 5 IEnMin= 5 EnMin= -76.4219654542523     IErMin= 5 ErrMin= 8.82D-05
 ErrMax= 8.82D-05  0.00D+00 EMaxC= 1.00D-01 BMatC= 8.17D-08 BMatP= 3.27D-06
 IDIUse=1 WtCom= 1.00D+00 WtEn= 0.00D+00
 Coeff-Com:  0.116D-02-0.177D-02-0.361D-01-0.669D-01 0.110D+01
 Coeff:      0.116D-02-0.177D-02-0.361D-01-0.669D-01 0.110D+01
 Gap=     0.463 Goal=   None    Shift=    0.000
 RMSDP=8.89D-06 MaxDP=1.03D-04 DE=-2.01D-06 OVMax= 1.99D-04

 Initial convergence to 1.0D-05 achieved.  Increase integral accuracy.
 Cycle   6  Pass 1  IDiag  1:
 E= -76.4219530010289     Delta-E=        0.000012453223 Rises=F Damp=F
 DIIS: error= 1.89D-05 at cycle   1 NSaved=   1.
 NSaved= 1 IEnMin= 1 EnMin= -76.4219530010289     IErMin= 1 ErrMin= 1.89D-05
 ErrMax= 1.89D-05  0.00D+00 EMaxC= 1.00D-01 BMatC= 1.99D-08 BMatP= 1.99D-08
 IDIUse=1 WtCom= 1.00D+00 WtEn= 0.00D+00
 Coeff-Com:  0.100D+01
 Coeff:      0.100D+01
 Gap=     0.463 Goal=   None    Shift=    0.000
 RMSDP=8.89D-06 MaxDP=1.03D-04 DE= 1.25D-05 OVMax= 6.22D-05

 Cycle   7  Pass 1  IDiag  1:
 E= -76.4219530193106     Delta-E=       -0.000000018282 Rises=F Damp=F
 DIIS: error= 1.30D-05 at cycle   2 NSaved=   2.
 NSaved= 2 IEnMin= 2 EnMin= -76.4219530193106     IErMin= 2 ErrMin= 1.30D-05
 ErrMax= 1.30D-05  0.00D+00 EMaxC= 1.00D-01 BMatC= 2.48D-09 BMatP= 1.99D-08
 IDIUse=1 WtCom= 1.00D+00 WtEn= 0.00D+00
 Coeff-Com:  0.100D+00 0.900D+00
 Coeff:      0.100D+00 0.900D+00
 Gap=     0.463 Goal=   None    Shift=    0.000
 RMSDP=1.06D-06 MaxDP=1.70D-05 DE=-1.83D-08 OVMax= 2.81D-05

 Cycle   8  Pass 1  IDiag  1:
 E= -76.4219530200227     Delta-E=       -0.000000000712 Rises=F Damp=F
 DIIS: error= 8.86D-06 at cycle   3 NSaved=   3.
 NSaved= 3 IEnMin= 3 EnMin= -76.4219530200227     IErMin= 3 ErrMin= 8.86D-06
 ErrMax= 8.86D-06  0.00D+00 EMaxC= 1.00D-01 BMatC= 2.08D-09 BMatP= 2.48D-09
 IDIUse=1 WtCom= 1.00D+00 WtEn= 0.00D+00
 Coeff-Com: -0.531D-01 0.493D+00 0.561D+00
 Coeff:     -0.531D-01 0.493D+00 0.561D+00
 Gap=     0.463 Goal=   None    Shift=    0.000
 RMSDP=5.21D-07 MaxDP=6.72D-06 DE=-7.12D-10 OVMax= 1.27D-05

 Cycle   9  Pass 1  IDiag  1:
 E= -76.4219530214080     Delta-E=       -0.000000001385 Rises=F Damp=F
 DIIS: error= 6.34D-07 at cycle   4 NSaved=   4.
 NSaved= 4 IEnMin= 4 EnMin= -76.4219530214080     IErMin= 4 ErrMin= 6.34D-07
 ErrMax= 6.34D-07  0.00D+00 EMaxC= 1.00D-01 BMatC= 7.04D-12 BMatP= 2.08D-09
 IDIUse=1 WtCom= 1.00D+00 WtEn= 0.00D+00
 Coeff-Com: -0.526D-04-0.578D-01-0.489D-01 0.111D+01
 Coeff:     -0.526D-04-0.578D-01-0.489D-01 0.111D+01
 Gap=     0.463 Goal=   None    Shift=    0.000
 RMSDP=1.30D-07 MaxDP=9.49D-07 DE=-1.39D-09 OVMax= 2.43D-06

 Cycle  10  Pass 1  IDiag  1:
 E= -76.4219530214244     Delta-E=       -0.000000000016 Rises=F Damp=F
 DIIS: error= 1.20D-07 at cycle   5 NSaved=   5.
 NSaved= 5 IEnMin= 5 EnMin= -76.4219530214244     IErMin= 5 ErrMin= 1.20D-07
 ErrMax= 1.20D-07  0.00D+00 EMaxC= 1.00D-01 BMatC= 4.63D-13 BMatP= 7.04D-12
 IDIUse=1 WtCom= 1.00D+00 WtEn= 0.00D+00
 Coeff-Com:  0.323D-02-0.371D-01-0.366D-01 0.135D+00 0.936D+00
 Coeff:      0.323D-02-0.371D-01-0.366D-01 0.135D+00 0.936D+00
 Gap=     0.463 Goal=   None    Shift=    0.000
 RMSDP=3.42D-08 MaxDP=2.21D-07 DE=-1.64D-11 OVMax= 5.84D-07

 Cycle  11  Pass 1  IDiag  1:
 E= -76.4219530214252     Delta-E=       -0.000000000001 Rises=F Damp=F
 DIIS: error= 2.37D-08 at cycle   6 NSaved=   6.
 NSaved= 6 IEnMin= 6 EnMin= -76.4219530214252     IErMin= 6 ErrMin= 2.37D-08
 ErrMax= 2.37D-08  0.00D+00 EMaxC= 1.00D-01 BMatC= 1.16D-14 BMatP= 4.63D-13
 IDIUse=1 WtCom= 1.00D+00 WtEn= 0.00D+00
 Coeff-Com:  0.117D-03-0.351D-04 0.112D-02-0.283D-01-0.110D-01 0.104D+01
 Coeff:      0.117D-03-0.351D-04 0.112D-02-0.283D-01-0.110D-01 0.104D+01
 Gap=     0.463 Goal=   None    Shift=    0.000
 RMSDP=6.46D-09 MaxDP=5.16D-08 DE=-7.82D-13 OVMax= 1.27D-07

 SCF Done:  E(RM062X) =  -76.4219530214     A.U. after   11 cycles
            NFock= 11  Conv=0.65D-08     -V/T= 2.0029
 KE= 7.620372399209D+01 PE=-1.991103199168D+02 EE= 3.735762619777D+01
 Leave Link  502 at Thu May 19 16:43:54 2022, MaxMem= 13421772800 cpu:               8.8 elap:               0.4
 (Enter /data0/home/wuhanyu/software/g16/l601.exe)
 Copying SCF densities to generalized density rwf, IOpCl= 0 IROHF=0.

 **********************************************************************

            Population analysis using the SCF density.

 **********************************************************************

 Alpha  occ. eigenvalues --  -19.62522  -1.13403  -0.61038  -0.47371  -0.39985
 Alpha virt. eigenvalues --    0.06345   0.13361   0.17375   0.17948   0.18956
 Alpha virt. eigenvalues --    0.23191   0.51559   0.53397   0.97780   1.00154
 Alpha virt. eigenvalues --    1.06057   1.19138   1.19808   1.32729   1.33729
 Alpha virt. eigenvalues --    1.69322   1.74127   1.76055   2.08138   2.09192
 Alpha virt. eigenvalues --    2.34868   2.43421   2.54244   2.89113   3.01233
 Alpha virt. eigenvalues --    5.05720   5.47676   5.94168   6.78161   6.80369
 Alpha virt. eigenvalues --    6.86863   6.91559   7.09448  49.96157
          Condensed to atoms (all electrons):
              33         34         35
    33  O    7.913040   0.321820   0.323788
    34  H    0.321820   0.422790  -0.024826
    35  H    0.323788  -0.024826   0.422606
 Mulliken charges:
               1
     1  C    0.000000
     2  C    0.000000
     3  C    0.000000
     4  C    0.000000
     5  C    0.000000
     6  C    0.000000
     7  H    0.000000
     8  H    0.000000
     9  H    0.000000
    10  H    0.000000
    11  H    0.000000
    12  C    0.000000
    13  H    0.000000
    14  N    0.000000
    15  N    0.000000
    16  P    0.000000
    17  O    0.000000
    18  O    0.000000
    19  H    0.000000
    20  O    0.000000
    21  H    0.000000
    22  O    0.000000
    23  H    0.000000
    24  O    0.000000
    25  H    0.000000
    26  H    0.000000
    27  O    0.000000
    28  H    0.000000
    29  H    0.000000
    30  O    0.000000
    31  H    0.000000
    32  H    0.000000
    33  O   -0.558648
    34  H    0.280216
    35  H    0.278432
 Sum of Mulliken charges =   0.00000
 Mulliken charges with hydrogens summed into heavy atoms:
               1
     1  C    0.000000
     2  C    0.000000
     3  C    0.000000
     4  C    0.000000
     5  C    0.000000
     6  C    0.000000
    12  C    0.000000
    14  N    0.000000
    15  N    0.000000
    16  P    0.000000
    17  O    0.000000
    18  O    0.000000
    20  O    0.000000
    22  O    0.000000
    24  O    0.000000
    27  O    0.000000
    30  O    0.000000
    33  O    0.000000
         Mulliken charges condensed to fragments:
      1      0.000000
      2      0.000000
      3      0.000000
      4      0.000000
      5      0.000000
      6      0.000000
 Electronic spatial extent (au):  <R**2>=          11230.1277
 Charge=              0.0000 electrons
 Dipole moment (field-independent basis, Debye):
    X=             -0.9005    Y=              0.3190    Z=              1.8702  Tot=              2.1001
 Quadrupole moment (field-independent basis, Debye-Ang):
   XX=            -24.1561   YY=              0.2979   ZZ=             25.0012
   XY=             -5.8157   XZ=             12.6323   YZ=             24.8456
 Traceless Quadrupole moment (field-independent basis, Debye-Ang):
   XX=            -24.5371   YY=             -0.0831   ZZ=             24.6202
   XY=             -5.8157   XZ=             12.6323   YZ=             24.8456
 Octapole moment (field-independent basis, Debye-Ang**2):
  XXX=           -465.7096  YYY=           -116.0909  ZZZ=            236.1172  XYY=            -89.2592
  XXY=           -217.6276  XXZ=             16.0132  XZZ=            208.0498  YZZ=            321.3935
  YYZ=            265.7286  XYZ=            190.6383
 Hexadecapole moment (field-independent basis, Debye-Ang**3):
 XXXX=          -7757.2665 YYYY=          -3643.0051 ZZZZ=           1775.4445 XXXY=          -4592.1418
 XXXZ=          -1530.5578 YYYX=          -2139.3369 YYYZ=           2156.2908 ZZZX=           2056.3464
 ZZZY=           3051.7899 XXYY=          -2603.2840 XXZZ=           1256.7965 YYZZ=           3599.1577
 XXYZ=            768.9906 YYXZ=           2095.6352 ZZXY=           2837.8741
 N-N= 9.127016705550D+00 E-N=-1.991103203447D+02  KE= 7.620372399209D+01
 No NMR shielding tensors so no spin-rotation constants.
 Leave Link  601 at Thu May 19 16:43:54 2022, MaxMem= 13421772800 cpu:               1.7 elap:               0.1
 (Enter /data0/home/wuhanyu/software/g16/l122.exe)
 CPIOFr:  IOpCl= 0 IRwI=-1 IRwCP=  731 ICalc= 12 LCPTot=      545025 Len1MO=     1432502 IndFrg=    19167551
 Restoring MOs from calculation   1 to rwf.
 CPIOFr:  IOpCl= 0 IRwI=-2 IRwCP=  731 ICalc=  0 LCPTot=      545025 Len1MO=     1432502 IndFrg=     1977527
 Counterpoise corrected energy =   -1329.765434413714
                   BSSE energy =       0.008894453711
              sum of fragments =   -1329.651666731932
           complexation energy =     -76.97 kcal/mole (raw)
           complexation energy =     -71.39 kcal/mole (corrected)
 Leave Link  122 at Thu May 19 16:43:54 2022, MaxMem= 13421772800 cpu:               0.6 elap:               0.0
 (Enter /data0/home/wuhanyu/software/g16/l9999.exe)
 1\1\GINC-LOCALHOST\SP\RM062X\6-311+G(2d,p)\C7H17N2O8P1\WUHANYU\19-May-
 2022\0\\#p M062X/6-311+G(2d,p) nosymm em=GD3 counterpoise=6\\Title Car
 d Required\\0,1\C,0,11.285254,10.97493,11.628365\C,0,11.984534,9.74335
 2,11.381329\C,0,13.249335,9.760157,10.784855\C,0,13.780888,10.991328,1
 0.444432\C,0,13.088807,12.196788,10.693046\C,0,11.83951,12.211438,11.2
 88747\H,0,13.785822,8.829164,10.612939\H,0,14.76317,11.044466,9.974841
 \H,0,13.56201,13.137239,10.408795\H,0,11.309153,13.137645,11.494244\H,
 0,9.310482,11.258439,12.432248\C,0,10.052203,9.221226,12.289193\H,0,9.
 206051,8.664774,12.677044\N,0,10.07142,10.616349,12.218796\N,0,11.1851
 29,8.682229,11.814394\P,0,9.335643,7.022243,9.426535\O,0,8.62017,8.069
 102,10.171723\O,0,10.714696,6.531692,10.034224\H,0,10.955861,7.115981,
 10.8837\O,0,8.438965,5.714314,9.324705\H,0,8.978276,5.010417,8.793492\
 O,0,9.658825,7.33079,7.907462\H,0,10.527461,7.921691,7.847168\O,0,11.8
 7036,9.047566,7.753749\H,0,12.405774,8.959601,8.544571\H,0,11.463189,9
 .931519,7.831676\O,0,8.07137,10.666192,9.1878\H,0,8.267038,9.759843,9.
 515267\H,0,7.470843,10.532236,8.455076\O,0,8.022953,12.170282,11.57041
 4\H,0,7.998257,11.723634,10.70748\H,0,7.114868,12.339942,11.802415\O,0
 ,10.625871,11.48567,8.272132\H,0,9.730851,11.23548,8.550065\H,0,11.014
 98,11.912294,9.037093\\Version=ES64L-G16RevA.03\HF=-76.421953\RMSD=6.4
 58e-09\Dipole=-0.5511506,0.9618034,0.9128021\Quadrupole=-30.6233051,19
 .9401846,10.6831205,4.6615772,6.7039411,38.475529\PG=C01 [X(C7H17N2O8P
 1)]\\@


 I (ERNEST RUTHERFORD) CAME INTO THE ROOM, WHICH WAS HALF DARK, AND PRESENTLY
 SPOTTED LORD KELVIN IN THE AUDIENCE AND REALIZED I WAS IN TROUBLE AT
 THE LAST PART OF MY SPEECH DEALING THE AGE OF THE EARTH, WHERE MY VIEWS
 CONFLICTED WITH HIS.  TO MY RELIEF KELVIN FELL FAST ASLEEP, BUT AS I CAME
 TO THE IMPORTANT POINT, I SAW THE OLD BIRD SIT UP AND COCK A BALEFUL GLANCE
 AT ME! THEN A SUDDEN INSPIRATION CAME AND I SAID LORD KELVIN HAD LIMITED
 THE AGE OF THE EARTH PROVIDED NO NEW SOURCE WAS DISCOVERED. THAT
 PROPHETIC UTTERANCE REFERS TO WHAT WE ARE NOW CONSIDERING TONIGHT, RADIUM!
 BEHOLD!  THE OLD BOY BEAMED UPON ME.
 Job cpu time:       0 days  5 hours 58 minutes 11.3 seconds.
 Elapsed time:       0 days  0 hours 16 minutes 23.7 seconds.
 File lengths (MBytes):  RWF=    370 Int=      0 D2E=      0 Chk=    167 Scr=      1
 Normal termination of Gaussian 16 at Thu May 19 16:43:55 2022.
