          32
 Energy =  -1216.15928160 a.u.  #Cluster:    1
C           4.78740700      8.88272300      8.69110900
C           5.30344900      9.45764600      7.53486800
C           6.16405400     10.54757400      9.30936700
N           5.33585800      9.56948100      9.77563000
H           4.09181000      8.07274800      8.80519900
H           5.12141200      9.22021700      6.50384800
H           6.74620600     11.26137700      9.90894900
C           4.95380300      9.41184600     11.16716300
H           4.25326300     10.23693300     11.46014900
H           4.46102600      8.44494800     11.34678700
H           5.83759600      9.49957800     11.83959700
N           6.16684100     10.47766200      7.93452400
C           6.75501900     11.50940200      7.07998300
H           7.37866300     11.02256200      6.29739600
H           7.43866000     12.14572400      7.70880600
C           5.69229800     12.42279300      6.43145100
H           6.21523000     13.34892600      6.10037100
H           5.28865600     11.94875600      5.51810000
C           4.53724000     12.81831800      7.35224400
H           3.71794300     12.07824800      7.30706300
H           4.09640700     13.78119700      7.03216200
C           4.99796900     12.97630300      8.80666300
O           5.99348400     13.67793500      9.03421700
O           4.38255600     12.28707600      9.65286900
P           6.32953400     12.86152600     12.47149200
O           7.10412300     11.63431900     12.25567300
O           4.76356600     12.69224300     12.26888300
H           4.56121200     12.59894700     11.22060600
O           6.46135900     13.35025300     13.98321500
H           5.90512500     14.21653800     14.07041100
O           6.76535700     14.13394600     11.63288400
H           6.47287700     13.99227700     10.61833200
          32
 Energy =  -1216.15892600 a.u.  #Cluster:    2
C           5.09590400      9.57620600      9.82866800
C           4.54293500      9.93577400      8.60459600
C           6.73248600     10.46279900      8.56179200
N           6.44909400      9.90322300      9.77884000
H           4.62260600      9.14614000     10.70174000
H           3.52660800      9.87280700      8.26400100
H           7.69694900     10.84578800      8.24180400
C           7.40764200      9.77398600     10.86111600
H           7.92304900     10.74905600     11.04324800
H           6.89539300      9.52266300     11.81813800
H           8.15879000      8.99940500     10.63931700
N           5.57534600     10.46373900      7.82521200
C           5.42052900     11.05758400      6.49855400
H           4.73038400     10.41683700      5.89991300
H           6.40532000     11.05016200      5.97511200
C           4.87464200     12.49566900      6.57625700
H           4.59979700     12.82529500      5.55456200
H           3.92781400     12.52286100      7.16347200
C           5.87055200     13.47531500      7.19052200
H           5.62104100     14.51583300      6.90493300
H           6.90238500     13.29851800      6.85234400
C           5.78054300     13.37152900      8.72186900
O           6.71357300     12.75891300      9.29634300
O           4.77718700     13.84892100      9.26151600
P           5.15199500     12.31143100     12.45686500
O           4.81181100     10.89035900     12.33861800
O           4.13855900     13.35139800     11.83475200
H           4.40302000     13.54591600     10.81466000
O           5.19178400     12.71368000     14.00314800
H           5.41534300     13.71877600     14.05401400
O           6.61523400     12.68206800     11.96036600
H           6.63169000     12.77736400     10.89372400
          32
 Energy =  -1216.15698390 a.u.  #Cluster:    3
C           4.31908700      8.93712000      9.01488600
C           4.65426700      9.44231200      7.76584800
C           6.00308700     10.40710000      9.29364500
N           5.17013900      9.53885500      9.94405400
H           3.56260900      8.22746400      9.29166100
H           4.23120400      9.23568400      6.80111200
H           6.77570300     11.03496100      9.75619200
C           5.11885400      9.31879800     11.37782000
H           4.41360500     10.04332200     11.85500800
H           4.79304700      8.29442100     11.61557600
H           6.11245300      9.49444400     11.85081900
N           5.71164700     10.33454300      7.95306600
C           6.25004400     11.22110900      6.91884200
H           6.52207400     10.60433300      6.03248100
H           7.19188200     11.68991600      7.29779300
C           5.23170900     12.31532800      6.53357700
H           5.20230700     12.42439200      5.43341900
H           4.20680400     12.01142300      6.84064200
C           5.56043200     13.65414100      7.18391700
H           4.81243100     14.42155200      6.90485000
H           6.53412700     14.05036400      6.84280900
C           5.56640200     13.56342200      8.71472800
O           6.17019300     14.45248700      9.32576800
O           4.98216100     12.57840200      9.22925500
P           6.39353400     12.75509100     12.38843500
O           7.32540000     11.67073900     12.05648400
O           4.90629700     12.47775000     11.89188100
H           4.86779700     12.59263200     10.82559600
O           6.22905800     12.86545900     13.97308200
H           5.59489900     13.65733100     14.15911700
O           6.77166300     14.22150000     11.94741800
H           6.53508500     14.33362200     10.90023200
          32
 Energy =  -1216.15695000 a.u.  #Cluster:    4
C           4.50534900      8.79905900      8.72619200
C           4.88895500      9.38736200      7.52891200
C           5.94936200     10.45973300      9.20652800
N           5.17528700      9.47232300      9.74954400
H           3.82705800      7.98672600      8.90839200
H           4.59273400      9.16142300      6.52193100
H           6.59758100     11.16238600      9.75422600
C           5.00703800      9.20318800     11.16601000
H           4.54955400      8.21678600     11.33779000
H           5.98147100      9.24070600     11.70363300
H           4.35607300      9.98368700     11.63395000
N           5.79542000     10.40256000      7.84169800
C           6.29551200     11.39270900      6.88421800
H           6.69912500     10.85882300      5.99556400
H           7.14894100     11.95580200      7.34827300
C           5.17248300     12.37291200      6.47967400
H           5.24264800     12.59236000      5.39795100
H           4.17830400     11.90223400      6.63393500
C           5.23398100     13.67126400      7.28157500
H           4.28846600     14.23647500      7.19642600
H           6.03462600     14.33915800      6.91478400
C           5.47161000     13.34398400      8.76033500
O           6.52728800     13.75810100      9.26579300
O           4.64427600     12.59188200      9.31989500
P           6.21176700     12.58040300     12.50412500
O           7.00151400     11.37315000     12.23873000
O           4.69580200     12.45731400     12.02905700
H           4.64363200     12.57594000     10.97378700
O           6.07585100     12.83022600     14.07348600
H           5.50707500     13.68321200     14.19648000
O           6.76181500     13.95108200     11.94639100
H           6.71940600     13.90704300     10.87072600
          32
 Energy =  -1216.15371870 a.u.  #Cluster:    5
C           4.95822800      8.60519100      8.86166500
C           5.10592300      9.23482800      7.63249200
C           6.18888800     10.46509800      9.18066300
N           5.63916400      9.37789300      9.80233300
H           4.43402300      7.70203200      9.11424600
H           4.72883100      8.95755200      6.66572000
H           6.75294900     11.29826500      9.66401500
C           5.70706300      9.07634600     11.22084500
H           6.69492900      9.36650100     11.64854500
H           4.93512200      9.65808900     11.78233500
H           5.54924100      8.00348900     11.41287200
N           5.87853700     10.37692400      7.84683500
C           6.20147000     11.35879300      6.80774200
H           6.48103400     10.81387100      5.87875900
H           7.10572000     11.94679100      7.12394400
C           5.01110000     12.30617100      6.55408700
H           4.89950200     12.47351400      5.46525000
H           4.05988100     11.83787300      6.88347300
C           5.18086100     13.64698600      7.26485700
H           4.28570700     14.28108600      7.12651300
H           6.03933600     14.21535400      6.86622700
C           5.39175700     13.39468200      8.76385200
O           6.57597900     13.17132400      9.11715900
O           4.39750000     13.35144400      9.49631100
P           6.21559400     12.82070400     12.49836000
O           6.50706800     11.39183300     12.33292800
O           4.71686400     13.24391600     12.20505100
H           4.57492300     13.29275200     11.14683500
O           6.43102800     13.25358400     14.01958800
H           6.18428200     14.25376000     14.08763300
O           7.14789700     13.81057700     11.68521000
H           6.98960000     13.61279600     10.64366900
          32
 Energy =  -1216.15264400 a.u.  #Cluster:    6
C           4.90186600      8.58658100      8.65102100
C           5.11502400      9.27684400      7.46446500
C           6.11080700     10.42672500      9.12812800
N           5.52933000      9.31054300      9.66433600
H           4.36593600      7.67251500      8.82861400
H           4.79105500      9.04842600      6.46615900
H           6.64500800     11.23556400      9.68303400
C           5.53639700      8.93501200     11.06648300
H           5.18179000      7.90281300     11.21124000
H           6.55653500      9.02301300     11.49984800
H           4.87424700      9.61909800     11.66084200
N           5.87359300     10.40538500      7.77699700
C           6.26528800     11.42968300      6.80479100
H           6.57220700     10.92511200      5.86170700
H           7.16973400     11.97521600      7.18923100
C           5.11239200     12.42135800      6.54892300
H           5.03279600     12.62162400      5.46283600
H           4.13824900     11.97631100      6.84183200
C           5.30800400     13.73589600      7.30048800
H           4.45498700     14.41788000      7.12667700
H           6.21492700     14.26851500      6.96542800
C           5.41896800     13.44239400      8.80316400
O           6.56054100     13.11215500      9.21044400
O           4.38902700     13.48289700      9.48365000
P           5.95524600     12.66864000     12.55126700
O           6.10478100     11.22369000     12.34072900
O           4.53310000     13.26824200     12.19646700
H           4.45702200     13.35853300     11.13252000
O           6.13006700     13.01798900     14.09920900
H           5.98917500     14.03583800     14.19789800
O           7.03750800     13.57752000     11.83394100
H           6.91439900     13.44800800     10.77764600
          32
 Energy =  -1216.15248970 a.u.  #Cluster:    7
C           4.90831700      8.61999200      8.65768900
C           5.19705000      9.32210300      7.49420900
C           6.10007000     10.44483300      9.22734600
N           5.47957200      9.32739100      9.71548900
H           4.35702700      7.70799600      8.79265700
H           4.93337500      9.10718200      6.47542100
H           6.61319800     11.23674700      9.81855100
C           5.37917000      8.94620300     11.11284900
H           5.21323200      7.86315800     11.22384500
H           6.30476100      9.21687500     11.67302800
H           4.53848700      9.49125900     11.60768100
N           5.94172600     10.44219800      7.86487400
C           6.38170400     11.49017500      6.93988400
H           6.84207100     11.01092600      6.04914800
H           7.18419600     12.10558400      7.44296600
C           5.20301500     12.40009000      6.53846500
H           5.23991900     12.59240400      5.44864300
H           4.23439800     11.89010200      6.71778900
C           5.21992700     13.72809000      7.29362500
H           4.30310300     14.30998300      7.08564200
H           6.07343900     14.35833300      6.98708600
C           5.32141300     13.46007900      8.80160600
O           6.45823700     13.11441000      9.21292100
O           4.29692300     13.54356300      9.48526200
P           5.84199900     12.67720900     12.54951700
O           6.02220500     11.23702200     12.32812000
O           4.41068900     13.25034800     12.19075600
H           4.34822400     13.37042900     11.12754300
O           6.00472200     13.01823900     14.10010900
H           5.84056100     14.03217000     14.20569200
O           6.91015300     13.60904300     11.83913800
H           6.79711800     13.47587800     10.78245900
          32
 Energy =  -1216.15120200 a.u.  #Cluster:    8
C           5.43916200      8.44309900      8.92675100
C           5.49341500      9.07307800      7.68979000
C           6.31171400     10.49690500      9.23421900
N           5.95610200      9.33650000      9.86469000
H           5.07952800      7.46455200      9.18605700
H           5.18882000      8.72003700      6.72219800
H           6.70448200     11.42555800      9.71174200
C           6.06152400      9.06703700     11.28697500
H           5.17363800      9.48060900     11.83123000
H           6.12932700      7.98745000     11.49002200
H           6.95634700      9.56620500     11.72789600
N           6.04605200     10.33714900      7.89747700
C           6.23375600     11.33917100      6.84493900
H           6.60755600     10.82747400      5.93025400
H           7.03536300     12.05994600      7.16332900
C           4.92154000     12.09544200      6.55561000
H           4.77700100     12.17854700      5.46104200
H           4.04616400     11.52318900      6.92874100
C           4.91296700     13.48758400      7.18222900
H           3.96223200     14.00939500      6.96507400
H           5.72255300     14.12257000      6.78316200
C           5.07687800     13.35391900      8.70311700
O           6.25615800     13.21731200      9.11376500
O           4.05570600     13.32988000      9.39733900
P           5.70633300     12.84701100     12.46923200
O           6.02248200     11.42228100     12.30176500
O           4.22486900     13.26999000     12.10889000
H           4.13267800     13.29193300     11.03938900
O           5.85402300     13.26313300     14.00356800
H           5.59893800     14.26110700     14.07223400
O           6.67540700     13.84512300     11.70911100
H           6.55729100     13.66683100     10.65816900
          32
 Energy =  -1216.14875780 a.u.  #Cluster:    9
C           4.92548200      9.56266800      9.94633600
C           4.38175400      9.92750700      8.71819400
C           6.59867600     10.37815900      8.65914400
N           6.30077100      9.82475300      9.88762700
H           4.42815700      9.21357800     10.85471100
H           3.35478300      9.88905700      8.39226700
H           7.56263500     10.79334500      8.36133200
C           7.26848000      9.61713000     10.96966700
H           7.81309500     10.57061500     11.19763800
H           6.73867700      9.35421100     11.91453100
H           7.99217200      8.82707500     10.72031500
N           5.42983400     10.41752600      7.92059400
C           5.29747200     10.97860200      6.55697900
H           4.57504700     10.34859800      5.98567700
H           6.28016800     10.89624500      6.03517600
C           4.82380100     12.44059300      6.57549500
H           4.56317900     12.73734000      5.53845700
H           3.87889100     12.53890400      7.15948200
C           5.86074200     13.40860400      7.14176800
H           5.62351700     14.44694500      6.82830900
H           6.87803400     13.20225000      6.76274200
C           5.85366300     13.36019000      8.66909700
O           6.88133100     12.86849300      9.22681000
O           4.82758200     13.75158900      9.26521000
P           5.39963000     12.23790500     12.37100900
O           4.87393600     10.86630700     12.17202500
O           4.56250500     13.51352400     11.85188300
H           4.57790400     13.72937300     10.79212300
O           5.58573200     12.61370400     13.96010900
H           5.72410500     13.57793400     14.16000700
O           6.89170700     12.42656200     11.75442500
H           6.96654300     12.83072800     10.74087200
          32
 Energy =  -1216.14318950 a.u.  #Cluster:   10
C           5.46738300      9.41410100     10.17064700
C           4.71531600      9.64333000      9.02393800
C           6.75289100     10.55319800      8.71061200
N           6.72515700      9.98013800      9.95401800
H           5.18937200      8.93832000     11.09904400
H           3.68809600      9.40800900      8.82118900
H           7.58255600     11.12085000      8.28396900
C           7.78535300     10.11673800     10.93699000
H           8.53856600      9.32023500     10.82150700
H           8.27905200     11.11290200     10.84040000
H           7.37415200     10.08798600     11.96999900
N           5.53302600     10.33874100      8.12715500
C           5.12699100     10.85236800      6.82019700
H           4.26966200     10.24227700      6.44890600
H           5.96266500     10.70851400      6.09561300
C           4.72552500     12.33711300      6.88412300
H           4.17362000     12.59464500      5.95842100
H           3.99635300     12.50465800      7.71308300
C           5.91664300     13.27907100      7.05795300
H           5.73251000     14.24113400      6.54154700
H           6.84750300     12.87572500      6.63724000
C           6.07709900     13.56846400      8.56009900
O           6.95311300     12.90226500      9.16881900
O           5.30378700     14.38899600      9.06207300
P           4.80432900     12.41768000     11.87708500
O           4.20195400     11.23707900     11.24967500
O           4.23042600     13.83854400     11.49105100
H           4.64788200     14.12132000     10.54381000
O           4.59721800     12.34950400     13.46089800
H           4.99074700     13.21511300     13.86009400
O           6.38731800     12.49868700     11.73924900
H           6.64374200     12.77230700     10.73060200
          32
 Energy =  -1216.14238360 a.u.  #Cluster:   11
C           5.63886300      8.32533200      8.79561400
C           5.67646100      9.02502400      7.59344200
C           6.14809800     10.47881700      9.26328900
N           5.93272100      9.23891000      9.82059000
H           5.42864200      7.28246100      8.97054100
H           5.50106500      8.66929100      6.59140500
H           6.38193600     11.42193100      9.83572700
C           5.97612100      8.95426200     11.25868300
H           5.12174000      9.45171800     11.77709400
H           5.97592300      7.87759200     11.46910400
H           6.87064600      9.43670000     11.72671400
N           6.00082000     10.35874100      7.89431800
C           6.09772700     11.47714000      6.92679900
H           6.52594100     11.09799100      5.97546700
H           6.82629000     12.23396900      7.34624500
C           4.72882900     12.14505700      6.70212500
H           4.50593900     12.17268100      5.61661600
H           3.91242900     11.54268100      7.15421200
C           4.67103400     13.56618500      7.26372900
H           3.65752300     13.99418900      7.11474300
H           5.36863800     14.23901000      6.72817100
C           5.00684400     13.59891800      8.75356300
O           6.19162300     13.32722200      9.09894100
O           4.07562800     13.86819600      9.55137200
P           6.07614400     12.93230200     12.19587800
O           6.20061900     11.50822600     11.76984600
O           4.63628600     13.62264500     12.06843200
H           4.27413200     13.82038500     11.03172500
O           6.44380700     13.14798700     13.78016000
H           6.26706600     14.05976500     14.14077400
O           7.11265200     13.94993600     11.45341800
H           7.01782000     13.99474800     10.41127900
