 Entering Gaussian System, Link 0=g16
 Initial command:
 /data0/home/software/g16/l1.exe "/data0/home/software/g16/scratch/Gau-281456.inp" -scrdir="/data0/home/software/g16/scratch/"
 Default is to use a total of  22 processors:
                               22 via shared-memory
                                1 via Linda
 Entering Link 1 = /data0/home/software/g16/l1.exe PID=    281457.
  
 Copyright (c) 1988,1990,1992,1993,1995,1998,2003,2009,2016,
            Gaussian, Inc.  All Rights Reserved.
  
 This is part of the Gaussian(R) 16 program.  It is based on
 the Gaussian(R) 09 system (copyright 2009, Gaussian, Inc.),
 the Gaussian(R) 03 system (copyright 2003, Gaussian, Inc.),
 the Gaussian(R) 98 system (copyright 1998, Gaussian, Inc.),
 the Gaussian(R) 94 system (copyright 1995, Gaussian, Inc.),
 the Gaussian 92(TM) system (copyright 1992, Gaussian, Inc.),
 the Gaussian 90(TM) system (copyright 1990, Gaussian, Inc.),
 the Gaussian 88(TM) system (copyright 1988, Gaussian, Inc.),
 the Gaussian 86(TM) system (copyright 1986, Carnegie Mellon
 University), and the Gaussian 82(TM) system (copyright 1983,
 Carnegie Mellon University). Gaussian is a federally registered
 trademark of Gaussian, Inc.
  
 This software contains proprietary and confidential information,
 including trade secrets, belonging to Gaussian, Inc.
  
 This software is provided under written license and may be
 used, copied, transmitted, or stored only in accord with that
 written license.
  
 The following legend is applicable only to US Government
 contracts under FAR:
  
                    RESTRICTED RIGHTS LEGEND
  
 Use, reproduction and disclosure by the US Government is
 subject to restrictions as set forth in subparagraphs (a)
 and (c) of the Commercial Computer Software - Restricted
 Rights clause in FAR 52.227-19.
  
 Gaussian, Inc.
 340 Quinnipiac St., Bldg. 40, Wallingford CT 06492
  
  
 ---------------------------------------------------------------
 Warning -- This program may not be used in any manner that
 competes with the business of Gaussian, Inc. or will provide
 assistance to any competitor of Gaussian, Inc.  The licensee
 of this program is prohibited from giving any competitor of
 Gaussian, Inc. access to this program.  By using this program,
 the user acknowledges that Gaussian, Inc. is engaged in the
 business of creating and licensing software in the field of
 computational chemistry and represents and warrants to the
 licensee that it is not a competitor of Gaussian, Inc. and that
 it will not use this program in any manner prohibited above.
 ---------------------------------------------------------------
  

 Cite this work as:
 Gaussian 16, Revision A.03,
 M. J. Frisch, G. W. Trucks, H. B. Schlegel, G. E. Scuseria, 
 M. A. Robb, J. R. Cheeseman, G. Scalmani, V. Barone, 
 G. A. Petersson, H. Nakatsuji, X. Li, M. Caricato, A. V. Marenich, 
 J. Bloino, B. G. Janesko, R. Gomperts, B. Mennucci, H. P. Hratchian, 
 J. V. Ortiz, A. F. Izmaylov, J. L. Sonnenberg, D. Williams-Young, 
 F. Ding, F. Lipparini, F. Egidi, J. Goings, B. Peng, A. Petrone, 
 T. Henderson, D. Ranasinghe, V. G. Zakrzewski, J. Gao, N. Rega, 
 G. Zheng, W. Liang, M. Hada, M. Ehara, K. Toyota, R. Fukuda, 
 J. Hasegawa, M. Ishida, T. Nakajima, Y. Honda, O. Kitao, H. Nakai, 
 T. Vreven, K. Throssell, J. A. Montgomery, Jr., J. E. Peralta, 
 F. Ogliaro, M. J. Bearpark, J. J. Heyd, E. N. Brothers, K. N. Kudin, 
 V. N. Staroverov, T. A. Keith, R. Kobayashi, J. Normand, 
 K. Raghavachari, A. P. Rendell, J. C. Burant, S. S. Iyengar, 
 J. Tomasi, M. Cossi, J. M. Millam, M. Klene, C. Adamo, R. Cammi, 
 J. W. Ochterski, R. L. Martin, K. Morokuma, O. Farkas, 
 J. B. Foresman, and D. J. Fox, Gaussian, Inc., Wallingford CT, 2016.
 
 ******************************************
 Gaussian 16:  ES64L-G16RevA.03 25-Dec-2016
                19-Feb-2023 
 ******************************************
 %nproc=24
 Will use up to   24 processors via shared memory.
 %mem=50GB
 ---------------------------------------------------
 #p M062X/6-311+G(2d,p) nosymm em=GD3 counterpoise=4
 ---------------------------------------------------
 1/38=1,62=4,172=1/1;
 2/12=2,15=1,17=6,18=5,40=1/2;
 1/38=1,53=2,62=4,63=1/22;
 3/5=4,6=6,7=112,11=2,25=1,30=1,74=-55,124=31/1,2,3;
 4//1;
 5/5=2,38=5/2;
 6/7=2,8=2,9=2,10=2,28=1/1;
 1/53=2,62=4,63=1/22;
 3/5=7,6=11,7=112,11=2,25=1,30=1,74=-55,82=7,124=31/1,2,3;
 4//1;
 5/5=2,38=5/2;
 6/7=2,8=2,9=2,10=2,28=1/1;
 1/53=2,62=4,63=1/22(-4);
 99/5=1,9=1/99;
 Leave Link    1 at Sun Feb 19 12:07:27 2023, MaxMem=  6710886400 cpu:               0.7 elap:               0.0
 (Enter /data0/home/software/g16/l101.exe)
 -------------------
 Title Card Required
 -------------------
 Symbolic Z-matrix:
 Charge =  0 Multiplicity = 1 in supermolecule
 Charge =  0 Multiplicity = 1 in fragment      1.
 Charge =  0 Multiplicity = 1 in fragment      2.
 Charge =  0 Multiplicity = 1 in fragment      3.
 Charge =  0 Multiplicity = 1 in fragment      4.
 C                     12.29068   9.20029   9.50012    
 C                     12.88302   10.37909   9.96623    
 C                     13.93882   10.92691   9.23854    
 C                     14.36965   10.29002   8.07743    
 C                     13.72393   9.11259   7.67666    
 N                     12.70364   8.58224   8.37674    
 H                     14.42143   11.84391   9.57639    
 H                     11.45898   8.72196   10.03034    
 H                     12.52634   10.85391   10.87539    
 H                     15.19126   10.69165   7.49106    
 H                     14.02704   8.56761   6.769      
 O                     11.30381   7.65713   3.37872    
 H                     11.93085   7.1331    3.90848    
 H                     11.33164   8.52447   3.78122    
 O                     8.83684   6.5088    3.81854    
 H                     9.7072    6.93505   3.68269    
 H                     8.65939   6.05874   2.9963     
 O                     9.09672   4.7561    5.95447    
 H                     9.01343   5.33755   6.71324    
 H                     8.96261   5.3435    5.18467    
 
 ITRead=  0  0  0  0  0  0  0  0  0  0  0  0  0  0  0  0  0  0  0  0
 MicOpt= -1 -1 -1 -1 -1 -1 -1 -1 -1 -1 -1 -1 -1 -1 -1 -1 -1 -1 -1 -1
 NAtoms=     20 NQM=       20 NQMF=       0 NMMI=      0 NMMIF=      0
                NMic=       0 NMicF=      0.
                    Isotopes and Nuclear Properties:
 (Nuclear quadrupole moments (NQMom) in fm**2, nuclear magnetic moments (NMagM)
  in nuclear magnetons)

  Atom         1           2           3           4           5           6           7           8           9          10
 IAtWgt=          12          12          12          12          12          14           1           1           1           1
 AtmWgt=  12.0000000  12.0000000  12.0000000  12.0000000  12.0000000  14.0030740   1.0078250   1.0078250   1.0078250   1.0078250
 NucSpn=           0           0           0           0           0           2           1           1           1           1
 AtZEff=  -0.0000000  -0.0000000  -0.0000000  -0.0000000  -0.0000000  -0.0000000  -0.0000000  -0.0000000  -0.0000000  -0.0000000
 NQMom=    0.0000000   0.0000000   0.0000000   0.0000000   0.0000000   2.0440000   0.0000000   0.0000000   0.0000000   0.0000000
 NMagM=    0.0000000   0.0000000   0.0000000   0.0000000   0.0000000   0.4037610   2.7928460   2.7928460   2.7928460   2.7928460
 AtZNuc=   6.0000000   6.0000000   6.0000000   6.0000000   6.0000000   7.0000000   1.0000000   1.0000000   1.0000000   1.0000000

  Atom        11          12          13          14          15          16          17          18          19          20
 IAtWgt=           1          16           1           1          16           1           1          16           1           1
 AtmWgt=   1.0078250  15.9949146   1.0078250   1.0078250  15.9949146   1.0078250   1.0078250  15.9949146   1.0078250   1.0078250
 NucSpn=           1           0           1           1           0           1           1           0           1           1
 AtZEff=  -0.0000000  -0.0000000  -0.0000000  -0.0000000  -0.0000000  -0.0000000  -0.0000000  -0.0000000  -0.0000000  -0.0000000
 NQMom=    0.0000000   0.0000000   0.0000000   0.0000000   0.0000000   0.0000000   0.0000000   0.0000000   0.0000000   0.0000000
 NMagM=    2.7928460   0.0000000   2.7928460   2.7928460   0.0000000   2.7928460   2.7928460   0.0000000   2.7928460   2.7928460
 AtZNuc=   1.0000000   8.0000000   1.0000000   1.0000000   8.0000000   1.0000000   1.0000000   8.0000000   1.0000000   1.0000000
 Leave Link  101 at Sun Feb 19 12:07:28 2023, MaxMem=  6710886400 cpu:               2.1 elap:               0.1
 (Enter /data0/home/software/g16/l202.exe)
                          Input orientation:                          
 ---------------------------------------------------------------------
 Center     Atomic      Atomic             Coordinates (Angstroms)
 Number     Number       Type             X           Y           Z
 ---------------------------------------------------------------------
      1          6           0       12.290676    9.200288    9.500115
      2          6           0       12.883021   10.379091    9.966227
      3          6           0       13.938821   10.926907    9.238544
      4          6           0       14.369650   10.290025    8.077426
      5          6           0       13.723931    9.112586    7.676659
      6          7           0       12.703638    8.582238    8.376735
      7          1           0       14.421426   11.843907    9.576385
      8          1           0       11.458977    8.721957   10.030335
      9          1           0       12.526343   10.853914   10.875393
     10          1           0       15.191258   10.691651    7.491061
     11          1           0       14.027041    8.567609    6.768997
     12          8           0       11.303810    7.657134    3.378717
     13          1           0       11.930852    7.133101    3.908484
     14          1           0       11.331639    8.524474    3.781223
     15          8           0        8.836836    6.508800    3.818537
     16          1           0        9.707202    6.935049    3.682691
     17          1           0        8.659386    6.058741    2.996304
     18          8           0        9.096724    4.756100    5.954467
     19          1           0        9.013434    5.337554    6.713238
     20          1           0        8.962606    5.343504    5.184670
 ---------------------------------------------------------------------
                    Distance matrix (angstroms):
                    1          2          3          4          5
     1  C    0.000000
     2  C    1.399182   0.000000
     3  C    2.401253   1.394395   0.000000
     4  C    2.744759   2.405321   1.392633   0.000000
     5  C    2.320970   2.748324   2.403627   1.401403   0.000000
     6  N    1.347036   2.405690   2.786730   2.404520   1.346244
     7  H    3.396268   2.159711   1.089923   2.159655   3.399349
     8  H    1.096201   2.185888   3.411505   3.839884   3.289741
     9  H    2.163656   1.085937   2.163261   3.397701   3.833841
    10  H    3.830645   3.398838   2.162785   1.086355   2.163548
    11  H    3.297613   3.848705   3.416538   2.189996   1.101238
    12  O    6.389581   7.300565   7.209180   6.197528   5.142726
    13  H    5.972359   6.938251   6.843569   5.770094   4.618727
    14  H    5.837996   6.640833   6.507798   5.550139   4.609052
    15  O    7.173106   8.315339   8.656003   7.940266   6.748963
    16  H    6.756335   7.837734   8.044192   7.232426   6.068571
    17  H    8.084253   9.224117   9.515095   8.736629   7.541970
    18  O    6.521024   7.877074   8.503524   7.933160   6.584524
    19  H    5.781670   7.139519   7.866224   7.421390   6.112923
    20  H    6.676369   7.974339   8.507115   7.878593   6.564008
                    6          7          8          9         10
     6  N    0.000000
     7  H    3.876653   0.000000
     8  H    2.074390   4.327672   0.000000
     9  H    3.381603   2.501769   2.529552   0.000000
    10  H    3.379689   2.503779   4.925193   4.310662   0.000000
    11  H    2.082410   4.332562   4.153926   4.933738   2.527515
    12  O    5.272146   8.103066   6.738097   8.241004   6.421208
    13  H    4.760511   7.779444   6.342254   7.920662   6.010689
    14  H    4.796295   7.358622   6.253528   7.561802   5.775484
    15  O    6.326806   9.633474   7.096487   9.071477   8.447624
    16  H    5.807401   9.003134   6.823074   8.662564   7.660980
    17  H    7.188397  10.486502   8.025461  10.001354   9.183248
    18  O    5.789347   9.576416   6.158000   8.553428   8.644954
    19  H    5.187755   8.931776   5.332729   7.752051   8.211996
    20  H    5.888463   9.557255   6.412978   8.686148   8.527498
                   11         12         13         14         15
    11  H    0.000000
    12  O    4.442854   0.000000
    13  H    3.825488   0.973882   0.000000
    14  H    4.024158   0.956590   1.520253   0.000000
    15  O    6.315231   2.756460   3.157654   3.207550   0.000000
    16  H    5.554417   1.778472   2.243842   2.274813   0.978611
    17  H    7.024198   3.113531   3.562136   3.719795   0.953996
    18  O    6.284830   4.463375   4.227110   4.890652   2.775193
    19  H    5.964279   4.663186   4.427410   4.911949   3.127667
    20  H    6.209142   3.754409   3.693480   4.207202   1.800015
                   16         17         18         19         20
    16  H    0.000000
    17  H    1.528712   0.000000
    18  O    3.206473   3.261728   0.000000
    19  H    3.495357   3.802770   0.959562   0.000000
    20  H    2.311575   2.322165   0.977557   1.529424   0.000000
 Symmetry turned off by external request.
 Stoichiometry    C5H11NO3
 Framework group  C1[X(C5H11NO3)]
 Deg. of freedom    54
 Full point group                 C1      NOp   1
 Rotational constants (GHZ):           1.7745946           0.3261254           0.2893079
 Leave Link  202 at Sun Feb 19 12:07:28 2023, MaxMem=  6710886400 cpu:               0.1 elap:               0.0
 (Enter /data0/home/software/g16/l122.exe)
 Counterpoise: doing full-system calculation.
 Leave Link  122 at Sun Feb 19 12:07:28 2023, MaxMem=  6710886400 cpu:               0.0 elap:               0.0
 (Enter /data0/home/software/g16/l301.exe)
 Standard basis: 6-311+G(2d,p) (5D, 7F)
 Ernie: Thresh=  0.10000D-02 Tol=  0.10000D-05 Strict=F.
   309 basis functions,   466 primitive gaussians,   327 cartesian basis functions
    36 alpha electrons       36 beta electrons
       nuclear repulsion energy       381.4461552625 Hartrees.
 IExCor= 4336 DFT=T Ex+Corr=M062X ExCW=0 ScaHFX=  0.540000
 ScaDFX=  1.000000  1.000000  1.000000  1.000000 ScalE2=  1.000000  1.000000
 IRadAn=      5 IRanWt=     -1 IRanGd=            0 ICorTp=0 IEmpDi=131
 NAtoms=   20 NActive=   20 NUniq=   20 SFac= 1.00D+00 NAtFMM=   60 NAOKFM=F Big=F
 Integral buffers will be    131072 words long.
 Raffenetti 2 integral format.
 Two-electron integral symmetry is turned off.
 R6Disp:  Grimme-D3 Dispersion energy=       -0.0004925227 Hartrees.
 Nuclear repulsion after empirical dispersion term =      381.4456627398 Hartrees.
 Leave Link  301 at Sun Feb 19 12:07:28 2023, MaxMem=  6710886400 cpu:               1.1 elap:               0.1
 (Enter /data0/home/software/g16/l302.exe)
 NPDir=0 NMtPBC=     1 NCelOv=     1 NCel=       1 NClECP=     1 NCelD=      1
         NCelK=      1 NCelE2=     1 NClLst=     1 CellRange=     0.0.
 One-electron integrals computed using PRISM.
 NBasis=   309 RedAO= T EigKep=  1.79D-05  NBF=   309
 NBsUse=   309 1.00D-06 EigRej= -1.00D+00 NBFU=   309
 Precomputing XC quadrature grid using
 IXCGrd= 4 IRadAn=           5 IRanWt=          -1 IRanGd=           0 AccXCQ= 0.00D+00.
 Generated NRdTot=       0 NPtTot=           0 NUsed=           0 NTot=          32
 NSgBfM=   315   315   315   315   315 MxSgAt=    20 MxSgA2=    20.
 Leave Link  302 at Sun Feb 19 12:07:28 2023, MaxMem=  6710886400 cpu:               4.9 elap:               0.2
 (Enter /data0/home/software/g16/l303.exe)
 DipDrv:  MaxL=1.
 Leave Link  303 at Sun Feb 19 12:07:28 2023, MaxMem=  6710886400 cpu:               0.7 elap:               0.0
 (Enter /data0/home/software/g16/l401.exe)
 ExpMin= 4.38D-02 ExpMax= 8.59D+03 ExpMxC= 1.30D+03 IAcc=3 IRadAn=         5 AccDes= 0.00D+00
 Harris functional with IExCor= 1009 and IRadAn=       5 diagonalized for initial guess.
 HarFok:  IExCor= 1009 AccDes= 0.00D+00 IRadAn=         5 IDoV= 1 UseB2=F ITyADJ=14
 ICtDFT=  3500011 ScaDFX=  1.000000  1.000000  1.000000  1.000000
 FoFCou: FMM=F IPFlag=           0 FMFlag=      100000 FMFlg1=           0
         NFxFlg=           0 DoJE=T BraDBF=F KetDBF=T FulRan=T
         wScrn=  0.000000 ICntrl=       500 IOpCl=  0 I1Cent=   200000004 NGrid=           0
         NMat0=    1 NMatS0=      1 NMatT0=    0 NMatD0=    1 NMtDS0=    0 NMtDT0=    0
 Symmetry not used in FoFCou.
 Harris En= -477.376234423818    
 JPrj=0 DoOrth=F DoCkMO=F.
 Leave Link  401 at Sun Feb 19 12:07:29 2023, MaxMem=  6710886400 cpu:              14.9 elap:               0.6
 (Enter /data0/home/software/g16/l502.exe)
 Two-electron integral symmetry not used.
 Closed shell SCF:
 Using DIIS extrapolation, IDIIS=  1040.
 NGot=  6710886400 LenX=  6710662307 LenY=  6710554937
 Requested convergence on RMS density matrix=1.00D-08 within 128 cycles.
 Requested convergence on MAX density matrix=1.00D-06.
 Requested convergence on             energy=1.00D-06.
 No special actions if energy rises.
 Fock matrices will be formed incrementally for  20 cycles.

 Cycle   1  Pass 1  IDiag  1:
 FoFJK:  IHMeth= 1 ICntrl=       0 DoSepK=F KAlg= 0 I1Cent=           0 FoldK=F
 IRaf= 780000000 NMat=       1 IRICut=       1 DoRegI=T DoRafI=F ISym2E= 0 IDoP0=0 IntGTp=1.
 FoFCou: FMM=F IPFlag=           0 FMFlag=      100000 FMFlg1=           0
         NFxFlg=           0 DoJE=F BraDBF=F KetDBF=F FulRan=T
         wScrn=  0.000000 ICntrl=         0 IOpCl=  0 I1Cent=           0 NGrid=           0
         NMat0=    1 NMatS0=      1 NMatT0=    0 NMatD0=    1 NMtDS0=    0 NMtDT0=    0
 Symmetry not used in FoFCou.
 E= -477.207215598582    
 DIIS: error= 4.79D-02 at cycle   1 NSaved=   1.
 NSaved= 1 IEnMin= 1 EnMin= -477.207215598582     IErMin= 1 ErrMin= 4.79D-02
 ErrMax= 4.79D-02  0.00D+00 EMaxC= 1.00D-01 BMatC= 4.84D-01 BMatP= 4.84D-01
 IDIUse=3 WtCom= 5.21D-01 WtEn= 4.79D-01
 Coeff-Com:  0.100D+01
 Coeff-En:   0.100D+01
 Coeff:      0.100D+01
 Gap=     0.342 Goal=   None    Shift=    0.000
 GapD=    0.342 DampG=1.000 DampE=0.500 DampFc=0.5000 IDamp=-1.
 Damping current iteration by 5.00D-01
 RMSDP=5.60D-03 MaxDP=3.12D-01              OVMax= 1.86D-01

 Cycle   2  Pass 1  IDiag  1:
 RMSU=  2.78D-03    CP:  1.03D+00
 E= -477.359422899515     Delta-E=       -0.152207300932 Rises=F Damp=T
 DIIS: error= 8.90D-03 at cycle   2 NSaved=   2.
 NSaved= 2 IEnMin= 2 EnMin= -477.359422899515     IErMin= 2 ErrMin= 8.90D-03
 ErrMax= 8.90D-03  0.00D+00 EMaxC= 1.00D-01 BMatC= 2.69D-02 BMatP= 4.84D-01
 IDIUse=3 WtCom= 9.11D-01 WtEn= 8.90D-02
 Coeff-Com: -0.376D-02 0.100D+01
 Coeff-En:   0.294D-01 0.971D+00
 Coeff:     -0.813D-03 0.100D+01
 Gap=     0.355 Goal=   None    Shift=    0.000
 RMSDP=1.75D-03 MaxDP=1.12D-01 DE=-1.52D-01 OVMax= 1.16D-01

 Cycle   3  Pass 1  IDiag  1:
 RMSU=  1.34D-03    CP:  9.91D-01  6.18D-01
 E= -477.528311138713     Delta-E=       -0.168888239198 Rises=F Damp=F
 DIIS: error= 5.43D-03 at cycle   3 NSaved=   3.
 NSaved= 3 IEnMin= 3 EnMin= -477.528311138713     IErMin= 3 ErrMin= 5.43D-03
 ErrMax= 5.43D-03  0.00D+00 EMaxC= 1.00D-01 BMatC= 4.87D-03 BMatP= 2.69D-02
 IDIUse=3 WtCom= 9.46D-01 WtEn= 5.43D-02
 Coeff-Com: -0.588D-01 0.247D+00 0.812D+00
 Coeff-En:   0.000D+00 0.000D+00 0.100D+01
 Coeff:     -0.556D-01 0.234D+00 0.822D+00
 Gap=     0.329 Goal=   None    Shift=    0.000
 RMSDP=3.60D-04 MaxDP=2.13D-02 DE=-1.69D-01 OVMax= 1.34D-02

 Cycle   4  Pass 1  IDiag  1:
 RMSU=  3.36D-04    CP:  9.84D-01  5.81D-01  9.76D-01
 E= -477.531235043558     Delta-E=       -0.002923904845 Rises=F Damp=F
 DIIS: error= 1.65D-03 at cycle   4 NSaved=   4.
 NSaved= 4 IEnMin= 4 EnMin= -477.531235043558     IErMin= 4 ErrMin= 1.65D-03
 ErrMax= 1.65D-03  0.00D+00 EMaxC= 1.00D-01 BMatC= 5.85D-04 BMatP= 4.87D-03
 IDIUse=3 WtCom= 9.83D-01 WtEn= 1.65D-02
 Coeff-Com: -0.222D-01 0.568D-01 0.337D+00 0.628D+00
 Coeff-En:   0.000D+00 0.000D+00 0.000D+00 0.100D+01
 Coeff:     -0.218D-01 0.558D-01 0.332D+00 0.634D+00
 Gap=     0.317 Goal=   None    Shift=    0.000
 RMSDP=9.96D-05 MaxDP=3.19D-03 DE=-2.92D-03 OVMax= 6.56D-03

 Cycle   5  Pass 1  IDiag  1:
 RMSU=  6.14D-05    CP:  9.84D-01  5.82D-01  1.00D+00  7.93D-01
 E= -477.531715499262     Delta-E=       -0.000480455704 Rises=F Damp=F
 DIIS: error= 5.58D-04 at cycle   5 NSaved=   5.
 NSaved= 5 IEnMin= 5 EnMin= -477.531715499262     IErMin= 5 ErrMin= 5.58D-04
 ErrMax= 5.58D-04  0.00D+00 EMaxC= 1.00D-01 BMatC= 4.25D-05 BMatP= 5.85D-04
 IDIUse=3 WtCom= 9.94D-01 WtEn= 5.58D-03
 Coeff-Com: -0.618D-02 0.107D-01 0.983D-01 0.278D+00 0.619D+00
 Coeff-En:   0.000D+00 0.000D+00 0.000D+00 0.000D+00 0.100D+01
 Coeff:     -0.614D-02 0.106D-01 0.978D-01 0.276D+00 0.622D+00
 Gap=     0.316 Goal=   None    Shift=    0.000
 RMSDP=2.89D-05 MaxDP=8.54D-04 DE=-4.80D-04 OVMax= 2.29D-03

 Cycle   6  Pass 1  IDiag  1:
 RMSU=  1.91D-05    CP:  9.84D-01  5.79D-01  9.98D-01  8.18D-01  7.31D-01
 E= -477.531747934385     Delta-E=       -0.000032435123 Rises=F Damp=F
 DIIS: error= 2.26D-04 at cycle   6 NSaved=   6.
 NSaved= 6 IEnMin= 6 EnMin= -477.531747934385     IErMin= 6 ErrMin= 2.26D-04
 ErrMax= 2.26D-04  0.00D+00 EMaxC= 1.00D-01 BMatC= 4.18D-06 BMatP= 4.25D-05
 IDIUse=3 WtCom= 9.98D-01 WtEn= 2.26D-03
 Coeff-Com: -0.143D-02 0.143D-02 0.251D-01 0.887D-01 0.292D+00 0.594D+00
 Coeff-En:   0.000D+00 0.000D+00 0.000D+00 0.000D+00 0.000D+00 0.100D+01
 Coeff:     -0.143D-02 0.143D-02 0.251D-01 0.885D-01 0.292D+00 0.595D+00
 Gap=     0.317 Goal=   None    Shift=    0.000
 RMSDP=7.95D-06 MaxDP=2.44D-04 DE=-3.24D-05 OVMax= 9.50D-04

 Cycle   7  Pass 1  IDiag  1:
 RMSU=  6.56D-06    CP:  9.84D-01  5.78D-01  9.99D-01  8.09D-01  7.75D-01
                    CP:  9.74D-01
 E= -477.531751715775     Delta-E=       -0.000003781390 Rises=F Damp=F
 DIIS: error= 6.67D-05 at cycle   7 NSaved=   7.
 NSaved= 7 IEnMin= 7 EnMin= -477.531751715775     IErMin= 7 ErrMin= 6.67D-05
 ErrMax= 6.67D-05  0.00D+00 EMaxC= 1.00D-01 BMatC= 4.15D-07 BMatP= 4.18D-06
 IDIUse=1 WtCom= 1.00D+00 WtEn= 0.00D+00
 Coeff-Com:  0.772D-03-0.168D-02-0.103D-01-0.236D-01-0.212D-01 0.221D+00
 Coeff-Com:  0.835D+00
 Coeff:      0.772D-03-0.168D-02-0.103D-01-0.236D-01-0.212D-01 0.221D+00
 Coeff:      0.835D+00
 Gap=     0.317 Goal=   None    Shift=    0.000
 RMSDP=6.09D-06 MaxDP=3.29D-04 DE=-3.78D-06 OVMax= 2.49D-04

 Cycle   8  Pass 1  IDiag  1:
 RMSU=  1.84D-06    CP:  9.84D-01  5.76D-01  1.00D+00  8.14D-01  7.75D-01
                    CP:  1.11D+00  9.41D-01
 E= -477.531752114139     Delta-E=       -0.000000398364 Rises=F Damp=F
 DIIS: error= 2.22D-05 at cycle   8 NSaved=   8.
 NSaved= 8 IEnMin= 8 EnMin= -477.531752114139     IErMin= 8 ErrMin= 2.22D-05
 ErrMax= 2.22D-05  0.00D+00 EMaxC= 1.00D-01 BMatC= 5.98D-08 BMatP= 4.15D-07
 IDIUse=1 WtCom= 1.00D+00 WtEn= 0.00D+00
 Coeff-Com:  0.463D-03-0.928D-03-0.659D-02-0.168D-01-0.279D-01 0.786D-01
 Coeff-Com:  0.414D+00 0.559D+00
 Coeff:      0.463D-03-0.928D-03-0.659D-02-0.168D-01-0.279D-01 0.786D-01
 Coeff:      0.414D+00 0.559D+00
 Gap=     0.317 Goal=   None    Shift=    0.000
 RMSDP=7.64D-07 MaxDP=3.00D-05 DE=-3.98D-07 OVMax= 6.98D-05

 Cycle   9  Pass 1  IDiag  1:
 RMSU=  6.03D-07    CP:  9.84D-01  5.76D-01  1.00D+00  8.13D-01  7.78D-01
                    CP:  1.11D+00  9.65D-01  8.95D-01
 E= -477.531752161764     Delta-E=       -0.000000047625 Rises=F Damp=F
 DIIS: error= 4.78D-06 at cycle   9 NSaved=   9.
 NSaved= 9 IEnMin= 9 EnMin= -477.531752161764     IErMin= 9 ErrMin= 4.78D-06
 ErrMax= 4.78D-06  0.00D+00 EMaxC= 1.00D-01 BMatC= 2.14D-09 BMatP= 5.98D-08
 IDIUse=1 WtCom= 1.00D+00 WtEn= 0.00D+00
 Coeff-Com: -0.587D-04 0.123D-03 0.598D-03 0.120D-02-0.943D-03-0.163D-01
 Coeff-Com: -0.638D-01 0.910D-01 0.988D+00
 Coeff:     -0.587D-04 0.123D-03 0.598D-03 0.120D-02-0.943D-03-0.163D-01
 Coeff:     -0.638D-01 0.910D-01 0.988D+00
 Gap=     0.317 Goal=   None    Shift=    0.000
 RMSDP=3.23D-07 MaxDP=1.39D-05 DE=-4.76D-08 OVMax= 2.15D-05

 Cycle  10  Pass 1  IDiag  1:
 RMSU=  1.49D-07    CP:  9.84D-01  5.76D-01  1.00D+00  8.13D-01  7.77D-01
                    CP:  1.11D+00  9.68D-01  9.88D-01  1.14D+00
 E= -477.531752164409     Delta-E=       -0.000000002645 Rises=F Damp=F
 DIIS: error= 1.03D-06 at cycle  10 NSaved=  10.
 NSaved=10 IEnMin=10 EnMin= -477.531752164409     IErMin=10 ErrMin= 1.03D-06
 ErrMax= 1.03D-06  0.00D+00 EMaxC= 1.00D-01 BMatC= 1.17D-10 BMatP= 2.14D-09
 IDIUse=1 WtCom= 1.00D+00 WtEn= 0.00D+00
 Coeff-Com: -0.276D-04 0.578D-04 0.322D-03 0.740D-03 0.160D-03-0.660D-02
 Coeff-Com: -0.287D-01 0.102D-01 0.269D+00 0.755D+00
 Coeff:     -0.276D-04 0.578D-04 0.322D-03 0.740D-03 0.160D-03-0.660D-02
 Coeff:     -0.287D-01 0.102D-01 0.269D+00 0.755D+00
 Gap=     0.317 Goal=   None    Shift=    0.000
 RMSDP=5.30D-08 MaxDP=1.56D-06 DE=-2.65D-09 OVMax= 7.52D-06

 Cycle  11  Pass 1  IDiag  1:
 RMSU=  4.38D-08    CP:  9.84D-01  5.76D-01  1.00D+00  8.13D-01  7.77D-01
                    CP:  1.11D+00  9.68D-01  9.95D-01  1.18D+00  1.03D+00
 E= -477.531752164533     Delta-E=       -0.000000000124 Rises=F Damp=F
 DIIS: error= 8.02D-07 at cycle  11 NSaved=  11.
 NSaved=11 IEnMin=11 EnMin= -477.531752164533     IErMin=11 ErrMin= 8.02D-07
 ErrMax= 8.02D-07  0.00D+00 EMaxC= 1.00D-01 BMatC= 5.50D-11 BMatP= 1.17D-10
 IDIUse=1 WtCom= 1.00D+00 WtEn= 0.00D+00
 Coeff-Com: -0.228D-05 0.547D-05 0.456D-04 0.134D-03 0.117D-03-0.406D-03
 Coeff-Com: -0.318D-02-0.117D-01-0.482D-01 0.409D+00 0.654D+00
 Coeff:     -0.228D-05 0.547D-05 0.456D-04 0.134D-03 0.117D-03-0.406D-03
 Coeff:     -0.318D-02-0.117D-01-0.482D-01 0.409D+00 0.654D+00
 Gap=     0.317 Goal=   None    Shift=    0.000
 RMSDP=2.52D-08 MaxDP=1.07D-06 DE=-1.24D-10 OVMax= 2.87D-06

 Cycle  12  Pass 1  IDiag  1:
 RMSU=  1.54D-08    CP:  9.84D-01  5.76D-01  1.00D+00  8.13D-01  7.77D-01
                    CP:  1.11D+00  9.67D-01  9.99D-01  1.19D+00  1.12D+00
                    CP:  8.36D-01
 E= -477.531752164595     Delta-E=       -0.000000000063 Rises=F Damp=F
 DIIS: error= 1.23D-07 at cycle  12 NSaved=  12.
 NSaved=12 IEnMin=12 EnMin= -477.531752164595     IErMin=12 ErrMin= 1.23D-07
 ErrMax= 1.23D-07  0.00D+00 EMaxC= 1.00D-01 BMatC= 2.07D-12 BMatP= 5.50D-11
 IDIUse=1 WtCom= 1.00D+00 WtEn= 0.00D+00
 Coeff-Com:  0.166D-05-0.304D-05-0.721D-05-0.844D-05 0.333D-04 0.506D-03
 Coeff-Com:  0.116D-02-0.518D-02-0.415D-01 0.887D-01 0.193D+00 0.763D+00
 Coeff:      0.166D-05-0.304D-05-0.721D-05-0.844D-05 0.333D-04 0.506D-03
 Coeff:      0.116D-02-0.518D-02-0.415D-01 0.887D-01 0.193D+00 0.763D+00
 Gap=     0.317 Goal=   None    Shift=    0.000
 RMSDP=6.97D-09 MaxDP=3.32D-07 DE=-6.25D-11 OVMax= 7.34D-07

 SCF Done:  E(RM062X) =  -477.531752165     A.U. after   12 cycles
            NFock= 12  Conv=0.70D-08     -V/T= 2.0038
 KE= 4.757150856712D+02 PE=-1.881731818223D+03 EE= 5.470393176470D+02
 Leave Link  502 at Sun Feb 19 12:07:47 2023, MaxMem=  6710886400 cpu:             439.2 elap:              18.4
 (Enter /data0/home/software/g16/l601.exe)
 Copying SCF densities to generalized density rwf, IOpCl= 0 IROHF=0.

 **********************************************************************

            Population analysis using the SCF density.

 **********************************************************************

 Alpha  occ. eigenvalues --  -19.66500 -19.61599 -19.57453 -14.75981 -10.59400
 Alpha  occ. eigenvalues --  -10.59144 -10.57460 -10.56584 -10.56494  -1.17614
 Alpha  occ. eigenvalues --   -1.12943  -1.08377  -1.05894  -0.91525  -0.87116
 Alpha  occ. eigenvalues --   -0.72683  -0.72300  -0.64538  -0.61711  -0.61040
 Alpha  occ. eigenvalues --   -0.56761  -0.56063  -0.55534  -0.52307  -0.50993
 Alpha  occ. eigenvalues --   -0.48222  -0.48143  -0.47862  -0.43951  -0.43935
 Alpha  occ. eigenvalues --   -0.42574  -0.39155  -0.35644  -0.35385  -0.33456
 Alpha  occ. eigenvalues --   -0.32965
 Alpha virt. eigenvalues --   -0.01310  -0.00906  -0.00127   0.00986   0.01937
 Alpha virt. eigenvalues --    0.03329   0.03807   0.04389   0.06098   0.06441
 Alpha virt. eigenvalues --    0.07247   0.07885   0.08573   0.08871   0.10727
 Alpha virt. eigenvalues --    0.11294   0.12084   0.12531   0.12928   0.13710
 Alpha virt. eigenvalues --    0.13908   0.14724   0.15266   0.16481   0.17030
 Alpha virt. eigenvalues --    0.17504   0.18007   0.18413   0.19444   0.19916
 Alpha virt. eigenvalues --    0.20570   0.20738   0.20950   0.21516   0.21780
 Alpha virt. eigenvalues --    0.22279   0.22705   0.24228   0.24294   0.24984
 Alpha virt. eigenvalues --    0.25152   0.25979   0.26645   0.27688   0.28809
 Alpha virt. eigenvalues --    0.30525   0.31641   0.32324   0.33674   0.34365
 Alpha virt. eigenvalues --    0.34926   0.35524   0.37052   0.38413   0.45710
 Alpha virt. eigenvalues --    0.48566   0.48761   0.50717   0.52653   0.53258
 Alpha virt. eigenvalues --    0.53471   0.54075   0.54580   0.54888   0.56794
 Alpha virt. eigenvalues --    0.57497   0.58370   0.59570   0.60236   0.63430
 Alpha virt. eigenvalues --    0.64006   0.64073   0.64838   0.65345   0.65909
 Alpha virt. eigenvalues --    0.66892   0.67327   0.68407   0.72550   0.76004
 Alpha virt. eigenvalues --    0.76674   0.78904   0.79930   0.81961   0.82393
 Alpha virt. eigenvalues --    0.83447   0.83614   0.84594   0.85635   0.87738
 Alpha virt. eigenvalues --    0.89332   0.90535   0.93621   0.94290   0.95122
 Alpha virt. eigenvalues --    0.96260   0.97661   1.01308   1.03825   1.04406
 Alpha virt. eigenvalues --    1.06342   1.07213   1.07878   1.10332   1.11773
 Alpha virt. eigenvalues --    1.11891   1.15599   1.16500   1.17147   1.17409
 Alpha virt. eigenvalues --    1.19455   1.20877   1.21347   1.22270   1.26279
 Alpha virt. eigenvalues --    1.27171   1.28466   1.31151   1.33586   1.34404
 Alpha virt. eigenvalues --    1.34577   1.35073   1.36229   1.37675   1.38005
 Alpha virt. eigenvalues --    1.38151   1.38974   1.43437   1.43956   1.46881
 Alpha virt. eigenvalues --    1.49077   1.49834   1.51459   1.51968   1.52442
 Alpha virt. eigenvalues --    1.55695   1.60940   1.63034   1.67364   1.67557
 Alpha virt. eigenvalues --    1.70402   1.71703   1.72832   1.74465   1.77512
 Alpha virt. eigenvalues --    1.78428   1.82623   1.82936   1.85631   1.89588
 Alpha virt. eigenvalues --    1.93136   1.95806   1.98826   2.01213   2.06165
 Alpha virt. eigenvalues --    2.08823   2.09812   2.13185   2.15855   2.16495
 Alpha virt. eigenvalues --    2.16765   2.18791   2.24972   2.27316   2.37779
 Alpha virt. eigenvalues --    2.38596   2.40349   2.43226   2.46722   2.48065
 Alpha virt. eigenvalues --    2.48500   2.50101   2.54115   2.56067   2.57618
 Alpha virt. eigenvalues --    2.63532   2.64185   2.65940   2.67066   2.69190
 Alpha virt. eigenvalues --    2.74287   2.75123   2.75624   2.80903   2.83027
 Alpha virt. eigenvalues --    2.84776   2.86860   2.87087   2.89094   2.93234
 Alpha virt. eigenvalues --    2.99804   3.00314   3.02684   3.05891   3.07385
 Alpha virt. eigenvalues --    3.09936   3.10967   3.11216   3.13046   3.15498
 Alpha virt. eigenvalues --    3.20336   3.21517   3.27401   3.27537   3.28035
 Alpha virt. eigenvalues --    3.28304   3.35006   3.41543   3.41907   3.45455
 Alpha virt. eigenvalues --    3.53082   3.54230   3.55982   3.56514   3.56743
 Alpha virt. eigenvalues --    3.58532   3.59959   3.64678   3.70819   3.71039
 Alpha virt. eigenvalues --    3.75595   3.78615   3.80511   3.84924   3.88943
 Alpha virt. eigenvalues --    3.95051   3.95830   3.98207   4.02625   4.44616
 Alpha virt. eigenvalues --    4.49858   4.53554   4.80635   4.94889   4.99115
 Alpha virt. eigenvalues --    5.04331   5.09219   5.11531   5.12235   5.13753
 Alpha virt. eigenvalues --    5.22216   5.49876   5.53182   5.55843   5.56126
 Alpha virt. eigenvalues --    5.60434   5.89670   5.96522   5.99239   6.76146
 Alpha virt. eigenvalues --    6.78024   6.81428   6.83031   6.83982   6.86741
 Alpha virt. eigenvalues --    6.87386   6.90569   6.93014   6.95839   6.97500
 Alpha virt. eigenvalues --    7.02957   7.05895   7.17477   7.22773  23.80427
 Alpha virt. eigenvalues --   24.04479  24.05676  24.08902  24.12841  35.72853
 Alpha virt. eigenvalues --   49.95117  50.01892  50.05532
          Condensed to atoms (all electrons):
               1          2          3          4          5          6
     1  C    5.276680   0.192852   0.102091  -0.300908   0.185179   0.235044
     2  C    0.192852   5.086679   0.443173   0.144830  -0.303412   0.127308
     3  C    0.102091   0.443173   4.914083   0.439364   0.079084  -0.103621
     4  C   -0.300908   0.144830   0.439364   5.117459   0.143996   0.140670
     5  C    0.185179  -0.303412   0.079084   0.143996   5.413582   0.204487
     6  N    0.235044   0.127308  -0.103621   0.140670   0.204487   6.716148
     7  H   -0.000229  -0.009315   0.366566  -0.011636  -0.000725   0.000266
     8  H    0.441167  -0.066883   0.018293  -0.011080   0.019299  -0.071712
     9  H   -0.017181   0.373110  -0.026836   0.011881  -0.000091   0.003227
    10  H   -0.000458   0.010461  -0.024241   0.370141  -0.015146   0.002878
    11  H    0.016902  -0.010735   0.016388  -0.068284   0.447494  -0.080882
    12  O   -0.002462   0.000496   0.000043   0.002710   0.004872  -0.002673
    13  H    0.000245  -0.000099  -0.000106  -0.001366   0.002440  -0.000029
    14  H    0.000266  -0.000194  -0.000121  -0.002128   0.003154   0.000045
    15  O   -0.000117   0.000050  -0.000019   0.000168   0.000049  -0.000060
    16  H    0.000272  -0.000050   0.000006  -0.000341  -0.000405   0.000201
    17  H    0.000006   0.000000   0.000000  -0.000006   0.000001   0.000001
    18  O    0.000188   0.000397  -0.000051   0.000397   0.000144  -0.000388
    19  H    0.000175   0.000089  -0.000001  -0.000019  -0.000061  -0.000051
    20  H   -0.000003  -0.000019   0.000006  -0.000043   0.000060  -0.000008
               7          8          9         10         11         12
     1  C   -0.000229   0.441167  -0.017181  -0.000458   0.016902  -0.002462
     2  C   -0.009315  -0.066883   0.373110   0.010461  -0.010735   0.000496
     3  C    0.366566   0.018293  -0.026836  -0.024241   0.016388   0.000043
     4  C   -0.011636  -0.011080   0.011881   0.370141  -0.068284   0.002710
     5  C   -0.000725   0.019299  -0.000091  -0.015146   0.447494   0.004872
     6  N    0.000266  -0.071712   0.003227   0.002878  -0.080882  -0.002673
     7  H    0.529470  -0.000255  -0.004335  -0.004383  -0.000269   0.000000
     8  H   -0.000255   0.537809  -0.002160   0.000094   0.000037  -0.000002
     9  H   -0.004335  -0.002160   0.526539  -0.000228   0.000099  -0.000000
    10  H   -0.004383   0.000094  -0.000228   0.528647  -0.002093  -0.000000
    11  H   -0.000269   0.000037   0.000099  -0.002093   0.554641  -0.000042
    12  O    0.000000  -0.000002  -0.000000  -0.000000  -0.000042   8.013198
    13  H   -0.000000   0.000000   0.000000   0.000001  -0.000128   0.322392
    14  H   -0.000000   0.000000   0.000000   0.000002  -0.000166   0.319636
    15  O    0.000000  -0.000000  -0.000000  -0.000000   0.000002   0.004342
    16  H   -0.000000   0.000000   0.000000   0.000000  -0.000006  -0.056396
    17  H    0.000000   0.000000   0.000000   0.000000  -0.000000   0.002599
    18  O    0.000000   0.000004  -0.000000  -0.000000   0.000005  -0.001467
    19  H    0.000000  -0.000000  -0.000000  -0.000000  -0.000000   0.000016
    20  H   -0.000000  -0.000000   0.000000   0.000000  -0.000001   0.000046
              13         14         15         16         17         18
     1  C    0.000245   0.000266  -0.000117   0.000272   0.000006   0.000188
     2  C   -0.000099  -0.000194   0.000050  -0.000050   0.000000   0.000397
     3  C   -0.000106  -0.000121  -0.000019   0.000006   0.000000  -0.000051
     4  C   -0.001366  -0.002128   0.000168  -0.000341  -0.000006   0.000397
     5  C    0.002440   0.003154   0.000049  -0.000405   0.000001   0.000144
     6  N   -0.000029   0.000045  -0.000060   0.000201   0.000001  -0.000388
     7  H   -0.000000  -0.000000   0.000000  -0.000000   0.000000   0.000000
     8  H    0.000000   0.000000  -0.000000   0.000000   0.000000   0.000004
     9  H    0.000000   0.000000  -0.000000   0.000000   0.000000  -0.000000
    10  H    0.000001   0.000002  -0.000000   0.000000   0.000000  -0.000000
    11  H   -0.000128  -0.000166   0.000002  -0.000006  -0.000000   0.000005
    12  O    0.322392   0.319636   0.004342  -0.056396   0.002599  -0.001467
    13  H    0.387383  -0.021555  -0.001412   0.003543   0.000308   0.000155
    14  H   -0.021555   0.394370  -0.000661   0.005525   0.000546   0.000045
    15  O   -0.001412  -0.000661   8.261675   0.251553   0.278154   0.002787
    16  H    0.003543   0.005525   0.251553   0.364424  -0.010037  -0.001191
    17  H    0.000308   0.000546   0.278154  -0.010037   0.431879   0.000411
    18  O    0.000155   0.000045   0.002787  -0.001191   0.000411   8.097269
    19  H   -0.000030   0.000019   0.001665   0.000418   0.000832   0.296174
    20  H    0.000053  -0.000035  -0.068053   0.007237   0.008569   0.276994
              19         20
     1  C    0.000175  -0.000003
     2  C    0.000089  -0.000019
     3  C   -0.000001   0.000006
     4  C   -0.000019  -0.000043
     5  C   -0.000061   0.000060
     6  N   -0.000051  -0.000008
     7  H    0.000000  -0.000000
     8  H   -0.000000  -0.000000
     9  H   -0.000000   0.000000
    10  H   -0.000000   0.000000
    11  H   -0.000000  -0.000001
    12  O    0.000016   0.000046
    13  H   -0.000030   0.000053
    14  H    0.000019  -0.000035
    15  O    0.001665  -0.068053
    16  H    0.000418   0.007237
    17  H    0.000832   0.008569
    18  O    0.296174   0.276994
    19  H    0.454201  -0.017337
    20  H   -0.017337   0.372943
 Mulliken charges:
               1
     1  C   -0.129706
     2  C    0.011261
     3  C   -0.224100
     4  C    0.024197
     5  C   -0.184003
     6  N   -0.170854
     7  H    0.134845
     8  H    0.135388
     9  H    0.135975
    10  H    0.134326
    11  H    0.127037
    12  O   -0.607308
    13  H    0.308205
    14  H    0.301253
    15  O   -0.730124
    16  H    0.435246
    17  H    0.286736
    18  O   -0.671874
    19  H    0.263909
    20  H    0.419592
 Sum of Mulliken charges =  -0.00000
 Mulliken charges with hydrogens summed into heavy atoms:
               1
     1  C    0.005682
     2  C    0.147236
     3  C   -0.089256
     4  C    0.158522
     5  C   -0.056967
     6  N   -0.170854
    12  O    0.002150
    15  O   -0.008142
    18  O    0.011627
         Mulliken charges condensed to fragments:
      1     -0.005636
      2      0.002150
      3     -0.008142
      4      0.011627
 Electronic spatial extent (au):  <R**2>=          70026.5954
 Charge=             -0.0000 electrons
 Dipole moment (field-independent basis, Debye):
    X=              3.5922    Y=              5.3605    Z=              0.2152  Tot=              6.4565
 Quadrupole moment (field-independent basis, Debye-Ang):
   XX=             25.5225   YY=             22.0683   ZZ=            -41.2280
   XY=             88.6210   XZ=             24.0905   YZ=             43.7491
 Traceless Quadrupole moment (field-independent basis, Debye-Ang):
   XX=             23.4016   YY=             19.9474   ZZ=            -43.3490
   XY=             88.6210   XZ=             24.0905   YZ=             43.7491
 Octapole moment (field-independent basis, Debye-Ang**2):
  XXX=           -594.8582  YYY=           -499.2852  ZZZ=           -924.4242  XYY=            481.2937
  XXY=            880.1108  XXZ=            116.5575  XZZ=           -393.1446  YZZ=            -29.9254
  YYZ=            251.1046  XYZ=            675.8205
 Hexadecapole moment (field-independent basis, Debye-Ang**3):
 XXXX=         -27229.6918 YYYY=         -15083.5353 ZZZZ=         -15245.3217 XXXY=           2344.7727
 XXXZ=          -6141.9743 YYYX=          -4320.5908 YYYZ=          -2801.8915 ZZZX=         -11303.5502
 ZZZY=          -5824.1269 XXYY=           4134.7372 XXZZ=          -7038.7973 YYZZ=          -1228.1869
 XXYZ=           6380.1226 YYXZ=           4303.7742 ZZXY=            263.4795
 N-N= 3.814456627398D+02 E-N=-1.881731819923D+03  KE= 4.757150856712D+02
 No NMR shielding tensors so no spin-rotation constants.
 Leave Link  601 at Sun Feb 19 12:07:47 2023, MaxMem=  6710886400 cpu:               2.3 elap:               0.1
 (Enter /data0/home/software/g16/l122.exe)
 CPIOFr:  IOpCl= 0 IRwI=-1 IRwCP=  731 ICalc= -1 LCPTot=      148866 Len1MO=      388541 IndFrg=      148866
 CPIOFr:  IOpCl= 0 IRwI=-1 IRwCP=  731 ICalc=  0 LCPTot=      148866 Len1MO=      388541 IndFrg=      537407
 Counterpoise: doing calculation for fragment   1 using the basis set of the full-system, NewBq=T
 Leave Link  122 at Sun Feb 19 12:07:47 2023, MaxMem=  6710886400 cpu:               0.2 elap:               0.0
 (Enter /data0/home/software/g16/l301.exe)
 Basis read from rwf:  (5D, 7F)
 No pseudopotential information found on rwf file.
   309 basis functions,   466 primitive gaussians,   327 cartesian basis functions
    21 alpha electrons       21 beta electrons
       nuclear repulsion energy       205.2253932613 Hartrees.
 IExCor= 4336 DFT=T Ex+Corr=M062X ExCW=0 ScaHFX=  0.540000
 ScaDFX=  1.000000  1.000000  1.000000  1.000000 ScalE2=  1.000000  1.000000
 IRadAn=      5 IRanWt=     -1 IRanGd=            0 ICorTp=0 IEmpDi=131
 NAtoms=   20 NActive=   20 NUniq=   20 SFac= 1.00D+00 NAtFMM=   60 NAOKFM=F Big=F
 Integral buffers will be    131072 words long.
 Raffenetti 2 integral format.
 Two-electron integral symmetry is turned off.
 R6Disp:  Grimme-D3 Dispersion energy=       -0.0000989734 Hartrees.
 Nuclear repulsion after empirical dispersion term =      205.2252942879 Hartrees.
 No density basis found on file   718.
 Leave Link  301 at Sun Feb 19 12:07:47 2023, MaxMem=  6710886400 cpu:               1.2 elap:               0.1
 (Enter /data0/home/software/g16/l302.exe)
 NPDir=0 NMtPBC=     1 NCelOv=     1 NCel=       1 NClECP=     1 NCelD=      1
         NCelK=      1 NCelE2=     1 NClLst=     1 CellRange=     0.0.
 One-electron integrals computed using PRISM.
 NBasis=   309 RedAO= T EigKep=  1.79D-05  NBF=   309
 NBsUse=   309 1.00D-06 EigRej= -1.00D+00 NBFU=   309
 Precomputing XC quadrature grid using
 IXCGrd= 4 IRadAn=           5 IRanWt=          -1 IRanGd=           0 AccXCQ= 0.00D+00.
 Generated NRdTot=       0 NPtTot=           0 NUsed=           0 NTot=          32
 NSgBfM=   315   315   315   315   315 MxSgAt=    20 MxSgA2=    20.
 Leave Link  302 at Sun Feb 19 12:07:47 2023, MaxMem=  6710886400 cpu:               4.8 elap:               0.2
 (Enter /data0/home/software/g16/l303.exe)
 DipDrv:  MaxL=1.
 Leave Link  303 at Sun Feb 19 12:07:48 2023, MaxMem=  6710886400 cpu:               0.7 elap:               0.0
 (Enter /data0/home/software/g16/l401.exe)
 ExpMin= 4.38D-02 ExpMax= 8.59D+03 ExpMxC= 1.30D+03 IAcc=3 IRadAn=         5 AccDes= 0.00D+00
 Harris functional with IExCor= 1009 and IRadAn=       5 diagonalized for initial guess.
 HarFok:  IExCor= 1009 AccDes= 0.00D+00 IRadAn=         5 IDoV= 1 UseB2=F ITyADJ=14
 ICtDFT=  3500011 ScaDFX=  1.000000  1.000000  1.000000  1.000000
 FoFCou: FMM=F IPFlag=           0 FMFlag=      100000 FMFlg1=           0
         NFxFlg=           0 DoJE=T BraDBF=F KetDBF=T FulRan=T
         wScrn=  0.000000 ICntrl=       500 IOpCl=  0 I1Cent=   200000004 NGrid=           0
         NMat0=    1 NMatS0=      1 NMatT0=    0 NMatD0=    1 NMtDS0=    0 NMtDT0=    0
 Symmetry not used in FoFCou.
 Harris En= -248.118890724925    
 JPrj=0 DoOrth=F DoCkMO=F.
 Leave Link  401 at Sun Feb 19 12:07:48 2023, MaxMem=  6710886400 cpu:              14.1 elap:               0.6
 (Enter /data0/home/software/g16/l502.exe)
 Two-electron integral symmetry not used.
 Closed shell SCF:
 Using DIIS extrapolation, IDIIS=  1040.
 NGot=  6710886400 LenX=  6710662307 LenY=  6710554937
 Requested convergence on RMS density matrix=1.00D-08 within 128 cycles.
 Requested convergence on MAX density matrix=1.00D-06.
 Requested convergence on             energy=1.00D-06.
 No special actions if energy rises.
 Fock matrices will be formed incrementally for  20 cycles.

 Cycle   1  Pass 1  IDiag  1:
 FoFJK:  IHMeth= 1 ICntrl=       0 DoSepK=F KAlg= 0 I1Cent=           0 FoldK=F
 IRaf= 780000000 NMat=       1 IRICut=       1 DoRegI=T DoRafI=F ISym2E= 0 IDoP0=0 IntGTp=1.
 FoFCou: FMM=F IPFlag=           0 FMFlag=      100000 FMFlg1=           0
         NFxFlg=           0 DoJE=F BraDBF=F KetDBF=F FulRan=T
         wScrn=  0.000000 ICntrl=         0 IOpCl=  0 I1Cent=           0 NGrid=           0
         NMat0=    1 NMatS0=      1 NMatT0=    0 NMatD0=    1 NMtDS0=    0 NMtDT0=    0
 Symmetry not used in FoFCou.
 E= -248.121882096864    
 DIIS: error= 3.80D-02 at cycle   1 NSaved=   1.
 NSaved= 1 IEnMin= 1 EnMin= -248.121882096864     IErMin= 1 ErrMin= 3.80D-02
 ErrMax= 3.80D-02  0.00D+00 EMaxC= 1.00D-01 BMatC= 1.51D-01 BMatP= 1.51D-01
 IDIUse=3 WtCom= 6.20D-01 WtEn= 3.80D-01
 Coeff-Com:  0.100D+01
 Coeff-En:   0.100D+01
 Coeff:      0.100D+01
 Gap=     0.340 Goal=   None    Shift=    0.000
 GapD=    0.340 DampG=1.000 DampE=0.500 DampFc=0.5000 IDamp=-1.
 Damping current iteration by 5.00D-01
 RMSDP=2.76D-03 MaxDP=9.48D-02              OVMax= 1.39D-01

 Cycle   2  Pass 1  IDiag  1:
 RMSU=  1.38D-03    CP:  9.95D-01
 E= -248.185774719871     Delta-E=       -0.063892623007 Rises=F Damp=T
 DIIS: error= 8.90D-03 at cycle   2 NSaved=   2.
 NSaved= 2 IEnMin= 2 EnMin= -248.185774719871     IErMin= 2 ErrMin= 8.90D-03
 ErrMax= 8.90D-03  0.00D+00 EMaxC= 1.00D-01 BMatC= 1.47D-02 BMatP= 1.51D-01
 IDIUse=3 WtCom= 9.11D-01 WtEn= 8.90D-02
 Coeff-Com: -0.223D+00 0.122D+01
 Coeff-En:   0.000D+00 0.100D+01
 Coeff:     -0.203D+00 0.120D+01
 Gap=     0.338 Goal=   None    Shift=    0.000
 RMSDP=7.80D-04 MaxDP=2.80D-02 DE=-6.39D-02 OVMax= 7.64D-02

 Cycle   3  Pass 1  IDiag  1:
 RMSU=  7.48D-04    CP:  9.76D-01  1.12D+00
 E= -248.242203850588     Delta-E=       -0.056429130718 Rises=F Damp=F
 DIIS: error= 5.01D-03 at cycle   3 NSaved=   3.
 NSaved= 3 IEnMin= 3 EnMin= -248.242203850588     IErMin= 3 ErrMin= 5.01D-03
 ErrMax= 5.01D-03  0.00D+00 EMaxC= 1.00D-01 BMatC= 2.62D-03 BMatP= 1.47D-02
 IDIUse=3 WtCom= 9.50D-01 WtEn= 5.01D-02
 Coeff-Com: -0.133D+00 0.394D+00 0.739D+00
 Coeff-En:   0.000D+00 0.000D+00 0.100D+01
 Coeff:     -0.126D+00 0.374D+00 0.752D+00
 Gap=     0.324 Goal=   None    Shift=    0.000
 RMSDP=2.39D-04 MaxDP=1.40D-02 DE=-5.64D-02 OVMax= 2.30D-02

 Cycle   4  Pass 1  IDiag  1:
 RMSU=  2.19D-04    CP:  9.66D-01  1.08D+00  1.03D+00
 E= -248.244453194133     Delta-E=       -0.002249343545 Rises=F Damp=F
 DIIS: error= 2.38D-03 at cycle   4 NSaved=   4.
 NSaved= 4 IEnMin= 4 EnMin= -248.244453194133     IErMin= 4 ErrMin= 2.38D-03
 ErrMax= 2.38D-03  0.00D+00 EMaxC= 1.00D-01 BMatC= 2.73D-04 BMatP= 2.62D-03
 IDIUse=3 WtCom= 9.76D-01 WtEn= 2.38D-02
 Coeff-Com: -0.452D-01 0.112D+00 0.321D+00 0.611D+00
 Coeff-En:   0.000D+00 0.000D+00 0.000D+00 0.100D+01
 Coeff:     -0.441D-01 0.110D+00 0.314D+00 0.621D+00
 Gap=     0.317 Goal=   None    Shift=    0.000
 RMSDP=6.47D-05 MaxDP=2.73D-03 DE=-2.25D-03 OVMax= 9.08D-03

 Cycle   5  Pass 1  IDiag  1:
 RMSU=  4.42D-05    CP:  9.67D-01  1.10D+00  1.01D+00  8.12D-01
 E= -248.244698942916     Delta-E=       -0.000245748783 Rises=F Damp=F
 DIIS: error= 8.86D-04 at cycle   5 NSaved=   5.
 NSaved= 5 IEnMin= 5 EnMin= -248.244698942916     IErMin= 5 ErrMin= 8.86D-04
 ErrMax= 8.86D-04  0.00D+00 EMaxC= 1.00D-01 BMatC= 3.85D-05 BMatP= 2.73D-04
 IDIUse=3 WtCom= 9.91D-01 WtEn= 8.86D-03
 Coeff-Com: -0.115D-01 0.233D-01 0.956D-01 0.319D+00 0.573D+00
 Coeff-En:   0.000D+00 0.000D+00 0.000D+00 0.689D-01 0.931D+00
 Coeff:     -0.114D-01 0.231D-01 0.948D-01 0.317D+00 0.576D+00
 Gap=     0.317 Goal=   None    Shift=    0.000
 RMSDP=3.11D-05 MaxDP=9.74D-04 DE=-2.46D-04 OVMax= 2.53D-03

 Cycle   6  Pass 1  IDiag  1:
 RMSU=  1.95D-05    CP:  9.67D-01  1.08D+00  1.02D+00  8.34D-01  7.08D-01
 E= -248.244737867174     Delta-E=       -0.000038924258 Rises=F Damp=F
 DIIS: error= 1.69D-04 at cycle   6 NSaved=   6.
 NSaved= 6 IEnMin= 6 EnMin= -248.244737867174     IErMin= 6 ErrMin= 1.69D-04
 ErrMax= 1.69D-04  0.00D+00 EMaxC= 1.00D-01 BMatC= 1.73D-06 BMatP= 3.85D-05
 IDIUse=3 WtCom= 9.98D-01 WtEn= 1.69D-03
 Coeff-Com: -0.361D-02 0.661D-02 0.322D-01 0.122D+00 0.271D+00 0.572D+00
 Coeff-En:   0.000D+00 0.000D+00 0.000D+00 0.000D+00 0.000D+00 0.100D+01
 Coeff:     -0.360D-02 0.660D-02 0.322D-01 0.122D+00 0.270D+00 0.573D+00
 Gap=     0.317 Goal=   None    Shift=    0.000
 RMSDP=4.54D-06 MaxDP=2.43D-04 DE=-3.89D-05 OVMax= 6.11D-04

 Cycle   7  Pass 1  IDiag  1:
 RMSU=  3.83D-06    CP:  9.67D-01  1.08D+00  1.02D+00  8.29D-01  7.48D-01
                    CP:  1.04D+00
 E= -248.244739326061     Delta-E=       -0.000001458888 Rises=F Damp=F
 DIIS: error= 3.37D-05 at cycle   7 NSaved=   7.
 NSaved= 7 IEnMin= 7 EnMin= -248.244739326061     IErMin= 7 ErrMin= 3.37D-05
 ErrMax= 3.37D-05  0.00D+00 EMaxC= 1.00D-01 BMatC= 1.84D-07 BMatP= 1.73D-06
 IDIUse=1 WtCom= 1.00D+00 WtEn= 0.00D+00
 Coeff-Com:  0.147D-02-0.323D-02-0.104D-01-0.314D-01-0.319D-01 0.225D+00
 Coeff-Com:  0.851D+00
 Coeff:      0.147D-02-0.323D-02-0.104D-01-0.314D-01-0.319D-01 0.225D+00
 Coeff:      0.851D+00
 Gap=     0.317 Goal=   None    Shift=    0.000
 RMSDP=4.49D-06 MaxDP=1.57D-04 DE=-1.46D-06 OVMax= 1.27D-04

 Cycle   8  Pass 1  IDiag  1:
 RMSU=  1.16D-06    CP:  9.67D-01  1.08D+00  1.02D+00  8.31D-01  7.52D-01
                    CP:  1.17D+00  9.56D-01
 E= -248.244739493507     Delta-E=       -0.000000167446 Rises=F Damp=F
 DIIS: error= 4.78D-06 at cycle   8 NSaved=   8.
 NSaved= 8 IEnMin= 8 EnMin= -248.244739493507     IErMin= 8 ErrMin= 4.78D-06
 ErrMax= 4.78D-06  0.00D+00 EMaxC= 1.00D-01 BMatC= 3.45D-09 BMatP= 1.84D-07
 IDIUse=1 WtCom= 1.00D+00 WtEn= 0.00D+00
 Coeff-Com:  0.379D-03-0.816D-03-0.283D-02-0.955D-02-0.141D-01 0.383D-01
 Coeff-Com:  0.136D+00 0.853D+00
 Coeff:      0.379D-03-0.816D-03-0.283D-02-0.955D-02-0.141D-01 0.383D-01
 Coeff:      0.136D+00 0.853D+00
 Gap=     0.317 Goal=   None    Shift=    0.000
 RMSDP=3.68D-07 MaxDP=1.64D-05 DE=-1.67D-07 OVMax= 2.34D-05

 Cycle   9  Pass 1  IDiag  1:
 RMSU=  2.30D-07    CP:  9.67D-01  1.08D+00  1.02D+00  8.31D-01  7.51D-01
                    CP:  1.18D+00  9.64D-01  1.10D+00
 E= -248.244739496924     Delta-E=       -0.000000003417 Rises=F Damp=F
 DIIS: error= 3.04D-06 at cycle   9 NSaved=   9.
 NSaved= 9 IEnMin= 9 EnMin= -248.244739496924     IErMin= 9 ErrMin= 3.04D-06
 ErrMax= 3.04D-06  0.00D+00 EMaxC= 1.00D-01 BMatC= 1.04D-09 BMatP= 3.45D-09
 IDIUse=1 WtCom= 1.00D+00 WtEn= 0.00D+00
 Coeff-Com: -0.713D-04 0.159D-03 0.484D-03 0.767D-03-0.721D-03-0.102D-01
 Coeff-Com: -0.713D-01 0.361D+00 0.720D+00
 Coeff:     -0.713D-04 0.159D-03 0.484D-03 0.767D-03-0.721D-03-0.102D-01
 Coeff:     -0.713D-01 0.361D+00 0.720D+00
 Gap=     0.317 Goal=   None    Shift=    0.000
 RMSDP=1.40D-07 MaxDP=4.23D-06 DE=-3.42D-09 OVMax= 1.85D-05

 Cycle  10  Pass 1  IDiag  1:
 RMSU=  9.69D-08    CP:  9.67D-01  1.08D+00  1.02D+00  8.31D-01  7.50D-01
                    CP:  1.18D+00  9.62D-01  1.16D+00  1.03D+00
 E= -248.244739498201     Delta-E=       -0.000000001277 Rises=F Damp=F
 DIIS: error= 7.06D-07 at cycle  10 NSaved=  10.
 NSaved=10 IEnMin=10 EnMin= -248.244739498201     IErMin=10 ErrMin= 7.06D-07
 ErrMax= 7.06D-07  0.00D+00 EMaxC= 1.00D-01 BMatC= 6.92D-11 BMatP= 1.04D-09
 IDIUse=1 WtCom= 1.00D+00 WtEn= 0.00D+00
 Coeff-Com: -0.141D-04 0.326D-04 0.150D-03 0.336D-03 0.651D-03 0.918D-04
 Coeff-Com: -0.892D-02-0.102D+00 0.514D-01 0.106D+01
 Coeff:     -0.141D-04 0.326D-04 0.150D-03 0.336D-03 0.651D-03 0.918D-04
 Coeff:     -0.892D-02-0.102D+00 0.514D-01 0.106D+01
 Gap=     0.317 Goal=   None    Shift=    0.000
 RMSDP=4.60D-08 MaxDP=2.01D-06 DE=-1.28D-09 OVMax= 5.53D-06

 Cycle  11  Pass 1  IDiag  1:
 RMSU=  2.90D-08    CP:  9.67D-01  1.08D+00  1.02D+00  8.31D-01  7.50D-01
                    CP:  1.18D+00  9.60D-01  1.18D+00  1.13D+00  1.14D+00
 E= -248.244739498287     Delta-E=       -0.000000000086 Rises=F Damp=F
 DIIS: error= 4.00D-07 at cycle  11 NSaved=  11.
 NSaved=11 IEnMin=11 EnMin= -248.244739498287     IErMin=11 ErrMin= 4.00D-07
 ErrMax= 4.00D-07  0.00D+00 EMaxC= 1.00D-01 BMatC= 1.06D-11 BMatP= 6.92D-11
 IDIUse=1 WtCom= 1.00D+00 WtEn= 0.00D+00
 Coeff-Com: -0.232D-05 0.602D-05 0.492D-04 0.126D-03 0.397D-03 0.944D-03
 Coeff-Com: -0.187D-03-0.834D-01-0.153D-01 0.565D+00 0.532D+00
 Coeff:     -0.232D-05 0.602D-05 0.492D-04 0.126D-03 0.397D-03 0.944D-03
 Coeff:     -0.187D-03-0.834D-01-0.153D-01 0.565D+00 0.532D+00
 Gap=     0.317 Goal=   None    Shift=    0.000
 RMSDP=1.04D-08 MaxDP=5.36D-07 DE=-8.60D-11 OVMax= 1.63D-06

 Cycle  12  Pass 1  IDiag  1:
 RMSU=  9.02D-09    CP:  9.67D-01  1.08D+00  1.02D+00  8.31D-01  7.50D-01
                    CP:  1.18D+00  9.60D-01  1.18D+00  1.14D+00  1.18D+00
                    CP:  1.02D+00
 E= -248.244739498303     Delta-E=       -0.000000000016 Rises=F Damp=F
 DIIS: error= 8.55D-08 at cycle  12 NSaved=  12.
 NSaved=12 IEnMin=12 EnMin= -248.244739498303     IErMin=12 ErrMin= 8.55D-08
 ErrMax= 8.55D-08  0.00D+00 EMaxC= 1.00D-01 BMatC= 4.62D-13 BMatP= 1.06D-11
 IDIUse=1 WtCom= 1.00D+00 WtEn= 0.00D+00
 Coeff-Com:  0.151D-05-0.322D-05-0.635D-05-0.792D-05 0.260D-04 0.384D-03
 Coeff-Com:  0.117D-02-0.984D-02-0.690D-02-0.742D-03 0.156D+00 0.860D+00
 Coeff:      0.151D-05-0.322D-05-0.635D-05-0.792D-05 0.260D-04 0.384D-03
 Coeff:      0.117D-02-0.984D-02-0.690D-02-0.742D-03 0.156D+00 0.860D+00
 Gap=     0.317 Goal=   None    Shift=    0.000
 RMSDP=4.20D-09 MaxDP=1.17D-07 DE=-1.59D-11 OVMax= 3.99D-07

 SCF Done:  E(RM062X) =  -248.244739498     A.U. after   12 cycles
            NFock= 12  Conv=0.42D-08     -V/T= 2.0048
 KE= 2.470617444737D+02 PE=-9.869228758832D+02 EE= 2.863910976233D+02
 Leave Link  502 at Sun Feb 19 12:08:04 2023, MaxMem=  6710886400 cpu:             386.8 elap:              16.2
 (Enter /data0/home/software/g16/l601.exe)
 Copying SCF densities to generalized density rwf, IOpCl= 0 IROHF=0.

 **********************************************************************

            Population analysis using the SCF density.

 **********************************************************************

 Alpha  occ. eigenvalues --  -14.75058 -10.58408 -10.58333 -10.56656 -10.55703
 Alpha  occ. eigenvalues --  -10.55698  -1.04991  -0.90690  -0.86242  -0.71809
 Alpha  occ. eigenvalues --   -0.71451  -0.60853  -0.55196  -0.54684  -0.50122
 Alpha  occ. eigenvalues --   -0.47395  -0.47257  -0.43069  -0.34795  -0.32534
 Alpha  occ. eigenvalues --   -0.32095
 Alpha virt. eigenvalues --   -0.00353   0.00685   0.01109   0.02512   0.02949
 Alpha virt. eigenvalues --    0.04696   0.04949   0.05930   0.07143   0.07660
 Alpha virt. eigenvalues --    0.08731   0.09190   0.09376   0.10390   0.11626
 Alpha virt. eigenvalues --    0.13350   0.13553   0.13819   0.14138   0.14911
 Alpha virt. eigenvalues --    0.15171   0.15888   0.16813   0.18047   0.18773
 Alpha virt. eigenvalues --    0.19062   0.19938   0.20324   0.20977   0.21170
 Alpha virt. eigenvalues --    0.22171   0.22642   0.23139   0.24202   0.24298
 Alpha virt. eigenvalues --    0.25263   0.25797   0.26066   0.26812   0.27619
 Alpha virt. eigenvalues --    0.29031   0.29541   0.30708   0.32470   0.32588
 Alpha virt. eigenvalues --    0.33222   0.34451   0.35203   0.35845   0.36263
 Alpha virt. eigenvalues --    0.36433   0.38079   0.41313   0.44278   0.46766
 Alpha virt. eigenvalues --    0.49471   0.51235   0.51767   0.54413   0.54514
 Alpha virt. eigenvalues --    0.55603   0.56390   0.58934   0.59585   0.60656
 Alpha virt. eigenvalues --    0.63062   0.64460   0.64895   0.65235   0.65923
 Alpha virt. eigenvalues --    0.66124   0.66873   0.67930   0.69175   0.70406
 Alpha virt. eigenvalues --    0.73219   0.76841   0.77100   0.79414   0.79736
 Alpha virt. eigenvalues --    0.80765   0.81262   0.82043   0.82665   0.82770
 Alpha virt. eigenvalues --    0.82917   0.83633   0.84235   0.84437   0.85582
 Alpha virt. eigenvalues --    0.86270   0.86820   0.88168   0.89426   0.90235
 Alpha virt. eigenvalues --    0.91407   0.94129   0.95280   0.96748   0.97412
 Alpha virt. eigenvalues --    0.98928   1.04160   1.05076   1.07229   1.08107
 Alpha virt. eigenvalues --    1.09099   1.10378   1.16635   1.17761   1.20395
 Alpha virt. eigenvalues --    1.21498   1.21708   1.28067   1.30195   1.31963
 Alpha virt. eigenvalues --    1.35209   1.35453   1.36072   1.38547   1.38991
 Alpha virt. eigenvalues --    1.44413   1.44791   1.49860   1.50706   1.52721
 Alpha virt. eigenvalues --    1.53252   1.56479   1.61813   1.63869   1.68358
 Alpha virt. eigenvalues --    1.73697   1.80029   1.83838   1.84565   1.86473
 Alpha virt. eigenvalues --    1.86986   1.89097   1.90442   1.92611   1.94026
 Alpha virt. eigenvalues --    1.94152   1.99693   2.00842   2.02091   2.11454
 Alpha virt. eigenvalues --    2.12901   2.17353   2.17533   2.20210   2.25295
 Alpha virt. eigenvalues --    2.26043   2.28715   2.29844   2.32434   2.38148
 Alpha virt. eigenvalues --    2.39502   2.41197   2.47694   2.50440   2.51028
 Alpha virt. eigenvalues --    2.53797   2.59383   2.61480   2.64293   2.64998
 Alpha virt. eigenvalues --    2.67245   2.67613   2.67947   2.69943   2.70959
 Alpha virt. eigenvalues --    2.71544   2.73286   2.74911   2.75100   2.75863
 Alpha virt. eigenvalues --    2.76115   2.76445   2.79922   2.80234   2.81971
 Alpha virt. eigenvalues --    2.83983   2.84952   2.87663   2.87896   2.89930
 Alpha virt. eigenvalues --    2.93509   2.96661   2.98475   3.01094   3.04293
 Alpha virt. eigenvalues --    3.06685   3.07829   3.08202   3.10757   3.11887
 Alpha virt. eigenvalues --    3.12943   3.13898   3.18476   3.21132   3.22322
 Alpha virt. eigenvalues --    3.24115   3.25598   3.28235   3.28381   3.28873
 Alpha virt. eigenvalues --    3.29147   3.35886   3.42445   3.42757   3.46291
 Alpha virt. eigenvalues --    3.53897   3.55065   3.56842   3.57394   3.57587
 Alpha virt. eigenvalues --    3.59317   3.60508   3.62582   3.63167   3.65314
 Alpha virt. eigenvalues --    3.65492   3.69043   3.71823   3.71916   3.76438
 Alpha virt. eigenvalues --    3.79451   3.81431   3.82967   3.85779   3.88934
 Alpha virt. eigenvalues --    3.89888   3.95885   3.96755   3.99061   4.03577
 Alpha virt. eigenvalues --    4.45479   4.50715   4.54397   4.66260   4.73386
 Alpha virt. eigenvalues --    4.81510   4.83175   4.95756   5.00059   5.05275
 Alpha virt. eigenvalues --    5.13184   5.23146   5.26041   5.34078   5.37493
 Alpha virt. eigenvalues --    5.57039   5.61341  10.24134  10.25497  10.26439
 Alpha virt. eigenvalues --   10.27678  10.30235  10.32465  10.34634  10.37690
 Alpha virt. eigenvalues --   10.39472  10.41865  10.43840  10.47993  10.55763
 Alpha virt. eigenvalues --   10.65526  10.70860  13.39500  13.44768  13.47297
 Alpha virt. eigenvalues --   13.79377  13.83881  13.88416  14.28401  14.33253
 Alpha virt. eigenvalues --   14.36286  18.40165  18.44340  18.53054  23.81279
 Alpha virt. eigenvalues --   24.05351  24.06493  24.09784  24.13702  35.73776
 Alpha virt. eigenvalues --  139.72683 139.74348 139.77539
          Condensed to atoms (all electrons):
               1          2          3          4          5          6
     1  C    5.214588   0.266959   0.091873  -0.251512   0.153275   0.213663
     2  C    0.266959   4.964750   0.457561   0.104735  -0.235588   0.134359
     3  C    0.091873   0.457561   4.889950   0.448749   0.093320  -0.103977
     4  C   -0.251512   0.104735   0.448749   4.989838   0.251638   0.139985
     5  C    0.153275  -0.235588   0.093320   0.251638   5.228772   0.228107
     6  N    0.213663   0.134359  -0.103977   0.139985   0.228107   6.708003
     7  H   -0.000280  -0.010715   0.364785  -0.009201  -0.000526   0.000281
     8  H    0.444622  -0.069799   0.018569  -0.011224   0.019061  -0.073916
     9  H   -0.018203   0.375532  -0.027172   0.011636  -0.001163   0.002840
    10  H   -0.000938   0.011332  -0.026112   0.373720  -0.017581   0.002936
    11  H    0.018756  -0.010962   0.017741  -0.070403   0.444134  -0.073865
    12  O   -0.000041   0.000029  -0.000012   0.000172   0.000254  -0.000012
    13  H    0.000024  -0.000026   0.000012  -0.000163   0.000005  -0.000049
    14  H    0.000020  -0.000009  -0.000004  -0.000040  -0.000228   0.000014
    15  O   -0.000001  -0.000000  -0.000000   0.000003   0.000017  -0.000010
    16  H    0.000002  -0.000001   0.000000  -0.000008  -0.000040   0.000015
    17  H   -0.000000  -0.000000   0.000000  -0.000001  -0.000002   0.000000
    18  O    0.000017   0.000005  -0.000001  -0.000001  -0.000015  -0.000021
    19  H   -0.000014  -0.000010   0.000001  -0.000004   0.000008  -0.000009
    20  H   -0.000003  -0.000001   0.000000   0.000001   0.000003   0.000010
               7          8          9         10         11         12
     1  C   -0.000280   0.444622  -0.018203  -0.000938   0.018756  -0.000041
     2  C   -0.010715  -0.069799   0.375532   0.011332  -0.010962   0.000029
     3  C    0.364785   0.018569  -0.027172  -0.026112   0.017741  -0.000012
     4  C   -0.009201  -0.011224   0.011636   0.373720  -0.070403   0.000172
     5  C   -0.000526   0.019061  -0.001163  -0.017581   0.444134   0.000254
     6  N    0.000281  -0.073916   0.002840   0.002936  -0.073865  -0.000012
     7  H    0.532544  -0.000264  -0.004377  -0.004434  -0.000260  -0.000000
     8  H   -0.000264   0.542873  -0.002127   0.000097   0.000042   0.000000
     9  H   -0.004377  -0.002127   0.530060  -0.000234   0.000096   0.000000
    10  H   -0.004434   0.000097  -0.000234   0.530337  -0.002063   0.000000
    11  H   -0.000260   0.000042   0.000096  -0.002063   0.541422   0.000040
    12  O   -0.000000   0.000000   0.000000   0.000000   0.000040   0.000528
    13  H    0.000000   0.000000  -0.000000   0.000000   0.000002  -0.000219
    14  H    0.000000  -0.000000   0.000000  -0.000000  -0.000020  -0.000254
    15  O    0.000000   0.000000  -0.000000   0.000000   0.000001   0.000125
    16  H    0.000000  -0.000000  -0.000000  -0.000000  -0.000002  -0.000214
    17  H    0.000000  -0.000000  -0.000000  -0.000000  -0.000000  -0.000021
    18  O   -0.000000   0.000001   0.000000   0.000000   0.000001  -0.000000
    19  H    0.000000   0.000000  -0.000000  -0.000000  -0.000000  -0.000000
    20  H    0.000000  -0.000000  -0.000000  -0.000000  -0.000000  -0.000003
              13         14         15         16         17         18
     1  C    0.000024   0.000020  -0.000001   0.000002  -0.000000   0.000017
     2  C   -0.000026  -0.000009  -0.000000  -0.000001  -0.000000   0.000005
     3  C    0.000012  -0.000004  -0.000000   0.000000   0.000000  -0.000001
     4  C   -0.000163  -0.000040   0.000003  -0.000008  -0.000001  -0.000001
     5  C    0.000005  -0.000228   0.000017  -0.000040  -0.000002  -0.000015
     6  N   -0.000049   0.000014  -0.000010   0.000015   0.000000  -0.000021
     7  H    0.000000   0.000000   0.000000   0.000000   0.000000  -0.000000
     8  H    0.000000  -0.000000   0.000000  -0.000000  -0.000000   0.000001
     9  H   -0.000000   0.000000  -0.000000  -0.000000  -0.000000   0.000000
    10  H    0.000000  -0.000000   0.000000  -0.000000  -0.000000   0.000000
    11  H    0.000002  -0.000020   0.000001  -0.000002  -0.000000   0.000001
    12  O   -0.000219  -0.000254   0.000125  -0.000214  -0.000021  -0.000000
    13  H    0.000146   0.000075  -0.000033   0.000061   0.000006   0.000002
    14  H    0.000075   0.000173  -0.000036   0.000073   0.000006   0.000000
    15  O   -0.000033  -0.000036   0.000203  -0.000198  -0.000061   0.000006
    16  H    0.000061   0.000073  -0.000198   0.000242   0.000045  -0.000004
    17  H    0.000006   0.000006  -0.000061   0.000045   0.000027   0.000000
    18  O    0.000002   0.000000   0.000006  -0.000004   0.000000   0.000059
    19  H    0.000000   0.000000  -0.000001   0.000001   0.000001  -0.000030
    20  H   -0.000001   0.000000  -0.000011   0.000009  -0.000000  -0.000032
              19         20
     1  C   -0.000014  -0.000003
     2  C   -0.000010  -0.000001
     3  C    0.000001   0.000000
     4  C   -0.000004   0.000001
     5  C    0.000008   0.000003
     6  N   -0.000009   0.000010
     7  H    0.000000   0.000000
     8  H    0.000000  -0.000000
     9  H   -0.000000  -0.000000
    10  H   -0.000000  -0.000000
    11  H   -0.000000  -0.000000
    12  O   -0.000000  -0.000003
    13  H    0.000000  -0.000001
    14  H    0.000000   0.000000
    15  O   -0.000001  -0.000011
    16  H    0.000001   0.000009
    17  H    0.000001  -0.000000
    18  O   -0.000030  -0.000032
    19  H    0.000027   0.000008
    20  H    0.000008   0.000028
 Mulliken charges:
               1
     1  C   -0.132805
     2  C    0.011849
     3  C   -0.225282
     4  C    0.022080
     5  C   -0.163452
     6  N   -0.178356
     7  H    0.132447
     8  H    0.132065
     9  H    0.133112
    10  H    0.132940
    11  H    0.135340
    12  O   -0.000373
    13  H    0.000158
    14  H    0.000229
    15  O   -0.000003
    16  H    0.000021
    17  H    0.000001
    18  O    0.000015
    19  H    0.000024
    20  H   -0.000010
 Sum of Mulliken charges =  -0.00000
 Mulliken charges with hydrogens summed into heavy atoms:
               1
     1  C   -0.000740
     2  C    0.144961
     3  C   -0.092835
     4  C    0.155021
     5  C   -0.028112
     6  N   -0.178356
    12  O    0.000014
    15  O    0.000020
    18  O    0.000028
         Mulliken charges condensed to fragments:
      1     -0.000062
      2      0.000014
      3      0.000020
      4      0.000028
 Electronic spatial extent (au):  <R**2>=          52980.5774
 Charge=             -0.0000 electrons
 Dipole moment (field-independent basis, Debye):
    X=              1.0050    Y=              1.8946    Z=              0.6993  Tot=              2.2557
 Quadrupole moment (field-independent basis, Debye-Ang):
   XX=             -7.6885   YY=              0.0550   ZZ=            -20.1293
   XY=             35.6672   XZ=             13.8536   YZ=             24.3991
 Traceless Quadrupole moment (field-independent basis, Debye-Ang):
   XX=              1.5657   YY=              9.3093   ZZ=            -10.8750
   XY=             35.6672   XZ=             13.8536   YZ=             24.3991
 Octapole moment (field-independent basis, Debye-Ang**2):
  XXX=           -843.5687  YYY=           -532.0252  ZZZ=           -696.3291  XYY=            113.9945
  XXY=            279.2900  XXZ=            -57.6380  XZZ=           -266.1126  YZZ=            -34.1794
  YYZ=             88.1521  XYZ=            377.5310
 Hexadecapole moment (field-independent basis, Debye-Ang**3):
 XXXX=         -27440.0692 YYYY=         -13976.7027 ZZZZ=         -13457.8356 XXXY=          -3395.0845
 XXXZ=          -8002.5839 YYYX=          -5858.5769 YYYZ=          -3705.8924 ZZZX=          -9559.4311
 ZZZY=          -5328.2832 XXYY=           -287.8165 XXZZ=          -6235.7881 YYZZ=          -1614.1992
 XXYZ=           2771.5529 YYXZ=           1824.5898 ZZXY=           -354.9108
 N-N= 2.052252942879D+02 E-N=-9.869228772655D+02  KE= 2.470617444737D+02
 No NMR shielding tensors so no spin-rotation constants.
 Leave Link  601 at Sun Feb 19 12:08:04 2023, MaxMem=  6710886400 cpu:               2.3 elap:               0.1
 (Enter /data0/home/software/g16/l122.exe)
 CPIOFr:  IOpCl= 0 IRwI=-1 IRwCP=  731 ICalc=  1 LCPTot=      148866 Len1MO=      388541 IndFrg=      925948
 Counterpoise: doing calculation for fragment   2 using the basis set of the full-system, NewBq=T
 Leave Link  122 at Sun Feb 19 12:08:05 2023, MaxMem=  6710886400 cpu:               0.1 elap:               0.0
 (Enter /data0/home/software/g16/l301.exe)
 Basis read from rwf:  (5D, 7F)
 No pseudopotential information found on rwf file.
   309 basis functions,   466 primitive gaussians,   327 cartesian basis functions
     5 alpha electrons        5 beta electrons
       nuclear repulsion energy         9.1205685883 Hartrees.
 IExCor= 4336 DFT=T Ex+Corr=M062X ExCW=0 ScaHFX=  0.540000
 ScaDFX=  1.000000  1.000000  1.000000  1.000000 ScalE2=  1.000000  1.000000
 IRadAn=      5 IRanWt=     -1 IRanGd=            0 ICorTp=0 IEmpDi=131
 NAtoms=   20 NActive=   20 NUniq=   20 SFac= 1.00D+00 NAtFMM=   60 NAOKFM=F Big=F
 Integral buffers will be    131072 words long.
 Raffenetti 2 integral format.
 Two-electron integral symmetry is turned off.
 R6Disp:  Grimme-D3 Dispersion energy=       -0.0000000075 Hartrees.
 Nuclear repulsion after empirical dispersion term =        9.1205685808 Hartrees.
 No density basis found on file   718.
 Leave Link  301 at Sun Feb 19 12:08:05 2023, MaxMem=  6710886400 cpu:               1.3 elap:               0.1
 (Enter /data0/home/software/g16/l302.exe)
 NPDir=0 NMtPBC=     1 NCelOv=     1 NCel=       1 NClECP=     1 NCelD=      1
         NCelK=      1 NCelE2=     1 NClLst=     1 CellRange=     0.0.
 One-electron integrals computed using PRISM.
 NBasis=   309 RedAO= T EigKep=  1.79D-05  NBF=   309
 NBsUse=   309 1.00D-06 EigRej= -1.00D+00 NBFU=   309
 Precomputing XC quadrature grid using
 IXCGrd= 4 IRadAn=           5 IRanWt=          -1 IRanGd=           0 AccXCQ= 0.00D+00.
 Generated NRdTot=       0 NPtTot=           0 NUsed=           0 NTot=          32
 NSgBfM=   315   315   315   315   315 MxSgAt=    20 MxSgA2=    20.
 Leave Link  302 at Sun Feb 19 12:08:05 2023, MaxMem=  6710886400 cpu:               4.9 elap:               0.2
 (Enter /data0/home/software/g16/l303.exe)
 DipDrv:  MaxL=1.
 Leave Link  303 at Sun Feb 19 12:08:05 2023, MaxMem=  6710886400 cpu:               0.7 elap:               0.0
 (Enter /data0/home/software/g16/l401.exe)
 ExpMin= 4.38D-02 ExpMax= 8.59D+03 ExpMxC= 1.30D+03 IAcc=3 IRadAn=         5 AccDes= 0.00D+00
 Harris functional with IExCor= 1009 and IRadAn=       5 diagonalized for initial guess.
 HarFok:  IExCor= 1009 AccDes= 0.00D+00 IRadAn=         5 IDoV= 1 UseB2=F ITyADJ=14
 ICtDFT=  3500011 ScaDFX=  1.000000  1.000000  1.000000  1.000000
 FoFCou: FMM=F IPFlag=           0 FMFlag=      100000 FMFlg1=           0
         NFxFlg=           0 DoJE=T BraDBF=F KetDBF=T FulRan=T
         wScrn=  0.000000 ICntrl=       500 IOpCl=  0 I1Cent=   200000004 NGrid=           0
         NMat0=    1 NMatS0=      1 NMatT0=    0 NMatD0=    1 NMtDS0=    0 NMtDT0=    0
 Symmetry not used in FoFCou.
 Harris En= -76.4173331805138    
 JPrj=0 DoOrth=F DoCkMO=F.
 Leave Link  401 at Sun Feb 19 12:08:06 2023, MaxMem=  6710886400 cpu:              14.5 elap:               0.6
 (Enter /data0/home/software/g16/l502.exe)
 Two-electron integral symmetry not used.
 Closed shell SCF:
 Using DIIS extrapolation, IDIIS=  1040.
 NGot=  6710886400 LenX=  6710662307 LenY=  6710554937
 Requested convergence on RMS density matrix=1.00D-08 within 128 cycles.
 Requested convergence on MAX density matrix=1.00D-06.
 Requested convergence on             energy=1.00D-06.
 No special actions if energy rises.
 Fock matrices will be formed incrementally for  20 cycles.

 Cycle   1  Pass 1  IDiag  1:
 FoFJK:  IHMeth= 1 ICntrl=       0 DoSepK=F KAlg= 0 I1Cent=           0 FoldK=F
 IRaf= 780000000 NMat=       1 IRICut=       1 DoRegI=T DoRafI=F ISym2E= 0 IDoP0=0 IntGTp=1.
 FoFCou: FMM=F IPFlag=           0 FMFlag=      100000 FMFlg1=           0
         NFxFlg=           0 DoJE=F BraDBF=F KetDBF=F FulRan=T
         wScrn=  0.000000 ICntrl=         0 IOpCl=  0 I1Cent=           0 NGrid=           0
         NMat0=    1 NMatS0=      1 NMatT0=    0 NMatD0=    1 NMtDS0=    0 NMtDT0=    0
 Symmetry not used in FoFCou.
 E= -76.3474310063223    
 DIIS: error= 3.83D-02 at cycle   1 NSaved=   1.
 NSaved= 1 IEnMin= 1 EnMin= -76.3474310063223     IErMin= 1 ErrMin= 3.83D-02
 ErrMax= 3.83D-02  0.00D+00 EMaxC= 1.00D-01 BMatC= 1.21D-01 BMatP= 1.21D-01
 IDIUse=3 WtCom= 6.17D-01 WtEn= 3.83D-01
 Coeff-Com:  0.100D+01
 Coeff-En:   0.100D+01
 Coeff:      0.100D+01
 Gap=     0.278 Goal=   None    Shift=    0.000
 GapD=    0.278 DampG=1.000 DampE=0.500 DampFc=0.5000 IDamp=-1.
 Damping current iteration by 5.00D-01
 RMSDP=2.16D-03 MaxDP=1.00D-01              OVMax= 1.73D-01

 Cycle   2  Pass 1  IDiag  1:
 RMSU=  1.08D-03    CP:  1.01D+00
 E= -76.3785206240560     Delta-E=       -0.031089617734 Rises=F Damp=T
 DIIS: error= 6.10D-03 at cycle   2 NSaved=   2.
 NSaved= 2 IEnMin= 2 EnMin= -76.3785206240560     IErMin= 2 ErrMin= 6.10D-03
 ErrMax= 6.10D-03  0.00D+00 EMaxC= 1.00D-01 BMatC= 4.94D-03 BMatP= 1.21D-01
 IDIUse=3 WtCom= 9.39D-01 WtEn= 6.10D-02
 Coeff-Com:  0.857D-01 0.914D+00
 Coeff-En:   0.195D+00 0.805D+00
 Coeff:      0.923D-01 0.908D+00
 Gap=     0.399 Goal=   None    Shift=    0.000
 RMSDP=4.57D-04 MaxDP=1.95D-02 DE=-3.11D-02 OVMax= 1.04D-01

 Cycle   3  Pass 1  IDiag  1:
 RMSU=  2.80D-04    CP:  1.00D+00  6.65D-01
 E= -76.4227676830599     Delta-E=       -0.044247059004 Rises=F Damp=F
 DIIS: error= 1.34D-03 at cycle   3 NSaved=   3.
 NSaved= 3 IEnMin= 3 EnMin= -76.4227676830599     IErMin= 3 ErrMin= 1.34D-03
 ErrMax= 1.34D-03  0.00D+00 EMaxC= 1.00D-01 BMatC= 1.45D-04 BMatP= 4.94D-03
 IDIUse=3 WtCom= 9.87D-01 WtEn= 1.34D-02
 Coeff-Com: -0.272D-01 0.495D-01 0.978D+00
 Coeff-En:   0.000D+00 0.000D+00 0.100D+01
 Coeff:     -0.268D-01 0.488D-01 0.978D+00
 Gap=     0.402 Goal=   None    Shift=    0.000
 RMSDP=3.22D-05 MaxDP=1.23D-03 DE=-4.42D-02 OVMax= 3.86D-03

 Cycle   4  Pass 1  IDiag  1:
 RMSU=  2.43D-05    CP:  9.99D-01  6.61D-01  1.07D+00
 E= -76.4228838797805     Delta-E=       -0.000116196721 Rises=F Damp=F
 DIIS: error= 1.62D-04 at cycle   4 NSaved=   4.
 NSaved= 4 IEnMin= 4 EnMin= -76.4228838797805     IErMin= 4 ErrMin= 1.62D-04
 ErrMax= 1.62D-04  0.00D+00 EMaxC= 1.00D-01 BMatC= 2.71D-06 BMatP= 1.45D-04
 IDIUse=3 WtCom= 9.98D-01 WtEn= 1.62D-03
 Coeff-Com: -0.264D-02-0.152D-03 0.142D+00 0.861D+00
 Coeff-En:   0.000D+00 0.000D+00 0.000D+00 0.100D+01
 Coeff:     -0.264D-02-0.152D-03 0.142D+00 0.861D+00
 Gap=     0.403 Goal=   None    Shift=    0.000
 RMSDP=7.26D-06 MaxDP=3.26D-04 DE=-1.16D-04 OVMax= 5.25D-04

 Cycle   5  Pass 1  IDiag  1:
 RMSU=  3.00D-06    CP:  9.99D-01  6.56D-01  1.07D+00  1.11D+00
 E= -76.4228856195193     Delta-E=       -0.000001739739 Rises=F Damp=F
 DIIS: error= 3.09D-05 at cycle   5 NSaved=   5.
 NSaved= 5 IEnMin= 5 EnMin= -76.4228856195193     IErMin= 5 ErrMin= 3.09D-05
 ErrMax= 3.09D-05  0.00D+00 EMaxC= 1.00D-01 BMatC= 7.28D-08 BMatP= 2.71D-06
 IDIUse=1 WtCom= 1.00D+00 WtEn= 0.00D+00
 Coeff-Com:  0.141D-02-0.220D-02-0.361D-01-0.421D-01 0.108D+01
 Coeff:      0.141D-02-0.220D-02-0.361D-01-0.421D-01 0.108D+01
 Gap=     0.403 Goal=   None    Shift=    0.000
 RMSDP=4.70D-06 MaxDP=2.31D-04 DE=-1.74D-06 OVMax= 2.08D-04

 Cycle   6  Pass 1  IDiag  1:
 RMSU=  1.05D-06    CP:  9.98D-01  6.52D-01  1.08D+00  1.19D+00  1.23D+00
 E= -76.4228857475052     Delta-E=       -0.000000127986 Rises=F Damp=F
 DIIS: error= 5.50D-06 at cycle   6 NSaved=   6.
 NSaved= 6 IEnMin= 6 EnMin= -76.4228857475052     IErMin= 6 ErrMin= 5.50D-06
 ErrMax= 5.50D-06  0.00D+00 EMaxC= 1.00D-01 BMatC= 1.79D-09 BMatP= 7.28D-08
 IDIUse=1 WtCom= 1.00D+00 WtEn= 0.00D+00
 Coeff-Com: -0.270D-03 0.387D-03 0.355D-02-0.829D-02-0.155D+00 0.116D+01
 Coeff:     -0.270D-03 0.387D-03 0.355D-02-0.829D-02-0.155D+00 0.116D+01
 Gap=     0.403 Goal=   None    Shift=    0.000
 RMSDP=6.12D-07 MaxDP=3.36D-05 DE=-1.28D-07 OVMax= 3.85D-05

 Cycle   7  Pass 1  IDiag  1:
 RMSU=  1.17D-07    CP:  9.98D-01  6.52D-01  1.08D+00  1.20D+00  1.29D+00
                    CP:  1.26D+00
 E= -76.4228857510638     Delta-E=       -0.000000003559 Rises=F Damp=F
 DIIS: error= 4.76D-07 at cycle   7 NSaved=   7.
 NSaved= 7 IEnMin= 7 EnMin= -76.4228857510638     IErMin= 7 ErrMin= 4.76D-07
 ErrMax= 4.76D-07  0.00D+00 EMaxC= 1.00D-01 BMatC= 2.26D-11 BMatP= 1.79D-09
 IDIUse=1 WtCom= 1.00D+00 WtEn= 0.00D+00
 Coeff-Com:  0.206D-04-0.113D-04-0.190D-03 0.189D-02-0.185D-02-0.115D+00
 Coeff-Com:  0.111D+01
 Coeff:      0.206D-04-0.113D-04-0.190D-03 0.189D-02-0.185D-02-0.115D+00
 Coeff:      0.111D+01
 Gap=     0.403 Goal=   None    Shift=    0.000
 RMSDP=8.53D-08 MaxDP=4.64D-06 DE=-3.56D-09 OVMax= 5.00D-06

 Cycle   8  Pass 1  IDiag  1:
 RMSU=  1.61D-08    CP:  9.98D-01  6.52D-01  1.08D+00  1.20D+00  1.29D+00
                    CP:  1.30D+00  1.18D+00
 E= -76.4228857511152     Delta-E=       -0.000000000051 Rises=F Damp=F
 DIIS: error= 9.32D-08 at cycle   8 NSaved=   8.
 NSaved= 8 IEnMin= 8 EnMin= -76.4228857511152     IErMin= 8 ErrMin= 9.32D-08
 ErrMax= 9.32D-08  0.00D+00 EMaxC= 1.00D-01 BMatC= 1.10D-12 BMatP= 2.26D-11
 IDIUse=1 WtCom= 1.00D+00 WtEn= 0.00D+00
 Coeff-Com:  0.110D-04-0.139D-04-0.110D-03 0.581D-03 0.400D-02-0.476D-01
 Coeff-Com:  0.146D+00 0.897D+00
 Coeff:      0.110D-04-0.139D-04-0.110D-03 0.581D-03 0.400D-02-0.476D-01
 Coeff:      0.146D+00 0.897D+00
 Gap=     0.403 Goal=   None    Shift=    0.000
 RMSDP=5.51D-09 MaxDP=2.62D-07 DE=-5.13D-11 OVMax= 5.69D-07

 SCF Done:  E(RM062X) =  -76.4228857511     A.U. after    8 cycles
            NFock=  8  Conv=0.55D-08     -V/T= 2.0030
 KE= 7.619596371822D+01 PE=-1.990866297585D+02 EE= 3.734721170844D+01
 Leave Link  502 at Sun Feb 19 12:08:16 2023, MaxMem=  6710886400 cpu:             239.7 elap:              10.0
 (Enter /data0/home/software/g16/l601.exe)
 Copying SCF densities to generalized density rwf, IOpCl= 0 IROHF=0.

 **********************************************************************

            Population analysis using the SCF density.

 **********************************************************************

 Alpha  occ. eigenvalues --  -19.62662  -1.13446  -0.60774  -0.47646  -0.40058
 Alpha virt. eigenvalues --    0.00221   0.03412   0.04604   0.05919   0.06478
 Alpha virt. eigenvalues --    0.07145   0.08619   0.09285   0.09939   0.11260
 Alpha virt. eigenvalues --    0.11588   0.12068   0.12378   0.13623   0.14398
 Alpha virt. eigenvalues --    0.15127   0.16135   0.16206   0.16351   0.17347
 Alpha virt. eigenvalues --    0.17771   0.18485   0.18764   0.19124   0.20418
 Alpha virt. eigenvalues --    0.21062   0.21690   0.22253   0.22750   0.23658
 Alpha virt. eigenvalues --    0.24163   0.24566   0.24820   0.25194   0.26017
 Alpha virt. eigenvalues --    0.26135   0.27640   0.29905   0.30822   0.31287
 Alpha virt. eigenvalues --    0.31839   0.32989   0.34045   0.35567   0.38634
 Alpha virt. eigenvalues --    0.39375   0.39888   0.40678   0.42268   0.44443
 Alpha virt. eigenvalues --    0.45598   0.48602   0.49539   0.50506   0.51606
 Alpha virt. eigenvalues --    0.54637   0.55928   0.56709   0.59136   0.61017
 Alpha virt. eigenvalues --    0.61273   0.63136   0.63394   0.65641   0.66735
 Alpha virt. eigenvalues --    0.68132   0.68762   0.72261   0.75253   0.77796
 Alpha virt. eigenvalues --    0.79603   0.79785   0.80431   0.81239   0.81969
 Alpha virt. eigenvalues --    0.86091   0.88209   0.90469   0.92521   0.92628
 Alpha virt. eigenvalues --    0.94274   0.96056   0.97406   0.98947   1.02181
 Alpha virt. eigenvalues --    1.02712   1.06299   1.08205   1.08787   1.10419
 Alpha virt. eigenvalues --    1.10939   1.15318   1.16826   1.17253   1.18525
 Alpha virt. eigenvalues --    1.19650   1.20906   1.22582   1.22961   1.24657
 Alpha virt. eigenvalues --    1.26925   1.29011   1.32813   1.34848   1.35233
 Alpha virt. eigenvalues --    1.40117   1.41681   1.42734   1.43429   1.44529
 Alpha virt. eigenvalues --    1.44889   1.49105   1.49353   1.50782   1.53685
 Alpha virt. eigenvalues --    1.56231   1.59069   1.59200   1.63728   1.65258
[...]
 Alpha virt. eigenvalues --    0.06283   0.13333   0.17390   0.17948   0.18944
 Alpha virt. eigenvalues --    0.23254   0.51029   0.53635   0.97847   1.00241
 Alpha virt. eigenvalues --    1.06039   1.18727   1.19872   1.32517   1.33840
 Alpha virt. eigenvalues --    1.69536   1.74071   1.75851   2.07484   2.09605
 Alpha virt. eigenvalues --    2.35301   2.42231   2.54369   2.88459   3.01361
 Alpha virt. eigenvalues --    5.05692   5.47735   5.93042   6.78243   6.80284
 Alpha virt. eigenvalues --    6.87058   6.91475   7.09532  49.95944
          Condensed to atoms (all electrons):
              15         16         17
    15  O    7.915205   0.319076   0.323233
    16  H    0.319076   0.424814  -0.024516
    17  H    0.323233  -0.024516   0.424396
 Mulliken charges:
               1
     1  C    0.000000
     2  C    0.000000
     3  C    0.000000
     4  C    0.000000
     5  C    0.000000
     6  N    0.000000
     7  H    0.000000
     8  H    0.000000
     9  H    0.000000
    10  H    0.000000
    11  H    0.000000
    12  O    0.000000
    13  H    0.000000
    14  H    0.000000
    15  O   -0.557514
    16  H    0.280626
    17  H    0.276887
    18  O    0.000000
    19  H    0.000000
    20  H    0.000000
 Sum of Mulliken charges =   0.00000
 Mulliken charges with hydrogens summed into heavy atoms:
               1
     1  C    0.000000
     2  C    0.000000
     3  C    0.000000
     4  C    0.000000
     5  C    0.000000
     6  N    0.000000
    12  O    0.000000
    15  O    0.000000
    18  O    0.000000
         Mulliken charges condensed to fragments:
      1      0.000000
      2      0.000000
      3      0.000000
      4      0.000000
 Electronic spatial extent (au):  <R**2>=           4852.8644
 Charge=              0.0000 electrons
 Dipole moment (field-independent basis, Debye):
    X=              1.2268    Y=             -0.0509    Z=             -1.7168  Tot=              2.1107
 Quadrupole moment (field-independent basis, Debye-Ang):
   XX=             16.1453   YY=             -7.2930   ZZ=            -18.9362
   XY=              8.8305   XZ=            -10.3231   YZ=            -10.4598
 Traceless Quadrupole moment (field-independent basis, Debye-Ang):
   XX=             19.5066   YY=             -3.9317   ZZ=            -15.5749
   XY=              8.8305   XZ=            -10.3231   YZ=            -10.4598
 Octapole moment (field-independent basis, Debye-Ang**2):
  XXX=            141.0272  YYY=           -135.9590  ZZZ=           -141.7320  XYY=              4.3293
  XXY=            124.6460  XXZ=            -69.3728  XZZ=           -148.7353  YZZ=           -117.6610
  YYZ=            -88.7306  XYZ=            -56.1690
 Hexadecapole moment (field-independent basis, Debye-Ang**3):
 XXXX=            799.8728 YYYY=          -1749.4193 ZZZZ=           -897.3081 XXXY=           1203.7375
 XXXZ=           -603.9793 YYYX=           -699.6634 YYYZ=           -876.6289 ZZZX=          -1182.8062
 ZZZY=           -892.0268 XXYY=            417.5702 XXZZ=          -1232.0976 YYZZ=           -828.1965
 XXYZ=           -310.1732 YYXZ=           -517.5850 ZZXY=           -901.5074
 N-N= 9.109667024597D+00 E-N=-1.990721267161D+02  KE= 7.619793202953D+01
 No NMR shielding tensors so no spin-rotation constants.
 Leave Link  601 at Sun Feb 19 12:08:51 2023, MaxMem=  6710886400 cpu:               1.8 elap:               0.1
 (Enter /data0/home/software/g16/l122.exe)
 CPIOFr:  IOpCl= 0 IRwI=-1 IRwCP=  731 ICalc=  7 LCPTot=      148866 Len1MO=      388541 IndFrg=     3257194
 Counterpoise: doing calculation for fragment   4 using the basis set of the fragment.
 Leave Link  122 at Sun Feb 19 12:08:51 2023, MaxMem=  6710886400 cpu:               0.1 elap:               0.0
 (Enter /data0/home/software/g16/l301.exe)
 Basis read from rwf:  (5D, 7F)
 No pseudopotential information found on rwf file.
    39 basis functions,    58 primitive gaussians,    41 cartesian basis functions
     5 alpha electrons        5 beta electrons
       nuclear repulsion energy         9.0884278623 Hartrees.
 IExCor= 4336 DFT=T Ex+Corr=M062X ExCW=0 ScaHFX=  0.540000
 ScaDFX=  1.000000  1.000000  1.000000  1.000000 ScalE2=  1.000000  1.000000
 IRadAn=      5 IRanWt=     -1 IRanGd=            0 ICorTp=0 IEmpDi=131
 NAtoms=   20 NActive=    3 NUniq=    3 SFac= 1.00D+00 NAtFMM=   60 NAOKFM=F Big=F
 Integral buffers will be    131072 words long.
 Raffenetti 2 integral format.
 Two-electron integral symmetry is turned off.
 R6Disp:  Grimme-D3 Dispersion energy=       -0.0000000079 Hartrees.
 Nuclear repulsion after empirical dispersion term =        9.0884278544 Hartrees.
 No density basis found on file   718.
 Leave Link  301 at Sun Feb 19 12:08:51 2023, MaxMem=  6710886400 cpu:               1.3 elap:               0.1
 (Enter /data0/home/software/g16/l302.exe)
 NPDir=0 NMtPBC=     1 NCelOv=     1 NCel=       1 NClECP=     1 NCelD=      1
         NCelK=      1 NCelE2=     1 NClLst=     1 CellRange=     0.0.
 One-electron integrals computed using PRISM.
 NBasis=    39 RedAO= T EigKep=  3.07D-03  NBF=    39
 NBsUse=    39 1.00D-06 EigRej= -1.00D+00 NBFU=    39
 Precomputing XC quadrature grid using
 IXCGrd= 4 IRadAn=           5 IRanWt=          -1 IRanGd=           0 AccXCQ= 0.00D+00.
 Generated NRdTot=       0 NPtTot=           0 NUsed=           0 NTot=          32
 NSgBfM=    41    41    41    41    41 MxSgAt=     3 MxSgA2=     3.
 Leave Link  302 at Sun Feb 19 12:08:51 2023, MaxMem=  6710886400 cpu:               2.3 elap:               0.1
 (Enter /data0/home/software/g16/l303.exe)
 DipDrv:  MaxL=1.
 Leave Link  303 at Sun Feb 19 12:08:51 2023, MaxMem=  6710886400 cpu:               0.4 elap:               0.0
 (Enter /data0/home/software/g16/l401.exe)
 ExpMin= 8.45D-02 ExpMax= 8.59D+03 ExpMxC= 1.30D+03 IAcc=3 IRadAn=         5 AccDes= 0.00D+00
 Harris functional with IExCor= 1009 and IRadAn=       5 diagonalized for initial guess.
 HarFok:  IExCor= 1009 AccDes= 0.00D+00 IRadAn=         5 IDoV= 1 UseB2=F ITyADJ=14
 ICtDFT=  3500011 ScaDFX=  1.000000  1.000000  1.000000  1.000000
 FoFCou: FMM=F IPFlag=           0 FMFlag=      100000 FMFlg1=           0
         NFxFlg=           0 DoJE=T BraDBF=F KetDBF=T FulRan=T
         wScrn=  0.000000 ICntrl=       500 IOpCl=  0 I1Cent=   200000004 NGrid=           0
         NMat0=    1 NMatS0=      1 NMatT0=    0 NMatD0=    1 NMtDS0=    0 NMtDT0=    0
 Symmetry not used in FoFCou.
 Harris En= -76.4164245850557    
 JPrj=0 DoOrth=F DoCkMO=F.
 Leave Link  401 at Sun Feb 19 12:08:51 2023, MaxMem=  6710886400 cpu:               2.9 elap:               0.1
 (Enter /data0/home/software/g16/l502.exe)
 Keep R1 ints in memory in canonical form, NReq=21039189.
 FoFCou: FMM=F IPFlag=           0 FMFlag=           0 FMFlg1=           0
         NFxFlg=           0 DoJE=F BraDBF=F KetDBF=F FulRan=T
         wScrn=  0.000000 ICntrl=       600 IOpCl=  0 I1Cent=           0 NGrid=           0
         NMat0=    1 NMatS0=    780 NMatT0=    0 NMatD0=    1 NMtDS0=    0 NMtDT0=    0
 Symmetry not used in FoFCou.
 Two-electron integral symmetry not used.
 Closed shell SCF:
 Using DIIS extrapolation, IDIIS=  1040.
 NGot=  6710886400 LenX=  6710576507 LenY=  6710574385
 Requested convergence on RMS density matrix=1.00D-08 within 128 cycles.
 Requested convergence on MAX density matrix=1.00D-06.
 Requested convergence on             energy=1.00D-06.
 No special actions if energy rises.
 Integral accuracy reduced to 1.0D-05 until final iterations.

 Cycle   1  Pass 0  IDiag  1:
 E= -76.3464619163071    
 DIIS: error= 7.00D-02 at cycle   1 NSaved=   1.
 NSaved= 1 IEnMin= 1 EnMin= -76.3464619163071     IErMin= 1 ErrMin= 7.00D-02
 ErrMax= 7.00D-02  0.00D+00 EMaxC= 1.00D-01 BMatC= 1.20D-01 BMatP= 1.20D-01
 IDIUse=3 WtCom= 3.00D-01 WtEn= 7.00D-01
 Coeff-Com:  0.100D+01
 Coeff-En:   0.100D+01
 Coeff:      0.100D+01
 Gap=     0.325 Goal=   None    Shift=    0.000
 GapD=    0.325 DampG=1.000 DampE=0.500 DampFc=0.5000 IDamp=-1.
 Damping current iteration by 5.00D-01
 RMSDP=7.90D-03 MaxDP=1.01D-01              OVMax= 1.68D-01

 Cycle   2  Pass 0  IDiag  1:
 E= -76.3777916393247     Delta-E=       -0.031329723018 Rises=F Damp=T
 DIIS: error= 1.14D-02 at cycle   2 NSaved=   2.
 NSaved= 2 IEnMin= 2 EnMin= -76.3777916393247     IErMin= 2 ErrMin= 1.14D-02
 ErrMax= 1.14D-02  0.00D+00 EMaxC= 1.00D-01 BMatC= 4.85D-03 BMatP= 1.20D-01
 IDIUse=3 WtCom= 8.86D-01 WtEn= 1.14D-01
 Coeff-Com:  0.829D-01 0.917D+00
 Coeff-En:   0.188D+00 0.812D+00
 Coeff:      0.949D-01 0.905D+00
 Gap=     0.457 Goal=   None    Shift=    0.000
 RMSDP=9.43D-04 MaxDP=1.40D-02 DE=-3.13D-02 OVMax= 1.00D-01

 Cycle   3  Pass 0  IDiag  1:
 E= -76.4216718896395     Delta-E=       -0.043880250315 Rises=F Damp=F
 DIIS: error= 2.18D-03 at cycle   3 NSaved=   3.
 NSaved= 3 IEnMin= 3 EnMin= -76.4216718896395     IErMin= 3 ErrMin= 2.18D-03
 ErrMax= 2.18D-03  0.00D+00 EMaxC= 1.00D-01 BMatC= 9.18D-05 BMatP= 4.85D-03
 IDIUse=3 WtCom= 9.78D-01 WtEn= 2.18D-02
 Coeff-Com: -0.200D-01 0.401D-01 0.980D+00
 Coeff-En:   0.000D+00 0.000D+00 0.100D+01
 Coeff:     -0.195D-01 0.392D-01 0.980D+00
 Gap=     0.461 Goal=   None    Shift=    0.000
 RMSDP=1.15D-04 MaxDP=1.06D-03 DE=-4.39D-02 OVMax= 3.32D-03

 Cycle   4  Pass 0  IDiag  1:
 E= -76.4217501360771     Delta-E=       -0.000078246438 Rises=F Damp=F
 DIIS: error= 4.15D-04 at cycle   4 NSaved=   4.
 NSaved= 4 IEnMin= 4 EnMin= -76.4217501360771     IErMin= 4 ErrMin= 4.15D-04
 ErrMax= 4.15D-04  0.00D+00 EMaxC= 1.00D-01 BMatC= 3.34D-06 BMatP= 9.18D-05
 IDIUse=3 WtCom= 9.96D-01 WtEn= 4.15D-03
 Coeff-Com: -0.195D-02-0.217D-02 0.164D+00 0.840D+00
 Coeff-En:   0.000D+00 0.000D+00 0.000D+00 0.100D+01
 Coeff:     -0.194D-02-0.216D-02 0.163D+00 0.841D+00
 Gap=     0.462 Goal=   None    Shift=    0.000
 RMSDP=2.22D-05 MaxDP=3.54D-04 DE=-7.82D-05 OVMax= 5.37D-04

 Cycle   5  Pass 0  IDiag  1:
 E= -76.4217521929046     Delta-E=       -0.000002056827 Rises=F Damp=F
 DIIS: error= 8.99D-05 at cycle   5 NSaved=   5.
 NSaved= 5 IEnMin= 5 EnMin= -76.4217521929046     IErMin= 5 ErrMin= 8.99D-05
 ErrMax= 8.99D-05  0.00D+00 EMaxC= 1.00D-01 BMatC= 8.38D-08 BMatP= 3.34D-06
 IDIUse=1 WtCom= 1.00D+00 WtEn= 0.00D+00
 Coeff-Com:  0.118D-02-0.180D-02-0.367D-01-0.682D-01 0.111D+01
 Coeff:      0.118D-02-0.180D-02-0.367D-01-0.682D-01 0.111D+01
 Gap=     0.462 Goal=   None    Shift=    0.000
 RMSDP=9.04D-06 MaxDP=1.03D-04 DE=-2.06D-06 OVMax= 2.04D-04

 Initial convergence to 1.0D-05 achieved.  Increase integral accuracy.
 Cycle   6  Pass 1  IDiag  1:
 E= -76.4217496991705     Delta-E=        0.000002493734 Rises=F Damp=F
 DIIS: error= 2.19D-05 at cycle   1 NSaved=   1.
 NSaved= 1 IEnMin= 1 EnMin= -76.4217496991705     IErMin= 1 ErrMin= 2.19D-05
 ErrMax= 2.19D-05  0.00D+00 EMaxC= 1.00D-01 BMatC= 1.72D-08 BMatP= 1.72D-08
 IDIUse=1 WtCom= 1.00D+00 WtEn= 0.00D+00
 Coeff-Com:  0.100D+01
 Coeff:      0.100D+01
 Gap=     0.462 Goal=   None    Shift=    0.000
 RMSDP=9.04D-06 MaxDP=1.03D-04 DE= 2.49D-06 OVMax= 3.99D-05

 Cycle   7  Pass 1  IDiag  1:
 E= -76.4217497115596     Delta-E=       -0.000000012389 Rises=F Damp=F
 DIIS: error= 5.24D-06 at cycle   2 NSaved=   2.
 NSaved= 2 IEnMin= 2 EnMin= -76.4217497115596     IErMin= 2 ErrMin= 5.24D-06
 ErrMax= 5.24D-06  0.00D+00 EMaxC= 1.00D-01 BMatC= 5.05D-10 BMatP= 1.72D-08
 IDIUse=1 WtCom= 1.00D+00 WtEn= 0.00D+00
 Coeff-Com: -0.203D-01 0.102D+01
 Coeff:     -0.203D-01 0.102D+01
 Gap=     0.462 Goal=   None    Shift=    0.000
 RMSDP=5.39D-07 MaxDP=8.39D-06 DE=-1.24D-08 OVMax= 1.29D-05

 Cycle   8  Pass 1  IDiag  1:
 E= -76.4217497116348     Delta-E=       -0.000000000075 Rises=F Damp=F
 DIIS: error= 4.88D-06 at cycle   3 NSaved=   3.
 NSaved= 3 IEnMin= 3 EnMin= -76.4217497116348     IErMin= 3 ErrMin= 4.88D-06
 ErrMax= 4.88D-06  0.00D+00 EMaxC= 1.00D-01 BMatC= 5.41D-10 BMatP= 5.05D-10
 IDIUse=1 WtCom= 1.00D+00 WtEn= 0.00D+00
 Coeff-Com: -0.376D-01 0.536D+00 0.502D+00
 Coeff:     -0.376D-01 0.536D+00 0.502D+00
 Gap=     0.462 Goal=   None    Shift=    0.000
 RMSDP=2.62D-07 MaxDP=3.67D-06 DE=-7.52D-11 OVMax= 6.05D-06

 Cycle   9  Pass 1  IDiag  1:
 E= -76.4217497119865     Delta-E=       -0.000000000352 Rises=F Damp=F
 DIIS: error= 4.29D-07 at cycle   4 NSaved=   4.
 NSaved= 4 IEnMin= 4 EnMin= -76.4217497119865     IErMin= 4 ErrMin= 4.29D-07
 ErrMax= 4.29D-07  0.00D+00 EMaxC= 1.00D-01 BMatC= 2.89D-12 BMatP= 5.05D-10
 IDIUse=1 WtCom= 1.00D+00 WtEn= 0.00D+00
 Coeff-Com:  0.170D-02-0.554D-01 0.650D-02 0.105D+01
 Coeff:      0.170D-02-0.554D-01 0.650D-02 0.105D+01
 Gap=     0.462 Goal=   None    Shift=    0.000
 RMSDP=5.76D-08 MaxDP=4.43D-07 DE=-3.52D-10 OVMax= 1.10D-06

 Cycle  10  Pass 1  IDiag  1:
 E= -76.4217497119906     Delta-E=       -0.000000000004 Rises=F Damp=F
 DIIS: error= 5.19D-08 at cycle   5 NSaved=   5.
 NSaved= 5 IEnMin= 5 EnMin= -76.4217497119906     IErMin= 5 ErrMin= 5.19D-08
 ErrMax= 5.19D-08  0.00D+00 EMaxC= 1.00D-01 BMatC= 1.16D-13 BMatP= 2.89D-12
 IDIUse=1 WtCom= 1.00D+00 WtEn= 0.00D+00
 Coeff-Com:  0.145D-02-0.241D-01-0.188D-01 0.761D-01 0.965D+00
 Coeff:      0.145D-02-0.241D-01-0.188D-01 0.761D-01 0.965D+00
 Gap=     0.462 Goal=   None    Shift=    0.000
 RMSDP=1.64D-08 MaxDP=1.53D-07 DE=-4.18D-12 OVMax= 3.13D-07

 Cycle  11  Pass 1  IDiag  1:
 E= -76.4217497119913     Delta-E=       -0.000000000001 Rises=F Damp=F
 DIIS: error= 9.57D-09 at cycle   6 NSaved=   6.
 NSaved= 6 IEnMin= 6 EnMin= -76.4217497119913     IErMin= 6 ErrMin= 9.57D-09
 ErrMax= 9.57D-09  0.00D+00 EMaxC= 1.00D-01 BMatC= 5.32D-15 BMatP= 1.16D-13
 IDIUse=1 WtCom= 1.00D+00 WtEn= 0.00D+00
 Coeff-Com:  0.600D-04 0.715D-03-0.229D-02-0.579D-01 0.258D-01 0.103D+01
 Coeff:      0.600D-04 0.715D-03-0.229D-02-0.579D-01 0.258D-01 0.103D+01
 Gap=     0.462 Goal=   None    Shift=    0.000
 RMSDP=4.19D-09 MaxDP=4.54D-08 DE=-6.39D-13 OVMax= 7.88D-08

 SCF Done:  E(RM062X) =  -76.4217497120     A.U. after   11 cycles
            NFock= 11  Conv=0.42D-08     -V/T= 2.0030
 KE= 7.618986542496D+01 PE=-1.990260716404D+02 EE= 3.732602864908D+01
 Leave Link  502 at Sun Feb 19 12:08:52 2023, MaxMem=  6710886400 cpu:               8.8 elap:               0.4
 (Enter /data0/home/software/g16/l601.exe)
 Copying SCF densities to generalized density rwf, IOpCl= 0 IROHF=0.

 **********************************************************************

            Population analysis using the SCF density.

 **********************************************************************

 Alpha  occ. eigenvalues --  -19.62623  -1.13270  -0.60700  -0.47471  -0.39969
 Alpha virt. eigenvalues --    0.06239   0.13297   0.17402   0.17949   0.18930
 Alpha virt. eigenvalues --    0.23292   0.51020   0.53297   0.97956   1.00258
 Alpha virt. eigenvalues --    1.06033   1.18519   1.19865   1.32382   1.33968
 Alpha virt. eigenvalues --    1.69576   1.74058   1.75626   2.07581   2.09195
 Alpha virt. eigenvalues --    2.35453   2.41553   2.54365   2.88158   3.00883
 Alpha virt. eigenvalues --    5.05660   5.47690   5.91857   6.78297   6.80262
 Alpha virt. eigenvalues --    6.87153   6.91454   7.09691  49.95636
          Condensed to atoms (all electrons):
              18         19         20
    18  O    7.917405   0.321466   0.318440
    19  H    0.321466   0.425502  -0.024271
    20  H    0.318440  -0.024271   0.425824
 Mulliken charges:
               1
     1  C    0.000000
     2  C    0.000000
     3  C    0.000000
     4  C    0.000000
     5  C    0.000000
     6  N    0.000000
     7  H    0.000000
     8  H    0.000000
     9  H    0.000000
    10  H    0.000000
    11  H    0.000000
    12  O    0.000000
    13  H    0.000000
    14  H    0.000000
    15  O    0.000000
    16  H    0.000000
    17  H    0.000000
    18  O   -0.557310
    19  H    0.277303
    20  H    0.280007
 Sum of Mulliken charges =   0.00000
 Mulliken charges with hydrogens summed into heavy atoms:
               1
     1  C    0.000000
     2  C    0.000000
     3  C    0.000000
     4  C    0.000000
     5  C    0.000000
     6  N    0.000000
    12  O    0.000000
    15  O    0.000000
    18  O    0.000000
         Mulliken charges condensed to fragments:
      1      0.000000
      2      0.000000
      3      0.000000
      4      0.000000
 Electronic spatial extent (au):  <R**2>=           5064.7882
 Charge=              0.0000 electrons
 Dipole moment (field-independent basis, Debye):
    X=             -0.3867    Y=              2.0810    Z=             -0.0088  Tot=              2.1167
 Quadrupole moment (field-independent basis, Debye-Ang):
   XX=            -14.7141   YY=             13.8598   ZZ=             -4.4846
   XY=             16.7546   XZ=             -2.2709   YZ=             12.3355
 Traceless Quadrupole moment (field-independent basis, Debye-Ang):
   XX=            -12.9345   YY=             15.6394   ZZ=             -2.7050
   XY=             16.7546   XZ=             -2.2709   YZ=             12.3355
 Octapole moment (field-independent basis, Debye-Ang**2):
  XXX=           -305.2635  YYY=             55.7967  ZZZ=            -79.1673  XYY=            114.0775
  XXY=             95.6188  XXZ=            -86.3069  XZZ=            -53.3389  YZZ=             53.1787
  YYZ=             82.1943  XYZ=             99.8393
 Hexadecapole moment (field-independent basis, Debye-Ang**3):
 XXXX=          -4973.7131 YYYY=             68.4157 ZZZZ=           -945.3782 XXXY=             18.0048
 XXXZ=          -1796.5480 YYYX=            442.3487 YYYZ=            330.3437 ZZZX=           -792.8157
 ZZZY=             77.2312 XXYY=            747.7375 XXZZ=           -874.0983 YYZZ=            395.0933
 XXYZ=            575.3264 YYXZ=            679.2671 ZZXY=            412.5958
 N-N= 9.088427854409D+00 E-N=-1.990260716458D+02  KE= 7.618986542496D+01
 No NMR shielding tensors so no spin-rotation constants.
 Leave Link  601 at Sun Feb 19 12:08:52 2023, MaxMem=  6710886400 cpu:               1.8 elap:               0.1
 (Enter /data0/home/software/g16/l122.exe)
 CPIOFr:  IOpCl= 0 IRwI=-1 IRwCP=  731 ICalc=  8 LCPTot=      148866 Len1MO=      388541 IndFrg=     3645735
 Restoring MOs from calculation   1 to rwf.
 CPIOFr:  IOpCl= 0 IRwI=-2 IRwCP=  731 ICalc=  0 LCPTot=      148866 Len1MO=      388541 IndFrg=      537407
 Counterpoise corrected energy =    -477.529131872639
                   BSSE energy =       0.002620291957
              sum of fragments =    -477.509975588685
           complexation energy =     -13.67 kcal/mole (raw)
           complexation energy =     -12.02 kcal/mole (corrected)
 Leave Link  122 at Sun Feb 19 12:08:52 2023, MaxMem=  6710886400 cpu:               0.2 elap:               0.0
 (Enter /data0/home/software/g16/l9999.exe)
 1\1\GINC-LOCALHOST\SP\RM062X\6-311+G(2d,p)\C5H11N1O3\WUHANYU\19-Feb-20
 23\0\\#p M062X/6-311+G(2d,p) nosymm em=GD3 counterpoise=4\\Title Card 
 Required\\0,1\C,0,12.290676,9.200288,9.500115\C,0,12.883021,10.379091,
 9.966227\C,0,13.938821,10.926907,9.238544\C,0,14.36965,10.290025,8.077
 426\C,0,13.723931,9.112586,7.676659\N,0,12.703638,8.582238,8.376735\H,
 0,14.421426,11.843907,9.576385\H,0,11.458977,8.721957,10.030335\H,0,12
 .526343,10.853914,10.875393\H,0,15.191258,10.691651,7.491061\H,0,14.02
 7041,8.567609,6.768997\O,0,11.30381,7.657134,3.378717\H,0,11.930852,7.
 133101,3.908484\H,0,11.331639,8.524474,3.781223\O,0,8.836836,6.5088,3.
 818537\H,0,9.707202,6.935049,3.682691\H,0,8.659386,6.058741,2.996304\O
 ,0,9.096724,4.7561,5.954467\H,0,9.013434,5.337554,6.713238\H,0,8.96260
 6,5.343504,5.18467\\Version=ES64L-G16RevA.03\HF=-76.4217497\RMSD=4.193
 e-09\Dipole=1.462173,2.1432836,0.0689936\Quadrupole=18.4785198,14.8533
 74,-33.3318938,67.1843458,18.0883324,32.7129418\PG=C01 [X(C5H11N1O3)]\
 \@


 It takes a long time to grow an old friend.
                            -- John Leonard
 Job cpu time:       0 days  0 hours 31 minutes 53.6 seconds.
 Elapsed time:       0 days  0 hours  1 minutes 24.3 seconds.
 File lengths (MBytes):  RWF=     91 Int=      0 D2E=      0 Chk=     34 Scr=      1
 Normal termination of Gaussian 16 at Sun Feb 19 12:08:52 2023.
