 Entering Gaussian System, Link 0=g16
 Initial command:
 /data0/home/software/g16/l1.exe "/data0/home/software/g16/scratch/Gau-223623.inp" -scrdir="/data0/home/software/g16/scratch/"
 Default is to use a total of  22 processors:
                               22 via shared-memory
                                1 via Linda
 Entering Link 1 = /data0/home/software/g16/l1.exe PID=    223624.
  
 Copyright (c) 1988,1990,1992,1993,1995,1998,2003,2009,2016,
            Gaussian, Inc.  All Rights Reserved.
  
 This is part of the Gaussian(R) 16 program.  It is based on
 the Gaussian(R) 09 system (copyright 2009, Gaussian, Inc.),
 the Gaussian(R) 03 system (copyright 2003, Gaussian, Inc.),
 the Gaussian(R) 98 system (copyright 1998, Gaussian, Inc.),
 the Gaussian(R) 94 system (copyright 1995, Gaussian, Inc.),
 the Gaussian 92(TM) system (copyright 1992, Gaussian, Inc.),
 the Gaussian 90(TM) system (copyright 1990, Gaussian, Inc.),
 the Gaussian 88(TM) system (copyright 1988, Gaussian, Inc.),
 the Gaussian 86(TM) system (copyright 1986, Carnegie Mellon
 University), and the Gaussian 82(TM) system (copyright 1983,
 Carnegie Mellon University). Gaussian is a federally registered
 trademark of Gaussian, Inc.
  
 This software contains proprietary and confidential information,
 including trade secrets, belonging to Gaussian, Inc.
  
 This software is provided under written license and may be
 used, copied, transmitted, or stored only in accord with that
 written license.
  
 The following legend is applicable only to US Government
 contracts under FAR:
  
                    RESTRICTED RIGHTS LEGEND
  
 Use, reproduction and disclosure by the US Government is
 subject to restrictions as set forth in subparagraphs (a)
 and (c) of the Commercial Computer Software - Restricted
 Rights clause in FAR 52.227-19.
  
 Gaussian, Inc.
 340 Quinnipiac St., Bldg. 40, Wallingford CT 06492
  
  
 ---------------------------------------------------------------
 Warning -- This program may not be used in any manner that
 competes with the business of Gaussian, Inc. or will provide
 assistance to any competitor of Gaussian, Inc.  The licensee
 of this program is prohibited from giving any competitor of
 Gaussian, Inc. access to this program.  By using this program,
 the user acknowledges that Gaussian, Inc. is engaged in the
 business of creating and licensing software in the field of
 computational chemistry and represents and warrants to the
 licensee that it is not a competitor of Gaussian, Inc. and that
 it will not use this program in any manner prohibited above.
 ---------------------------------------------------------------
  

 Cite this work as:
 Gaussian 16, Revision A.03,
 M. J. Frisch, G. W. Trucks, H. B. Schlegel, G. E. Scuseria, 
 M. A. Robb, J. R. Cheeseman, G. Scalmani, V. Barone, 
 G. A. Petersson, H. Nakatsuji, X. Li, M. Caricato, A. V. Marenich, 
 J. Bloino, B. G. Janesko, R. Gomperts, B. Mennucci, H. P. Hratchian, 
 J. V. Ortiz, A. F. Izmaylov, J. L. Sonnenberg, D. Williams-Young, 
 F. Ding, F. Lipparini, F. Egidi, J. Goings, B. Peng, A. Petrone, 
 T. Henderson, D. Ranasinghe, V. G. Zakrzewski, J. Gao, N. Rega, 
 G. Zheng, W. Liang, M. Hada, M. Ehara, K. Toyota, R. Fukuda, 
 J. Hasegawa, M. Ishida, T. Nakajima, Y. Honda, O. Kitao, H. Nakai, 
 T. Vreven, K. Throssell, J. A. Montgomery, Jr., J. E. Peralta, 
 F. Ogliaro, M. J. Bearpark, J. J. Heyd, E. N. Brothers, K. N. Kudin, 
 V. N. Staroverov, T. A. Keith, R. Kobayashi, J. Normand, 
 K. Raghavachari, A. P. Rendell, J. C. Burant, S. S. Iyengar, 
 J. Tomasi, M. Cossi, J. M. Millam, M. Klene, C. Adamo, R. Cammi, 
 J. W. Ochterski, R. L. Martin, K. Morokuma, O. Farkas, 
 J. B. Foresman, and D. J. Fox, Gaussian, Inc., Wallingford CT, 2016.
 
 ******************************************
 Gaussian 16:  ES64L-G16RevA.03 25-Dec-2016
                17-Feb-2023 
 ******************************************
 %nproc=24
 Will use up to   24 processors via shared memory.
 %mem=50GB
 ---------------------------------------------------
 #p M062X/6-311+G(2d,p) nosymm em=GD3 counterpoise=3
 ---------------------------------------------------
 1/38=1,62=3,172=1/1;
 2/12=2,15=1,17=6,18=5,40=1/2;
 1/38=1,53=2,62=3,63=1/22;
 3/5=4,6=6,7=112,11=2,25=1,30=1,74=-55,124=31/1,2,3;
 4//1;
 5/5=2,38=5/2;
 6/7=2,8=2,9=2,10=2,28=1/1;
 1/53=2,62=3,63=1/22;
 3/5=7,6=11,7=112,11=2,25=1,30=1,74=-55,82=7,124=31/1,2,3;
 4//1;
 5/5=2,38=5/2;
 6/7=2,8=2,9=2,10=2,28=1/1;
 1/53=2,62=3,63=1/22(-4);
 99/5=1,9=1/99;
 Leave Link    1 at Fri Feb 17 21:09:27 2023, MaxMem=  6710886400 cpu:               0.7 elap:               0.0
 (Enter /data0/home/software/g16/l101.exe)
 -------------------
 Title Card Required
 -------------------
 Symbolic Z-matrix:
 Charge =  0 Multiplicity = 1 in supermolecule
 Charge =  0 Multiplicity = 1 in fragment      1.
 Charge =  0 Multiplicity = 1 in fragment      2.
 Charge =  0 Multiplicity = 1 in fragment      3.
 P                     12.14062   9.05279   12.7047    
 O                     12.62407   9.34107   11.35293    
 O                     11.69364   7.58293   13.06515    
 H                     11.53813   7.00932   12.18486    
 O                     13.22946   9.42344   13.79795    
 H                     12.84156   9.17533   14.72491    
 O                     10.90714   9.95821   13.17579    
 H                     10.03991   9.56768   12.79584    
 O                     11.17167   6.08944   10.8282    
 H                     10.33812   6.52878   10.50738    
 H                     11.82624   6.34333   10.17646    
 O                     11.9724   11.9307   10.10707    
 H                     12.12697   12.57315   10.79973    
 H                     12.34758   11.10451   10.46229    
 
 ITRead=  0  0  0  0  0  0  0  0  0  0  0  0  0  0
 MicOpt= -1 -1 -1 -1 -1 -1 -1 -1 -1 -1 -1 -1 -1 -1
 NAtoms=     14 NQM=       14 NQMF=       0 NMMI=      0 NMMIF=      0
                NMic=       0 NMicF=      0.
                    Isotopes and Nuclear Properties:
 (Nuclear quadrupole moments (NQMom) in fm**2, nuclear magnetic moments (NMagM)
  in nuclear magnetons)

  Atom         1           2           3           4           5           6           7           8           9          10
 IAtWgt=          31          16          16           1          16           1          16           1          16           1
 AtmWgt=  30.9737634  15.9949146  15.9949146   1.0078250  15.9949146   1.0078250  15.9949146   1.0078250  15.9949146   1.0078250
 NucSpn=           1           0           0           1           0           1           0           1           0           1
 AtZEff=  -0.0000000  -0.0000000  -0.0000000  -0.0000000  -0.0000000  -0.0000000  -0.0000000  -0.0000000  -0.0000000  -0.0000000
 NQMom=    0.0000000   0.0000000   0.0000000   0.0000000   0.0000000   0.0000000   0.0000000   0.0000000   0.0000000   0.0000000
 NMagM=    1.1316000   0.0000000   0.0000000   2.7928460   0.0000000   2.7928460   0.0000000   2.7928460   0.0000000   2.7928460
 AtZNuc=  15.0000000   8.0000000   8.0000000   1.0000000   8.0000000   1.0000000   8.0000000   1.0000000   8.0000000   1.0000000

  Atom        11          12          13          14
 IAtWgt=           1          16           1           1
 AtmWgt=   1.0078250  15.9949146   1.0078250   1.0078250
 NucSpn=           1           0           1           1
 AtZEff=  -0.0000000  -0.0000000  -0.0000000  -0.0000000
 NQMom=    0.0000000   0.0000000   0.0000000   0.0000000
 NMagM=    2.7928460   0.0000000   2.7928460   2.7928460
 AtZNuc=   1.0000000   8.0000000   1.0000000   1.0000000
 Leave Link  101 at Fri Feb 17 21:09:27 2023, MaxMem=  6710886400 cpu:               2.0 elap:               0.1
 (Enter /data0/home/software/g16/l202.exe)
                          Input orientation:                          
 ---------------------------------------------------------------------
 Center     Atomic      Atomic             Coordinates (Angstroms)
 Number     Number       Type             X           Y           Z
 ---------------------------------------------------------------------
      1         15           0       12.140624    9.052795   12.704697
      2          8           0       12.624072    9.341066   11.352927
      3          8           0       11.693636    7.582930   13.065154
      4          1           0       11.538127    7.009323   12.184862
      5          8           0       13.229465    9.423439   13.797949
      6          1           0       12.841557    9.175329   14.724911
      7          8           0       10.907135    9.958209   13.175792
      8          1           0       10.039913    9.567680   12.795840
      9          8           0       11.171674    6.089443   10.828202
     10          1           0       10.338122    6.528784   10.507382
     11          1           0       11.826239    6.343333   10.176461
     12          8           0       11.972402   11.930695   10.107068
     13          1           0       12.126966   12.573149   10.799733
     14          1           0       12.347576   11.104515   10.462291
 ---------------------------------------------------------------------
                    Distance matrix (angstroms):
                    1          2          3          4          5
     1  P    0.000000
     2  O    1.464276   0.000000
     3  O    1.578046   2.624590   0.000000
     4  H    2.192945   2.703409   1.062131   0.000000
     5  O    1.586868   2.520202   2.506638   3.360153   0.000000
     6  H    2.141865   3.383053   2.570652   3.583624   1.035031
     7  O    1.601000   2.579065   2.504551   3.174275   2.462981
     8  H    2.164810   2.968372   2.597415   3.027066   3.346382
     9  O    3.638894   3.599701   2.739873   1.679581   4.916241
    10  H    3.801031   3.721484   3.080721   2.117751   5.250402
    11  H    3.719140   3.317682   3.146225   2.135469   4.956942
    12  O    3.880500   2.946696   5.266027   5.359639   4.635638
    13  H    4.002745   3.316549   5.497471   5.763807   4.486143
    14  H    3.046435   1.994852   4.427651   4.515867   3.838015
                    6          7          8          9         10
     6  H    0.000000
     7  O    2.598973   0.000000
     8  H    3.424100   1.024183   0.000000
     9  O    5.243619   4.533046   4.153386   0.000000
    10  H    5.573055   4.382367   3.815869   0.995367   0.000000
    11  H    5.453391   4.786237   4.522004   0.957957   1.535706
    12  O    5.447196   3.800337   4.067905   5.939817   5.657894
    13  H    5.240500   3.737854   4.168102   6.553765   6.310292
    14  H    4.704860   3.279020   3.623896   5.164067   4.997725
                   11         12         13         14
    11  H    0.000000
    12  O    5.589704   0.000000
    13  H    6.268135   0.957299   0.000000
    14  H    4.798161   0.974429   1.522965   0.000000
 Symmetry turned off by external request.
 Stoichiometry    H7O6P
 Framework group  C1[X(H7O6P)]
 Deg. of freedom    36
 Full point group                 C1      NOp   1
 Rotational constants (GHZ):           1.9038449           1.1831905           0.8731349
 Leave Link  202 at Fri Feb 17 21:09:27 2023, MaxMem=  6710886400 cpu:               0.1 elap:               0.0
 (Enter /data0/home/software/g16/l122.exe)
 Counterpoise: doing full-system calculation.
 Leave Link  122 at Fri Feb 17 21:09:27 2023, MaxMem=  6710886400 cpu:               0.0 elap:               0.0
 (Enter /data0/home/software/g16/l301.exe)
 Standard basis: 6-311+G(2d,p) (5D, 7F)
 Ernie: Thresh=  0.10000D-02 Tol=  0.10000D-05 Strict=F.
   239 basis functions,   364 primitive gaussians,   253 cartesian basis functions
    35 alpha electrons       35 beta electrons
       nuclear repulsion energy       447.1530104305 Hartrees.
 IExCor= 4336 DFT=T Ex+Corr=M062X ExCW=0 ScaHFX=  0.540000
 ScaDFX=  1.000000  1.000000  1.000000  1.000000 ScalE2=  1.000000  1.000000
 IRadAn=      5 IRanWt=     -1 IRanGd=            0 ICorTp=0 IEmpDi=131
 NAtoms=   14 NActive=   14 NUniq=   14 SFac= 1.00D+00 NAtFMM=   60 NAOKFM=F Big=F
 Integral buffers will be    131072 words long.
 Raffenetti 2 integral format.
 Two-electron integral symmetry is turned off.
 R6Disp:  Grimme-D3 Dispersion energy=       -0.0003685231 Hartrees.
 Nuclear repulsion after empirical dispersion term =      447.1526419074 Hartrees.
 Leave Link  301 at Fri Feb 17 21:09:27 2023, MaxMem=  6710886400 cpu:               1.1 elap:               0.1
 (Enter /data0/home/software/g16/l302.exe)
 NPDir=0 NMtPBC=     1 NCelOv=     1 NCel=       1 NClECP=     1 NCelD=      1
         NCelK=      1 NCelE2=     1 NClLst=     1 CellRange=     0.0.
 One-electron integrals computed using PRISM.
 NBasis=   239 RedAO= T EigKep=  3.55D-04  NBF=   239
 NBsUse=   239 1.00D-06 EigRej= -1.00D+00 NBFU=   239
 Precomputing XC quadrature grid using
 IXCGrd= 4 IRadAn=           5 IRanWt=          -1 IRanGd=           0 AccXCQ= 0.00D+00.
 Generated NRdTot=       0 NPtTot=           0 NUsed=           0 NTot=          32
 NSgBfM=   253   253   253   253   253 MxSgAt=    14 MxSgA2=    14.
 Leave Link  302 at Fri Feb 17 21:09:27 2023, MaxMem=  6710886400 cpu:               3.9 elap:               0.2
 (Enter /data0/home/software/g16/l303.exe)
 DipDrv:  MaxL=1.
 Leave Link  303 at Fri Feb 17 21:09:27 2023, MaxMem=  6710886400 cpu:               0.6 elap:               0.0
 (Enter /data0/home/software/g16/l401.exe)
 ExpMin= 3.48D-02 ExpMax= 7.75D+04 ExpMxC= 2.65D+03 IAcc=3 IRadAn=         5 AccDes= 0.00D+00
 Harris functional with IExCor= 1009 and IRadAn=       5 diagonalized for initial guess.
 HarFok:  IExCor= 1009 AccDes= 0.00D+00 IRadAn=         5 IDoV= 1 UseB2=F ITyADJ=14
 ICtDFT=  3500011 ScaDFX=  1.000000  1.000000  1.000000  1.000000
 FoFCou: FMM=F IPFlag=           0 FMFlag=      100000 FMFlg1=           0
         NFxFlg=           0 DoJE=T BraDBF=F KetDBF=T FulRan=T
         wScrn=  0.000000 ICntrl=       500 IOpCl=  0 I1Cent=   200000004 NGrid=           0
         NMat0=    1 NMatS0=      1 NMatT0=    0 NMatD0=    1 NMtDS0=    0 NMtDT0=    0
 Symmetry not used in FoFCou.
 Harris En= -796.783106276684    
 JPrj=0 DoOrth=F DoCkMO=F.
 Leave Link  401 at Fri Feb 17 21:09:28 2023, MaxMem=  6710886400 cpu:              10.5 elap:               0.5
 (Enter /data0/home/software/g16/l502.exe)
 Two-electron integral symmetry not used.
 Closed shell SCF:
 Using DIIS extrapolation, IDIIS=  1040.
 NGot=  6710886400 LenX=  6710750439 LenY=  6710685989
 Requested convergence on RMS density matrix=1.00D-08 within 128 cycles.
 Requested convergence on MAX density matrix=1.00D-06.
 Requested convergence on             energy=1.00D-06.
 No special actions if energy rises.
 Fock matrices will be formed incrementally for  20 cycles.

 Cycle   1  Pass 1  IDiag  1:
 FoFJK:  IHMeth= 1 ICntrl=       0 DoSepK=F KAlg= 0 I1Cent=           0 FoldK=F
 IRaf= 910000000 NMat=       1 IRICut=       1 DoRegI=T DoRafI=F ISym2E= 0 IDoP0=0 IntGTp=1.
 FoFCou: FMM=F IPFlag=           0 FMFlag=      100000 FMFlg1=           0
         NFxFlg=           0 DoJE=F BraDBF=F KetDBF=F FulRan=T
         wScrn=  0.000000 ICntrl=         0 IOpCl=  0 I1Cent=           0 NGrid=           0
         NMat0=    1 NMatS0=      1 NMatT0=    0 NMatD0=    1 NMtDS0=    0 NMtDT0=    0
 Symmetry not used in FoFCou.
 E= -796.621683751155    
 DIIS: error= 3.75D-02 at cycle   1 NSaved=   1.
 NSaved= 1 IEnMin= 1 EnMin= -796.621683751155     IErMin= 1 ErrMin= 3.75D-02
 ErrMax= 3.75D-02  0.00D+00 EMaxC= 1.00D-01 BMatC= 7.10D-01 BMatP= 7.10D-01
 IDIUse=3 WtCom= 6.25D-01 WtEn= 3.75D-01
 Coeff-Com:  0.100D+01
 Coeff-En:   0.100D+01
 Coeff:      0.100D+01
 Gap=     0.283 Goal=   None    Shift=    0.000
 GapD=    0.283 DampG=1.000 DampE=0.500 DampFc=0.5000 IDamp=-1.
 Damping current iteration by 5.00D-01
 RMSDP=5.01D-03 MaxDP=1.46D-01              OVMax= 2.20D-01

 Cycle   2  Pass 1  IDiag  1:
 RMSU=  2.50D-03    CP:  9.97D-01
 E= -796.794864216388     Delta-E=       -0.173180465233 Rises=F Damp=T
 DIIS: error= 9.43D-03 at cycle   2 NSaved=   2.
 NSaved= 2 IEnMin= 2 EnMin= -796.794864216388     IErMin= 2 ErrMin= 9.43D-03
 ErrMax= 9.43D-03  0.00D+00 EMaxC= 1.00D-01 BMatC= 3.14D-02 BMatP= 7.10D-01
 IDIUse=3 WtCom= 9.06D-01 WtEn= 9.43D-02
 Coeff-Com:  0.518D-01 0.948D+00
 Coeff-En:   0.160D+00 0.840D+00
 Coeff:      0.620D-01 0.938D+00
 Gap=     0.337 Goal=   None    Shift=    0.000
 RMSDP=1.04D-03 MaxDP=4.24D-02 DE=-1.73D-01 OVMax= 1.30D-01

 Cycle   3  Pass 1  IDiag  1:
 RMSU=  8.52D-04    CP:  9.90D-01  7.65D-01
 E= -797.019578210007     Delta-E=       -0.224713993618 Rises=F Damp=F
 DIIS: error= 4.26D-03 at cycle   3 NSaved=   3.
 NSaved= 3 IEnMin= 3 EnMin= -797.019578210007     IErMin= 3 ErrMin= 4.26D-03
 ErrMax= 4.26D-03  0.00D+00 EMaxC= 1.00D-01 BMatC= 6.98D-03 BMatP= 3.14D-02
 IDIUse=3 WtCom= 9.57D-01 WtEn= 4.26D-02
 Coeff-Com: -0.231D-01 0.250D+00 0.774D+00
 Coeff-En:   0.000D+00 0.000D+00 0.100D+01
 Coeff:     -0.221D-01 0.239D+00 0.783D+00
 Gap=     0.334 Goal=   None    Shift=    0.000
 RMSDP=4.12D-04 MaxDP=1.38D-02 DE=-2.25D-01 OVMax= 3.16D-02

 Cycle   4  Pass 1  IDiag  1:
 RMSU=  3.63D-04    CP:  9.90D-01  8.26D-01  8.57D-01
 E= -797.021695610719     Delta-E=       -0.002117400712 Rises=F Damp=F
 DIIS: error= 3.35D-03 at cycle   4 NSaved=   4.
 NSaved= 4 IEnMin= 4 EnMin= -797.021695610719     IErMin= 4 ErrMin= 3.35D-03
 ErrMax= 3.35D-03  0.00D+00 EMaxC= 1.00D-01 BMatC= 4.18D-03 BMatP= 6.98D-03
 IDIUse=3 WtCom= 9.67D-01 WtEn= 3.35D-02
 Coeff-Com: -0.192D-01 0.431D-01 0.465D+00 0.512D+00
 Coeff-En:   0.000D+00 0.000D+00 0.371D+00 0.629D+00
 Coeff:     -0.186D-01 0.416D-01 0.461D+00 0.515D+00
 Gap=     0.334 Goal=   None    Shift=    0.000
 RMSDP=1.93D-04 MaxDP=7.01D-03 DE=-2.12D-03 OVMax= 1.30D-02

 Cycle   5  Pass 1  IDiag  1:
 RMSU=  5.29D-05    CP:  9.89D-01  8.09D-01  9.60D-01  5.67D-01
 E= -797.024482912307     Delta-E=       -0.002787301588 Rises=F Damp=F
 DIIS: error= 2.97D-04 at cycle   5 NSaved=   5.
 NSaved= 5 IEnMin= 5 EnMin= -797.024482912307     IErMin= 5 ErrMin= 2.97D-04
 ErrMax= 2.97D-04  0.00D+00 EMaxC= 1.00D-01 BMatC= 2.59D-05 BMatP= 4.18D-03
 IDIUse=3 WtCom= 9.97D-01 WtEn= 2.97D-03
 Coeff-Com: -0.347D-02 0.343D-02 0.103D+00 0.144D+00 0.753D+00
 Coeff-En:   0.000D+00 0.000D+00 0.000D+00 0.000D+00 0.100D+01
 Coeff:     -0.346D-02 0.342D-02 0.103D+00 0.143D+00 0.754D+00
 Gap=     0.335 Goal=   None    Shift=    0.000
 RMSDP=2.04D-05 MaxDP=8.38D-04 DE=-2.79D-03 OVMax= 1.17D-03

 Cycle   6  Pass 1  IDiag  1:
 RMSU=  1.72D-05    CP:  9.89D-01  8.07D-01  9.63D-01  5.90D-01  9.25D-01
 E= -797.024499558159     Delta-E=       -0.000016645852 Rises=F Damp=F
 DIIS: error= 9.92D-05 at cycle   6 NSaved=   6.
 NSaved= 6 IEnMin= 6 EnMin= -797.024499558159     IErMin= 6 ErrMin= 9.92D-05
 ErrMax= 9.92D-05  0.00D+00 EMaxC= 1.00D-01 BMatC= 3.81D-06 BMatP= 2.59D-05
 IDIUse=1 WtCom= 1.00D+00 WtEn= 0.00D+00
 Coeff-Com: -0.173D-03-0.128D-02 0.130D-01 0.254D-01 0.307D+00 0.656D+00
 Coeff:     -0.173D-03-0.128D-02 0.130D-01 0.254D-01 0.307D+00 0.656D+00
 Gap=     0.335 Goal=   None    Shift=    0.000
 RMSDP=7.61D-06 MaxDP=2.49D-04 DE=-1.66D-05 OVMax= 3.83D-04

 Cycle   7  Pass 1  IDiag  1:
 RMSU=  4.75D-06    CP:  9.89D-01  8.06D-01  9.65D-01  5.92D-01  1.01D+00
                    CP:  8.92D-01
 E= -797.024502164904     Delta-E=       -0.000002606745 Rises=F Damp=F
 DIIS: error= 3.77D-05 at cycle   7 NSaved=   7.
 NSaved= 7 IEnMin= 7 EnMin= -797.024502164904     IErMin= 7 ErrMin= 3.77D-05
 ErrMax= 3.77D-05  0.00D+00 EMaxC= 1.00D-01 BMatC= 3.15D-07 BMatP= 3.81D-06
 IDIUse=1 WtCom= 1.00D+00 WtEn= 0.00D+00
 Coeff-Com:  0.408D-03-0.797D-03-0.112D-01-0.135D-01-0.160D-01 0.191D+00
 Coeff-Com:  0.850D+00
 Coeff:      0.408D-03-0.797D-03-0.112D-01-0.135D-01-0.160D-01 0.191D+00
 Coeff:      0.850D+00
 Gap=     0.335 Goal=   None    Shift=    0.000
 RMSDP=2.99D-06 MaxDP=9.66D-05 DE=-2.61D-06 OVMax= 1.62D-04

 Cycle   8  Pass 1  IDiag  1:
 RMSU=  1.95D-06    CP:  9.89D-01  8.05D-01  9.65D-01  5.94D-01  1.04D+00
                    CP:  9.56D-01  9.39D-01
 E= -797.024502413771     Delta-E=       -0.000000248868 Rises=F Damp=F
 DIIS: error= 9.70D-06 at cycle   8 NSaved=   8.
 NSaved= 8 IEnMin= 8 EnMin= -797.024502413771     IErMin= 8 ErrMin= 9.70D-06
 ErrMax= 9.70D-06  0.00D+00 EMaxC= 1.00D-01 BMatC= 4.55D-08 BMatP= 3.15D-07
 IDIUse=1 WtCom= 1.00D+00 WtEn= 0.00D+00
 Coeff-Com:  0.168D-03-0.212D-03-0.541D-02-0.699D-02-0.239D-01 0.300D-01
 Coeff-Com:  0.350D+00 0.657D+00
 Coeff:      0.168D-03-0.212D-03-0.541D-02-0.699D-02-0.239D-01 0.300D-01
 Coeff:      0.350D+00 0.657D+00
 Gap=     0.335 Goal=   None    Shift=    0.000
 RMSDP=7.43D-07 MaxDP=4.44D-05 DE=-2.49D-07 OVMax= 2.95D-05

 Cycle   9  Pass 1  IDiag  1:
 RMSU=  4.38D-07    CP:  9.89D-01  8.05D-01  9.65D-01  5.94D-01  1.04D+00
                    CP:  9.78D-01  1.03D+00  9.20D-01
 E= -797.024502449085     Delta-E=       -0.000000035314 Rises=F Damp=F
 DIIS: error= 2.29D-06 at cycle   9 NSaved=   9.
 NSaved= 9 IEnMin= 9 EnMin= -797.024502449085     IErMin= 9 ErrMin= 2.29D-06
 ErrMax= 2.29D-06  0.00D+00 EMaxC= 1.00D-01 BMatC= 1.12D-09 BMatP= 4.55D-08
 IDIUse=1 WtCom= 1.00D+00 WtEn= 0.00D+00
 Coeff-Com: -0.165D-04 0.390D-04 0.105D-03 0.116D-03-0.199D-02-0.110D-01
 Coeff-Com: -0.169D-01 0.565D-01 0.973D+00
 Coeff:     -0.165D-04 0.390D-04 0.105D-03 0.116D-03-0.199D-02-0.110D-01
 Coeff:     -0.169D-01 0.565D-01 0.973D+00
 Gap=     0.335 Goal=   None    Shift=    0.000
 RMSDP=2.43D-07 MaxDP=5.66D-06 DE=-3.53D-08 OVMax= 1.42D-05

 Cycle  10  Pass 1  IDiag  1:
 RMSU=  1.40D-07    CP:  9.89D-01  8.05D-01  9.65D-01  5.94D-01  1.04D+00
                    CP:  9.79D-01  1.04D+00  1.00D+00  1.10D+00
 E= -797.024502450127     Delta-E=       -0.000000001042 Rises=F Damp=F
 DIIS: error= 1.32D-06 at cycle  10 NSaved=  10.
 NSaved=10 IEnMin=10 EnMin= -797.024502450127     IErMin=10 ErrMin= 1.32D-06
 ErrMax= 1.32D-06  0.00D+00 EMaxC= 1.00D-01 BMatC= 6.29D-10 BMatP= 1.12D-09
 IDIUse=1 WtCom= 1.00D+00 WtEn= 0.00D+00
 Coeff-Com: -0.223D-04 0.378D-04 0.497D-03 0.620D-03 0.762D-03-0.858D-02
 Coeff-Com: -0.384D-01-0.273D-01 0.520D+00 0.553D+00
 Coeff:     -0.223D-04 0.378D-04 0.497D-03 0.620D-03 0.762D-03-0.858D-02
 Coeff:     -0.384D-01-0.273D-01 0.520D+00 0.553D+00
 Gap=     0.335 Goal=   None    Shift=    0.000
 RMSDP=8.54D-08 MaxDP=2.50D-06 DE=-1.04D-09 OVMax= 4.64D-06

 Cycle  11  Pass 1  IDiag  1:
 RMSU=  5.81D-08    CP:  9.89D-01  8.05D-01  9.65D-01  5.94D-01  1.04D+00
                    CP:  9.79D-01  1.05D+00  1.01D+00  1.20D+00  7.30D-01
 E= -797.024502450571     Delta-E=       -0.000000000444 Rises=F Damp=F
 DIIS: error= 2.52D-07 at cycle  11 NSaved=  11.
 NSaved=11 IEnMin=11 EnMin= -797.024502450571     IErMin=11 ErrMin= 2.52D-07
 ErrMax= 2.52D-07  0.00D+00 EMaxC= 1.00D-01 BMatC= 1.47D-11 BMatP= 6.29D-10
 IDIUse=1 WtCom= 1.00D+00 WtEn= 0.00D+00
 Coeff-Com: -0.187D-06 0.152D-06 0.558D-04 0.591D-04 0.265D-03-0.995D-04
 Coeff-Com: -0.457D-02-0.118D-01-0.174D-01 0.105D+00 0.929D+00
 Coeff:     -0.187D-06 0.152D-06 0.558D-04 0.591D-04 0.265D-03-0.995D-04
 Coeff:     -0.457D-02-0.118D-01-0.174D-01 0.105D+00 0.929D+00
 Gap=     0.335 Goal=   None    Shift=    0.000
 RMSDP=2.15D-08 MaxDP=6.16D-07 DE=-4.44D-10 OVMax= 1.35D-06

 Cycle  12  Pass 1  IDiag  1:
 RMSU=  1.25D-08    CP:  9.89D-01  8.05D-01  9.65D-01  5.94D-01  1.04D+00
                    CP:  9.79D-01  1.05D+00  1.01D+00  1.22D+00  8.14D-01
                    CP:  1.02D+00
 E= -797.024502450581     Delta-E=       -0.000000000010 Rises=F Damp=F
 DIIS: error= 3.55D-08 at cycle  12 NSaved=  12.
 NSaved=12 IEnMin=12 EnMin= -797.024502450581     IErMin=12 ErrMin= 3.55D-08
 ErrMax= 3.55D-08  0.00D+00 EMaxC= 1.00D-01 BMatC= 5.42D-13 BMatP= 1.47D-11
 IDIUse=1 WtCom= 1.00D+00 WtEn= 0.00D+00
 Coeff-Com:  0.969D-06-0.163D-05-0.683D-05-0.114D-04 0.258D-04 0.359D-03
 Coeff-Com:  0.738D-03-0.109D-02-0.261D-01-0.250D-02 0.202D+00 0.827D+00
 Coeff:      0.969D-06-0.163D-05-0.683D-05-0.114D-04 0.258D-04 0.359D-03
 Coeff:      0.738D-03-0.109D-02-0.261D-01-0.250D-02 0.202D+00 0.827D+00
 Gap=     0.335 Goal=   None    Shift=    0.000
 RMSDP=4.73D-09 MaxDP=1.15D-07 DE=-1.00D-11 OVMax= 1.94D-07

 SCF Done:  E(RM062X) =  -797.024502451     A.U. after   12 cycles
            NFock= 12  Conv=0.47D-08     -V/T= 2.0026
 KE= 7.949604864111D+02 PE=-2.783586178777D+03 EE= 7.444485480082D+02
 Leave Link  502 at Fri Feb 17 21:09:40 2023, MaxMem=  6710886400 cpu:             292.1 elap:              12.2
 (Enter /data0/home/software/g16/l601.exe)
 Copying SCF densities to generalized density rwf, IOpCl= 0 IROHF=0.

 **********************************************************************

            Population analysis using the SCF density.

 **********************************************************************

 Alpha  occ. eigenvalues --  -78.16931 -19.69412 -19.67568 -19.67567 -19.66763
 Alpha  occ. eigenvalues --  -19.59911 -19.58419  -6.97687  -5.09591  -5.09569
 Alpha  occ. eigenvalues --   -5.09413  -1.23879  -1.19796  -1.16173  -1.15708
 Alpha  occ. eigenvalues --   -1.10465  -1.09247  -0.72502  -0.66514  -0.65203
 Alpha  occ. eigenvalues --   -0.63854  -0.58091  -0.56662  -0.54574  -0.53087
 Alpha  occ. eigenvalues --   -0.50954  -0.49993  -0.47275  -0.45909  -0.45586
 Alpha  occ. eigenvalues --   -0.43659  -0.42867  -0.39879  -0.38644  -0.36117
 Alpha virt. eigenvalues --   -0.02604   0.00352   0.02226   0.03729   0.07012
 Alpha virt. eigenvalues --    0.09849   0.10065   0.10948   0.12915   0.13803
 Alpha virt. eigenvalues --    0.14342   0.15352   0.15766   0.16938   0.17166
 Alpha virt. eigenvalues --    0.17663   0.18402   0.18961   0.19446   0.21467
 Alpha virt. eigenvalues --    0.21961   0.22718   0.23023   0.24121   0.24627
 Alpha virt. eigenvalues --    0.25245   0.26224   0.27151   0.28559   0.29022
 Alpha virt. eigenvalues --    0.29438   0.30117   0.31353   0.32624   0.34990
 Alpha virt. eigenvalues --    0.36467   0.36820   0.37247   0.39160   0.41454
 Alpha virt. eigenvalues --    0.43761   0.46162   0.47661   0.48816   0.52248
 Alpha virt. eigenvalues --    0.53936   0.56525   0.58249   0.60757   0.64760
 Alpha virt. eigenvalues --    0.67689   0.76015   0.76520   0.78552   0.86938
 Alpha virt. eigenvalues --    0.91665   0.97451   0.99109   1.01925   1.02894
 Alpha virt. eigenvalues --    1.04182   1.05494   1.05985   1.09494   1.10829
 Alpha virt. eigenvalues --    1.12398   1.12938   1.14259   1.15254   1.15537
 Alpha virt. eigenvalues --    1.17485   1.18415   1.20106   1.22026   1.22704
 Alpha virt. eigenvalues --    1.24937   1.26110   1.27396   1.29074   1.30472
 Alpha virt. eigenvalues --    1.33564   1.34986   1.37077   1.38630   1.40409
 Alpha virt. eigenvalues --    1.42571   1.44543   1.46969   1.51489   1.52080
 Alpha virt. eigenvalues --    1.57316   1.58484   1.61312   1.64255   1.64783
 Alpha virt. eigenvalues --    1.66535   1.68246   1.69203   1.70482   1.71182
 Alpha virt. eigenvalues --    1.75733   1.77139   1.79277   1.79583   1.81759
 Alpha virt. eigenvalues --    1.84762   1.87475   1.91868   1.94052   1.96698
 Alpha virt. eigenvalues --    2.02460   2.04363   2.06912   2.09652   2.11567
 Alpha virt. eigenvalues --    2.12926   2.14810   2.16529   2.18691   2.19719
 Alpha virt. eigenvalues --    2.27076   2.27922   2.29637   2.35461   2.37610
 Alpha virt. eigenvalues --    2.43740   2.46823   2.48337   2.49219   2.51626
 Alpha virt. eigenvalues --    2.53624   2.62585   2.63631   2.64940   2.69160
 Alpha virt. eigenvalues --    2.73237   2.75370   2.83796   2.87956   2.91584
 Alpha virt. eigenvalues --    2.94444   2.96711   2.97500   3.02198   3.13322
 Alpha virt. eigenvalues --    5.03839   5.06881   5.07886   5.08569   5.08999
 Alpha virt. eigenvalues --    5.11402   5.13849   5.16822   5.20028   5.27798
 Alpha virt. eigenvalues --    5.36583   5.44548   5.52319   5.53890   5.55433
 Alpha virt. eigenvalues --    5.59120   5.82754   5.99027   6.71743   6.73386
 Alpha virt. eigenvalues --    6.73818   6.75339   6.75561   6.78399   6.80767
 Alpha virt. eigenvalues --    6.82370   6.82648   6.84251   6.84850   6.85198
 Alpha virt. eigenvalues --    6.86641   6.91449   6.92622   6.93723   6.94939
 Alpha virt. eigenvalues --    6.96380   6.97218   7.00994   7.01577   7.04559
 Alpha virt. eigenvalues --    7.08682   7.14225   7.16853   7.24732   7.25490
 Alpha virt. eigenvalues --    7.28345   7.34167   7.40687   7.65271  14.22462
 Alpha virt. eigenvalues --   14.25420  14.36472  49.93614  50.01273  50.01402
 Alpha virt. eigenvalues --   50.02736  50.03972  50.10127 163.87539
          Condensed to atoms (all electrons):
               1          2          3          4          5          6
     1  P   12.484164   0.535911   0.270917   0.016121   0.197216   0.026719
     2  O    0.535911   8.158690  -0.023303   0.008292  -0.029898   0.001688
     3  O    0.270917  -0.023303   8.263322   0.216862  -0.007965  -0.013346
     4  H    0.016121   0.008292   0.216862   0.290446   0.002362   0.000479
     5  O    0.197216  -0.029898  -0.007965   0.002362   8.105110   0.242128
     6  H    0.026719   0.001688  -0.013346   0.000479   0.242128   0.442101
     7  O    0.243374  -0.018598  -0.032310   0.005166  -0.008201  -0.017872
     8  H    0.014525  -0.011261  -0.014864   0.001141   0.000737   0.002142
     9  O    0.003334   0.004564   0.028044  -0.025917   0.001029  -0.000057
    10  H   -0.002840  -0.001414  -0.001661  -0.000582  -0.000098   0.000008
    11  H    0.001442   0.000879  -0.005725   0.005902  -0.000108   0.000014
    12  O    0.003327  -0.015308   0.000233   0.000065  -0.003228   0.000041
    13  H    0.005265  -0.001082   0.000175  -0.000016  -0.000590  -0.000029
    14  H    0.009220   0.028781   0.001883  -0.000220  -0.000648   0.000081
               7          8          9         10         11         12
     1  P    0.243374   0.014525   0.003334  -0.002840   0.001442   0.003327
     2  O   -0.018598  -0.011261   0.004564  -0.001414   0.000879  -0.015308
     3  O   -0.032310  -0.014864   0.028044  -0.001661  -0.005725   0.000233
     4  H    0.005166   0.001141  -0.025917  -0.000582   0.005902   0.000065
     5  O   -0.008201   0.000737   0.001029  -0.000098  -0.000108  -0.003228
     6  H   -0.017872   0.002142  -0.000057   0.000008   0.000014   0.000041
     7  O    8.086732   0.253253  -0.007069   0.000621   0.000367   0.004343
     8  H    0.253253   0.439678  -0.001330   0.000129   0.000095  -0.000998
     9  O   -0.007069  -0.001330   7.936600   0.327320   0.335919  -0.000198
    10  H    0.000621   0.000129   0.327320   0.387009  -0.022753   0.000027
    11  H    0.000367   0.000095   0.335919  -0.022753   0.365010   0.000026
    12  O    0.004343  -0.000998  -0.000198   0.000027   0.000026   8.033679
    13  H   -0.001693  -0.000189   0.000013  -0.000002  -0.000002   0.293722
    14  H   -0.000982   0.000054   0.000425  -0.000037  -0.000059   0.284124
              13         14
     1  P    0.005265   0.009220
     2  O   -0.001082   0.028781
     3  O    0.000175   0.001883
     4  H   -0.000016  -0.000220
     5  O   -0.000590  -0.000648
     6  H   -0.000029   0.000081
     7  O   -0.001693  -0.000982
     8  H   -0.000189   0.000054
     9  O    0.000013   0.000425
    10  H   -0.000002  -0.000037
    11  H   -0.000002  -0.000059
    12  O    0.293722   0.284124
    13  H    0.456415  -0.013597
    14  H   -0.013597   0.362129
 Mulliken charges:
               1
     1  P    1.191305
     2  O   -0.637942
     3  O   -0.682262
     4  H    0.479899
     5  O   -0.497847
     6  H    0.315903
     7  O   -0.507131
     8  H    0.316888
     9  O   -0.602676
    10  H    0.314273
    11  H    0.318994
    12  O   -0.599857
    13  H    0.261609
    14  H    0.328845
 Sum of Mulliken charges =  -0.00000
 Mulliken charges with hydrogens summed into heavy atoms:
               1
     1  P    1.191305
     2  O   -0.637942
     3  O   -0.202363
     5  O   -0.181944
     7  O   -0.190243
     9  O    0.030591
    12  O   -0.009404
         Mulliken charges condensed to fragments:
      1     -0.021187
      2      0.030591
      3     -0.009404
 Electronic spatial extent (au):  <R**2>=          94421.6300
 Charge=             -0.0000 electrons
 Dipole moment (field-independent basis, Debye):
    X=             -2.9083    Y=             -3.5328    Z=              1.8060  Tot=              4.9194
 Quadrupole moment (field-independent basis, Debye-Ang):
   XX=           -114.6368   YY=           -117.4953   ZZ=             -4.3087
   XY=            -66.0955   XZ=            -10.7479   YZ=            -12.7218
 Traceless Quadrupole moment (field-independent basis, Debye-Ang):
   XX=            -35.8232   YY=            -38.6817   ZZ=             74.5049
   XY=            -66.0955   XZ=            -10.7479   YZ=            -12.7218
 Octapole moment (field-independent basis, Debye-Ang**2):
  XXX=          -2888.0134  YYY=          -2306.3774  ZZZ=           -929.4078  XYY=          -1590.4992
  XXY=          -1492.9221  XXZ=          -1068.9157  XZZ=           -405.4827  YZZ=           -263.6464
  YYZ=          -1022.0466  XYZ=           -420.9215
 Hexadecapole moment (field-independent basis, Debye-Ang**3):
 XXXX=         -59844.8074 YYYY=         -37107.4703 ZZZZ=         -28856.3896 XXXY=         -31494.2846
 XXXZ=         -30955.4217 YYYX=         -28963.3835 YYYZ=         -22996.0199 ZZZX=         -14909.3196
 ZZZY=          -9923.5391 XXYY=         -25267.0350 XXZZ=         -15993.8033 YYZZ=         -12441.6015
 XXYZ=         -13344.5055 YYXZ=         -14352.8740 ZZXY=          -6147.7250
 N-N= 4.471526419074D+02 E-N=-2.783586181625D+03  KE= 7.949604864111D+02
 No NMR shielding tensors so no spin-rotation constants.
 Leave Link  601 at Fri Feb 17 21:09:40 2023, MaxMem=  6710886400 cpu:               2.1 elap:               0.1
 (Enter /data0/home/software/g16/l122.exe)
 CPIOFr:  IOpCl= 0 IRwI=-1 IRwCP=  731 ICalc= -1 LCPTot=       89292 Len1MO=      233639 IndFrg=       89292
 CPIOFr:  IOpCl= 0 IRwI=-1 IRwCP=  731 ICalc=  0 LCPTot=       89292 Len1MO=      233639 IndFrg=      322931
 Counterpoise: doing calculation for fragment   1 using the basis set of the full-system, NewBq=T
 Leave Link  122 at Fri Feb 17 21:09:40 2023, MaxMem=  6710886400 cpu:               0.1 elap:               0.0
 (Enter /data0/home/software/g16/l301.exe)
 Basis read from rwf:  (5D, 7F)
 No pseudopotential information found on rwf file.
   239 basis functions,   364 primitive gaussians,   253 cartesian basis functions
    25 alpha electrons       25 beta electrons
       nuclear repulsion energy       280.2317768445 Hartrees.
 IExCor= 4336 DFT=T Ex+Corr=M062X ExCW=0 ScaHFX=  0.540000
 ScaDFX=  1.000000  1.000000  1.000000  1.000000 ScalE2=  1.000000  1.000000
 IRadAn=      5 IRanWt=     -1 IRanGd=            0 ICorTp=0 IEmpDi=131
 NAtoms=   14 NActive=   14 NUniq=   14 SFac= 1.00D+00 NAtFMM=   60 NAOKFM=F Big=F
 Integral buffers will be    131072 words long.
 Raffenetti 2 integral format.
 Two-electron integral symmetry is turned off.
 R6Disp:  Grimme-D3 Dispersion energy=       -0.0000442898 Hartrees.
 Nuclear repulsion after empirical dispersion term =      280.2317325548 Hartrees.
 No density basis found on file   718.
 Leave Link  301 at Fri Feb 17 21:09:40 2023, MaxMem=  6710886400 cpu:               1.3 elap:               0.1
 (Enter /data0/home/software/g16/l302.exe)
 NPDir=0 NMtPBC=     1 NCelOv=     1 NCel=       1 NClECP=     1 NCelD=      1
         NCelK=      1 NCelE2=     1 NClLst=     1 CellRange=     0.0.
 One-electron integrals computed using PRISM.
 NBasis=   239 RedAO= T EigKep=  3.55D-04  NBF=   239
 NBsUse=   239 1.00D-06 EigRej= -1.00D+00 NBFU=   239
 Precomputing XC quadrature grid using
 IXCGrd= 4 IRadAn=           5 IRanWt=          -1 IRanGd=           0 AccXCQ= 0.00D+00.
 Generated NRdTot=       0 NPtTot=           0 NUsed=           0 NTot=          32
 NSgBfM=   253   253   253   253   253 MxSgAt=    14 MxSgA2=    14.
 Leave Link  302 at Fri Feb 17 21:09:41 2023, MaxMem=  6710886400 cpu:               3.8 elap:               0.2
 (Enter /data0/home/software/g16/l303.exe)
 DipDrv:  MaxL=1.
 Leave Link  303 at Fri Feb 17 21:09:41 2023, MaxMem=  6710886400 cpu:               0.6 elap:               0.0
 (Enter /data0/home/software/g16/l401.exe)
 ExpMin= 3.48D-02 ExpMax= 7.75D+04 ExpMxC= 2.65D+03 IAcc=3 IRadAn=         5 AccDes= 0.00D+00
 Harris functional with IExCor= 1009 and IRadAn=       5 diagonalized for initial guess.
 HarFok:  IExCor= 1009 AccDes= 0.00D+00 IRadAn=         5 IDoV= 1 UseB2=F ITyADJ=14
 ICtDFT=  3500011 ScaDFX=  1.000000  1.000000  1.000000  1.000000
 FoFCou: FMM=F IPFlag=           0 FMFlag=      100000 FMFlg1=           0
         NFxFlg=           0 DoJE=T BraDBF=F KetDBF=T FulRan=T
         wScrn=  0.000000 ICntrl=       500 IOpCl=  0 I1Cent=   200000004 NGrid=           0
         NMat0=    1 NMatS0=      1 NMatT0=    0 NMatD0=    1 NMtDS0=    0 NMtDT0=    0
 Symmetry not used in FoFCou.
 Harris En= -643.943735572052    
 JPrj=0 DoOrth=F DoCkMO=F.
 Leave Link  401 at Fri Feb 17 21:09:41 2023, MaxMem=  6710886400 cpu:              10.3 elap:               0.5
 (Enter /data0/home/software/g16/l502.exe)
 Two-electron integral symmetry not used.
 Closed shell SCF:
 Using DIIS extrapolation, IDIIS=  1040.
 NGot=  6710886400 LenX=  6710750439 LenY=  6710685989
 Requested convergence on RMS density matrix=1.00D-08 within 128 cycles.
 Requested convergence on MAX density matrix=1.00D-06.
 Requested convergence on             energy=1.00D-06.
 No special actions if energy rises.
 Fock matrices will be formed incrementally for  20 cycles.

 Cycle   1  Pass 1  IDiag  1:
 FoFJK:  IHMeth= 1 ICntrl=       0 DoSepK=F KAlg= 0 I1Cent=           0 FoldK=F
 IRaf= 910000000 NMat=       1 IRICut=       1 DoRegI=T DoRafI=F ISym2E= 0 IDoP0=0 IntGTp=1.
 FoFCou: FMM=F IPFlag=           0 FMFlag=      100000 FMFlg1=           0
         NFxFlg=           0 DoJE=F BraDBF=F KetDBF=F FulRan=T
         wScrn=  0.000000 ICntrl=         0 IOpCl=  0 I1Cent=           0 NGrid=           0
         NMat0=    1 NMatS0=      1 NMatT0=    0 NMatD0=    1 NMtDS0=    0 NMtDT0=    0
 Symmetry not used in FoFCou.
 E= -643.860643531342    
 DIIS: error= 3.39D-02 at cycle   1 NSaved=   1.
 NSaved= 1 IEnMin= 1 EnMin= -643.860643531342     IErMin= 1 ErrMin= 3.39D-02
 ErrMax= 3.39D-02  0.00D+00 EMaxC= 1.00D-01 BMatC= 5.08D-01 BMatP= 5.08D-01
 IDIUse=3 WtCom= 6.61D-01 WtEn= 3.39D-01
 Coeff-Com:  0.100D+01
 Coeff-En:   0.100D+01
 Coeff:      0.100D+01
 Gap=     0.268 Goal=   None    Shift=    0.000
 GapD=    0.268 DampG=1.000 DampE=0.500 DampFc=0.5000 IDamp=-1.
 Damping current iteration by 5.00D-01
 RMSDP=4.86D-03 MaxDP=1.54D-01              OVMax= 2.60D-01

 Cycle   2  Pass 1  IDiag  1:
 RMSU=  2.43D-03    CP:  1.00D+00
 E= -643.977351356679     Delta-E=       -0.116707825338 Rises=F Damp=T
 DIIS: error= 9.40D-03 at cycle   2 NSaved=   2.
 NSaved= 2 IEnMin= 2 EnMin= -643.977351356679     IErMin= 2 ErrMin= 9.40D-03
 ErrMax= 9.40D-03  0.00D+00 EMaxC= 1.00D-01 BMatC= 2.70D-02 BMatP= 5.08D-01
 IDIUse=3 WtCom= 9.06D-01 WtEn= 9.40D-02
 Coeff-Com:  0.706D-01 0.929D+00
 Coeff-En:   0.202D+00 0.798D+00
 Coeff:      0.829D-01 0.917D+00
 Gap=     0.355 Goal=   None    Shift=    0.000
 RMSDP=1.14D-03 MaxDP=5.14D-02 DE=-1.17D-01 OVMax= 1.72D-01

 Cycle   3  Pass 1  IDiag  1:
 RMSU=  8.49D-04    CP:  9.91D-01  6.90D-01
 E= -644.142281790066     Delta-E=       -0.164930433387 Rises=F Damp=F
 DIIS: error= 5.46D-03 at cycle   3 NSaved=   3.
 NSaved= 3 IEnMin= 3 EnMin= -644.142281790066     IErMin= 3 ErrMin= 5.46D-03
 ErrMax= 5.46D-03  0.00D+00 EMaxC= 1.00D-01 BMatC= 1.02D-02 BMatP= 2.70D-02
 IDIUse=3 WtCom= 9.45D-01 WtEn= 5.46D-02
 Coeff-Com: -0.152D-01 0.340D+00 0.675D+00
 Coeff-En:   0.000D+00 0.000D+00 0.100D+01
 Coeff:     -0.143D-01 0.322D+00 0.693D+00
 Gap=     0.345 Goal=   None    Shift=    0.000
 RMSDP=4.49D-04 MaxDP=1.50D-02 DE=-1.65D-01 OVMax= 3.48D-02

 Cycle   4  Pass 1  IDiag  1:
 RMSU=  3.70D-04    CP:  9.91D-01  7.81D-01  8.50D-01
 E= -644.146941187321     Delta-E=       -0.004659397255 Rises=F Damp=F
 DIIS: error= 2.94D-03 at cycle   4 NSaved=   4.
 NSaved= 4 IEnMin= 4 EnMin= -644.146941187321     IErMin= 4 ErrMin= 2.94D-03
 ErrMax= 2.94D-03  0.00D+00 EMaxC= 1.00D-01 BMatC= 3.79D-03 BMatP= 1.02D-02
 IDIUse=3 WtCom= 9.71D-01 WtEn= 2.94D-02
 Coeff-Com: -0.212D-01 0.486D-01 0.400D+00 0.573D+00
 Coeff-En:   0.000D+00 0.000D+00 0.270D+00 0.730D+00
 Coeff:     -0.206D-01 0.472D-01 0.396D+00 0.577D+00
 Gap=     0.350 Goal=   None    Shift=    0.000
 RMSDP=1.77D-04 MaxDP=6.10D-03 DE=-4.66D-03 OVMax= 1.11D-02

 Cycle   5  Pass 1  IDiag  1:
 RMSU=  4.93D-05    CP:  9.91D-01  7.59D-01  9.52D-01  6.33D-01
 E= -644.149446700005     Delta-E=       -0.002505512683 Rises=F Damp=F
 DIIS: error= 1.79D-04 at cycle   5 NSaved=   5.
 NSaved= 5 IEnMin= 5 EnMin= -644.149446700005     IErMin= 5 ErrMin= 1.79D-04
 ErrMax= 1.79D-04  0.00D+00 EMaxC= 1.00D-01 BMatC= 1.40D-05 BMatP= 3.79D-03
 IDIUse=3 WtCom= 9.98D-01 WtEn= 1.79D-03
 Coeff-Com: -0.255D-02 0.687D-03 0.591D-01 0.117D+00 0.825D+00
 Coeff-En:   0.000D+00 0.000D+00 0.000D+00 0.000D+00 0.100D+01
 Coeff:     -0.254D-02 0.686D-03 0.590D-01 0.117D+00 0.826D+00
 Gap=     0.349 Goal=   None    Shift=    0.000
 RMSDP=1.75D-05 MaxDP=8.18D-04 DE=-2.51D-03 OVMax= 7.24D-04

 Cycle   6  Pass 1  IDiag  1:
 RMSU=  1.31D-05    CP:  9.90D-01  7.56D-01  9.56D-01  6.56D-01  1.03D+00
 E= -644.149456171359     Delta-E=       -0.000009471354 Rises=F Damp=F
 DIIS: error= 4.31D-05 at cycle   6 NSaved=   6.
 NSaved= 6 IEnMin= 6 EnMin= -644.149456171359     IErMin= 6 ErrMin= 4.31D-05
 ErrMax= 4.31D-05  0.00D+00 EMaxC= 1.00D-01 BMatC= 1.08D-06 BMatP= 1.40D-05
 IDIUse=1 WtCom= 1.00D+00 WtEn= 0.00D+00
 Coeff-Com: -0.786D-05-0.136D-02 0.213D-02 0.105D-01 0.215D+00 0.773D+00
 Coeff:     -0.786D-05-0.136D-02 0.213D-02 0.105D-01 0.215D+00 0.773D+00
 Gap=     0.349 Goal=   None    Shift=    0.000
 RMSDP=6.27D-06 MaxDP=2.17D-04 DE=-9.47D-06 OVMax= 2.17D-04

 Cycle   7  Pass 1  IDiag  1:
 RMSU=  3.57D-06    CP:  9.90D-01  7.55D-01  9.57D-01  6.58D-01  1.12D+00
                    CP:  9.26D-01
 E= -644.149456940644     Delta-E=       -0.000000769285 Rises=F Damp=F
 DIIS: error= 2.52D-05 at cycle   7 NSaved=   7.
 NSaved= 7 IEnMin= 7 EnMin= -644.149456940644     IErMin= 7 ErrMin= 2.52D-05
 ErrMax= 2.52D-05  0.00D+00 EMaxC= 1.00D-01 BMatC= 2.23D-07 BMatP= 1.08D-06
 IDIUse=1 WtCom= 1.00D+00 WtEn= 0.00D+00
 Coeff-Com:  0.357D-03-0.623D-03-0.801D-02-0.129D-01-0.220D-01 0.305D+00
 Coeff-Com:  0.738D+00
 Coeff:      0.357D-03-0.623D-03-0.801D-02-0.129D-01-0.220D-01 0.305D+00
 Coeff:      0.738D+00
 Gap=     0.349 Goal=   None    Shift=    0.000
 RMSDP=2.35D-06 MaxDP=6.44D-05 DE=-7.69D-07 OVMax= 9.23D-05

 Cycle   8  Pass 1  IDiag  1:
 RMSU=  1.63D-06    CP:  9.90D-01  7.55D-01  9.58D-01  6.59D-01  1.13D+00
                    CP:  1.00D+00  8.88D-01
 E= -644.149457087590     Delta-E=       -0.000000146946 Rises=F Damp=F
 DIIS: error= 9.61D-06 at cycle   8 NSaved=   8.
 NSaved= 8 IEnMin= 8 EnMin= -644.149457087590     IErMin= 8 ErrMin= 9.61D-06
 ErrMax= 9.61D-06  0.00D+00 EMaxC= 1.00D-01 BMatC= 3.44D-08 BMatP= 2.23D-07
 IDIUse=1 WtCom= 1.00D+00 WtEn= 0.00D+00
 Coeff-Com:  0.153D-03-0.201D-03-0.379D-02-0.618D-02-0.184D-01 0.955D-01
 Coeff-Com:  0.360D+00 0.573D+00
 Coeff:      0.153D-03-0.201D-03-0.379D-02-0.618D-02-0.184D-01 0.955D-01
 Coeff:      0.360D+00 0.573D+00
 Gap=     0.349 Goal=   None    Shift=    0.000
 RMSDP=5.96D-07 MaxDP=2.02D-05 DE=-1.47D-07 OVMax= 3.23D-05

 Cycle   9  Pass 1  IDiag  1:
 RMSU=  3.62D-07    CP:  9.90D-01  7.55D-01  9.58D-01  6.59D-01  1.13D+00
                    CP:  1.01D+00  9.76D-01  8.10D-01
 E= -644.149457112096     Delta-E=       -0.000000024506 Rises=F Damp=F
 DIIS: error= 8.74D-07 at cycle   9 NSaved=   9.
 NSaved= 9 IEnMin= 9 EnMin= -644.149457112096     IErMin= 9 ErrMin= 8.74D-07
 ErrMax= 8.74D-07  0.00D+00 EMaxC= 1.00D-01 BMatC= 7.11D-10 BMatP= 3.44D-08
 IDIUse=1 WtCom= 1.00D+00 WtEn= 0.00D+00
 Coeff-Com: -0.242D-04 0.464D-04 0.248D-03 0.522D-03-0.555D-03-0.189D-01
 Coeff-Com: -0.268D-01 0.704D-01 0.975D+00
 Coeff:     -0.242D-04 0.464D-04 0.248D-03 0.522D-03-0.555D-03-0.189D-01
 Coeff:     -0.268D-01 0.704D-01 0.975D+00
 Gap=     0.349 Goal=   None    Shift=    0.000
 RMSDP=2.11D-07 MaxDP=7.50D-06 DE=-2.45D-08 OVMax= 9.02D-06

 Cycle  10  Pass 1  IDiag  1:
 RMSU=  9.22D-08    CP:  9.90D-01  7.55D-01  9.58D-01  6.59D-01  1.13D+00
                    CP:  1.01D+00  1.00D+00  8.81D-01  1.13D+00
 E= -644.149457112935     Delta-E=       -0.000000000839 Rises=F Damp=F
 DIIS: error= 2.04D-07 at cycle  10 NSaved=  10.
 NSaved=10 IEnMin=10 EnMin= -644.149457112935     IErMin=10 ErrMin= 2.04D-07
 ErrMax= 2.04D-07  0.00D+00 EMaxC= 1.00D-01 BMatC= 1.74D-11 BMatP= 7.11D-10
 IDIUse=1 WtCom= 1.00D+00 WtEn= 0.00D+00
 Coeff-Com: -0.474D-05 0.794D-05 0.116D-03 0.191D-03 0.433D-03-0.472D-02
 Coeff-Com: -0.145D-01-0.110D-01 0.752D-01 0.954D+00
 Coeff:     -0.474D-05 0.794D-05 0.116D-03 0.191D-03 0.433D-03-0.472D-02
 Coeff:     -0.145D-01-0.110D-01 0.752D-01 0.954D+00
 Gap=     0.349 Goal=   None    Shift=    0.000
 RMSDP=4.12D-08 MaxDP=8.15D-07 DE=-8.39D-10 OVMax= 1.85D-06

 Cycle  11  Pass 1  IDiag  1:
 RMSU=  2.32D-08    CP:  9.90D-01  7.55D-01  9.58D-01  6.59D-01  1.14D+00
                    CP:  1.01D+00  1.00D+00  8.93D-01  1.19D+00  1.12D+00
 E= -644.149457112981     Delta-E=       -0.000000000046 Rises=F Damp=F
 DIIS: error= 1.72D-07 at cycle  11 NSaved=  11.
 NSaved=11 IEnMin=11 EnMin= -644.149457112981     IErMin=11 ErrMin= 1.72D-07
 ErrMax= 1.72D-07  0.00D+00 EMaxC= 1.00D-01 BMatC= 8.95D-12 BMatP= 1.74D-11
 IDIUse=1 WtCom= 1.00D+00 WtEn= 0.00D+00
 Coeff-Com: -0.247D-06 0.431D-07 0.378D-04 0.524D-04 0.253D-03-0.908D-03
 Coeff-Com: -0.490D-02-0.101D-01-0.376D-01 0.473D+00 0.580D+00
 Coeff:     -0.247D-06 0.431D-07 0.378D-04 0.524D-04 0.253D-03-0.908D-03
 Coeff:     -0.490D-02-0.101D-01-0.376D-01 0.473D+00 0.580D+00
 Gap=     0.349 Goal=   None    Shift=    0.000
 RMSDP=1.19D-08 MaxDP=4.58D-07 DE=-4.58D-11 OVMax= 5.39D-07

 Cycle  12  Pass 1  IDiag  1:
 RMSU=  8.50D-09    CP:  9.90D-01  7.55D-01  9.58D-01  6.59D-01  1.14D+00
                    CP:  1.01D+00  1.00D+00  8.93D-01  1.20D+00  1.19D+00
                    CP:  8.31D-01
 E= -644.149457112961     Delta-E=        0.000000000020 Rises=F Damp=F
 DIIS: error= 2.95D-08 at cycle  12 NSaved=  12.
 NSaved=12 IEnMin=11 EnMin= -644.149457112981     IErMin=12 ErrMin= 2.95D-08
 ErrMax= 2.95D-08  0.00D+00 EMaxC= 1.00D-01 BMatC= 4.87D-13 BMatP= 8.95D-12
 IDIUse=1 WtCom= 1.00D+00 WtEn= 0.00D+00
 Coeff-Com:  0.677D-06-0.122D-05-0.421D-05-0.101D-04 0.171D-04 0.394D-03
 Coeff-Com:  0.765D-03-0.132D-02-0.240D-01 0.887D-02 0.184D+00 0.831D+00
 Coeff:      0.677D-06-0.122D-05-0.421D-05-0.101D-04 0.171D-04 0.394D-03
 Coeff:      0.765D-03-0.132D-02-0.240D-01 0.887D-02 0.184D+00 0.831D+00
 Gap=     0.349 Goal=   None    Shift=    0.000
 RMSDP=4.00D-09 MaxDP=1.04D-07 DE= 2.05D-11 OVMax= 1.86D-07

 SCF Done:  E(RM062X) =  -644.149457113     A.U. after   12 cycles
            NFock= 12  Conv=0.40D-08     -V/T= 2.0025
 KE= 6.425526811362D+02 PE=-2.088185481453D+03 EE= 5.212516106489D+02
 Leave Link  502 at Fri Feb 17 21:09:53 2023, MaxMem=  6710886400 cpu:             281.8 elap:              11.8
 (Enter /data0/home/software/g16/l601.exe)
 Copying SCF densities to generalized density rwf, IOpCl= 0 IROHF=0.

 **********************************************************************

            Population analysis using the SCF density.

 **********************************************************************

 Alpha  occ. eigenvalues --  -78.16797 -19.69537 -19.67698 -19.67602 -19.58740
 Alpha  occ. eigenvalues --   -6.97581  -5.09497  -5.09455  -5.09280  -1.24444
 Alpha  occ. eigenvalues --   -1.17256  -1.16211  -1.09097  -0.72990  -0.65778
 Alpha  occ. eigenvalues --   -0.63817  -0.57785  -0.54031  -0.50862  -0.50198
 Alpha  occ. eigenvalues --   -0.46667  -0.45275  -0.43882  -0.38706  -0.37624
 Alpha virt. eigenvalues --   -0.02682   0.00895   0.01819   0.04495   0.06678
 Alpha virt. eigenvalues --    0.09441   0.10045   0.11270   0.11662   0.13025
 Alpha virt. eigenvalues --    0.14947   0.15408   0.15954   0.16475   0.17427
 Alpha virt. eigenvalues --    0.18459   0.19550   0.19900   0.20547   0.20851
 Alpha virt. eigenvalues --    0.22530   0.23406   0.24372   0.25898   0.25911
 Alpha virt. eigenvalues --    0.27993   0.28388   0.29324   0.29864   0.30205
 Alpha virt. eigenvalues --    0.30731   0.31712   0.32958   0.33811   0.36233
 Alpha virt. eigenvalues --    0.37351   0.38678   0.39376   0.39981   0.42155
 Alpha virt. eigenvalues --    0.42682   0.46098   0.48705   0.51456   0.55393
 Alpha virt. eigenvalues --    0.57449   0.64129   0.64406   0.65644   0.69283
 Alpha virt. eigenvalues --    0.72239   0.75202   0.75768   0.77653   0.78166
 Alpha virt. eigenvalues --    0.80668   0.83994   0.88620   0.90214   0.91309
 Alpha virt. eigenvalues --    0.97805   0.99123   1.02477   1.04024   1.05483
 Alpha virt. eigenvalues --    1.07605   1.08902   1.12971   1.13596   1.15089
 Alpha virt. eigenvalues --    1.16795   1.19361   1.22145   1.23029   1.25412
 Alpha virt. eigenvalues --    1.27354   1.28947   1.34160   1.35179   1.37774
 Alpha virt. eigenvalues --    1.41317   1.46076   1.49406   1.52439   1.54692
 Alpha virt. eigenvalues --    1.57418   1.60569   1.61700   1.66787   1.68839
 Alpha virt. eigenvalues --    1.70504   1.72049   1.73134   1.74158   1.76778
 Alpha virt. eigenvalues --    1.80265   1.82151   1.84134   1.85179   1.86834
 Alpha virt. eigenvalues --    1.88729   1.92952   1.96257   1.97343   2.00581
 Alpha virt. eigenvalues --    2.02732   2.05115   2.09666   2.12659   2.16320
 Alpha virt. eigenvalues --    2.18864   2.20453   2.21394   2.23133   2.26006
 Alpha virt. eigenvalues --    2.27345   2.34549   2.36745   2.37849   2.43106
 Alpha virt. eigenvalues --    2.46083   2.47367   2.50167   2.54442   2.56658
 Alpha virt. eigenvalues --    2.59760   2.61176   2.61613   2.63082   2.64794
 Alpha virt. eigenvalues --    2.65754   2.67482   2.69618   2.70336   2.73574
 Alpha virt. eigenvalues --    2.77930   2.79689   2.84333   2.89436   2.91379
 Alpha virt. eigenvalues --    2.93963   2.95449   2.98189   3.03479   3.12075
 Alpha virt. eigenvalues --    3.44765   3.51515   3.56445   3.65212   4.44128
 Alpha virt. eigenvalues --    4.55980   4.97973   5.02885   5.07063   5.07605
 Alpha virt. eigenvalues --    5.08170   5.10232   5.13718   5.16601   5.20277
 Alpha virt. eigenvalues --    5.30337   5.39905   5.52393   5.54641   5.59547
 Alpha virt. eigenvalues --    6.71172   6.74193   6.75509   6.77946   6.80235
 Alpha virt. eigenvalues --    6.81354   6.85860   6.86443   6.92917   6.93546
 Alpha virt. eigenvalues --    6.94338   6.96359   7.00988   7.08033   7.12569
 Alpha virt. eigenvalues --    7.24190   7.25597   7.27822   7.32930   7.41584
 Alpha virt. eigenvalues --    7.65194   9.76416   9.77592   9.88361   9.88651
 Alpha virt. eigenvalues --    9.91329   9.97954   9.99330  10.04103  10.05213
 Alpha virt. eigenvalues --   10.21665  12.85543  12.96363  13.18380  13.36318
 Alpha virt. eigenvalues --   13.59546  13.86508  14.22595  14.25549  14.36609
 Alpha virt. eigenvalues --   17.62562  17.84326  49.99860  50.01335  50.01806
 Alpha virt. eigenvalues --   50.11129 135.61222 137.65987 163.87672
          Condensed to atoms (all electrons):
               1          2          3          4          5          6
     1  P   12.485760   0.578672   0.240657   0.005617   0.189776   0.034400
     2  O    0.578672   8.052792  -0.034683   0.010514  -0.022466   0.002348
     3  O    0.240657  -0.034683   8.168888   0.262360   0.008629  -0.013419
     4  H    0.005617   0.010514   0.262360   0.274615   0.002729   0.000723
     5  O    0.189776  -0.022466   0.008629   0.002729   8.096665   0.231337
     6  H    0.034400   0.002348  -0.013419   0.000723   0.231337   0.451027
     7  O    0.249153  -0.015571  -0.006669  -0.001908  -0.008823  -0.018733
     8  H    0.012126  -0.009624  -0.012526   0.000702  -0.001092   0.002284
     9  O   -0.001221   0.006283   0.032360   0.004046  -0.000259  -0.000105
    10  H   -0.002797  -0.001844  -0.003505   0.000544  -0.000076   0.000014
    11  H    0.001939  -0.000662  -0.004409   0.001090   0.000103   0.000016
    12  O    0.001639  -0.002567   0.000067  -0.000012  -0.000800   0.000056
    13  H   -0.000086   0.000470   0.000012  -0.000001   0.000070  -0.000018
    14  H   -0.002460   0.010244   0.000041   0.000067   0.000842   0.000071
               7          8          9         10         11         12
     1  P    0.249153   0.012126  -0.001221  -0.002797   0.001939   0.001639
     2  O   -0.015571  -0.009624   0.006283  -0.001844  -0.000662  -0.002567
     3  O   -0.006669  -0.012526   0.032360  -0.003505  -0.004409   0.000067
     4  H   -0.001908   0.000702   0.004046   0.000544   0.001090  -0.000012
     5  O   -0.008823  -0.001092  -0.000259  -0.000076   0.000103  -0.000800
     6  H   -0.018733   0.002284  -0.000105   0.000014   0.000016   0.000056
     7  O    8.058774   0.255560  -0.000978   0.000283  -0.000055  -0.002067
     8  H    0.255560   0.438799  -0.000972   0.000143   0.000071   0.000095
     9  O   -0.000978  -0.000972   0.035941  -0.010649  -0.009326   0.000012
    10  H    0.000283   0.000143  -0.010649   0.005921   0.001752  -0.000001
    11  H   -0.000055   0.000071  -0.009326   0.001752   0.004223  -0.000007
    12  O   -0.002067   0.000095   0.000012  -0.000001  -0.000007   0.004395
    13  H   -0.000120  -0.000109   0.000003  -0.000001  -0.000000  -0.000378
    14  H    0.003005   0.000051  -0.000053   0.000009   0.000014  -0.004533
              13         14
     1  P   -0.000086  -0.002460
     2  O    0.000470   0.010244
     3  O    0.000012   0.000041
     4  H   -0.000001   0.000067
     5  O    0.000070   0.000842
     6  H   -0.000018   0.000071
     7  O   -0.000120   0.003005
     8  H   -0.000109   0.000051
     9  O    0.000003  -0.000053
    10  H   -0.000001   0.000009
    11  H   -0.000000   0.000014
    12  O   -0.000378  -0.004533
    13  H    0.000641  -0.000393
    14  H   -0.000393   0.007520
 Mulliken charges:
               1
     1  P    1.206826
     2  O   -0.573906
     3  O   -0.637802
     4  H    0.438913
     5  O   -0.496633
     6  H    0.310001
     7  O   -0.511852
     8  H    0.314491
     9  O   -0.055084
    10  H    0.010206
    11  H    0.005251
    12  O    0.004102
    13  H   -0.000089
    14  H   -0.014424
 Sum of Mulliken charges =   0.00000
 Mulliken charges with hydrogens summed into heavy atoms:
               1
     1  P    1.206826
     2  O   -0.573906
     3  O   -0.198889
     5  O   -0.186632
     7  O   -0.197361
     9  O   -0.039626
    12  O   -0.010411
         Mulliken charges condensed to fragments:
      1      0.050037
      2     -0.039626
      3     -0.010411
 Electronic spatial extent (au):  <R**2>=          70502.4151
 Charge=              0.0000 electrons
 Dipole moment (field-independent basis, Debye):
    X=             -3.2569    Y=             -2.8618    Z=              2.0950  Tot=              4.8153
 Quadrupole moment (field-independent basis, Debye-Ang):
   XX=           -111.8491   YY=            -86.0497   ZZ=             17.7562
   XY=            -63.5406   XZ=            -11.9627   YZ=            -14.1732
 Traceless Quadrupole moment (field-independent basis, Debye-Ang):
   XX=            -51.8015   YY=            -26.0022   ZZ=             77.8037
   XY=            -63.5406   XZ=            -11.9627   YZ=            -14.1732
 Octapole moment (field-independent basis, Debye-Ang**2):
  XXX=          -2646.1715  YYY=          -1644.6663  ZZZ=           -328.2898  XYY=          -1298.9716
  XXY=          -1418.1693  XXZ=          -1022.3913  XZZ=           -206.4814  YZZ=           -222.2168
  YYZ=           -875.3185  XYZ=           -503.2245
 Hexadecapole moment (field-independent basis, Debye-Ang**3):
 XXXX=         -53025.0469 YYYY=         -25868.5176 ZZZZ=         -16835.1927 XXXY=         -28798.5897
 XXXZ=         -28356.2871 YYYX=         -22201.1531 YYYZ=         -18863.5089 ZZZX=          -8627.0446
 ZZZY=          -7387.3296 XXYY=         -21604.2782 XXZZ=         -13149.1884 YYZZ=         -11364.4030
 XXYZ=         -13967.3851 YYXZ=         -13549.8333 ZZXY=          -6441.4155
 N-N= 2.802317325548D+02 E-N=-2.088185484717D+03  KE= 6.425526811362D+02
 No NMR shielding tensors so no spin-rotation constants.
 Leave Link  601 at Fri Feb 17 21:09:53 2023, MaxMem=  6710886400 cpu:               2.1 elap:               0.1
 (Enter /data0/home/software/g16/l122.exe)
 CPIOFr:  IOpCl= 0 IRwI=-1 IRwCP=  731 ICalc=  1 LCPTot=       89292 Len1MO=      233639 IndFrg=      556570
 Counterpoise: doing calculation for fragment   2 using the basis set of the full-system, NewBq=T
 Leave Link  122 at Fri Feb 17 21:09:53 2023, MaxMem=  6710886400 cpu:               0.1 elap:               0.0
 (Enter /data0/home/software/g16/l301.exe)
 Basis read from rwf:  (5D, 7F)
 No pseudopotential information found on rwf file.
   239 basis functions,   364 primitive gaussians,   253 cartesian basis functions
     5 alpha electrons        5 beta electrons
       nuclear repulsion energy         9.0169202072 Hartrees.
 IExCor= 4336 DFT=T Ex+Corr=M062X ExCW=0 ScaHFX=  0.540000
 ScaDFX=  1.000000  1.000000  1.000000  1.000000 ScalE2=  1.000000  1.000000
 IRadAn=      5 IRanWt=     -1 IRanGd=            0 ICorTp=0 IEmpDi=131
 NAtoms=   14 NActive=   14 NUniq=   14 SFac= 1.00D+00 NAtFMM=   60 NAOKFM=F Big=F
 Integral buffers will be    131072 words long.
 Raffenetti 2 integral format.
 Two-electron integral symmetry is turned off.
 R6Disp:  Grimme-D3 Dispersion energy=       -0.0000000081 Hartrees.
 Nuclear repulsion after empirical dispersion term =        9.0169201991 Hartrees.
 No density basis found on file   718.
 Leave Link  301 at Fri Feb 17 21:09:53 2023, MaxMem=  6710886400 cpu:               1.2 elap:               0.1
 (Enter /data0/home/software/g16/l302.exe)
 NPDir=0 NMtPBC=     1 NCelOv=     1 NCel=       1 NClECP=     1 NCelD=      1
         NCelK=      1 NCelE2=     1 NClLst=     1 CellRange=     0.0.
 One-electron integrals computed using PRISM.
 NBasis=   239 RedAO= T EigKep=  3.55D-04  NBF=   239
 NBsUse=   239 1.00D-06 EigRej= -1.00D+00 NBFU=   239
 Precomputing XC quadrature grid using
 IXCGrd= 4 IRadAn=           5 IRanWt=          -1 IRanGd=           0 AccXCQ= 0.00D+00.
 Generated NRdTot=       0 NPtTot=           0 NUsed=           0 NTot=          32
 NSgBfM=   253   253   253   253   253 MxSgAt=    14 MxSgA2=    14.
 Leave Link  302 at Fri Feb 17 21:09:53 2023, MaxMem=  6710886400 cpu:               3.8 elap:               0.2
 (Enter /data0/home/software/g16/l303.exe)
 DipDrv:  MaxL=1.
 Leave Link  303 at Fri Feb 17 21:09:53 2023, MaxMem=  6710886400 cpu:               0.6 elap:               0.0
 (Enter /data0/home/software/g16/l401.exe)
 ExpMin= 3.48D-02 ExpMax= 7.75D+04 ExpMxC= 2.65D+03 IAcc=3 IRadAn=         5 AccDes= 0.00D+00
 Harris functional with IExCor= 1009 and IRadAn=       5 diagonalized for initial guess.
 HarFok:  IExCor= 1009 AccDes= 0.00D+00 IRadAn=         5 IDoV= 1 UseB2=F ITyADJ=14
 ICtDFT=  3500011 ScaDFX=  1.000000  1.000000  1.000000  1.000000
 FoFCou: FMM=F IPFlag=           0 FMFlag=      100000 FMFlg1=           0
         NFxFlg=           0 DoJE=T BraDBF=F KetDBF=T FulRan=T
         wScrn=  0.000000 ICntrl=       500 IOpCl=  0 I1Cent=   200000004 NGrid=           0
         NMat0=    1 NMatS0=      1 NMatT0=    0 NMatD0=    1 NMtDS0=    0 NMtDT0=    0
 Symmetry not used in FoFCou.
 Harris En= -76.4158990033222    
 JPrj=0 DoOrth=F DoCkMO=F.
 Leave Link  401 at Fri Feb 17 21:09:54 2023, MaxMem=  6710886400 cpu:              10.1 elap:               0.4
 (Enter /data0/home/software/g16/l502.exe)
 Two-electron integral symmetry not used.
 Closed shell SCF:
 Using DIIS extrapolation, IDIIS=  1040.
 NGot=  6710886400 LenX=  6710750439 LenY=  6710685989
 Requested convergence on RMS density matrix=1.00D-08 within 128 cycles.
 Requested convergence on MAX density matrix=1.00D-06.
 Requested convergence on             energy=1.00D-06.
 No special actions if energy rises.
 Fock matrices will be formed incrementally for  20 cycles.

 Cycle   1  Pass 1  IDiag  1:
 FoFJK:  IHMeth= 1 ICntrl=       0 DoSepK=F KAlg= 0 I1Cent=           0 FoldK=F
 IRaf= 910000000 NMat=       1 IRICut=       1 DoRegI=T DoRafI=F ISym2E= 0 IDoP0=0 IntGTp=1.
 FoFCou: FMM=F IPFlag=           0 FMFlag=      100000 FMFlg1=           0
         NFxFlg=           0 DoJE=F BraDBF=F KetDBF=F FulRan=T
         wScrn=  0.000000 ICntrl=         0 IOpCl=  0 I1Cent=           0 NGrid=           0
         NMat0=    1 NMatS0=      1 NMatT0=    0 NMatD0=    1 NMtDS0=    0 NMtDT0=    0
 Symmetry not used in FoFCou.
 E= -76.3475385228937    
 DIIS: error= 4.01D-02 at cycle   1 NSaved=   1.
 NSaved= 1 IEnMin= 1 EnMin= -76.3475385228937     IErMin= 1 ErrMin= 4.01D-02
 ErrMax= 4.01D-02  0.00D+00 EMaxC= 1.00D-01 BMatC= 1.19D-01 BMatP= 1.19D-01
 IDIUse=3 WtCom= 5.99D-01 WtEn= 4.01D-01
 Coeff-Com:  0.100D+01
 Coeff-En:   0.100D+01
 Coeff:      0.100D+01
 Gap=     0.277 Goal=   None    Shift=    0.000
 GapD=    0.277 DampG=1.000 DampE=0.500 DampFc=0.5000 IDamp=-1.
 Damping current iteration by 5.00D-01
 RMSDP=2.52D-03 MaxDP=1.09D-01              OVMax= 1.71D-01

 Cycle   2  Pass 1  IDiag  1:
 RMSU=  1.26D-03    CP:  1.00D+00
 E= -76.3779162581751     Delta-E=       -0.030377735281 Rises=F Damp=T
 DIIS: error= 7.40D-03 at cycle   2 NSaved=   2.
 NSaved= 2 IEnMin= 2 EnMin= -76.3779162581751     IErMin= 2 ErrMin= 7.40D-03
 ErrMax= 7.40D-03  0.00D+00 EMaxC= 1.00D-01 BMatC= 5.12D-03 BMatP= 1.19D-01
 IDIUse=3 WtCom= 9.26D-01 WtEn= 7.40D-02
 Coeff-Com:  0.908D-01 0.909D+00
 Coeff-En:   0.202D+00 0.798D+00
 Coeff:      0.990D-01 0.901D+00
 Gap=     0.401 Goal=   None    Shift=    0.000
 RMSDP=3.79D-04 MaxDP=2.00D-02 DE=-3.04D-02 OVMax= 1.03D-01

 Cycle   3  Pass 1  IDiag  1:
 RMSU=  2.42D-04    CP:  1.01D+00  7.69D-01
 E= -76.4219066587844     Delta-E=       -0.043990400609 Rises=F Damp=F
 DIIS: error= 1.47D-03 at cycle   3 NSaved=   3.
 NSaved= 3 IEnMin= 3 EnMin= -76.4219066587844     IErMin= 3 ErrMin= 1.47D-03
 ErrMax= 1.47D-03  0.00D+00 EMaxC= 1.00D-01 BMatC= 1.29D-04 BMatP= 5.12D-03
 IDIUse=3 WtCom= 9.85D-01 WtEn= 1.47D-02
 Coeff-Com: -0.249D-01 0.470D-01 0.978D+00
 Coeff-En:   0.000D+00 0.000D+00 0.100D+01
 Coeff:     -0.246D-01 0.464D-01 0.978D+00
 Gap=     0.403 Goal=   None    Shift=    0.000
 RMSDP=3.34D-05 MaxDP=1.29D-03 DE=-4.40D-02 OVMax= 3.75D-03

 Cycle   4  Pass 1  IDiag  1:
 RMSU=  2.87D-05    CP:  1.00D+00  7.67D-01  1.06D+00
 E= -76.4220119921034     Delta-E=       -0.000105333319 Rises=F Damp=F
 DIIS: error= 1.17D-04 at cycle   4 NSaved=   4.
 NSaved= 4 IEnMin= 4 EnMin= -76.4220119921034     IErMin= 4 ErrMin= 1.17D-04
 ErrMax= 1.17D-04  0.00D+00 EMaxC= 1.00D-01 BMatC= 3.02D-06 BMatP= 1.29D-04
 IDIUse=3 WtCom= 9.99D-01 WtEn= 1.17D-03
 Coeff-Com: -0.265D-02-0.603D-03 0.152D+00 0.851D+00
 Coeff-En:   0.000D+00 0.000D+00 0.000D+00 0.100D+01
 Coeff:     -0.264D-02-0.603D-03 0.152D+00 0.851D+00
 Gap=     0.404 Goal=   None    Shift=    0.000
 RMSDP=7.50D-06 MaxDP=3.36D-04 DE=-1.05D-04 OVMax= 5.54D-04

 Cycle   5  Pass 1  IDiag  1:
 RMSU=  4.43D-06    CP:  1.00D+00  7.63D-01  1.06D+00  1.07D+00
 E= -76.4220139375677     Delta-E=       -0.000001945464 Rises=F Damp=F
 DIIS: error= 2.20D-05 at cycle   5 NSaved=   5.
 NSaved= 5 IEnMin= 5 EnMin= -76.4220139375677     IErMin= 5 ErrMin= 2.20D-05
 ErrMax= 2.20D-05  0.00D+00 EMaxC= 1.00D-01 BMatC= 8.15D-08 BMatP= 3.02D-06
 IDIUse=1 WtCom= 1.00D+00 WtEn= 0.00D+00
 Coeff-Com:  0.138D-02-0.212D-02-0.375D-01-0.559D-01 0.109D+01
 Coeff:      0.138D-02-0.212D-02-0.375D-01-0.559D-01 0.109D+01
 Gap=     0.404 Goal=   None    Shift=    0.000
 RMSDP=5.88D-06 MaxDP=3.09D-04 DE=-1.95D-06 OVMax= 2.27D-04

 Cycle   6  Pass 1  IDiag  1:
 RMSU=  1.21D-06    CP:  1.00D+00  7.59D-01  1.07D+00  1.15D+00  1.30D+00
 E= -76.4220140824807     Delta-E=       -0.000000144913 Rises=F Damp=F
 DIIS: error= 5.72D-06 at cycle   6 NSaved=   6.
 NSaved= 6 IEnMin= 6 EnMin= -76.4220140824807     IErMin= 6 ErrMin= 5.72D-06
 ErrMax= 5.72D-06  0.00D+00 EMaxC= 1.00D-01 BMatC= 2.01D-09 BMatP= 8.15D-08
 IDIUse=1 WtCom= 1.00D+00 WtEn= 0.00D+00
 Coeff-Com: -0.252D-03 0.369D-03 0.309D-02-0.590D-02-0.145D+00 0.115D+01
 Coeff:     -0.252D-03 0.369D-03 0.309D-02-0.590D-02-0.145D+00 0.115D+01
 Gap=     0.404 Goal=   None    Shift=    0.000
 RMSDP=8.16D-07 MaxDP=4.51D-05 DE=-1.45D-07 OVMax= 4.08D-05

 Cycle   7  Pass 1  IDiag  1:
 RMSU=  1.29D-07    CP:  1.00D+00  7.58D-01  1.07D+00  1.17D+00  1.37D+00
                    CP:  1.23D+00
 E= -76.4220140864276     Delta-E=       -0.000000003947 Rises=F Damp=F
 DIIS: error= 3.50D-07 at cycle   7 NSaved=   7.
 NSaved= 7 IEnMin= 7 EnMin= -76.4220140864276     IErMin= 7 ErrMin= 3.50D-07
 ErrMax= 3.50D-07  0.00D+00 EMaxC= 1.00D-01 BMatC= 3.61D-11 BMatP= 2.01D-09
 IDIUse=1 WtCom= 1.00D+00 WtEn= 0.00D+00
 Coeff-Com: -0.107D-04 0.315D-04 0.308D-03 0.137D-02-0.206D-01-0.343D-02
 Coeff-Com:  0.102D+01
 Coeff:     -0.107D-04 0.315D-04 0.308D-03 0.137D-02-0.206D-01-0.343D-02
 Coeff:      0.102D+01
 Gap=     0.404 Goal=   None    Shift=    0.000
 RMSDP=1.14D-07 MaxDP=6.72D-06 DE=-3.95D-09 OVMax= 5.28D-06

 Cycle   8  Pass 1  IDiag  1:
 RMSU=  2.33D-08    CP:  1.00D+00  7.58D-01  1.07D+00  1.17D+00  1.37D+00
                    CP:  1.26D+00  1.16D+00
 E= -76.4220140864949     Delta-E=       -0.000000000067 Rises=F Damp=F
 DIIS: error= 1.81D-07 at cycle   8 NSaved=   8.
 NSaved= 8 IEnMin= 8 EnMin= -76.4220140864949     IErMin= 8 ErrMin= 1.81D-07
 ErrMax= 1.81D-07  0.00D+00 EMaxC= 1.00D-01 BMatC= 2.43D-12 BMatP= 3.61D-11
 IDIUse=1 WtCom= 1.00D+00 WtEn= 0.00D+00
 Coeff-Com:  0.135D-04-0.167D-04-0.131D-03 0.617D-03 0.453D-02-0.578D-01
 Coeff-Com:  0.137D+00 0.915D+00
 Coeff:      0.135D-04-0.167D-04-0.131D-03 0.617D-03 0.453D-02-0.578D-01
 Coeff:      0.137D+00 0.915D+00
 Gap=     0.404 Goal=   None    Shift=    0.000
 RMSDP=1.45D-08 MaxDP=8.46D-07 DE=-6.73D-11 OVMax= 9.42D-07

 Cycle   9  Pass 1  IDiag  1:
 RMSU=  4.42D-09    CP:  1.00D+00  7.58D-01  1.07D+00  1.17D+00  1.37D+00
                    CP:  1.27D+00  1.21D+00  1.06D+00
 E= -76.4220140864974     Delta-E=       -0.000000000002 Rises=F Damp=F
 DIIS: error= 3.17D-08 at cycle   9 NSaved=   9.
 NSaved= 9 IEnMin= 9 EnMin= -76.4220140864974     IErMin= 9 ErrMin= 3.17D-08
 ErrMax= 3.17D-08  0.00D+00 EMaxC= 1.00D-01 BMatC= 4.10D-14 BMatP= 2.43D-12
 IDIUse=1 WtCom= 1.00D+00 WtEn= 0.00D+00
 Coeff-Com: -0.130D-05 0.495D-06 0.204D-04-0.636D-04-0.532D-04 0.601D-02
 Coeff-Com: -0.406D-01-0.897D-01 0.112D+01
 Coeff:     -0.130D-05 0.495D-06 0.204D-04-0.636D-04-0.532D-04 0.601D-02
 Coeff:     -0.406D-01-0.897D-01 0.112D+01
 Gap=     0.404 Goal=   None    Shift=    0.000
 RMSDP=1.60D-09 MaxDP=5.45D-08 DE=-2.49D-12 OVMax= 1.58D-07

 SCF Done:  E(RM062X) =  -76.4220140865     A.U. after    9 cycles
            NFock=  9  Conv=0.16D-08     -V/T= 2.0035
 KE= 7.615521921596D+01 PE=-1.988616499854D+02 EE= 3.726749648385D+01
 Leave Link  502 at Fri Feb 17 21:10:02 2023, MaxMem=  6710886400 cpu:             194.6 elap:               8.2
 (Enter /data0/home/software/g16/l601.exe)
 Copying SCF densities to generalized density rwf, IOpCl= 0 IROHF=0.

 **********************************************************************

            Population analysis using the SCF density.

 **********************************************************************

 Alpha  occ. eigenvalues --  -19.62847  -1.12965  -0.60230  -0.47535  -0.39962
 Alpha virt. eigenvalues --    0.00452   0.04079   0.04795   0.05157   0.10222
 Alpha virt. eigenvalues --    0.12054   0.13159   0.14376   0.14681   0.16152
 Alpha virt. eigenvalues --    0.17671   0.18305   0.18990   0.19640   0.20057
 Alpha virt. eigenvalues --    0.20510   0.21426   0.22095   0.23618   0.24923
 Alpha virt. eigenvalues --    0.25939   0.27119   0.27889   0.29365   0.30766
 Alpha virt. eigenvalues --    0.31567   0.32555   0.34448   0.35882   0.36538
 Alpha virt. eigenvalues --    0.36929   0.38404   0.38906   0.39444   0.41771
 Alpha virt. eigenvalues --    0.42103   0.47047   0.47671   0.49544   0.52252
 Alpha virt. eigenvalues --    0.58973   0.65512   0.68701   0.71057   0.71849
 Alpha virt. eigenvalues --    0.73336   0.74905   0.75337   0.77788   0.81112
 Alpha virt. eigenvalues --    0.82011   0.83593   0.84609   0.86479   0.87492
 Alpha virt. eigenvalues --    0.89078   0.93389   0.95236   0.97820   0.98604
 Alpha virt. eigenvalues --    0.99459   1.03074   1.05865   1.07297   1.08886
 Alpha virt. eigenvalues --    1.10318   1.11826   1.12365   1.14974   1.17731
 Alpha virt. eigenvalues --    1.21008   1.22021   1.23845   1.25677   1.28830
 Alpha virt. eigenvalues --    1.30760   1.35076   1.44287   1.44699   1.45994
 Alpha virt. eigenvalues --    1.53939   1.68205   1.69888   1.75988   1.81080
 Alpha virt. eigenvalues --    1.87557   1.89575   1.91932   1.94145   1.96686
 Alpha virt. eigenvalues --    1.99729   2.00662   2.05059   2.10109   2.14604
 Alpha virt. eigenvalues --    2.18404   2.19749   2.21331   2.27256   2.28732
 Alpha virt. eigenvalues --    2.32731   2.34960   2.37660   2.39559   2.42408
 Alpha virt. eigenvalues --    2.43586   2.44874   2.47639   2.51390   2.52939
 Alpha virt. eigenvalues --    2.55042   2.58940   2.59511   2.62121   2.64804
 Alpha virt. eigenvalues --    2.65746   2.67015   2.68962   2.71113   2.71776
 Alpha virt. eigenvalues --    2.72619   2.74286   2.76956   2.78012   2.79614
 Alpha virt. eigenvalues --    2.80768   2.84194   2.85931   2.87247   2.88518
 Alpha virt. eigenvalues --    2.93376   2.94297   2.95801   2.99434   3.00819
 Alpha virt. eigenvalues --    3.02069   3.04456   3.06304   3.07244   3.12008
 Alpha virt. eigenvalues --    3.13828   3.14855   3.20700   3.23593   3.24952
 Alpha virt. eigenvalues --    3.26796   3.29820   3.34911   3.40368   3.48957
 Alpha virt. eigenvalues --    3.62530   3.73435   3.78091   3.79985   3.83974
 Alpha virt. eigenvalues --    4.44314   4.46437   4.48250   4.62616   4.64491
 Alpha virt. eigenvalues --    4.75897   4.79547   4.89469   4.95327   4.97305
 Alpha virt. eigenvalues --    5.17959   5.33616   5.52841   5.89059   6.82645
 Alpha virt. eigenvalues --    6.83069   6.91536   7.06731   7.11156   9.75004
 Alpha virt. eigenvalues --    9.86463   9.86837   9.93252   9.96611  10.00095
 Alpha virt. eigenvalues --   10.11749  10.13638  10.22237  10.24279  10.25709
 Alpha virt. eigenvalues --   10.27786  10.28730  10.31166  10.33510  10.36540
 Alpha virt. eigenvalues --   10.38062  10.39762  10.41552  10.42696  10.45788
 Alpha virt. eigenvalues --   10.49352  10.57059  10.61874  10.63322  10.69401
 Alpha virt. eigenvalues --   10.79853  10.85376  12.81645  12.93708  13.14615
 Alpha virt. eigenvalues --   13.21189  13.28394  13.40948  13.42909  13.44227
 Alpha virt. eigenvalues --   13.48568  13.59585  13.63694  13.81243  13.92597
 Alpha virt. eigenvalues --   13.96574  14.10295  14.33387  17.67141  18.09524
 Alpha virt. eigenvalues --   18.43475  18.52628  18.54294  50.00833  52.38534
 Alpha virt. eigenvalues --   52.47693  52.55943  70.03271 134.78142 137.65761
 Alpha virt. eigenvalues --  139.73080 139.75358 139.76116 481.40460
          Condensed to atoms (all electrons):
               1          2          3          4          5          6
     1  P    0.017329  -0.002798  -0.010430   0.007666  -0.006263  -0.000194
     2  O   -0.002798   0.005282  -0.000455  -0.001591  -0.001346   0.000001
     3  O   -0.010430  -0.000455   0.054973  -0.064407   0.003199   0.000819
     4  H    0.007666  -0.001591  -0.064407   0.098607   0.000441  -0.000479
     5  O   -0.006263  -0.001346   0.003199   0.000441   0.005287  -0.000068
     6  H   -0.000194   0.000001   0.000819  -0.000479  -0.000068   0.000256
     7  O   -0.002052   0.001055  -0.006777   0.003818  -0.001042  -0.000392
     8  H   -0.000499   0.000046  -0.000710   0.000637   0.000033  -0.000024
     9  O   -0.006848   0.003993   0.080404  -0.144650   0.000578   0.000176
    10  H   -0.000413   0.000496  -0.002586   0.005788  -0.000014  -0.000005
    11  H   -0.000534   0.000963  -0.004036   0.008746  -0.000073  -0.000009
    12  O   -0.000644   0.000707  -0.000191   0.000124   0.000002  -0.000006
    13  H   -0.000018  -0.000000  -0.000001   0.000001   0.000005  -0.000000
    14  H    0.001132  -0.001440   0.000480  -0.000277   0.000089   0.000013
               7          8          9         10         11         12
     1  P   -0.002052  -0.000499  -0.006848  -0.000413  -0.000534  -0.000644
     2  O    0.001055   0.000046   0.003993   0.000496   0.000963   0.000707
     3  O   -0.006777  -0.000710   0.080404  -0.002586  -0.004036  -0.000191
     4  H    0.003818   0.000637  -0.144650   0.005788   0.008746   0.000124
     5  O   -0.001042   0.000033   0.000578  -0.000014  -0.000073   0.000002
     6  H   -0.000392  -0.000024   0.000176  -0.000005  -0.000009  -0.000006
     7  O    0.005587   0.000548  -0.004482   0.000311   0.000210   0.000344
     8  H    0.000548   0.000148  -0.000647   0.000048   0.000024   0.000030
     9  O   -0.004482  -0.000647   7.985942   0.335738   0.339977  -0.000243
    10  H    0.000311   0.000048   0.335738   0.411001  -0.029651   0.000020
    11  H    0.000210   0.000024   0.339977  -0.029651   0.411115   0.000026
    12  O    0.000344   0.000030  -0.000243   0.000020   0.000026   0.000840
    13  H    0.000012   0.000001  -0.000002   0.000000   0.000000   0.000024
    14  H   -0.000673  -0.000045   0.000499  -0.000045  -0.000061  -0.001195
              13         14
     1  P   -0.000018   0.001132
     2  O   -0.000000  -0.001440
     3  O   -0.000001   0.000480
     4  H    0.000001  -0.000277
     5  O    0.000005   0.000089
     6  H   -0.000000   0.000013
     7  O    0.000012  -0.000673
     8  H    0.000001  -0.000045
     9  O   -0.000002   0.000499
    10  H    0.000000  -0.000045
    11  H    0.000000  -0.000061
    12  O    0.000024  -0.001195
    13  H    0.000005  -0.000029
    14  H   -0.000029   0.001869
 Mulliken charges:
               1
     1  P    0.004566
     2  O   -0.004912
     3  O   -0.050283
     4  H    0.085576
     5  O   -0.000828
     6  H   -0.000089
     7  O    0.003533
     8  H    0.000411
     9  O   -0.590435
    10  H    0.279313
    11  H    0.273302
    12  O    0.000163
    13  H    0.000002
    14  H   -0.000319
 Sum of Mulliken charges =  -0.00000
 Mulliken charges with hydrogens summed into heavy atoms:
               1
     1  P    0.004566
     2  O   -0.004912
     3  O    0.035293
     5  O   -0.000917
     7  O    0.003944
     9  O   -0.037819
    12  O   -0.000154
         Mulliken charges condensed to fragments:
      1      0.037973
      2     -0.037819
      3     -0.000154
 Electronic spatial extent (au):  <R**2>=           9949.4057
 Charge=              0.0000 electrons
 Dipole moment (field-independent basis, Debye):
    X=             -0.2838    Y=              1.1827    Z=             -1.6357  Tot=              2.0383
 Quadrupole moment (field-independent basis, Debye-Ang):
   XX=            -10.9042   YY=              7.2556   ZZ=            -41.7500
   XY=             10.9445   XZ=            -21.8394   YZ=              2.0627
 Traceless Quadrupole moment (field-independent basis, Debye-Ang):
   XX=              4.2286   YY=             22.3885   ZZ=            -26.6171
   XY=             10.9445   XZ=            -21.8394   YZ=              2.0627
 Octapole moment (field-independent basis, Debye-Ang**2):
  XXX=           -259.5236  YYY=              0.0429  ZZZ=           -780.0484  XYY=             63.8191
  XXY=             69.6440  XXZ=           -333.8101  XZZ=           -509.8454  YZZ=           -132.5401
  YYZ=              8.6660  XYZ=             -4.4881
 Hexadecapole moment (field-independent basis, Debye-Ang**3):
 XXXX=          -5021.0111 YYYY=           -552.9827 ZZZZ=         -12729.1736 XXXY=           -117.0137
 XXXZ=          -5294.6814 YYYX=           -126.2376 YYYZ=           -450.5581 ZZZX=          -9231.5123
 ZZZY=          -3524.4899 XXYY=            354.9595 XXZZ=          -6730.5577 YYZZ=           -900.3832
 XXYZ=           -657.0259 YYXZ=           -107.7067 ZZXY=          -1807.6740
 N-N= 9.016920199052D+00 E-N=-1.988616506485D+02  KE= 7.615521921596D+01
 No NMR shielding tensors so no spin-rotation constants.
 Leave Link  601 at Fri Feb 17 21:10:02 2023, MaxMem=  6710886400 cpu:               2.1 elap:               0.1
 (Enter /data0/home/software/g16/l122.exe)
 CPIOFr:  IOpCl= 0 IRwI=-1 IRwCP=  731 ICalc=  2 LCPTot=       89292 Len1MO=      233639 IndFrg=      790209
 Counterpoise: doing calculation for fragment   3 using the basis set of the full-system, NewBq=T
 Leave Link  122 at Fri Feb 17 21:10:02 2023, MaxMem=  6710886400 cpu:               0.1 elap:               0.0
 (Enter /data0/home/software/g16/l301.exe)
 Basis read from rwf:  (5D, 7F)
 No pseudopotential information found on rwf file.
   239 basis functions,   364 primitive gaussians,   253 cartesian basis functions
     5 alpha electrons        5 beta electrons
       nuclear repulsion energy         9.1142262121 Hartrees.
 IExCor= 4336 DFT=T Ex+Corr=M062X ExCW=0 ScaHFX=  0.540000
 ScaDFX=  1.000000  1.000000  1.000000  1.000000 ScalE2=  1.000000  1.000000
 IRadAn=      5 IRanWt=     -1 IRanGd=            0 ICorTp=0 IEmpDi=131
 NAtoms=   14 NActive=   14 NUniq=   14 SFac= 1.00D+00 NAtFMM=   60 NAOKFM=F Big=F
 Integral buffers will be    131072 words long.
 Raffenetti 2 integral format.
 Two-electron integral symmetry is turned off.
 R6Disp:  Grimme-D3 Dispersion energy=       -0.0000000076 Hartrees.
 Nuclear repulsion after empirical dispersion term =        9.1142262045 Hartrees.
 No density basis found on file   718.
 Leave Link  301 at Fri Feb 17 21:10:02 2023, MaxMem=  6710886400 cpu:               1.2 elap:               0.1
 (Enter /data0/home/software/g16/l302.exe)
 NPDir=0 NMtPBC=     1 NCelOv=     1 NCel=       1 NClECP=     1 NCelD=      1
         NCelK=      1 NCelE2=     1 NClLst=     1 CellRange=     0.0.
 One-electron integrals computed using PRISM.
 NBasis=   239 RedAO= T EigKep=  3.55D-04  NBF=   239
 NBsUse=   239 1.00D-06 EigRej= -1.00D+00 NBFU=   239
 Precomputing XC quadrature grid using
 IXCGrd= 4 IRadAn=           5 IRanWt=          -1 IRanGd=           0 AccXCQ= 0.00D+00.
 Generated NRdTot=       0 NPtTot=           0 NUsed=           0 NTot=          32
 NSgBfM=   253   253   253   253   253 MxSgAt=    14 MxSgA2=    14.
 Leave Link  302 at Fri Feb 17 21:10:02 2023, MaxMem=  6710886400 cpu:               3.8 elap:               0.2
 (Enter /data0/home/software/g16/l303.exe)
 DipDrv:  MaxL=1.
 Leave Link  303 at Fri Feb 17 21:10:02 2023, MaxMem=  6710886400 cpu:               0.6 elap:               0.0
 (Enter /data0/home/software/g16/l401.exe)
 ExpMin= 3.48D-02 ExpMax= 7.75D+04 ExpMxC= 2.65D+03 IAcc=3 IRadAn=         5 AccDes= 0.00D+00
 Harris functional with IExCor= 1009 and IRadAn=       5 diagonalized for initial guess.
 HarFok:  IExCor= 1009 AccDes= 0.00D+00 IRadAn=         5 IDoV= 1 UseB2=F ITyADJ=14
 ICtDFT=  3500011 ScaDFX=  1.000000  1.000000  1.000000  1.000000
 FoFCou: FMM=F IPFlag=           0 FMFlag=      100000 FMFlg1=           0
         NFxFlg=           0 DoJE=T BraDBF=F KetDBF=T FulRan=T
         wScrn=  0.000000 ICntrl=       500 IOpCl=  0 I1Cent=   200000004 NGrid=           0
         NMat0=    1 NMatS0=      1 NMatT0=    0 NMatD0=    1 NMtDS0=    0 NMtDT0=    0
 Symmetry not used in FoFCou.
 Harris En= -76.4170041597851    
 JPrj=0 DoOrth=F DoCkMO=F.
 Leave Link  401 at Fri Feb 17 21:10:03 2023, MaxMem=  6710886400 cpu:              10.0 elap:               0.4
 (Enter /data0/home/software/g16/l502.exe)
 Two-electron integral symmetry not used.
 Closed shell SCF:
[...]
 (Enter /data0/home/software/g16/l601.exe)
 Copying SCF densities to generalized density rwf, IOpCl= 0 IROHF=0.

 **********************************************************************

            Population analysis using the SCF density.

 **********************************************************************

 Alpha  occ. eigenvalues --  -19.62769  -1.12976  -0.60241  -0.47485  -0.39918
 Alpha virt. eigenvalues --    0.06041   0.13167   0.17438   0.17955   0.18916
 Alpha virt. eigenvalues --    0.23403   0.49884   0.53282   0.98113   1.00518
 Alpha virt. eigenvalues --    1.05997   1.18057   1.19782   1.32063   1.34389
 Alpha virt. eigenvalues --    1.69376   1.73561   1.75246   2.06120   2.09488
 Alpha virt. eigenvalues --    2.35603   2.39733   2.54296   2.86514   3.00271
 Alpha virt. eigenvalues --    5.05585   5.46730   5.88540   6.78404   6.80204
 Alpha virt. eigenvalues --    6.87361   6.91324   7.10221  49.94864
          Condensed to atoms (all electrons):
               9         10         11
     9  O    7.925128   0.313135   0.319351
    10  H    0.313135   0.428798  -0.023493
    11  H    0.319351  -0.023493   0.428088
 Mulliken charges:
               1
     1  P    0.000000
     2  O    0.000000
     3  O    0.000000
     4  H    0.000000
     5  O    0.000000
     6  H    0.000000
     7  O    0.000000
     8  H    0.000000
     9  O   -0.557614
    10  H    0.281560
    11  H    0.276054
    12  O    0.000000
    13  H    0.000000
    14  H    0.000000
 Sum of Mulliken charges =  -0.00000
 Mulliken charges with hydrogens summed into heavy atoms:
               1
     1  P    0.000000
     2  O    0.000000
     3  O    0.000000
     5  O    0.000000
     7  O    0.000000
     9  O   -0.000000
    12  O    0.000000
         Mulliken charges condensed to fragments:
      1      0.000000
      2     -0.000000
      3      0.000000
 Electronic spatial extent (au):  <R**2>=           9950.6004
 Charge=             -0.0000 electrons
 Dipole moment (field-independent basis, Debye):
    X=             -0.2943    Y=              1.2222    Z=             -1.7234  Tot=              2.1331
 Quadrupole moment (field-independent basis, Debye-Ang):
   XX=            -11.1346   YY=              7.7995   ZZ=            -43.6704
   XY=             11.3232   XZ=            -22.9413   YZ=              1.9395
 Traceless Quadrupole moment (field-independent basis, Debye-Ang):
   XX=              4.5339   YY=             23.4680   ZZ=            -28.0019
   XY=             11.3232   XZ=            -22.9413   YZ=              1.9395
 Octapole moment (field-independent basis, Debye-Ang**2):
  XXX=           -263.3000  YYY=              5.7868  ZZZ=           -811.7575  XYY=             69.5245
  XXY=             73.2357  XXZ=           -347.4639  XZZ=           -532.7468  YZZ=           -139.9654
  YYZ=             11.0278  XYZ=             -6.6067
 Hexadecapole moment (field-independent basis, Debye-Ang**3):
 XXXX=          -5075.7955 YYYY=           -497.9485 ZZZZ=         -13196.7458 XXXY=            -83.2667
 XXXZ=          -5461.8537 YYYX=            -64.2306 YYYZ=           -411.3004 ZZZX=          -9603.0285
 ZZZY=          -3673.1925 XXYY=            415.1941 XXZZ=          -7002.5592 YYZZ=           -913.6525
 XXYZ=           -688.4756 YYXZ=            -85.8133 ZZXY=          -1899.5466
 N-N= 9.016920199052D+00 E-N=-1.988710381165D+02  KE= 7.616403083376D+01
 No NMR shielding tensors so no spin-rotation constants.
 Leave Link  601 at Fri Feb 17 21:10:18 2023, MaxMem=  6710886400 cpu:               1.8 elap:               0.1
 (Enter /data0/home/software/g16/l122.exe)
 CPIOFr:  IOpCl= 0 IRwI=-1 IRwCP=  731 ICalc=  5 LCPTot=       89292 Len1MO=      233639 IndFrg=     1491126
 Counterpoise: doing calculation for fragment   3 using the basis set of the fragment.
 Leave Link  122 at Fri Feb 17 21:10:18 2023, MaxMem=  6710886400 cpu:               0.1 elap:               0.0
 (Enter /data0/home/software/g16/l301.exe)
 Basis read from rwf:  (5D, 7F)
 No pseudopotential information found on rwf file.
    39 basis functions,    58 primitive gaussians,    41 cartesian basis functions
     5 alpha electrons        5 beta electrons
       nuclear repulsion energy         9.1142262121 Hartrees.
 IExCor= 4336 DFT=T Ex+Corr=M062X ExCW=0 ScaHFX=  0.540000
 ScaDFX=  1.000000  1.000000  1.000000  1.000000 ScalE2=  1.000000  1.000000
 IRadAn=      5 IRanWt=     -1 IRanGd=            0 ICorTp=0 IEmpDi=131
 NAtoms=   14 NActive=    3 NUniq=    3 SFac= 1.00D+00 NAtFMM=   60 NAOKFM=F Big=F
 Integral buffers will be    131072 words long.
 Raffenetti 2 integral format.
 Two-electron integral symmetry is turned off.
 R6Disp:  Grimme-D3 Dispersion energy=       -0.0000000076 Hartrees.
 Nuclear repulsion after empirical dispersion term =        9.1142262045 Hartrees.
 No density basis found on file   718.
 Leave Link  301 at Fri Feb 17 21:10:18 2023, MaxMem=  6710886400 cpu:               1.2 elap:               0.1
 (Enter /data0/home/software/g16/l302.exe)
 NPDir=0 NMtPBC=     1 NCelOv=     1 NCel=       1 NClECP=     1 NCelD=      1
         NCelK=      1 NCelE2=     1 NClLst=     1 CellRange=     0.0.
 One-electron integrals computed using PRISM.
 NBasis=    39 RedAO= T EigKep=  3.02D-03  NBF=    39
 NBsUse=    39 1.00D-06 EigRej= -1.00D+00 NBFU=    39
 Precomputing XC quadrature grid using
 IXCGrd= 4 IRadAn=           5 IRanWt=          -1 IRanGd=           0 AccXCQ= 0.00D+00.
 Generated NRdTot=       0 NPtTot=           0 NUsed=           0 NTot=          32
 NSgBfM=    41    41    41    41    41 MxSgAt=     3 MxSgA2=     3.
 Leave Link  302 at Fri Feb 17 21:10:18 2023, MaxMem=  6710886400 cpu:               2.2 elap:               0.1
 (Enter /data0/home/software/g16/l303.exe)
 DipDrv:  MaxL=1.
 Leave Link  303 at Fri Feb 17 21:10:18 2023, MaxMem=  6710886400 cpu:               0.4 elap:               0.0
 (Enter /data0/home/software/g16/l401.exe)
 ExpMin= 8.45D-02 ExpMax= 8.59D+03 ExpMxC= 1.30D+03 IAcc=3 IRadAn=         5 AccDes= 0.00D+00
 Harris functional with IExCor= 1009 and IRadAn=       5 diagonalized for initial guess.
 HarFok:  IExCor= 1009 AccDes= 0.00D+00 IRadAn=         5 IDoV= 1 UseB2=F ITyADJ=14
 ICtDFT=  3500011 ScaDFX=  1.000000  1.000000  1.000000  1.000000
 FoFCou: FMM=F IPFlag=           0 FMFlag=      100000 FMFlg1=           0
         NFxFlg=           0 DoJE=T BraDBF=F KetDBF=T FulRan=T
         wScrn=  0.000000 ICntrl=       500 IOpCl=  0 I1Cent=   200000004 NGrid=           0
         NMat0=    1 NMatS0=      1 NMatT0=    0 NMatD0=    1 NMtDS0=    0 NMtDT0=    0
 Symmetry not used in FoFCou.
 Harris En= -76.4166426125955    
 JPrj=0 DoOrth=F DoCkMO=F.
 Leave Link  401 at Fri Feb 17 21:10:18 2023, MaxMem=  6710886400 cpu:               2.8 elap:               0.1
 (Enter /data0/home/software/g16/l502.exe)
 Keep R1 ints in memory in canonical form, NReq=21037771.
 FoFCou: FMM=F IPFlag=           0 FMFlag=           0 FMFlg1=           0
         NFxFlg=           0 DoJE=F BraDBF=F KetDBF=F FulRan=T
         wScrn=  0.000000 ICntrl=       600 IOpCl=  0 I1Cent=           0 NGrid=           0
         NMat0=    1 NMatS0=    780 NMatT0=    0 NMatD0=    1 NMtDS0=    0 NMtDT0=    0
 Symmetry not used in FoFCou.
 Two-electron integral symmetry not used.
 Closed shell SCF:
 Using DIIS extrapolation, IDIIS=  1040.
 NGot=  6710886400 LenX=  6710576653 LenY=  6710574531
 Requested convergence on RMS density matrix=1.00D-08 within 128 cycles.
 Requested convergence on MAX density matrix=1.00D-06.
 Requested convergence on             energy=1.00D-06.
 No special actions if energy rises.
 Integral accuracy reduced to 1.0D-05 until final iterations.

 Cycle   1  Pass 0  IDiag  1:
 E= -76.3462845449474    
 DIIS: error= 7.03D-02 at cycle   1 NSaved=   1.
 NSaved= 1 IEnMin= 1 EnMin= -76.3462845449474     IErMin= 1 ErrMin= 7.03D-02
 ErrMax= 7.03D-02  0.00D+00 EMaxC= 1.00D-01 BMatC= 1.21D-01 BMatP= 1.21D-01
 IDIUse=3 WtCom= 2.97D-01 WtEn= 7.03D-01
 Coeff-Com:  0.100D+01
 Coeff-En:   0.100D+01
 Coeff:      0.100D+01
 Gap=     0.325 Goal=   None    Shift=    0.000
 GapD=    0.325 DampG=1.000 DampE=0.500 DampFc=0.5000 IDamp=-1.
 Damping current iteration by 5.00D-01
 RMSDP=7.92D-03 MaxDP=1.01D-01              OVMax= 1.68D-01

 Cycle   2  Pass 0  IDiag  1:
 E= -76.3778011607942     Delta-E=       -0.031516615847 Rises=F Damp=T
 DIIS: error= 1.14D-02 at cycle   2 NSaved=   2.
 NSaved= 2 IEnMin= 2 EnMin= -76.3778011607942     IErMin= 2 ErrMin= 1.14D-02
 ErrMax= 1.14D-02  0.00D+00 EMaxC= 1.00D-01 BMatC= 4.81D-03 BMatP= 1.21D-01
 IDIUse=3 WtCom= 8.86D-01 WtEn= 1.14D-01
 Coeff-Com:  0.817D-01 0.918D+00
 Coeff-En:   0.186D+00 0.814D+00
 Coeff:      0.937D-01 0.906D+00
 Gap=     0.458 Goal=   None    Shift=    0.000
 RMSDP=9.39D-04 MaxDP=1.39D-02 DE=-3.15D-02 OVMax= 1.00D-01

 Cycle   3  Pass 0  IDiag  1:
 E= -76.4217424991672     Delta-E=       -0.043941338373 Rises=F Damp=F
 DIIS: error= 2.17D-03 at cycle   3 NSaved=   3.
 NSaved= 3 IEnMin= 3 EnMin= -76.4217424991672     IErMin= 3 ErrMin= 2.17D-03
 ErrMax= 2.17D-03  0.00D+00 EMaxC= 1.00D-01 BMatC= 9.07D-05 BMatP= 4.81D-03
 IDIUse=3 WtCom= 9.78D-01 WtEn= 2.17D-02
 Coeff-Com: -0.199D-01 0.394D-01 0.981D+00
 Coeff-En:   0.000D+00 0.000D+00 0.100D+01
 Coeff:     -0.195D-01 0.386D-01 0.981D+00
 Gap=     0.462 Goal=   None    Shift=    0.000
 RMSDP=1.14D-04 MaxDP=1.04D-03 DE=-4.39D-02 OVMax= 3.30D-03

 Cycle   4  Pass 0  IDiag  1:
 E= -76.4218197347930     Delta-E=       -0.000077235626 Rises=F Damp=F
 DIIS: error= 4.11D-04 at cycle   4 NSaved=   4.
 NSaved= 4 IEnMin= 4 EnMin= -76.4218197347930     IErMin= 4 ErrMin= 4.11D-04
 ErrMax= 4.11D-04  0.00D+00 EMaxC= 1.00D-01 BMatC= 3.26D-06 BMatP= 9.07D-05
 IDIUse=3 WtCom= 9.96D-01 WtEn= 4.11D-03
 Coeff-Com: -0.188D-02-0.220D-02 0.162D+00 0.842D+00
 Coeff-En:   0.000D+00 0.000D+00 0.000D+00 0.100D+01
 Coeff:     -0.188D-02-0.219D-02 0.162D+00 0.842D+00
 Gap=     0.463 Goal=   None    Shift=    0.000
 RMSDP=2.20D-05 MaxDP=3.52D-04 DE=-7.72D-05 OVMax= 5.32D-04

 Cycle   5  Pass 0  IDiag  1:
 E= -76.4218217459715     Delta-E=       -0.000002011178 Rises=F Damp=F
 DIIS: error= 8.83D-05 at cycle   5 NSaved=   5.
 NSaved= 5 IEnMin= 5 EnMin= -76.4218217459715     IErMin= 5 ErrMin= 8.83D-05
 ErrMax= 8.83D-05  0.00D+00 EMaxC= 1.00D-01 BMatC= 8.18D-08 BMatP= 3.26D-06
 IDIUse=1 WtCom= 1.00D+00 WtEn= 0.00D+00
 Coeff-Com:  0.117D-02-0.178D-02-0.364D-01-0.648D-01 0.110D+01
 Coeff:      0.117D-02-0.178D-02-0.364D-01-0.648D-01 0.110D+01
 Gap=     0.463 Goal=   None    Shift=    0.000
 RMSDP=8.91D-06 MaxDP=1.02D-04 DE=-2.01D-06 OVMax= 2.00D-04

 Initial convergence to 1.0D-05 achieved.  Increase integral accuracy.
 Cycle   6  Pass 1  IDiag  1:
 E= -76.4218212779170     Delta-E=        0.000000468054 Rises=F Damp=F
 DIIS: error= 1.86D-05 at cycle   1 NSaved=   1.
 NSaved= 1 IEnMin= 1 EnMin= -76.4218212779170     IErMin= 1 ErrMin= 1.86D-05
 ErrMax= 1.86D-05  0.00D+00 EMaxC= 1.00D-01 BMatC= 1.17D-08 BMatP= 1.17D-08
 IDIUse=1 WtCom= 1.00D+00 WtEn= 0.00D+00
 Coeff-Com:  0.100D+01
 Coeff:      0.100D+01
 Gap=     0.463 Goal=   None    Shift=    0.000
 RMSDP=8.91D-06 MaxDP=1.02D-04 DE= 4.68D-07 OVMax= 5.01D-05

 Cycle   7  Pass 1  IDiag  1:
 E= -76.4218212881307     Delta-E=       -0.000000010214 Rises=F Damp=F
 DIIS: error= 1.10D-05 at cycle   2 NSaved=   2.
 NSaved= 2 IEnMin= 2 EnMin= -76.4218212881307     IErMin= 2 ErrMin= 1.10D-05
 ErrMax= 1.10D-05  0.00D+00 EMaxC= 1.00D-01 BMatC= 1.67D-09 BMatP= 1.17D-08
 IDIUse=1 WtCom= 1.00D+00 WtEn= 0.00D+00
 Coeff-Com:  0.135D+00 0.865D+00
 Coeff:      0.135D+00 0.865D+00
 Gap=     0.463 Goal=   None    Shift=    0.000
 RMSDP=8.04D-07 MaxDP=1.38D-05 DE=-1.02D-08 OVMax= 2.13D-05

 Cycle   8  Pass 1  IDiag  1:
 E= -76.4218212886878     Delta-E=       -0.000000000557 Rises=F Damp=F
 DIIS: error= 6.45D-06 at cycle   3 NSaved=   3.
 NSaved= 3 IEnMin= 3 EnMin= -76.4218212886878     IErMin= 3 ErrMin= 6.45D-06
 ErrMax= 6.45D-06  0.00D+00 EMaxC= 1.00D-01 BMatC= 1.16D-09 BMatP= 1.67D-09
 IDIUse=1 WtCom= 1.00D+00 WtEn= 0.00D+00
 Coeff-Com: -0.548D-01 0.460D+00 0.594D+00
 Coeff:     -0.548D-01 0.460D+00 0.594D+00
 Gap=     0.463 Goal=   None    Shift=    0.000
 RMSDP=3.98D-07 MaxDP=4.78D-06 DE=-5.57D-10 OVMax= 1.02D-05

 Cycle   9  Pass 1  IDiag  1:
 E= -76.4218212894648     Delta-E=       -0.000000000777 Rises=F Damp=F
 DIIS: error= 6.71D-07 at cycle   4 NSaved=   4.
 NSaved= 4 IEnMin= 4 EnMin= -76.4218212894648     IErMin= 4 ErrMin= 6.71D-07
 ErrMax= 6.71D-07  0.00D+00 EMaxC= 1.00D-01 BMatC= 5.44D-12 BMatP= 1.16D-09
 IDIUse=1 WtCom= 1.00D+00 WtEn= 0.00D+00
 Coeff-Com: -0.357D-02-0.183D-01 0.178D-01 0.100D+01
 Coeff:     -0.357D-02-0.183D-01 0.178D-01 0.100D+01
 Gap=     0.463 Goal=   None    Shift=    0.000
 RMSDP=7.16D-08 MaxDP=5.67D-07 DE=-7.77D-10 OVMax= 1.69D-06

 Cycle  10  Pass 1  IDiag  1:
 E= -76.4218212894743     Delta-E=       -0.000000000010 Rises=F Damp=F
 DIIS: error= 1.18D-07 at cycle   5 NSaved=   5.
 NSaved= 5 IEnMin= 5 EnMin= -76.4218212894743     IErMin= 5 ErrMin= 1.18D-07
 ErrMax= 1.18D-07  0.00D+00 EMaxC= 1.00D-01 BMatC= 4.46D-13 BMatP= 5.44D-12
 IDIUse=1 WtCom= 1.00D+00 WtEn= 0.00D+00
 Coeff-Com:  0.288D-02-0.358D-01-0.378D-01 0.146D+00 0.925D+00
 Coeff:      0.288D-02-0.358D-01-0.378D-01 0.146D+00 0.925D+00
 Gap=     0.463 Goal=   None    Shift=    0.000
 RMSDP=2.24D-08 MaxDP=2.16D-07 DE=-9.55D-12 OVMax= 5.54D-07

 Cycle  11  Pass 1  IDiag  1:
 E= -76.4218212894750     Delta-E=       -0.000000000001 Rises=F Damp=F
 DIIS: error= 1.65D-08 at cycle   6 NSaved=   6.
 NSaved= 6 IEnMin= 6 EnMin= -76.4218212894750     IErMin= 6 ErrMin= 1.65D-08
 ErrMax= 1.65D-08  0.00D+00 EMaxC= 1.00D-01 BMatC= 4.86D-15 BMatP= 4.46D-13
 IDIUse=1 WtCom= 1.00D+00 WtEn= 0.00D+00
 Coeff-Com:  0.186D-03-0.694D-03-0.134D-02-0.248D-01-0.216D-01 0.105D+01
 Coeff:      0.186D-03-0.694D-03-0.134D-02-0.248D-01-0.216D-01 0.105D+01
 Gap=     0.463 Goal=   None    Shift=    0.000
 RMSDP=3.80D-09 MaxDP=3.48D-08 DE=-7.11D-13 OVMax= 8.79D-08

 SCF Done:  E(RM062X) =  -76.4218212895     A.U. after   11 cycles
            NFock= 11  Conv=0.38D-08     -V/T= 2.0029
 KE= 7.619989657894D+01 PE=-1.990812263712D+02 EE= 3.734528229829D+01
 Leave Link  502 at Fri Feb 17 21:10:18 2023, MaxMem=  6710886400 cpu:               8.8 elap:               0.4
 (Enter /data0/home/software/g16/l601.exe)
 Copying SCF densities to generalized density rwf, IOpCl= 0 IROHF=0.

 **********************************************************************

            Population analysis using the SCF density.

 **********************************************************************

 Alpha  occ. eigenvalues --  -19.62590  -1.13406  -0.60779  -0.47544  -0.39997
 Alpha virt. eigenvalues --    0.06289   0.13343   0.17396   0.17945   0.18931
 Alpha virt. eigenvalues --    0.23293   0.51182   0.53537   0.97920   1.00203
 Alpha virt. eigenvalues --    1.06033   1.18361   1.19988   1.32353   1.33831
 Alpha virt. eigenvalues --    1.69917   1.74220   1.75712   2.07796   2.09433
 Alpha virt. eigenvalues --    2.35767   2.41434   2.54567   2.88495   3.01415
 Alpha virt. eigenvalues --    5.05680   5.48281   5.92754   6.78315   6.80202
 Alpha virt. eigenvalues --    6.87172   6.91500   7.09434  49.95919
          Condensed to atoms (all electrons):
              12         13         14
    12  O    7.914996   0.321862   0.318982
    13  H    0.321862   0.425900  -0.024392
    14  H    0.318982  -0.024392   0.426200
 Mulliken charges:
               1
     1  P    0.000000
     2  O    0.000000
     3  O    0.000000
     4  H    0.000000
     5  O    0.000000
     6  H    0.000000
     7  O    0.000000
     8  H    0.000000
     9  O    0.000000
    10  H    0.000000
    11  H    0.000000
    12  O   -0.555840
    13  H    0.276630
    14  H    0.279210
 Sum of Mulliken charges =  -0.00000
 Mulliken charges with hydrogens summed into heavy atoms:
               1
     1  P    0.000000
     2  O    0.000000
     3  O    0.000000
     5  O    0.000000
     7  O    0.000000
     9  O    0.000000
    12  O   -0.000000
         Mulliken charges condensed to fragments:
      1      0.000000
      2      0.000000
      3     -0.000000
 Electronic spatial extent (au):  <R**2>=          13935.8363
 Charge=             -0.0000 electrons
 Dipole moment (field-independent basis, Debye):
    X=              0.9425    Y=             -0.3175    Z=              1.8697  Tot=              2.1178
 Quadrupole moment (field-independent basis, Debye-Ang):
   XX=             15.2716   YY=            -12.1606   ZZ=             31.6841
   XY=              6.8549   XZ=             32.5395   YZ=             19.5711
 Traceless Quadrupole moment (field-independent basis, Debye-Ang):
   XX=              3.6732   YY=            -23.7590   ZZ=             20.0857
   XY=              6.8549   XZ=             32.5395   YZ=             19.5711
 Octapole moment (field-independent basis, Debye-Ang**2):
  XXX=            142.6288  YYY=           -300.0335  ZZZ=            387.1038  XYY=            -25.0683
  XXY=            122.4700  XXZ=            437.0765  XZZ=            488.3255  YZZ=            355.6486
  YYZ=            155.1370  XYZ=            349.4231
 Hexadecapole moment (field-independent basis, Debye-Ang**3):
 XXXX=            158.9165 YYYY=          -6095.6228 ZZZZ=           3944.5944 XXXY=            899.3034
 XXXZ=           4908.7045 YYYX=          -2228.2907 YYYZ=            367.0450 ZZZX=           5800.5124
 ZZZY=           4451.4116 XXYY=             99.0639 XXZZ=           6396.9152 YYZZ=           3518.6084
 XXYZ=           4676.5822 YYXZ=           3163.1986 ZZXY=           5496.4695
 N-N= 9.114226204528D+00 E-N=-1.990812264679D+02  KE= 7.619989657894D+01
 No NMR shielding tensors so no spin-rotation constants.
 Leave Link  601 at Fri Feb 17 21:10:18 2023, MaxMem=  6710886400 cpu:               1.8 elap:               0.1
 (Enter /data0/home/software/g16/l122.exe)
 CPIOFr:  IOpCl= 0 IRwI=-1 IRwCP=  731 ICalc=  6 LCPTot=       89292 Len1MO=      233639 IndFrg=     1724765
 Restoring MOs from calculation   1 to rwf.
 CPIOFr:  IOpCl= 0 IRwI=-2 IRwCP=  731 ICalc=  0 LCPTot=       89292 Len1MO=      233639 IndFrg=      322931
 Counterpoise corrected energy =    -797.022154249530
                   BSSE energy =       0.002348201051
              sum of fragments =    -796.991424699733
           complexation energy =     -20.76 kcal/mole (raw)
           complexation energy =     -19.28 kcal/mole (corrected)
 Leave Link  122 at Fri Feb 17 21:10:19 2023, MaxMem=  6710886400 cpu:               0.2 elap:               0.0
 (Enter /data0/home/software/g16/l9999.exe)
 1\1\GINC-LOCALHOST\SP\RM062X\6-311+G(2d,p)\H7O6P1\WUHANYU\17-Feb-2023\
 0\\#p M062X/6-311+G(2d,p) nosymm em=GD3 counterpoise=3\\Title Card Req
 uired\\0,1\P,0,12.140624,9.052795,12.704697\O,0,12.624072,9.341066,11.
 352927\O,0,11.693636,7.58293,13.065154\H,0,11.538127,7.009323,12.18486
 2\O,0,13.229465,9.423439,13.797949\H,0,12.841557,9.175329,14.724911\O,
 0,10.907135,9.958209,13.175792\H,0,10.039913,9.56768,12.79584\O,0,11.1
 71674,6.089443,10.828202\H,0,10.338122,6.528784,10.507382\H,0,11.82623
 9,6.343333,10.176461\O,0,11.972402,11.930695,10.107068\H,0,12.126966,1
 2.573149,10.799733\H,0,12.347576,11.104515,10.462291\\Version=ES64L-G1
 6RevA.03\HF=-76.4218213\RMSD=3.795e-09\Dipole=-1.1447987,-1.392269,0.6
 899524\Quadrupole=-26.2444068,-28.6576752,54.9020819,-49.1523403,-8.43
 33338,-9.5712654\PG=C01 [X(H7O6P1)]\\@


 CHINESE FORTUNE COOKIE OF JAN 1 1967 SAY....
 ALL THINGS ARE DIFFICULT BEFORE THEY ARE EASY.
 WE LEARN SO LITTLE AND FORGET SO MUCH.
 YOU WILL OVERCOME OBSTACLES TO ACHIEVE SUCCESS.
 AH SO.
 Job cpu time:       0 days  0 hours 19 minutes 35.7 seconds.
 Elapsed time:       0 days  0 hours  0 minutes 51.4 seconds.
 File lengths (MBytes):  RWF=     53 Int=      0 D2E=      0 Chk=     17 Scr=      1
 Normal termination of Gaussian 16 at Fri Feb 17 21:10:19 2023.
