 Entering Gaussian System, Link 0=g16
 Initial command:
 /data0/home/software/g16/l1.exe "/data0/home/software/g16/scratch/Gau-405152.inp" -scrdir="/data0/home/software/g16/scratch/"
 Default is to use a total of  22 processors:
                               22 via shared-memory
                                1 via Linda
 Entering Link 1 = /data0/home/software/g16/l1.exe PID=    405153.
  
 Copyright (c) 1988,1990,1992,1993,1995,1998,2003,2009,2016,
            Gaussian, Inc.  All Rights Reserved.
  
 This is part of the Gaussian(R) 16 program.  It is based on
 the Gaussian(R) 09 system (copyright 2009, Gaussian, Inc.),
 the Gaussian(R) 03 system (copyright 2003, Gaussian, Inc.),
 the Gaussian(R) 98 system (copyright 1998, Gaussian, Inc.),
 the Gaussian(R) 94 system (copyright 1995, Gaussian, Inc.),
 the Gaussian 92(TM) system (copyright 1992, Gaussian, Inc.),
 the Gaussian 90(TM) system (copyright 1990, Gaussian, Inc.),
 the Gaussian 88(TM) system (copyright 1988, Gaussian, Inc.),
 the Gaussian 86(TM) system (copyright 1986, Carnegie Mellon
 University), and the Gaussian 82(TM) system (copyright 1983,
 Carnegie Mellon University). Gaussian is a federally registered
 trademark of Gaussian, Inc.
  
 This software contains proprietary and confidential information,
 including trade secrets, belonging to Gaussian, Inc.
  
 This software is provided under written license and may be
 used, copied, transmitted, or stored only in accord with that
 written license.
  
 The following legend is applicable only to US Government
 contracts under FAR:
  
                    RESTRICTED RIGHTS LEGEND
  
 Use, reproduction and disclosure by the US Government is
 subject to restrictions as set forth in subparagraphs (a)
 and (c) of the Commercial Computer Software - Restricted
 Rights clause in FAR 52.227-19.
  
 Gaussian, Inc.
 340 Quinnipiac St., Bldg. 40, Wallingford CT 06492
  
  
 ---------------------------------------------------------------
 Warning -- This program may not be used in any manner that
 competes with the business of Gaussian, Inc. or will provide
 assistance to any competitor of Gaussian, Inc.  The licensee
 of this program is prohibited from giving any competitor of
 Gaussian, Inc. access to this program.  By using this program,
 the user acknowledges that Gaussian, Inc. is engaged in the
 business of creating and licensing software in the field of
 computational chemistry and represents and warrants to the
 licensee that it is not a competitor of Gaussian, Inc. and that
 it will not use this program in any manner prohibited above.
 ---------------------------------------------------------------
  

 Cite this work as:
 Gaussian 16, Revision A.03,
 M. J. Frisch, G. W. Trucks, H. B. Schlegel, G. E. Scuseria, 
 M. A. Robb, J. R. Cheeseman, G. Scalmani, V. Barone, 
 G. A. Petersson, H. Nakatsuji, X. Li, M. Caricato, A. V. Marenich, 
 J. Bloino, B. G. Janesko, R. Gomperts, B. Mennucci, H. P. Hratchian, 
 J. V. Ortiz, A. F. Izmaylov, J. L. Sonnenberg, D. Williams-Young, 
 F. Ding, F. Lipparini, F. Egidi, J. Goings, B. Peng, A. Petrone, 
 T. Henderson, D. Ranasinghe, V. G. Zakrzewski, J. Gao, N. Rega, 
 G. Zheng, W. Liang, M. Hada, M. Ehara, K. Toyota, R. Fukuda, 
 J. Hasegawa, M. Ishida, T. Nakajima, Y. Honda, O. Kitao, H. Nakai, 
 T. Vreven, K. Throssell, J. A. Montgomery, Jr., J. E. Peralta, 
 F. Ogliaro, M. J. Bearpark, J. J. Heyd, E. N. Brothers, K. N. Kudin, 
 V. N. Staroverov, T. A. Keith, R. Kobayashi, J. Normand, 
 K. Raghavachari, A. P. Rendell, J. C. Burant, S. S. Iyengar, 
 J. Tomasi, M. Cossi, J. M. Millam, M. Klene, C. Adamo, R. Cammi, 
 J. W. Ochterski, R. L. Martin, K. Morokuma, O. Farkas, 
 J. B. Foresman, and D. J. Fox, Gaussian, Inc., Wallingford CT, 2016.
 
 ******************************************
 Gaussian 16:  ES64L-G16RevA.03 25-Dec-2016
                20-Feb-2023 
 ******************************************
 %nproc=24
 Will use up to   24 processors via shared memory.
 %mem=50GB
 ---------------------------------------------------
 #p M062X/6-311+G(2d,p) nosymm em=GD3 counterpoise=2
 ---------------------------------------------------
 1/38=1,62=2,172=1/1;
 2/12=2,15=1,17=6,18=5,40=1/2;
 1/38=1,53=2,62=2,63=1/22;
 3/5=4,6=6,7=112,11=2,25=1,30=1,74=-55,124=31/1,2,3;
 4//1;
 5/5=2,38=5/2;
 6/7=2,8=2,9=2,10=2,28=1/1;
 1/53=2,62=2,63=1/22;
 3/5=7,6=11,7=112,11=2,25=1,30=1,74=-55,82=7,124=31/1,2,3;
 4//1;
 5/5=2,38=5/2;
 6/7=2,8=2,9=2,10=2,28=1/1;
 1/53=2,62=2,63=1/22(-4);
 99/5=1,9=1/99;
 Leave Link    1 at Mon Feb 20 10:24:53 2023, MaxMem=  6710886400 cpu:               0.7 elap:               0.0
 (Enter /data0/home/software/g16/l101.exe)
 -------------------
 Title Card Required
 -------------------
 Symbolic Z-matrix:
 Charge =  0 Multiplicity = 1 in supermolecule
 Charge =  0 Multiplicity = 1 in fragment      1.
 Charge =  0 Multiplicity = 1 in fragment      2.
 C                     17.29936   6.37306   10.4891    
 C                     16.67787   6.67355   11.7068    
 C                     16.32895   8.00066   11.98131    
 C                     16.64567   8.99322   11.05564    
 C                     17.28551   8.65995   9.86531    
 H                     15.79232   8.25248   12.90245    
 H                     17.5238   5.32883   10.20701    
 H                     16.36586   10.03757   11.23837    
 H                     17.53631   9.42051   9.1108     
 C                     16.36748   5.57495   12.65455    
 H                     15.54037   5.83985   13.33812    
 H                     16.01515   4.66571   12.12995    
 H                     17.23375   5.29568   13.26705    
 N                     17.59911   7.35977   9.59963    
 C                     18.27882   7.01876   8.3262     
 H                     19.25093   7.5607    8.29803    
 H                     18.51154   5.92388   8.32039    
 C                     17.43181   7.36096   7.08711    
 H                     16.68543   8.15656   7.31488    
 H                     18.0851   7.79607   6.30516    
 C                     16.70631   6.1387    6.52813    
 H                     16.22921   6.38124   5.55698    
 H                     17.39335   5.29779   6.33388    
 C                     15.63496   5.69897   7.52223    
 O                     14.44017   5.81529   7.18783    
 O                     16.02315   5.29106   8.63842    
 P                     13.29395   6.64332   10.56513    
 O                     13.72668   7.61448   11.58271    
 O                     11.81458   6.15798   10.81171    
 H                     11.70202   5.19721   10.37598    
 O                     13.32466   7.34571   9.13664    
 H                     13.60103   6.68426   8.37404    
 O                     14.13415   5.29788   10.52713    
 H                     14.85602   5.2915    9.74155    
 
 ITRead=  0  0  0  0  0  0  0  0  0  0  0  0  0  0  0  0  0  0  0  0
 ITRead=  0  0  0  0  0  0  0  0  0  0  0  0  0  0
 MicOpt= -1 -1 -1 -1 -1 -1 -1 -1 -1 -1 -1 -1 -1 -1 -1 -1 -1 -1 -1 -1
 MicOpt= -1 -1 -1 -1 -1 -1 -1 -1 -1 -1 -1 -1 -1 -1
 NAtoms=     34 NQM=       34 NQMF=       0 NMMI=      0 NMMIF=      0
                NMic=       0 NMicF=      0.
                    Isotopes and Nuclear Properties:
 (Nuclear quadrupole moments (NQMom) in fm**2, nuclear magnetic moments (NMagM)
  in nuclear magnetons)

  Atom         1           2           3           4           5           6           7           8           9          10
 IAtWgt=          12          12          12          12          12           1           1           1           1          12
 AtmWgt=  12.0000000  12.0000000  12.0000000  12.0000000  12.0000000   1.0078250   1.0078250   1.0078250   1.0078250  12.0000000
 NucSpn=           0           0           0           0           0           1           1           1           1           0
 AtZEff=  -0.0000000  -0.0000000  -0.0000000  -0.0000000  -0.0000000  -0.0000000  -0.0000000  -0.0000000  -0.0000000  -0.0000000
 NQMom=    0.0000000   0.0000000   0.0000000   0.0000000   0.0000000   0.0000000   0.0000000   0.0000000   0.0000000   0.0000000
 NMagM=    0.0000000   0.0000000   0.0000000   0.0000000   0.0000000   2.7928460   2.7928460   2.7928460   2.7928460   0.0000000
 AtZNuc=   6.0000000   6.0000000   6.0000000   6.0000000   6.0000000   1.0000000   1.0000000   1.0000000   1.0000000   6.0000000

  Atom        11          12          13          14          15          16          17          18          19          20
 IAtWgt=           1           1           1          14          12           1           1          12           1           1
 AtmWgt=   1.0078250   1.0078250   1.0078250  14.0030740  12.0000000   1.0078250   1.0078250  12.0000000   1.0078250   1.0078250
 NucSpn=           1           1           1           2           0           1           1           0           1           1
 AtZEff=  -0.0000000  -0.0000000  -0.0000000  -0.0000000  -0.0000000  -0.0000000  -0.0000000  -0.0000000  -0.0000000  -0.0000000
 NQMom=    0.0000000   0.0000000   0.0000000   2.0440000   0.0000000   0.0000000   0.0000000   0.0000000   0.0000000   0.0000000
 NMagM=    2.7928460   2.7928460   2.7928460   0.4037610   0.0000000   2.7928460   2.7928460   0.0000000   2.7928460   2.7928460
 AtZNuc=   1.0000000   1.0000000   1.0000000   7.0000000   6.0000000   1.0000000   1.0000000   6.0000000   1.0000000   1.0000000

  Atom        21          22          23          24          25          26          27          28          29          30
 IAtWgt=          12           1           1          12          16          16          31          16          16           1
 AtmWgt=  12.0000000   1.0078250   1.0078250  12.0000000  15.9949146  15.9949146  30.9737634  15.9949146  15.9949146   1.0078250
 NucSpn=           0           1           1           0           0           0           1           0           0           1
 AtZEff=  -0.0000000  -0.0000000  -0.0000000  -0.0000000  -0.0000000  -0.0000000  -0.0000000  -0.0000000  -0.0000000  -0.0000000
 NQMom=    0.0000000   0.0000000   0.0000000   0.0000000   0.0000000   0.0000000   0.0000000   0.0000000   0.0000000   0.0000000
 NMagM=    0.0000000   2.7928460   2.7928460   0.0000000   0.0000000   0.0000000   1.1316000   0.0000000   0.0000000   2.7928460
 AtZNuc=   6.0000000   1.0000000   1.0000000   6.0000000   8.0000000   8.0000000  15.0000000   8.0000000   8.0000000   1.0000000

  Atom        31          32          33          34
 IAtWgt=          16           1          16           1
 AtmWgt=  15.9949146   1.0078250  15.9949146   1.0078250
 NucSpn=           0           1           0           1
 AtZEff=  -0.0000000  -0.0000000  -0.0000000  -0.0000000
 NQMom=    0.0000000   0.0000000   0.0000000   0.0000000
 NMagM=    0.0000000   2.7928460   0.0000000   2.7928460
 AtZNuc=   8.0000000   1.0000000   8.0000000   1.0000000
 Leave Link  101 at Mon Feb 20 10:24:53 2023, MaxMem=  6710886400 cpu:               2.3 elap:               0.1
 (Enter /data0/home/software/g16/l202.exe)
                          Input orientation:                          
 ---------------------------------------------------------------------
 Center     Atomic      Atomic             Coordinates (Angstroms)
 Number     Number       Type             X           Y           Z
 ---------------------------------------------------------------------
      1          6           0       17.299360    6.373064   10.489098
      2          6           0       16.677871    6.673549   11.706801
      3          6           0       16.328951    8.000664   11.981306
      4          6           0       16.645667    8.993219   11.055639
      5          6           0       17.285505    8.659954    9.865310
      6          1           0       15.792322    8.252482   12.902449
      7          1           0       17.523803    5.328829   10.207012
      8          1           0       16.365865   10.037571   11.238366
      9          1           0       17.536307    9.420515    9.110803
     10          6           0       16.367481    5.574951   12.654545
     11          1           0       15.540368    5.839847   13.338115
     12          1           0       16.015146    4.665714   12.129952
     13          1           0       17.233748    5.295682   13.267047
     14          7           0       17.599114    7.359768    9.599631
     15          6           0       18.278816    7.018757    8.326198
     16          1           0       19.250933    7.560704    8.298030
     17          1           0       18.511536    5.923880    8.320388
     18          6           0       17.431812    7.360960    7.087109
     19          1           0       16.685425    8.156558    7.314880
     20          1           0       18.085102    7.796073    6.305161
     21          6           0       16.706309    6.138698    6.528134
     22          1           0       16.229206    6.381238    5.556980
     23          1           0       17.393345    5.297793    6.333882
     24          6           0       15.634956    5.698971    7.522230
     25          8           0       14.440169    5.815293    7.187827
     26          8           0       16.023154    5.291065    8.638416
     27         15           0       13.293946    6.643324   10.565128
     28          8           0       13.726683    7.614477   11.582713
     29          8           0       11.814584    6.157975   10.811709
     30          1           0       11.702019    5.197208   10.375979
     31          8           0       13.324663    7.345708    9.136645
     32          1           0       13.601026    6.684258    8.374036
     33          8           0       14.134153    5.297877   10.527126
     34          1           0       14.856018    5.291503    9.741545
 ---------------------------------------------------------------------
                    Distance matrix (angstroms):
                    1          2          3          4          5
     1  C    0.000000
     2  C    1.399764   0.000000
     3  C    2.411941   1.399404   0.000000
     4  C    2.759256   2.409547   1.393676   0.000000
     5  C    2.370479   2.775989   2.413938   1.391884   0.000000
     6  H    3.409932   2.169516   1.095394   2.165086   3.408789
     7  H    1.104705   2.184775   3.422644   3.862518   3.357073
     8  H    3.855052   3.410780   2.168482   1.096517   2.151476
     9  H    3.353028   3.875815   3.422495   2.181332   1.100289
    10  C    2.488884   1.483738   2.517701   3.783972   4.259090
    11  H    3.390468   2.156422   2.670566   4.046621   4.801966
    12  H    2.693817   2.156308   3.352978   4.503222   4.764071
    13  H    2.980278   2.154503   3.128692   4.348327   4.784644
    14  N    1.361833   2.399948   2.774245   2.386877   1.363605
    15  C    2.460567   3.756417   4.257456   3.743731   2.459484
    16  H    3.165423   4.362042   4.722083   4.055110   2.743652
    17  H    2.524765   3.923280   4.741206   4.514854   3.372838
    18  C    3.544998   4.731016   5.057538   4.362513   3.070373
    19  H    3.692347   4.635552   4.682618   3.833388   2.667995
    20  H    4.488616   5.693687   5.945128   5.106092   3.749708
    21  C    4.011966   5.206291   5.774634   5.352595   4.222433
    22  H    5.046889   6.173090   6.626044   6.101732   4.986985
    23  H    4.293118   5.592215   6.350736   6.042366   4.877165
    24  C    3.467989   4.421324   5.065844   4.935442   4.120893
    25  O    4.402780   5.115177   5.596498   5.470229   4.832903
    26  O    2.494884   3.428542   4.313972   4.465023   3.801080
    27  P    4.015241   3.571453   3.613750   4.122698   4.526487
    28  O    3.937146   3.100041   2.660792   3.270964   4.087506
    29  O    5.498464   4.971777   5.014277   5.606913   6.089872
    30  H    5.720635   5.358150   5.643132   6.269872   6.589894
    31  O    4.309685   4.278026   4.188891   4.174434   4.236327
    32  H    4.271768   4.535903   4.710297   4.668205   4.438768
    33  O    3.343054   3.123237   3.773173   4.499176   4.655382
    34  H    2.774622   3.015200   3.811248   4.316525   4.155019
                    6          7          8          9         10
     6  H    0.000000
     7  H    4.337183   0.000000
     8  H    2.506924   4.957496   0.000000
     9  H    4.333862   4.236003   2.505437   0.000000
    10  C    2.749807   2.718101   4.681938   5.358416   0.000000
    11  H    2.464568   3.741518   4.765635   5.888559   1.105239
    12  H    3.675773   2.532482   5.456627   5.834152   1.107271
    13  H    3.309578   3.073930   5.230132   5.863459   1.097073
    14  N    3.869114   2.121155   3.372979   2.118862   3.746330
    15  C    5.352271   2.638818   4.610135   2.633508   4.946955
    16  H    5.800105   3.407118   4.806669   2.656961   5.588983
    17  H    5.814791   2.211120   5.480963   3.715143   4.848055
    18  C    6.107448   3.724488   5.053061   2.889295   5.942977
    19  H    5.659308   4.130782   4.362805   2.355191   5.939512
    20  H    6.999240   4.650461   5.684769   3.288102   6.942498
    21  C    6.777562   3.854650   6.124002   4.257863   6.161617
    22  H    7.592650   4.940278   6.757632   4.855448   7.144554
    23  H    7.378315   3.875451   6.897476   4.972782   6.409368
    24  C    5.957511   3.303453   5.759110   4.470860   5.185811
    25  O    6.358075   4.342917   6.159773   5.126552   5.801491
    26  O    5.196658   2.171144   5.422777   4.423250   4.040847
    27  P    3.780786   4.443854   4.627186   5.274986   3.867002
    28  O    2.532907   4.640567   3.599339   4.887264   3.504612
    29  O    4.957878   5.800717   5.995620   6.802600   4.946194
    30  H    5.696343   5.825723   6.776746   7.312722   5.205871
    31  O    4.592696   4.779776   4.572993   4.695044   4.976941
    32  H    5.269500   4.537088   5.205135   4.849367   5.215994
    33  O    4.137798   3.404873   5.286880   5.529626   3.096843
    34  H    4.431182   2.708344   5.200507   4.962915   3.293999
                   11         12         13         14         15
    11  H    0.000000
    12  H    1.750331   0.000000
    13  H    1.780085   1.781807   0.000000
    14  N    4.530437   4.021120   4.224202   0.000000
    15  C    5.831658   5.012939   5.336023   1.483211   0.000000
    16  H    6.490924   5.790934   5.821554   2.112592   1.113333
    17  H    5.832022   4.725222   5.147505   2.128556   1.119352
    18  C    6.705701   5.890803   6.518914   2.518086   1.539435
    19  H    6.554210   5.984997   6.626731   2.586463   2.203690
    20  H    7.730778   6.929073   7.446114   3.358583   2.174014
    21  C    6.915531   5.833331   6.811888   3.423771   2.545647
    22  H    7.830304   6.796529   7.850648   4.379178   3.503698
    23  H    7.265441   5.991109   6.935002   3.867712   2.777607
    24  C    5.818360   4.737432   5.976763   3.306321   3.062384
    25  O    6.247966   5.312879   6.710514   4.263934   4.180840
    26  O    4.756198   3.547105   4.784327   2.772565   2.858393
    27  P    3.658066   3.710060   4.963723   4.469894   5.477471
    28  O    3.085482   3.772497   4.529161   4.358120   5.628649
    29  O    4.512804   4.648584   6.011620   6.031105   6.978897
    30  H    4.890824   4.686360   6.242435   6.328911   7.125581
    31  O    4.982902   4.835386   6.045145   4.299475   5.030641
    32  H    5.395939   4.899939   6.250310   4.235930   4.689978
    33  O    3.189488   2.550846   4.136987   4.137342   4.998374
    34  H    3.701936   2.727577   4.252385   3.438377   4.086828
                   16         17         18         19         20
    16  H    0.000000
    17  H    1.796218   0.000000
    18  C    2.194408   2.179904   0.000000
    19  H    2.811309   3.054600   1.114428   0.000000
    20  H    2.320795   2.783540   1.107950   1.763116   0.000000
    21  C    3.410241   2.552874   1.527328   2.165910   2.167413
    22  H    4.246802   3.613119   2.178855   2.539707   2.450690
    23  H    3.525518   2.364010   2.196700   3.104198   2.592442
    24  C    4.140435   2.993719   2.486007   2.680711   3.447073
    25  O    5.236646   4.227353   3.368851   3.246358   4.241241
    26  O    3.960515   2.587207   2.945392   3.225120   3.996345
    27  P    6.439489   5.725356   5.452848   4.935192   6.513933
    28  O    6.427237   6.032885   5.831184   5.221341   6.846996
    29  O    7.974053   7.149171   6.846391   6.320383   7.893778
    30  H    8.178636   7.150037   6.951907   6.554572   8.004337
    31  O    5.989171   5.439809   4.590153   3.907816   5.557149
    32  H    5.717988   4.969322   4.097442   3.578127   5.061948
    33  O    6.022515   4.941969   5.192743   4.999957   6.298886
    34  H    5.152503   3.972707   4.238325   4.176598   5.339344
                   21         22         23         24         25
    21  C    0.000000
    22  H    1.108870   0.000000
    23  H    1.103120   1.769929   0.000000
    24  C    1.526232   2.163522   2.159872   0.000000
    25  O    2.382263   2.486083   3.117415   1.246143   0.000000
    26  O    2.374547   3.275085   2.681109   1.250182   2.210173
    27  P    5.310008   5.810851   6.043093   3.953651   3.661369
    28  O    6.050195   6.640253   6.808940   4.878339   4.802202
    29  O    6.502181   6.866652   7.205097   5.062272   4.488168
    30  H    6.382416   6.717150   6.981394   4.885043   4.247800
    31  O    4.438100   4.709626   5.348234   3.264281   2.717428
    32  H    3.653460   3.864577   4.523958   2.415209   1.693031
    33  O    4.828551   5.501388   5.310897   3.382704   3.392976
    34  H    3.803594   4.536932   4.248557   2.387076   2.639841
                   26         27         28         29         30
    26  O    0.000000
    27  P    3.604081   0.000000
    28  O    4.397830   1.471692   0.000000
    29  O    4.815267   1.576350   2.524276   0.000000
    30  H    4.658341   2.158995   3.376190   1.060945   0.000000
    31  O    3.428067   1.592121   2.493412   2.548899   2.963946
    32  H    2.806704   2.212885   3.343158   3.067670   3.134537
    33  O    2.671254   1.586701   2.578164   2.490212   2.438905
    34  H    1.605958   2.223910   3.171988   3.338614   3.218557
                   31         32         33         34
    31  O    0.000000
    32  H    1.046645   0.000000
    33  O    2.604289   2.615736   0.000000
    34  H    2.632624   2.320528   1.066896   0.000000
 Symmetry turned off by external request.
 Stoichiometry    C10H16NO6P
 Framework group  C1[X(C10H16NO6P)]
 Deg. of freedom    96
 Full point group                 C1      NOp   1
 Rotational constants (GHZ):           0.4986482           0.3684198           0.2695630
 Leave Link  202 at Mon Feb 20 10:24:53 2023, MaxMem=  6710886400 cpu:               0.1 elap:               0.0
 (Enter /data0/home/software/g16/l122.exe)
 Counterpoise: doing full-system calculation.
 Leave Link  122 at Mon Feb 20 10:24:53 2023, MaxMem=  6710886400 cpu:               0.0 elap:               0.0
 (Enter /data0/home/software/g16/l301.exe)
 Standard basis: 6-311+G(2d,p) (5D, 7F)
 Ernie: Thresh=  0.10000D-02 Tol=  0.10000D-05 Strict=F.
   590 basis functions,   898 primitive gaussians,   626 cartesian basis functions
    73 alpha electrons       73 beta electrons
       nuclear repulsion energy      1676.3766715049 Hartrees.
 IExCor= 4336 DFT=T Ex+Corr=M062X ExCW=0 ScaHFX=  0.540000
 ScaDFX=  1.000000  1.000000  1.000000  1.000000 ScalE2=  1.000000  1.000000
 IRadAn=      5 IRanWt=     -1 IRanGd=            0 ICorTp=0 IEmpDi=131
 NAtoms=   34 NActive=   34 NUniq=   34 SFac= 1.00D+00 NAtFMM=   60 NAOKFM=F Big=F
 Integral buffers will be    131072 words long.
 Raffenetti 2 integral format.
 Two-electron integral symmetry is turned off.
 R6Disp:  Grimme-D3 Dispersion energy=       -0.0025293988 Hartrees.
 Nuclear repulsion after empirical dispersion term =     1676.3741421060 Hartrees.
 Leave Link  301 at Mon Feb 20 10:24:53 2023, MaxMem=  6710886400 cpu:               1.1 elap:               0.1
 (Enter /data0/home/software/g16/l302.exe)
 NPDir=0 NMtPBC=     1 NCelOv=     1 NCel=       1 NClECP=     1 NCelD=      1
         NCelK=      1 NCelE2=     1 NClLst=     1 CellRange=     0.0.
 One-electron integrals computed using PRISM.
 NBasis=   590 RedAO= T EigKep=  2.35D-06  NBF=   590
 NBsUse=   590 1.00D-06 EigRej= -1.00D+00 NBFU=   590
 Precomputing XC quadrature grid using
 IXCGrd= 4 IRadAn=           5 IRanWt=          -1 IRanGd=           0 AccXCQ= 0.00D+00.
 Generated NRdTot=       0 NPtTot=           0 NUsed=           0 NTot=          32
 NSgBfM=   626   626   626   626   626 MxSgAt=    34 MxSgA2=    34.
 Leave Link  302 at Mon Feb 20 10:24:54 2023, MaxMem=  6710886400 cpu:              15.5 elap:               0.7
 (Enter /data0/home/software/g16/l303.exe)
 DipDrv:  MaxL=1.
 Leave Link  303 at Mon Feb 20 10:24:54 2023, MaxMem=  6710886400 cpu:               1.5 elap:               0.1
 (Enter /data0/home/software/g16/l401.exe)
 ExpMin= 3.48D-02 ExpMax= 7.75D+04 ExpMxC= 2.65D+03 IAcc=3 IRadAn=         5 AccDes= 0.00D+00
 Harris functional with IExCor= 1009 and IRadAn=       5 diagonalized for initial guess.
 HarFok:  IExCor= 1009 AccDes= 0.00D+00 IRadAn=         5 IDoV= 1 UseB2=F ITyADJ=14
 ICtDFT=  3500011 ScaDFX=  1.000000  1.000000  1.000000  1.000000
 FoFCou: FMM=F IPFlag=           0 FMFlag=      100000 FMFlg1=           0
         NFxFlg=           0 DoJE=T BraDBF=F KetDBF=T FulRan=T
         wScrn=  0.000000 ICntrl=       500 IOpCl=  0 I1Cent=   200000004 NGrid=           0
         NMat0=    1 NMatS0=      1 NMatT0=    0 NMatD0=    1 NMtDS0=    0 NMtDT0=    0
 Symmetry not used in FoFCou.
 Harris En= -1237.71524114154    
 JPrj=0 DoOrth=F DoCkMO=F.
 Leave Link  401 at Mon Feb 20 10:24:57 2023, MaxMem=  6710886400 cpu:              63.5 elap:               2.7
 (Enter /data0/home/software/g16/l502.exe)
 Two-electron integral symmetry not used.
 Closed shell SCF:
 Using DIIS extrapolation, IDIIS=  1040.
 NGot=  6710886400 LenX=  6710083268 LenY=  6709690766
 Requested convergence on RMS density matrix=1.00D-08 within 128 cycles.
 Requested convergence on MAX density matrix=1.00D-06.
 Requested convergence on             energy=1.00D-06.
 No special actions if energy rises.
 Fock matrices will be formed incrementally for  20 cycles.

 Cycle   1  Pass 1  IDiag  1:
 FoFJK:  IHMeth= 1 ICntrl=       0 DoSepK=F KAlg= 0 I1Cent=           0 FoldK=F
 IRaf= 870000000 NMat=       1 IRICut=       1 DoRegI=T DoRafI=F ISym2E= 0 IDoP0=0 IntGTp=1.
 FoFCou: FMM=F IPFlag=           0 FMFlag=      100000 FMFlg1=           0
         NFxFlg=           0 DoJE=F BraDBF=F KetDBF=F FulRan=T
         wScrn=  0.000000 ICntrl=         0 IOpCl=  0 I1Cent=           0 NGrid=           0
         NMat0=    1 NMatS0=      1 NMatT0=    0 NMatD0=    1 NMtDS0=    0 NMtDT0=    0
 Symmetry not used in FoFCou.
 E= -1237.55279475586    
 DIIS: error= 1.74D-02 at cycle   1 NSaved=   1.
 NSaved= 1 IEnMin= 1 EnMin= -1237.55279475586     IErMin= 1 ErrMin= 1.74D-02
 ErrMax= 1.74D-02  0.00D+00 EMaxC= 1.00D-01 BMatC= 1.00D+00 BMatP= 1.00D+00
 IDIUse=3 WtCom= 8.26D-01 WtEn= 1.74D-01
 Coeff-Com:  0.100D+01
 Coeff-En:   0.100D+01
 Coeff:      0.100D+01
 Gap=     0.258 Goal=   None    Shift=    0.000
 GapD=    0.258 DampG=1.000 DampE=0.500 DampFc=0.5000 IDamp=-1.
 Damping current iteration by 5.00D-01
 RMSDP=1.06D-02 MaxDP=1.89D+00              OVMax= 2.78D-01

 Cycle   2  Pass 1  IDiag  1:
 RMSU=  4.81D-03    CP:  1.13D+00
 E= -1237.83159909236     Delta-E=       -0.278804336494 Rises=F Damp=T
 DIIS: error= 6.02D-03 at cycle   2 NSaved=   2.
 NSaved= 2 IEnMin= 2 EnMin= -1237.83159909236     IErMin= 2 ErrMin= 6.02D-03
 ErrMax= 6.02D-03  0.00D+00 EMaxC= 1.00D-01 BMatC= 7.18D-02 BMatP= 1.00D+00
 IDIUse=3 WtCom= 9.40D-01 WtEn= 6.02D-02
 Coeff-Com:  0.334D-01 0.967D+00
 Coeff-En:   0.129D+00 0.871D+00
 Coeff:      0.392D-01 0.961D+00
 Gap=     0.319 Goal=   None    Shift=    0.000
 RMSDP=4.69D-03 MaxDP=1.10D+00 DE=-2.79D-01 OVMax= 1.88D-01

 Cycle   3  Pass 1  IDiag  1:
 RMSU=  3.02D-03    CP:  9.44D-01  6.72D-01
 E= -1238.16744836056     Delta-E=       -0.335849268209 Rises=F Damp=F
 DIIS: error= 4.61D-03 at cycle   3 NSaved=   3.
 NSaved= 3 IEnMin= 3 EnMin= -1238.16744836056     IErMin= 3 ErrMin= 4.61D-03
 ErrMax= 4.61D-03  0.00D+00 EMaxC= 1.00D-01 BMatC= 4.25D-02 BMatP= 7.18D-02
 IDIUse=3 WtCom= 9.54D-01 WtEn= 4.61D-02
 Coeff-Com: -0.488D-01 0.429D+00 0.620D+00
 Coeff-En:   0.000D+00 0.000D+00 0.100D+01
 Coeff:     -0.466D-01 0.409D+00 0.637D+00
 Gap=     0.255 Goal=   None    Shift=    0.000
 RMSDP=1.11D-03 MaxDP=1.47D-01 DE=-3.36D-01 OVMax= 5.85D-02

 Cycle   4  Pass 1  IDiag  1:
 RMSU=  8.97D-04    CP:  9.67D-01  7.74D-01  9.39D-01
 E= -1238.19569692628     Delta-E=       -0.028248565719 Rises=F Damp=F
 DIIS: error= 2.10D-03 at cycle   4 NSaved=   4.
 NSaved= 4 IEnMin= 4 EnMin= -1238.19569692628     IErMin= 4 ErrMin= 2.10D-03
 ErrMax= 2.10D-03  0.00D+00 EMaxC= 1.00D-01 BMatC= 9.13D-03 BMatP= 4.25D-02
 IDIUse=3 WtCom= 9.79D-01 WtEn= 2.10D-02
 Coeff-Com: -0.313D-01 0.902D-01 0.349D+00 0.592D+00
 Coeff-En:   0.000D+00 0.000D+00 0.169D+00 0.831D+00
 Coeff:     -0.306D-01 0.883D-01 0.346D+00 0.597D+00
 Gap=     0.258 Goal=   None    Shift=    0.000
 RMSDP=4.65D-04 MaxDP=8.35D-02 DE=-2.82D-02 OVMax= 1.99D-02

 Cycle   5  Pass 1  IDiag  1:
 RMSU=  3.65D-04    CP:  9.62D-01  7.62D-01  9.92D-01  7.58D-01
 E= -1238.20298008012     Delta-E=       -0.007283153839 Rises=F Damp=F
 DIIS: error= 4.09D-04 at cycle   5 NSaved=   5.
 NSaved= 5 IEnMin= 5 EnMin= -1238.20298008012     IErMin= 5 ErrMin= 4.09D-04
 ErrMax= 4.09D-04  0.00D+00 EMaxC= 1.00D-01 BMatC= 3.07D-04 BMatP= 9.13D-03
 IDIUse=3 WtCom= 9.96D-01 WtEn= 4.09D-03
 Coeff-Com: -0.109D-01 0.215D-01 0.121D+00 0.262D+00 0.606D+00
 Coeff-En:   0.000D+00 0.000D+00 0.000D+00 0.000D+00 0.100D+01
 Coeff:     -0.108D-01 0.214D-01 0.121D+00 0.261D+00 0.608D+00
 Gap=     0.252 Goal=   None    Shift=    0.000
 RMSDP=7.53D-05 MaxDP=8.75D-03 DE=-7.28D-03 OVMax= 4.18D-03

 Cycle   6  Pass 1  IDiag  1:
 RMSU=  5.60D-05    CP:  9.61D-01  7.59D-01  9.88D-01  7.70D-01  8.76D-01
 E= -1238.20322236500     Delta-E=       -0.000242284877 Rises=F Damp=F
 DIIS: error= 1.36D-04 at cycle   6 NSaved=   6.
 NSaved= 6 IEnMin= 6 EnMin= -1238.20322236500     IErMin= 6 ErrMin= 1.36D-04
 ErrMax= 1.36D-04  0.00D+00 EMaxC= 1.00D-01 BMatC= 3.58D-05 BMatP= 3.07D-04
 IDIUse=3 WtCom= 9.99D-01 WtEn= 1.36D-03
 Coeff-Com: -0.219D-02 0.152D-02 0.246D-01 0.681D-01 0.297D+00 0.611D+00
 Coeff-En:   0.000D+00 0.000D+00 0.000D+00 0.000D+00 0.000D+00 0.100D+01
 Coeff:     -0.219D-02 0.152D-02 0.246D-01 0.680D-01 0.296D+00 0.612D+00
 Gap=     0.253 Goal=   None    Shift=    0.000
 RMSDP=4.49D-05 MaxDP=8.66D-03 DE=-2.42D-04 OVMax= 1.26D-03

 Cycle   7  Pass 1  IDiag  1:
 RMSU=  2.98D-05    CP:  9.62D-01  7.61D-01  9.91D-01  7.85D-01  9.27D-01
                    CP:  8.65D-01
 E= -1238.20324866489     Delta-E=       -0.000026299891 Rises=F Damp=F
 DIIS: error= 4.25D-05 at cycle   7 NSaved=   7.
 NSaved= 7 IEnMin= 7 EnMin= -1238.20324866489     IErMin= 7 ErrMin= 4.25D-05
 ErrMax= 4.25D-05  0.00D+00 EMaxC= 1.00D-01 BMatC= 3.91D-06 BMatP= 3.58D-05
 IDIUse=1 WtCom= 1.00D+00 WtEn= 0.00D+00
 Coeff-Com:  0.354D-03-0.170D-02-0.375D-02-0.238D-02 0.662D-01 0.285D+00
 Coeff-Com:  0.656D+00
 Coeff:      0.354D-03-0.170D-02-0.375D-02-0.238D-02 0.662D-01 0.285D+00
 Coeff:      0.656D+00
 Gap=     0.253 Goal=   None    Shift=    0.000
 RMSDP=1.04D-05 MaxDP=1.35D-03 DE=-2.63D-05 OVMax= 4.99D-04

 Cycle   8  Pass 1  IDiag  1:
 RMSU=  8.71D-06    CP:  9.63D-01  7.61D-01  9.92D-01  7.87D-01  9.34D-01
                    CP:  9.06D-01  1.01D+00
 E= -1238.20325173874     Delta-E=       -0.000003073847 Rises=F Damp=F
 DIIS: error= 1.55D-05 at cycle   8 NSaved=   8.
 NSaved= 8 IEnMin= 8 EnMin= -1238.20325173874     IErMin= 8 ErrMin= 1.55D-05
 ErrMax= 1.55D-05  0.00D+00 EMaxC= 1.00D-01 BMatC= 4.67D-07 BMatP= 3.91D-06
 IDIUse=1 WtCom= 1.00D+00 WtEn= 0.00D+00
 Coeff-Com:  0.462D-03-0.961D-03-0.507D-02-0.108D-01-0.110D-01 0.324D-01
 Coeff-Com:  0.289D+00 0.706D+00
 Coeff:      0.462D-03-0.961D-03-0.507D-02-0.108D-01-0.110D-01 0.324D-01
 Coeff:      0.289D+00 0.706D+00
 Gap=     0.253 Goal=   None    Shift=    0.000
 RMSDP=4.75D-06 MaxDP=8.12D-04 DE=-3.07D-06 OVMax= 1.52D-04

 Cycle   9  Pass 1  IDiag  1:
 RMSU=  3.14D-06    CP:  9.62D-01  7.60D-01  9.92D-01  7.87D-01  9.36D-01
                    CP:  9.17D-01  9.86D-01  8.58D-01
 E= -1238.20325213940     Delta-E=       -0.000000400659 Rises=F Damp=F
 DIIS: error= 5.39D-06 at cycle   9 NSaved=   9.
 NSaved= 9 IEnMin= 9 EnMin= -1238.20325213940     IErMin= 9 ErrMin= 5.39D-06
 ErrMax= 5.39D-06  0.00D+00 EMaxC= 1.00D-01 BMatC= 4.77D-08 BMatP= 4.67D-07
 IDIUse=1 WtCom= 1.00D+00 WtEn= 0.00D+00
 Coeff-Com:  0.175D-03-0.316D-03-0.202D-02-0.473D-02-0.969D-02-0.783D-02
 Coeff-Com:  0.839D-01 0.314D+00 0.626D+00
 Coeff:      0.175D-03-0.316D-03-0.202D-02-0.473D-02-0.969D-02-0.783D-02
 Coeff:      0.839D-01 0.314D+00 0.626D+00
 Gap=     0.253 Goal=   None    Shift=    0.000
 RMSDP=1.18D-06 MaxDP=1.32D-04 DE=-4.01D-07 OVMax= 6.95D-05

 Cycle  10  Pass 1  IDiag  1:
 RMSU=  9.59D-07    CP:  9.62D-01  7.60D-01  9.92D-01  7.87D-01  9.34D-01
                    CP:  9.19D-01  9.94D-01  8.43D-01  1.04D+00
 E= -1238.20325218192     Delta-E=       -0.000000042525 Rises=F Damp=F
 DIIS: error= 2.58D-06 at cycle  10 NSaved=  10.
 NSaved=10 IEnMin=10 EnMin= -1238.20325218192     IErMin=10 ErrMin= 2.58D-06
 ErrMax= 2.58D-06  0.00D+00 EMaxC= 1.00D-01 BMatC= 7.72D-09 BMatP= 4.77D-08
 IDIUse=1 WtCom= 1.00D+00 WtEn= 0.00D+00
 Coeff-Com:  0.152D-05 0.217D-04-0.108D-03-0.427D-03-0.261D-02-0.888D-02
 Coeff-Com: -0.575D-02 0.239D-01 0.291D+00 0.703D+00
 Coeff:      0.152D-05 0.217D-04-0.108D-03-0.427D-03-0.261D-02-0.888D-02
 Coeff:     -0.575D-02 0.239D-01 0.291D+00 0.703D+00
 Gap=     0.253 Goal=   None    Shift=    0.000
 RMSDP=7.37D-07 MaxDP=1.18D-04 DE=-4.25D-08 OVMax= 2.69D-05

 Cycle  11  Pass 1  IDiag  1:
 RMSU=  4.37D-07    CP:  9.62D-01  7.60D-01  9.92D-01  7.87D-01  9.33D-01
                    CP:  9.19D-01  9.89D-01  8.53D-01  1.13D+00  1.14D+00
 E= -1238.20325218912     Delta-E=       -0.000000007197 Rises=F Damp=F
 DIIS: error= 5.07D-07 at cycle  11 NSaved=  11.
 NSaved=11 IEnMin=11 EnMin= -1238.20325218912     IErMin=11 ErrMin= 5.07D-07
 ErrMax= 5.07D-07  0.00D+00 EMaxC= 1.00D-01 BMatC= 7.27D-10 BMatP= 7.72D-09
 IDIUse=1 WtCom= 1.00D+00 WtEn= 0.00D+00
 Coeff-Com: -0.228D-04 0.480D-04 0.232D-03 0.489D-03 0.305D-03-0.261D-02
 Coeff-Com: -0.137D-01-0.395D-01 0.317D-01 0.261D+00 0.762D+00
 Coeff:     -0.228D-04 0.480D-04 0.232D-03 0.489D-03 0.305D-03-0.261D-02
 Coeff:     -0.137D-01-0.395D-01 0.317D-01 0.261D+00 0.762D+00
 Gap=     0.253 Goal=   None    Shift=    0.000
 RMSDP=3.02D-07 MaxDP=4.34D-05 DE=-7.20D-09 OVMax= 1.15D-05

 Cycle  12  Pass 1  IDiag  1:
 RMSU=  1.37D-07    CP:  9.62D-01  7.60D-01  9.92D-01  7.87D-01  9.33D-01
                    CP:  9.18D-01  9.86D-01  8.51D-01  1.17D+00  1.17D+00
                    CP:  9.43D-01
 E= -1238.20325219009     Delta-E=       -0.000000000971 Rises=F Damp=F
 DIIS: error= 1.68D-07 at cycle  12 NSaved=  12.
 NSaved=12 IEnMin=12 EnMin= -1238.20325219009     IErMin=12 ErrMin= 1.68D-07
 ErrMax= 1.68D-07  0.00D+00 EMaxC= 1.00D-01 BMatC= 8.97D-11 BMatP= 7.27D-10
 IDIUse=1 WtCom= 1.00D+00 WtEn= 0.00D+00
 Coeff-Com: -0.720D-05 0.141D-04 0.878D-04 0.200D-03 0.350D-03 0.249D-04
 Coeff-Com: -0.342D-02-0.155D-01-0.151D-01 0.440D-02 0.269D+00 0.760D+00
 Coeff:     -0.720D-05 0.141D-04 0.878D-04 0.200D-03 0.350D-03 0.249D-04
 Coeff:     -0.342D-02-0.155D-01-0.151D-01 0.440D-02 0.269D+00 0.760D+00
 Gap=     0.253 Goal=   None    Shift=    0.000
 RMSDP=8.20D-08 MaxDP=1.17D-05 DE=-9.71D-10 OVMax= 4.09D-06

 Cycle  13  Pass 1  IDiag  1:
 RMSU=  4.17D-08    CP:  9.62D-01  7.60D-01  9.92D-01  7.87D-01  9.33D-01
                    CP:  9.18D-01  9.86D-01  8.50D-01  1.18D+00  1.17D+00
                    CP:  1.01D+00  1.06D+00
 E= -1238.20325219021     Delta-E=       -0.000000000122 Rises=F Damp=F
 DIIS: error= 1.06D-07 at cycle  13 NSaved=  13.
 NSaved=13 IEnMin=13 EnMin= -1238.20325219021     IErMin=13 ErrMin= 1.06D-07
 ErrMax= 1.06D-07  0.00D+00 EMaxC= 1.00D-01 BMatC= 1.55D-11 BMatP= 8.97D-11
 IDIUse=1 WtCom= 1.00D+00 WtEn= 0.00D+00
 Coeff-Com:  0.245D-06-0.118D-05 0.700D-05 0.218D-04 0.109D-03 0.360D-03
 Coeff-Com:  0.381D-03-0.150D-02-0.104D-01-0.403D-01 0.814D-02 0.312D+00
 Coeff-Com:  0.731D+00
 Coeff:      0.245D-06-0.118D-05 0.700D-05 0.218D-04 0.109D-03 0.360D-03
 Coeff:      0.381D-03-0.150D-02-0.104D-01-0.403D-01 0.814D-02 0.312D+00
 Coeff:      0.731D+00
 Gap=     0.253 Goal=   None    Shift=    0.000
 RMSDP=3.30D-08 MaxDP=3.85D-06 DE=-1.22D-10 OVMax= 2.08D-06

 Cycle  14  Pass 1  IDiag  1:
 RMSU=  2.32D-08    CP:  9.62D-01  7.60D-01  9.92D-01  7.87D-01  9.33D-01
                    CP:  9.17D-01  9.86D-01  8.50D-01  1.18D+00  1.18D+00
                    CP:  1.02D+00  1.17D+00  1.14D+00
 E= -1238.20325219024     Delta-E=       -0.000000000031 Rises=F Damp=F
 DIIS: error= 3.35D-08 at cycle  14 NSaved=  14.
 NSaved=14 IEnMin=14 EnMin= -1238.20325219024     IErMin=14 ErrMin= 3.35D-08
 ErrMax= 3.35D-08  0.00D+00 EMaxC= 1.00D-01 BMatC= 2.51D-12 BMatP= 1.55D-11
 IDIUse=1 WtCom= 1.00D+00 WtEn= 0.00D+00
 Coeff-Com:  0.122D-05-0.254D-05-0.102D-04-0.209D-04-0.750D-05 0.157D-03
 Coeff-Com:  0.732D-03 0.174D-02-0.143D-02-0.182D-01-0.347D-01 0.770D-02
 Coeff-Com:  0.317D+00 0.727D+00
 Coeff:      0.122D-05-0.254D-05-0.102D-04-0.209D-04-0.750D-05 0.157D-03
 Coeff:      0.732D-03 0.174D-02-0.143D-02-0.182D-01-0.347D-01 0.770D-02
 Coeff:      0.317D+00 0.727D+00
 Gap=     0.253 Goal=   None    Shift=    0.000
 RMSDP=1.20D-08 MaxDP=2.20D-06 DE=-3.14D-11 OVMax= 8.41D-07

 Cycle  15  Pass 1  IDiag  1:
 RMSU=  5.70D-09    CP:  9.62D-01  7.60D-01  9.92D-01  7.87D-01  9.33D-01
                    CP:  9.17D-01  9.86D-01  8.50D-01  1.18D+00  1.17D+00
                    CP:  1.03D+00  1.19D+00  1.26D+00  9.04D-01
 E= -1238.20325219017     Delta-E=        0.000000000069 Rises=F Damp=F
 DIIS: error= 9.49D-09 at cycle  15 NSaved=  15.
 NSaved=15 IEnMin=14 EnMin= -1238.20325219024     IErMin=15 ErrMin= 9.49D-09
 ErrMax= 9.49D-09  0.00D+00 EMaxC= 1.00D-01 BMatC= 1.98D-13 BMatP= 2.51D-12
 IDIUse=1 WtCom= 1.00D+00 WtEn= 0.00D+00
 Coeff-Com:  0.304D-06-0.612D-06-0.374D-05-0.810D-05-0.136D-04 0.550D-05
 Coeff-Com:  0.178D-03 0.666D-03 0.747D-03-0.125D-02-0.115D-01-0.384D-01
 Coeff-Com:  0.143D-01 0.223D+00 0.812D+00
 Coeff:      0.304D-06-0.612D-06-0.374D-05-0.810D-05-0.136D-04 0.550D-05
 Coeff:      0.178D-03 0.666D-03 0.747D-03-0.125D-02-0.115D-01-0.384D-01
 Coeff:      0.143D-01 0.223D+00 0.812D+00
 Gap=     0.253 Goal=   None    Shift=    0.000
 RMSDP=4.25D-09 MaxDP=5.29D-07 DE= 6.87D-11 OVMax= 3.35D-07

 SCF Done:  E(RM062X) =  -1238.20325219     A.U. after   15 cycles
            NFock= 15  Conv=0.42D-08     -V/T= 2.0035
 KE= 1.233928054373D+03 PE=-6.265801988858D+03 EE= 2.117296540188D+03
 Leave Link  502 at Mon Feb 20 10:27:35 2023, MaxMem=  6710886400 cpu:            3781.5 elap:             158.1
 (Enter /data0/home/software/g16/l601.exe)
 Copying SCF densities to generalized density rwf, IOpCl= 0 IROHF=0.

 **********************************************************************

            Population analysis using the SCF density.

 **********************************************************************

 Alpha  occ. eigenvalues --  -78.12015 -19.63870 -19.61663 -19.60924 -19.58447
 Alpha  occ. eigenvalues --  -19.56987 -19.54210 -14.88599 -10.64782 -10.64078
 Alpha  occ. eigenvalues --  -10.63547 -10.63005 -10.60190 -10.59757 -10.59608
 Alpha  occ. eigenvalues --  -10.57663 -10.55065 -10.54619  -6.92723  -5.04654
 Alpha  occ. eigenvalues --   -5.04618  -5.04424  -1.18876  -1.17559  -1.15941
 Alpha  occ. eigenvalues --   -1.11367  -1.10206  -1.07161  -1.04595  -0.97936
 Alpha  occ. eigenvalues --   -0.92927  -0.91747  -0.83797  -0.82911  -0.76653
 Alpha  occ. eigenvalues --   -0.74969  -0.71116  -0.67253  -0.65249  -0.62546
 Alpha  occ. eigenvalues --   -0.62175  -0.60568  -0.59638  -0.58803  -0.58181
 Alpha  occ. eigenvalues --   -0.56156  -0.53937  -0.53837  -0.53093  -0.52606
 Alpha  occ. eigenvalues --   -0.51221  -0.50636  -0.50170  -0.48805  -0.48190
 Alpha  occ. eigenvalues --   -0.47641  -0.46946  -0.45844  -0.45072  -0.44261
 Alpha  occ. eigenvalues --   -0.43652  -0.43042  -0.42754  -0.41774  -0.40206
 Alpha  occ. eigenvalues --   -0.39439  -0.37924  -0.35479  -0.33927  -0.33315
 Alpha  occ. eigenvalues --   -0.33218  -0.32933  -0.31622
 Alpha virt. eigenvalues --   -0.06326  -0.02763  -0.01245   0.00258   0.00597
 Alpha virt. eigenvalues --    0.01692   0.02511   0.02604   0.02695   0.03713
 Alpha virt. eigenvalues --    0.04550   0.05030   0.05419   0.05916   0.06421
 Alpha virt. eigenvalues --    0.06812   0.07336   0.07805   0.08174   0.08310
 Alpha virt. eigenvalues --    0.08992   0.09457   0.09961   0.10323   0.10440
 Alpha virt. eigenvalues --    0.11188   0.11698   0.12047   0.12679   0.13072
 Alpha virt. eigenvalues --    0.13395   0.13741   0.14432   0.14567   0.14947
 Alpha virt. eigenvalues --    0.15652   0.15883   0.16249   0.16411   0.16959
 Alpha virt. eigenvalues --    0.17363   0.17659   0.18282   0.18587   0.18804
 Alpha virt. eigenvalues --    0.19433   0.20076   0.20117   0.20239   0.20891
 Alpha virt. eigenvalues --    0.21298   0.21542   0.22073   0.22396   0.22759
 Alpha virt. eigenvalues --    0.23027   0.23111   0.23330   0.23930   0.24347
 Alpha virt. eigenvalues --    0.24671   0.25471   0.25905   0.26561   0.26994
 Alpha virt. eigenvalues --    0.27147   0.27434   0.27640   0.28294   0.28596
 Alpha virt. eigenvalues --    0.29051   0.29282   0.29894   0.30569   0.31024
 Alpha virt. eigenvalues --    0.31127   0.31718   0.31966   0.32161   0.32467
 Alpha virt. eigenvalues --    0.32921   0.33430   0.33772   0.34050   0.34085
 Alpha virt. eigenvalues --    0.34824   0.35418   0.35804   0.35948   0.36526
 Alpha virt. eigenvalues --    0.37342   0.37852   0.38434   0.39132   0.39380
 Alpha virt. eigenvalues --    0.40396   0.40940   0.41944   0.42016   0.42307
 Alpha virt. eigenvalues --    0.42697   0.42870   0.44696   0.45546   0.46143
 Alpha virt. eigenvalues --    0.46851   0.47624   0.48018   0.48322   0.49127
 Alpha virt. eigenvalues --    0.49487   0.50541   0.51167   0.51879   0.52344
 Alpha virt. eigenvalues --    0.53404   0.54219   0.54738   0.55251   0.55732
 Alpha virt. eigenvalues --    0.56949   0.57444   0.58109   0.58777   0.59754
 Alpha virt. eigenvalues --    0.60323   0.60577   0.61281   0.61904   0.63092
 Alpha virt. eigenvalues --    0.63345   0.63975   0.64741   0.65063   0.65750
 Alpha virt. eigenvalues --    0.66155   0.66836   0.67274   0.68449   0.68830
 Alpha virt. eigenvalues --    0.69702   0.70232   0.70935   0.71225   0.72018
 Alpha virt. eigenvalues --    0.72603   0.73164   0.73440   0.73735   0.74706
 Alpha virt. eigenvalues --    0.75545   0.76286   0.77815   0.78053   0.78303
 Alpha virt. eigenvalues --    0.79484   0.80368   0.80680   0.81222   0.81721
 Alpha virt. eigenvalues --    0.81996   0.83220   0.83807   0.84127   0.85416
 Alpha virt. eigenvalues --    0.85965   0.86556   0.87859   0.88598   0.89460
 Alpha virt. eigenvalues --    0.90279   0.91028   0.91576   0.92140   0.93714
 Alpha virt. eigenvalues --    0.95190   0.96537   0.97124   0.97768   0.99737
 Alpha virt. eigenvalues --    1.00679   1.02135   1.02990   1.04774   1.05401
 Alpha virt. eigenvalues --    1.06662   1.06984   1.08958   1.09467   1.11013
 Alpha virt. eigenvalues --    1.11826   1.12194   1.13785   1.14793   1.16544
 Alpha virt. eigenvalues --    1.16724   1.17154   1.17885   1.19022   1.19404
 Alpha virt. eigenvalues --    1.21993   1.22199   1.22663   1.22901   1.23560
 Alpha virt. eigenvalues --    1.24599   1.25065   1.25519   1.25782   1.27142
 Alpha virt. eigenvalues --    1.28446   1.29304   1.29602   1.30901   1.31649
 Alpha virt. eigenvalues --    1.32022   1.32783   1.33784   1.33996   1.35280
 Alpha virt. eigenvalues --    1.35899   1.36108   1.36668   1.36931   1.37890
 Alpha virt. eigenvalues --    1.38554   1.39201   1.39828   1.40174   1.40842
 Alpha virt. eigenvalues --    1.41924   1.42254   1.42827   1.43598   1.44351
 Alpha virt. eigenvalues --    1.45391   1.45680   1.47353   1.47723   1.48764
 Alpha virt. eigenvalues --    1.49708   1.50678   1.51437   1.52019   1.54967
 Alpha virt. eigenvalues --    1.55732   1.56708   1.57084   1.58619   1.60147
 Alpha virt. eigenvalues --    1.61411   1.61577   1.62778   1.65097   1.66114
 Alpha virt. eigenvalues --    1.67188   1.68097   1.69933   1.70935   1.72342
 Alpha virt. eigenvalues --    1.72555   1.74012   1.75141   1.75217   1.76139
 Alpha virt. eigenvalues --    1.77915   1.78045   1.80310   1.80505   1.81700
 Alpha virt. eigenvalues --    1.83156   1.84146   1.85505   1.86367   1.87256
 Alpha virt. eigenvalues --    1.87790   1.88332   1.89579   1.91761   1.92562
 Alpha virt. eigenvalues --    1.93392   1.93628   1.94938   1.96490   1.98710
 Alpha virt. eigenvalues --    1.99959   2.00628   2.01705   2.02052   2.06019
 Alpha virt. eigenvalues --    2.06290   2.07954   2.09292   2.10957   2.11284
 Alpha virt. eigenvalues --    2.11753   2.13894   2.14390   2.16769   2.17695
 Alpha virt. eigenvalues --    2.18333   2.19975   2.21899   2.24860   2.26210
 Alpha virt. eigenvalues --    2.26870   2.28938   2.29509   2.30273   2.31705
 Alpha virt. eigenvalues --    2.32617   2.32910   2.34146   2.35537   2.36241
 Alpha virt. eigenvalues --    2.37442   2.38210   2.39489   2.41626   2.42217
 Alpha virt. eigenvalues --    2.43879   2.44433   2.44920   2.47495   2.48204
 Alpha virt. eigenvalues --    2.49337   2.52347   2.54749   2.58400   2.59422
 Alpha virt. eigenvalues --    2.61682   2.62315   2.65766   2.67602   2.67855
 Alpha virt. eigenvalues --    2.71225   2.73037   2.74199   2.76753   2.77392
 Alpha virt. eigenvalues --    2.78158   2.79109   2.79814   2.81654   2.83462
 Alpha virt. eigenvalues --    2.85231   2.86188   2.87935   2.88485   2.89222
 Alpha virt. eigenvalues --    2.90112   2.90600   2.92705   2.93237   2.95785
 Alpha virt. eigenvalues --    2.98012   2.99329   3.00187   3.00839   3.02404
 Alpha virt. eigenvalues --    3.04816   3.06806   3.09171   3.11889   3.13294
 Alpha virt. eigenvalues --    3.14634   3.15895   3.17863   3.19775   3.20489
 Alpha virt. eigenvalues --    3.23552   3.26926   3.27110   3.29295   3.29931
 Alpha virt. eigenvalues --    3.31319   3.33117   3.34519   3.37825   3.38364
 Alpha virt. eigenvalues --    3.38916   3.40769   3.41542   3.42828   3.44069
 Alpha virt. eigenvalues --    3.44418   3.47864   3.49168   3.49618   3.49874
 Alpha virt. eigenvalues --    3.52057   3.52809   3.53923   3.55475   3.58159
 Alpha virt. eigenvalues --    3.58853   3.60390   3.60573   3.61505   3.62383
 Alpha virt. eigenvalues --    3.63148   3.64216   3.64671   3.66657   3.67809
 Alpha virt. eigenvalues --    3.68581   3.68929   3.71363   3.71964   3.73154
 Alpha virt. eigenvalues --    3.75200   3.77188   3.78488   3.80005   3.81721
 Alpha virt. eigenvalues --    3.82314   3.83460   3.88052   3.90247   3.92631
 Alpha virt. eigenvalues --    3.95881   3.99835   4.02330   4.03411   4.05768
 Alpha virt. eigenvalues --    4.07156   4.14916   4.16984   4.18740   4.23586
 Alpha virt. eigenvalues --    4.24612   4.25590   4.28922   4.40949   4.41809
 Alpha virt. eigenvalues --    4.51781   4.52215   4.64108   4.71982   4.96876
 Alpha virt. eigenvalues --    5.02555   5.05761   5.11233   5.12228   5.15563
 Alpha virt. eigenvalues --    5.21570   5.23043   5.26492   5.28836   5.29909
 Alpha virt. eigenvalues --    5.31360   5.32153   5.35948   5.38078   5.44949
 Alpha virt. eigenvalues --    5.45334   5.48134   5.51302   5.53745   5.57586
 Alpha virt. eigenvalues --    5.67794   5.69441   5.76653   5.96989   6.25368
 Alpha virt. eigenvalues --    6.79046   6.79621   6.81634   6.83192   6.86197
 Alpha virt. eigenvalues --    6.89079   6.90536   6.91423   6.92647   6.93531
 Alpha virt. eigenvalues --    6.96875   6.99627   7.00907   7.02230   7.04808
 Alpha virt. eigenvalues --    7.06970   7.09946   7.11530   7.14381   7.16782
 Alpha virt. eigenvalues --    7.18520   7.22808   7.31370   7.33228   7.35626
 Alpha virt. eigenvalues --    7.36632   7.37820   7.42516   7.43025   7.47535
 Alpha virt. eigenvalues --    7.72671  14.32758  14.37524  14.42511  23.83523
 Alpha virt. eigenvalues --   23.97218  23.99039  24.03795  24.05192  24.08362
 Alpha virt. eigenvalues --   24.09546  24.11087  24.24600  24.26180  35.68446
 Alpha virt. eigenvalues --   50.07200  50.11373  50.12573  50.17283  50.18553
 Alpha virt. eigenvalues --   50.21622 163.99428
          Condensed to atoms (all electrons):
               1          2          3          4          5          6
     1  C   12.168556  -4.350934   0.612321  -0.341801  -0.822723   0.009180
     2  C   -4.350934  12.180171  -3.427838   0.973071   0.215121  -0.006212
     3  C    0.612321  -3.427838  11.219388  -1.397279  -0.468928   0.370296
     4  C   -0.341801   0.973071  -1.397279   6.526411   0.099931  -0.000763
     5  C   -0.822723   0.215121  -0.468928   0.099931   6.310068   0.014204
     6  H    0.009180  -0.006212   0.370296  -0.000763   0.014204   0.476018
     7  H    0.358900   0.040822  -0.001857  -0.006066   0.006420  -0.000099
     8  H   -0.010308   0.008383  -0.007591   0.340611   0.003890  -0.003523
     9  H   -0.000578   0.006275  -0.003419  -0.007883   0.391424  -0.000199
    10  C   -0.522777   0.099918  -0.240327   0.007224   0.028908  -0.025293
    11  H   -0.043487  -0.169805   0.093745   0.021101   0.011847   0.003045
    12  H    0.199221  -0.162956  -0.078039  -0.004565   0.000662   0.000027
    13  H   -0.097029   0.052605   0.024833  -0.001627  -0.000208   0.000312
    14  N   -0.248796   0.149142  -0.259983  -0.037863   0.336171   0.001675
    15  C   -0.106403  -0.396919  -0.138003  -0.004236  -0.034498   0.000479
    16  H    0.013406  -0.006188   0.007349   0.001952  -0.001347  -0.000004
    17  H    0.004529   0.025701  -0.005073  -0.001099  -0.019470  -0.000002
    18  C    0.050476   0.054409  -0.012508   0.029930  -0.011911  -0.000051
    19  H   -0.023213   0.009071  -0.010158  -0.019888   0.018240   0.000005
    20  H   -0.001637   0.001197   0.000704  -0.001550   0.000988   0.000000
    21  C   -0.026620   0.087720  -0.056378  -0.079932   0.084352   0.000142
    22  H    0.000227   0.000012   0.000821  -0.000369   0.002036  -0.000000
    23  H   -0.004354  -0.001546  -0.001081   0.000619  -0.003780   0.000000
    24  C   -0.149040   0.047981   0.013740   0.097595  -0.077249  -0.000229
    25  O   -0.005750  -0.004444  -0.003124   0.001649  -0.005473   0.000008
    26  O   -0.014201  -0.002823  -0.001070  -0.007427   0.014089   0.000013
    27  P    0.072840  -0.024846  -0.076408   0.067449  -0.030914   0.001986
    28  O   -0.084930  -0.076286   0.157374  -0.070887   0.003310  -0.017654
    29  O    0.023024  -0.012545  -0.010377   0.002937  -0.003150   0.000085
    30  H   -0.000462  -0.001382   0.002473   0.000042   0.000169  -0.000002
    31  O   -0.020627   0.003285   0.062894  -0.014759   0.004864  -0.000027
    32  H    0.014852  -0.004238  -0.006277   0.003666  -0.007868   0.000001
    33  O   -0.057497  -0.122728   0.169403  -0.058428   0.033383  -0.001033
    34  H    0.071996   0.031983  -0.060589   0.017485  -0.020546   0.000150
               7          8          9         10         11         12
     1  C    0.358900  -0.010308  -0.000578  -0.522777  -0.043487   0.199221
     2  C    0.040822   0.008383   0.006275   0.099918  -0.169805  -0.162956
     3  C   -0.001857  -0.007591  -0.003419  -0.240327   0.093745  -0.078039
     4  C   -0.006066   0.340611  -0.007883   0.007224   0.021101  -0.004565
     5  C    0.006420   0.003890   0.391424   0.028908   0.011847   0.000662
     6  H   -0.000099  -0.003523  -0.000199  -0.025293   0.003045   0.000027
     7  H    0.454052   0.000041  -0.000134   0.005879   0.000093   0.000567
     8  H    0.000041   0.505698  -0.003712   0.001494  -0.000011   0.000011
     9  H   -0.000134  -0.003712   0.485227   0.001394  -0.000003   0.000000
    10  C    0.005879   0.001494   0.001394   6.393024   0.448016   0.408732
    11  H    0.000093  -0.000011  -0.000003   0.448016   0.476800  -0.020190
    12  H    0.000567   0.000011   0.000000   0.408732  -0.020190   0.480452
    13  H    0.000886   0.000015  -0.000000   0.379870  -0.022924  -0.027972
    14  N   -0.052455   0.009218  -0.055548  -0.087337   0.000967   0.000423
    15  C   -0.001584   0.002001   0.024045  -0.082300   0.001631   0.003628
    16  H    0.000100  -0.000005  -0.000091  -0.000750  -0.000001   0.000000
    17  H    0.005264   0.000013   0.000072   0.003567  -0.000001  -0.000000
    18  C    0.006093   0.000009  -0.005210   0.002445  -0.000178  -0.000462
    19  H    0.000215   0.000032  -0.000304   0.000625  -0.000000   0.000001
    20  H   -0.000057  -0.000003  -0.000347  -0.000093   0.000000   0.000000
    21  C   -0.006647   0.000124  -0.001375   0.050492   0.000100   0.000105
    22  H    0.000009   0.000000   0.000019  -0.000086  -0.000000  -0.000000
    23  H   -0.000101  -0.000000  -0.000018  -0.000024  -0.000000  -0.000001
    24  C    0.007864  -0.000107   0.002344  -0.068620  -0.000229  -0.000201
    25  O    0.000148   0.000002   0.000014   0.001850   0.000006   0.000124
    26  O   -0.030893  -0.000050   0.000080   0.013561   0.000283   0.000400
    27  P   -0.000261  -0.000285   0.000336  -0.027404   0.000625  -0.001474
    28  O    0.000295  -0.000001  -0.000101   0.051859   0.002671  -0.000209
    29  O   -0.000070  -0.000014   0.000001  -0.007201   0.000085  -0.000109
    30  H    0.000004   0.000000   0.000000  -0.001763  -0.000006   0.000004
    31  O    0.000336   0.000114   0.000066  -0.001467  -0.000066  -0.000028
    32  H   -0.000073  -0.000002  -0.000025   0.001488  -0.000011   0.000021
    33  O   -0.002238   0.000072   0.000028  -0.036922  -0.000990  -0.008304
    34  H    0.002261  -0.000016  -0.000004  -0.005514  -0.000897   0.002720
              13         14         15         16         17         18
     1  C   -0.097029  -0.248796  -0.106403   0.013406   0.004529   0.050476
     2  C    0.052605   0.149142  -0.396919  -0.006188   0.025701   0.054409
     3  C    0.024833  -0.259983  -0.138003   0.007349  -0.005073  -0.012508
     4  C   -0.001627  -0.037863  -0.004236   0.001952  -0.001099   0.029930
     5  C   -0.000208   0.336171  -0.034498  -0.001347  -0.019470  -0.011911
     6  H    0.000312   0.001675   0.000479  -0.000004  -0.000002  -0.000051
     7  H    0.000886  -0.052455  -0.001584   0.000100   0.005264   0.006093
     8  H    0.000015   0.009218   0.002001  -0.000005   0.000013   0.000009
     9  H   -0.000000  -0.055548   0.024045  -0.000091   0.000072  -0.005210
    10  C    0.379870  -0.087337  -0.082300  -0.000750   0.003567   0.002445
    11  H   -0.022924   0.000967   0.001631  -0.000001  -0.000001  -0.000178
    12  H   -0.027972   0.000423   0.003628   0.000000  -0.000000  -0.000462
    13  H    0.500144   0.000913  -0.000816  -0.000004  -0.000003   0.000023
    14  N    0.000913   6.548690   0.195003  -0.047327  -0.065978  -0.058739
    15  C   -0.000816   0.195003   6.442475   0.414551   0.480054  -0.180390
    16  H   -0.000004  -0.047327   0.414551   0.504687  -0.025352  -0.051677
    17  H   -0.000003  -0.065978   0.480054  -0.025352   0.462038  -0.038712
    18  C    0.000023  -0.058739  -0.180390  -0.051677  -0.038712   5.771444
    19  H   -0.000000   0.009955  -0.046775   0.000302   0.002646   0.469075
    20  H   -0.000000  -0.001039  -0.008470  -0.009958   0.002201   0.404884
    21  C   -0.000251   0.117723  -0.443487   0.018687  -0.029301  -0.177119
    22  H    0.000000  -0.002387   0.023110  -0.000135   0.000247  -0.045056
    23  H    0.000000   0.003493  -0.012795  -0.000406   0.000527  -0.009197
    24  C    0.000365  -0.045604   0.246922  -0.002750   0.010961   0.033376
    25  O    0.000001  -0.001431   0.007002  -0.000058  -0.000428  -0.013706
    26  O   -0.000012  -0.043260  -0.058393   0.002371  -0.005256  -0.000613
    27  P    0.001832   0.007337   0.023086  -0.000140   0.000118  -0.006774
    28  O    0.000168   0.006377  -0.003914   0.000020  -0.000008   0.002137
    29  O   -0.000003   0.000569   0.000276  -0.000000  -0.000000  -0.000195
    30  H    0.000001  -0.000132   0.000132  -0.000000   0.000000   0.000009
    31  O    0.000005  -0.010518  -0.000511  -0.000024  -0.000004   0.006928
    32  H   -0.000001  -0.000027   0.001904   0.000004   0.000015   0.000856
    33  O    0.000606  -0.000068   0.009133  -0.000007  -0.000038  -0.010153
    34  H   -0.000091   0.010144  -0.001574   0.000012   0.000227   0.011760
              19         20         21         22         23         24
     1  C   -0.023213  -0.001637  -0.026620   0.000227  -0.004354  -0.149040
     2  C    0.009071   0.001197   0.087720   0.000012  -0.001546   0.047981
     3  C   -0.010158   0.000704  -0.056378   0.000821  -0.001081   0.013740
     4  C   -0.019888  -0.001550  -0.079932  -0.000369   0.000619   0.097595
     5  C    0.018240   0.000988   0.084352   0.002036  -0.003780  -0.077249
     6  H    0.000005   0.000000   0.000142  -0.000000   0.000000  -0.000229
     7  H    0.000215  -0.000057  -0.006647   0.000009  -0.000101   0.007864
     8  H    0.000032  -0.000003   0.000124   0.000000  -0.000000  -0.000107
     9  H   -0.000304  -0.000347  -0.001375   0.000019  -0.000018   0.002344
    10  C    0.000625  -0.000093   0.050492  -0.000086  -0.000024  -0.068620
    11  H   -0.000000   0.000000   0.000100  -0.000000  -0.000000  -0.000229
    12  H    0.000001   0.000000   0.000105  -0.000000  -0.000001  -0.000201
    13  H   -0.000000  -0.000000  -0.000251   0.000000   0.000000   0.000365
    14  N    0.009955  -0.001039   0.117723  -0.002387   0.003493  -0.045604
    15  C   -0.046775  -0.008470  -0.443487   0.023110  -0.012795   0.246922
    16  H    0.000302  -0.009958   0.018687  -0.000135  -0.000406  -0.002750
    17  H    0.002646   0.002201  -0.029301   0.000247   0.000527   0.010961
    18  C    0.469075   0.404884  -0.177119  -0.045056  -0.009197   0.033376
    19  H    0.485129  -0.031522   0.003463  -0.003711   0.004380  -0.052009
    20  H   -0.031522   0.525672  -0.065508  -0.004144  -0.004743   0.032006
    21  C    0.003463  -0.065508   6.856269   0.410296   0.469213  -0.818817
    22  H   -0.003711  -0.004144   0.410296   0.490086  -0.029489  -0.022801
    23  H    0.004380  -0.004743   0.469213  -0.029489   0.502602  -0.090887
    24  C   -0.052009   0.032006  -0.818817  -0.022801  -0.090887   5.865148
    25  O    0.001738  -0.001272   0.012602  -0.011144   0.003125   0.340498
    26  O    0.005342  -0.000991  -0.002819   0.005851  -0.000883   0.129779
    27  P    0.000385   0.000133   0.001580   0.000047  -0.000166  -0.036197
    28  O   -0.000125  -0.000002   0.006043   0.000002  -0.000006  -0.008103
    29  O    0.000015  -0.000000  -0.000669  -0.000005   0.000002   0.000145
    30  H   -0.000000   0.000000  -0.001481   0.000001   0.000000  -0.000017
    31  O   -0.000220  -0.000026  -0.047031   0.000259   0.000063   0.071051
    32  H   -0.000376   0.000025  -0.002339  -0.000074  -0.000165   0.002571
    33  O    0.000253  -0.000007   0.017163   0.000025   0.000092  -0.033210
    34  H   -0.000351   0.000008  -0.008509   0.000049  -0.000483   0.024905
              25         26         27         28         29         30
     1  C   -0.005750  -0.014201   0.072840  -0.084930   0.023024  -0.000462
     2  C   -0.004444  -0.002823  -0.024846  -0.076286  -0.012545  -0.001382
     3  C   -0.003124  -0.001070  -0.076408   0.157374  -0.010377   0.002473
     4  C    0.001649  -0.007427   0.067449  -0.070887   0.002937   0.000042
     5  C   -0.005473   0.014089  -0.030914   0.003310  -0.003150   0.000169
     6  H    0.000008   0.000013   0.001986  -0.017654   0.000085  -0.000002
     7  H    0.000148  -0.030893  -0.000261   0.000295  -0.000070   0.000004
     8  H    0.000002  -0.000050  -0.000285  -0.000001  -0.000014   0.000000
     9  H    0.000014   0.000080   0.000336  -0.000101   0.000001   0.000000
    10  C    0.001850   0.013561  -0.027404   0.051859  -0.007201  -0.001763
    11  H    0.000006   0.000283   0.000625   0.002671   0.000085  -0.000006
    12  H    0.000124   0.000400  -0.001474  -0.000209  -0.000109   0.000004
    13  H    0.000001  -0.000012   0.001832   0.000168  -0.000003   0.000001
    14  N   -0.001431  -0.043260   0.007337   0.006377   0.000569  -0.000132
    15  C    0.007002  -0.058393   0.023086  -0.003914   0.000276   0.000132
    16  H   -0.000058   0.002371  -0.000140   0.000020  -0.000000  -0.000000
    17  H   -0.000428  -0.005256   0.000118  -0.000008  -0.000000   0.000000
    18  C   -0.013706  -0.000613  -0.006774   0.002137  -0.000195   0.000009
    19  H    0.001738   0.005342   0.000385  -0.000125   0.000015  -0.000000
    20  H   -0.001272  -0.000991   0.000133  -0.000002  -0.000000   0.000000
    21  C    0.012602  -0.002819   0.001580   0.006043  -0.000669  -0.001481
    22  H   -0.011144   0.005851   0.000047   0.000002  -0.000005   0.000001
    23  H    0.003125  -0.000883  -0.000166  -0.000006   0.000002   0.000000
    24  C    0.340498   0.129779  -0.036197  -0.008103   0.000145  -0.000017
    25  O    8.211833  -0.044465   0.011130   0.001274  -0.004883  -0.000616
    26  O   -0.044465   8.680536   0.011146  -0.012724   0.002420   0.000912
    27  P    0.011130   0.011146  12.436035   0.494197   0.239949   0.028518
    28  O    0.001274  -0.012724   0.494197   8.333104  -0.040349  -0.001852
    29  O   -0.004883   0.002420   0.239949  -0.040349   8.000539   0.244992
    30  H   -0.000616   0.000912   0.028518  -0.001852   0.244992   0.430662
    31  O   -0.054827   0.021478   0.281161  -0.046903  -0.011428  -0.007458
    32  H    0.068984  -0.007121   0.028440   0.008488  -0.001214   0.000168
    33  O   -0.010275   0.031255   0.283310  -0.052759   0.014474  -0.007067
    34  H    0.026632   0.013233   0.003074   0.012382   0.000105  -0.003759
              31         32         33         34
     1  C   -0.020627   0.014852  -0.057497   0.071996
     2  C    0.003285  -0.004238  -0.122728   0.031983
     3  C    0.062894  -0.006277   0.169403  -0.060589
     4  C   -0.014759   0.003666  -0.058428   0.017485
     5  C    0.004864  -0.007868   0.033383  -0.020546
     6  H   -0.000027   0.000001  -0.001033   0.000150
     7  H    0.000336  -0.000073  -0.002238   0.002261
     8  H    0.000114  -0.000002   0.000072  -0.000016
     9  H    0.000066  -0.000025   0.000028  -0.000004
    10  C   -0.001467   0.001488  -0.036922  -0.005514
    11  H   -0.000066  -0.000011  -0.000990  -0.000897
    12  H   -0.000028   0.000021  -0.008304   0.002720
    13  H    0.000005  -0.000001   0.000606  -0.000091
    14  N   -0.010518  -0.000027  -0.000068   0.010144
    15  C   -0.000511   0.001904   0.009133  -0.001574
    16  H   -0.000024   0.000004  -0.000007   0.000012
    17  H   -0.000004   0.000015  -0.000038   0.000227
    18  C    0.006928   0.000856  -0.010153   0.011760
    19  H   -0.000220  -0.000376   0.000253  -0.000351
    20  H   -0.000026   0.000025  -0.000007   0.000008
    21  C   -0.047031  -0.002339   0.017163  -0.008509
    22  H    0.000259  -0.000074   0.000025   0.000049
    23  H    0.000063  -0.000165   0.000092  -0.000483
    24  C    0.071051   0.002571  -0.033210   0.024905
    25  O   -0.054827   0.068984  -0.010275   0.026632
    26  O    0.021478  -0.007121   0.031255   0.013233
    27  P    0.281161   0.028440   0.283310   0.003074
    28  O   -0.046903   0.008488  -0.052759   0.012382
    29  O   -0.011428  -0.001214   0.014474   0.000105
    30  H   -0.007458   0.000168  -0.007067  -0.003759
    31  O    8.040167   0.250586   0.033302  -0.030299
    32  H    0.250586   0.304999  -0.028239   0.017007
    33  O    0.033302  -0.028239   8.355511   0.118484
    34  H   -0.030299   0.017007   0.118484   0.346050
 Mulliken charges:
               1
     1  C   -0.666365
     2  C    0.784820
     3  C   -0.469036
     4  C   -0.135253
     5  C   -0.072015
     6  H    0.177465
     7  H    0.212286
     8  H    0.153899
     9  H    0.167627
    10  C   -0.792469
    11  H    0.197782
    12  H    0.207410
    13  H    0.188361
    14  N    0.620693
    15  C   -0.354366
    16  H    0.182784
    17  H    0.192547
    18  C   -0.221204
    19  H    0.177780
    20  H    0.163550
    21  C   -0.367791
    22  H    0.186308
    23  H    0.176010
    24  C    0.478817
    25  O   -0.526724
    26  O   -0.699752
    27  P    1.210151
    28  O   -0.662887
    29  O   -0.437409
    30  H    0.317910
    31  O   -0.530338
    32  H    0.353975
    33  O   -0.636531
    34  H    0.421966
 Sum of Mulliken charges =  -0.00000
 Mulliken charges with hydrogens summed into heavy atoms:
               1
     1  C   -0.454080
     2  C    0.784820
     3  C   -0.291572
     4  C    0.018646
     5  C    0.095612
    10  C   -0.198915
    14  N    0.620693
    15  C    0.020964
    18  C    0.120126
    21  C   -0.005472
    24  C    0.478817
    25  O   -0.526724
    26  O   -0.699752
    27  P    1.210151
    28  O   -0.662887
    29  O   -0.119499
    31  O   -0.176363
    33  O   -0.214565
         Mulliken charges condensed to fragments:
      1     -0.036837
      2      0.036837
 Electronic spatial extent (au):  <R**2>=         202810.6698
 Charge=              0.0000 electrons
 Dipole moment (field-independent basis, Debye):
    X=              9.7598    Y=              1.4796    Z=              0.2412  Tot=              9.8743
 Quadrupole moment (field-independent basis, Debye-Ang):
   XX=            192.7766   YY=            -86.5845   ZZ=           -108.4392
   XY=             99.7511   XZ=             96.6035   YZ=             10.3648
 Traceless Quadrupole moment (field-independent basis, Debye-Ang):
   XX=            193.5256   YY=            -85.8355   ZZ=           -107.6901
   XY=             99.7511   XZ=             96.6035   YZ=             10.3648
 Octapole moment (field-independent basis, Debye-Ang**2):
  XXX=           1930.0550  YYY=          -1929.5317  ZZZ=          -3231.3940  XYY=           -751.1391
  XXY=           1966.0029  XXZ=           1832.2970  XZZ=           -761.0725  YZZ=           -694.4797
  YYZ=           -902.6625  XYZ=            897.4777
 Hexadecapole moment (field-independent basis, Debye-Ang**3):
 XXXX=         -15223.3156 YYYY=         -27462.2100 ZZZZ=         -65595.4583 XXXY=          24976.0223
 XXXZ=          16715.9540 YYYX=         -25562.3411 YYYZ=         -19463.9908 ZZZX=         -40415.5175
 ZZZY=         -21965.1982 XXYY=          -8391.4531 XXZZ=          -9485.9576 YYZZ=         -14960.0751
 XXYZ=          17513.2884 YYXZ=          -8217.3944 ZZXY=          -3518.4025
 N-N= 1.676374142106D+03 E-N=-6.265801989770D+03  KE= 1.233928054373D+03
 No NMR shielding tensors so no spin-rotation constants.
 Leave Link  601 at Mon Feb 20 10:27:35 2023, MaxMem=  6710886400 cpu:               3.7 elap:               0.2
 (Enter /data0/home/software/g16/l122.exe)
 CPIOFr:  IOpCl= 0 IRwI=-1 IRwCP=  731 ICalc= -1 LCPTot=      533842 Len1MO=     1404424 IndFrg=      533842
 CPIOFr:  IOpCl= 0 IRwI=-1 IRwCP=  731 ICalc=  0 LCPTot=      533842 Len1MO=     1404424 IndFrg=     1938266
 Counterpoise: doing calculation for fragment   1 using the basis set of the full-system, NewBq=T
 Leave Link  122 at Mon Feb 20 10:27:35 2023, MaxMem=  6710886400 cpu:               0.5 elap:               0.0
 (Enter /data0/home/software/g16/l301.exe)
 Basis read from rwf:  (5D, 7F)
 No pseudopotential information found on rwf file.
   590 basis functions,   898 primitive gaussians,   626 cartesian basis functions
    48 alpha electrons       48 beta electrons
       nuclear repulsion energy       800.7483749331 Hartrees.
 IExCor= 4336 DFT=T Ex+Corr=M062X ExCW=0 ScaHFX=  0.540000
 ScaDFX=  1.000000  1.000000  1.000000  1.000000 ScalE2=  1.000000  1.000000
 IRadAn=      5 IRanWt=     -1 IRanGd=            0 ICorTp=0 IEmpDi=131
 NAtoms=   34 NActive=   34 NUniq=   34 SFac= 1.00D+00 NAtFMM=   60 NAOKFM=F Big=F
 Integral buffers will be    131072 words long.
 Raffenetti 2 integral format.
 Two-electron integral symmetry is turned off.
 R6Disp:  Grimme-D3 Dispersion energy=       -0.0012078991 Hartrees.
 Nuclear repulsion after empirical dispersion term =      800.7471670340 Hartrees.
 No density basis found on file   718.
 Leave Link  301 at Mon Feb 20 10:27:35 2023, MaxMem=  6710886400 cpu:               1.3 elap:               0.1
 (Enter /data0/home/software/g16/l302.exe)
 NPDir=0 NMtPBC=     1 NCelOv=     1 NCel=       1 NClECP=     1 NCelD=      1
         NCelK=      1 NCelE2=     1 NClLst=     1 CellRange=     0.0.
 One-electron integrals computed using PRISM.
 NBasis=   590 RedAO= T EigKep=  2.35D-06  NBF=   590
 NBsUse=   590 1.00D-06 EigRej= -1.00D+00 NBFU=   590
 Precomputing XC quadrature grid using
 IXCGrd= 4 IRadAn=           5 IRanWt=          -1 IRanGd=           0 AccXCQ= 0.00D+00.
 Generated NRdTot=       0 NPtTot=           0 NUsed=           0 NTot=          32
 NSgBfM=   626   626   626   626   626 MxSgAt=    34 MxSgA2=    34.
 Leave Link  302 at Mon Feb 20 10:27:36 2023, MaxMem=  6710886400 cpu:              15.7 elap:               0.7
 (Enter /data0/home/software/g16/l303.exe)
 DipDrv:  MaxL=1.
 Leave Link  303 at Mon Feb 20 10:27:36 2023, MaxMem=  6710886400 cpu:               1.5 elap:               0.1
 (Enter /data0/home/software/g16/l401.exe)
 ExpMin= 3.48D-02 ExpMax= 7.75D+04 ExpMxC= 2.65D+03 IAcc=3 IRadAn=         5 AccDes= 0.00D+00
 Harris functional with IExCor= 1009 and IRadAn=       5 diagonalized for initial guess.
 HarFok:  IExCor= 1009 AccDes= 0.00D+00 IRadAn=         5 IDoV= 1 UseB2=F ITyADJ=14
 ICtDFT=  3500011 ScaDFX=  1.000000  1.000000  1.000000  1.000000
 FoFCou: FMM=F IPFlag=           0 FMFlag=      100000 FMFlg1=           0
         NFxFlg=           0 DoJE=T BraDBF=F KetDBF=T FulRan=T
         wScrn=  0.000000 ICntrl=       500 IOpCl=  0 I1Cent=   200000004 NGrid=           0
         NMat0=    1 NMatS0=      1 NMatT0=    0 NMatD0=    1 NMtDS0=    0 NMtDT0=    0
 Symmetry not used in FoFCou.
 Harris En= -593.767516609834    
 JPrj=0 DoOrth=F DoCkMO=F.
 Leave Link  401 at Mon Feb 20 10:27:39 2023, MaxMem=  6710886400 cpu:              64.4 elap:               2.7
 (Enter /data0/home/software/g16/l502.exe)
 Two-electron integral symmetry not used.
 Closed shell SCF:
 Using DIIS extrapolation, IDIIS=  1040.
 NGot=  6710886400 LenX=  6710083268 LenY=  6709690766
 Requested convergence on RMS density matrix=1.00D-08 within 128 cycles.
 Requested convergence on MAX density matrix=1.00D-06.
 Requested convergence on             energy=1.00D-06.
 No special actions if energy rises.
 Fock matrices will be formed incrementally for  20 cycles.

 Cycle   1  Pass 1  IDiag  1:
 FoFJK:  IHMeth= 1 ICntrl=       0 DoSepK=F KAlg= 0 I1Cent=           0 FoldK=F
 IRaf= 870000000 NMat=       1 IRICut=       1 DoRegI=T DoRafI=F ISym2E= 0 IDoP0=0 IntGTp=1.
 FoFCou: FMM=F IPFlag=           0 FMFlag=      100000 FMFlg1=           0
         NFxFlg=           0 DoJE=F BraDBF=F KetDBF=F FulRan=T
         wScrn=  0.000000 ICntrl=         0 IOpCl=  0 I1Cent=           0 NGrid=           0
         NMat0=    1 NMatS0=      1 NMatT0=    0 NMatD0=    1 NMtDS0=    0 NMtDT0=    0
 Symmetry not used in FoFCou.
 E= -593.573631680689    
 DIIS: error= 1.81D-02 at cycle   1 NSaved=   1.
 NSaved= 1 IEnMin= 1 EnMin= -593.573631680689     IErMin= 1 ErrMin= 1.81D-02
 ErrMax= 1.81D-02  0.00D+00 EMaxC= 1.00D-01 BMatC= 5.29D-01 BMatP= 5.29D-01
 IDIUse=3 WtCom= 8.19D-01 WtEn= 1.81D-01
 Coeff-Com:  0.100D+01
 Coeff-En:   0.100D+01
 Coeff:      0.100D+01
 Gap=     0.235 Goal=   None    Shift=    0.000
 GapD=    0.235 DampG=1.000 DampE=0.500 DampFc=0.5000 IDamp=-1.
 Damping current iteration by 5.00D-01
 RMSDP=5.51D-02 MaxDP=7.79D+00              OVMax= 9.68D-01

 Cycle   2  Pass 1  IDiag  1:
 RMSU=  2.60D-02    CP:  1.81D+00
 E= -593.391958552262     Delta-E=        0.181673128427 Rises=F Damp=T
 DIIS: error= 1.24D-02 at cycle   2 NSaved=   2.
 NSaved= 2 IEnMin= 1 EnMin= -593.573631680689     IErMin= 2 ErrMin= 1.24D-02
 ErrMax= 1.24D-02  0.00D+00 EMaxC= 1.00D-01 BMatC= 1.68D-01 BMatP= 5.29D-01
 IDIUse=3 WtCom= 8.76D-01 WtEn= 1.24D-01
 Coeff-Com:  0.267D+00 0.733D+00
 Coeff-En:   0.657D+00 0.343D+00
 Coeff:      0.315D+00 0.685D+00
 Gap=    -0.326 Goal=   None    Shift=    0.000
 RMSDP=2.80D-02 MaxDP=4.10D+00 DE= 1.82D-01 OVMax= 5.47D-01

 Cycle   3  Pass 1  IDiag  1:
 RMSU=  3.25D-03    CP:  8.71D-01  1.31D-02
 E= -593.767340454796     Delta-E=       -0.375381902534 Rises=F Damp=F
 DIIS: error= 1.36D-02 at cycle   3 NSaved=   3.
 NSaved= 3 IEnMin= 3 EnMin= -593.767340454796     IErMin= 2 ErrMin= 1.24D-02
 ErrMax= 1.36D-02  0.00D+00 EMaxC= 1.00D-01 BMatC= 2.29D-01 BMatP= 1.68D-01
 IDIUse=2 WtCom= 0.00D+00 WtEn= 1.00D+00
 Coeff-En:   0.000D+00 0.199D+00 0.801D+00
 Coeff:      0.000D+00 0.199D+00 0.801D+00
 Gap=     0.298 Goal=   None    Shift=    0.000
 RMSDP=6.84D-03 MaxDP=1.11D+00 DE=-3.75D-01 OVMax= 9.97D-01

 Cycle   4  Pass 1  IDiag  1:
 RMSU=  4.99D-03    CP:  1.11D+00  1.55D-01  7.08D-01
 E= -592.251736784682     Delta-E=        1.515603670114 Rises=F Damp=F
 DIIS: error= 3.42D-02 at cycle   4 NSaved=   4.
 NSaved= 4 IEnMin= 3 EnMin= -593.767340454796     IErMin= 2 ErrMin= 1.24D-02
 ErrMax= 3.42D-02  0.00D+00 EMaxC= 1.00D-01 BMatC= 1.08D+00 BMatP= 1.68D-01
 IDIUse=2 WtCom= 0.00D+00 WtEn= 1.00D+00
 Coeff-En:   0.000D+00 0.000D+00 0.832D+00 0.168D+00
 Coeff:      0.000D+00 0.000D+00 0.832D+00 0.168D+00
 Gap=    -0.063 Goal=   None    Shift=    0.000
 RMSDP=5.79D-03 MaxDP=7.81D-01 DE= 1.52D+00 OVMax= 9.96D-01

 Cycle   5  Pass 1  IDiag  1:
 RMSU=  2.13D-03    CP:  9.41D-01  3.37D-02  8.65D-01  2.22D-01
 E= -593.947110402087     Delta-E=       -1.695373617405 Rises=F Damp=F
 DIIS: error= 5.49D-03 at cycle   5 NSaved=   5.
 NSaved= 5 IEnMin= 5 EnMin= -593.947110402087     IErMin= 5 ErrMin= 5.49D-03
 ErrMax= 5.49D-03  0.00D+00 EMaxC= 1.00D-01 BMatC= 4.15D-02 BMatP= 1.68D-01
 IDIUse=3 WtCom= 9.45D-01 WtEn= 5.49D-02
 Coeff-Com: -0.157D-01 0.143D+00 0.319D+00 0.927D-02 0.544D+00
 Coeff-En:   0.000D+00 0.000D+00 0.417D-01 0.000D+00 0.958D+00
 Coeff:     -0.148D-01 0.135D+00 0.304D+00 0.876D-02 0.567D+00
 Gap=     0.169 Goal=   None    Shift=    0.000
 RMSDP=9.11D-04 MaxDP=1.20D-01 DE=-1.70D+00 OVMax= 6.08D-02

 Cycle   6  Pass 1  IDiag  1:
 RMSU=  8.05D-04    CP:  9.54D-01  4.51D-02  9.29D-01  2.13D-01  9.23D-01
 E= -593.969933114154     Delta-E=       -0.022822712067 Rises=F Damp=F
 DIIS: error= 2.75D-03 at cycle   6 NSaved=   6.
 NSaved= 6 IEnMin= 6 EnMin= -593.969933114154     IErMin= 6 ErrMin= 2.75D-03
 ErrMax= 2.75D-03  0.00D+00 EMaxC= 1.00D-01 BMatC= 8.38D-03 BMatP= 4.15D-02
 IDIUse=3 WtCom= 9.73D-01 WtEn= 2.75D-02
 Coeff-Com: -0.340D-01 0.771D-01 0.670D-01-0.300D-02 0.291D+00 0.602D+00
 Coeff-En:   0.000D+00 0.000D+00 0.000D+00 0.000D+00 0.164D+00 0.836D+00
 Coeff:     -0.331D-01 0.750D-01 0.652D-01-0.292D-02 0.287D+00 0.608D+00
 Gap=     0.167 Goal=   None    Shift=    0.000
 RMSDP=5.33D-04 MaxDP=1.15D-01 DE=-2.28D-02 OVMax= 2.65D-02

 Cycle   7  Pass 1  IDiag  1:
 RMSU=  2.82D-04    CP:  9.81D-01  5.23D-02  9.42D-01  2.42D-01  1.03D+00
                    CP:  1.06D+00
 E= -593.976691621478     Delta-E=       -0.006758507324 Rises=F Damp=F
 DIIS: error= 7.61D-04 at cycle   7 NSaved=   7.
 NSaved= 7 IEnMin= 7 EnMin= -593.976691621478     IErMin= 7 ErrMin= 7.61D-04
 ErrMax= 7.61D-04  0.00D+00 EMaxC= 1.00D-01 BMatC= 6.02D-04 BMatP= 8.38D-03
 IDIUse=3 WtCom= 9.92D-01 WtEn= 7.61D-03
 Coeff-Com: -0.162D-01 0.274D-01-0.399D-01-0.657D-03 0.779D-03 0.219D+00
 Coeff-Com:  0.810D+00
 Coeff-En:   0.000D+00 0.000D+00 0.000D+00 0.000D+00 0.000D+00 0.000D+00
 Coeff-En:   0.100D+01
 Coeff:     -0.161D-01 0.272D-01-0.396D-01-0.652D-03 0.773D-03 0.217D+00
 Coeff:      0.811D+00
 Gap=     0.169 Goal=   None    Shift=    0.000
 RMSDP=3.40D-04 MaxDP=8.72D-02 DE=-6.76D-03 OVMax= 7.78D-03

 Cycle   8  Pass 1  IDiag  1:
 RMSU=  1.10D-04    CP:  9.97D-01  5.82D-02  9.42D-01  2.59D-01  1.09D+00
                    CP:  1.24D+00  1.25D+00
 E= -593.977314785190     Delta-E=       -0.000623163712 Rises=F Damp=F
 DIIS: error= 3.07D-04 at cycle   8 NSaved=   8.
 NSaved= 8 IEnMin= 8 EnMin= -593.977314785190     IErMin= 8 ErrMin= 3.07D-04
 ErrMax= 3.07D-04  0.00D+00 EMaxC= 1.00D-01 BMatC= 1.22D-04 BMatP= 6.02D-04
 IDIUse=3 WtCom= 9.97D-01 WtEn= 3.07D-03
 Coeff-Com: -0.645D-02 0.122D-01-0.293D-01 0.103D-02-0.295D-01 0.474D-01
 Coeff-Com:  0.385D+00 0.619D+00
 Coeff-En:   0.000D+00 0.000D+00 0.000D+00 0.000D+00 0.000D+00 0.000D+00
 Coeff-En:   0.000D+00 0.100D+01
 Coeff:     -0.643D-02 0.122D-01-0.293D-01 0.103D-02-0.294D-01 0.472D-01
 Coeff:      0.384D+00 0.620D+00
 Gap=     0.169 Goal=   None    Shift=    0.000
 RMSDP=9.62D-05 MaxDP=2.57D-02 DE=-6.23D-04 OVMax= 2.77D-03

 Cycle   9  Pass 1  IDiag  1:
 RMSU=  3.23D-05    CP:  1.00D+00  5.96D-02  9.43D-01  2.64D-01  1.10D+00
                    CP:  1.28D+00  1.32D+00  1.17D+00
 E= -593.977425834904     Delta-E=       -0.000111049714 Rises=F Damp=F
 DIIS: error= 2.12D-04 at cycle   9 NSaved=   9.
 NSaved= 9 IEnMin= 9 EnMin= -593.977425834904     IErMin= 9 ErrMin= 2.12D-04
 ErrMax= 2.12D-04  0.00D+00 EMaxC= 1.00D-01 BMatC= 3.50D-05 BMatP= 1.22D-04
 IDIUse=3 WtCom= 9.98D-01 WtEn= 2.12D-03
 Coeff-Com: -0.324D-03 0.143D-02-0.609D-02 0.880D-03-0.835D-02-0.309D-01
 Coeff-Com: -0.762D-01 0.234D+00 0.886D+00
 Coeff-En:   0.000D+00 0.000D+00 0.000D+00 0.000D+00 0.000D+00 0.000D+00
 Coeff-En:   0.000D+00 0.000D+00 0.100D+01
 Coeff:     -0.324D-03 0.143D-02-0.608D-02 0.878D-03-0.833D-02-0.309D-01
 Coeff:     -0.761D-01 0.233D+00 0.886D+00
 Gap=     0.169 Goal=   None    Shift=    0.000
 RMSDP=8.50D-05 MaxDP=2.32D-02 DE=-1.11D-04 OVMax= 3.39D-03

 Cycle  10  Pass 1  IDiag  1:
 RMSU=  1.17D-05    CP:  1.01D+00  6.11D-02  9.43D-01  2.69D-01  1.12D+00
                    CP:  1.31D+00  1.40D+00  1.40D+00  1.23D+00
 E= -593.977466661535     Delta-E=       -0.000040826631 Rises=F Damp=F
 DIIS: error= 3.13D-05 at cycle  10 NSaved=  10.
 NSaved=10 IEnMin=10 EnMin= -593.977466661535     IErMin=10 ErrMin= 3.13D-05
 ErrMax= 3.13D-05  0.00D+00 EMaxC= 1.00D-01 BMatC= 1.85D-06 BMatP= 3.50D-05
 IDIUse=1 WtCom= 1.00D+00 WtEn= 0.00D+00
 Coeff-Com:  0.313D-03-0.142D-04 0.568D-03 0.194D-03 0.703D-03-0.149D-01
 Coeff-Com: -0.706D-01 0.115D-02 0.282D+00 0.801D+00
 Coeff:      0.313D-03-0.142D-04 0.568D-03 0.194D-03 0.703D-03-0.149D-01
 Coeff:     -0.706D-01 0.115D-02 0.282D+00 0.801D+00
 Gap=     0.169 Goal=   None    Shift=    0.000
 RMSDP=2.34D-05 MaxDP=6.19D-03 DE=-4.08D-05 OVMax= 1.05D-03

 Cycle  11  Pass 1  IDiag  1:
 RMSU=  4.76D-06    CP:  1.01D+00  6.15D-02  9.43D-01  2.70D-01  1.12D+00
                    CP:  1.32D+00  1.41D+00  1.48D+00  1.34D+00  1.22D+00
 E= -593.977469289045     Delta-E=       -0.000002627510 Rises=F Damp=F
 DIIS: error= 6.79D-06 at cycle  11 NSaved=  11.
 NSaved=11 IEnMin=11 EnMin= -593.977469289045     IErMin=11 ErrMin= 6.79D-06
 ErrMax= 6.79D-06  0.00D+00 EMaxC= 1.00D-01 BMatC= 1.06D-07 BMatP= 1.85D-06
 IDIUse=1 WtCom= 1.00D+00 WtEn= 0.00D+00
 Coeff-Com:  0.103D-03-0.126D-03 0.960D-03 0.476D-04 0.119D-02-0.183D-02
 Coeff-Com: -0.186D-01-0.274D-01 0.155D-01 0.294D+00 0.736D+00
 Coeff:      0.103D-03-0.126D-03 0.960D-03 0.476D-04 0.119D-02-0.183D-02
 Coeff:     -0.186D-01-0.274D-01 0.155D-01 0.294D+00 0.736D+00
 Gap=     0.169 Goal=   None    Shift=    0.000
 RMSDP=3.37D-06 MaxDP=5.84D-04 DE=-2.63D-06 OVMax= 2.92D-04

 Cycle  12  Pass 1  IDiag  1:
 RMSU=  1.56D-06    CP:  1.01D+00  6.16D-02  9.43D-01  2.70D-01  1.12D+00
                    CP:  1.32D+00  1.41D+00  1.49D+00  1.37D+00  1.30D+00
                    CP:  1.21D+00
[...]
 NBsUse=   161 1.00D-06 EigRej= -1.00D+00 NBFU=   161
 Precomputing XC quadrature grid using
 IXCGrd= 4 IRadAn=           5 IRanWt=          -1 IRanGd=           0 AccXCQ= 0.00D+00.
 Generated NRdTot=       0 NPtTot=           0 NUsed=           0 NTot=          32
 NSgBfM=   171   171   171   171   171 MxSgAt=     8 MxSgA2=     8.
 Leave Link  302 at Mon Feb 20 10:34:32 2023, MaxMem=  6710886400 cpu:               2.9 elap:               0.1
 (Enter /data0/home/software/g16/l303.exe)
 DipDrv:  MaxL=1.
 Leave Link  303 at Mon Feb 20 10:34:32 2023, MaxMem=  6710886400 cpu:               0.5 elap:               0.0
 (Enter /data0/home/software/g16/l401.exe)
 ExpMin= 3.48D-02 ExpMax= 7.75D+04 ExpMxC= 2.65D+03 IAcc=3 IRadAn=         5 AccDes= 0.00D+00
 Harris functional with IExCor= 1009 and IRadAn=       5 diagonalized for initial guess.
 HarFok:  IExCor= 1009 AccDes= 0.00D+00 IRadAn=         5 IDoV= 1 UseB2=F ITyADJ=14
 ICtDFT=  3500011 ScaDFX=  1.000000  1.000000  1.000000  1.000000
 FoFCou: FMM=F IPFlag=           0 FMFlag=      100000 FMFlg1=           0
         NFxFlg=           0 DoJE=T BraDBF=F KetDBF=T FulRan=T
         wScrn=  0.000000 ICntrl=       500 IOpCl=  0 I1Cent=   200000004 NGrid=           0
         NMat0=    1 NMatS0=      1 NMatT0=    0 NMatD0=    1 NMtDS0=    0 NMtDT0=    0
 Symmetry not used in FoFCou.
 Harris En= -643.937853119838    
 JPrj=0 DoOrth=F DoCkMO=F.
 Leave Link  401 at Mon Feb 20 10:34:32 2023, MaxMem=  6710886400 cpu:               6.0 elap:               0.3
 (Enter /data0/home/software/g16/l502.exe)
 Keep R1 ints in memory in canonical form, NReq=108966562.
 FoFCou: FMM=F IPFlag=           0 FMFlag=           0 FMFlg1=           0
         NFxFlg=           0 DoJE=F BraDBF=F KetDBF=F FulRan=T
         wScrn=  0.000000 ICntrl=       600 IOpCl=  0 I1Cent=           0 NGrid=           0
         NMat0=    1 NMatS0=  13041 NMatT0=    0 NMatD0=    1 NMtDS0=    0 NMtDT0=    0
 Symmetry not used in FoFCou.
 Two-electron integral symmetry not used.
 Closed shell SCF:
 Using DIIS extrapolation, IDIIS=  1040.
 NGot=  6710886400 LenX=  6625781372 LenY=  6625751690
 Requested convergence on RMS density matrix=1.00D-08 within 128 cycles.
 Requested convergence on MAX density matrix=1.00D-06.
 Requested convergence on             energy=1.00D-06.
 No special actions if energy rises.

 Cycle   1  Pass 1  IDiag  1:
 E= -643.820976805712    
 DIIS: error= 5.64D-02 at cycle   1 NSaved=   1.
 NSaved= 1 IEnMin= 1 EnMin= -643.820976805712     IErMin= 1 ErrMin= 5.64D-02
 ErrMax= 5.64D-02  0.00D+00 EMaxC= 1.00D-01 BMatC= 5.23D-01 BMatP= 5.23D-01
 IDIUse=3 WtCom= 4.36D-01 WtEn= 5.64D-01
 Coeff-Com:  0.100D+01
 Coeff-En:   0.100D+01
 Coeff:      0.100D+01
 Gap=     0.218 Goal=   None    Shift=    0.000
 GapD=    0.218 DampG=1.000 DampE=0.500 DampFc=0.5000 IDamp=-1.
 Damping current iteration by 5.00D-01
 RMSDP=8.77D-03 MaxDP=2.01D-01              OVMax= 2.82D-01

 Cycle   2  Pass 1  IDiag  1:
 E= -643.936514998535     Delta-E=       -0.115538192822 Rises=F Damp=T
 DIIS: error= 8.98D-03 at cycle   2 NSaved=   2.
 NSaved= 2 IEnMin= 2 EnMin= -643.936514998535     IErMin= 2 ErrMin= 8.98D-03
 ErrMax= 8.98D-03  0.00D+00 EMaxC= 1.00D-01 BMatC= 3.08D-02 BMatP= 5.23D-01
 IDIUse=3 WtCom= 9.10D-01 WtEn= 8.98D-02
 Coeff-Com:  0.900D-01 0.910D+00
 Coeff-En:   0.238D+00 0.762D+00
 Coeff:      0.103D+00 0.897D+00
 Gap=     0.321 Goal=   None    Shift=    0.000
 RMSDP=2.17D-03 MaxDP=6.79D-02 DE=-1.16D-01 OVMax= 1.88D-01

 Cycle   3  Pass 1  IDiag  1:
 E= -644.118434911253     Delta-E=       -0.181919912718 Rises=F Damp=F
 DIIS: error= 7.68D-03 at cycle   3 NSaved=   3.
 NSaved= 3 IEnMin= 3 EnMin= -644.118434911253     IErMin= 3 ErrMin= 7.68D-03
 ErrMax= 7.68D-03  0.00D+00 EMaxC= 1.00D-01 BMatC= 1.35D-02 BMatP= 3.08D-02
 IDIUse=3 WtCom= 9.23D-01 WtEn= 7.68D-02
 Coeff-Com: -0.879D-02 0.366D+00 0.642D+00
 Coeff-En:   0.000D+00 0.000D+00 0.100D+01
 Coeff:     -0.811D-02 0.338D+00 0.670D+00
 Gap=     0.311 Goal=   None    Shift=    0.000
 RMSDP=7.45D-04 MaxDP=1.74D-02 DE=-1.82D-01 OVMax= 3.91D-02

 Cycle   4  Pass 1  IDiag  1:
 E= -644.125287868225     Delta-E=       -0.006852956973 Rises=F Damp=F
 DIIS: error= 4.07D-03 at cycle   4 NSaved=   4.
 NSaved= 4 IEnMin= 4 EnMin= -644.125287868225     IErMin= 4 ErrMin= 4.07D-03
 ErrMax= 4.07D-03  0.00D+00 EMaxC= 1.00D-01 BMatC= 4.09D-03 BMatP= 1.35D-02
 IDIUse=3 WtCom= 9.59D-01 WtEn= 4.07D-02
 Coeff-Com: -0.232D-01 0.490D-01 0.377D+00 0.598D+00
 Coeff-En:   0.000D+00 0.000D+00 0.223D+00 0.777D+00
 Coeff:     -0.222D-01 0.470D-01 0.370D+00 0.605D+00
 Gap=     0.317 Goal=   None    Shift=    0.000
 RMSDP=2.72D-04 MaxDP=6.69D-03 DE=-6.85D-03 OVMax= 1.10D-02

 Cycle   5  Pass 1  IDiag  1:
 E= -644.127962947757     Delta-E=       -0.002675079532 Rises=F Damp=F
 DIIS: error= 2.21D-04 at cycle   5 NSaved=   5.
 NSaved= 5 IEnMin= 5 EnMin= -644.127962947757     IErMin= 5 ErrMin= 2.21D-04
 ErrMax= 2.21D-04  0.00D+00 EMaxC= 1.00D-01 BMatC= 1.66D-05 BMatP= 4.09D-03
 IDIUse=3 WtCom= 9.98D-01 WtEn= 2.21D-03
 Coeff-Com: -0.245D-02-0.851D-03 0.429D-01 0.109D+00 0.852D+00
 Coeff-En:   0.000D+00 0.000D+00 0.000D+00 0.000D+00 0.100D+01
 Coeff:     -0.245D-02-0.849D-03 0.429D-01 0.109D+00 0.852D+00
 Gap=     0.316 Goal=   None    Shift=    0.000
 RMSDP=2.78D-05 MaxDP=6.10D-04 DE=-2.68D-03 OVMax= 7.29D-04

 Cycle   6  Pass 1  IDiag  1:
 E= -644.127973711222     Delta-E=       -0.000010763465 Rises=F Damp=F
 DIIS: error= 5.33D-05 at cycle   6 NSaved=   6.
 NSaved= 6 IEnMin= 6 EnMin= -644.127973711222     IErMin= 6 ErrMin= 5.33D-05
 ErrMax= 5.33D-05  0.00D+00 EMaxC= 1.00D-01 BMatC= 9.34D-07 BMatP= 1.66D-05
 IDIUse=1 WtCom= 1.00D+00 WtEn= 0.00D+00
 Coeff-Com:  0.298D-03-0.149D-02-0.534D-02-0.404D-02 0.142D+00 0.869D+00
 Coeff:      0.298D-03-0.149D-02-0.534D-02-0.404D-02 0.142D+00 0.869D+00
 Gap=     0.317 Goal=   None    Shift=    0.000
 RMSDP=1.06D-05 MaxDP=2.22D-04 DE=-1.08D-05 OVMax= 2.64D-04

 Cycle   7  Pass 1  IDiag  1:
 E= -644.127974269786     Delta-E=       -0.000000558564 Rises=F Damp=F
 DIIS: error= 3.98D-05 at cycle   7 NSaved=   7.
 NSaved= 7 IEnMin= 7 EnMin= -644.127974269786     IErMin= 7 ErrMin= 3.98D-05
 ErrMax= 3.98D-05  0.00D+00 EMaxC= 1.00D-01 BMatC= 4.77D-07 BMatP= 9.34D-07
 IDIUse=1 WtCom= 1.00D+00 WtEn= 0.00D+00
 Coeff-Com:  0.415D-03-0.630D-03-0.802D-02-0.149D-01-0.219D-01 0.450D+00
 Coeff-Com:  0.595D+00
 Coeff:      0.415D-03-0.630D-03-0.802D-02-0.149D-01-0.219D-01 0.450D+00
 Coeff:      0.595D+00
 Gap=     0.317 Goal=   None    Shift=    0.000
 RMSDP=3.41D-06 MaxDP=8.90D-05 DE=-5.59D-07 OVMax= 1.08D-04

 Cycle   8  Pass 1  IDiag  1:
 E= -644.127974590771     Delta-E=       -0.000000320986 Rises=F Damp=F
 DIIS: error= 8.32D-06 at cycle   8 NSaved=   8.
 NSaved= 8 IEnMin= 8 EnMin= -644.127974590771     IErMin= 8 ErrMin= 8.32D-06
 ErrMax= 8.32D-06  0.00D+00 EMaxC= 1.00D-01 BMatC= 1.85D-08 BMatP= 4.77D-07
 IDIUse=1 WtCom= 1.00D+00 WtEn= 0.00D+00
 Coeff-Com:  0.109D-03-0.135D-03-0.263D-02-0.468D-02-0.114D-01 0.110D+00
 Coeff-Com:  0.217D+00 0.692D+00
 Coeff:      0.109D-03-0.135D-03-0.263D-02-0.468D-02-0.114D-01 0.110D+00
 Coeff:      0.217D+00 0.692D+00
 Gap=     0.317 Goal=   None    Shift=    0.000
 RMSDP=7.79D-07 MaxDP=1.69D-05 DE=-3.21D-07 OVMax= 2.65D-05

 Cycle   9  Pass 1  IDiag  1:
 E= -644.127974605516     Delta-E=       -0.000000014745 Rises=F Damp=F
 DIIS: error= 2.17D-06 at cycle   9 NSaved=   9.
 NSaved= 9 IEnMin= 9 EnMin= -644.127974605516     IErMin= 9 ErrMin= 2.17D-06
 ErrMax= 2.17D-06  0.00D+00 EMaxC= 1.00D-01 BMatC= 1.43D-09 BMatP= 1.85D-08
 IDIUse=1 WtCom= 1.00D+00 WtEn= 0.00D+00
 Coeff-Com: -0.313D-04 0.596D-04 0.228D-03 0.572D-03-0.153D-02-0.271D-01
 Coeff-Com: -0.164D-01 0.185D+00 0.859D+00
 Coeff:     -0.313D-04 0.596D-04 0.228D-03 0.572D-03-0.153D-02-0.271D-01
 Coeff:     -0.164D-01 0.185D+00 0.859D+00
 Gap=     0.317 Goal=   None    Shift=    0.000
 RMSDP=3.75D-07 MaxDP=1.21D-05 DE=-1.47D-08 OVMax= 9.24D-06

 Cycle  10  Pass 1  IDiag  1:
 E= -644.127974607003     Delta-E=       -0.000000001487 Rises=F Damp=F
 DIIS: error= 2.74D-07 at cycle  10 NSaved=  10.
 NSaved=10 IEnMin=10 EnMin= -644.127974607003     IErMin=10 ErrMin= 2.74D-07
 ErrMax= 2.74D-07  0.00D+00 EMaxC= 1.00D-01 BMatC= 3.28D-11 BMatP= 1.43D-09
 IDIUse=1 WtCom= 1.00D+00 WtEn= 0.00D+00
 Coeff-Com: -0.457D-05 0.813D-05 0.113D-03 0.211D-03 0.525D-03-0.685D-02
 Coeff-Com: -0.108D-01-0.123D-01 0.502D-01 0.979D+00
 Coeff:     -0.457D-05 0.813D-05 0.113D-03 0.211D-03 0.525D-03-0.685D-02
 Coeff:     -0.108D-01-0.123D-01 0.502D-01 0.979D+00
 Gap=     0.317 Goal=   None    Shift=    0.000
 RMSDP=8.20D-08 MaxDP=1.12D-06 DE=-1.49D-09 OVMax= 2.66D-06

 Cycle  11  Pass 1  IDiag  1:
 E= -644.127974607050     Delta-E=       -0.000000000047 Rises=F Damp=F
 DIIS: error= 3.16D-07 at cycle  11 NSaved=  11.
 NSaved=11 IEnMin=11 EnMin= -644.127974607050     IErMin=10 ErrMin= 2.74D-07
 ErrMax= 3.16D-07  0.00D+00 EMaxC= 1.00D-01 BMatC= 1.95D-11 BMatP= 3.28D-11
 IDIUse=1 WtCom= 1.00D+00 WtEn= 0.00D+00
 Coeff-Com:  0.797D-06-0.182D-05 0.368D-04 0.530D-04 0.399D-03-0.118D-02
 Coeff-Com: -0.394D-02-0.221D-01-0.562D-01 0.502D+00 0.581D+00
 Coeff:      0.797D-06-0.182D-05 0.368D-04 0.530D-04 0.399D-03-0.118D-02
 Coeff:     -0.394D-02-0.221D-01-0.562D-01 0.502D+00 0.581D+00
 Gap=     0.317 Goal=   None    Shift=    0.000
 RMSDP=2.59D-08 MaxDP=6.48D-07 DE=-4.70D-11 OVMax= 9.94D-07

 Cycle  12  Pass 1  IDiag  1:
 E= -644.127974607067     Delta-E=       -0.000000000017 Rises=F Damp=F
 DIIS: error= 5.47D-08 at cycle  12 NSaved=  12.
 NSaved=12 IEnMin=12 EnMin= -644.127974607067     IErMin=12 ErrMin= 5.47D-08
 ErrMax= 5.47D-08  0.00D+00 EMaxC= 1.00D-01 BMatC= 1.01D-12 BMatP= 1.95D-11
 IDIUse=1 WtCom= 1.00D+00 WtEn= 0.00D+00
 Coeff-Com:  0.769D-06-0.153D-05-0.988D-06-0.786D-05 0.340D-04 0.330D-03
 Coeff-Com:  0.170D-03-0.410D-02-0.227D-01 0.279D-01 0.193D+00 0.806D+00
 Coeff:      0.769D-06-0.153D-05-0.988D-06-0.786D-05 0.340D-04 0.330D-03
 Coeff:      0.170D-03-0.410D-02-0.227D-01 0.279D-01 0.193D+00 0.806D+00
 Gap=     0.317 Goal=   None    Shift=    0.000
 RMSDP=9.25D-09 MaxDP=1.31D-07 DE=-1.68D-11 OVMax= 2.97D-07

 SCF Done:  E(RM062X) =  -644.127974607     A.U. after   12 cycles
            NFock= 12  Conv=0.92D-08     -V/T= 2.0025
 KE= 6.424902628186D+02 PE=-2.086916913993D+03 EE= 5.206431071874D+02
 Leave Link  502 at Mon Feb 20 10:34:38 2023, MaxMem=  6710886400 cpu:             102.5 elap:               5.5
 (Enter /data0/home/software/g16/l601.exe)
 Copying SCF densities to generalized density rwf, IOpCl= 0 IROHF=0.

 **********************************************************************

            Population analysis using the SCF density.

 **********************************************************************

 Alpha  occ. eigenvalues --  -78.16802 -19.70232 -19.69079 -19.68395 -19.57050
 Alpha  occ. eigenvalues --   -6.97582  -5.09544  -5.09468  -5.09210  -1.24744
 Alpha  occ. eigenvalues --   -1.17619  -1.17029  -1.07398  -0.72807  -0.67252
 Alpha  occ. eigenvalues --   -0.63999  -0.58558  -0.55579  -0.50028  -0.48871
 Alpha  occ. eigenvalues --   -0.48088  -0.44794  -0.44640  -0.36719  -0.36337
 Alpha virt. eigenvalues --   -0.04667   0.00771   0.02936   0.04897   0.07703
 Alpha virt. eigenvalues --    0.08035   0.10035   0.13407   0.15297   0.15934
 Alpha virt. eigenvalues --    0.16906   0.18480   0.19072   0.19955   0.22286
 Alpha virt. eigenvalues --    0.23199   0.24641   0.25529   0.25954   0.26480
 Alpha virt. eigenvalues --    0.28340   0.29173   0.30574   0.32497   0.34122
 Alpha virt. eigenvalues --    0.35138   0.36514   0.37162   0.39232   0.43282
 Alpha virt. eigenvalues --    0.45120   0.46234   0.49214   0.53692   0.58350
 Alpha virt. eigenvalues --    0.73570   0.75367   0.77017   0.86269   0.98764
 Alpha virt. eigenvalues --    1.00345   1.03436   1.04575   1.07177   1.09864
 Alpha virt. eigenvalues --    1.10189   1.12862   1.14046   1.20291   1.22370
 Alpha virt. eigenvalues --    1.23009   1.25371   1.27139   1.29421   1.31485
 Alpha virt. eigenvalues --    1.33812   1.36440   1.45941   1.48553   1.51598
 Alpha virt. eigenvalues --    1.54596   1.55953   1.58417   1.61781   1.63039
 Alpha virt. eigenvalues --    1.65034   1.66191   1.72095   1.74425   1.78587
 Alpha virt. eigenvalues --    1.81071   1.83118   1.87270   1.93915   1.94411
 Alpha virt. eigenvalues --    1.97782   2.01468   2.04437   2.10612   2.16456
 Alpha virt. eigenvalues --    2.20298   2.23620   2.26901   2.36618   2.42760
 Alpha virt. eigenvalues --    2.54052   2.54850   2.58364   2.59504   2.68506
 Alpha virt. eigenvalues --    2.73765   2.77025   2.83917   2.89151   2.91306
 Alpha virt. eigenvalues --    5.00156   5.02283   5.04725   5.07770   5.12635
 Alpha virt. eigenvalues --    5.15238   5.18303   5.22321   5.33130   5.42402
 Alpha virt. eigenvalues --    5.46139   5.49563   6.70677   6.72990   6.74593
 Alpha virt. eigenvalues --    6.76205   6.79698   6.80995   6.83884   6.85292
 Alpha virt. eigenvalues --    6.90677   6.91653   6.95415   6.98542   7.01834
 Alpha virt. eigenvalues --    7.04860   7.06243   7.24139   7.28680   7.29464
 Alpha virt. eigenvalues --    7.29795   7.39937   7.62670  14.22548  14.25482
 Alpha virt. eigenvalues --   14.34171  49.96556  49.99642  50.00097  50.10808
 Alpha virt. eigenvalues --  163.85204
          Condensed to atoms (all electrons):
              27         28         29         30         31         32
    27  P   12.532764   0.540978   0.163102   0.041170   0.243421   0.034287
    28  O    0.540978   8.240009  -0.076320   0.005240  -0.056365   0.006767
    29  O    0.163102  -0.076320   8.142761   0.229217   0.014318  -0.011869
    30  H    0.041170   0.005240   0.229217   0.443317  -0.012407   0.000270
    31  O    0.243421  -0.056365   0.014318  -0.012407   8.056081   0.228562
    32  H    0.034287   0.006767  -0.011869   0.000270   0.228562   0.469368
    33  O    0.241000  -0.038290   0.006695  -0.020053   0.017537  -0.012972
    34  H    0.000071  -0.009175   0.000435   0.001777  -0.001521  -0.001944
              33         34
    27  P    0.241000   0.000071
    28  O   -0.038290  -0.009175
    29  O    0.006695   0.000435
    30  H   -0.020053   0.001777
    31  O    0.017537  -0.001521
    32  H   -0.012972  -0.001944
    33  O    8.095229   0.259547
    34  H    0.259547   0.433509
 Mulliken charges:
               1
     1  C    0.000000
     2  C    0.000000
     3  C    0.000000
     4  C    0.000000
     5  C    0.000000
     6  H    0.000000
     7  H    0.000000
     8  H    0.000000
     9  H    0.000000
    10  C    0.000000
    11  H    0.000000
    12  H    0.000000
    13  H    0.000000
    14  N    0.000000
    15  C    0.000000
    16  H    0.000000
    17  H    0.000000
    18  C    0.000000
    19  H    0.000000
    20  H    0.000000
    21  C    0.000000
    22  H    0.000000
    23  H    0.000000
    24  C    0.000000
    25  O    0.000000
    26  O    0.000000
    27  P    1.203207
    28  O   -0.612845
    29  O   -0.468340
    30  H    0.311468
    31  O   -0.489628
    32  H    0.287531
    33  O   -0.548693
    34  H    0.317299
 Sum of Mulliken charges =  -0.00000
 Mulliken charges with hydrogens summed into heavy atoms:
               1
     1  C    0.000000
     2  C    0.000000
     3  C    0.000000
     4  C    0.000000
     5  C    0.000000
    10  C    0.000000
    14  N    0.000000
    15  C    0.000000
    18  C    0.000000
    21  C    0.000000
    24  C    0.000000
    25  O    0.000000
    26  O    0.000000
    27  P    1.203207
    28  O   -0.612845
    29  O   -0.156872
    31  O   -0.202096
    33  O   -0.231394
         Mulliken charges condensed to fragments:
      1      0.000000
      2     -0.000000
 Electronic spatial extent (au):  <R**2>=          59232.5748
 Charge=              0.0000 electrons
 Dipole moment (field-independent basis, Debye):
    X=              0.5586    Y=             -4.8857    Z=             -5.4574  Tot=              7.3461
 Quadrupole moment (field-independent basis, Debye-Ang):
   XX=            -18.0543   YY=           -101.2641   ZZ=           -148.1847
   XY=            -61.3772   XZ=            -70.3899   YZ=            -85.5319
 Traceless Quadrupole moment (field-independent basis, Debye-Ang):
   XX=             71.1134   YY=            -12.0964   ZZ=            -59.0170
   XY=            -61.3772   XZ=            -70.3899   YZ=            -85.5319
 Octapole moment (field-independent basis, Debye-Ang**2):
  XXX=          -1007.4361  YYY=          -1372.2134  ZZZ=          -2879.0375  XYY=          -1328.5050
  XXY=           -994.7714  XXZ=          -1259.5147  XZZ=          -1981.6098  YZZ=          -1486.4903
  YYZ=          -1281.3687  XYZ=          -1123.0320
 Hexadecapole moment (field-independent basis, Debye-Ang**3):
 XXXX=         -29319.3848 YYYY=         -15542.9001 ZZZZ=         -48294.2760 XXXY=         -18555.0765
 XXXZ=         -25644.1421 YYYX=         -18193.7160 YYYZ=         -15820.4271 ZZZX=         -38716.0276
 ZZZY=         -24296.9772 XXYY=         -19018.1846 XXZZ=         -30322.4076 YYZZ=         -17361.6892
 XXYZ=         -17158.3897 YYXZ=         -17000.8239 ZZXY=         -19835.0753
 N-N= 2.796555693804D+02 E-N=-2.086916921510D+03  KE= 6.424902628186D+02
 No NMR shielding tensors so no spin-rotation constants.
 Leave Link  601 at Mon Feb 20 10:34:38 2023, MaxMem=  6710886400 cpu:               2.0 elap:               0.1
 (Enter /data0/home/software/g16/l122.exe)
 CPIOFr:  IOpCl= 0 IRwI=-1 IRwCP=  731 ICalc=  4 LCPTot=      533842 Len1MO=     1404424 IndFrg=     7555962
 Restoring MOs from calculation   1 to rwf.
 CPIOFr:  IOpCl= 0 IRwI=-2 IRwCP=  731 ICalc=  0 LCPTot=      533842 Len1MO=     1404424 IndFrg=     1938266
 Counterpoise corrected energy =   -1238.199670341256
                   BSSE energy =       0.003581848916
              sum of fragments =   -1238.104515561796
           complexation energy =     -61.96 kcal/mole (raw)
           complexation energy =     -59.71 kcal/mole (corrected)
 Leave Link  122 at Mon Feb 20 10:34:38 2023, MaxMem=  6710886400 cpu:               0.5 elap:               0.0
 (Enter /data0/home/software/g16/l9999.exe)
 1\1\GINC-LOCALHOST\SP\RM062X\6-311+G(2d,p)\C10H16N1O6P1\WUHANYU\20-Feb
 -2023\0\\#p M062X/6-311+G(2d,p) nosymm em=GD3 counterpoise=2\\Title Ca
 rd Required\\0,1\C,0,17.29936,6.373064,10.489098\C,0,16.677871,6.67354
 9,11.706801\C,0,16.328951,8.000664,11.981306\C,0,16.645667,8.993219,11
 .055639\C,0,17.285505,8.659954,9.86531\H,0,15.792322,8.252482,12.90244
 9\H,0,17.523803,5.328829,10.207012\H,0,16.365865,10.037571,11.238366\H
 ,0,17.536307,9.420515,9.110803\C,0,16.367481,5.574951,12.654545\H,0,15
 .540368,5.839847,13.338115\H,0,16.015146,4.665714,12.129952\H,0,17.233
 748,5.295682,13.267047\N,0,17.599114,7.359768,9.599631\C,0,18.278816,7
 .018757,8.326198\H,0,19.250933,7.560704,8.29803\H,0,18.511536,5.92388,
 8.320388\C,0,17.431812,7.36096,7.087109\H,0,16.685425,8.156558,7.31488
 \H,0,18.085102,7.796073,6.305161\C,0,16.706309,6.138698,6.528134\H,0,1
 6.229206,6.381238,5.55698\H,0,17.393345,5.297793,6.333882\C,0,15.63495
 6,5.698971,7.52223\O,0,14.440169,5.815293,7.187827\O,0,16.023154,5.291
 065,8.638416\P,0,13.293946,6.643324,10.565128\O,0,13.726683,7.614477,1
 1.582713\O,0,11.814584,6.157975,10.811709\H,0,11.702019,5.197208,10.37
 5979\O,0,13.324663,7.345708,9.136645\H,0,13.601026,6.684258,8.374036\O
 ,0,14.134153,5.297877,10.527126\H,0,14.856018,5.291503,9.741545\\Versi
 on=ES64L-G16RevA.03\HF=-644.1279746\RMSD=9.245e-09\Dipole=3.8626611,0.
 5771202,0.0687723\Quadrupole=145.0587639,-64.0453726,-81.0133914,74.33
 46165,71.5284333,7.3343755\PG=C01 [X(C10H16N1O6P1)]\\@


 ALL THINGS ARE POSSIBLE EXCEPT SKIING THROUGH A REVOLVING DOOR.
 Job cpu time:       0 days  3 hours 52 minutes 18.5 seconds.
 Elapsed time:       0 days  0 hours  9 minutes 44.8 seconds.
 File lengths (MBytes):  RWF=    262 Int=      0 D2E=      0 Chk=     78 Scr=      1
 Normal termination of Gaussian 16 at Mon Feb 20 10:34:38 2023.
