 Entering Gaussian System, Link 0=g16
 Initial command:
 /data0/home/software/g16/l1.exe "/data0/home/software/g16/scratch/Gau-2511042.inp" -scrdir="/data0/home/software/g16/scratch/"
 Default is to use a total of  22 processors:
                               22 via shared-memory
                                1 via Linda
 Entering Link 1 = /data0/home/software/g16/l1.exe PID=   2511043.
  
 Copyright (c) 1988,1990,1992,1993,1995,1998,2003,2009,2016,
            Gaussian, Inc.  All Rights Reserved.
  
 This is part of the Gaussian(R) 16 program.  It is based on
 the Gaussian(R) 09 system (copyright 2009, Gaussian, Inc.),
 the Gaussian(R) 03 system (copyright 2003, Gaussian, Inc.),
 the Gaussian(R) 98 system (copyright 1998, Gaussian, Inc.),
 the Gaussian(R) 94 system (copyright 1995, Gaussian, Inc.),
 the Gaussian 92(TM) system (copyright 1992, Gaussian, Inc.),
 the Gaussian 90(TM) system (copyright 1990, Gaussian, Inc.),
 the Gaussian 88(TM) system (copyright 1988, Gaussian, Inc.),
 the Gaussian 86(TM) system (copyright 1986, Carnegie Mellon
 University), and the Gaussian 82(TM) system (copyright 1983,
 Carnegie Mellon University). Gaussian is a federally registered
 trademark of Gaussian, Inc.
  
 This software contains proprietary and confidential information,
 including trade secrets, belonging to Gaussian, Inc.
  
 This software is provided under written license and may be
 used, copied, transmitted, or stored only in accord with that
 written license.
  
 The following legend is applicable only to US Government
 contracts under FAR:
  
                    RESTRICTED RIGHTS LEGEND
  
 Use, reproduction and disclosure by the US Government is
 subject to restrictions as set forth in subparagraphs (a)
 and (c) of the Commercial Computer Software - Restricted
 Rights clause in FAR 52.227-19.
  
 Gaussian, Inc.
 340 Quinnipiac St., Bldg. 40, Wallingford CT 06492
  
  
 ---------------------------------------------------------------
 Warning -- This program may not be used in any manner that
 competes with the business of Gaussian, Inc. or will provide
 assistance to any competitor of Gaussian, Inc.  The licensee
 of this program is prohibited from giving any competitor of
 Gaussian, Inc. access to this program.  By using this program,
 the user acknowledges that Gaussian, Inc. is engaged in the
 business of creating and licensing software in the field of
 computational chemistry and represents and warrants to the
 licensee that it is not a competitor of Gaussian, Inc. and that
 it will not use this program in any manner prohibited above.
 ---------------------------------------------------------------
  

 Cite this work as:
 Gaussian 16, Revision A.03,
 M. J. Frisch, G. W. Trucks, H. B. Schlegel, G. E. Scuseria, 
 M. A. Robb, J. R. Cheeseman, G. Scalmani, V. Barone, 
 G. A. Petersson, H. Nakatsuji, X. Li, M. Caricato, A. V. Marenich, 
 J. Bloino, B. G. Janesko, R. Gomperts, B. Mennucci, H. P. Hratchian, 
 J. V. Ortiz, A. F. Izmaylov, J. L. Sonnenberg, D. Williams-Young, 
 F. Ding, F. Lipparini, F. Egidi, J. Goings, B. Peng, A. Petrone, 
 T. Henderson, D. Ranasinghe, V. G. Zakrzewski, J. Gao, N. Rega, 
 G. Zheng, W. Liang, M. Hada, M. Ehara, K. Toyota, R. Fukuda, 
 J. Hasegawa, M. Ishida, T. Nakajima, Y. Honda, O. Kitao, H. Nakai, 
 T. Vreven, K. Throssell, J. A. Montgomery, Jr., J. E. Peralta, 
 F. Ogliaro, M. J. Bearpark, J. J. Heyd, E. N. Brothers, K. N. Kudin, 
 V. N. Staroverov, T. A. Keith, R. Kobayashi, J. Normand, 
 K. Raghavachari, A. P. Rendell, J. C. Burant, S. S. Iyengar, 
 J. Tomasi, M. Cossi, J. M. Millam, M. Klene, C. Adamo, R. Cammi, 
 J. W. Ochterski, R. L. Martin, K. Morokuma, O. Farkas, 
 J. B. Foresman, and D. J. Fox, Gaussian, Inc., Wallingford CT, 2016.
 
 ******************************************
 Gaussian 16:  ES64L-G16RevA.03 25-Dec-2016
                11-Oct-2023 
 ******************************************
 %mem=50GB
 %nprocshared=24
 Will use up to   24 processors via shared memory.
 ----------------------------------------
 #p opt freq b3lyp/6-311+g(2d,p) em=gd3bj
 ----------------------------------------
 1/18=20,19=15,26=3,38=1/1,3;
 2/9=110,12=2,17=6,18=5,40=1/2;
 3/5=4,6=6,7=112,11=2,25=1,30=1,71=1,74=-5,124=41/1,2,3;
 4//1;
 5/5=2,38=5/2;
 6/7=2,8=2,9=2,10=2,28=1/1;
 7//1,2,3,16;
 1/18=20,19=15,26=3/3(2);
 2/9=110/2;
 99//99;
 2/9=110/2;
 3/5=4,6=6,7=112,11=2,25=1,30=1,71=1,74=-5,124=41/1,2,3;
 4/5=5,16=3,69=1/1;
 5/5=2,38=5/2;
 7//1,2,3,16;
 1/18=20,19=15,26=3/3(-5);
 2/9=110/2;
 6/7=2,8=2,9=2,10=2,19=2,28=1/1;
 99/9=1/99;
 Leave Link    1 at Wed Oct 11 16:41:15 2023, MaxMem=  6710886400 cpu:               0.7 elap:               0.0
 (Enter /data0/home/software/g16/l101.exe)
 -------------------
 Title Card Required
 -------------------
 Symbolic Z-matrix:
 Charge =  0 Multiplicity = 1
 C                    -0.73113  -0.8389    0.93307 
 C                    -1.68199  -1.77711   0.55433 
 C                    -2.84848  -1.36527  -0.0531 
 C                    -3.08404  -0.00028  -0.28234 
 C                    -2.11335   0.88179   0.13278 
 H                    -3.58745  -2.09404  -0.36624 
 H                     0.23044  -1.09022   1.36865 
 H                    -1.46599  -2.82316   0.71856 
 H                    -2.20908   1.94984  -0.00579 
 C                    -4.3393    0.48003  -0.95637 
 H                    -4.36307   1.56693  -1.0387 
 H                    -4.41656   0.06363  -1.96342 
 H                    -5.2246    0.16257  -0.40059 
 N                    -0.97421   0.46569   0.73652 
 C                     0.05709   1.48814   1.07823 
 H                    -0.48312   2.30857   1.54995 
 H                     0.72438   1.03486   1.80686 
 C                     0.83973   1.97867  -0.16245 
 H                     0.25618   1.75631  -1.05772 
 H                     0.92149   3.06738  -0.09531 
 C                     2.24314   1.39589  -0.33261 
 H                     2.92453   1.73353   0.44926 
 H                     2.65176   1.68478  -1.30057 
 S                     2.28632  -0.43069  -0.27801 
 O                     3.54366  -0.82085  -0.89701 
 O                     1.05701  -0.83502  -1.00684 
 O                     2.17801  -0.73756   1.17364 
 
 ITRead=  0  0  0  0  0  0  0  0  0  0  0  0  0  0  0  0  0  0  0  0
 ITRead=  0  0  0  0  0  0  0
 MicOpt= -1 -1 -1 -1 -1 -1 -1 -1 -1 -1 -1 -1 -1 -1 -1 -1 -1 -1 -1 -1
 MicOpt= -1 -1 -1 -1 -1 -1 -1
 NAtoms=     27 NQM=       27 NQMF=       0 NMMI=      0 NMMIF=      0
                NMic=       0 NMicF=      0.
                    Isotopes and Nuclear Properties:
 (Nuclear quadrupole moments (NQMom) in fm**2, nuclear magnetic moments (NMagM)
  in nuclear magnetons)

  Atom         1           2           3           4           5           6           7           8           9          10
 IAtWgt=          12          12          12          12          12           1           1           1           1          12
 AtmWgt=  12.0000000  12.0000000  12.0000000  12.0000000  12.0000000   1.0078250   1.0078250   1.0078250   1.0078250  12.0000000
 NucSpn=           0           0           0           0           0           1           1           1           1           0
 AtZEff=  -0.0000000  -0.0000000  -0.0000000  -0.0000000  -0.0000000  -0.0000000  -0.0000000  -0.0000000  -0.0000000  -0.0000000
 NQMom=    0.0000000   0.0000000   0.0000000   0.0000000   0.0000000   0.0000000   0.0000000   0.0000000   0.0000000   0.0000000
 NMagM=    0.0000000   0.0000000   0.0000000   0.0000000   0.0000000   2.7928460   2.7928460   2.7928460   2.7928460   0.0000000
 AtZNuc=   6.0000000   6.0000000   6.0000000   6.0000000   6.0000000   1.0000000   1.0000000   1.0000000   1.0000000   6.0000000

  Atom        11          12          13          14          15          16          17          18          19          20
 IAtWgt=           1           1           1          14          12           1           1          12           1           1
 AtmWgt=   1.0078250   1.0078250   1.0078250  14.0030740  12.0000000   1.0078250   1.0078250  12.0000000   1.0078250   1.0078250
 NucSpn=           1           1           1           2           0           1           1           0           1           1
 AtZEff=  -0.0000000  -0.0000000  -0.0000000  -0.0000000  -0.0000000  -0.0000000  -0.0000000  -0.0000000  -0.0000000  -0.0000000
 NQMom=    0.0000000   0.0000000   0.0000000   2.0440000   0.0000000   0.0000000   0.0000000   0.0000000   0.0000000   0.0000000
 NMagM=    2.7928460   2.7928460   2.7928460   0.4037610   0.0000000   2.7928460   2.7928460   0.0000000   2.7928460   2.7928460
 AtZNuc=   1.0000000   1.0000000   1.0000000   7.0000000   6.0000000   1.0000000   1.0000000   6.0000000   1.0000000   1.0000000

  Atom        21          22          23          24          25          26          27
 IAtWgt=          12           1           1          32          16          16          16
 AtmWgt=  12.0000000   1.0078250   1.0078250  31.9720718  15.9949146  15.9949146  15.9949146
 NucSpn=           0           1           1           0           0           0           0
 AtZEff=  -0.0000000  -0.0000000  -0.0000000  -0.0000000  -0.0000000  -0.0000000  -0.0000000
 NQMom=    0.0000000   0.0000000   0.0000000   0.0000000   0.0000000   0.0000000   0.0000000
 NMagM=    0.0000000   2.7928460   2.7928460   0.0000000   0.0000000   0.0000000   0.0000000
 AtZNuc=   6.0000000   1.0000000   1.0000000  16.0000000   8.0000000   8.0000000   8.0000000
 Leave Link  101 at Wed Oct 11 16:41:16 2023, MaxMem=  6710886400 cpu:               7.9 elap:               0.4
 (Enter /data0/home/software/g16/l103.exe)

 GradGradGradGradGradGradGradGradGradGradGradGradGradGradGradGradGradGrad
 Berny optimization.
 Initialization pass.
                           ----------------------------
                           !    Initial Parameters    !
                           ! (Angstroms and Degrees)  !
 --------------------------                            --------------------------
 ! Name  Definition              Value          Derivative Info.                !
 --------------------------------------------------------------------------------
 ! R1    R(1,2)                  1.3885         estimate D2E/DX2                !
 ! R2    R(1,7)                  1.0851         estimate D2E/DX2                !
 ! R3    R(1,14)                 1.3415         estimate D2E/DX2                !
 ! R4    R(2,3)                  1.3781         estimate D2E/DX2                !
 ! R5    R(2,8)                  1.0807         estimate D2E/DX2                !
 ! R6    R(3,4)                  1.404          estimate D2E/DX2                !
 ! R7    R(3,6)                  1.0841         estimate D2E/DX2                !
 ! R8    R(4,5)                  1.3757         estimate D2E/DX2                !
 ! R9    R(4,10)                 1.5036         estimate D2E/DX2                !
 ! R10   R(5,9)                  1.0812         estimate D2E/DX2                !
 ! R11   R(5,14)                 1.3547         estimate D2E/DX2                !
 ! R12   R(10,11)                1.0903         estimate D2E/DX2                !
 ! R13   R(10,12)                1.0925         estimate D2E/DX2                !
 ! R14   R(10,13)                1.0924         estimate D2E/DX2                !
 ! R15   R(14,15)                1.4919         estimate D2E/DX2                !
 ! R16   R(15,16)                1.0897         estimate D2E/DX2                !
 ! R17   R(15,17)                1.087          estimate D2E/DX2                !
 ! R18   R(15,18)                1.5467         estimate D2E/DX2                !
 ! R19   R(18,19)                1.0915         estimate D2E/DX2                !
 ! R20   R(18,20)                1.0938         estimate D2E/DX2                !
 ! R21   R(18,21)                1.5291         estimate D2E/DX2                !
 ! R22   R(21,22)                1.0907         estimate D2E/DX2                !
 ! R23   R(21,23)                1.0897         estimate D2E/DX2                !
 ! R24   R(21,24)                1.8279         estimate D2E/DX2                !
 ! R25   R(24,25)                1.4547         estimate D2E/DX2                !
 ! R26   R(24,26)                1.4852         estimate D2E/DX2                !
 ! R27   R(24,27)                1.4877         estimate D2E/DX2                !
 ! A1    A(2,1,7)              124.0449         estimate D2E/DX2                !
 ! A2    A(2,1,14)             119.5427         estimate D2E/DX2                !
 ! A3    A(7,1,14)             116.3979         estimate D2E/DX2                !
 ! A4    A(1,2,3)              119.8644         estimate D2E/DX2                !
 ! A5    A(1,2,8)              118.4078         estimate D2E/DX2                !
 ! A6    A(3,2,8)              121.6968         estimate D2E/DX2                !
 ! A7    A(2,3,4)              120.2988         estimate D2E/DX2                !
 ! A8    A(2,3,6)              120.2246         estimate D2E/DX2                !
 ! A9    A(4,3,6)              119.474          estimate D2E/DX2                !
 ! A10   A(3,4,5)              117.1102         estimate D2E/DX2                !
 ! A11   A(3,4,10)             121.59           estimate D2E/DX2                !
 ! A12   A(5,4,10)             121.2995         estimate D2E/DX2                !
 ! A13   A(4,5,9)              122.1549         estimate D2E/DX2                !
 ! A14   A(4,5,14)             122.0624         estimate D2E/DX2                !
 ! A15   A(9,5,14)             115.7822         estimate D2E/DX2                !
 ! A16   A(4,10,11)            111.7471         estimate D2E/DX2                !
 ! A17   A(4,10,12)            110.5195         estimate D2E/DX2                !
 ! A18   A(4,10,13)            110.8338         estimate D2E/DX2                !
 ! A19   A(11,10,12)           107.9884         estimate D2E/DX2                !
 ! A20   A(11,10,13)           108.0861         estimate D2E/DX2                !
 ! A21   A(12,10,13)           107.5111         estimate D2E/DX2                !
 ! A22   A(1,14,5)             121.0873         estimate D2E/DX2                !
 ! A23   A(1,14,15)            120.5079         estimate D2E/DX2                !
 ! A24   A(5,14,15)            118.219          estimate D2E/DX2                !
 ! A25   A(14,15,16)           105.8097         estimate D2E/DX2                !
 ! A26   A(14,15,17)           106.9835         estimate D2E/DX2                !
 ! A27   A(14,15,18)           112.5448         estimate D2E/DX2                !
 ! A28   A(16,15,17)           109.1537         estimate D2E/DX2                !
 ! A29   A(16,15,18)           111.0571         estimate D2E/DX2                !
 ! A30   A(17,15,18)           111.0562         estimate D2E/DX2                !
 ! A31   A(15,18,19)           108.8307         estimate D2E/DX2                !
 ! A32   A(15,18,20)           107.7121         estimate D2E/DX2                !
 ! A33   A(15,18,21)           115.645          estimate D2E/DX2                !
 ! A34   A(19,18,20)           107.0409         estimate D2E/DX2                !
 ! A35   A(19,18,21)           108.769          estimate D2E/DX2                !
 ! A36   A(20,18,21)           108.516          estimate D2E/DX2                !
 ! A37   A(18,21,22)           112.0632         estimate D2E/DX2                !
 ! A38   A(18,21,23)           109.998          estimate D2E/DX2                !
 ! A39   A(18,21,24)           113.5286         estimate D2E/DX2                !
 ! A40   A(22,21,23)           108.6901         estimate D2E/DX2                !
 ! A41   A(22,21,24)           105.8526         estimate D2E/DX2                !
 ! A42   A(23,21,24)           106.4149         estimate D2E/DX2                !
 ! A43   A(21,24,25)           106.0043         estimate D2E/DX2                !
 ! A44   A(21,24,26)           103.7581         estimate D2E/DX2                !
 ! A45   A(21,24,27)           103.5061         estimate D2E/DX2                !
 ! A46   A(25,24,26)           115.6942         estimate D2E/DX2                !
 ! A47   A(25,24,27)           115.0118         estimate D2E/DX2                !
 ! A48   A(26,24,27)           111.2488         estimate D2E/DX2                !
 ! D1    D(7,1,2,3)           -176.7407         estimate D2E/DX2                !
 ! D2    D(7,1,2,8)              1.2689         estimate D2E/DX2                !
 ! D3    D(14,1,2,3)             1.8201         estimate D2E/DX2                !
 ! D4    D(14,1,2,8)           179.8298         estimate D2E/DX2                !
 ! D5    D(2,1,14,5)            -2.2636         estimate D2E/DX2                !
 ! D6    D(2,1,14,15)         -177.2212         estimate D2E/DX2                !
 ! D7    D(7,1,14,5)           176.4051         estimate D2E/DX2                !
 ! D8    D(7,1,14,15)            1.4475         estimate D2E/DX2                !
 ! D9    D(1,2,3,4)             -0.4465         estimate D2E/DX2                !
 ! D10   D(1,2,3,6)            178.9722         estimate D2E/DX2                !
 ! D11   D(8,2,3,4)           -178.3888         estimate D2E/DX2                !
 ! D12   D(8,2,3,6)              1.0298         estimate D2E/DX2                !
 ! D13   D(2,3,4,5)             -0.4808         estimate D2E/DX2                !
 ! D14   D(2,3,4,10)           179.3076         estimate D2E/DX2                !
 ! D15   D(6,3,4,5)           -179.9039         estimate D2E/DX2                !
 ! D16   D(6,3,4,10)            -0.1155         estimate D2E/DX2                !
 ! D17   D(3,4,5,9)            179.7974         estimate D2E/DX2                !
 ! D18   D(3,4,5,14)             0.0674         estimate D2E/DX2                !
 ! D19   D(10,4,5,9)             0.0083         estimate D2E/DX2                !
 ! D20   D(10,4,5,14)         -179.7217         estimate D2E/DX2                !
 ! D21   D(3,4,10,11)          179.1285         estimate D2E/DX2                !
 ! D22   D(3,4,10,12)          -60.5859         estimate D2E/DX2                !
 ! D23   D(3,4,10,13)           58.5037         estimate D2E/DX2                !
 ! D24   D(5,4,10,11)           -1.0919         estimate D2E/DX2                !
 ! D25   D(5,4,10,12)          119.1937         estimate D2E/DX2                !
 ! D26   D(5,4,10,13)         -121.7167         estimate D2E/DX2                !
 ! D27   D(4,5,14,1)             1.3326         estimate D2E/DX2                !
 ! D28   D(4,5,14,15)          176.4026         estimate D2E/DX2                !
 ! D29   D(9,5,14,1)          -178.4135         estimate D2E/DX2                !
 ! D30   D(9,5,14,15)           -3.3436         estimate D2E/DX2                !
 ! D31   D(1,14,15,16)        -138.4378         estimate D2E/DX2                !
 ! D32   D(1,14,15,17)         -22.1403         estimate D2E/DX2                !
 ! D33   D(1,14,15,18)         100.1046         estimate D2E/DX2                !
 ! D34   D(5,14,15,16)          46.4625         estimate D2E/DX2                !
 ! D35   D(5,14,15,17)         162.76           estimate D2E/DX2                !
 ! D36   D(5,14,15,18)         -74.9951         estimate D2E/DX2                !
 ! D37   D(14,15,18,19)         20.125          estimate D2E/DX2                !
 ! D38   D(14,15,18,20)        135.8434         estimate D2E/DX2                !
 ! D39   D(14,15,18,21)       -102.6144         estimate D2E/DX2                !
 ! D40   D(16,15,18,19)        -98.2944         estimate D2E/DX2                !
 ! D41   D(16,15,18,20)         17.424          estimate D2E/DX2                !
 ! D42   D(16,15,18,21)        138.9663         estimate D2E/DX2                !
 ! D43   D(17,15,18,19)        140.04           estimate D2E/DX2                !
 ! D44   D(17,15,18,20)       -104.2416         estimate D2E/DX2                !
 ! D45   D(17,15,18,21)         17.3007         estimate D2E/DX2                !
 ! D46   D(15,18,21,22)        -67.2349         estimate D2E/DX2                !
 ! D47   D(15,18,21,23)        171.7369         estimate D2E/DX2                !
 ! D48   D(15,18,21,24)         52.6295         estimate D2E/DX2                !
 ! D49   D(19,18,21,22)        169.9931         estimate D2E/DX2                !
 ! D50   D(19,18,21,23)         48.9649         estimate D2E/DX2                !
 ! D51   D(19,18,21,24)        -70.1426         estimate D2E/DX2                !
 ! D52   D(20,18,21,22)         53.8752         estimate D2E/DX2                !
 ! D53   D(20,18,21,23)        -67.153          estimate D2E/DX2                !
 ! D54   D(20,18,21,24)        173.7396         estimate D2E/DX2                !
 ! D55   D(18,21,24,25)        160.8907         estimate D2E/DX2                !
 ! D56   D(18,21,24,26)         38.5738         estimate D2E/DX2                !
 ! D57   D(18,21,24,27)        -77.6927         estimate D2E/DX2                !
 ! D58   D(22,21,24,25)        -75.7748         estimate D2E/DX2                !
 ! D59   D(22,21,24,26)        161.9083         estimate D2E/DX2                !
 ! D60   D(22,21,24,27)         45.6418         estimate D2E/DX2                !
 ! D61   D(23,21,24,25)         39.7517         estimate D2E/DX2                !
 ! D62   D(23,21,24,26)        -82.5653         estimate D2E/DX2                !
 ! D63   D(23,21,24,27)        161.1683         estimate D2E/DX2                !
 --------------------------------------------------------------------------------
 Trust Radius=3.00D-01 FncErr=1.00D-07 GrdErr=1.00D-06 EigMax=2.50D+02 EigMin=1.00D-04
 Number of steps in this run=    148 maximum allowed number of steps=    162.
 GradGradGradGradGradGradGradGradGradGradGradGradGradGradGradGradGradGrad

 Leave Link  103 at Wed Oct 11 16:41:16 2023, MaxMem=  6710886400 cpu:               0.2 elap:               0.0
 (Enter /data0/home/software/g16/l202.exe)
                          Input orientation:                          
 ---------------------------------------------------------------------
 Center     Atomic      Atomic             Coordinates (Angstroms)
 Number     Number       Type             X           Y           Z
 ---------------------------------------------------------------------
      1          6           0       -0.731134   -0.838902    0.933070
      2          6           0       -1.681985   -1.777113    0.554334
      3          6           0       -2.848475   -1.365271   -0.053096
      4          6           0       -3.084038   -0.000278   -0.282339
      5          6           0       -2.113354    0.881792    0.132776
      6          1           0       -3.587450   -2.094039   -0.366237
      7          1           0        0.230441   -1.090224    1.368652
      8          1           0       -1.465986   -2.823161    0.718560
      9          1           0       -2.209078    1.949841   -0.005789
     10          6           0       -4.339297    0.480030   -0.956374
     11          1           0       -4.363067    1.566931   -1.038701
     12          1           0       -4.416563    0.063634   -1.963418
     13          1           0       -5.224598    0.162570   -0.400594
     14          7           0       -0.974211    0.465694    0.736522
     15          6           0        0.057087    1.488135    1.078226
     16          1           0       -0.483124    2.308567    1.549947
     17          1           0        0.724380    1.034855    1.806857
     18          6           0        0.839731    1.978667   -0.162448
     19          1           0        0.256184    1.756311   -1.057716
     20          1           0        0.921485    3.067376   -0.095306
     21          6           0        2.243137    1.395894   -0.332607
     22          1           0        2.924528    1.733527    0.449264
     23          1           0        2.651761    1.684776   -1.300567
     24         16           0        2.286322   -0.430694   -0.278012
     25          8           0        3.543658   -0.820846   -0.897006
     26          8           0        1.057008   -0.835020   -1.006842
     27          8           0        2.178005   -0.737564    1.173639
 ---------------------------------------------------------------------
                    Distance matrix (angstroms):
                    1          2          3          4          5
     1  C    0.000000
     2  C    1.388452   0.000000
     3  C    2.394310   1.378145   0.000000
     4  C    2.777889   2.413072   1.404011   0.000000
     5  C    2.347720   2.726457   2.371549   1.375716   0.000000
     6  H    3.379661   2.139787   1.084087   2.155063   3.358205
     7  H    1.085136   2.189133   3.402461   3.859990   3.302970
     8  H    2.126806   1.080667   2.152248   3.404197   3.806429
     9  H    3.292850   3.805490   3.376542   2.155226   1.081246
    10  C    4.281170   3.799768   2.538424   1.503560   2.510475
    11  H    4.781930   4.572591   3.444302   2.159663   2.627353
    12  H    4.773531   4.147932   2.854820   2.146097   3.219966
    13  H    4.792997   4.150225   2.846228   2.150000   3.237530
    14  N    1.341525   2.358881   2.736566   2.388844   1.354730
    15  C    2.461192   3.736399   4.226595   3.732717   2.443837
    16  H    3.216925   4.372790   4.654215   3.931004   2.588766
    17  H    2.528436   3.907246   4.688851   4.465455   3.298289
    18  C    3.406827   4.580252   4.979633   4.396198   3.164017
    19  H    3.416600   4.340540   4.515799   3.852778   2.792269
    20  H    4.364369   5.537975   5.819170   5.048732   3.746872
    21  C    3.929700   5.124570   5.798851   5.507324   4.411337
    22  H    4.496145   5.792719   6.571338   6.296363   5.119167
    23  H    4.775151   5.848648   6.411830   6.064288   5.040394
    24  S    3.276949   4.272365   5.223999   5.387582   4.609611
    25  O    4.650091   5.507103   6.470545   6.706527   5.996767
    26  O    2.638319   3.290424   4.055070   4.286019   3.781186
    27  O    2.920827   4.045210   5.211947   5.509316   4.703347
                    6          7          8          9         10
     6  H    0.000000
     7  H    4.312050   0.000000
     8  H    2.491789   2.510688   0.000000
     9  H    4.287516   4.133078   4.884508   0.000000
    10  C    2.745791   5.362271   4.687472   2.757134   0.000000
    11  H    3.802169   5.827189   5.545625   2.419338   1.090274
    12  H    2.809621   5.833415   4.922651   3.501868   1.092471
    13  H    2.788139   5.870023   4.928921   3.527544   1.092442
    14  N    3.820645   2.066798   3.325467   2.068481   3.766949
    15  C    5.310470   2.600449   4.586544   2.554166   4.948138
    16  H    5.717652   3.477617   5.290733   2.351152   4.949269
    17  H    5.753624   2.225300   4.567973   3.567641   5.795179
    18  C    6.019003   3.483331   5.399079   3.052967   5.449639
    19  H    5.484237   3.740413   5.205054   2.687289   4.770494
    20  H    6.858870   4.461654   6.407872   3.325255   5.925506
    21  C    6.795330   3.622984   5.715153   4.498431   6.675053
    22  H    7.597444   4.009607   6.333446   5.158273   7.504014
    23  H    7.353922   4.548422   6.430724   5.037307   7.102448
    24  S    6.105383   2.715351   4.560358   5.094082   6.722233
    25  O    7.263294   4.022832   5.631683   6.447088   7.989792
    26  O    4.854533   2.528105   3.646260   4.407366   5.554459
    27  O    6.119781   1.988820   4.223208   5.278228   6.963815
                   11         12         13         14         15
    11  H    0.000000
    12  H    1.765748   0.000000
    13  H    1.766818   1.762137   0.000000
    14  N    3.981016   4.393303   4.410296   0.000000
    15  C    4.901566   5.594135   5.642715   1.491886   0.000000
    16  H    4.722825   5.731963   5.558011   2.073405   1.089705
    17  H    5.853411   6.448840   6.405003   2.086809   1.087035
    18  C    5.292112   5.877029   6.334904   2.527374   1.546747
    19  H    4.623171   5.051734   5.745502   2.529596   2.161899
    20  H    5.573851   6.403676   6.804810   3.324808   2.149038
    21  C    6.646033   6.984702   7.569199   3.515628   2.603416
    22  H    7.439814   7.905770   8.342567   4.109755   2.945849
    23  H    7.020703   7.282079   8.072428   4.334001   3.525572
    24  S    6.984521   6.929186   7.535311   3.530420   3.238947
    25  O    8.260621   8.079892   8.837185   4.973403   4.624836
    26  O    5.928541   5.628730   6.389155   2.976076   3.277865
    27  O    7.279476   7.346521   7.621482   3.402259   3.075895
                   16         17         18         19         20
    16  H    0.000000
    17  H    1.773813   0.000000
    18  C    2.188853   2.186835   0.000000
    19  H    2.766129   2.990900   1.091547   0.000000
    20  H    2.292504   2.790738   1.093837   1.757199   0.000000
    21  C    3.436492   2.648448   1.529093   2.145615   2.144045
    22  H    3.626881   2.678031   2.186473   3.064566   2.467365
    23  H    4.282762   3.713930   2.159893   2.408917   2.521526
    24  S    4.302885   2.989009   2.812650   3.084216   3.759342
    25  O    5.656481   4.324677   3.960817   4.180317   4.757813
    26  O    4.334895   3.394698   2.945682   2.712730   4.009733
    27  O    4.062281   2.378121   3.309685   3.858983   4.203169
                   21         22         23         24         25
    21  C    0.000000
    22  H    1.090693   0.000000
    23  H    1.089666   1.771634   0.000000
    24  S    1.827914   2.370673   2.377894   0.000000
    25  O    2.631319   2.953064   2.690071   1.454739   0.000000
    26  O    2.615047   3.493610   2.996478   1.485222   2.489115
    27  O    2.612405   2.681102   3.494835   1.487680   2.481837
                   26         27
    26  O    0.000000
    27  O    2.453697   0.000000
 Stoichiometry    C9H13NO3S
 Framework group  C1[X(C9H13NO3S)]
 Deg. of freedom    75
 Full point group                 C1      NOp   1
 Largest Abelian subgroup         C1      NOp   1
 Largest concise Abelian subgroup C1      NOp   1
                         Standard orientation:                         
 ---------------------------------------------------------------------
 Center     Atomic      Atomic             Coordinates (Angstroms)
 Number     Number       Type             X           Y           Z
 ---------------------------------------------------------------------
      1          6           0       -0.731134   -0.838902    0.933070
      2          6           0       -1.681985   -1.777113    0.554334
      3          6           0       -2.848475   -1.365271   -0.053096
      4          6           0       -3.084038   -0.000278   -0.282339
      5          6           0       -2.113354    0.881792    0.132776
      6          1           0       -3.587450   -2.094039   -0.366237
      7          1           0        0.230441   -1.090224    1.368652
      8          1           0       -1.465986   -2.823161    0.718560
      9          1           0       -2.209078    1.949841   -0.005789
     10          6           0       -4.339297    0.480030   -0.956374
     11          1           0       -4.363067    1.566931   -1.038701
     12          1           0       -4.416563    0.063634   -1.963418
     13          1           0       -5.224598    0.162570   -0.400594
     14          7           0       -0.974211    0.465694    0.736522
     15          6           0        0.057087    1.488135    1.078226
     16          1           0       -0.483124    2.308567    1.549947
     17          1           0        0.724380    1.034855    1.806857
     18          6           0        0.839731    1.978667   -0.162448
     19          1           0        0.256184    1.756311   -1.057716
     20          1           0        0.921485    3.067376   -0.095306
     21          6           0        2.243137    1.395894   -0.332607
     22          1           0        2.924528    1.733527    0.449264
     23          1           0        2.651761    1.684776   -1.300567
     24         16           0        2.286322   -0.430694   -0.278012
     25          8           0        3.543658   -0.820846   -0.897006
     26          8           0        1.057008   -0.835020   -1.006842
     27          8           0        2.178005   -0.737564    1.173639
 ---------------------------------------------------------------------
 Rotational constants (GHZ):           1.3261761           0.3893859           0.3508674
 Leave Link  202 at Wed Oct 11 16:41:16 2023, MaxMem=  6710886400 cpu:               0.1 elap:               0.0
 (Enter /data0/home/software/g16/l301.exe)
 Standard basis: 6-311+G(2d,p) (5D, 7F)
 Ernie: Thresh=  0.10000D-02 Tol=  0.10000D-05 Strict=F.
 There are   492 symmetry adapted cartesian basis functions of A   symmetry.
 There are   464 symmetry adapted basis functions of A   symmetry.
   464 basis functions,   706 primitive gaussians,   492 cartesian basis functions
    57 alpha electrons       57 beta electrons
       nuclear repulsion energy      1094.6335746050 Hartrees.
 IExCor=  402 DFT=T Ex+Corr=B3LYP ExCW=0 ScaHFX=  0.200000
 ScaDFX=  0.800000  0.720000  1.000000  0.810000 ScalE2=  1.000000  1.000000
 IRadAn=      5 IRanWt=     -1 IRanGd=            0 ICorTp=0 IEmpDi=141
 NAtoms=   27 NActive=   27 NUniq=   27 SFac= 1.00D+00 NAtFMM=   60 NAOKFM=F Big=F
 Integral buffers will be    131072 words long.
 Raffenetti 2 integral format.
 Two-electron integral symmetry is turned on.
 R6Disp:  Grimme-D3(BJ) Dispersion energy=       -0.0579586164 Hartrees.
 Nuclear repulsion after empirical dispersion term =     1094.5756159886 Hartrees.
 Leave Link  301 at Wed Oct 11 16:41:16 2023, MaxMem=  6710886400 cpu:               1.2 elap:               0.1
 (Enter /data0/home/software/g16/l302.exe)
 NPDir=0 NMtPBC=     1 NCelOv=     1 NCel=       1 NClECP=     1 NCelD=      1
         NCelK=      1 NCelE2=     1 NClLst=     1 CellRange=     0.0.
 One-electron integrals computed using PRISM.
 One-electron integral symmetry used in STVInt
 NBasis=   464 RedAO= T EigKep=  2.44D-06  NBF=   464
 NBsUse=   464 1.00D-06 EigRej= -1.00D+00 NBFU=   464
 Precomputing XC quadrature grid using
 IXCGrd= 4 IRadAn=           5 IRanWt=          -1 IRanGd=           0 AccXCQ= 0.00D+00.
 Generated NRdTot=       0 NPtTot=           0 NUsed=           0 NTot=          32
 NSgBfM=   492   492   492   492   492 MxSgAt=    27 MxSgA2=    27.
 Leave Link  302 at Wed Oct 11 16:41:16 2023, MaxMem=  6710886400 cpu:              10.1 elap:               0.4
 (Enter /data0/home/software/g16/l303.exe)
 DipDrv:  MaxL=1.
 Leave Link  303 at Wed Oct 11 16:41:16 2023, MaxMem=  6710886400 cpu:               1.1 elap:               0.1
 (Enter /data0/home/software/g16/l401.exe)
 ExpMin= 4.05D-02 ExpMax= 9.34D+04 ExpMxC= 3.17D+03 IAcc=3 IRadAn=         5 AccDes= 0.00D+00
 Harris functional with IExCor=  402 and IRadAn=       5 diagonalized for initial guess.
 HarFok:  IExCor=  402 AccDes= 0.00D+00 IRadAn=         5 IDoV= 1 UseB2=F ITyADJ=14
 ICtDFT=  3500011 ScaDFX=  1.000000  1.000000  1.000000  1.000000
 FoFCou: FMM=F IPFlag=           0 FMFlag=      100000 FMFlg1=           0
         NFxFlg=           0 DoJE=T BraDBF=F KetDBF=T FulRan=T
         wScrn=  0.000000 ICntrl=       500 IOpCl=  0 I1Cent=   200000004 NGrid=           0
         NMat0=    1 NMatS0=      1 NMatT0=    0 NMatD0=    1 NMtDS0=    0 NMtDT0=    0
 Petite list used in FoFCou.
 Harris En= -1029.72921438504    
 JPrj=0 DoOrth=F DoCkMO=F.
 Leave Link  401 at Wed Oct 11 16:41:18 2023, MaxMem=  6710886400 cpu:              38.1 elap:               1.6
 (Enter /data0/home/software/g16/l502.exe)
 Integral symmetry usage will be decided dynamically.
 Closed shell SCF:
 Using DIIS extrapolation, IDIIS=  1040.
 NGot=  6710886400 LenX=  6710385882 LenY=  6710143326
 Requested convergence on RMS density matrix=1.00D-08 within 128 cycles.
 Requested convergence on MAX density matrix=1.00D-06.
 Requested convergence on             energy=1.00D-06.
 No special actions if energy rises.
 Fock matrices will be formed incrementally for  20 cycles.

 Cycle   1  Pass 1  IDiag  1:
 FoFJK:  IHMeth= 1 ICntrl=       0 DoSepK=F KAlg= 0 I1Cent=           0 FoldK=F
 IRaf= 880000000 NMat=       1 IRICut=       1 DoRegI=T DoRafI=F ISym2E= 0 IDoP0=0 IntGTp=1.
 FoFCou: FMM=F IPFlag=           0 FMFlag=      100000 FMFlg1=           0
         NFxFlg=           0 DoJE=F BraDBF=F KetDBF=F FulRan=T
         wScrn=  0.000000 ICntrl=         0 IOpCl=  0 I1Cent=           0 NGrid=           0
         NMat0=    1 NMatS0=      1 NMatT0=    0 NMatD0=    1 NMtDS0=    0 NMtDT0=    0
 Symmetry not used in FoFCou.
 E= -1029.08524403785    
 DIIS: error= 2.21D-02 at cycle   1 NSaved=   1.
 NSaved= 1 IEnMin= 1 EnMin= -1029.08524403785     IErMin= 1 ErrMin= 2.21D-02
 ErrMax= 2.21D-02  0.00D+00 EMaxC= 1.00D-01 BMatC= 7.58D-01 BMatP= 7.58D-01
 IDIUse=3 WtCom= 7.79D-01 WtEn= 2.21D-01
 Coeff-Com:  0.100D+01
 Coeff-En:   0.100D+01
 Coeff:      0.100D+01
 Gap=     0.147 Goal=   None    Shift=    0.000
 GapD=    0.147 DampG=1.000 DampE=0.500 DampFc=0.5000 IDamp=-1.
 Damping current iteration by 5.00D-01
 RMSDP=5.81D-02 MaxDP=7.23D+00              OVMax= 9.21D-01

 Cycle   2  Pass 1  IDiag  1:
 RMSU=  2.75D-02    CP:  1.75D+00
 E= -1028.94593257390     Delta-E=        0.139311463949 Rises=F Damp=T
 DIIS: error= 1.55D-02 at cycle   2 NSaved=   2.
 NSaved= 2 IEnMin= 1 EnMin= -1029.08524403785     IErMin= 2 ErrMin= 1.55D-02
 ErrMax= 1.55D-02  0.00D+00 EMaxC= 1.00D-01 BMatC= 2.24D-01 BMatP= 7.58D-01
 IDIUse=3 WtCom= 8.45D-01 WtEn= 1.55D-01
 Coeff-Com:  0.311D+00 0.689D+00
 Coeff-En:   0.585D+00 0.415D+00
 Coeff:      0.353D+00 0.647D+00
 Gap=    -0.202 Goal=   None    Shift=    0.000
 RMSDP=2.85D-02 MaxDP=3.64D+00 DE= 1.39D-01 OVMax= 5.85D-01

 Cycle   3  Pass 1  IDiag  1:
 RMSU=  3.30D-03    CP:  1.01D+00  2.76D-02
 E= -1029.46891576794     Delta-E=       -0.522983194043 Rises=F Damp=F
 DIIS: error= 1.10D-02 at cycle   3 NSaved=   3.
 NSaved= 3 IEnMin= 3 EnMin= -1029.46891576794     IErMin= 3 ErrMin= 1.10D-02
 ErrMax= 1.10D-02  0.00D+00 EMaxC= 1.00D-01 BMatC= 1.56D-01 BMatP= 2.24D-01
 IDIUse=3 WtCom= 8.90D-01 WtEn= 1.10D-01
 Coeff-Com:  0.127D+00 0.439D+00 0.434D+00
 Coeff-En:   0.000D+00 0.298D-01 0.970D+00
 Coeff:      0.113D+00 0.394D+00 0.493D+00
 Gap=     0.205 Goal=   None    Shift=    0.000
 RMSDP=2.69D-03 MaxDP=1.68D-01 DE=-5.23D-01 OVMax= 8.83D-02

 Cycle   4  Pass 1  IDiag  1:
 RMSU=  2.19D-03    CP:  1.02D+00  5.94D-02  6.14D-01
 E= -1029.62493592082     Delta-E=       -0.156020152875 Rises=F Damp=F
 DIIS: error= 2.22D-03 at cycle   4 NSaved=   4.
 NSaved= 4 IEnMin= 4 EnMin= -1029.62493592082     IErMin= 4 ErrMin= 2.22D-03
 ErrMax= 2.22D-03  0.00D+00 EMaxC= 1.00D-01 BMatC= 8.72D-03 BMatP= 1.56D-01
 IDIUse=3 WtCom= 9.78D-01 WtEn= 2.22D-02
 Coeff-Com: -0.131D-01 0.148D+00 0.149D+00 0.716D+00
 Coeff-En:   0.000D+00 0.000D+00 0.000D+00 0.100D+01
 Coeff:     -0.128D-01 0.145D+00 0.146D+00 0.722D+00
 Gap=     0.118 Goal=   None    Shift=    0.000
 RMSDP=1.04D-03 MaxDP=1.09D-01 DE=-1.56D-01 OVMax= 2.71D-02

 Cycle   5  Pass 1  IDiag  1:
 RMSU=  8.69D-04    CP:  1.05D+00  7.26D-02  6.73D-01  1.09D+00
 E= -1029.62966460016     Delta-E=       -0.004728679345 Rises=F Damp=F
 DIIS: error= 2.01D-03 at cycle   5 NSaved=   5.
 NSaved= 5 IEnMin= 5 EnMin= -1029.62966460016     IErMin= 5 ErrMin= 2.01D-03
 ErrMax= 2.01D-03  0.00D+00 EMaxC= 1.00D-01 BMatC= 4.18D-03 BMatP= 8.72D-03
 IDIUse=3 WtCom= 9.80D-01 WtEn= 2.01D-02
 Coeff-Com: -0.246D-01 0.680D-01 0.253D-01 0.434D+00 0.497D+00
 Coeff-En:   0.000D+00 0.000D+00 0.000D+00 0.222D+00 0.778D+00
 Coeff:     -0.241D-01 0.667D-01 0.248D-01 0.430D+00 0.502D+00
 Gap=     0.116 Goal=   None    Shift=    0.000
 RMSDP=4.24D-04 MaxDP=4.40D-02 DE=-4.73D-03 OVMax= 2.09D-02

 Cycle   6  Pass 1  IDiag  1:
 RMSU=  2.56D-04    CP:  1.06D+00  8.08D-02  6.97D-01  1.17D+00  1.02D+00
 E= -1029.63319950143     Delta-E=       -0.003534901263 Rises=F Damp=F
 DIIS: error= 7.27D-04 at cycle   6 NSaved=   6.
 NSaved= 6 IEnMin= 6 EnMin= -1029.63319950143     IErMin= 6 ErrMin= 7.27D-04
 ErrMax= 7.27D-04  0.00D+00 EMaxC= 1.00D-01 BMatC= 4.65D-04 BMatP= 4.18D-03
 IDIUse=3 WtCom= 9.93D-01 WtEn= 7.27D-03
 Coeff-Com: -0.118D-01 0.165D-01-0.247D-01 0.935D-01 0.284D+00 0.643D+00
 Coeff-En:   0.000D+00 0.000D+00 0.000D+00 0.000D+00 0.000D+00 0.100D+01
 Coeff:     -0.117D-01 0.164D-01-0.245D-01 0.928D-01 0.282D+00 0.645D+00
 Gap=     0.114 Goal=   None    Shift=    0.000
 RMSDP=1.83D-04 MaxDP=1.67D-02 DE=-3.53D-03 OVMax= 5.24D-03

 Cycle   7  Pass 1  IDiag  1:
 RMSU=  9.67D-05    CP:  1.07D+00  8.30D-02  6.92D-01  1.22D+00  1.12D+00
                    CP:  9.18D-01
 E= -1029.63357821578     Delta-E=       -0.000378714350 Rises=F Damp=F
 DIIS: error= 1.92D-04 at cycle   7 NSaved=   7.
 NSaved= 7 IEnMin= 7 EnMin= -1029.63357821578     IErMin= 7 ErrMin= 1.92D-04
 ErrMax= 1.92D-04  0.00D+00 EMaxC= 1.00D-01 BMatC= 6.19D-05 BMatP= 4.65D-04
 IDIUse=3 WtCom= 9.98D-01 WtEn= 1.92D-03
 Coeff-Com: -0.350D-02 0.242D-02-0.185D-01-0.289D-02 0.970D-01 0.378D+00
 Coeff-Com:  0.548D+00
 Coeff-En:   0.000D+00 0.000D+00 0.000D+00 0.000D+00 0.000D+00 0.000D+00
 Coeff-En:   0.100D+01
 Coeff:     -0.349D-02 0.242D-02-0.185D-01-0.288D-02 0.968D-01 0.377D+00
 Coeff:      0.549D+00
 Gap=     0.113 Goal=   None    Shift=    0.000
 RMSDP=7.19D-05 MaxDP=7.56D-03 DE=-3.79D-04 OVMax= 2.11D-03

 Cycle   8  Pass 1  IDiag  1:
 RMSU=  3.02D-05    CP:  1.07D+00  8.40D-02  6.94D-01  1.23D+00  1.16D+00
                    CP:  1.02D+00  8.19D-01
 E= -1029.63363291608     Delta-E=       -0.000054700301 Rises=F Damp=F
 DIIS: error= 7.45D-05 at cycle   8 NSaved=   8.
 NSaved= 8 IEnMin= 8 EnMin= -1029.63363291608     IErMin= 8 ErrMin= 7.45D-05
 ErrMax= 7.45D-05  0.00D+00 EMaxC= 1.00D-01 BMatC= 4.79D-06 BMatP= 6.19D-05
 IDIUse=1 WtCom= 1.00D+00 WtEn= 0.00D+00
 Coeff-Com: -0.419D-03 0.352D-03-0.551D-02-0.909D-02 0.174D-01 0.109D+00
 Coeff-Com:  0.271D+00 0.617D+00
 Coeff:     -0.419D-03 0.352D-03-0.551D-02-0.909D-02 0.174D-01 0.109D+00
 Coeff:      0.271D+00 0.617D+00
 Gap=     0.113 Goal=   None    Shift=    0.000
 RMSDP=1.72D-05 MaxDP=1.56D-03 DE=-5.47D-05 OVMax= 1.01D-03

 Cycle   9  Pass 1  IDiag  1:
 RMSU=  1.13D-05    CP:  1.07D+00  8.38D-02  6.94D-01  1.23D+00  1.15D+00
                    CP:  9.98D-01  8.31D-01  7.64D-01
 E= -1029.63363617365     Delta-E=       -0.000003257573 Rises=F Damp=F
 DIIS: error= 3.48D-05 at cycle   9 NSaved=   9.
 NSaved= 9 IEnMin= 9 EnMin= -1029.63363617365     IErMin= 9 ErrMin= 3.48D-05
 ErrMax= 3.48D-05  0.00D+00 EMaxC= 1.00D-01 BMatC= 1.32D-06 BMatP= 4.79D-06
 IDIUse=1 WtCom= 1.00D+00 WtEn= 0.00D+00
 Coeff-Com:  0.476D-04 0.836D-04-0.175D-02-0.543D-02 0.248D-02 0.345D-01
 Coeff-Com:  0.120D+00 0.404D+00 0.445D+00
 Coeff:      0.476D-04 0.836D-04-0.175D-02-0.543D-02 0.248D-02 0.345D-01
 Coeff:      0.120D+00 0.404D+00 0.445D+00
 Gap=     0.113 Goal=   None    Shift=    0.000
 RMSDP=6.72D-06 MaxDP=6.49D-04 DE=-3.26D-06 OVMax= 4.13D-04

 Cycle  10  Pass 1  IDiag  1:
 RMSU=  3.94D-06    CP:  1.07D+00  8.38D-02  6.95D-01  1.23D+00  1.15D+00
                    CP:  1.01D+00  8.49D-01  8.15D-01  6.69D-01
 E= -1029.63363744558     Delta-E=       -0.000001271933 Rises=F Damp=F
 DIIS: error= 5.76D-06 at cycle  10 NSaved=  10.
 NSaved=10 IEnMin=10 EnMin= -1029.63363744558     IErMin=10 ErrMin= 5.76D-06
 ErrMax= 5.76D-06  0.00D+00 EMaxC= 1.00D-01 BMatC= 5.64D-08 BMatP= 1.32D-06
 IDIUse=1 WtCom= 1.00D+00 WtEn= 0.00D+00
 Coeff-Com:  0.462D-04-0.324D-04-0.144D-03-0.120D-02-0.643D-03 0.164D-02
 Coeff-Com:  0.186D-01 0.112D+00 0.206D+00 0.664D+00
 Coeff:      0.462D-04-0.324D-04-0.144D-03-0.120D-02-0.643D-03 0.164D-02
 Coeff:      0.186D-01 0.112D+00 0.206D+00 0.664D+00
 Gap=     0.113 Goal=   None    Shift=    0.000
 RMSDP=1.35D-06 MaxDP=7.23D-05 DE=-1.27D-06 OVMax= 1.08D-04

 Cycle  11  Pass 1  IDiag  1:
 RMSU=  1.06D-06    CP:  1.07D+00  8.38D-02  6.95D-01  1.23D+00  1.15D+00
                    CP:  1.01D+00  8.50D-01  8.17D-01  7.04D-01  8.38D-01
 E= -1029.63363749572     Delta-E=       -0.000000050142 Rises=F Damp=F
 DIIS: error= 2.58D-06 at cycle  11 NSaved=  11.
 NSaved=11 IEnMin=11 EnMin= -1029.63363749572     IErMin=11 ErrMin= 2.58D-06
 ErrMax= 2.58D-06  0.00D+00 EMaxC= 1.00D-01 BMatC= 1.13D-08 BMatP= 5.64D-08
 IDIUse=1 WtCom= 1.00D+00 WtEn= 0.00D+00
 Coeff-Com:  0.101D-04-0.889D-05 0.109D-03-0.147D-04-0.361D-03-0.268D-02
 Coeff-Com: -0.240D-02 0.202D-01 0.612D-01 0.370D+00 0.554D+00
 Coeff:      0.101D-04-0.889D-05 0.109D-03-0.147D-04-0.361D-03-0.268D-02
 Coeff:     -0.240D-02 0.202D-01 0.612D-01 0.370D+00 0.554D+00
 Gap=     0.113 Goal=   None    Shift=    0.000
 RMSDP=6.04D-07 MaxDP=6.51D-05 DE=-5.01D-08 OVMax= 2.58D-05

 Cycle  12  Pass 1  IDiag  1:
 RMSU=  4.41D-07    CP:  1.07D+00  8.38D-02  6.95D-01  1.23D+00  1.15D+00
                    CP:  1.01D+00  8.51D-01  8.21D-01  6.95D-01  9.16D-01
                    CP:  8.70D-01
 E= -1029.63363750515     Delta-E=       -0.000000009424 Rises=F Damp=F
 DIIS: error= 9.06D-07 at cycle  12 NSaved=  12.
 NSaved=12 IEnMin=12 EnMin= -1029.63363750515     IErMin=12 ErrMin= 9.06D-07
 ErrMax= 9.06D-07  0.00D+00 EMaxC= 1.00D-01 BMatC= 1.27D-09 BMatP= 1.13D-08
 IDIUse=1 WtCom= 1.00D+00 WtEn= 0.00D+00
 Coeff-Com:  0.288D-05-0.241D-05 0.672D-04 0.575D-04-0.920D-04-0.157D-02
 Coeff-Com: -0.249D-02 0.226D-02 0.132D-01 0.146D+00 0.309D+00 0.533D+00
 Coeff:      0.288D-05-0.241D-05 0.672D-04 0.575D-04-0.920D-04-0.157D-02
 Coeff:     -0.249D-02 0.226D-02 0.132D-01 0.146D+00 0.309D+00 0.533D+00
 Gap=     0.113 Goal=   None    Shift=    0.000
 RMSDP=3.03D-07 MaxDP=2.83D-05 DE=-9.42D-09 OVMax= 1.08D-05

 Cycle  13  Pass 1  IDiag  1:
 RMSU=  1.67D-07    CP:  1.07D+00  8.38D-02  6.95D-01  1.23D+00  1.15D+00
                    CP:  1.01D+00  8.51D-01  8.22D-01  7.04D-01  9.17D-01
                    CP:  8.65D-01  7.14D-01
 E= -1029.63363750602     Delta-E=       -0.000000000869 Rises=F Damp=F
 DIIS: error= 4.30D-07 at cycle  13 NSaved=  13.
 NSaved=13 IEnMin=13 EnMin= -1029.63363750602     IErMin=13 ErrMin= 4.30D-07
 ErrMax= 4.30D-07  0.00D+00 EMaxC= 1.00D-01 BMatC= 2.79D-10 BMatP= 1.27D-09
 IDIUse=1 WtCom= 1.00D+00 WtEn= 0.00D+00
 Coeff-Com:  0.568D-06-0.264D-05 0.288D-04 0.422D-04 0.109D-04-0.668D-03
 Coeff-Com: -0.135D-02-0.205D-02-0.249D-02 0.344D-01 0.107D+00 0.345D+00
 Coeff-Com:  0.520D+00
 Coeff:      0.568D-06-0.264D-05 0.288D-04 0.422D-04 0.109D-04-0.668D-03
 Coeff:     -0.135D-02-0.205D-02-0.249D-02 0.344D-01 0.107D+00 0.345D+00
 Coeff:      0.520D+00
 Gap=     0.113 Goal=   None    Shift=    0.000
 RMSDP=9.92D-08 MaxDP=6.99D-06 DE=-8.69D-10 OVMax= 4.13D-06

 Cycle  14  Pass 1  IDiag  1:
 RMSU=  5.44D-08    CP:  1.07D+00  8.38D-02  6.95D-01  1.23D+00  1.15D+00
                    CP:  1.01D+00  8.51D-01  8.22D-01  7.03D-01  9.21D-01
                    CP:  8.86D-01  8.07D-01  7.19D-01
 E= -1029.63363750629     Delta-E=       -0.000000000269 Rises=F Damp=F
 DIIS: error= 1.18D-07 at cycle  14 NSaved=  14.
 NSaved=14 IEnMin=14 EnMin= -1029.63363750629     IErMin=14 ErrMin= 1.18D-07
 ErrMax= 1.18D-07  0.00D+00 EMaxC= 1.00D-01 BMatC= 1.97D-11 BMatP= 2.79D-10
 IDIUse=1 WtCom= 1.00D+00 WtEn= 0.00D+00
 Coeff-Com:  0.282D-06-0.182D-05 0.413D-05 0.716D-05 0.285D-04-0.897D-04
 Coeff-Com: -0.245D-03-0.118D-02-0.336D-02-0.381D-02 0.463D-02 0.901D-01
 Coeff-Com:  0.246D+00 0.668D+00
 Coeff:      0.282D-06-0.182D-05 0.413D-05 0.716D-05 0.285D-04-0.897D-04
 Coeff:     -0.245D-03-0.118D-02-0.336D-02-0.381D-02 0.463D-02 0.901D-01
 Coeff:      0.246D+00 0.668D+00
 Gap=     0.113 Goal=   None    Shift=    0.000
 RMSDP=3.50D-08 MaxDP=2.83D-06 DE=-2.69D-10 OVMax= 1.55D-06

 Cycle  15  Pass 1  IDiag  1:
 RMSU=  1.63D-08    CP:  1.07D+00  8.38D-02  6.95D-01  1.23D+00  1.15D+00
                    CP:  1.01D+00  8.51D-01  8.22D-01  7.02D-01  9.23D-01
                    CP:  8.95D-01  8.07D-01  7.66D-01  8.63D-01
 E= -1029.63363750630     Delta-E=       -0.000000000018 Rises=F Damp=F
 DIIS: error= 5.14D-08 at cycle  15 NSaved=  15.
 NSaved=15 IEnMin=15 EnMin= -1029.63363750630     IErMin=15 ErrMin= 5.14D-08
 ErrMax= 5.14D-08  0.00D+00 EMaxC= 1.00D-01 BMatC= 2.79D-12 BMatP= 1.97D-11
 IDIUse=1 WtCom= 1.00D+00 WtEn= 0.00D+00
 Coeff-Com:  0.272D-06-0.606D-06 0.412D-06 0.243D-06 0.148D-04 0.120D-04
 Coeff-Com: -0.642D-05-0.407D-03-0.156D-02-0.489D-02-0.801D-02 0.153D-01
 Coeff-Com:  0.780D-01 0.351D+00 0.571D+00
 Coeff:      0.272D-06-0.606D-06 0.412D-06 0.243D-06 0.148D-04 0.120D-04
 Coeff:     -0.642D-05-0.407D-03-0.156D-02-0.489D-02-0.801D-02 0.153D-01
 Coeff:      0.780D-01 0.351D+00 0.571D+00
 Gap=     0.113 Goal=   None    Shift=    0.000
 RMSDP=1.20D-08 MaxDP=1.17D-06 DE=-1.77D-11 OVMax= 6.02D-07

 Cycle  16  Pass 1  IDiag  1:
 RMSU=  5.97D-09    CP:  1.07D+00  8.38D-02  6.95D-01  1.23D+00  1.15D+00
                    CP:  1.01D+00  8.51D-01  8.22D-01  7.02D-01  9.23D-01
                    CP:  8.95D-01  8.12D-01  7.68D-01  8.86D-01  8.57D-01
 E= -1029.63363750631     Delta-E=       -0.000000000007 Rises=F Damp=F
 DIIS: error= 2.10D-08 at cycle  16 NSaved=  16.
 NSaved=16 IEnMin=16 EnMin= -1029.63363750631     IErMin=16 ErrMin= 2.10D-08
 ErrMax= 2.10D-08  0.00D+00 EMaxC= 1.00D-01 BMatC= 5.16D-13 BMatP= 2.79D-12
 IDIUse=1 WtCom= 1.00D+00 WtEn= 0.00D+00
 Coeff-Com:  0.130D-06-0.220D-06-0.157D-06-0.172D-06 0.693D-05 0.190D-04
 Coeff-Com:  0.253D-04-0.109D-03-0.574D-03-0.250D-02-0.571D-02-0.158D-02
 Coeff-Com:  0.170D-01 0.138D+00 0.355D+00 0.500D+00
 Coeff:      0.130D-06-0.220D-06-0.157D-06-0.172D-06 0.693D-05 0.190D-04
 Coeff:      0.253D-04-0.109D-03-0.574D-03-0.250D-02-0.571D-02-0.158D-02
 Coeff:      0.170D-01 0.138D+00 0.355D+00 0.500D+00
 Gap=     0.113 Goal=   None    Shift=    0.000
 RMSDP=4.02D-09 MaxDP=2.16D-07 DE=-7.28D-12 OVMax= 2.27D-07

 SCF Done:  E(RB3LYP) =  -1029.63363751     A.U. after   16 cycles
            NFock= 16  Conv=0.40D-08     -V/T= 2.0030
 KE= 1.026513776718D+03 PE=-4.609947019607D+03 EE= 1.459223989394D+03
 Leave Link  502 at Wed Oct 11 16:42:23 2023, MaxMem=  6710886400 cpu:            1548.2 elap:              64.7
 (Enter /data0/home/software/g16/l601.exe)
 Copying SCF densities to generalized density rwf, IOpCl= 0 IROHF=0.

 **********************************************************************

            Population analysis using the SCF density.

 **********************************************************************

 Orbital symmetries:
       Occupied  (A) (A) (A) (A) (A) (A) (A) (A) (A) (A) (A) (A)
                 (A) (A) (A) (A) (A) (A) (A) (A) (A) (A) (A) (A)
                 (A) (A) (A) (A) (A) (A) (A) (A) (A) (A) (A) (A)
                 (A) (A) (A) (A) (A) (A) (A) (A) (A) (A) (A) (A)
                 (A) (A) (A) (A) (A) (A) (A) (A) (A)
       Virtual   (A) (A) (A) (A) (A) (A) (A) (A) (A) (A) (A) (A)
                 (A) (A) (A) (A) (A) (A) (A) (A) (A) (A) (A) (A)
                 (A) (A) (A) (A) (A) (A) (A) (A) (A) (A) (A) (A)
                 (A) (A) (A) (A) (A) (A) (A) (A) (A) (A) (A) (A)
                 (A) (A) (A) (A) (A) (A) (A) (A) (A) (A) (A) (A)
                 (A) (A) (A) (A) (A) (A) (A) (A) (A) (A) (A) (A)
                 (A) (A) (A) (A) (A) (A) (A) (A) (A) (A) (A) (A)
                 (A) (A) (A) (A) (A) (A) (A) (A) (A) (A) (A) (A)
                 (A) (A) (A) (A) (A) (A) (A) (A) (A) (A) (A) (A)
                 (A) (A) (A) (A) (A) (A) (A) (A) (A) (A) (A) (A)
                 (A) (A) (A) (A) (A) (A) (A) (A) (A) (A) (A) (A)
                 (A) (A) (A) (A) (A) (A) (A) (A) (A) (A) (A) (A)
                 (A) (A) (A) (A) (A) (A) (A) (A) (A) (A) (A) (A)
                 (A) (A) (A) (A) (A) (A) (A) (A) (A) (A) (A) (A)
                 (A) (A) (A) (A) (A) (A) (A) (A) (A) (A) (A) (A)
                 (A) (A) (A) (A) (A) (A) (A) (A) (A) (A) (A) (A)
                 (A) (A) (A) (A) (A) (A) (A) (A) (A) (A) (A) (A)
                 (A) (A) (A) (A) (A) (A) (A) (A) (A) (A) (A) (A)
                 (A) (A) (A) (A) (A) (A) (A) (A) (A) (A) (A) (A)
                 (A) (A) (A) (A) (A) (A) (A) (A) (A) (A) (A) (A)
                 (A) (A) (A) (A) (A) (A) (A) (A) (A) (A) (A) (A)
                 (A) (A) (A) (A) (A) (A) (A) (A) (A) (A) (A) (A)
                 (A) (A) (A) (A) (A) (A) (A) (A) (A) (A) (A) (A)
                 (A) (A) (A) (A) (A) (A) (A) (A) (A) (A) (A) (A)
                 (A) (A) (A) (A) (A) (A) (A) (A) (A) (A) (A) (A)
                 (A) (A) (A) (A) (A) (A) (A) (A) (A) (A) (A) (A)
                 (A) (A) (A) (A) (A) (A) (A) (A) (A) (A) (A) (A)
                 (A) (A) (A) (A) (A) (A) (A) (A) (A) (A) (A) (A)
                 (A) (A) (A) (A) (A) (A) (A) (A) (A) (A) (A) (A)
                 (A) (A) (A) (A) (A) (A) (A) (A) (A) (A) (A) (A)
                 (A) (A) (A) (A) (A) (A) (A) (A) (A) (A) (A) (A)
                 (A) (A) (A) (A) (A) (A) (A) (A) (A) (A) (A) (A)
                 (A) (A) (A) (A) (A) (A) (A) (A) (A) (A) (A) (A)
                 (A) (A) (A) (A) (A) (A) (A) (A) (A) (A) (A)
 The electronic state is 1-A.
 Alpha  occ. eigenvalues --  -88.99350 -19.05579 -19.05453 -19.05028 -14.44921
 Alpha  occ. eigenvalues --  -10.27653 -10.26645 -10.24893 -10.24880 -10.24422
 Alpha  occ. eigenvalues --  -10.23137 -10.21759 -10.19832 -10.17520  -8.04928
 Alpha  occ. eigenvalues --   -6.01226  -6.01203  -6.01174  -1.07291  -1.05860
 Alpha  occ. eigenvalues --   -0.94056  -0.93365  -0.89437  -0.84605  -0.81480
 Alpha  occ. eigenvalues --   -0.76700  -0.74258  -0.69505  -0.67622  -0.63878
 Alpha  occ. eigenvalues --   -0.58299  -0.56479  -0.54070  -0.53076  -0.51007
 Alpha  occ. eigenvalues --   -0.50611  -0.48515  -0.47476  -0.46214  -0.45835
 Alpha  occ. eigenvalues --   -0.44858  -0.43709  -0.42767  -0.41809  -0.41328
 Alpha  occ. eigenvalues --   -0.40762  -0.39691  -0.37911  -0.36678  -0.34289
 Alpha  occ. eigenvalues --   -0.32336  -0.29558  -0.29207  -0.26043  -0.25906
 Alpha  occ. eigenvalues --   -0.25126  -0.22087
 Alpha virt. eigenvalues --   -0.10740  -0.06896  -0.02824  -0.01121  -0.00361
 Alpha virt. eigenvalues --    0.00344   0.01067   0.02051   0.02764   0.02916
 Alpha virt. eigenvalues --    0.04386   0.04852   0.05158   0.05453   0.05907
 Alpha virt. eigenvalues --    0.06419   0.07329   0.07480   0.08357   0.08957
 Alpha virt. eigenvalues --    0.09623   0.09780   0.10231   0.10844   0.10946
 Alpha virt. eigenvalues --    0.11451   0.11667   0.12391   0.13057   0.13180
 Alpha virt. eigenvalues --    0.13756   0.14156   0.14388   0.15176   0.15575
 Alpha virt. eigenvalues --    0.15950   0.16457   0.16788   0.17034   0.17238
 Alpha virt. eigenvalues --    0.17446   0.17582   0.17717   0.18102   0.18762
 Alpha virt. eigenvalues --    0.19408   0.19942   0.20355   0.20528   0.20805
 Alpha virt. eigenvalues --    0.21280   0.21735   0.22267   0.22296   0.23160
 Alpha virt. eigenvalues --    0.23436   0.24381   0.24843   0.25511   0.25802
 Alpha virt. eigenvalues --    0.26223   0.26677   0.27123   0.28190   0.28920
 Alpha virt. eigenvalues --    0.29384   0.30041   0.30691   0.31085   0.31501
 Alpha virt. eigenvalues --    0.31892   0.32798   0.33376   0.34319   0.34980
 Alpha virt. eigenvalues --    0.35482   0.35784   0.35991   0.36725   0.38247
 Alpha virt. eigenvalues --    0.38726   0.38937   0.39391   0.40400   0.41897
 Alpha virt. eigenvalues --    0.42179   0.42656   0.43552   0.44548   0.44830
 Alpha virt. eigenvalues --    0.46059   0.47092   0.47122   0.48575   0.49118
 Alpha virt. eigenvalues --    0.49496   0.50387   0.51030   0.51511   0.52156
 Alpha virt. eigenvalues --    0.53397   0.54615   0.54786   0.55783   0.56073
 Alpha virt. eigenvalues --    0.57128   0.58280   0.58673   0.59996   0.60687
 Alpha virt. eigenvalues --    0.61169   0.61279   0.61991   0.62471   0.63077
 Alpha virt. eigenvalues --    0.64118   0.65157   0.65913   0.66365   0.66694
 Alpha virt. eigenvalues --    0.68356   0.68555   0.69472   0.69678   0.70542
 Alpha virt. eigenvalues --    0.71051   0.72962   0.73498   0.73759   0.74880
 Alpha virt. eigenvalues --    0.76244   0.76979   0.77994   0.78880   0.79899
 Alpha virt. eigenvalues --    0.80414   0.80507   0.81901   0.83741   0.84023
 Alpha virt. eigenvalues --    0.85326   0.86037   0.87136   0.88191   0.89246
 Alpha virt. eigenvalues --    0.89744   0.91788   0.92691   0.94300   0.94913
 Alpha virt. eigenvalues --    0.96599   0.97406   0.98870   1.00691   1.02330
 Alpha virt. eigenvalues --    1.03574   1.03940   1.05452   1.06749   1.08940
 Alpha virt. eigenvalues --    1.10965   1.11985   1.13075   1.14508   1.15034
 Alpha virt. eigenvalues --    1.16701   1.18153   1.19424   1.20248   1.21239
 Alpha virt. eigenvalues --    1.22159   1.22555   1.23848   1.24222   1.25456
 Alpha virt. eigenvalues --    1.26543   1.27078   1.27148   1.28070   1.29258
 Alpha virt. eigenvalues --    1.30001   1.31193   1.32278   1.33229   1.33689
 Alpha virt. eigenvalues --    1.34824   1.35018   1.37134   1.37177   1.39505
 Alpha virt. eigenvalues --    1.41270   1.41734   1.42242   1.43403   1.43859
 Alpha virt. eigenvalues --    1.46302   1.49289   1.50615   1.51073   1.53544
 Alpha virt. eigenvalues --    1.54861   1.57044   1.57750   1.58057   1.59964
 Alpha virt. eigenvalues --    1.61105   1.62690   1.64589   1.66368   1.67542
 Alpha virt. eigenvalues --    1.68961   1.69549   1.70977   1.72552   1.73537
 Alpha virt. eigenvalues --    1.75971   1.76939   1.79663   1.81025   1.81842
 Alpha virt. eigenvalues --    1.83695   1.84171   1.84724   1.86892   1.87816
 Alpha virt. eigenvalues --    1.89046   1.90363   1.94129   1.94356   1.96138
 Alpha virt. eigenvalues --    1.97525   1.98317   2.01102   2.04906   2.08123
 Alpha virt. eigenvalues --    2.10115   2.12935   2.13169   2.14859   2.15051
 Alpha virt. eigenvalues --    2.15941   2.17909   2.19413   2.22897   2.25068
 Alpha virt. eigenvalues --    2.25751   2.27588   2.28575   2.28900   2.31348
 Alpha virt. eigenvalues --    2.31655   2.33241   2.35208   2.36518   2.38076
 Alpha virt. eigenvalues --    2.39442   2.40649   2.43810   2.46189   2.47031
 Alpha virt. eigenvalues --    2.48169   2.51310   2.54554   2.59016   2.59480
 Alpha virt. eigenvalues --    2.61258   2.68793   2.69724   2.70296   2.70972
 Alpha virt. eigenvalues --    2.72465   2.73683   2.74223   2.76914   2.78117
 Alpha virt. eigenvalues --    2.80205   2.80903   2.82253   2.83185   2.85833
 Alpha virt. eigenvalues --    2.86953   2.88806   2.90551   2.91583   2.93168
 Alpha virt. eigenvalues --    2.94838   2.96198   2.98319   3.01114   3.03954
 Alpha virt. eigenvalues --    3.07876   3.09793   3.10502   3.13681   3.14911
 Alpha virt. eigenvalues --    3.15909   3.16948   3.23589   3.25071   3.26631
 Alpha virt. eigenvalues --    3.27818   3.29693   3.30770   3.32871   3.34739
 Alpha virt. eigenvalues --    3.36533   3.38832   3.39227   3.41331   3.42285
 Alpha virt. eigenvalues --    3.44821   3.45656   3.46409   3.48425   3.49013
 Alpha virt. eigenvalues --    3.50810   3.52785   3.53421   3.55446   3.58049
 Alpha virt. eigenvalues --    3.59023   3.59562   3.60727   3.61899   3.63126
 Alpha virt. eigenvalues --    3.64869   3.65603   3.66445   3.66896   3.69726
 Alpha virt. eigenvalues --    3.72191   3.72772   3.74002   3.75593   3.78081
 Alpha virt. eigenvalues --    3.80122   3.83214   3.86556   3.89531   3.91463
 Alpha virt. eigenvalues --    3.95485   3.96849   3.99232   4.03006   4.03871
 Alpha virt. eigenvalues --    4.11332   4.15927   4.17381   4.20545   4.26987
 Alpha virt. eigenvalues --    4.27468   4.32828   4.38831   4.51038   4.53519
 Alpha virt. eigenvalues --    4.61232   4.71714   4.97434   4.99069   5.07018
 Alpha virt. eigenvalues --    5.08359   5.11451   5.12888   5.13449   5.16097
 Alpha virt. eigenvalues --    5.18832   5.26162   5.28269   5.34675   5.40979
 Alpha virt. eigenvalues --    5.47109   5.53557   5.60132   5.81898   6.82154
 Alpha virt. eigenvalues --    6.82742   6.85539   6.88721   6.90756   6.94812
 Alpha virt. eigenvalues --    6.97378   6.99253   7.01031   7.07707   7.23274
 Alpha virt. eigenvalues --    7.24103   7.32426   7.45087   7.46371   8.47221
 Alpha virt. eigenvalues --   17.58642  17.60795  17.69042  23.74719  23.90297
 Alpha virt. eigenvalues --   23.91248  23.96331  23.99045  24.02763  24.04560
 Alpha virt. eigenvalues --   24.06258  24.17870  35.60004  49.98447  50.01196
 Alpha virt. eigenvalues --   50.09929 189.62729
          Condensed to atoms (all electrons):
               1          2          3          4          5          6
     1  C    8.548895  -2.037451   0.508561  -0.611903  -0.533336  -0.004031
     2  C   -2.037451   7.485899  -0.517772   0.796982  -0.254180  -0.027643
     3  C    0.508561  -0.517772   6.394194  -0.286450   0.086454   0.366947
     4  C   -0.611903   0.796982  -0.286450   6.509387  -0.664474  -0.030846
     5  C   -0.533336  -0.254180   0.086454  -0.664474   6.965610   0.040317
     6  H   -0.004031  -0.027643   0.366947  -0.030846   0.040317   0.554436
     7  H    0.407089  -0.012859  -0.004537   0.011751  -0.006828  -0.000157
     8  H   -0.050775   0.422712  -0.052244   0.018232  -0.001459  -0.005841
     9  H    0.024903  -0.020084   0.039652  -0.005602   0.352304  -0.000267
    10  C   -0.181605   0.104752  -0.215543  -0.032625   0.178838  -0.009213
    11  H    0.005966  -0.003879   0.025823  -0.132000   0.013306  -0.000015
    12  H    0.004881  -0.009371  -0.022231   0.021881  -0.009847   0.001244
    13  H   -0.006937   0.004844  -0.053179   0.011327   0.022059   0.001308
    14  N    0.143163   0.112447  -0.126909   0.020994   0.328766   0.001846
    15  C   -0.011370  -0.092117  -0.028337  -0.200004   0.075529   0.000070
    16  H    0.007845   0.004385   0.005234   0.038304  -0.003243  -0.000002
    17  H   -0.013668   0.018756  -0.000694  -0.008536   0.000400  -0.000002
    18  C    0.011409  -0.014259  -0.044824   0.230311  -0.326132   0.000171
    19  H   -0.011553  -0.007594   0.000846  -0.004063   0.017535  -0.000002
    20  H    0.001148   0.003606  -0.000959  -0.009163   0.001273   0.000000
    21  C    0.116229  -0.067807   0.051200  -0.161079   0.192512  -0.000056
    22  H   -0.007136  -0.000234  -0.000279   0.001079   0.001261   0.000000
    23  H    0.004119   0.002158  -0.000440  -0.001717  -0.000003   0.000000
    24  S   -0.032155  -0.071061  -0.020519   0.027931  -0.065257  -0.000014
    25  O   -0.000665   0.006565   0.000843  -0.001469   0.005397   0.000000
    26  O    0.055729  -0.023031   0.001826  -0.024814   0.045174   0.000021
    27  O   -0.061113   0.053981  -0.017572   0.027843  -0.015565   0.000010
               7          8          9         10         11         12
     1  C    0.407089  -0.050775   0.024903  -0.181605   0.005966   0.004881
     2  C   -0.012859   0.422712  -0.020084   0.104752  -0.003879  -0.009371
     3  C   -0.004537  -0.052244   0.039652  -0.215543   0.025823  -0.022231
     4  C    0.011751   0.018232  -0.005602  -0.032625  -0.132000   0.021881
     5  C   -0.006828  -0.001459   0.352304   0.178838   0.013306  -0.009847
     6  H   -0.000157  -0.005841  -0.000267  -0.009213  -0.000015   0.001244
     7  H    0.441371  -0.002404  -0.000079   0.001849  -0.000002  -0.000003
     8  H   -0.002404   0.538856   0.000069   0.001458   0.000016  -0.000014
     9  H   -0.000079   0.000069   0.531479  -0.009779   0.005886  -0.000106
    10  C    0.001849   0.001458  -0.009779   5.609983   0.455316   0.378951
    11  H   -0.000002   0.000016   0.005886   0.455316   0.545098  -0.021638
    12  H   -0.000003  -0.000014  -0.000106   0.378951  -0.021638   0.531691
    13  H    0.000002  -0.000010  -0.000108   0.382202  -0.022177  -0.034997
    14  N   -0.055913   0.008258  -0.047986  -0.038183   0.000831   0.001021
    15  C   -0.014603  -0.000694  -0.002895  -0.070382   0.000383  -0.001075
    16  H    0.000387   0.000023   0.002496   0.001280   0.000019   0.000004
    17  H    0.004614  -0.000008   0.000441   0.000463   0.000002   0.000000
    18  C    0.023573   0.000855   0.008510   0.016389   0.000947   0.000310
    19  H    0.000649   0.000005   0.000068   0.001049   0.000022  -0.000007
    20  H   -0.000091  -0.000000  -0.000442   0.000322  -0.000003  -0.000000
    21  C   -0.011844   0.000144  -0.002649   0.003486   0.000085  -0.000036
    22  H    0.000399   0.000001   0.000006   0.000092  -0.000000   0.000000
    23  H   -0.000172  -0.000001   0.000004  -0.000057   0.000000  -0.000000
    24  S   -0.005901  -0.000172   0.000505  -0.005416   0.000001  -0.000038
    25  O   -0.000908  -0.000011  -0.000010  -0.000176  -0.000000   0.000000
    26  O   -0.022970  -0.000891   0.000301   0.005546   0.000000  -0.000096
    27  O    0.026323   0.000605   0.000045   0.001737   0.000000  -0.000002
              13         14         15         16         17         18
     1  C   -0.006937   0.143163  -0.011370   0.007845  -0.013668   0.011409
     2  C    0.004844   0.112447  -0.092117   0.004385   0.018756  -0.014259
     3  C   -0.053179  -0.126909  -0.028337   0.005234  -0.000694  -0.044824
     4  C    0.011327   0.020994  -0.200004   0.038304  -0.008536   0.230311
     5  C    0.022059   0.328766   0.075529  -0.003243   0.000400  -0.326132
     6  H    0.001308   0.001846   0.000070  -0.000002  -0.000002   0.000171
     7  H    0.000002  -0.055913  -0.014603   0.000387   0.004614   0.023573
     8  H   -0.000010   0.008258  -0.000694   0.000023  -0.000008   0.000855
     9  H   -0.000108  -0.047986  -0.002895   0.002496   0.000441   0.008510
    10  C    0.382202  -0.038183  -0.070382   0.001280   0.000463   0.016389
    11  H   -0.022177   0.000831   0.000383   0.000019   0.000002   0.000947
    12  H   -0.034997   0.001021  -0.001075   0.000004   0.000000   0.000310
    13  H    0.541956   0.000638   0.001489  -0.000014  -0.000001  -0.000240
    14  N    0.000638   6.155743   0.158597  -0.043579  -0.060302  -0.009446
    15  C    0.001489   0.158597   6.131387   0.337094   0.498703  -0.342552
    16  H   -0.000014  -0.043579   0.337094   0.586332  -0.021781  -0.033648
    17  H   -0.000001  -0.060302   0.498703  -0.021781   0.445695  -0.069733
    18  C   -0.000240  -0.009446  -0.342552  -0.033648  -0.069733   6.757164
    19  H   -0.000000   0.005200  -0.067099   0.002157   0.004518   0.460407
    20  H    0.000000  -0.000932   0.005108  -0.015419   0.001753   0.334582
    21  C   -0.000011   0.027293   0.002447   0.009629   0.003105  -1.188891
    22  H   -0.000000   0.001468  -0.022073   0.000140   0.002308  -0.032280
    23  H    0.000000  -0.001420   0.031488  -0.000183  -0.000099  -0.102938
    24  S    0.000044   0.009506   0.046689  -0.004630  -0.010861   0.266890
    25  O   -0.000000   0.001306   0.000302   0.000033  -0.000708   0.004833
    26  O    0.000030   0.017288  -0.038617   0.000421  -0.000899  -0.034907
    27  O    0.000001   0.003144  -0.082654   0.003098   0.013150   0.038706
              19         20         21         22         23         24
     1  C   -0.011553   0.001148   0.116229  -0.007136   0.004119  -0.032155
     2  C   -0.007594   0.003606  -0.067807  -0.000234   0.002158  -0.071061
     3  C    0.000846  -0.000959   0.051200  -0.000279  -0.000440  -0.020519
     4  C   -0.004063  -0.009163  -0.161079   0.001079  -0.001717   0.027931
     5  C    0.017535   0.001273   0.192512   0.001261  -0.000003  -0.065257
     6  H   -0.000002   0.000000  -0.000056   0.000000   0.000000  -0.000014
     7  H    0.000649  -0.000091  -0.011844   0.000399  -0.000172  -0.005901
     8  H    0.000005  -0.000000   0.000144   0.000001  -0.000001  -0.000172
     9  H    0.000068  -0.000442  -0.002649   0.000006   0.000004   0.000505
    10  C    0.001049   0.000322   0.003486   0.000092  -0.000057  -0.005416
    11  H    0.000022  -0.000003   0.000085  -0.000000   0.000000   0.000001
    12  H   -0.000007  -0.000000  -0.000036   0.000000  -0.000000  -0.000038
    13  H   -0.000000   0.000000  -0.000011  -0.000000   0.000000   0.000044
    14  N    0.005200  -0.000932   0.027293   0.001468  -0.001420   0.009506
    15  C   -0.067099   0.005108   0.002447  -0.022073   0.031488   0.046689
    16  H    0.002157  -0.015419   0.009629   0.000140  -0.000183  -0.004630
    17  H    0.004518   0.001753   0.003105   0.002308  -0.000099  -0.010861
    18  C    0.460407   0.334582  -1.188891  -0.032280  -0.102938   0.266890
    19  H    0.555387  -0.038551  -0.051681   0.007989  -0.007948   0.005954
    20  H   -0.038551   0.614133   0.016560  -0.009231  -0.003535  -0.005973
    21  C   -0.051681   0.016560   7.056069   0.429025   0.487734  -0.218041
    22  H    0.007989  -0.009231   0.429025   0.534752  -0.034855  -0.042166
    23  H   -0.007948  -0.003535   0.487734  -0.034855   0.525350  -0.073092
    24  S    0.005954  -0.005973  -0.218041  -0.042166  -0.073092  13.902619
    25  O    0.000432  -0.000513  -0.105467   0.008347   0.012998   0.459084
    26  O    0.000184   0.000007  -0.012881  -0.003746   0.006414   0.286947
    27  O    0.000455  -0.001047  -0.058592   0.010626  -0.003844   0.290868
              25         26         27
     1  C   -0.000665   0.055729  -0.061113
     2  C    0.006565  -0.023031   0.053981
     3  C    0.000843   0.001826  -0.017572
     4  C   -0.001469  -0.024814   0.027843
     5  C    0.005397   0.045174  -0.015565
     6  H    0.000000   0.000021   0.000010
     7  H   -0.000908  -0.022970   0.026323
     8  H   -0.000011  -0.000891   0.000605
     9  H   -0.000010   0.000301   0.000045
    10  C   -0.000176   0.005546   0.001737
    11  H   -0.000000   0.000000   0.000000
    12  H    0.000000  -0.000096  -0.000002
    13  H   -0.000000   0.000030   0.000001
    14  N    0.001306   0.017288   0.003144
    15  C    0.000302  -0.038617  -0.082654
    16  H    0.000033   0.000421   0.003098
    17  H   -0.000708  -0.000899   0.013150
    18  C    0.004833  -0.034907   0.038706
    19  H    0.000432   0.000184   0.000455
    20  H   -0.000513   0.000007  -0.001047
    21  C   -0.105467  -0.012881  -0.058592
    22  H    0.008347  -0.003746   0.010626
    23  H    0.012998   0.006414  -0.003844
    24  S    0.459084   0.286947   0.290868
    25  O    8.210725  -0.050977  -0.058767
    26  O   -0.050977   8.536747  -0.028383
    27  O   -0.058767  -0.028383   8.600184
 Mulliken charges:
               1
     1  C   -0.276237
     2  C    0.142254
     3  C   -0.089090
     4  C    0.458724
     5  C   -0.446410
     6  H    0.111720
     7  H    0.221262
     8  H    0.123291
     9  H    0.123336
    10  C   -0.580733
    11  H    0.126013
    12  H    0.159477
    13  H    0.151774
    14  N    0.387160
    15  C   -0.314814
    16  H    0.123618
    17  H    0.193385
    18  C    0.044793
    19  H    0.125643
    20  H    0.107368
    21  C   -0.516485
    22  H    0.154507
    23  H    0.160040
    24  S    1.258256
    25  O   -0.491194
    26  O   -0.714421
    27  O   -0.743240
 Sum of Mulliken charges =  -0.00000
 Mulliken charges with hydrogens summed into heavy atoms:
               1
     1  C   -0.054975
     2  C    0.265545
     3  C    0.022630
     4  C    0.458724
     5  C   -0.323074
    10  C   -0.143468
    14  N    0.387160
    15  C    0.002189
    18  C    0.277804
    21  C   -0.201937
    24  S    1.258256
    25  O   -0.491194
    26  O   -0.714421
    27  O   -0.743240
 Electronic spatial extent (au):  <R**2>=           3280.2431
 Charge=             -0.0000 electrons
 Dipole moment (field-independent basis, Debye):
    X=            -12.7727    Y=              4.8803    Z=              1.9807  Tot=             13.8160
 Quadrupole moment (field-independent basis, Debye-Ang):
   XX=            -96.4547   YY=            -80.7631   ZZ=            -94.7888
   XY=             13.5576   XZ=              5.2529   YZ=             -1.8548
 Traceless Quadrupole moment (field-independent basis, Debye-Ang):
   XX=             -5.7859   YY=              9.9057   ZZ=             -4.1199
   XY=             13.5576   XZ=              5.2529   YZ=             -1.8548
 Octapole moment (field-independent basis, Debye-Ang**2):
  XXX=           -132.1680  YYY=             -5.9884  ZZZ=             -1.0994  XYY=            -14.6854
  XXY=             26.5788  XXZ=             -7.6792  XZZ=             -7.3100  YZZ=              7.9761
  YYZ=              5.9949  XYZ=             -3.4462
 Hexadecapole moment (field-independent basis, Debye-Ang**3):
 XXXX=          -3180.8100 YYYY=           -756.9440 ZZZZ=           -413.5162 XXXY=            111.0852
 XXXZ=            108.9642 YYYX=             13.8187 YYYZ=             -0.8080 ZZZX=              4.9313
 ZZZY=              3.8205 XXYY=           -629.3108 XXZZ=           -622.8148 YYZZ=           -206.4062
 XXYZ=             -7.3807 YYXZ=              2.7729 ZZXY=             11.8841
 N-N= 1.094575615989D+03 E-N=-4.609947016118D+03  KE= 1.026513776718D+03
 No NMR shielding tensors so no spin-rotation constants.
 Leave Link  601 at Wed Oct 11 16:42:23 2023, MaxMem=  6710886400 cpu:               4.4 elap:               0.2
 (Enter /data0/home/software/g16/l701.exe)
 ... and contract with generalized density number  0.
 Compute integral first derivatives.
 R6Disp: Adding Grimme-D3(BJ) dispersion energy 1st derivatives to the gradient.
 Leave Link  701 at Wed Oct 11 16:42:23 2023, MaxMem=  6710886400 cpu:               4.6 elap:               0.2
 (Enter /data0/home/software/g16/l702.exe)
 L702 exits ... SP integral derivatives will be done elsewhere.
 Leave Link  702 at Wed Oct 11 16:42:23 2023, MaxMem=  6710886400 cpu:               0.4 elap:               0.0
 (Enter /data0/home/software/g16/l703.exe)
 Integral derivatives from FoFJK, PRISM(SPDF).
 Compute integral first derivatives, UseDBF=F ICtDFT=           0.
 Calling FoFJK, ICntrl=      2127 FMM=F ISym2X=0 I1Cent= 0 IOpClX= 0 NMat=1 NMatS=1 NMatT=0.
 FoFJK:  IHMeth= 1 ICntrl=    2127 DoSepK=F KAlg= 0 I1Cent=           0 FoldK=F
 IRaf=         0 NMat=       1 IRICut=       1 DoRegI=T DoRafI=F ISym2E= 0 IDoP0=0 IntGTp=1.
 FoFCou: FMM=F IPFlag=           0 FMFlag=      100000 FMFlg1=         800
         NFxFlg=           0 DoJE=F BraDBF=F KetDBF=F FulRan=T
         wScrn=  0.000000 ICntrl=      2127 IOpCl=  0 I1Cent=           0 NGrid=           0
         NMat0=    1 NMatS0=      1 NMatT0=    0 NMatD0=    1 NMtDS0=    0 NMtDT0=    0
 Symmetry not used in FoFCou.
 Leave Link  703 at Wed Oct 11 16:42:36 2023, MaxMem=  6710886400 cpu:             317.1 elap:              13.3
 (Enter /data0/home/software/g16/l716.exe)
 Dipole        =-5.02516540D+00 1.92004327D+00 7.79249318D-01
 ***** Axes restored to original set *****
 -------------------------------------------------------------------
 Center     Atomic                   Forces (Hartrees/Bohr)
 Number     Number              X              Y              Z
 -------------------------------------------------------------------
      1        6           0.000924986    0.000247534   -0.000579213
      2        6          -0.000112971    0.000587621   -0.000049775
      3        6           0.000339798    0.000166250    0.000156188
      4        6           0.000199731    0.000106483    0.000077464
      5        6           0.000159281    0.000184868   -0.000059500
      6        1           0.000185884    0.000158299    0.000081870
      7        1           0.000427678    0.000560615   -0.000286184
      8        1          -0.000075276    0.000216633   -0.000042770
      9        1           0.000082101   -0.000258041    0.000172911
     10        6           0.000320574   -0.000163327    0.000177923
     11        1           0.000299695   -0.000262054    0.000166916
     12        1           0.000030687    0.000078109    0.000155317
     13        1           0.000154073    0.000064171   -0.000074705
     14        7          -0.000093244   -0.000027054   -0.000224645
     15        6           0.000102168   -0.000369136   -0.000605364
     16        1          -0.000054709   -0.000236657   -0.000422608
     17        1          -0.000146091   -0.000505781   -0.000495923
     18        6           0.000003880   -0.000904282    0.000315669
     19        1           0.000063365    0.000095465    0.000270125
     20        1          -0.000045661   -0.000280615    0.000106292
     21        6          -0.000523507   -0.000969144    0.000236824
     22        1          -0.000111844    0.000015162   -0.000245806
     23        1          -0.000231147   -0.000024208    0.000224759
     24       16          -0.001349351    0.001104104    0.000812421
     25        8          -0.000760495    0.000155822    0.000373436
     26        8           0.000637351    0.000117672    0.000491749
     27        8          -0.000426956    0.000141492   -0.000733374
 -------------------------------------------------------------------
 Cartesian Forces:  Max     0.001349351 RMS     0.000398085
 Leave Link  716 at Wed Oct 11 16:42:36 2023, MaxMem=  6710886400 cpu:               0.5 elap:               0.0
 (Enter /data0/home/software/g16/l103.exe)

 GradGradGradGradGradGradGradGradGradGradGradGradGradGradGradGradGradGrad
 Berny optimization.
 FormGI is forming the generalized inverse of G from B-inverse, IUseBI=4.
 Internal  Forces:  Max     0.005825362 RMS     0.001073568
 Search for a local minimum.
 Step number   1 out of a maximum of  148
 All quantities printed in internal units (Hartrees-Bohrs-Radians)
 RMS Force = .10736D-02 SwitMx=.10000D-02 MixMth= 1
 Mixed Optimization -- RFO/linear search
 Second derivative matrix not updated -- first step.
 ITU=  0
     Eigenvalues ---    0.00230   0.00230   0.00381   0.00476   0.00719
     Eigenvalues ---    0.01588   0.01652   0.02165   0.02227   0.02308
     Eigenvalues ---    0.02330   0.02342   0.02363   0.02399   0.03241
     Eigenvalues ---    0.03497   0.04084   0.04752   0.04775   0.05149
     Eigenvalues ---    0.07119   0.07284   0.08401   0.08774   0.09435
     Eigenvalues ---    0.09995   0.10534   0.12216   0.12525   0.12751
     Eigenvalues ---    0.15990   0.15996   0.15999   0.16000   0.16000
     Eigenvalues ---    0.16000   0.16000   0.21996   0.21996   0.22004
     Eigenvalues ---    0.22026   0.23457   0.23471   0.24036   0.24908
     Eigenvalues ---    0.25000   0.25000   0.25000   0.25000   0.27930
     Eigenvalues ---    0.29507   0.32007   0.33244   0.34373   0.34529
     Eigenvalues ---    0.34532   0.34635   0.34733   0.34781   0.34847
     Eigenvalues ---    0.34851   0.35158   0.35381   0.35505   0.35844
     Eigenvalues ---    0.35914   0.42887   0.44452   0.47935   0.49250
     Eigenvalues ---    0.52714   0.55547   0.80906   0.81786   0.93854
 RFO step:  Lambda=-1.66462055D-03 EMin= 2.30000000D-03
 Linear search not attempted -- first point.
 Iteration  1 RMS(Cart)=  0.14666449 RMS(Int)=  0.00393448
 Iteration  2 RMS(Cart)=  0.00682825 RMS(Int)=  0.00007684
 Iteration  3 RMS(Cart)=  0.00001337 RMS(Int)=  0.00007654
 Iteration  4 RMS(Cart)=  0.00000000 RMS(Int)=  0.00007654
 ITry= 1 IFail=0 DXMaxC= 5.72D-01 DCOld= 1.00D+10 DXMaxT= 3.00D-01 DXLimC= 3.00D+00 Rises=F
 Variable       Old X    -DE/DX   Delta X   Delta X   Delta X     New X
                                 (Linear)    (Quad)   (Total)
    R1        2.62379  -0.00077   0.00000  -0.00162  -0.00162   2.62218
    R2        2.05061   0.00013   0.00000   0.00038   0.00038   2.05099
    R3        2.53511  -0.00139   0.00000  -0.00249  -0.00249   2.53263
    R4        2.60432  -0.00048   0.00000  -0.00091  -0.00091   2.60340
    R5        2.04217  -0.00023   0.00000  -0.00064  -0.00064   2.04153
    R6        2.65320  -0.00029   0.00000  -0.00057  -0.00057   2.65262
    R7        2.04863  -0.00026   0.00000  -0.00072  -0.00072   2.04791
    R8        2.59973  -0.00100   0.00000  -0.00200  -0.00200   2.59773
    R9        2.84132  -0.00095   0.00000  -0.00297  -0.00297   2.83835
   R10        2.04326  -0.00028   0.00000  -0.00079  -0.00079   2.04247
   R11        2.56007  -0.00137   0.00000  -0.00258  -0.00258   2.55749
   R12        2.06032  -0.00028   0.00000  -0.00080  -0.00080   2.05952
[...]
 001416,0.00000608,-0.00000787,-0.00001566,0.00000899,-0.00000745,-0.00
 041286,0.00038348,0.00156669,-0.00107612,-0.00998753,-0.00140853,-0.00
 015159,0.00189544,-0.00016588,-0.00052138,-0.00015323,0.00051778,-0.02
 302634,-0.29951483,-0.01623384,-0.00086644,-0.00615600,-0.00106574,0.0
 2244204,0.32500428,0.00084629,0.00062113,0.00010721,-0.00050730,0.0000
 1174,0.00022355,0.00033494,-0.00020086,0.00010366,0.00007043,0.0004904
 5,0.00018704,-0.00022226,-0.00006565,-0.00026452,0.00003153,-0.0000127
 2,-0.00004448,0.00036845,-0.00003338,-0.00009384,0.00005978,0.00004165
 ,-0.00001101,0.00003607,-0.00006568,-0.00011062,-0.00001198,0.00000741
 ,0.00003315,0.00000055,-0.00000833,0.00000231,0.00002129,-0.00000865,0
 .00000521,-0.00000167,0.00000306,0.00000034,0.00095272,0.00177698,-0.0
 0368162,0.00579506,0.02618065,-0.00138744,0.00034079,0.00043078,0.0020
 7246,0.00018246,0.00021166,-0.00142557,-0.00339169,-0.01846438,-0.0488
 5251,-0.00117519,-0.02712270,-0.00046872,-0.00328319,0.01872250,0.0524
 0257,0.00085880,-0.00073574,-0.00032893,-0.00017916,-0.00002846,-0.000
 08045,0.00009944,-0.00025339,0.00011438,0.00021121,0.00036073,0.000064
 91,-0.00072273,0.00002161,-0.00029344,0.00002148,0.00000654,0.00000225
 ,-0.00018114,-0.00011520,-0.00007369,0.00004961,0.00006828,-0.00002399
 ,-0.00006701,-0.00007461,-0.00003408,0.00003162,0.00000398,0.00000385,
 -0.00000716,0.00001160,-0.00000366,0.00000837,-0.00000333,-0.00000227,
 -0.00000270,-0.00000320,0.00000303,0.00047146,0.00099933,0.00041146,-0
 .01548149,0.00215921,0.00739513,0.00009947,-0.00040045,-0.00014467,0.0
 0123276,0.00100499,-0.00115242,-0.16528733,0.03970021,0.00422123,-0.02
 111957,0.00789777,0.00168275,-0.00063546,0.00126341,-0.00070127,0.4947
 1555,-0.00037507,0.00102598,0.00005977,-0.00031480,-0.00010045,0.00004
 541,0.00026464,-0.00010294,0.00009845,0.00002993,0.00022931,0.00006791
 ,0.00024286,-0.00061951,0.00024480,0.00001921,-0.00001293,-0.00006078,
 0.00041282,-0.00014822,-0.00008639,0.00003137,-0.00000044,-0.00005305,
 0.00001160,-0.00004987,-0.00006462,-0.00001536,-0.00005092,-0.00000357
 ,-0.00000456,0.00001431,-0.00000097,-0.00000911,0.00000458,-0.00000746
 ,-0.00001786,0.00001078,-0.00000931,-0.00195310,-0.00148660,0.00059573
 ,-0.00826579,0.00676169,-0.00368689,-0.00093875,0.00026808,0.00176468,
 0.00012822,0.00038954,-0.00004185,0.02999092,-0.09087985,0.00088163,-0
 .00549853,0.00280539,0.00116347,0.03417722,-0.01364079,-0.00192729,0.0
 3260017,0.36569251,0.00155161,-0.00018977,-0.00101640,-0.00026420,-0.0
 0023017,0.00008274,0.00038695,-0.00011448,0.00017300,0.00011006,0.0003
 9245,0.00024123,-0.00035720,0.00044831,0.00013008,0.00004272,-0.000025
 08,-0.00000401,-0.00149267,0.00014969,-0.00014206,0.00002171,0.0000384
 3,-0.00006918,0.00017841,-0.00016602,-0.00022043,-0.00001014,0.0000251
 8,0.00004129,0.00001874,-0.00001702,-0.00001270,0.00002356,0.00000533,
 -0.00000291,-0.00001888,-0.00000690,0.00000059,0.00053207,-0.00032163,
 -0.00087729,0.02655696,-0.01125503,-0.00721675,0.00293156,0.00137271,-
 0.00356458,0.00043594,-0.00012904,0.00197329,0.00554371,-0.00148777,-0
 .07821704,-0.02479822,0.01141480,0.00335553,0.00199267,-0.00147464,0.0
 0034853,0.01660530,-0.00041243,0.59652815,-0.00002934,0.00002649,-0.00
 000482,0.00001333,-0.00001229,0.00000832,0.00000581,-0.00001533,-0.000
 00744,0.00009767,0.00001284,0.00008463,-0.00001773,0.00010190,0.000073
 02,0.00000547,-0.00000626,-0.00000147,-0.00018227,-0.00001726,-0.00002
 301,-0.00000112,-0.00000032,-0.00000878,0.00008582,-0.00005728,-0.0000
 6755,-0.00000618,0.00000534,0.00001437,0.00000767,-0.00000334,-0.00000
 469,0.00000600,0.00000500,-0.00000158,-0.00000715,-0.00000290,0.000000
 07,0.00029381,-0.00019022,0.00011095,0.00077380,0.00015447,-0.00135951
 ,0.00009937,0.00001651,0.00002906,-0.00027988,-0.00036728,0.00075930,-
 0.01908089,-0.00890726,-0.02071674,-0.00463461,0.00243312,0.00106990,0
 .00141632,0.00000569,0.00020842,-0.14910692,-0.05292195,-0.11636624,0.
 16242269,0.00078480,-0.00009341,-0.00048295,-0.00027663,-0.00006715,-0
 .00003935,0.00017260,-0.00019539,0.00012899,0.00007523,0.00029263,-0.0
 0001516,-0.00026230,-0.00007347,-0.00006911,0.00001438,0.00000165,-0.0
 0000706,-0.00025007,-0.00001269,-0.00006236,0.00002082,0.00002790,-0.0
 0002778,-0.00005857,0.00004127,0.00000534,0.00001557,-0.00000812,0.000
 00057,-0.00000762,0.00000832,0.00000075,-0.00000224,-0.00000468,-0.000
 00207,-0.00000477,0.00000150,0.00000030,0.00010286,0.00013946,0.000102
 80,-0.00068644,-0.00011363,0.00005636,0.00003535,-0.00003702,0.0000612
 2,-0.00040450,0.00002318,-0.00008415,0.01035395,0.00352331,0.01113917,
 0.00345179,-0.00076028,-0.00075812,-0.00056796,0.00092894,0.00038436,-
 0.05574229,-0.07176262,-0.06512334,0.05564506,0.07842923,0.00003874,0.
 00001955,-0.00002847,-0.00000029,-0.00000414,-0.00000189,-0.00000072,0
 .00003220,0.00000052,-0.00001408,-0.00003774,-0.00003397,0.00011004,-0
 .00000314,-0.00005709,-0.00000364,0.00000050,0.00000275,-0.00004512,0.
 00000895,0.00001713,-0.00000010,0.00000150,-0.00000320,-0.00001211,0.0
 0001427,0.00001287,-0.00000586,-0.00000948,0.00000470,0.00000027,0.000
 00266,-0.00000051,-0.00000003,0.00000210,-0.00000178,-0.00000558,0.000
 00235,-0.00000091,-0.00011331,0.00005519,-0.00000231,-0.00005479,0.000
 18427,0.00113845,-0.00011049,-0.00006407,0.00009451,-0.00024579,-0.000
 05357,-0.00000629,0.00413990,0.00217100,0.00392668,0.00143710,-0.00014
 726,0.00109208,-0.00061120,0.00059102,0.00037719,-0.11748968,-0.063927
 31,-0.18410439,0.12814695,0.06812675,0.19495120,-0.00034021,0.00019858
 ,0.00015089,0.00007353,-0.00000335,-0.00001490,-0.00010294,0.00001196,
 -0.00003894,0.00001039,-0.00012107,-0.00001180,0.00014560,-0.00020236,
 0.00007849,-0.00000430,-0.00000145,0.00000545,-0.00022917,0.00004983,-
 0.00003824,-0.00002387,-0.00001619,-0.00000493,0.00002512,0.00000855,0
 .00004919,0.00000128,-0.00001907,-0.00000575,-0.00000339,0.00000859,0.
 00000787,-0.00001721,-0.00000249,-0.00000574,-0.00000511,0.00000543,-0
 .00000560,-0.00002924,-0.00005358,0.00021718,-0.00442351,0.00366599,0.
 00018485,-0.00081843,-0.00041530,0.00114355,-0.00000279,-0.00001750,-0
 .00036860,-0.01324472,-0.00836153,0.02629255,0.00107434,-0.00090101,0.
 00008980,0.00084826,0.00022805,-0.00012033,-0.08104277,-0.02515964,0.0
 8694859,0.00825767,0.00596775,-0.01748928,0.09024364,0.00011288,-0.000
 23665,0.00002423,-0.00008500,0.00005644,-0.00005586,-0.00000544,-0.000
 06966,-0.00000187,0.00006003,0.00009590,0.00003858,-0.00021472,0.00016
 812,-0.00012044,-0.00001021,0.00000387,-0.00000173,0.00070270,-0.00003
 821,0.00005417,0.00002399,0.00001366,0.00002079,-0.00002160,0.00001127
 ,-0.00002084,0.00000041,0.00001095,0.00000641,-0.00000276,0.00000173,-
 0.00000140,0.00000017,-0.00000243,0.00000180,0.00000194,-0.00000096,-0
 .00000031,0.00054374,0.00011934,-0.00019379,0.00206096,-0.00085210,0.0
 0014096,0.00029968,0.00005010,-0.00050272,0.00018691,-0.00030128,0.000
 16338,0.00536405,0.00361071,-0.01202578,-0.00043929,0.00075918,0.00031
 551,-0.00071275,0.00019093,-0.00011490,-0.02667335,-0.05990141,0.06170
 102,0.00495849,0.00308800,-0.01038696,0.02386147,0.06429833,-0.0000609
 9,-0.00011830,-0.00003084,0.00010143,0.00002415,0.00005994,-0.00004955
 ,0.00002825,-0.00002948,-0.00000907,-0.00004337,0.00000472,0.00002023,
 0.00008165,-0.00002948,0.00000626,0.00000281,-0.00000087,-0.00016319,-
 0.00001790,-0.00002362,-0.00000315,-0.00000052,0.00000415,-0.00000755,
 0.00000419,0.,0.00000307,0.00001175,0.00000025,-0.00000092,-0.00000231
 ,-0.00000100,0.00000419,-0.00000109,0.00000324,0.00000536,-0.00000155,
 0.00000134,0.00025046,0.00000384,0.00007624,-0.00068364,-0.00034486,0.
 00116362,0.00006721,0.00007208,0.00008706,-0.00023668,-0.00003133,0.00
 033383,-0.00032847,0.00038441,-0.00112962,0.00011639,-0.00011746,0.001
 07252,0.00030854,-0.00033274,-0.00012063,0.08782820,0.06013572,-0.2658
 1254,0.00815525,0.00609331,-0.01831127,-0.09559139,-0.06558564,0.28354
 521,-0.01991451,-0.00146231,0.00934124,0.00499591,0.00147580,0.0012574
 5,-0.00263719,0.00226018,-0.00167159,-0.00133687,-0.00348154,-0.000208
 53,0.00154227,0.00153614,0.00069718,0.00000541,0.00006893,0.00004886,0
 .00135879,-0.00052465,0.00447619,-0.00016315,-0.00035737,0.00031721,0.
 00021664,-0.00004194,0.00022307,-0.00006666,0.00048309,-0.00006630,0.0
 0003778,-0.00018212,0.00002751,0.00016069,-0.00009061,0.00020506,0.000
 35676,-0.00010846,0.00004090,-0.00033641,-0.00344704,-0.00206200,0.000
 91086,0.00532915,0.00359475,-0.00016002,-0.00064352,-0.00007262,-0.000
 15722,-0.00003036,0.00097338,0.00039872,0.02883424,-0.00149454,-0.0020
 9937,0.00228798,-0.00105233,-0.00617895,0.00144505,-0.00075424,-0.0581
 5723,0.00075831,0.00170949,-0.00195688,-0.01966370,-0.00019806,-0.0011
 2286,-0.01043958,0.00100815,0.89520634,-0.00714776,0.00102518,0.003913
 47,0.00351353,0.00050817,0.00060444,-0.00206261,0.00165466,-0.00100358
 ,-0.00055069,-0.00274812,0.00006754,0.00145855,0.00016114,0.00092526,-
 0.00001993,0.00001184,0.00014385,-0.00417241,0.00056153,0.00113999,-0.
 00035551,-0.00021728,0.00002022,0.00058379,-0.00018617,0.00007885,-0.0
 0007276,0.00012196,-0.00003528,0.00007970,-0.00009804,0.00000760,0.000
 03865,0.00001372,0.00002666,0.00007280,-0.00003979,0.00001640,0.001659
 33,-0.00181969,-0.00176235,0.00338882,0.00202616,-0.00001913,-0.001046
 22,-0.00080705,0.00137193,-0.00047676,0.00092045,-0.00080193,0.0160596
 0,-0.01037988,-0.00358457,-0.00294438,0.00094079,-0.00086792,-0.004430
 55,0.00275433,0.00070150,-0.00051821,-0.12816050,0.00382311,-0.0014137
 8,-0.00699036,0.00241228,-0.00110653,-0.00452992,-0.00087212,-0.029922
 99,0.50161991,-0.01691306,-0.00014943,0.01144442,0.00213781,0.00333067
 ,-0.00163212,-0.00246733,0.00149621,-0.00209547,-0.00059022,-0.0026824
 7,0.00063324,0.00055763,0.00092710,0.00021681,-0.00057868,0.00009912,-
 0.00010482,0.02507203,0.00259228,-0.00142801,0.00008547,-0.00020885,0.
 00062965,-0.00015370,0.00013427,0.00004596,-0.00021177,0.00009541,-0.0
 0012089,-0.00001150,0.00000547,0.00003926,-0.00006759,0.00000300,0.000
 04277,0.00012238,0.00001304,-0.00003533,0.00282506,-0.00524171,-0.0055
 8257,0.00229088,0.00181023,0.00521931,-0.00194257,0.00106849,-0.001841
 65,0.00543498,-0.00500420,-0.00342294,-0.00013319,-0.00697561,0.000242
 01,-0.00151412,0.00233118,-0.00106843,0.00131132,-0.00136329,-0.000523
 62,0.00260061,0.00478114,-0.05553835,-0.00110099,-0.02301625,-0.001773
 16,-0.00004189,0.02855448,-0.00460707,-0.06831740,0.02866432,0.7800355
 9,0.00377719,0.00052105,-0.00347810,-0.00200728,-0.00012719,-0.0002268
 5,0.00080825,-0.00078464,0.00061358,0.00055179,0.00093978,0.00003820,-
 0.00016494,-0.00061713,-0.00012940,-0.00004246,-0.00003032,-0.00007168
 ,0.00102680,0.00020419,0.00010495,0.00002620,0.00008362,-0.00009392,0.
 00002021,0.00000966,-0.00004547,0.00000440,-0.00019349,0.00002919,-0.0
 0000105,0.00006682,-0.00000742,-0.00007397,0.00003867,-0.00008630,-0.0
 0014700,0.00004709,-0.00001640,-0.00084480,0.00083412,0.00133190,0.000
 12275,-0.00066748,-0.00064821,-0.00015839,0.00019033,-0.00011069,0.000
 28257,-0.00040658,-0.00028209,0.00249611,0.00362494,0.00003247,0.00047
 644,-0.00063029,0.00017442,-0.00144407,0.00073938,0.00046319,-0.005997
 24,-0.00329697,0.00674681,-0.00003881,0.00343471,0.00088789,-0.0004870
 8,0.00083717,-0.00132993,-0.41776714,0.11273657,0.16184627,0.45182208,
 0.00121583,-0.00031045,-0.00046569,-0.00040884,-0.00019722,-0.00004859
 ,0.00034546,-0.00027487,0.00017621,0.00004060,0.00050695,-0.00005776,-
 0.00037819,0.00001535,-0.00022799,0.00003436,0.00000203,-0.00000659,-0
 .00005203,-0.00011644,0.00004063,0.00009936,0.00003669,-0.00001820,-0.
 00016059,0.00003691,-0.00001147,0.00002212,0.00001006,0.00001050,-0.00
 002207,0.00001431,0.00000065,0.00000907,-0.00001699,0.00001494,0.00001
 500,-0.00000213,-0.00000104,0.00006424,0.00067944,0.00022987,-0.001079
 86,-0.00075661,0.00029546,0.00021170,0.00026128,-0.00034545,0.00020599
 ,-0.00005915,-0.00007628,-0.00367145,-0.00784731,-0.00009884,0.0004709
 2,0.00002921,0.00023278,0.00305353,-0.00112880,-0.00018811,0.02735862,
 -0.00248344,-0.01027408,0.00018595,-0.00014148,-0.00046074,0.00094318,
 0.00212998,-0.00074679,0.11681813,-0.12820760,-0.05417830,-0.12971568,
 0.09816935,0.00290240,0.00012450,-0.00118027,0.00006783,-0.00068165,0.
 00034173,0.00038249,-0.00012528,0.00028557,-0.00004842,0.00037219,-0.0
 0019140,-0.00004382,-0.00007237,-0.00006353,0.00012374,-0.00000961,0.0
 0005827,-0.00476259,-0.00075920,-0.00033055,-0.00002175,0.00001870,-0.
 00010407,-0.00000603,-0.00002368,-0.00001341,0.00004019,0.00002395,0.0
 0001456,0.00000068,-0.00001761,-0.00000794,0.00003476,-0.00000830,0.00
 001610,0.00001242,-0.00001495,0.00001258,-0.00042514,0.00103606,0.0009
 0271,-0.00063923,-0.00050728,-0.00074851,0.00039182,-0.00019532,0.0003
 6845,-0.00087864,0.00100331,0.00048312,-0.00116854,-0.00177688,0.00109
 533,0.00023847,-0.00019909,0.00013991,0.00075160,-0.00019562,-0.000120
 50,0.00585170,0.00314133,0.00449055,-0.00013021,0.00189481,0.00015800,
 -0.00017488,-0.00292140,0.00147899,0.16051857,-0.05234986,-0.15439744,
 -0.18383680,0.06060188,0.15124039,0.01206012,0.00139380,-0.00693550,-0
 .00699986,-0.00205180,0.00045359,0.00361358,-0.00278319,0.00220613,0.0
 0150835,0.00423992,-0.00011736,-0.00193445,-0.00150782,-0.00128810,0.0
 0011520,-0.00010058,-0.00001410,-0.00729574,-0.00046780,0.00186915,0.0
 0003707,0.00028870,-0.00025496,-0.00021646,0.00004577,-0.00014158,0.00
 008601,-0.00042879,0.00010085,-0.00004495,0.00014955,-0.00002468,-0.00
 014337,0.00007264,-0.00017762,-0.00032056,0.00010270,-0.00003672,-0.00
 327344,0.00463244,0.00690982,-0.00250989,-0.00389551,-0.00259767,0.000
 88792,0.00030872,0.00003045,-0.00096011,0.00102960,0.00059159,-0.00225
 273,-0.00095211,-0.00039267,0.00161228,-0.00098124,0.00129568,0.002321
 01,0.00000193,0.00062012,-0.00786287,0.00145851,-0.01121310,0.00133699
 ,-0.00430407,0.00123732,0.00016989,-0.00026665,0.00023741,-0.30388229,
 -0.08027709,-0.12777295,-0.03227510,-0.01132539,-0.01850111,0.34006809
 ,0.00619049,-0.00099336,-0.00270526,-0.00385864,-0.00096919,-0.0004648
 2,0.00211272,-0.00218421,0.00149654,0.00089735,0.00310251,0.00011769,-
 0.00299896,0.00002915,-0.00193249,0.00011251,-0.00003985,-0.00006888,-
 0.00122460,-0.00052576,0.00035213,0.00034859,0.00027909,-0.00027650,-0
 .00025489,0.00006129,-0.00001717,0.00009570,-0.00005288,0.00007680,-0.
 00003269,0.00005757,0.00000090,-0.00002252,-0.00004506,-0.00002636,-0.
 00006313,-0.00000654,-0.00000624,0.00147701,0.00019007,0.00079081,-0.0
 0112842,-0.00077697,0.00048735,0.00041710,0.00025895,-0.00025352,0.000
 10961,-0.00001753,0.00011546,-0.00258560,0.00005841,0.00070860,-0.0005
 3493,0.00019289,-0.00057385,0.00026357,-0.00044091,-0.00096413,-0.0241
 7208,-0.00520509,-0.01759282,-0.00041670,-0.00891575,0.00063524,-0.000
 15245,-0.00039621,0.00000859,-0.08421326,-0.12146143,-0.05008372,0.008
 11972,0.01971071,0.00092724,0.09898082,0.09785211,-0.00043771,-0.00053
 451,-0.00537204,0.00162925,0.00015771,0.00045073,-0.00055207,0.0003318
 4,0.00025260,0.00004505,-0.00090798,-0.00016977,0.00104729,0.00032569,
 0.00032302,0.00019334,0.00002994,-0.00005746,-0.00198580,-0.00053574,-
 0.00231589,0.00003244,0.00003724,-0.00027979,0.00007824,-0.00007341,-0
 .00002867,0.00012084,0.00012836,0.00005979,0.00003130,-0.00002914,-0.0
 0001596,0.00017033,-0.00004884,0.00007136,0.00006148,-0.00006760,0.000
 04899,0.00100144,-0.00052511,-0.00088934,0.00040570,0.00071481,-0.0006
 6645,0.00027122,-0.00018791,0.00025427,-0.00096944,0.00082952,0.000532
 16,-0.00151199,0.00151185,-0.00065263,0.00115285,-0.00095972,0.0002799
 6,0.00034329,0.00019909,0.00048549,-0.00694591,-0.00010593,0.00376103,
 0.00007919,-0.00051496,0.00161403,-0.00057220,-0.00354868,0.00048148,-
 0.13959542,-0.05138670,-0.16894071,0.01283021,0.00046521,0.01462222,0.
 16653366,0.06565687,0.18378496,-0.01024599,-0.00243442,0.00204806,-0.0
 0319569,0.00199069,-0.00201750,0.00025560,-0.00131154,-0.00020308,0.00
 057762,0.00083992,0.00035260,-0.00059352,0.00017881,-0.00083200,-0.000
 39619,0.00006526,-0.00013278,0.00070284,0.00105725,-0.00246193,-0.0000
 1454,-0.00000579,0.00015870,-0.00021434,0.00012697,-0.00015195,-0.0000
 6232,-0.00015496,0.00000543,-0.00001917,0.00008173,-0.00000505,-0.0000
 8304,0.00004572,-0.00005868,-0.00011494,0.00003842,-0.00002908,0.00018
 694,-0.00108597,-0.00071497,-0.00130166,0.00137486,0.00196769,-0.00067
 737,0.00061254,-0.00093309,-0.00126095,0.00106700,-0.00147819,-0.00129
 593,-0.00317353,0.00164185,0.00047276,-0.00025533,-0.00008483,0.001120
 35,-0.00031225,-0.00016297,0.00805101,-0.00135428,0.00218379,0.0005193
 7,0.00215630,0.00040193,0.00104786,-0.00014322,0.00035239,-0.08925344,
 -0.00307317,0.01753252,0.00003454,-0.00427994,0.03932052,0.00615531,0.
 00253367,-0.03345659,0.08960488,-0.00213730,0.00123995,0.00023816,-0.0
 0118083,0.00025370,-0.00062792,0.00060669,-0.00061101,0.00018970,0.000
 34272,0.00096098,0.00009283,-0.00085602,0.00072828,-0.00052515,-0.0000
 8167,0.00001964,-0.00006552,0.00563950,-0.00209031,0.00002562,0.000270
 34,0.00008116,0.00012715,-0.00035105,0.00013701,-0.00009075,0.00001570
 ,0.00000997,0.00000018,-0.00003294,0.00003563,-0.00000541,-0.00001047,
 -0.00000805,0.00000328,0.00000029,0.00000305,-0.00000592,-0.00109246,-
 0.00049029,-0.00027493,0.00080913,-0.00338487,-0.00280375,0.00126775,-
 0.00027398,0.00077566,0.00061160,-0.00138914,0.00189794,-0.00221642,0.
 00086524,0.00031029,0.00047729,-0.00030713,0.00034929,0.00088227,-0.00
 007592,-0.00040711,-0.00473617,-0.00259659,0.02944917,0.00078130,0.002
 67064,0.00083458,0.00158415,-0.00827968,0.00136524,-0.00668754,-0.1066
 7401,0.07299743,0.00404196,0.01994022,-0.00928587,-0.00336309,0.020237
 95,-0.01096190,0.00541528,0.07899755,0.00801154,0.00034432,-0.00293037
 ,0.00066691,-0.00147004,0.00101636,0.00059661,0.00008504,0.00051006,0.
 00011238,0.00035118,-0.00022911,0.00025567,-0.00032807,0.00013076,0.00
 032256,-0.00004135,0.00006086,-0.01157950,-0.00074051,-0.00347401,-0.0
 0006732,0.00008922,-0.00033048,0.00020312,-0.00010858,-0.00002217,0.00
 008203,0.00001415,0.00004988,0.00002448,-0.00002986,-0.00002320,0.0000
 8733,-0.00000107,0.00000690,-0.00002439,-0.00002292,0.00002412,-0.0001
 6593,0.00138379,0.00217288,0.00064637,-0.00222899,-0.00294610,0.000778
 39,-0.00067711,0.00125915,-0.00272478,0.00259250,0.00104600,0.00296662
 ,0.00278227,-0.00152514,0.00002725,-0.00071532,0.00041437,-0.00153644,
 0.00075167,0.00075636,0.00048966,-0.00259222,-0.01432735,0.00105357,0.
 00220791,0.00093512,-0.00068393,0.00446096,0.00178385,0.03105405,0.068
 76601,-0.39543645,0.00526419,0.00513779,-0.01855085,-0.01261766,0.0035
 9153,-0.02763338,-0.02324278,-0.08360230,0.45726193\\0.00000670,-0.000
 00705,0.00000774,0.00002128,-0.00000815,0.00000990,-0.00000589,0.00001
 414,-0.00000634,-0.00001456,-0.00002309,-0.00000310,0.00001762,0.00000
 429,0.00000469,-0.00000220,-0.00000372,-0.00000020,-0.00000291,-0.0000
 0769,-0.00000578,-0.00000087,-0.00000261,-0.00000449,-0.00000071,0.000
 00368,-0.00000112,-0.00000140,0.00000313,0.00000103,-0.00000304,0.0000
 0342,0.00000029,-0.00000033,0.00000029,-0.00000119,-0.00000187,-0.0000
 0218,-0.00000014,-0.00000198,0.00002512,-0.00000781,-0.00000277,-0.000
 00102,-0.00000066,-0.00000254,-0.00000236,0.00000386,0.00000697,-0.000
 00146,0.00000391,0.00000205,-0.00001014,0.00001965,-0.00000375,0.00000
 515,-0.00001397,-0.00000902,0.00000679,-0.00000135,0.00000096,-0.00001
 512,0.00000193,0.00000469,0.00000849,-0.00000181,0.00000173,0.00000913
 ,-0.00000443,-0.00003593,0.00004591,0.00001818,0.00000699,-0.00001680,
 -0.00000197,0.00001601,-0.00001451,0.00000720,0.00000479,-0.00001366,-
 0.00002403\\\@


 A COMPUTER IS LIKE A HORSE, IT WILL SENSE WEAKNESS.
     -- GREG WETTSTEIN
 Job cpu time:       0 days  3 hours 54 minutes  1.4 seconds.
 Elapsed time:       0 days  0 hours  9 minutes 47.6 seconds.
 File lengths (MBytes):  RWF=    506 Int=      0 D2E=      0 Chk=     18 Scr=      1
 Normal termination of Gaussian 16 at Wed Oct 11 17:01:10 2023.
