 Entering Gaussian System, Link 0=g16
 Initial command:
 /data0/home/software/g16/l1.exe "/data0/home/software/g16/scratch/Gau-2514687.inp" -scrdir="/data0/home/software/g16/scratch/"
 Default is to use a total of  22 processors:
                               22 via shared-memory
                                1 via Linda
 Entering Link 1 = /data0/home/software/g16/l1.exe PID=   2514688.
  
 Copyright (c) 1988,1990,1992,1993,1995,1998,2003,2009,2016,
            Gaussian, Inc.  All Rights Reserved.
  
 This is part of the Gaussian(R) 16 program.  It is based on
 the Gaussian(R) 09 system (copyright 2009, Gaussian, Inc.),
 the Gaussian(R) 03 system (copyright 2003, Gaussian, Inc.),
 the Gaussian(R) 98 system (copyright 1998, Gaussian, Inc.),
 the Gaussian(R) 94 system (copyright 1995, Gaussian, Inc.),
 the Gaussian 92(TM) system (copyright 1992, Gaussian, Inc.),
 the Gaussian 90(TM) system (copyright 1990, Gaussian, Inc.),
 the Gaussian 88(TM) system (copyright 1988, Gaussian, Inc.),
 the Gaussian 86(TM) system (copyright 1986, Carnegie Mellon
 University), and the Gaussian 82(TM) system (copyright 1983,
 Carnegie Mellon University). Gaussian is a federally registered
 trademark of Gaussian, Inc.
  
 This software contains proprietary and confidential information,
 including trade secrets, belonging to Gaussian, Inc.
  
 This software is provided under written license and may be
 used, copied, transmitted, or stored only in accord with that
 written license.
  
 The following legend is applicable only to US Government
 contracts under FAR:
  
                    RESTRICTED RIGHTS LEGEND
  
 Use, reproduction and disclosure by the US Government is
 subject to restrictions as set forth in subparagraphs (a)
 and (c) of the Commercial Computer Software - Restricted
 Rights clause in FAR 52.227-19.
  
 Gaussian, Inc.
 340 Quinnipiac St., Bldg. 40, Wallingford CT 06492
  
  
 ---------------------------------------------------------------
 Warning -- This program may not be used in any manner that
 competes with the business of Gaussian, Inc. or will provide
 assistance to any competitor of Gaussian, Inc.  The licensee
 of this program is prohibited from giving any competitor of
 Gaussian, Inc. access to this program.  By using this program,
 the user acknowledges that Gaussian, Inc. is engaged in the
 business of creating and licensing software in the field of
 computational chemistry and represents and warrants to the
 licensee that it is not a competitor of Gaussian, Inc. and that
 it will not use this program in any manner prohibited above.
 ---------------------------------------------------------------
  

 Cite this work as:
 Gaussian 16, Revision A.03,
 M. J. Frisch, G. W. Trucks, H. B. Schlegel, G. E. Scuseria, 
 M. A. Robb, J. R. Cheeseman, G. Scalmani, V. Barone, 
 G. A. Petersson, H. Nakatsuji, X. Li, M. Caricato, A. V. Marenich, 
 J. Bloino, B. G. Janesko, R. Gomperts, B. Mennucci, H. P. Hratchian, 
 J. V. Ortiz, A. F. Izmaylov, J. L. Sonnenberg, D. Williams-Young, 
 F. Ding, F. Lipparini, F. Egidi, J. Goings, B. Peng, A. Petrone, 
 T. Henderson, D. Ranasinghe, V. G. Zakrzewski, J. Gao, N. Rega, 
 G. Zheng, W. Liang, M. Hada, M. Ehara, K. Toyota, R. Fukuda, 
 J. Hasegawa, M. Ishida, T. Nakajima, Y. Honda, O. Kitao, H. Nakai, 
 T. Vreven, K. Throssell, J. A. Montgomery, Jr., J. E. Peralta, 
 F. Ogliaro, M. J. Bearpark, J. J. Heyd, E. N. Brothers, K. N. Kudin, 
 V. N. Staroverov, T. A. Keith, R. Kobayashi, J. Normand, 
 K. Raghavachari, A. P. Rendell, J. C. Burant, S. S. Iyengar, 
 J. Tomasi, M. Cossi, J. M. Millam, M. Klene, C. Adamo, R. Cammi, 
 J. W. Ochterski, R. L. Martin, K. Morokuma, O. Farkas, 
 J. B. Foresman, and D. J. Fox, Gaussian, Inc., Wallingford CT, 2016.
 
 ******************************************
 Gaussian 16:  ES64L-G16RevA.03 25-Dec-2016
                11-Oct-2023 
 ******************************************
 %mem=50GB
 %nprocshared=24
 Will use up to   24 processors via shared memory.
 ---------------
 #p M052X/6-31G*
 ---------------
 1/38=1,172=1/1;
 2/12=2,17=6,18=5,40=1/2;
 3/5=1,6=6,7=1,11=2,25=1,30=1,74=-38/1,2,3;
 4//1;
 5/5=2,38=5/2;
 6/7=2,8=2,9=2,10=2,28=1/1;
 99/5=1,9=1/99;
 Leave Link    1 at Wed Oct 11 17:05:46 2023, MaxMem=  6710886400 cpu:               0.5 elap:               0.0
 (Enter /data0/home/software/g16/l101.exe)
 -------------------
 Title Card Required
 -------------------
 Symbolic Z-matrix:
 Charge =  0 Multiplicity = 1
 C                    -0.7129   -0.83617   0.90887 
 C                    -1.66136  -1.77797   0.53334 
 C                    -2.83643  -1.37002  -0.05772 
 C                    -3.08559  -0.00521  -0.27295 
 C                    -2.11858   0.88064   0.13871 
 H                    -3.57332  -2.10162  -0.368 
 H                     0.25301  -1.07834   1.33996 
 H                    -1.43685  -2.8235    0.68702 
 H                    -2.22365   1.94901   0.01324 
 C                    -4.35063   0.47248  -0.92718 
 H                    -4.37888   1.55976  -0.99748 
 H                    -4.4379    0.06636  -1.93732 
 H                    -5.22775   0.14579  -0.36434 
 N                    -0.97113   0.46686   0.72657 
 C                     0.0566    1.49001   1.06227 
 H                    -0.48322   2.31137   1.53152 
 H                     0.72755   1.03728   1.78732 
 C                     0.83157   1.97498  -0.1822 
 H                     0.24302   1.75035  -1.07314 
 H                     0.91364   3.06355  -0.11978 
 C                     2.23318   1.39316  -0.356 
 H                     2.92215   1.74892   0.41062 
 H                     2.63015   1.66495  -1.33328 
 S                     2.28347  -0.42641  -0.26797 
 O                     3.54384  -0.82285  -0.87446 
 O                     1.06028  -0.85025  -0.99491 
 O                     2.17078  -0.71075   1.18716 
 
 ITRead=  0  0  0  0  0  0  0  0  0  0  0  0  0  0  0  0  0  0  0  0
 ITRead=  0  0  0  0  0  0  0
 MicOpt= -1 -1 -1 -1 -1 -1 -1 -1 -1 -1 -1 -1 -1 -1 -1 -1 -1 -1 -1 -1
 MicOpt= -1 -1 -1 -1 -1 -1 -1
 NAtoms=     27 NQM=       27 NQMF=       0 NMMI=      0 NMMIF=      0
                NMic=       0 NMicF=      0.
                    Isotopes and Nuclear Properties:
 (Nuclear quadrupole moments (NQMom) in fm**2, nuclear magnetic moments (NMagM)
  in nuclear magnetons)

  Atom         1           2           3           4           5           6           7           8           9          10
 IAtWgt=          12          12          12          12          12           1           1           1           1          12
 AtmWgt=  12.0000000  12.0000000  12.0000000  12.0000000  12.0000000   1.0078250   1.0078250   1.0078250   1.0078250  12.0000000
 NucSpn=           0           0           0           0           0           1           1           1           1           0
 AtZEff=  -0.0000000  -0.0000000  -0.0000000  -0.0000000  -0.0000000  -0.0000000  -0.0000000  -0.0000000  -0.0000000  -0.0000000
 NQMom=    0.0000000   0.0000000   0.0000000   0.0000000   0.0000000   0.0000000   0.0000000   0.0000000   0.0000000   0.0000000
 NMagM=    0.0000000   0.0000000   0.0000000   0.0000000   0.0000000   2.7928460   2.7928460   2.7928460   2.7928460   0.0000000
 AtZNuc=   6.0000000   6.0000000   6.0000000   6.0000000   6.0000000   1.0000000   1.0000000   1.0000000   1.0000000   6.0000000

  Atom        11          12          13          14          15          16          17          18          19          20
 IAtWgt=           1           1           1          14          12           1           1          12           1           1
 AtmWgt=   1.0078250   1.0078250   1.0078250  14.0030740  12.0000000   1.0078250   1.0078250  12.0000000   1.0078250   1.0078250
 NucSpn=           1           1           1           2           0           1           1           0           1           1
 AtZEff=  -0.0000000  -0.0000000  -0.0000000  -0.0000000  -0.0000000  -0.0000000  -0.0000000  -0.0000000  -0.0000000  -0.0000000
 NQMom=    0.0000000   0.0000000   0.0000000   2.0440000   0.0000000   0.0000000   0.0000000   0.0000000   0.0000000   0.0000000
 NMagM=    2.7928460   2.7928460   2.7928460   0.4037610   0.0000000   2.7928460   2.7928460   0.0000000   2.7928460   2.7928460
 AtZNuc=   1.0000000   1.0000000   1.0000000   7.0000000   6.0000000   1.0000000   1.0000000   6.0000000   1.0000000   1.0000000

  Atom        21          22          23          24          25          26          27
 IAtWgt=          12           1           1          32          16          16          16
 AtmWgt=  12.0000000   1.0078250   1.0078250  31.9720718  15.9949146  15.9949146  15.9949146
 NucSpn=           0           1           1           0           0           0           0
 AtZEff=  -0.0000000  -0.0000000  -0.0000000  -0.0000000  -0.0000000  -0.0000000  -0.0000000
 NQMom=    0.0000000   0.0000000   0.0000000   0.0000000   0.0000000   0.0000000   0.0000000
 NMagM=    0.0000000   2.7928460   2.7928460   0.0000000   0.0000000   0.0000000   0.0000000
 AtZNuc=   6.0000000   1.0000000   1.0000000  16.0000000   8.0000000   8.0000000   8.0000000
 Leave Link  101 at Wed Oct 11 17:05:46 2023, MaxMem=  6710886400 cpu:               1.9 elap:               0.1
 (Enter /data0/home/software/g16/l202.exe)
                          Input orientation:                          
 ---------------------------------------------------------------------
 Center     Atomic      Atomic             Coordinates (Angstroms)
 Number     Number       Type             X           Y           Z
 ---------------------------------------------------------------------
      1          6           0       -0.712904   -0.836170    0.908865
      2          6           0       -1.661355   -1.777970    0.533339
      3          6           0       -2.836432   -1.370017   -0.057716
      4          6           0       -3.085585   -0.005205   -0.272952
      5          6           0       -2.118577    0.880644    0.138708
      6          1           0       -3.573319   -2.101623   -0.368002
      7          1           0        0.253011   -1.078339    1.339962
      8          1           0       -1.436851   -2.823503    0.687024
      9          1           0       -2.223647    1.949012    0.013237
     10          6           0       -4.350627    0.472482   -0.927179
     11          1           0       -4.378884    1.559756   -0.997475
     12          1           0       -4.437899    0.066355   -1.937320
     13          1           0       -5.227747    0.145787   -0.364337
     14          7           0       -0.971133    0.466862    0.726572
     15          6           0        0.056602    1.490005    1.062270
     16          1           0       -0.483224    2.311367    1.531517
     17          1           0        0.727550    1.037280    1.787324
     18          6           0        0.831565    1.974978   -0.182199
     19          1           0        0.243019    1.750346   -1.073144
     20          1           0        0.913644    3.063547   -0.119777
     21          6           0        2.233180    1.393156   -0.356004
     22          1           0        2.922148    1.748924    0.410620
     23          1           0        2.630146    1.664953   -1.333282
     24         16           0        2.283474   -0.426409   -0.267965
     25          8           0        3.543840   -0.822847   -0.874464
     26          8           0        1.060277   -0.850252   -0.994913
     27          8           0        2.170782   -0.710748    1.187163
 ---------------------------------------------------------------------
                    Distance matrix (angstroms):
                    1          2          3          4          5
     1  C    0.000000
     2  C    1.388368   0.000000
     3  C    2.393458   1.377163   0.000000
     4  C    2.777915   2.412723   1.403964   0.000000
     5  C    2.348725   2.726355   2.370522   1.374517   0.000000
     6  H    3.378422   2.138404   1.083756   2.154504   3.356627
     7  H    1.085119   2.192013   3.403416   3.859965   3.302280
     8  H    2.126689   1.080352   2.150834   3.403334   3.806062
     9  H    3.292679   3.804875   3.375869   2.154949   1.080830
    10  C    4.279796   3.798662   2.538416   1.502175   2.506942
    11  H    4.776401   4.568235   3.441784   2.155611   2.619369
    12  H    4.773982   4.149083   2.856707   2.145692   3.217486
    13  H    4.792608   4.150399   2.847818   2.149420   3.234193
    14  N    1.340823   2.356484   2.732869   2.385960   1.354041
    15  C    2.454947   3.729719   4.219448   3.727172   2.440429
    16  H    3.216743   4.371159   4.649284   3.923633   2.580943
    17  H    2.521193   3.899356   4.679874   4.457747   3.292857
    18  C    3.387973   4.561936   4.965752   4.390151   3.162892
    19  H    3.395911   4.319310   4.500086   3.847320   2.793224
    20  H    4.348742   5.522451   5.807186   5.043266   3.745163
    21  C    3.905022   5.100429   5.781442   5.500143   4.409671
    22  H    4.488269   5.784682   6.565697   6.295800   5.122183
    23  H    4.739074   5.809903   6.381347   6.048414   5.033117
    24  S    3.245168   4.246231   5.210378   5.385558   4.609970
    25  O    4.615226   5.476150   6.455567   6.706686   5.999280
    26  O    2.601680   3.256301   4.041390   4.292261   3.792916
    27  O    2.899797   4.031343   5.201591   5.500829   4.693654
                    6          7          8          9         10
     6  H    0.000000
     7  H    4.313357   0.000000
     8  H    2.489716   2.515464   0.000000
     9  H    4.286561   4.130241   4.883640   0.000000
    10  C    2.746435   5.360826   4.686071   2.754735   0.000000
    11  H    3.801430   5.820447   5.541304   2.412075   1.089910
    12  H    2.812541   5.835712   4.923896   3.500283   1.092218
    13  H    2.790698   5.868716   4.928786   3.524032   1.092181
    14  N    3.816619   2.064563   3.323396   2.067464   3.762433
    15  C    5.302999   2.590768   4.580127   2.551606   4.941349
    16  H    5.712385   3.474024   5.290507   2.337851   4.937964
    17  H    5.744181   2.213857   4.560804   3.562050   5.785793
    18  C    6.004682   3.460411   5.378353   3.061567   5.446798
    19  H    5.468028   3.718150   5.180758   2.702616   4.770307
    20  H    6.846418   4.441001   6.390079   3.332038   5.922674
    21  C    6.777098   3.592444   5.686585   4.506509   6.672361
    22  H    7.591051   3.997672   6.323319   5.164993   7.504150
    23  H    7.321328   4.508066   6.385009   5.045107   7.093525
    24  S    6.092485   2.670809   4.527569   5.102533   6.727099
    25  O    7.248843   3.974734   5.590005   6.460273   8.000204
    26  O    4.840368   2.480996   3.599761   4.431298   5.570646
    27  O    6.111282   1.958652   4.210569   5.269102   6.956957
                   11         12         13         14         15
    11  H    0.000000
    12  H    1.765514   0.000000
    13  H    1.766562   1.761943   0.000000
    14  N    3.972345   4.390352   4.405898   0.000000
    15  C    4.890905   5.587921   5.636175   1.488541   0.000000
    16  H    4.704985   5.719472   5.549279   2.070795   1.089147
    17  H    5.839842   6.441858   6.394526   2.082329   1.086662
    18  C    5.290167   5.872865   6.332012   2.519920   1.544173
    19  H    4.626450   5.049121   5.745111   2.521998   2.159287
    20  H    5.571588   6.397315   6.803662   3.318353   2.146576
    21  C    6.645196   6.983141   7.564485   3.506795   2.599687
    22  H    7.437983   7.906589   8.342146   4.111100   2.950092
    23  H    7.017858   7.271701   8.061836   4.318290   3.520285
    24  S    6.990283   6.943084   7.533601   3.518452   3.225078
    25  O    8.274146   8.101142   8.839639   4.961013   4.610971
    26  O    5.949169   5.653162   6.397575   2.970678   3.273556
    27  O    7.268147   7.351255   7.607827   3.386818   3.054287
                   16         17         18         19         20
    16  H    0.000000
    17  H    1.776150   0.000000
    18  C    2.186012   2.183831   0.000000
    19  H    2.761600   2.987559   1.091159   0.000000
    20  H    2.289932   2.788803   1.093442   1.755888   0.000000
    21  C    3.432885   2.643374   1.527498   2.145371   2.141771
    22  H    3.628954   2.686636   2.184736   3.062563   2.458382
    23  H    4.279953   3.708373   2.157777   2.402777   2.524884
    24  S    4.288143   2.964371   2.807500   3.090313   3.752091
    25  O    5.641745   4.298451   3.957713   4.190014   4.753056
    26  O    4.331406   3.378510   2.948684   2.727112   4.013127
    27  O    4.036769   2.344934   3.298754   3.857751   4.187337
                   21         22         23         24         25
    21  C    0.000000
    22  H    1.090394   0.000000
    23  H    1.089279   1.770172   0.000000
    24  S    1.822388   2.366528   2.372525   0.000000
    25  O    2.626271   2.941419   2.689702   1.453797   0.000000
    26  O    2.610897   3.492535   2.984165   1.484691   2.486633
    27  O    2.609918   2.686551   3.493940   1.486925   2.479548
                   26         27
    26  O    0.000000
    27  O    2.452374   0.000000
 Stoichiometry    C9H13NO3S
 Framework group  C1[X(C9H13NO3S)]
 Deg. of freedom    75
 Full point group                 C1      NOp   1
 Largest Abelian subgroup         C1      NOp   1
 Largest concise Abelian subgroup C1      NOp   1
                         Standard orientation:                         
 ---------------------------------------------------------------------
 Center     Atomic      Atomic             Coordinates (Angstroms)
 Number     Number       Type             X           Y           Z
 ---------------------------------------------------------------------
      1          6           0       -0.712904   -0.836170    0.908865
      2          6           0       -1.661355   -1.777970    0.533339
      3          6           0       -2.836432   -1.370017   -0.057716
      4          6           0       -3.085585   -0.005205   -0.272952
      5          6           0       -2.118577    0.880644    0.138708
      6          1           0       -3.573319   -2.101623   -0.368002
      7          1           0        0.253011   -1.078339    1.339962
      8          1           0       -1.436851   -2.823503    0.687024
      9          1           0       -2.223647    1.949012    0.013237
     10          6           0       -4.350627    0.472482   -0.927179
     11          1           0       -4.378884    1.559756   -0.997475
     12          1           0       -4.437899    0.066355   -1.937320
     13          1           0       -5.227747    0.145787   -0.364337
     14          7           0       -0.971133    0.466862    0.726572
     15          6           0        0.056602    1.490005    1.062270
     16          1           0       -0.483224    2.311367    1.531517
     17          1           0        0.727550    1.037280    1.787324
     18          6           0        0.831565    1.974978   -0.182199
     19          1           0        0.243019    1.750346   -1.073144
     20          1           0        0.913644    3.063547   -0.119777
     21          6           0        2.233180    1.393156   -0.356004
     22          1           0        2.922148    1.748924    0.410620
     23          1           0        2.630146    1.664953   -1.333282
     24         16           0        2.283474   -0.426409   -0.267965
     25          8           0        3.543840   -0.822847   -0.874464
     26          8           0        1.060277   -0.850252   -0.994913
     27          8           0        2.170782   -0.710748    1.187163
 ---------------------------------------------------------------------
 Rotational constants (GHZ):           1.3380384           0.3908245           0.3514481
 Leave Link  202 at Wed Oct 11 17:05:46 2023, MaxMem=  6710886400 cpu:               0.1 elap:               0.0
 (Enter /data0/home/software/g16/l301.exe)
 Standard basis: 6-31G(d) (6D, 7F)
 Ernie: Thresh=  0.10000D-02 Tol=  0.10000D-05 Strict=F.
 There are   240 symmetry adapted cartesian basis functions of A   symmetry.
 There are   240 symmetry adapted basis functions of A   symmetry.
   240 basis functions,   468 primitive gaussians,   240 cartesian basis functions
    57 alpha electrons       57 beta electrons
       nuclear repulsion energy      1096.6560516024 Hartrees.
 IExCor= 3428 DFT=T Ex+Corr=M052X ExCW=0 ScaHFX=  0.560000
 ScaDFX=  0.440000  0.440000  1.000000  1.000000 ScalE2=  1.000000  1.000000
 IRadAn=      5 IRanWt=     -1 IRanGd=            0 ICorTp=0 IEmpDi=  4
 NAtoms=   27 NActive=   27 NUniq=   27 SFac= 1.00D+00 NAtFMM=   60 NAOKFM=F Big=F
 Integral buffers will be    131072 words long.
 Raffenetti 2 integral format.
 Two-electron integral symmetry is turned on.
 Leave Link  301 at Wed Oct 11 17:05:46 2023, MaxMem=  6710886400 cpu:               1.1 elap:               0.1
 (Enter /data0/home/software/g16/l302.exe)
 NPDir=0 NMtPBC=     1 NCelOv=     1 NCel=       1 NClECP=     1 NCelD=      1
         NCelK=      1 NCelE2=     1 NClLst=     1 CellRange=     0.0.
 One-electron integrals computed using PRISM.
 One-electron integral symmetry used in STVInt
 NBasis=   240 RedAO= T EigKep=  6.17D-04  NBF=   240
 NBsUse=   240 1.00D-06 EigRej= -1.00D+00 NBFU=   240
 Precomputing XC quadrature grid using
 IXCGrd= 4 IRadAn=           5 IRanWt=          -1 IRanGd=           0 AccXCQ= 0.00D+00.
 Generated NRdTot=       0 NPtTot=           0 NUsed=           0 NTot=          32
 NSgBfM=   240   240   240   240   240 MxSgAt=    27 MxSgA2=    27.
 Leave Link  302 at Wed Oct 11 17:05:47 2023, MaxMem=  6710886400 cpu:               4.9 elap:               0.2
 (Enter /data0/home/software/g16/l303.exe)
 DipDrv:  MaxL=1.
 Leave Link  303 at Wed Oct 11 17:05:47 2023, MaxMem=  6710886400 cpu:               0.6 elap:               0.0
 (Enter /data0/home/software/g16/l401.exe)
 ExpMin= 1.17D-01 ExpMax= 2.19D+04 ExpMxC= 3.30D+03 IAcc=3 IRadAn=         5 AccDes= 0.00D+00
 Harris functional with IExCor= 1009 and IRadAn=       5 diagonalized for initial guess.
 HarFok:  IExCor= 1009 AccDes= 0.00D+00 IRadAn=         5 IDoV= 1 UseB2=F ITyADJ=14
 ICtDFT=  3500011 ScaDFX=  1.000000  1.000000  1.000000  1.000000
 FoFCou: FMM=F IPFlag=           0 FMFlag=      100000 FMFlg1=           0
         NFxFlg=           0 DoJE=T BraDBF=F KetDBF=T FulRan=T
         wScrn=  0.000000 ICntrl=       500 IOpCl=  0 I1Cent=   200000004 NGrid=           0
         NMat0=    1 NMatS0=      1 NMatT0=    0 NMatD0=    1 NMtDS0=    0 NMtDT0=    0
 Petite list used in FoFCou.
 Harris En= -1028.65254335988    
 JPrj=0 DoOrth=F DoCkMO=F.
 Leave Link  401 at Wed Oct 11 17:05:47 2023, MaxMem=  6710886400 cpu:              16.1 elap:               0.7
 (Enter /data0/home/software/g16/l502.exe)
 Integral symmetry usage will be decided dynamically.
 Closed shell SCF:
 Using DIIS extrapolation, IDIIS=  1040.
 NGot=  6710886400 LenX=  6710762668 LenY=  6710704627
 Requested convergence on RMS density matrix=1.00D-08 within 128 cycles.
 Requested convergence on MAX density matrix=1.00D-06.
 Requested convergence on             energy=1.00D-06.
 No special actions if energy rises.
 Fock matrices will be formed incrementally for  20 cycles.
 Integral accuracy reduced to 1.0D-05 until final iterations.

 Cycle   1  Pass 0  IDiag  1:
 FoFJK:  IHMeth= 1 ICntrl=       0 DoSepK=F KAlg= 0 I1Cent=           0 FoldK=F
 IRaf= 890000000 NMat=       1 IRICut=       1 DoRegI=T DoRafI=F ISym2E= 0 IDoP0=0 IntGTp=1.
 FoFCou: FMM=F IPFlag=           0 FMFlag=      100000 FMFlg1=           0
         NFxFlg=           0 DoJE=F BraDBF=F KetDBF=F FulRan=T
         wScrn=  0.000000 ICntrl=         0 IOpCl=  0 I1Cent=           0 NGrid=           0
         NMat0=    1 NMatS0=      1 NMatT0=    0 NMatD0=    1 NMtDS0=    0 NMtDT0=    0
 Symmetry not used in FoFCou.
 E= -1028.75969898995    
 DIIS: error= 3.89D-02 at cycle   1 NSaved=   1.
 NSaved= 1 IEnMin= 1 EnMin= -1028.75969898995     IErMin= 1 ErrMin= 3.89D-02
 ErrMax= 3.89D-02  0.00D+00 EMaxC= 1.00D-01 BMatC= 5.76D-01 BMatP= 5.76D-01
 IDIUse=3 WtCom= 6.11D-01 WtEn= 3.89D-01
 Coeff-Com:  0.100D+01
 Coeff-En:   0.100D+01
 Coeff:      0.100D+01
 Gap=     0.218 Goal=   None    Shift=    0.000
 GapD=    0.218 DampG=1.000 DampE=0.500 DampFc=0.5000 IDamp=-1.
 Damping current iteration by 5.00D-01
 RMSDP=5.84D-03 MaxDP=3.52D-01              OVMax= 1.56D-01

 Cycle   2  Pass 0  IDiag  1:
 RMSU=  2.92D-03    CP:  9.97D-01
 E= -1028.97011879902     Delta-E=       -0.210419809073 Rises=F Damp=T
 DIIS: error= 8.59D-03 at cycle   2 NSaved=   2.
 NSaved= 2 IEnMin= 2 EnMin= -1028.97011879902     IErMin= 2 ErrMin= 8.59D-03
 ErrMax= 8.59D-03  0.00D+00 EMaxC= 1.00D-01 BMatC= 3.61D-02 BMatP= 5.76D-01
 IDIUse=3 WtCom= 9.14D-01 WtEn= 8.59D-02
 Coeff-Com:  0.372D-01 0.963D+00
 Coeff-En:   0.500D-01 0.950D+00
 Coeff:      0.383D-01 0.962D+00
 Gap=     0.228 Goal=   None    Shift=    0.000
 RMSDP=1.25D-03 MaxDP=4.77D-02 DE=-2.10D-01 OVMax= 1.07D-01

 Cycle   3  Pass 0  IDiag  1:
 RMSU=  1.24D-03    CP:  9.93D-01  9.79D-01
 E= -1029.20530323736     Delta-E=       -0.235184438344 Rises=F Damp=F
 DIIS: error= 4.99D-03 at cycle   3 NSaved=   3.
 NSaved= 3 IEnMin= 3 EnMin= -1029.20530323736     IErMin= 3 ErrMin= 4.99D-03
 ErrMax= 4.99D-03  0.00D+00 EMaxC= 1.00D-01 BMatC= 1.37D-02 BMatP= 3.61D-02
 IDIUse=3 WtCom= 9.50D-01 WtEn= 4.99D-02
 Coeff-Com: -0.346D-01 0.355D+00 0.679D+00
 Coeff-En:   0.000D+00 0.000D+00 0.100D+01
 Coeff:     -0.329D-01 0.338D+00 0.695D+00
 Gap=     0.213 Goal=   None    Shift=    0.000
 RMSDP=6.26D-04 MaxDP=2.27D-02 DE=-2.35D-01 OVMax= 3.37D-02

 Cycle   4  Pass 0  IDiag  1:
 RMSU=  4.38D-04    CP:  9.96D-01  1.05D+00  6.91D-01
 E= -1029.21520850008     Delta-E=       -0.009905262717 Rises=F Damp=F
 DIIS: error= 2.02D-03 at cycle   4 NSaved=   4.
 NSaved= 4 IEnMin= 4 EnMin= -1029.21520850008     IErMin= 4 ErrMin= 2.02D-03
 ErrMax= 2.02D-03  0.00D+00 EMaxC= 1.00D-01 BMatC= 2.45D-03 BMatP= 1.37D-02
 IDIUse=3 WtCom= 9.80D-01 WtEn= 2.02D-02
 Coeff-Com: -0.133D-01 0.449D-01 0.319D+00 0.649D+00
 Coeff-En:   0.000D+00 0.000D+00 0.120D+00 0.880D+00
 Coeff:     -0.131D-01 0.440D-01 0.315D+00 0.654D+00
 Gap=     0.219 Goal=   None    Shift=    0.000
 RMSDP=2.28D-04 MaxDP=8.85D-03 DE=-9.91D-03 OVMax= 1.42D-02

 Cycle   5  Pass 0  IDiag  1:
 RMSU=  1.15D-04    CP:  9.96D-01  1.04D+00  7.87D-01  6.51D-01
 E= -1029.21736935738     Delta-E=       -0.002160857301 Rises=F Damp=F
 DIIS: error= 5.77D-04 at cycle   5 NSaved=   5.
 NSaved= 5 IEnMin= 5 EnMin= -1029.21736935738     IErMin= 5 ErrMin= 5.77D-04
 ErrMax= 5.77D-04  0.00D+00 EMaxC= 1.00D-01 BMatC= 1.55D-04 BMatP= 2.45D-03
 IDIUse=3 WtCom= 9.94D-01 WtEn= 5.77D-03
 Coeff-Com: -0.407D-02 0.662D-02 0.116D+00 0.307D+00 0.574D+00
 Coeff-En:   0.000D+00 0.000D+00 0.000D+00 0.000D+00 0.100D+01
 Coeff:     -0.404D-02 0.658D-02 0.115D+00 0.306D+00 0.577D+00
 Gap=     0.220 Goal=   None    Shift=    0.000
 RMSDP=5.86D-05 MaxDP=2.53D-03 DE=-2.16D-03 OVMax= 4.25D-03

 Cycle   6  Pass 0  IDiag  1:
 RMSU=  3.86D-05    CP:  9.95D-01  1.04D+00  7.87D-01  7.02D-01  6.70D-01
 E= -1029.21750386702     Delta-E=       -0.000134509638 Rises=F Damp=F
 DIIS: error= 1.36D-04 at cycle   6 NSaved=   6.
 NSaved= 6 IEnMin= 6 EnMin= -1029.21750386702     IErMin= 6 ErrMin= 1.36D-04
 ErrMax= 1.36D-04  0.00D+00 EMaxC= 1.00D-01 BMatC= 1.30D-05 BMatP= 1.55D-04
 IDIUse=3 WtCom= 9.99D-01 WtEn= 1.36D-03
 Coeff-Com: -0.334D-03-0.173D-02 0.171D-01 0.641D-01 0.261D+00 0.660D+00
 Coeff-En:   0.000D+00 0.000D+00 0.000D+00 0.000D+00 0.000D+00 0.100D+01
 Coeff:     -0.334D-03-0.173D-02 0.170D-01 0.640D-01 0.261D+00 0.660D+00
 Gap=     0.220 Goal=   None    Shift=    0.000
 RMSDP=1.64D-05 MaxDP=4.45D-04 DE=-1.35D-04 OVMax= 8.09D-04

 Cycle   7  Pass 0  IDiag  1:
 RMSU=  1.23D-05    CP:  9.95D-01  1.04D+00  7.88D-01  7.10D-01  7.41D-01
                    CP:  8.50D-01
 E= -1029.21751519853     Delta-E=       -0.000011331515 Rises=F Damp=F
 DIIS: error= 3.56D-05 at cycle   7 NSaved=   7.
 NSaved= 7 IEnMin= 7 EnMin= -1029.21751519853     IErMin= 7 ErrMin= 3.56D-05
 ErrMax= 3.56D-05  0.00D+00 EMaxC= 1.00D-01 BMatC= 8.43D-07 BMatP= 1.30D-05
 IDIUse=1 WtCom= 1.00D+00 WtEn= 0.00D+00
 Coeff-Com:  0.377D-03-0.161D-02-0.824D-02-0.148D-01 0.358D-01 0.220D+00
 Coeff-Com:  0.769D+00
 Coeff:      0.377D-03-0.161D-02-0.824D-02-0.148D-01 0.358D-01 0.220D+00
 Coeff:      0.769D+00
 Gap=     0.220 Goal=   None    Shift=    0.000
 RMSDP=6.19D-06 MaxDP=2.01D-04 DE=-1.13D-05 OVMax= 2.90D-04

 Initial convergence to 1.0D-05 achieved.  Increase integral accuracy.
 Cycle   8  Pass 1  IDiag  1:
 E= -1029.21744148785     Delta-E=        0.000073710679 Rises=F Damp=F
 DIIS: error= 3.68D-05 at cycle   1 NSaved=   1.
 NSaved= 1 IEnMin= 1 EnMin= -1029.21744148785     IErMin= 1 ErrMin= 3.68D-05
 ErrMax= 3.68D-05  0.00D+00 EMaxC= 1.00D-01 BMatC= 4.68D-07 BMatP= 4.68D-07
 IDIUse=1 WtCom= 1.00D+00 WtEn= 0.00D+00
 Coeff-Com:  0.100D+01
 Coeff:      0.100D+01
 Gap=     0.220 Goal=   None    Shift=    0.000
 RMSDP=6.19D-06 MaxDP=2.01D-04 DE= 7.37D-05 OVMax= 2.14D-04

 Cycle   9  Pass 1  IDiag  1:
 RMSU=  2.26D-05    CP:  1.00D+00
 E= -1029.21744184154     Delta-E=       -0.000000353690 Rises=F Damp=F
 DIIS: error= 2.27D-05 at cycle   2 NSaved=   2.
 NSaved= 2 IEnMin= 2 EnMin= -1029.21744184154     IErMin= 2 ErrMin= 2.27D-05
 ErrMax= 2.27D-05  0.00D+00 EMaxC= 1.00D-01 BMatC= 2.01D-07 BMatP= 4.68D-07
 IDIUse=1 WtCom= 1.00D+00 WtEn= 0.00D+00
 Coeff-Com:  0.350D+00 0.650D+00
 Coeff:      0.350D+00 0.650D+00
 Gap=     0.220 Goal=   None    Shift=    0.000
 RMSDP=2.69D-06 MaxDP=9.66D-05 DE=-3.54D-07 OVMax= 1.41D-04

 Cycle  10  Pass 1  IDiag  1:
 RMSU=  2.68D-06    CP:  1.00D+00  1.01D+00
 E= -1029.21744195212     Delta-E=       -0.000000110579 Rises=F Damp=F
 DIIS: error= 1.55D-05 at cycle   3 NSaved=   3.
 NSaved= 3 IEnMin= 3 EnMin= -1029.21744195212     IErMin= 3 ErrMin= 1.55D-05
 ErrMax= 1.55D-05  0.00D+00 EMaxC= 1.00D-01 BMatC= 7.50D-08 BMatP= 2.01D-07
 IDIUse=1 WtCom= 1.00D+00 WtEn= 0.00D+00
 Coeff-Com: -0.330D-01 0.373D+00 0.660D+00
 Coeff:     -0.330D-01 0.373D+00 0.660D+00
 Gap=     0.220 Goal=   None    Shift=    0.000
 RMSDP=1.18D-06 MaxDP=4.20D-05 DE=-1.11D-07 OVMax= 6.54D-05

 Cycle  11  Pass 1  IDiag  1:
 RMSU=  6.42D-07    CP:  1.00D+00  1.04D+00  6.88D-01
 E= -1029.21744201253     Delta-E=       -0.000000060411 Rises=F Damp=F
 DIIS: error= 1.81D-06 at cycle   4 NSaved=   4.
 NSaved= 4 IEnMin= 4 EnMin= -1029.21744201253     IErMin= 4 ErrMin= 1.81D-06
 ErrMax= 1.81D-06  0.00D+00 EMaxC= 1.00D-01 BMatC= 1.54D-09 BMatP= 7.50D-08
 IDIUse=1 WtCom= 1.00D+00 WtEn= 0.00D+00
 Coeff-Com: -0.239D-01 0.918D-01 0.204D+00 0.728D+00
 Coeff:     -0.239D-01 0.918D-01 0.204D+00 0.728D+00
 Gap=     0.220 Goal=   None    Shift=    0.000
 RMSDP=2.59D-07 MaxDP=8.79D-06 DE=-6.04D-08 OVMax= 1.75D-05

 Cycle  12  Pass 1  IDiag  1:
 RMSU=  2.50D-07    CP:  1.00D+00  1.04D+00  7.05D-01  1.06D+00
 E= -1029.21744201475     Delta-E=       -0.000000002216 Rises=F Damp=F
 DIIS: error= 8.41D-07 at cycle   5 NSaved=   5.
 NSaved= 5 IEnMin= 5 EnMin= -1029.21744201475     IErMin= 5 ErrMin= 8.41D-07
 ErrMax= 8.41D-07  0.00D+00 EMaxC= 1.00D-01 BMatC= 3.59D-10 BMatP= 1.54D-09
 IDIUse=1 WtCom= 1.00D+00 WtEn= 0.00D+00
 Coeff-Com: -0.117D-02-0.433D-01-0.619D-01 0.268D+00 0.839D+00
 Coeff:     -0.117D-02-0.433D-01-0.619D-01 0.268D+00 0.839D+00
 Gap=     0.220 Goal=   None    Shift=    0.000
 RMSDP=1.50D-07 MaxDP=3.29D-06 DE=-2.22D-09 OVMax= 1.29D-05

 Cycle  13  Pass 1  IDiag  1:
 RMSU=  9.56D-08    CP:  1.00D+00  1.04D+00  7.11D-01  1.23D+00  1.07D+00
 E= -1029.21744201540     Delta-E=       -0.000000000647 Rises=F Damp=F
 DIIS: error= 3.90D-07 at cycle   6 NSaved=   6.
 NSaved= 6 IEnMin= 6 EnMin= -1029.21744201540     IErMin= 6 ErrMin= 3.90D-07
 ErrMax= 3.90D-07  0.00D+00 EMaxC= 1.00D-01 BMatC= 6.98D-11 BMatP= 3.59D-10
 IDIUse=1 WtCom= 1.00D+00 WtEn= 0.00D+00
 Coeff-Com:  0.279D-02-0.357D-01-0.608D-01 0.208D-01 0.389D+00 0.684D+00
 Coeff:      0.279D-02-0.357D-01-0.608D-01 0.208D-01 0.389D+00 0.684D+00
 Gap=     0.220 Goal=   None    Shift=    0.000
 RMSDP=5.78D-08 MaxDP=1.32D-06 DE=-6.47D-10 OVMax= 5.14D-06

 Cycle  14  Pass 1  IDiag  1:
 RMSU=  3.63D-08    CP:  1.00D+00  1.04D+00  7.14D-01  1.28D+00  1.17D+00
                    CP:  8.74D-01
 E= -1029.21744201551     Delta-E=       -0.000000000108 Rises=F Damp=F
 DIIS: error= 1.02D-07 at cycle   7 NSaved=   7.
 NSaved= 7 IEnMin= 7 EnMin= -1029.21744201551     IErMin= 7 ErrMin= 1.02D-07
 ErrMax= 1.02D-07  0.00D+00 EMaxC= 1.00D-01 BMatC= 4.96D-12 BMatP= 6.98D-11
 IDIUse=1 WtCom= 1.00D+00 WtEn= 0.00D+00
 Coeff-Com:  0.890D-03-0.348D-02-0.662D-02-0.276D-01-0.175D-01 0.183D+00
 Coeff-Com:  0.871D+00
 Coeff:      0.890D-03-0.348D-02-0.662D-02-0.276D-01-0.175D-01 0.183D+00
 Coeff:      0.871D+00
 Gap=     0.220 Goal=   None    Shift=    0.000
 RMSDP=1.98D-08 MaxDP=4.82D-07 DE=-1.08D-10 OVMax= 1.87D-06

 Cycle  15  Pass 1  IDiag  1:
 RMSU=  1.08D-08    CP:  1.00D+00  1.04D+00  7.16D-01  1.30D+00  1.20D+00
                    CP:  9.86D-01  1.11D+00
 E= -1029.21744201553     Delta-E=       -0.000000000019 Rises=F Damp=F
 DIIS: error= 3.58D-08 at cycle   8 NSaved=   8.
 NSaved= 8 IEnMin= 8 EnMin= -1029.21744201553     IErMin= 8 ErrMin= 3.58D-08
 ErrMax= 3.58D-08  0.00D+00 EMaxC= 1.00D-01 BMatC= 9.59D-13 BMatP= 4.96D-12
 IDIUse=1 WtCom= 1.00D+00 WtEn= 0.00D+00
 Coeff-Com:  0.258D-05 0.301D-02 0.509D-02-0.136D-01-0.568D-01 0.420D-02
 Coeff-Com:  0.365D+00 0.693D+00
 Coeff:      0.258D-05 0.301D-02 0.509D-02-0.136D-01-0.568D-01 0.420D-02
 Coeff:      0.365D+00 0.693D+00
 Gap=     0.220 Goal=   None    Shift=    0.000
 RMSDP=6.82D-09 MaxDP=2.19D-07 DE=-1.91D-11 OVMax= 5.41D-07

 SCF Done:  E(RM052X) =  -1029.21744202     A.U. after   15 cycles
            NFock= 15  Conv=0.68D-08     -V/T= 2.0070
 KE= 1.022045832064D+03 PE=-4.608646422570D+03 EE= 1.460727096888D+03
 Leave Link  502 at Wed Oct 11 17:06:05 2023, MaxMem=  6710886400 cpu:             418.8 elap:              17.5
 (Enter /data0/home/software/g16/l601.exe)
 Copying SCF densities to generalized density rwf, IOpCl= 0 IROHF=0.

 **********************************************************************

            Population analysis using the SCF density.

 **********************************************************************

 Orbital symmetries:
       Occupied  (A) (A) (A) (A) (A) (A) (A) (A) (A) (A) (A) (A)
                 (A) (A) (A) (A) (A) (A) (A) (A) (A) (A) (A) (A)
                 (A) (A) (A) (A) (A) (A) (A) (A) (A) (A) (A) (A)
                 (A) (A) (A) (A) (A) (A) (A) (A) (A) (A) (A) (A)
                 (A) (A) (A) (A) (A) (A) (A) (A) (A)
       Virtual   (A) (A) (A) (A) (A) (A) (A) (A) (A) (A) (A) (A)
                 (A) (A) (A) (A) (A) (A) (A) (A) (A) (A) (A) (A)
                 (A) (A) (A) (A) (A) (A) (A) (A) (A) (A) (A) (A)
                 (A) (A) (A) (A) (A) (A) (A) (A) (A) (A) (A) (A)
                 (A) (A) (A) (A) (A) (A) (A) (A) (A) (A) (A) (A)
                 (A) (A) (A) (A) (A) (A) (A) (A) (A) (A) (A) (A)
                 (A) (A) (A) (A) (A) (A) (A) (A) (A) (A) (A) (A)
                 (A) (A) (A) (A) (A) (A) (A) (A) (A) (A) (A) (A)
                 (A) (A) (A) (A) (A) (A) (A) (A) (A) (A) (A) (A)
                 (A) (A) (A) (A) (A) (A) (A) (A) (A) (A) (A) (A)
                 (A) (A) (A) (A) (A) (A) (A) (A) (A) (A) (A) (A)
                 (A) (A) (A) (A) (A) (A) (A) (A) (A) (A) (A) (A)
                 (A) (A) (A) (A) (A) (A) (A) (A) (A) (A) (A) (A)
                 (A) (A) (A) (A) (A) (A) (A) (A) (A) (A) (A) (A)
                 (A) (A) (A) (A) (A) (A) (A) (A) (A) (A) (A) (A)
                 (A) (A) (A)
 The electronic state is 1-A.
 Alpha  occ. eigenvalues --  -90.18722 -19.60354 -19.60203 -19.59630 -14.94010
 Alpha  occ. eigenvalues --  -10.68426 -10.67384 -10.65331 -10.65122 -10.65084
 Alpha  occ. eigenvalues --  -10.63458 -10.61723 -10.59869 -10.57278  -8.39379
 Alpha  occ. eigenvalues --   -6.31999  -6.31991  -6.31938  -1.18540  -1.17634
 Alpha  occ. eigenvalues --   -1.03826  -1.03073  -1.00281  -0.95161  -0.91798
 Alpha  occ. eigenvalues --   -0.86472  -0.83899  -0.78439  -0.76355  -0.72558
 Alpha  occ. eigenvalues --   -0.66362  -0.63784  -0.61844  -0.60616  -0.58461
 Alpha  occ. eigenvalues --   -0.57773  -0.55652  -0.54394  -0.53128  -0.52960
 Alpha  occ. eigenvalues --   -0.51499  -0.50617  -0.49140  -0.48263  -0.47783
 Alpha  occ. eigenvalues --   -0.47115  -0.45949  -0.43890  -0.42683  -0.39510
 Alpha  occ. eigenvalues --   -0.37562  -0.35423  -0.34521  -0.31684  -0.31517
 Alpha  occ. eigenvalues --   -0.30042  -0.27619
 Alpha virt. eigenvalues --   -0.05647  -0.01544   0.09528   0.12330   0.12768
 Alpha virt. eigenvalues --    0.13632   0.14663   0.16688   0.17510   0.18427
 Alpha virt. eigenvalues --    0.18529   0.19672   0.20722   0.21019   0.21827
 Alpha virt. eigenvalues --    0.22442   0.23017   0.24039   0.24536   0.25849
 Alpha virt. eigenvalues --    0.26495   0.28018   0.29806   0.31091   0.32475
 Alpha virt. eigenvalues --    0.34563   0.35594   0.38689   0.42042   0.44668
 Alpha virt. eigenvalues --    0.45436   0.50156   0.50926   0.52306   0.53810
 Alpha virt. eigenvalues --    0.54261   0.55037   0.56225   0.57505   0.58458
 Alpha virt. eigenvalues --    0.59352   0.61327   0.61980   0.63582   0.64397
 Alpha virt. eigenvalues --    0.66180   0.67282   0.67985   0.68750   0.70962
 Alpha virt. eigenvalues --    0.72144   0.74129   0.74722   0.77226   0.79672
 Alpha virt. eigenvalues --    0.80419   0.83325   0.85276   0.86346   0.87896
 Alpha virt. eigenvalues --    0.88162   0.89462   0.91330   0.93073   0.93491
 Alpha virt. eigenvalues --    0.94584   0.94919   0.95011   0.95953   0.98472
 Alpha virt. eigenvalues --    0.98894   0.99333   1.00924   1.01966   1.02547
 Alpha virt. eigenvalues --    1.04675   1.05974   1.07405   1.09057   1.12631
 Alpha virt. eigenvalues --    1.13582   1.16157   1.16846   1.17956   1.19048
 Alpha virt. eigenvalues --    1.19666   1.21737   1.22222   1.24171   1.26360
 Alpha virt. eigenvalues --    1.30051   1.34564   1.35052   1.37151   1.37262
 Alpha virt. eigenvalues --    1.37867   1.40430   1.41834   1.45497   1.46616
 Alpha virt. eigenvalues --    1.47764   1.50809   1.51596   1.52806   1.56189
 Alpha virt. eigenvalues --    1.60108   1.66568   1.71291   1.72800   1.73223
 Alpha virt. eigenvalues --    1.77401   1.83173   1.85954   1.86858   1.88684
 Alpha virt. eigenvalues --    1.89679   1.90999   1.91742   1.92471   1.93950
 Alpha virt. eigenvalues --    1.95132   1.95526   1.96657   1.97206   1.98439
 Alpha virt. eigenvalues --    2.00289   2.02935   2.05142   2.05902   2.07973
 Alpha virt. eigenvalues --    2.10558   2.10806   2.12124   2.15642   2.17221
 Alpha virt. eigenvalues --    2.18864   2.20195   2.22998   2.23908   2.24217
 Alpha virt. eigenvalues --    2.27752   2.28878   2.31792   2.33312   2.33810
 Alpha virt. eigenvalues --    2.34981   2.36638   2.39293   2.42327   2.43618
 Alpha virt. eigenvalues --    2.46414   2.48343   2.52540   2.55489   2.61727
 Alpha virt. eigenvalues --    2.64530   2.66836   2.70218   2.72740   2.74818
 Alpha virt. eigenvalues --    2.80159   2.81764   2.82403   2.83934   2.88493
 Alpha virt. eigenvalues --    2.95261   2.98045   3.09375   3.42665   3.91193
 Alpha virt. eigenvalues --    3.95276   4.03726   4.09152   4.12068   4.15485
 Alpha virt. eigenvalues --    4.21806   4.27170   4.29537   4.30584   4.42686
 Alpha virt. eigenvalues --    4.45854   4.60094   4.69263
          Condensed to atoms (all electrons):
               1          2          3          4          5          6
     1  C    4.857483   0.503097  -0.028938  -0.036225  -0.055337   0.004352
     2  C    0.503097   4.931765   0.517978  -0.000935  -0.053089  -0.036630
     3  C   -0.028938   0.517978   4.912301   0.512305  -0.030648   0.372020
     4  C   -0.036225  -0.000935   0.512305   4.708412   0.574072  -0.043804
     5  C   -0.055337  -0.053089  -0.030648   0.574072   4.881971   0.005659
     6  H    0.004352  -0.036630   0.372020  -0.043804   0.005659   0.493514
     7  H    0.313537  -0.021979   0.002776   0.000210   0.002632  -0.000082
     8  H   -0.030284   0.374003  -0.031595   0.003026   0.000563  -0.003885
     9  H    0.003717  -0.000227   0.004987  -0.029886   0.372872  -0.000116
    10  C    0.000219   0.005613  -0.060595   0.358365  -0.051014  -0.005669
    11  H    0.000006  -0.000145   0.004125  -0.032802  -0.003318   0.000025
    12  H   -0.000001   0.000050  -0.003672  -0.029635   0.000211   0.001255
    13  H    0.000035  -0.000035  -0.003782  -0.029325   0.000839   0.001385
    14  N    0.377782  -0.005417  -0.050298  -0.002888   0.336872  -0.000055
    15  C   -0.036817   0.005772   0.000088   0.004720  -0.043716   0.000008
    16  H    0.003051  -0.000219  -0.000000   0.000506  -0.003990  -0.000000
    17  H   -0.000026   0.000654  -0.000027  -0.000148   0.002672  -0.000000
    18  C   -0.001154  -0.000652   0.000121  -0.000382  -0.001145   0.000000
    19  H    0.000496  -0.000119   0.000044  -0.000165   0.004899  -0.000000
    20  H   -0.000044   0.000006  -0.000000  -0.000016  -0.000012   0.000000
    21  C   -0.002153  -0.000030   0.000000   0.000008   0.000076  -0.000000
    22  H    0.000016  -0.000001   0.000000  -0.000000   0.000007   0.000000
    23  H    0.000053   0.000002  -0.000000  -0.000000  -0.000013  -0.000000
    24  S    0.003376   0.001002  -0.000088  -0.000050  -0.000386   0.000002
    25  O   -0.000023   0.000002   0.000000  -0.000000   0.000000   0.000000
    26  O    0.018344  -0.005046   0.000320  -0.000408   0.001974   0.000003
    27  O   -0.027143   0.000976  -0.000018   0.000005  -0.000147   0.000000
               7          8          9         10         11         12
     1  C    0.313537  -0.030284   0.003717   0.000219   0.000006  -0.000001
     2  C   -0.021979   0.374003  -0.000227   0.005613  -0.000145   0.000050
     3  C    0.002776  -0.031595   0.004987  -0.060595   0.004125  -0.003672
     4  C    0.000210   0.003026  -0.029886   0.358365  -0.032802  -0.029635
     5  C    0.002632   0.000563   0.372872  -0.051014  -0.003318   0.000211
     6  H   -0.000082  -0.003885  -0.000116  -0.005669   0.000025   0.001255
     7  H    0.369006  -0.002024  -0.000099   0.000005  -0.000000  -0.000000
     8  H   -0.002024   0.452919   0.000014  -0.000129   0.000002   0.000001
     9  H   -0.000099   0.000014   0.474784  -0.005551   0.004794   0.000047
    10  C    0.000005  -0.000129  -0.005551   5.186704   0.377656   0.377238
    11  H   -0.000000   0.000002   0.004794   0.377656   0.502208  -0.022351
    12  H   -0.000000   0.000001   0.000047   0.377238  -0.022351   0.487986
    13  H    0.000000  -0.000001   0.000041   0.375308  -0.023188  -0.026033
    14  N   -0.035463   0.003290  -0.050763   0.004890   0.000122  -0.000077
    15  C   -0.004691  -0.000084  -0.003071  -0.000117  -0.000002   0.000002
    16  H    0.000136   0.000003   0.002177  -0.000001  -0.000001   0.000000
    17  H    0.002380   0.000000   0.000181   0.000002   0.000000  -0.000000
    18  C    0.000514  -0.000001   0.000550  -0.000002  -0.000001  -0.000000
    19  H    0.000168  -0.000000   0.001003   0.000005   0.000003  -0.000001
    20  H   -0.000009  -0.000000  -0.000022  -0.000000  -0.000000   0.000000
    21  C    0.001342  -0.000000  -0.000016   0.000000   0.000000  -0.000000
    22  H    0.000042  -0.000000   0.000001  -0.000000   0.000000   0.000000
    23  H   -0.000050   0.000000   0.000000   0.000000  -0.000000  -0.000000
    24  S   -0.007090   0.000092   0.000005  -0.000001  -0.000000   0.000000
    25  O    0.000024  -0.000000   0.000000  -0.000000   0.000000  -0.000000
    26  O   -0.007275  -0.000070   0.000033  -0.000003  -0.000000  -0.000000
    27  O    0.050107   0.000045  -0.000000   0.000000   0.000000   0.000000
              13         14         15         16         17         18
     1  C    0.000035   0.377782  -0.036817   0.003051  -0.000026  -0.001154
     2  C   -0.000035  -0.005417   0.005772  -0.000219   0.000654  -0.000652
     3  C   -0.003782  -0.050298   0.000088  -0.000000  -0.000027   0.000121
     4  C   -0.029325  -0.002888   0.004720   0.000506  -0.000148  -0.000382
     5  C    0.000839   0.336872  -0.043716  -0.003990   0.002672  -0.001145
     6  H    0.001385  -0.000055   0.000008  -0.000000  -0.000000   0.000000
     7  H    0.000000  -0.035463  -0.004691   0.000136   0.002380   0.000514
     8  H   -0.000001   0.003290  -0.000084   0.000003   0.000000  -0.000001
     9  H    0.000041  -0.050763  -0.003071   0.002177   0.000181   0.000550
    10  C    0.375308   0.004890  -0.000117  -0.000001   0.000002  -0.000002
    11  H   -0.023188   0.000122  -0.000002  -0.000001   0.000000  -0.000001
    12  H   -0.026033  -0.000077   0.000002   0.000000  -0.000000  -0.000000
    13  H    0.499205  -0.000096   0.000002  -0.000001  -0.000000   0.000000
    14  N   -0.000096   6.745845   0.239611  -0.042838  -0.031565  -0.050638
    15  C    0.000002   0.239611   5.157600   0.385779   0.377339   0.301452
    16  H   -0.000001  -0.042838   0.385779   0.518489  -0.019759  -0.040406
    17  H   -0.000000  -0.031565   0.377339  -0.019759   0.416359  -0.036062
    18  C    0.000000  -0.050638   0.301452  -0.040406  -0.036062   5.218359
    19  H   -0.000000  -0.007920  -0.044883   0.001383   0.002684   0.385317
    20  H    0.000000   0.003443  -0.040242  -0.007377   0.001476   0.369955
    21  C    0.000000   0.002299  -0.035120   0.003342  -0.001553   0.262521
    22  H   -0.000000   0.000063  -0.004186  -0.000050   0.001598  -0.035695
    23  H   -0.000000  -0.000152   0.005197  -0.000071   0.000268  -0.033116
    24  S    0.000000  -0.005383  -0.003793   0.000605  -0.004499  -0.004342
    25  O    0.000000  -0.000012  -0.000046   0.000000   0.000014   0.002616
    26  O    0.000000  -0.009274  -0.007171  -0.000028  -0.000391   0.010050
    27  O    0.000000  -0.003976   0.002967   0.000394   0.018399  -0.009793
              19         20         21         22         23         24
     1  C    0.000496  -0.000044  -0.002153   0.000016   0.000053   0.003376
     2  C   -0.000119   0.000006  -0.000030  -0.000001   0.000002   0.001002
     3  C    0.000044  -0.000000   0.000000   0.000000  -0.000000  -0.000088
     4  C   -0.000165  -0.000016   0.000008  -0.000000  -0.000000  -0.000050
     5  C    0.004899  -0.000012   0.000076   0.000007  -0.000013  -0.000386
     6  H   -0.000000   0.000000  -0.000000   0.000000  -0.000000   0.000002
     7  H    0.000168  -0.000009   0.001342   0.000042  -0.000050  -0.007090
     8  H   -0.000000  -0.000000  -0.000000  -0.000000   0.000000   0.000092
     9  H    0.001003  -0.000022  -0.000016   0.000001   0.000000   0.000005
    10  C    0.000005  -0.000000   0.000000  -0.000000   0.000000  -0.000001
    11  H    0.000003  -0.000000   0.000000   0.000000  -0.000000  -0.000000
    12  H   -0.000001   0.000000  -0.000000   0.000000  -0.000000   0.000000
    13  H   -0.000000   0.000000   0.000000  -0.000000  -0.000000   0.000000
    14  N   -0.007920   0.003443   0.002299   0.000063  -0.000152  -0.005383
    15  C   -0.044883  -0.040242  -0.035120  -0.004186   0.005197  -0.003793
    16  H    0.001383  -0.007377   0.003342  -0.000050  -0.000071   0.000605
    17  H    0.002684   0.001476  -0.001553   0.001598   0.000268  -0.004499
    18  C    0.385317   0.369955   0.262521  -0.035695  -0.033116  -0.004342
    19  H    0.504863  -0.025961  -0.031546   0.004299  -0.004844  -0.002874
    20  H   -0.025961   0.549554  -0.028245  -0.003200  -0.002776   0.001537
    21  C   -0.031546  -0.028245   5.674563   0.356044   0.357227   0.178122
    22  H    0.004299  -0.003200   0.356044   0.502665  -0.022678  -0.010181
    23  H   -0.004844  -0.002776   0.357227  -0.022678   0.493537  -0.012373
    24  S   -0.002874   0.001537   0.178122  -0.010181  -0.012373  13.427291
    25  O    0.000015  -0.000040  -0.062806  -0.000306   0.000851   0.477558
    26  O    0.006758   0.000353  -0.075795   0.002120  -0.000792   0.388315
    27  O    0.000049  -0.000157  -0.056925   0.000201   0.002327   0.336594
              25         26         27
     1  C   -0.000023   0.018344  -0.027143
     2  C    0.000002  -0.005046   0.000976
     3  C    0.000000   0.000320  -0.000018
     4  C   -0.000000  -0.000408   0.000005
     5  C    0.000000   0.001974  -0.000147
     6  H    0.000000   0.000003   0.000000
     7  H    0.000024  -0.007275   0.050107
     8  H   -0.000000  -0.000070   0.000045
     9  H    0.000000   0.000033  -0.000000
    10  C   -0.000000  -0.000003   0.000000
    11  H    0.000000  -0.000000   0.000000
    12  H   -0.000000  -0.000000   0.000000
    13  H    0.000000   0.000000   0.000000
    14  N   -0.000012  -0.009274  -0.003976
    15  C   -0.000046  -0.007171   0.002967
    16  H    0.000000  -0.000028   0.000394
    17  H    0.000014  -0.000391   0.018399
    18  C    0.002616   0.010050  -0.009793
    19  H    0.000015   0.006758   0.000049
    20  H   -0.000040   0.000353  -0.000157
    21  C   -0.062806  -0.075795  -0.056925
    22  H   -0.000306   0.002120   0.000201
    23  H    0.000851  -0.000792   0.002327
    24  S    0.477558   0.388315   0.336594
    25  O    8.264198  -0.054468  -0.055001
    26  O   -0.054468   8.459833  -0.057248
    27  O   -0.055001  -0.057248   8.480847
 Mulliken charges:
               1
     1  C    0.132583
     2  C   -0.216396
     3  C   -0.117405
     4  C    0.045039
     5  C    0.057497
     6  H    0.212018
     7  H    0.335881
     8  H    0.234117
     9  H    0.224543
    10  C   -0.562924
    11  H    0.192868
    12  H    0.214981
    13  H    0.205646
    14  N   -0.417401
    15  C   -0.256598
    16  H    0.198875
    17  H    0.270006
    18  C   -0.338066
    19  H    0.206325
    20  H    0.181776
    21  C   -0.541358
    22  H    0.209239
    23  H    0.217404
    24  S    1.236560
    25  O   -0.572576
    26  O   -0.670134
    27  O   -0.682504
 Sum of Mulliken charges =  -0.00000
 Mulliken charges with hydrogens summed into heavy atoms:
               1
     1  C    0.468464
     2  C    0.017721
     3  C    0.094613
     4  C    0.045039
     5  C    0.282041
    10  C    0.050571
    14  N   -0.417401
    15  C    0.212283
    18  C    0.050036
    21  C   -0.114714
    24  S    1.236560
    25  O   -0.572576
    26  O   -0.670134
    27  O   -0.682504
 Electronic spatial extent (au):  <R**2>=           3265.4761
 Charge=              0.0000 electrons
 Dipole moment (field-independent basis, Debye):
    X=            -12.9568    Y=              4.9186    Z=              2.0455  Tot=             14.0091
 Quadrupole moment (field-independent basis, Debye-Ang):
   XX=            -94.2360   YY=            -78.3364   ZZ=            -92.9981
   XY=             13.6527   XZ=              4.9907   YZ=             -2.0548
 Traceless Quadrupole moment (field-independent basis, Debye-Ang):
   XX=             -5.7125   YY=             10.1871   ZZ=             -4.4746
   XY=             13.6527   XZ=              4.9907   YZ=             -2.0548
 Octapole moment (field-independent basis, Debye-Ang**2):
  XXX=           -132.9789  YYY=             -7.0488  ZZZ=             -1.5702  XYY=            -14.7726
  XXY=             25.8684  XXZ=             -8.3394  XZZ=             -5.8717  YZZ=              7.3639
  YYZ=              6.2818  XYZ=             -3.7586
 Hexadecapole moment (field-independent basis, Debye-Ang**3):
 XXXX=          -3084.2861 YYYY=           -723.5155 ZZZZ=           -383.2671 XXXY=            112.9975
 XXXZ=            109.2449 YYYX=             11.9712 YYYZ=             -1.5596 ZZZX=              3.5786
 ZZZY=              3.4413 XXYY=           -606.8459 XXZZ=           -602.9825 YYZZ=           -196.3069
 XXYZ=             -7.8794 YYXZ=              2.4259 ZZXY=             11.1902
 N-N= 1.096656051602D+03 E-N=-4.608646422896D+03  KE= 1.022045832064D+03
 No NMR shielding tensors so no spin-rotation constants.
 Leave Link  601 at Wed Oct 11 17:06:05 2023, MaxMem=  6710886400 cpu:               2.5 elap:               0.1
 (Enter /data0/home/software/g16/l9999.exe)
 1\1\GINC-LOCALHOST\SP\RM052X\6-31G(d)\C9H13N1O3S1\WUHANYU\11-Oct-2023\
 0\\#p M052X/6-31G*\\Title Card Required\\0,1\C,0,-0.712904,-0.83617,0.
 908865\C,0,-1.661355,-1.77797,0.533339\C,0,-2.836432,-1.370017,-0.0577
 16\C,0,-3.085585,-0.005205,-0.272952\C,0,-2.118577,0.880644,0.138708\H
 ,0,-3.573319,-2.101623,-0.368002\H,0,0.253011,-1.078339,1.339962\H,0,-
 1.436851,-2.823503,0.687024\H,0,-2.223647,1.949012,0.013237\C,0,-4.350
 627,0.472482,-0.927179\H,0,-4.378884,1.559756,-0.997475\H,0,-4.437899,
 0.066355,-1.93732\H,0,-5.227747,0.145787,-0.364337\N,0,-0.971133,0.466
 862,0.726572\C,0,0.056602,1.490005,1.06227\H,0,-0.483224,2.311367,1.53
 1517\H,0,0.72755,1.03728,1.787324\C,0,0.831565,1.974978,-0.182199\H,0,
 0.243019,1.750346,-1.073144\H,0,0.913644,3.063547,-0.119777\C,0,2.2331
 8,1.393156,-0.356004\H,0,2.922148,1.748924,0.41062\H,0,2.630146,1.6649
 53,-1.333282\S,0,2.283474,-0.426409,-0.267965\O,0,3.54384,-0.822847,-0
 .874464\O,0,1.060277,-0.850252,-0.994913\O,0,2.170782,-0.710748,1.1871
 63\\Version=ES64L-G16RevA.03\State=1-A\HF=-1029.217442\RMSD=6.822e-09\
 Dipole=-5.0975855,1.9351179,0.8047701\Quadrupole=-4.2471265,7.5738591,
 -3.3267326,10.150476,3.7104394,-1.5276644\PG=C01 [X(C9H13N1O3S1)]\\@


 IT MATTERS NOT HOW DEEP YOU PLOW,
 BUT HOW LONG YOU STAY IN THE FURROW.
 Job cpu time:       0 days  0 hours  7 minutes 27.3 seconds.
 Elapsed time:       0 days  0 hours  0 minutes 18.9 seconds.
 File lengths (MBytes):  RWF=     37 Int=      0 D2E=      0 Chk=      4 Scr=      1
 Normal termination of Gaussian 16 at Wed Oct 11 17:06:05 2023.
