 Entering Gaussian System, Link 0=g16
 Initial command:
 /data0/home/software/g16/l1.exe "/data0/home/software/g16/scratch/Gau-3823528.inp" -scrdir="/data0/home/software/g16/scratch/"
 Default is to use a total of  22 processors:
                               22 via shared-memory
                                1 via Linda
 Entering Link 1 = /data0/home/software/g16/l1.exe PID=   3823529.
  
 Copyright (c) 1988,1990,1992,1993,1995,1998,2003,2009,2016,
            Gaussian, Inc.  All Rights Reserved.
  
 This is part of the Gaussian(R) 16 program.  It is based on
 the Gaussian(R) 09 system (copyright 2009, Gaussian, Inc.),
 the Gaussian(R) 03 system (copyright 2003, Gaussian, Inc.),
 the Gaussian(R) 98 system (copyright 1998, Gaussian, Inc.),
 the Gaussian(R) 94 system (copyright 1995, Gaussian, Inc.),
 the Gaussian 92(TM) system (copyright 1992, Gaussian, Inc.),
 the Gaussian 90(TM) system (copyright 1990, Gaussian, Inc.),
 the Gaussian 88(TM) system (copyright 1988, Gaussian, Inc.),
 the Gaussian 86(TM) system (copyright 1986, Carnegie Mellon
 University), and the Gaussian 82(TM) system (copyright 1983,
 Carnegie Mellon University). Gaussian is a federally registered
 trademark of Gaussian, Inc.
  
 This software contains proprietary and confidential information,
 including trade secrets, belonging to Gaussian, Inc.
  
 This software is provided under written license and may be
 used, copied, transmitted, or stored only in accord with that
 written license.
  
 The following legend is applicable only to US Government
 contracts under FAR:
  
                    RESTRICTED RIGHTS LEGEND
  
 Use, reproduction and disclosure by the US Government is
 subject to restrictions as set forth in subparagraphs (a)
 and (c) of the Commercial Computer Software - Restricted
 Rights clause in FAR 52.227-19.
  
 Gaussian, Inc.
 340 Quinnipiac St., Bldg. 40, Wallingford CT 06492
  
  
 ---------------------------------------------------------------
 Warning -- This program may not be used in any manner that
 competes with the business of Gaussian, Inc. or will provide
 assistance to any competitor of Gaussian, Inc.  The licensee
 of this program is prohibited from giving any competitor of
 Gaussian, Inc. access to this program.  By using this program,
 the user acknowledges that Gaussian, Inc. is engaged in the
 business of creating and licensing software in the field of
 computational chemistry and represents and warrants to the
 licensee that it is not a competitor of Gaussian, Inc. and that
 it will not use this program in any manner prohibited above.
 ---------------------------------------------------------------
  

 Cite this work as:
 Gaussian 16, Revision A.03,
 M. J. Frisch, G. W. Trucks, H. B. Schlegel, G. E. Scuseria, 
 M. A. Robb, J. R. Cheeseman, G. Scalmani, V. Barone, 
 G. A. Petersson, H. Nakatsuji, X. Li, M. Caricato, A. V. Marenich, 
 J. Bloino, B. G. Janesko, R. Gomperts, B. Mennucci, H. P. Hratchian, 
 J. V. Ortiz, A. F. Izmaylov, J. L. Sonnenberg, D. Williams-Young, 
 F. Ding, F. Lipparini, F. Egidi, J. Goings, B. Peng, A. Petrone, 
 T. Henderson, D. Ranasinghe, V. G. Zakrzewski, J. Gao, N. Rega, 
 G. Zheng, W. Liang, M. Hada, M. Ehara, K. Toyota, R. Fukuda, 
 J. Hasegawa, M. Ishida, T. Nakajima, Y. Honda, O. Kitao, H. Nakai, 
 T. Vreven, K. Throssell, J. A. Montgomery, Jr., J. E. Peralta, 
 F. Ogliaro, M. J. Bearpark, J. J. Heyd, E. N. Brothers, K. N. Kudin, 
 V. N. Staroverov, T. A. Keith, R. Kobayashi, J. Normand, 
 K. Raghavachari, A. P. Rendell, J. C. Burant, S. S. Iyengar, 
 J. Tomasi, M. Cossi, J. M. Millam, M. Klene, C. Adamo, R. Cammi, 
 J. W. Ochterski, R. L. Martin, K. Morokuma, O. Farkas, 
 J. B. Foresman, and D. J. Fox, Gaussian, Inc., Wallingford CT, 2016.
 
 ******************************************
 Gaussian 16:  ES64L-G16RevA.03 25-Dec-2016
                17-Dec-2022 
 ******************************************
 %nproc=24
 Will use up to   24 processors via shared memory.
 %mem=50GB
 ---------------------------------------------------
 #p M062X/6-311+G(2d,p) nosymm em=GD3 counterpoise=5
 ---------------------------------------------------
 1/38=1,62=5,172=1/1;
 2/12=2,15=1,17=6,18=5,40=1/2;
 1/38=1,53=2,62=5,63=1/22;
 3/5=4,6=6,7=112,11=2,25=1,30=1,74=-55,124=31/1,2,3;
 4//1;
 5/5=2,38=5/2;
 6/7=2,8=2,9=2,10=2,28=1/1;
 1/53=2,62=5,63=1/22;
 3/5=7,6=11,7=112,11=2,25=1,30=1,74=-55,82=7,124=31/1,2,3;
 4//1;
 5/5=2,38=5/2;
 6/7=2,8=2,9=2,10=2,28=1/1;
 1/53=2,62=5,63=1/22(-4);
 99/5=1,9=1/99;
 Leave Link    1 at Sat Dec 17 23:11:23 2022, MaxMem=  6710886400 cpu:               0.7 elap:               0.0
 (Enter /data0/home/software/g16/l101.exe)
 -------------------
 Title Card Required
 -------------------
 Symbolic Z-matrix:
 Charge =  0 Multiplicity = 1 in supermolecule
 Charge =  0 Multiplicity = 1 in fragment      1.
 Charge =  0 Multiplicity = 1 in fragment      2.
 Charge =  0 Multiplicity = 1 in fragment      3.
 Charge =  0 Multiplicity = 1 in fragment      4.
 Charge =  0 Multiplicity = 1 in fragment      5.
 C                     11.28525   10.97493   11.62837    
 C                     11.98453   9.74335   11.38133    
 C                     13.24934   9.76016   10.78486    
 C                     13.78089   10.99133   10.44443    
 C                     13.08881   12.19679   10.69305    
 C                     11.83951   12.21144   11.28875    
 H                     13.78582   8.82916   10.61294    
 H                     14.76317   11.04447   9.97484    
 H                     13.56201   13.13724   10.40879    
 H                     11.30915   13.13765   11.49424    
 H                     9.31048   11.25844   12.43225    
 C                     10.0522   9.22123   12.28919    
 H                     9.20605   8.66477   12.67704    
 N                     10.07142   10.61635   12.2188    
 N                     11.18513   8.68223   11.81439    
 O                     11.87036   9.04757   7.75375    
 H                     12.40577   8.9596    8.54457    
 H                     11.46319   9.93152   7.83168    
 O                     8.07137   10.66619   9.1878     
 H                     8.26704   9.75984   9.51527    
 H                     7.47084   10.53224   8.45508    
 O                     8.02295   12.17028   11.57041    
 H                     7.99826   11.72363   10.70748    
 H                     7.11487   12.33994   11.80241    
 O                     10.62587   11.48567   8.27213    
 H                     9.73085   11.23548   8.55007    
 H                     11.01498   11.91229   9.03709    
 
 ITRead=  0  0  0  0  0  0  0  0  0  0  0  0  0  0  0  0  0  0  0  0
 ITRead=  0  0  0  0  0  0  0
 MicOpt= -1 -1 -1 -1 -1 -1 -1 -1 -1 -1 -1 -1 -1 -1 -1 -1 -1 -1 -1 -1
 MicOpt= -1 -1 -1 -1 -1 -1 -1
 NAtoms=     27 NQM=       27 NQMF=       0 NMMI=      0 NMMIF=      0
                NMic=       0 NMicF=      0.
                    Isotopes and Nuclear Properties:
 (Nuclear quadrupole moments (NQMom) in fm**2, nuclear magnetic moments (NMagM)
  in nuclear magnetons)

  Atom         1           2           3           4           5           6           7           8           9          10
 IAtWgt=          12          12          12          12          12          12           1           1           1           1
 AtmWgt=  12.0000000  12.0000000  12.0000000  12.0000000  12.0000000  12.0000000   1.0078250   1.0078250   1.0078250   1.0078250
 NucSpn=           0           0           0           0           0           0           1           1           1           1
 AtZEff=  -0.0000000  -0.0000000  -0.0000000  -0.0000000  -0.0000000  -0.0000000  -0.0000000  -0.0000000  -0.0000000  -0.0000000
 NQMom=    0.0000000   0.0000000   0.0000000   0.0000000   0.0000000   0.0000000   0.0000000   0.0000000   0.0000000   0.0000000
 NMagM=    0.0000000   0.0000000   0.0000000   0.0000000   0.0000000   0.0000000   2.7928460   2.7928460   2.7928460   2.7928460
 AtZNuc=   6.0000000   6.0000000   6.0000000   6.0000000   6.0000000   6.0000000   1.0000000   1.0000000   1.0000000   1.0000000

  Atom        11          12          13          14          15          16          17          18          19          20
 IAtWgt=           1          12           1          14          14          16           1           1          16           1
 AtmWgt=   1.0078250  12.0000000   1.0078250  14.0030740  14.0030740  15.9949146   1.0078250   1.0078250  15.9949146   1.0078250
 NucSpn=           1           0           1           2           2           0           1           1           0           1
 AtZEff=  -0.0000000  -0.0000000  -0.0000000  -0.0000000  -0.0000000  -0.0000000  -0.0000000  -0.0000000  -0.0000000  -0.0000000
 NQMom=    0.0000000   0.0000000   0.0000000   2.0440000   2.0440000   0.0000000   0.0000000   0.0000000   0.0000000   0.0000000
 NMagM=    2.7928460   0.0000000   2.7928460   0.4037610   0.4037610   0.0000000   2.7928460   2.7928460   0.0000000   2.7928460
 AtZNuc=   1.0000000   6.0000000   1.0000000   7.0000000   7.0000000   8.0000000   1.0000000   1.0000000   8.0000000   1.0000000

  Atom        21          22          23          24          25          26          27
 IAtWgt=           1          16           1           1          16           1           1
 AtmWgt=   1.0078250  15.9949146   1.0078250   1.0078250  15.9949146   1.0078250   1.0078250
 NucSpn=           1           0           1           1           0           1           1
 AtZEff=  -0.0000000  -0.0000000  -0.0000000  -0.0000000  -0.0000000  -0.0000000  -0.0000000
 NQMom=    0.0000000   0.0000000   0.0000000   0.0000000   0.0000000   0.0000000   0.0000000
 NMagM=    2.7928460   0.0000000   2.7928460   2.7928460   0.0000000   2.7928460   2.7928460
 AtZNuc=   1.0000000   8.0000000   1.0000000   1.0000000   8.0000000   1.0000000   1.0000000
 Leave Link  101 at Sat Dec 17 23:11:23 2022, MaxMem=  6710886400 cpu:               2.2 elap:               0.1
 (Enter /data0/home/software/g16/l202.exe)
                          Input orientation:                          
 ---------------------------------------------------------------------
 Center     Atomic      Atomic             Coordinates (Angstroms)
 Number     Number       Type             X           Y           Z
 ---------------------------------------------------------------------
      1          6           0       11.285254   10.974930   11.628365
      2          6           0       11.984534    9.743352   11.381329
      3          6           0       13.249335    9.760157   10.784855
      4          6           0       13.780888   10.991328   10.444432
      5          6           0       13.088807   12.196788   10.693046
      6          6           0       11.839510   12.211438   11.288747
      7          1           0       13.785822    8.829164   10.612939
      8          1           0       14.763170   11.044466    9.974841
      9          1           0       13.562010   13.137239   10.408795
     10          1           0       11.309153   13.137645   11.494244
     11          1           0        9.310482   11.258439   12.432248
     12          6           0       10.052203    9.221226   12.289193
     13          1           0        9.206051    8.664774   12.677044
     14          7           0       10.071420   10.616349   12.218796
     15          7           0       11.185129    8.682229   11.814394
     16          8           0       11.870360    9.047566    7.753749
     17          1           0       12.405774    8.959601    8.544571
     18          1           0       11.463189    9.931519    7.831676
     19          8           0        8.071370   10.666192    9.187800
     20          1           0        8.267038    9.759843    9.515267
     21          1           0        7.470843   10.532236    8.455076
     22          8           0        8.022953   12.170282   11.570414
     23          1           0        7.998257   11.723634   10.707480
     24          1           0        7.114868   12.339942   11.802415
     25          8           0       10.625871   11.485670    8.272132
     26          1           0        9.730851   11.235480    8.550065
     27          1           0       11.014980   11.912294    9.037093
 ---------------------------------------------------------------------
                    Distance matrix (angstroms):
                    1          2          3          4          5
     1  C    0.000000
     2  C    1.437638   0.000000
     3  C    2.458617   1.398494   0.000000
     4  C    2.762274   2.379518   1.383553   0.000000
     5  C    2.370772   2.777139   2.443638   1.412062   0.000000
     6  C    1.396958   2.474076   2.872332   2.443458   1.384131
     7  H    3.447933   2.161204   1.088173   2.168726   3.439933
     8  H    3.851607   3.375192   2.144124   1.090054   2.155726
     9  H    3.368464   3.866875   3.412311   2.157339   1.090490
    10  H    2.167002   3.462674   3.959162   3.437769   2.166633
    11  H    2.150890   3.248149   4.524745   4.899724   4.263926
    12  C    2.243343   2.197893   3.574232   4.521006   4.541213
    13  H    3.280188   3.249950   4.596563   5.597012   5.611343
    14  N    1.396632   2.263511   3.590041   4.129059   3.732335
    15  N    2.302414   1.397346   2.546139   3.734528   4.151329
    16  O    4.366890   3.695469   3.405431   3.829896   4.476793
    17  H    3.850572   2.973030   2.524155   3.102954   3.944852
    18  H    3.941474   3.592665   3.455568   3.649852   3.995187
    19  O    4.047311   4.579962   5.493888   5.855206   5.457395
    20  H    3.879594   4.159596   5.141511   5.725596   5.529496
    21  H    4.981513   5.436791   6.278132   6.632117   6.272222
    22  O    3.474886   4.649717   5.808690   5.984278   5.141338
    23  H    3.494701   4.501777   5.606697   5.834748   5.112512
    24  H    4.391545   5.534730   6.732192   6.935323   6.077758
    25  O    3.458315   3.814281   4.021658   3.862304   3.525985
    26  H    3.458321   3.914280   4.421605   4.477838   4.097847
    27  H    2.768825   3.337632   3.560717   3.237133   2.669059
                    6          7          8          9         10
     6  C    0.000000
     7  H    3.960382   0.000000
     8  H    3.411152   2.503985   0.000000
     9  H    2.144395   4.318712   2.451693   0.000000
    10  H    1.086907   5.047137   4.315115   2.500713   0.000000
    11  H    2.934584   5.407396   5.984684   5.069491   2.899302
    12  C    3.624462   4.111381   5.556405   5.584783   4.189296
    13  H    4.630475   5.026117   6.621662   6.642460   5.082187
    14  N    2.556451   4.423753   5.218346   4.670675   2.900671
    15  N    3.627649   2.868569   4.665458   5.241411   4.468625
    16  O    4.744180   3.448429   4.158029   5.161044   5.570907
    17  H    4.292505   2.489918   3.456827   4.718567   5.230602
    18  H    4.158243   3.787510   4.089215   4.617709   4.870049
    19  O    4.582646   6.169332   6.748534   6.143617   4.680919
    20  H    4.681678   5.703334   6.637861   6.343652   4.957858
    21  H    5.471258   6.887364   7.466599   6.906908   5.545928
    22  O    3.827158   6.729821   7.017396   5.741561   3.426471
    23  H    3.915488   6.471692   6.838280   5.748290   3.685167
    24  H    4.754220   7.631647   7.969618   6.644057   4.280575
    25  O    3.331610   4.745702   4.495678   3.989226   3.684820
    26  H    3.591562   5.146707   5.233613   4.663619   3.844146
    27  H    2.416461   4.434698   3.959978   3.141563   2.761451
                   11         12         13         14         15
    11  H    0.000000
    12  C    2.172752   0.000000
    13  H    2.607284   1.084454   0.000000
    14  N    1.018267   1.397030   2.183460   0.000000
    15  N    3.245443   1.341444   2.158986   2.268195   0.000000
    16  O    5.773152   4.889387   5.611052   5.062994   4.134229
    17  H    5.475356   4.430569   5.234738   4.657677   3.501236
    18  H    5.249774   4.729150   5.493351   4.653261   4.183310
    19  O    3.523152   3.953513   4.179473   3.631752   4.531071
    20  H    3.441416   3.342393   3.475307   3.361319   3.868138
    21  H    4.441795   4.804438   4.931873   4.575551   5.338864
    22  O    1.797762   3.651223   3.861727   2.651664   4.714382
    23  H    2.216566   3.603131   3.833350   2.794309   4.542197
    24  H    2.527263   4.311761   4.317972   3.447513   5.472297
    25  O    4.369033   4.646889   5.420018   4.079129   4.551887
    26  H    3.904943   4.259292   4.890389   3.736161   4.392022
    27  H    3.854856   4.329543   5.202678   3.562725   4.263293
                   16         17         18         19         20
    16  O    0.000000
    17  H    0.959065   0.000000
    18  H    0.976337   1.530134   0.000000
    19  O    4.371359   4.702473   3.726024   0.000000
    20  H    4.073600   4.325711   3.616536   0.983356   0.000000
    21  H    4.695940   5.180225   4.085133   0.956797   1.534445
    22  O    6.254664   6.218788   5.552067   2.818063   3.177015
    23  H    5.556892   5.634204   4.846409   1.852824   2.313026
    24  H    7.060180   7.073467   6.362010   3.248468   3.635306
    25  O    2.786005   3.102145   1.819475   2.834690   3.176154
    26  H    3.162054   3.512103   2.284161   1.866728   2.291695
    27  H    3.253508   3.300800   2.361650   3.200050   3.523192
                   21         22         23         24         25
    21  H    0.000000
    22  O    3.562773   0.000000
    23  H    2.602099   0.971987   0.000000
    24  H    3.820890   0.952485   1.535934   0.000000
    25  O    3.301016   4.257058   3.590529   5.051715   0.000000
    26  H    2.368800   3.593505   2.809736   4.317521   0.970001
    27  H    3.847624   3.928931   3.453462   4.800079   0.958425
                   26         27
    26  H    0.000000
    27  H    1.531098   0.000000
 Symmetry turned off by external request.
 Stoichiometry    C7H14N2O4
 Framework group  C1[X(C7H14N2O4)]
 Deg. of freedom    75
 Full point group                 C1      NOp   1
 Rotational constants (GHZ):           0.7427483           0.5565895           0.4796451
 Leave Link  202 at Sat Dec 17 23:11:23 2022, MaxMem=  6710886400 cpu:               0.1 elap:               0.0
 (Enter /data0/home/software/g16/l122.exe)
 Counterpoise: doing full-system calculation.
 Leave Link  122 at Sat Dec 17 23:11:23 2022, MaxMem=  6710886400 cpu:               0.1 elap:               0.0
 (Enter /data0/home/software/g16/l301.exe)
 Standard basis: 6-311+G(2d,p) (5D, 7F)
 Ernie: Thresh=  0.10000D-02 Tol=  0.10000D-05 Strict=F.
   435 basis functions,   658 primitive gaussians,   461 cartesian basis functions
    51 alpha electrons       51 beta electrons
       nuclear repulsion energy       841.2890738154 Hartrees.
 IExCor= 4336 DFT=T Ex+Corr=M062X ExCW=0 ScaHFX=  0.540000
 ScaDFX=  1.000000  1.000000  1.000000  1.000000 ScalE2=  1.000000  1.000000
 IRadAn=      5 IRanWt=     -1 IRanGd=            0 ICorTp=0 IEmpDi=131
 NAtoms=   27 NActive=   27 NUniq=   27 SFac= 1.00D+00 NAtFMM=   60 NAOKFM=F Big=F
 Integral buffers will be    131072 words long.
 Raffenetti 2 integral format.
 Two-electron integral symmetry is turned off.
 R6Disp:  Grimme-D3 Dispersion energy=       -0.0016844948 Hartrees.
 Nuclear repulsion after empirical dispersion term =      841.2873893206 Hartrees.
 Leave Link  301 at Sat Dec 17 23:11:23 2022, MaxMem=  6710886400 cpu:               1.2 elap:               0.1
 (Enter /data0/home/software/g16/l302.exe)
 NPDir=0 NMtPBC=     1 NCelOv=     1 NCel=       1 NClECP=     1 NCelD=      1
         NCelK=      1 NCelE2=     1 NClLst=     1 CellRange=     0.0.
 One-electron integrals computed using PRISM.
 NBasis=   435 RedAO= T EigKep=  1.03D-06  NBF=   435
 NBsUse=   435 1.00D-06 EigRej= -1.00D+00 NBFU=   435
 Precomputing XC quadrature grid using
 IXCGrd= 4 IRadAn=           5 IRanWt=          -1 IRanGd=           0 AccXCQ= 0.00D+00.
 Generated NRdTot=       0 NPtTot=           0 NUsed=           0 NTot=          32
 NSgBfM=   461   461   461   461   461 MxSgAt=    27 MxSgA2=    27.
 Leave Link  302 at Sat Dec 17 23:11:24 2022, MaxMem=  6710886400 cpu:               9.2 elap:               0.4
 (Enter /data0/home/software/g16/l303.exe)
 DipDrv:  MaxL=1.
 Leave Link  303 at Sat Dec 17 23:11:24 2022, MaxMem=  6710886400 cpu:               1.0 elap:               0.1
 (Enter /data0/home/software/g16/l401.exe)
 ExpMin= 4.38D-02 ExpMax= 8.59D+03 ExpMxC= 1.30D+03 IAcc=3 IRadAn=         5 AccDes= 0.00D+00
 Harris functional with IExCor= 1009 and IRadAn=       5 diagonalized for initial guess.
 HarFok:  IExCor= 1009 AccDes= 0.00D+00 IRadAn=         5 IDoV= 1 UseB2=F ITyADJ=14
 ICtDFT=  3500011 ScaDFX=  1.000000  1.000000  1.000000  1.000000
 FoFCou: FMM=F IPFlag=           0 FMFlag=      100000 FMFlg1=           0
         NFxFlg=           0 DoJE=T BraDBF=F KetDBF=T FulRan=T
         wScrn=  0.000000 ICntrl=       500 IOpCl=  0 I1Cent=   200000004 NGrid=           0
         NMat0=    1 NMatS0=      1 NMatT0=    0 NMatD0=    1 NMtDS0=    0 NMtDT0=    0
 Symmetry not used in FoFCou.
 Harris En= -685.283841470529    
 JPrj=0 DoOrth=F DoCkMO=F.
 Leave Link  401 at Sat Dec 17 23:11:25 2022, MaxMem=  6710886400 cpu:              34.7 elap:               1.5
 (Enter /data0/home/software/g16/l502.exe)
 Two-electron integral symmetry not used.
 Closed shell SCF:
 Using DIIS extrapolation, IDIIS=  1040.
 NGot=  6710886400 LenX=  6710447034 LenY=  6710234052
 Requested convergence on RMS density matrix=1.00D-08 within 128 cycles.
 Requested convergence on MAX density matrix=1.00D-06.
 Requested convergence on             energy=1.00D-06.
 No special actions if energy rises.
 Fock matrices will be formed incrementally for  20 cycles.

 Cycle   1  Pass 1  IDiag  1:
 FoFJK:  IHMeth= 1 ICntrl=       0 DoSepK=F KAlg= 0 I1Cent=           0 FoldK=F
 IRaf= 900000000 NMat=       1 IRICut=       1 DoRegI=T DoRafI=F ISym2E= 0 IDoP0=0 IntGTp=1.
 FoFCou: FMM=F IPFlag=           0 FMFlag=      100000 FMFlg1=           0
         NFxFlg=           0 DoJE=F BraDBF=F KetDBF=F FulRan=T
         wScrn=  0.000000 ICntrl=         0 IOpCl=  0 I1Cent=           0 NGrid=           0
         NMat0=    1 NMatS0=      1 NMatT0=    0 NMatD0=    1 NMtDS0=    0 NMtDT0=    0
 Symmetry not used in FoFCou.
 E= -685.100365997191    
 DIIS: error= 3.44D-02 at cycle   1 NSaved=   1.
 NSaved= 1 IEnMin= 1 EnMin= -685.100365997191     IErMin= 1 ErrMin= 3.44D-02
 ErrMax= 3.44D-02  0.00D+00 EMaxC= 1.00D-01 BMatC= 6.69D-01 BMatP= 6.69D-01
 IDIUse=3 WtCom= 6.56D-01 WtEn= 3.44D-01
 Coeff-Com:  0.100D+01
 Coeff-En:   0.100D+01
 Coeff:      0.100D+01
 Gap=     0.301 Goal=   None    Shift=    0.000
 GapD=    0.301 DampG=1.000 DampE=0.500 DampFc=0.5000 IDamp=-1.
 Damping current iteration by 5.00D-01
 RMSDP=8.53D-02 MaxDP=1.82D+01              OVMax= 2.12D-01

 Cycle   2  Pass 1  IDiag  1:
 RMSU=  3.01D-02    CP:  1.92D+00
 E= -685.306759299876     Delta-E=       -0.206393302685 Rises=F Damp=T
 DIIS: error= 6.94D-03 at cycle   2 NSaved=   2.
 NSaved= 2 IEnMin= 2 EnMin= -685.306759299876     IErMin= 2 ErrMin= 6.94D-03
 ErrMax= 6.94D-03  0.00D+00 EMaxC= 1.00D-01 BMatC= 4.19D-02 BMatP= 6.69D-01
 IDIUse=3 WtCom= 9.31D-01 WtEn= 6.94D-02
 Coeff-Com:  0.169D-02 0.998D+00
 Coeff-En:   0.575D-01 0.943D+00
 Coeff:      0.556D-02 0.994D+00
 Gap=     0.346 Goal=   None    Shift=    0.000
 RMSDP=1.84D-02 MaxDP=3.36D+00 DE=-2.06D-01 OVMax= 1.54D-01

 Cycle   3  Pass 1  IDiag  1:
 RMSU=  5.37D-03    CP:  1.45D+00  7.21D-01
 E= -685.539594369302     Delta-E=       -0.232835069426 Rises=F Damp=F
 DIIS: error= 3.92D-03 at cycle   3 NSaved=   3.
 NSaved= 3 IEnMin= 3 EnMin= -685.539594369302     IErMin= 3 ErrMin= 3.92D-03
 ErrMax= 3.92D-03  0.00D+00 EMaxC= 1.00D-01 BMatC= 1.24D-02 BMatP= 4.19D-02
 IDIUse=3 WtCom= 9.61D-01 WtEn= 3.92D-02
 Coeff-Com: -0.588D-01 0.322D+00 0.737D+00
 Coeff-En:   0.000D+00 0.000D+00 0.100D+01
 Coeff:     -0.565D-01 0.309D+00 0.747D+00
 Gap=     0.272 Goal=   None    Shift=    0.000
 RMSDP=2.47D-03 MaxDP=4.32D-01 DE=-2.33D-01 OVMax= 5.15D-02

 Cycle   4  Pass 1  IDiag  1:
 RMSU=  1.20D-03    CP:  1.49D+00  7.76D-01  9.87D-01
 E= -685.546511459788     Delta-E=       -0.006917090486 Rises=F Damp=F
 DIIS: error= 3.72D-03 at cycle   4 NSaved=   4.
 NSaved= 4 IEnMin= 4 EnMin= -685.546511459788     IErMin= 4 ErrMin= 3.72D-03
 ErrMax= 3.72D-03  0.00D+00 EMaxC= 1.00D-01 BMatC= 4.24D-03 BMatP= 1.24D-02
 IDIUse=3 WtCom= 9.63D-01 WtEn= 3.72D-02
 Coeff-Com: -0.325D-01 0.922D-01 0.423D+00 0.517D+00
 Coeff-En:   0.000D+00 0.000D+00 0.255D+00 0.745D+00
 Coeff:     -0.313D-01 0.888D-01 0.417D+00 0.525D+00
 Gap=     0.270 Goal=   None    Shift=    0.000
 RMSDP=9.79D-04 MaxDP=1.42D-01 DE=-6.92D-03 OVMax= 2.01D-02

 Cycle   5  Pass 1  IDiag  1:
 RMSU=  9.30D-04    CP:  1.50D+00  7.73D-01  9.54D-01  1.10D+00
 E= -685.550107984656     Delta-E=       -0.003596524868 Rises=F Damp=F
 DIIS: error= 5.71D-04 at cycle   5 NSaved=   5.
 NSaved= 5 IEnMin= 5 EnMin= -685.550107984656     IErMin= 5 ErrMin= 5.71D-04
 ErrMax= 5.71D-04  0.00D+00 EMaxC= 1.00D-01 BMatC= 2.05D-04 BMatP= 4.24D-03
 IDIUse=3 WtCom= 9.94D-01 WtEn= 5.71D-03
 Coeff-Com: -0.112D-01 0.224D-01 0.154D+00 0.258D+00 0.576D+00
 Coeff-En:   0.000D+00 0.000D+00 0.000D+00 0.000D+00 0.100D+01
 Coeff:     -0.111D-01 0.222D-01 0.153D+00 0.257D+00 0.579D+00
 Gap=     0.269 Goal=   None    Shift=    0.000
 RMSDP=4.97D-04 MaxDP=8.34D-02 DE=-3.60D-03 OVMax= 4.52D-03

 Cycle   6  Pass 1  IDiag  1:
 RMSU=  1.48D-04    CP:  1.49D+00  7.67D-01  9.62D-01  1.03D+00  7.86D-01
 E= -685.550285956427     Delta-E=       -0.000177971771 Rises=F Damp=F
 DIIS: error= 1.19D-04 at cycle   6 NSaved=   6.
 NSaved= 6 IEnMin= 6 EnMin= -685.550285956427     IErMin= 6 ErrMin= 1.19D-04
 ErrMax= 1.19D-04  0.00D+00 EMaxC= 1.00D-01 BMatC= 1.17D-05 BMatP= 2.05D-04
 IDIUse=3 WtCom= 9.99D-01 WtEn= 1.19D-03
 Coeff-Com: -0.171D-02 0.150D-02 0.283D-01 0.568D-01 0.239D+00 0.676D+00
 Coeff-En:   0.000D+00 0.000D+00 0.000D+00 0.000D+00 0.000D+00 0.100D+01
 Coeff:     -0.171D-02 0.150D-02 0.283D-01 0.568D-01 0.238D+00 0.677D+00
 Gap=     0.269 Goal=   None    Shift=    0.000
 RMSDP=7.08D-05 MaxDP=1.50D-02 DE=-1.78D-04 OVMax= 1.35D-03

 Cycle   7  Pass 1  IDiag  1:
 RMSU=  3.31D-05    CP:  1.49D+00  7.66D-01  9.62D-01  1.05D+00  8.34D-01
                    CP:  9.10D-01
 E= -685.550297011558     Delta-E=       -0.000011055131 Rises=F Damp=F
 DIIS: error= 5.64D-05 at cycle   7 NSaved=   7.
 NSaved= 7 IEnMin= 7 EnMin= -685.550297011558     IErMin= 7 ErrMin= 5.64D-05
 ErrMax= 5.64D-05  0.00D+00 EMaxC= 1.00D-01 BMatC= 1.21D-06 BMatP= 1.17D-05
 IDIUse=1 WtCom= 1.00D+00 WtEn= 0.00D+00
 Coeff-Com:  0.462D-03-0.163D-02-0.324D-02-0.443D-02 0.387D-01 0.256D+00
 Coeff-Com:  0.714D+00
 Coeff:      0.462D-03-0.163D-02-0.324D-02-0.443D-02 0.387D-01 0.256D+00
 Coeff:      0.714D+00
 Gap=     0.269 Goal=   None    Shift=    0.000
 RMSDP=7.38D-05 MaxDP=1.58D-02 DE=-1.11D-05 OVMax= 5.55D-04

 Cycle   8  Pass 1  IDiag  1:
 RMSU=  1.72D-05    CP:  1.48D+00  7.64D-01  9.61D-01  1.05D+00  8.44D-01
                    CP:  9.44D-01  9.04D-01
 E= -685.550298394544     Delta-E=       -0.000001382987 Rises=F Damp=F
 DIIS: error= 2.52D-05 at cycle   8 NSaved=   8.
 NSaved= 8 IEnMin= 8 EnMin= -685.550298394544     IErMin= 8 ErrMin= 2.52D-05
 ErrMax= 2.52D-05  0.00D+00 EMaxC= 1.00D-01 BMatC= 2.61D-07 BMatP= 1.21D-06
 IDIUse=1 WtCom= 1.00D+00 WtEn= 0.00D+00
 Coeff-Com:  0.563D-03-0.110D-02-0.667D-02-0.135D-01-0.253D-01-0.121D-01
 Coeff-Com:  0.338D+00 0.720D+00
 Coeff:      0.563D-03-0.110D-02-0.667D-02-0.135D-01-0.253D-01-0.121D-01
 Coeff:      0.338D+00 0.720D+00
 Gap=     0.269 Goal=   None    Shift=    0.000
 RMSDP=2.92D-05 MaxDP=6.33D-03 DE=-1.38D-06 OVMax= 3.15D-04

 Cycle   9  Pass 1  IDiag  1:
 RMSU=  4.55D-06    CP:  1.48D+00  7.64D-01  9.61D-01  1.05D+00  8.47D-01
                    CP:  9.70D-01  9.94D-01  9.04D-01
 E= -685.550298763381     Delta-E=       -0.000000368837 Rises=F Damp=F
 DIIS: error= 7.10D-06 at cycle   9 NSaved=   9.
 NSaved= 9 IEnMin= 9 EnMin= -685.550298763381     IErMin= 9 ErrMin= 7.10D-06
 ErrMax= 7.10D-06  0.00D+00 EMaxC= 1.00D-01 BMatC= 1.20D-08 BMatP= 2.61D-07
 IDIUse=1 WtCom= 1.00D+00 WtEn= 0.00D+00
 Coeff-Com:  0.727D-04-0.113D-03-0.982D-03-0.244D-02-0.620D-02-0.188D-01
 Coeff-Com:  0.127D-01 0.150D+00 0.866D+00
 Coeff:      0.727D-04-0.113D-03-0.982D-03-0.244D-02-0.620D-02-0.188D-01
 Coeff:      0.127D-01 0.150D+00 0.866D+00
 Gap=     0.269 Goal=   None    Shift=    0.000
 RMSDP=2.81D-06 MaxDP=4.62D-04 DE=-3.69D-07 OVMax= 9.75D-05

 Cycle  10  Pass 1  IDiag  1:
 RMSU=  1.22D-06    CP:  1.48D+00  7.64D-01  9.61D-01  1.05D+00  8.48D-01
                    CP:  9.73D-01  1.01D+00  9.20D-01  1.14D+00
 E= -685.550298787462     Delta-E=       -0.000000024081 Rises=F Damp=F
 DIIS: error= 2.88D-06 at cycle  10 NSaved=  10.
 NSaved=10 IEnMin=10 EnMin= -685.550298787462     IErMin=10 ErrMin= 2.88D-06
 ErrMax= 2.88D-06  0.00D+00 EMaxC= 1.00D-01 BMatC= 4.93D-09 BMatP= 1.20D-08
 IDIUse=1 WtCom= 1.00D+00 WtEn= 0.00D+00
 Coeff-Com: -0.707D-04 0.154D-03 0.789D-03 0.123D-02 0.185D-02-0.732D-02
 Coeff-Com: -0.590D-01-0.541D-01 0.452D+00 0.665D+00
 Coeff:     -0.707D-04 0.154D-03 0.789D-03 0.123D-02 0.185D-02-0.732D-02
 Coeff:     -0.590D-01-0.541D-01 0.452D+00 0.665D+00
 Gap=     0.269 Goal=   None    Shift=    0.000
 RMSDP=1.97D-06 MaxDP=3.18D-04 DE=-2.41D-08 OVMax= 4.98D-05

 Cycle  11  Pass 1  IDiag  1:
 RMSU=  6.06D-07    CP:  1.48D+00  7.64D-01  9.61D-01  1.05D+00  8.48D-01
                    CP:  9.71D-01  9.99D-01  9.81D-01  1.25D+00  9.41D-01
 E= -685.550298794833     Delta-E=       -0.000000007371 Rises=F Damp=F
 DIIS: error= 1.09D-06 at cycle  11 NSaved=  11.
 NSaved=11 IEnMin=11 EnMin= -685.550298794833     IErMin=11 ErrMin= 1.09D-06
 ErrMax= 1.09D-06  0.00D+00 EMaxC= 1.00D-01 BMatC= 2.32D-10 BMatP= 4.93D-09
 IDIUse=1 WtCom= 1.00D+00 WtEn= 0.00D+00
 Coeff-Com: -0.201D-04 0.400D-04 0.271D-03 0.503D-03 0.105D-02 0.312D-03
 Coeff-Com: -0.159D-01-0.281D-01-0.118D-01 0.138D+00 0.915D+00
 Coeff:     -0.201D-04 0.400D-04 0.271D-03 0.503D-03 0.105D-02 0.312D-03
 Coeff:     -0.159D-01-0.281D-01-0.118D-01 0.138D+00 0.915D+00
 Gap=     0.269 Goal=   None    Shift=    0.000
 RMSDP=6.46D-07 MaxDP=1.33D-04 DE=-7.37D-09 OVMax= 2.23D-05

 Cycle  12  Pass 1  IDiag  1:
 RMSU=  2.20D-07    CP:  1.48D+00  7.64D-01  9.61D-01  1.05D+00  8.48D-01
                    CP:  9.70D-01  9.97D-01  9.90D-01  1.27D+00  1.01D+00
                    CP:  1.09D+00
 E= -685.550298795611     Delta-E=       -0.000000000778 Rises=F Damp=F
 DIIS: error= 3.41D-07 at cycle  12 NSaved=  12.
 NSaved=12 IEnMin=12 EnMin= -685.550298795611     IErMin=12 ErrMin= 3.41D-07
 ErrMax= 3.41D-07  0.00D+00 EMaxC= 1.00D-01 BMatC= 4.07D-11 BMatP= 2.32D-10
 IDIUse=1 WtCom= 1.00D+00 WtEn= 0.00D+00
 Coeff-Com:  0.196D-05-0.451D-05 0.294D-05 0.327D-04 0.123D-03 0.102D-02
 Coeff-Com:  0.133D-02-0.342D-02-0.553D-01-0.302D-01 0.314D+00 0.772D+00
 Coeff:      0.196D-05-0.451D-05 0.294D-05 0.327D-04 0.123D-03 0.102D-02
 Coeff:      0.133D-02-0.342D-02-0.553D-01-0.302D-01 0.314D+00 0.772D+00
 Gap=     0.269 Goal=   None    Shift=    0.000
 RMSDP=4.82D-07 MaxDP=6.44D-05 DE=-7.78D-10 OVMax= 6.90D-06

 Cycle  13  Pass 1  IDiag  1:
 RMSU=  9.19D-08    CP:  1.48D+00  7.64D-01  9.61D-01  1.05D+00  8.48D-01
                    CP:  9.70D-01  9.96D-01  9.94D-01  1.26D+00  1.05D+00
                    CP:  1.21D+00  1.18D+00
 E= -685.550298795695     Delta-E=       -0.000000000084 Rises=F Damp=F
 DIIS: error= 1.30D-07 at cycle  13 NSaved=  13.
 NSaved=13 IEnMin=13 EnMin= -685.550298795695     IErMin=13 ErrMin= 1.30D-07
 ErrMax= 1.30D-07  0.00D+00 EMaxC= 1.00D-01 BMatC= 1.03D-11 BMatP= 4.07D-11
 IDIUse=1 WtCom= 1.00D+00 WtEn= 0.00D+00
 Coeff-Com:  0.452D-05-0.932D-05-0.451D-04-0.677D-04-0.131D-03 0.479D-03
 Coeff-Com:  0.348D-02 0.334D-02-0.231D-01-0.394D-01-0.150D-01 0.376D+00
 Coeff-Com:  0.695D+00
 Coeff:      0.452D-05-0.932D-05-0.451D-04-0.677D-04-0.131D-03 0.479D-03
 Coeff:      0.348D-02 0.334D-02-0.231D-01-0.394D-01-0.150D-01 0.376D+00
 Coeff:      0.695D+00
 Gap=     0.269 Goal=   None    Shift=    0.000
 RMSDP=5.10D-08 MaxDP=3.81D-06 DE=-8.39D-11 OVMax= 2.76D-06

 Cycle  14  Pass 1  IDiag  1:
 RMSU=  2.85D-08    CP:  1.48D+00  7.64D-01  9.61D-01  1.05D+00  8.48D-01
                    CP:  9.70D-01  9.96D-01  9.95D-01  1.26D+00  1.06D+00
                    CP:  1.24D+00  1.27D+00  9.96D-01
 E= -685.550298795667     Delta-E=        0.000000000027 Rises=F Damp=F
 DIIS: error= 3.13D-08 at cycle  14 NSaved=  14.
 NSaved=14 IEnMin=13 EnMin= -685.550298795695     IErMin=14 ErrMin= 3.13D-08
 ErrMax= 3.13D-08  0.00D+00 EMaxC= 1.00D-01 BMatC= 4.40D-13 BMatP= 1.03D-11
 IDIUse=1 WtCom= 1.00D+00 WtEn= 0.00D+00
 Coeff-Com:  0.342D-06-0.814D-06-0.661D-05-0.965D-05-0.353D-04-0.388D-05
 Coeff-Com:  0.336D-03 0.761D-03 0.252D-02-0.272D-02-0.348D-01-0.284D-01
 Coeff-Com:  0.984D-01 0.964D+00
 Coeff:      0.342D-06-0.814D-06-0.661D-05-0.965D-05-0.353D-04-0.388D-05
 Coeff:      0.336D-03 0.761D-03 0.252D-02-0.272D-02-0.348D-01-0.284D-01
 Coeff:      0.984D-01 0.964D+00
 Gap=     0.269 Goal=   None    Shift=    0.000
 RMSDP=3.15D-08 MaxDP=3.27D-06 DE= 2.73D-11 OVMax= 8.10D-07

 Cycle  15  Pass 1  IDiag  1:
 RMSU=  7.85D-09    CP:  1.48D+00  7.64D-01  9.61D-01  1.05D+00  8.48D-01
                    CP:  9.70D-01  9.96D-01  9.95D-01  1.26D+00  1.06D+00
                    CP:  1.25D+00  1.30D+00  1.10D+00  1.13D+00
 E= -685.550298795721     Delta-E=       -0.000000000053 Rises=F Damp=F
 DIIS: error= 1.27D-08 at cycle  15 NSaved=  15.
 NSaved=15 IEnMin=15 EnMin= -685.550298795721     IErMin=15 ErrMin= 1.27D-08
 ErrMax= 1.27D-08  0.00D+00 EMaxC= 1.00D-01 BMatC= 1.15D-13 BMatP= 4.40D-13
 IDIUse=1 WtCom= 1.00D+00 WtEn= 0.00D+00
 Coeff-Com: -0.231D-06 0.413D-06 0.397D-06 0.134D-05-0.699D-05-0.406D-04
 Coeff-Com: -0.136D-03 0.692D-04 0.295D-02 0.194D-02-0.134D-01-0.448D-01
 Coeff-Com: -0.142D-01 0.439D+00 0.629D+00
 Coeff:     -0.231D-06 0.413D-06 0.397D-06 0.134D-05-0.699D-05-0.406D-04
 Coeff:     -0.136D-03 0.692D-04 0.295D-02 0.194D-02-0.134D-01-0.448D-01
 Coeff:     -0.142D-01 0.439D+00 0.629D+00
 Gap=     0.269 Goal=   None    Shift=    0.000
 RMSDP=2.12D-08 MaxDP=3.07D-06 DE=-5.34D-11 OVMax= 2.23D-07

 Cycle  16  Pass 1  IDiag  1:
 RMSU=  2.95D-09    CP:  1.48D+00  7.64D-01  9.61D-01  1.05D+00  8.48D-01
                    CP:  9.70D-01  9.96D-01  9.95D-01  1.26D+00  1.06D+00
                    CP:  1.25D+00  1.30D+00  1.12D+00  1.16D+00  1.14D+00
 E= -685.550298795734     Delta-E=       -0.000000000013 Rises=F Damp=F
 DIIS: error= 6.34D-09 at cycle  16 NSaved=  16.
 NSaved=16 IEnMin=16 EnMin= -685.550298795734     IErMin=16 ErrMin= 6.34D-09
 ErrMax= 6.34D-09  0.00D+00 EMaxC= 1.00D-01 BMatC= 1.16D-14 BMatP= 1.15D-13
 IDIUse=1 WtCom= 1.00D+00 WtEn= 0.00D+00
 Coeff-Com: -0.141D-06 0.284D-06 0.918D-06 0.193D-05 0.146D-05-0.156D-04
 Coeff-Com: -0.978D-04-0.726D-04 0.740D-03 0.108D-02 0.176D-03-0.139D-01
 Coeff-Com: -0.212D-01 0.182D-01 0.221D+00 0.795D+00
 Coeff:     -0.141D-06 0.284D-06 0.918D-06 0.193D-05 0.146D-05-0.156D-04
 Coeff:     -0.978D-04-0.726D-04 0.740D-03 0.108D-02 0.176D-03-0.139D-01
 Coeff:     -0.212D-01 0.182D-01 0.221D+00 0.795D+00
 Gap=     0.269 Goal=   None    Shift=    0.000
 RMSDP=2.80D-09 MaxDP=3.89D-07 DE=-1.30D-11 OVMax= 8.50D-08

 SCF Done:  E(RM062X) =  -685.550298796     A.U. after   16 cycles
            NFock= 16  Conv=0.28D-08     -V/T= 2.0039
 KE= 6.828604538975D+02 PE=-3.288330619483D+03 EE= 1.078632477469D+03
 Leave Link  502 at Sat Dec 17 23:12:37 2022, MaxMem=  6710886400 cpu:            1724.8 elap:              72.1
 (Enter /data0/home/software/g16/l601.exe)
 Copying SCF densities to generalized density rwf, IOpCl= 0 IROHF=0.

 **********************************************************************

            Population analysis using the SCF density.

 **********************************************************************

 Alpha  occ. eigenvalues --  -19.69526 -19.64899 -19.61335 -19.56778 -14.80154
 Alpha  occ. eigenvalues --  -14.74353 -10.62236 -10.58957 -10.57385 -10.55701
 Alpha  occ. eigenvalues --  -10.55140 -10.55037 -10.54673  -1.20387  -1.16393
 Alpha  occ. eigenvalues --   -1.12726  -1.11906  -1.07704  -0.97850  -0.95562
 Alpha  occ. eigenvalues --   -0.84954  -0.83604  -0.72179  -0.70597  -0.68319
 Alpha  occ. eigenvalues --   -0.67556  -0.64554  -0.62792  -0.61003  -0.57491
 Alpha  occ. eigenvalues --   -0.56311  -0.56178  -0.55145  -0.52578  -0.51710
 Alpha  occ. eigenvalues --   -0.51334  -0.50015  -0.48795  -0.47956  -0.45729
 Alpha  occ. eigenvalues --   -0.43580  -0.43528  -0.43255  -0.42045  -0.41283
 Alpha  occ. eigenvalues --   -0.38536  -0.37373  -0.34744  -0.34532  -0.28995
 Alpha  occ. eigenvalues --   -0.28559
 Alpha virt. eigenvalues --   -0.01616  -0.00354   0.01709   0.02325   0.02927
 Alpha virt. eigenvalues --    0.03149   0.03820   0.04390   0.05271   0.05351
 Alpha virt. eigenvalues --    0.06956   0.07521   0.07580   0.08233   0.08651
 Alpha virt. eigenvalues --    0.09525   0.10789   0.11206   0.11776   0.12108
 Alpha virt. eigenvalues --    0.13287   0.13625   0.14416   0.14821   0.15301
 Alpha virt. eigenvalues --    0.15576   0.16171   0.16778   0.17041   0.18002
 Alpha virt. eigenvalues --    0.18622   0.18736   0.19308   0.19588   0.20241
 Alpha virt. eigenvalues --    0.20390   0.20738   0.21184   0.21731   0.22109
 Alpha virt. eigenvalues --    0.22856   0.22968   0.23358   0.23517   0.24403
 Alpha virt. eigenvalues --    0.24495   0.24932   0.25413   0.25569   0.25948
 Alpha virt. eigenvalues --    0.26411   0.26815   0.27846   0.28077   0.28653
 Alpha virt. eigenvalues --    0.28667   0.29087   0.29951   0.30857   0.31253
 Alpha virt. eigenvalues --    0.31866   0.32679   0.32927   0.34459   0.34990
 Alpha virt. eigenvalues --    0.35454   0.35874   0.37206   0.37344   0.38033
 Alpha virt. eigenvalues --    0.39038   0.40368   0.42113   0.44093   0.45456
 Alpha virt. eigenvalues --    0.46227   0.46782   0.48032   0.50338   0.50937
 Alpha virt. eigenvalues --    0.53209   0.54424   0.54998   0.55413   0.56779
 Alpha virt. eigenvalues --    0.57454   0.57789   0.58836   0.59427   0.60550
 Alpha virt. eigenvalues --    0.61322   0.62147   0.62889   0.64395   0.64605
 Alpha virt. eigenvalues --    0.65860   0.66463   0.66601   0.67390   0.68374
 Alpha virt. eigenvalues --    0.68629   0.69738   0.70117   0.71001   0.72451
 Alpha virt. eigenvalues --    0.72818   0.73794   0.74101   0.75720   0.75985
 Alpha virt. eigenvalues --    0.77922   0.78859   0.79824   0.81377   0.82041
 Alpha virt. eigenvalues --    0.83242   0.83934   0.85002   0.85396   0.86273
 Alpha virt. eigenvalues --    0.86768   0.87283   0.88783   0.89236   0.89778
 Alpha virt. eigenvalues --    0.91863   0.93890   0.94583   0.95703   0.95796
 Alpha virt. eigenvalues --    0.97057   0.98576   0.98824   1.00351   1.00882
 Alpha virt. eigenvalues --    1.05189   1.07150   1.07702   1.09559   1.09881
 Alpha virt. eigenvalues --    1.10352   1.10888   1.12007   1.12736   1.13895
 Alpha virt. eigenvalues --    1.14172   1.14773   1.16305   1.17521   1.18648
 Alpha virt. eigenvalues --    1.19832   1.20975   1.21168   1.21753   1.22513
 Alpha virt. eigenvalues --    1.23435   1.24845   1.25323   1.27810   1.28124
 Alpha virt. eigenvalues --    1.29343   1.29944   1.31535   1.32863   1.33581
 Alpha virt. eigenvalues --    1.35162   1.35812   1.36558   1.37180   1.37798
 Alpha virt. eigenvalues --    1.38298   1.40619   1.42162   1.43338   1.44137
 Alpha virt. eigenvalues --    1.44642   1.45567   1.46883   1.48202   1.48530
 Alpha virt. eigenvalues --    1.49004   1.51952   1.54052   1.56640   1.57159
 Alpha virt. eigenvalues --    1.58558   1.59480   1.62190   1.62972   1.64292
 Alpha virt. eigenvalues --    1.66080   1.66542   1.68493   1.68944   1.70215
 Alpha virt. eigenvalues --    1.71626   1.73695   1.73888   1.74979   1.76146
 Alpha virt. eigenvalues --    1.76387   1.77733   1.79876   1.82519   1.86991
 Alpha virt. eigenvalues --    1.89122   1.89639   1.92529   1.93422   1.94713
 Alpha virt. eigenvalues --    1.95981   1.97390   1.99715   2.00733   2.03519
 Alpha virt. eigenvalues --    2.04457   2.05620   2.07785   2.10466   2.11078
 Alpha virt. eigenvalues --    2.11871   2.13348   2.15340   2.16977   2.18813
 Alpha virt. eigenvalues --    2.19910   2.23771   2.29366   2.30723   2.33462
 Alpha virt. eigenvalues --    2.34269   2.36483   2.37080   2.39108   2.45619
 Alpha virt. eigenvalues --    2.46238   2.50461   2.51287   2.51937   2.54249
 Alpha virt. eigenvalues --    2.60614   2.60954   2.62653   2.63386   2.65063
 Alpha virt. eigenvalues --    2.65701   2.67512   2.69282   2.70996   2.72775
 Alpha virt. eigenvalues --    2.74550   2.78989   2.79222   2.80263   2.80949
 Alpha virt. eigenvalues --    2.85737   2.86314   2.88106   2.89382   2.91649
 Alpha virt. eigenvalues --    2.93186   2.94114   2.95572   2.96273   2.98318
 Alpha virt. eigenvalues --    3.00782   3.02662   3.04077   3.09111   3.09756
 Alpha virt. eigenvalues --    3.11785   3.15044   3.17171   3.17977   3.19417
 Alpha virt. eigenvalues --    3.21555   3.21749   3.24945   3.29950   3.30424
 Alpha virt. eigenvalues --    3.30678   3.31244   3.35405   3.36107   3.38685
 Alpha virt. eigenvalues --    3.39429   3.40665   3.41476   3.44097   3.44550
 Alpha virt. eigenvalues --    3.48976   3.49418   3.51730   3.53959   3.55724
 Alpha virt. eigenvalues --    3.59119   3.60138   3.61352   3.62321   3.63532
 Alpha virt. eigenvalues --    3.66960   3.69624   3.72637   3.74522   3.75360
 Alpha virt. eigenvalues --    3.77845   3.79368   3.81656   3.87607   3.92671
 Alpha virt. eigenvalues --    3.94728   3.96436   3.96781   3.99896   4.01803
 Alpha virt. eigenvalues --    4.04135   4.05410   4.10238   4.11117   4.25604
 Alpha virt. eigenvalues --    4.44174   4.58213   4.66377   4.71492   4.75418
 Alpha virt. eigenvalues --    4.91944   4.99750   5.03079   5.04035   5.05204
 Alpha virt. eigenvalues --    5.11122   5.11924   5.13975   5.15486   5.19104
 Alpha virt. eigenvalues --    5.20999   5.23372   5.29089   5.32891   5.42203
 Alpha virt. eigenvalues --    5.45980   5.51170   5.56660   5.58243   5.60480
 Alpha virt. eigenvalues --    5.63032   5.66397   5.86379   5.96416   6.01007
 Alpha virt. eigenvalues --    6.02585   6.73946   6.78207   6.80637   6.81961
 Alpha virt. eigenvalues --    6.83704   6.85640   6.85797   6.87132   6.87991
 Alpha virt. eigenvalues --    6.89258   6.91664   6.94099   6.95288   6.96642
 Alpha virt. eigenvalues --    6.99025   7.05161   7.06232   7.15307   7.18249
 Alpha virt. eigenvalues --    7.24079  23.80206  24.03094  24.07057  24.12391
 Alpha virt. eigenvalues --   24.13327  24.24747  24.28066  35.74736  35.82359
 Alpha virt. eigenvalues --   49.96990  50.01132  50.05679  50.08928
          Condensed to atoms (all electrons):
               1          2          3          4          5          6
     1  C   28.133883 -16.253687   3.992593  -2.097489   0.162352  -7.620676
     2  C  -16.253687  25.909819  -9.241558   1.969356  -1.525477   4.398083
     3  C    3.992593  -9.241558  15.749643  -1.293954   1.189291  -3.832437
     4  C   -2.097489   1.969356  -1.293954   6.165519  -0.235591   1.315310
     5  C    0.162352  -1.525477   1.189291  -0.235591   6.402440  -0.188260
     6  C   -7.620676   4.398083  -3.832437   1.315310  -0.188260  12.191320
     7  H   -0.003723  -0.011271   0.376522  -0.014799   0.013149  -0.007725
     8  H   -0.015164   0.055691  -0.067089   0.386338  -0.035334   0.020075
     9  H    0.057136  -0.017325   0.025500  -0.044648   0.400815  -0.075323
    10  H   -0.088090  -0.016811  -0.022669   0.020937  -0.001144   0.460115
    11  H    0.091144   0.063956   0.029869  -0.006777  -0.008665  -0.151994
    12  C   -0.496496  -0.052185   0.030441   0.008387  -0.009362  -0.090034
    13  H   -0.020262   0.035717   0.027315  -0.000305   0.001662   0.000436
    14  N   -1.599141   1.106499  -0.221005   0.068592  -0.025188   0.379943
    15  N    1.553519  -0.719934  -0.402313  -0.073197  -0.028711  -0.208223
    16  O   -0.040451   0.027384   0.070472  -0.011117  -0.027254   0.011753
    17  H   -0.009538   0.036366   0.023043  -0.031634   0.004086   0.001746
    18  H   -0.035469   0.078135  -0.075867   0.037123  -0.027334   0.030709
    19  O   -0.100340   0.002246  -0.003844   0.002603   0.003646   0.088070
    20  H    0.010662  -0.004790   0.001460   0.000106  -0.001972  -0.009761
    21  H    0.009545  -0.001673   0.003055  -0.000488  -0.000127  -0.009780
    22  O   -0.038089   0.029357  -0.016608   0.003349  -0.010197   0.012388
    23  H    0.058427  -0.011339   0.001853  -0.001261  -0.001306  -0.026430
    24  H   -0.013270   0.010454  -0.000284   0.000089   0.000048   0.002071
    25  O    0.009567  -0.008178   0.057349  -0.075332   0.103340  -0.105440
    26  H    0.137479  -0.067332   0.015754   0.007190  -0.032999  -0.031083
    27  H    0.054695  -0.025691   0.011005   0.014771  -0.048141   0.012991
               7          8          9         10         11         12
     1  C   -0.003723  -0.015164   0.057136  -0.088090   0.091144  -0.496496
     2  C   -0.011271   0.055691  -0.017325  -0.016811   0.063956  -0.052185
     3  C    0.376522  -0.067089   0.025500  -0.022669   0.029869   0.030441
     4  C   -0.014799   0.386338  -0.044648   0.020937  -0.006777   0.008387
     5  C    0.013149  -0.035334   0.400815  -0.001144  -0.008665  -0.009362
     6  C   -0.007725   0.020075  -0.075323   0.460115  -0.151994  -0.090034
     7  H    0.493251  -0.004504  -0.000242   0.000074   0.000011  -0.002062
     8  H   -0.004504   0.535392  -0.005217  -0.000224  -0.000001   0.000596
     9  H   -0.000242  -0.005217   0.533557  -0.004857  -0.000011   0.000292
    10  H    0.000074  -0.000224  -0.004857   0.504724   0.001708   0.001319
    11  H    0.000011  -0.000001  -0.000011   0.001708   0.381555  -0.018797
    12  C   -0.002062   0.000596   0.000292   0.001319  -0.018797   5.334640
    13  H   -0.000031  -0.000000  -0.000001  -0.000015  -0.001656   0.428089
    14  N   -0.000961   0.000435  -0.000636  -0.001663   0.322067   0.368485
    15  N    0.003277  -0.000885   0.000475  -0.000027  -0.005676   0.393311
    16  O   -0.002751  -0.000386   0.000045   0.000004   0.000037  -0.000301
    17  H   -0.000266   0.000004  -0.000025   0.000010  -0.000001  -0.001582
    18  H    0.000093  -0.000098  -0.000008  -0.000040   0.000034   0.000541
    19  O    0.000003   0.000002  -0.000001  -0.000041  -0.005482  -0.001698
    20  H   -0.000002  -0.000000   0.000000  -0.000023   0.001078   0.007016
    21  H   -0.000000  -0.000000   0.000000  -0.000005   0.000026   0.001103
    22  O    0.000001   0.000001  -0.000000  -0.000149  -0.068711   0.001761
    23  H    0.000000  -0.000000  -0.000001  -0.000018   0.012449  -0.001652
    24  H    0.000000   0.000000  -0.000000   0.000036   0.002499  -0.000425
    25  O   -0.000029   0.000374  -0.000307   0.000435  -0.000802   0.012497
    26  H   -0.000006  -0.000039   0.000043  -0.000506   0.000898  -0.003256
    27  H   -0.000004  -0.000126  -0.000093  -0.001132  -0.000214  -0.004692
              13         14         15         16         17         18
     1  C   -0.020262  -1.599141   1.553519  -0.040451  -0.009538  -0.035469
     2  C    0.035717   1.106499  -0.719934   0.027384   0.036366   0.078135
     3  C    0.027315  -0.221005  -0.402313   0.070472   0.023043  -0.075867
     4  C   -0.000305   0.068592  -0.073197  -0.011117  -0.031634   0.037123
     5  C    0.001662  -0.025188  -0.028711  -0.027254   0.004086  -0.027334
     6  C    0.000436   0.379943  -0.208223   0.011753   0.001746   0.030709
     7  H   -0.000031  -0.000961   0.003277  -0.002751  -0.000266   0.000093
     8  H   -0.000000   0.000435  -0.000885  -0.000386   0.000004  -0.000098
     9  H   -0.000001  -0.000636   0.000475   0.000045  -0.000025  -0.000008
    10  H   -0.000015  -0.001663  -0.000027   0.000004   0.000010  -0.000040
    11  H   -0.001656   0.322067  -0.005676   0.000037  -0.000001   0.000034
    12  C    0.428089   0.368485   0.393311  -0.000301  -0.001582   0.000541
    13  H    0.499879  -0.056995  -0.064003  -0.000001   0.000004  -0.000001
    14  N   -0.056995   7.019514  -0.084379   0.000485  -0.000009  -0.000720
    15  N   -0.064003  -0.084379   6.928370  -0.013612  -0.006056  -0.000533
    16  O   -0.000001   0.000485  -0.013612   7.982352   0.311842   0.309095
    17  H    0.000004  -0.000009  -0.006056   0.311842   0.396628  -0.027964
    18  H   -0.000001  -0.000720  -0.000533   0.309095  -0.027964   0.359837
    19  O   -0.000095   0.025299  -0.003186   0.001402   0.000019  -0.002727
    20  H   -0.000207   0.000184   0.001322  -0.000888  -0.000047   0.000889
    21  H   -0.000009  -0.001368   0.000332   0.000060  -0.000003  -0.000339
    22  O    0.000278   0.009867   0.000369   0.000016   0.000002  -0.000025
    23  H   -0.000059  -0.016192   0.000292   0.000003   0.000003   0.000088
    24  H    0.000060   0.003694  -0.000409   0.000003   0.000000  -0.000000
    25  O    0.000015   0.006348  -0.009026   0.010318   0.003379  -0.048268
    26  H   -0.000024  -0.013543   0.005839  -0.007394  -0.000624   0.012843
    27  H    0.000003  -0.007316   0.001557  -0.005336  -0.001016   0.009643
              19         20         21         22         23         24
     1  C   -0.100340   0.010662   0.009545  -0.038089   0.058427  -0.013270
     2  C    0.002246  -0.004790  -0.001673   0.029357  -0.011339   0.010454
     3  C   -0.003844   0.001460   0.003055  -0.016608   0.001853  -0.000284
     4  C    0.002603   0.000106  -0.000488   0.003349  -0.001261   0.000089
     5  C    0.003646  -0.001972  -0.000127  -0.010197  -0.001306   0.000048
     6  C    0.088070  -0.009761  -0.009780   0.012388  -0.026430   0.002071
     7  H    0.000003  -0.000002  -0.000000   0.000001   0.000000   0.000000
     8  H    0.000002  -0.000000  -0.000000   0.000001  -0.000000   0.000000
     9  H   -0.000001   0.000000   0.000000  -0.000000  -0.000001  -0.000000
    10  H   -0.000041  -0.000023  -0.000005  -0.000149  -0.000018   0.000036
    11  H   -0.005482   0.001078   0.000026  -0.068711   0.012449   0.002499
    12  C   -0.001698   0.007016   0.001103   0.001761  -0.001652  -0.000425
    13  H   -0.000095  -0.000207  -0.000009   0.000278  -0.000059   0.000060
    14  N    0.025299   0.000184  -0.001368   0.009867  -0.016192   0.003694
    15  N   -0.003186   0.001322   0.000332   0.000369   0.000292  -0.000409
    16  O    0.001402  -0.000888   0.000060   0.000016   0.000003   0.000003
    17  H    0.000019  -0.000047  -0.000003   0.000002   0.000003   0.000000
    18  H   -0.002727   0.000889  -0.000339  -0.000025   0.000088  -0.000000
    19  O    8.057745   0.319548   0.278877   0.005848  -0.013460   0.000390
    20  H    0.319548   0.378217  -0.013302  -0.007929   0.007007   0.000246
    21  H    0.278877  -0.013302   0.383013   0.000170  -0.000041  -0.000326
    22  O    0.005848  -0.007929   0.000170   8.160942   0.282225   0.295828
    23  H   -0.013460   0.007007  -0.000041   0.282225   0.361385  -0.020245
    24  H    0.000390   0.000246  -0.000326   0.295828  -0.020245   0.408752
    25  O    0.030559  -0.011050   0.000553   0.001897  -0.004043   0.000214
    26  H   -0.040549   0.006782   0.002605  -0.003469   0.003073   0.000055
    27  H   -0.001026   0.000600  -0.000115  -0.000173   0.000309  -0.000027
              25         26         27
     1  C    0.009567   0.137479   0.054695
     2  C   -0.008178  -0.067332  -0.025691
     3  C    0.057349   0.015754   0.011005
     4  C   -0.075332   0.007190   0.014771
     5  C    0.103340  -0.032999  -0.048141
     6  C   -0.105440  -0.031083   0.012991
     7  H   -0.000029  -0.000006  -0.000004
     8  H    0.000374  -0.000039  -0.000126
     9  H   -0.000307   0.000043  -0.000093
    10  H    0.000435  -0.000506  -0.001132
    11  H   -0.000802   0.000898  -0.000214
    12  C    0.012497  -0.003256  -0.004692
    13  H    0.000015  -0.000024   0.000003
    14  N    0.006348  -0.013543  -0.007316
    15  N   -0.009026   0.005839   0.001557
    16  O    0.010318  -0.007394  -0.005336
    17  H    0.003379  -0.000624  -0.001016
    18  H   -0.048268   0.012843   0.009643
    19  O    0.030559  -0.040549  -0.001026
    20  H   -0.011050   0.006782   0.000600
    21  H    0.000553   0.002605  -0.000115
    22  O    0.001897  -0.003469  -0.000173
    23  H   -0.004043   0.003073   0.000309
    24  H    0.000214   0.000055  -0.000027
    25  O    8.128687   0.228452   0.273951
    26  H    0.228452   0.422477   0.006368
    27  H    0.273951   0.006368   0.399555
 Mulliken charges:
               1
     1  C    0.160885
     2  C    0.234185
     3  C   -0.427539
     4  C   -0.113080
     5  C   -0.073770
     6  C   -0.567841
     7  H    0.161993
     8  H    0.130158
     9  H    0.130831
    10  H    0.148050
    11  H    0.361459
    12  C    0.094063
    13  H    0.150206
    14  N   -0.282298
    15  N   -0.268492
    16  O   -0.615778
    17  H    0.301632
    18  H    0.380364
    19  O   -0.643806
    20  H    0.314853
    21  H    0.348236
    22  O   -0.658951
    23  H    0.368932
    24  H    0.310549
    25  O   -0.605460
    26  H    0.350966
    27  H    0.309654
 Sum of Mulliken charges =  -0.00000
 Mulliken charges with hydrogens summed into heavy atoms:
               1
     1  C    0.160885
     2  C    0.234185
     3  C   -0.265546
     4  C    0.017078
     5  C    0.057061
     6  C   -0.419791
    12  C    0.244269
    14  N    0.079161
    15  N   -0.268492
    16  O    0.066217
    19  O    0.019283
    22  O    0.020530
    25  O    0.055160
         Mulliken charges condensed to fragments:
      1     -0.161190
      2      0.066217
      3      0.019283
      4      0.020530
      5      0.055160
 Electronic spatial extent (au):  <R**2>=         128191.7894
 Charge=             -0.0000 electrons
 Dipole moment (field-independent basis, Debye):
    X=             -6.5209    Y=              2.6516    Z=              2.6134  Tot=              7.5089
 Quadrupole moment (field-independent basis, Debye-Ang):
   XX=           -192.4316   YY=            -29.4087   ZZ=            -38.3518
   XY=            -35.3438   XZ=            -36.9668   YZ=             53.6497
 Traceless Quadrupole moment (field-independent basis, Debye-Ang):
   XX=           -105.7009   YY=             57.3220   ZZ=             48.3789
   XY=            -35.3438   XZ=            -36.9668   YZ=             53.6497
 Octapole moment (field-independent basis, Debye-Ang**2):
  XXX=          -4092.1519  YYY=          -1806.8065  ZZZ=          -2058.3172  XYY=           -970.1941
  XXY=          -1619.7284  XXZ=          -1673.8787  XZZ=          -1139.5311  YZZ=           -138.1420
  YYZ=            -54.1253  XYZ=            -67.5077
 Hexadecapole moment (field-independent basis, Debye-Ang**3):
 XXXX=         -76235.8867 YYYY=         -45000.7479 ZZZZ=         -50210.0271 XXXY=         -38254.7426
 XXXZ=         -39438.9178 YYYX=         -26379.8277 YYYZ=         -16469.9332 ZZZX=         -30965.6916
 ZZZY=         -18938.8862 XXYY=         -23677.4811 XXZZ=         -26831.0658 YYZZ=          -8412.3826
 XXYZ=         -13755.3870 YYXZ=          -7282.7196 ZZXY=          -8769.5679
 N-N= 8.412873893206D+02 E-N=-3.288330619724D+03  KE= 6.828604538975D+02
 No NMR shielding tensors so no spin-rotation constants.
 Leave Link  601 at Sat Dec 17 23:12:37 2022, MaxMem=  6710886400 cpu:               3.0 elap:               0.2
 (Enter /data0/home/software/g16/l122.exe)
 CPIOFr:  IOpCl= 0 IRwI=-1 IRwCP=  731 ICalc= -1 LCPTot=      292286 Len1MO=      765957 IndFrg=      292286
 CPIOFr:  IOpCl= 0 IRwI=-1 IRwCP=  731 ICalc=  0 LCPTot=      292286 Len1MO=      765957 IndFrg=     1058243
 Counterpoise: doing calculation for fragment   1 using the basis set of the full-system, NewBq=T
 Leave Link  122 at Sat Dec 17 23:12:37 2022, MaxMem=  6710886400 cpu:               0.3 elap:               0.0
 (Enter /data0/home/software/g16/l301.exe)
 Basis read from rwf:  (5D, 7F)
 No pseudopotential information found on rwf file.
   435 basis functions,   658 primitive gaussians,   461 cartesian basis functions
    31 alpha electrons       31 beta electrons
       nuclear repulsion energy       401.4613013505 Hartrees.
 IExCor= 4336 DFT=T Ex+Corr=M062X ExCW=0 ScaHFX=  0.540000
 ScaDFX=  1.000000  1.000000  1.000000  1.000000 ScalE2=  1.000000  1.000000
 IRadAn=      5 IRanWt=     -1 IRanGd=            0 ICorTp=0 IEmpDi=131
 NAtoms=   27 NActive=   27 NUniq=   27 SFac= 1.00D+00 NAtFMM=   60 NAOKFM=F Big=F
 Integral buffers will be    131072 words long.
 Raffenetti 2 integral format.
 Two-electron integral symmetry is turned off.
 R6Disp:  Grimme-D3 Dispersion energy=       -0.0002903571 Hartrees.
 Nuclear repulsion after empirical dispersion term =      401.4610109933 Hartrees.
 No density basis found on file   718.
 Leave Link  301 at Sat Dec 17 23:12:38 2022, MaxMem=  6710886400 cpu:               1.3 elap:               0.1
 (Enter /data0/home/software/g16/l302.exe)
 NPDir=0 NMtPBC=     1 NCelOv=     1 NCel=       1 NClECP=     1 NCelD=      1
         NCelK=      1 NCelE2=     1 NClLst=     1 CellRange=     0.0.
 One-electron integrals computed using PRISM.
 NBasis=   435 RedAO= T EigKep=  1.03D-06  NBF=   435
 NBsUse=   435 1.00D-06 EigRej= -1.00D+00 NBFU=   435
 Precomputing XC quadrature grid using
 IXCGrd= 4 IRadAn=           5 IRanWt=          -1 IRanGd=           0 AccXCQ= 0.00D+00.
 Generated NRdTot=       0 NPtTot=           0 NUsed=           0 NTot=          32
 NSgBfM=   461   461   461   461   461 MxSgAt=    27 MxSgA2=    27.
 Leave Link  302 at Sat Dec 17 23:12:38 2022, MaxMem=  6710886400 cpu:               9.2 elap:               0.4
 (Enter /data0/home/software/g16/l303.exe)
 DipDrv:  MaxL=1.
 Leave Link  303 at Sat Dec 17 23:12:38 2022, MaxMem=  6710886400 cpu:               1.0 elap:               0.1
 (Enter /data0/home/software/g16/l401.exe)
 ExpMin= 4.38D-02 ExpMax= 8.59D+03 ExpMxC= 1.30D+03 IAcc=3 IRadAn=         5 AccDes= 0.00D+00
 Harris functional with IExCor= 1009 and IRadAn=       5 diagonalized for initial guess.
 HarFok:  IExCor= 1009 AccDes= 0.00D+00 IRadAn=         5 IDoV= 1 UseB2=F ITyADJ=14
 ICtDFT=  3500011 ScaDFX=  1.000000  1.000000  1.000000  1.000000
 FoFCou: FMM=F IPFlag=           0 FMFlag=      100000 FMFlg1=           0
         NFxFlg=           0 DoJE=T BraDBF=F KetDBF=T FulRan=T
         wScrn=  0.000000 ICntrl=       500 IOpCl=  0 I1Cent=   200000004 NGrid=           0
         NMat0=    1 NMatS0=      1 NMatT0=    0 NMatD0=    1 NMtDS0=    0 NMtDT0=    0
 Symmetry not used in FoFCou.
 Harris En= -379.614164475135    
 JPrj=0 DoOrth=F DoCkMO=F.
 Leave Link  401 at Sat Dec 17 23:12:39 2022, MaxMem=  6710886400 cpu:              34.4 elap:               1.5
 (Enter /data0/home/software/g16/l502.exe)
 Two-electron integral symmetry not used.
 Closed shell SCF:
 Using DIIS extrapolation, IDIIS=  1040.
 NGot=  6710886400 LenX=  6710447034 LenY=  6710234052
 Requested convergence on RMS density matrix=1.00D-08 within 128 cycles.
 Requested convergence on MAX density matrix=1.00D-06.
 Requested convergence on             energy=1.00D-06.
 No special actions if energy rises.
 Fock matrices will be formed incrementally for  20 cycles.

 Cycle   1  Pass 1  IDiag  1:
 FoFJK:  IHMeth= 1 ICntrl=       0 DoSepK=F KAlg= 0 I1Cent=           0 FoldK=F
 IRaf= 900000000 NMat=       1 IRICut=       1 DoRegI=T DoRafI=F ISym2E= 0 IDoP0=0 IntGTp=1.
 FoFCou: FMM=F IPFlag=           0 FMFlag=      100000 FMFlg1=           0
         NFxFlg=           0 DoJE=F BraDBF=F KetDBF=F FulRan=T
         wScrn=  0.000000 ICntrl=         0 IOpCl=  0 I1Cent=           0 NGrid=           0
         NMat0=    1 NMatS0=      1 NMatT0=    0 NMatD0=    1 NMtDS0=    0 NMtDT0=    0
 Symmetry not used in FoFCou.
 E= -379.610795984712    
 DIIS: error= 1.79D-02 at cycle   1 NSaved=   1.
 NSaved= 1 IEnMin= 1 EnMin= -379.610795984712     IErMin= 1 ErrMin= 1.79D-02
 ErrMax= 1.79D-02  0.00D+00 EMaxC= 1.00D-01 BMatC= 2.49D-01 BMatP= 2.49D-01
 IDIUse=3 WtCom= 8.21D-01 WtEn= 1.79D-01
 Coeff-Com:  0.100D+01
 Coeff-En:   0.100D+01
 Coeff:      0.100D+01
 Gap=     0.306 Goal=   None    Shift=    0.000
 GapD=    0.306 DampG=1.000 DampE=0.500 DampFc=0.5000 IDamp=-1.
 Damping current iteration by 5.00D-01
 RMSDP=1.43D-02 MaxDP=2.96D+00              OVMax= 2.15D-01

 Cycle   2  Pass 1  IDiag  1:
 RMSU=  6.60D-03    CP:  1.14D+00
 E= -379.707541456558     Delta-E=       -0.096745471845 Rises=F Damp=T
 DIIS: error= 6.86D-03 at cycle   2 NSaved=   2.
 NSaved= 2 IEnMin= 2 EnMin= -379.707541456558     IErMin= 2 ErrMin= 6.86D-03
 ErrMax= 6.86D-03  0.00D+00 EMaxC= 1.00D-01 BMatC= 2.64D-02 BMatP= 2.49D-01
 IDIUse=3 WtCom= 9.31D-01 WtEn= 6.86D-02
 Coeff-Com: -0.880D-01 0.109D+01
 Coeff-En:   0.000D+00 0.100D+01
 Coeff:     -0.820D-01 0.108D+01
 Gap=     0.298 Goal=   None    Shift=    0.000
 RMSDP=4.31D-03 MaxDP=6.53D-01 DE=-9.67D-02 OVMax= 1.78D-01

 Cycle   3  Pass 1  IDiag  1:
 RMSU=  3.23D-03    CP:  9.94D-01  9.47D-01
 E= -379.800185274667     Delta-E=       -0.092643818110 Rises=F Damp=F
 DIIS: error= 5.93D-03 at cycle   3 NSaved=   3.
 NSaved= 3 IEnMin= 3 EnMin= -379.800185274667     IErMin= 3 ErrMin= 5.93D-03
 ErrMax= 5.93D-03  0.00D+00 EMaxC= 1.00D-01 BMatC= 1.79D-02 BMatP= 2.64D-02
 IDIUse=3 WtCom= 9.41D-01 WtEn= 5.93D-02
 Coeff-Com: -0.136D+00 0.537D+00 0.599D+00
 Coeff-En:   0.000D+00 0.000D+00 0.100D+01
 Coeff:     -0.128D+00 0.505D+00 0.623D+00
 Gap=     0.279 Goal=   None    Shift=    0.000
 RMSDP=1.12D-03 MaxDP=1.76D-01 DE=-9.26D-02 OVMax= 6.07D-02

 Cycle   4  Pass 1  IDiag  1:
 RMSU=  9.42D-04    CP:  9.67D-01  9.74D-01  9.17D-01
 E= -379.815111807694     Delta-E=       -0.014926533026 Rises=F Damp=F
 DIIS: error= 2.67D-03 at cycle   4 NSaved=   4.
 NSaved= 4 IEnMin= 4 EnMin= -379.815111807694     IErMin= 4 ErrMin= 2.67D-03
 ErrMax= 2.67D-03  0.00D+00 EMaxC= 1.00D-01 BMatC= 2.56D-03 BMatP= 1.79D-02
 IDIUse=3 WtCom= 9.73D-01 WtEn= 2.67D-02
 Coeff-Com: -0.571D-01 0.147D+00 0.331D+00 0.579D+00
 Coeff-En:   0.000D+00 0.000D+00 0.739D-01 0.926D+00
 Coeff:     -0.555D-01 0.143D+00 0.324D+00 0.588D+00
 Gap=     0.277 Goal=   None    Shift=    0.000
 RMSDP=3.79D-04 MaxDP=4.39D-02 DE=-1.49D-02 OVMax= 1.33D-02

 Cycle   5  Pass 1  IDiag  1:
 RMSU=  2.59D-04    CP:  9.67D-01  9.49D-01  9.25D-01  7.67D-01
 E= -379.817292338076     Delta-E=       -0.002180530382 Rises=F Damp=F
 DIIS: error= 4.05D-04 at cycle   5 NSaved=   5.
 NSaved= 5 IEnMin= 5 EnMin= -379.817292338076     IErMin= 5 ErrMin= 4.05D-04
 ErrMax= 4.05D-04  0.00D+00 EMaxC= 1.00D-01 BMatC= 1.01D-04 BMatP= 2.56D-03
 IDIUse=3 WtCom= 9.96D-01 WtEn= 4.05D-03
 Coeff-Com: -0.194D-01 0.414D-01 0.118D+00 0.268D+00 0.592D+00
 Coeff-En:   0.000D+00 0.000D+00 0.000D+00 0.000D+00 0.100D+01
 Coeff:     -0.194D-01 0.412D-01 0.118D+00 0.267D+00 0.594D+00
 Gap=     0.276 Goal=   None    Shift=    0.000
 RMSDP=1.06D-04 MaxDP=1.10D-02 DE=-2.18D-03 OVMax= 4.04D-03

 Cycle   6  Pass 1  IDiag  1:
 RMSU=  9.42D-05    CP:  9.66D-01  9.46D-01  9.24D-01  7.46D-01  8.41D-01
 E= -379.817385241973     Delta-E=       -0.000092903897 Rises=F Damp=F
 DIIS: error= 1.71D-04 at cycle   6 NSaved=   6.
 NSaved= 6 IEnMin= 6 EnMin= -379.817385241973     IErMin= 6 ErrMin= 1.71D-04
 ErrMax= 1.71D-04  0.00D+00 EMaxC= 1.00D-01 BMatC= 1.16D-05 BMatP= 1.01D-04
 IDIUse=3 WtCom= 9.98D-01 WtEn= 1.71D-03
 Coeff-Com: -0.264D-02 0.309D-02 0.185D-01 0.551D-01 0.285D+00 0.641D+00
 Coeff-En:   0.000D+00 0.000D+00 0.000D+00 0.000D+00 0.207D-01 0.979D+00
 Coeff:     -0.264D-02 0.308D-02 0.185D-01 0.550D-01 0.285D+00 0.641D+00
 Gap=     0.276 Goal=   None    Shift=    0.000
 RMSDP=4.36D-05 MaxDP=6.72D-03 DE=-9.29D-05 OVMax= 1.46D-03

 Cycle   7  Pass 1  IDiag  1:
 RMSU=  2.81D-05    CP:  9.66D-01  9.42D-01  9.25D-01  7.56D-01  8.46D-01
                    CP:  8.78D-01
 E= -379.817398064408     Delta-E=       -0.000012822434 Rises=F Damp=F
 DIIS: error= 3.67D-05 at cycle   7 NSaved=   7.
 NSaved= 7 IEnMin= 7 EnMin= -379.817398064408     IErMin= 7 ErrMin= 3.67D-05
 ErrMax= 3.67D-05  0.00D+00 EMaxC= 1.00D-01 BMatC= 4.17D-07 BMatP= 1.16D-05
 IDIUse=1 WtCom= 1.00D+00 WtEn= 0.00D+00
 Coeff-Com:  0.145D-02-0.357D-02-0.666D-02-0.166D-01-0.362D-02 0.978D-01
 Coeff-Com:  0.931D+00
 Coeff:      0.145D-02-0.357D-02-0.666D-02-0.166D-01-0.362D-02 0.978D-01
 Coeff:      0.931D+00
 Gap=     0.276 Goal=   None    Shift=    0.000
 RMSDP=1.50D-05 MaxDP=2.30D-03 DE=-1.28D-05 OVMax= 4.69D-04

 Cycle   8  Pass 1  IDiag  1:
 RMSU=  4.47D-06    CP:  9.66D-01  9.40D-01  9.26D-01  7.54D-01  8.62D-01
                    CP:  9.34D-01  1.18D+00
 E= -379.817398731274     Delta-E=       -0.000000666867 Rises=F Damp=F
 DIIS: error= 1.90D-05 at cycle   8 NSaved=   8.
 NSaved= 8 IEnMin= 8 EnMin= -379.817398731274     IErMin= 8 ErrMin= 1.90D-05
 ErrMax= 1.90D-05  0.00D+00 EMaxC= 1.00D-01 BMatC= 1.79D-07 BMatP= 4.17D-07
 IDIUse=1 WtCom= 1.00D+00 WtEn= 0.00D+00
 Coeff-Com:  0.105D-02-0.217D-02-0.518D-02-0.149D-01-0.325D-01-0.201D-01
 Coeff-Com:  0.495D+00 0.579D+00
 Coeff:      0.105D-02-0.217D-02-0.518D-02-0.149D-01-0.325D-01-0.201D-01
 Coeff:      0.495D+00 0.579D+00
 Gap=     0.276 Goal=   None    Shift=    0.000
 RMSDP=5.18D-06 MaxDP=5.67D-04 DE=-6.67D-07 OVMax= 2.19D-04

 Cycle   9  Pass 1  IDiag  1:
 RMSU=  2.83D-06    CP:  9.66D-01  9.40D-01  9.26D-01  7.53D-01  8.58D-01
                    CP:  9.52D-01  1.20D+00  1.03D+00
 E= -379.817398952081     Delta-E=       -0.000000220807 Rises=F Damp=F
 DIIS: error= 7.18D-06 at cycle   9 NSaved=   9.
 NSaved= 9 IEnMin= 9 EnMin= -379.817398952081     IErMin= 9 ErrMin= 7.18D-06
 ErrMax= 7.18D-06  0.00D+00 EMaxC= 1.00D-01 BMatC= 8.93D-09 BMatP= 1.79D-07
 IDIUse=1 WtCom= 1.00D+00 WtEn= 0.00D+00
 Coeff-Com: -0.559D-04 0.175D-03 0.445D-03 0.375D-03-0.265D-02-0.150D-01
 Coeff-Com: -0.680D-01 0.109D+00 0.976D+00
 Coeff:     -0.559D-04 0.175D-03 0.445D-03 0.375D-03-0.265D-02-0.150D-01
 Coeff:     -0.680D-01 0.109D+00 0.976D+00
 Gap=     0.276 Goal=   None    Shift=    0.000
 RMSDP=2.03D-06 MaxDP=2.99D-04 DE=-2.21D-07 OVMax= 9.46D-05

 Cycle  10  Pass 1  IDiag  1:
 RMSU=  8.27D-07    CP:  9.66D-01  9.40D-01  9.26D-01  7.52D-01  8.58D-01
                    CP:  9.53D-01  1.20D+00  1.21D+00  1.15D+00
 E= -379.817398974439     Delta-E=       -0.000000022358 Rises=F Damp=F
 DIIS: error= 2.02D-06 at cycle  10 NSaved=  10.
 NSaved=10 IEnMin=10 EnMin= -379.817398974439     IErMin=10 ErrMin= 2.02D-06
 ErrMax= 2.02D-06  0.00D+00 EMaxC= 1.00D-01 BMatC= 9.57D-10 BMatP= 8.93D-09
 IDIUse=1 WtCom= 1.00D+00 WtEn= 0.00D+00
 Coeff-Com: -0.966D-04 0.217D-03 0.585D-03 0.128D-02 0.162D-02-0.264D-02
 Coeff-Com: -0.619D-01-0.211D-01 0.272D+00 0.810D+00
 Coeff:     -0.966D-04 0.217D-03 0.585D-03 0.128D-02 0.162D-02-0.264D-02
 Coeff:     -0.619D-01-0.211D-01 0.272D+00 0.810D+00
 Gap=     0.276 Goal=   None    Shift=    0.000
 RMSDP=5.00D-07 MaxDP=4.72D-05 DE=-2.24D-08 OVMax= 3.58D-05

 Cycle  11  Pass 1  IDiag  1:
 RMSU=  2.04D-07    CP:  9.66D-01  9.40D-01  9.26D-01  7.52D-01  8.58D-01
                    CP:  9.53D-01  1.19D+00  1.25D+00  1.24D+00  1.04D+00
 E= -379.817398976557     Delta-E=       -0.000000002118 Rises=F Damp=F
 DIIS: error= 8.42D-07 at cycle  11 NSaved=  11.
 NSaved=11 IEnMin=11 EnMin= -379.817398976557     IErMin=11 ErrMin= 8.42D-07
 ErrMax= 8.42D-07  0.00D+00 EMaxC= 1.00D-01 BMatC= 2.72D-10 BMatP= 9.57D-10
 IDIUse=1 WtCom= 1.00D+00 WtEn= 0.00D+00
 Coeff-Com: -0.324D-04 0.686D-04 0.205D-03 0.512D-03 0.978D-03 0.840D-03
 Coeff-Com: -0.195D-01-0.274D-01-0.102D-01 0.393D+00 0.662D+00
 Coeff:     -0.324D-04 0.686D-04 0.205D-03 0.512D-03 0.978D-03 0.840D-03
 Coeff:     -0.195D-01-0.274D-01-0.102D-01 0.393D+00 0.662D+00
 Gap=     0.276 Goal=   None    Shift=    0.000
 RMSDP=2.12D-07 MaxDP=2.25D-05 DE=-2.12D-09 OVMax= 1.44D-05

 Cycle  12  Pass 1  IDiag  1:
 RMSU=  1.17D-07    CP:  9.66D-01  9.40D-01  9.26D-01  7.52D-01  8.58D-01
                    CP:  9.54D-01  1.19D+00  1.25D+00  1.26D+00  1.09D+00
                    CP:  1.04D+00
 E= -379.817398976994     Delta-E=       -0.000000000437 Rises=F Damp=F
 DIIS: error= 2.26D-07 at cycle  12 NSaved=  12.
 NSaved=12 IEnMin=12 EnMin= -379.817398976994     IErMin=12 ErrMin= 2.26D-07
 ErrMax= 2.26D-07  0.00D+00 EMaxC= 1.00D-01 BMatC= 1.51D-11 BMatP= 2.72D-10
 IDIUse=1 WtCom= 1.00D+00 WtEn= 0.00D+00
 Coeff-Com:  0.874D-05-0.199D-04-0.496D-04-0.881D-04-0.857D-04 0.707D-03
 Coeff-Com:  0.595D-02-0.446D-02-0.452D-01-0.355D-01 0.129D+00 0.950D+00
 Coeff:      0.874D-05-0.199D-04-0.496D-04-0.881D-04-0.857D-04 0.707D-03
 Coeff:      0.595D-02-0.446D-02-0.452D-01-0.355D-01 0.129D+00 0.950D+00
 Gap=     0.276 Goal=   None    Shift=    0.000
 RMSDP=1.46D-07 MaxDP=1.71D-05 DE=-4.37D-10 OVMax= 6.34D-06

 Cycle  13  Pass 1  IDiag  1:
 RMSU=  4.82D-08    CP:  9.66D-01  9.40D-01  9.26D-01  7.52D-01  8.58D-01
                    CP:  9.55D-01  1.19D+00  1.25D+00  1.26D+00  1.12D+00
                    CP:  1.13D+00  1.49D+00
 E= -379.817398977018     Delta-E=       -0.000000000024 Rises=F Damp=F
 DIIS: error= 1.05D-07 at cycle  13 NSaved=  13.
 NSaved=13 IEnMin=13 EnMin= -379.817398977018     IErMin=13 ErrMin= 1.05D-07
 ErrMax= 1.05D-07  0.00D+00 EMaxC= 1.00D-01 BMatC= 2.87D-12 BMatP= 1.51D-11
 IDIUse=1 WtCom= 1.00D+00 WtEn= 0.00D+00
 Coeff-Com:  0.512D-05-0.114D-04-0.322D-04-0.645D-04-0.111D-03 0.209D-03
 Coeff-Com:  0.348D-02 0.365D-03-0.126D-01-0.387D-01-0.225D-01 0.311D+00
 Coeff-Com:  0.759D+00
 Coeff:      0.512D-05-0.114D-04-0.322D-04-0.645D-04-0.111D-03 0.209D-03
 Coeff:      0.348D-02 0.365D-03-0.126D-01-0.387D-01-0.225D-01 0.311D+00
 Coeff:      0.759D+00
 Gap=     0.276 Goal=   None    Shift=    0.000
 RMSDP=3.27D-08 MaxDP=3.70D-06 DE=-2.36D-11 OVMax= 1.87D-06

 Cycle  14  Pass 1  IDiag  1:
 RMSU=  1.06D-08    CP:  9.66D-01  9.40D-01  9.26D-01  7.52D-01  8.58D-01
                    CP:  9.55D-01  1.19D+00  1.25D+00  1.26D+00  1.13D+00
                    CP:  1.15D+00  1.60D+00  1.18D+00
 E= -379.817398977042     Delta-E=       -0.000000000024 Rises=F Damp=F
 DIIS: error= 3.35D-08 at cycle  14 NSaved=  14.
 NSaved=14 IEnMin=14 EnMin= -379.817398977042     IErMin=14 ErrMin= 3.35D-08
 ErrMax= 3.35D-08  0.00D+00 EMaxC= 1.00D-01 BMatC= 8.47D-13 BMatP= 2.87D-12
 IDIUse=1 WtCom= 1.00D+00 WtEn= 0.00D+00
 Coeff-Com:  0.214D-06-0.521D-06-0.371D-05-0.703D-05-0.348D-04-0.482D-04
 Coeff-Com:  0.192D-03 0.100D-02 0.508D-02-0.854D-02-0.486D-01-0.832D-01
 Coeff-Com:  0.376D+00 0.758D+00
 Coeff:      0.214D-06-0.521D-06-0.371D-05-0.703D-05-0.348D-04-0.482D-04
 Coeff:      0.192D-03 0.100D-02 0.508D-02-0.854D-02-0.486D-01-0.832D-01
 Coeff:      0.376D+00 0.758D+00
 Gap=     0.276 Goal=   None    Shift=    0.000
 RMSDP=2.06D-08 MaxDP=2.16D-06 DE=-2.44D-11 OVMax= 7.82D-07

 Cycle  15  Pass 1  IDiag  1:
 RMSU=  5.85D-09    CP:  9.66D-01  9.40D-01  9.26D-01  7.52D-01  8.58D-01
                    CP:  9.55D-01  1.19D+00  1.25D+00  1.26D+00  1.13D+00
                    CP:  1.15D+00  1.67D+00  1.30D+00  1.17D+00
 E= -379.817398977050     Delta-E=       -0.000000000008 Rises=F Damp=F
 DIIS: error= 6.71D-09 at cycle  15 NSaved=  15.
 NSaved=15 IEnMin=15 EnMin= -379.817398977050     IErMin=15 ErrMin= 6.71D-09
 ErrMax= 6.71D-09  0.00D+00 EMaxC= 1.00D-01 BMatC= 3.55D-14 BMatP= 8.47D-13
 IDIUse=1 WtCom= 1.00D+00 WtEn= 0.00D+00
 Coeff-Com: -0.251D-06 0.530D-06 0.542D-06 0.160D-05-0.744D-05-0.267D-04
 Coeff-Com: -0.132D-03 0.254D-03 0.248D-02-0.117D-03-0.162D-01-0.450D-01
 Coeff-Com:  0.863D-01 0.253D+00 0.719D+00
 Coeff:     -0.251D-06 0.530D-06 0.542D-06 0.160D-05-0.744D-05-0.267D-04
 Coeff:     -0.132D-03 0.254D-03 0.248D-02-0.117D-03-0.162D-01-0.450D-01
 Coeff:      0.863D-01 0.253D+00 0.719D+00
 Gap=     0.276 Goal=   None    Shift=    0.000
 RMSDP=2.22D-09 MaxDP=2.61D-07 DE=-7.96D-12 OVMax= 1.29D-07

 SCF Done:  E(RM062X) =  -379.817398977     A.U. after   15 cycles
            NFock= 15  Conv=0.22D-08     -V/T= 2.0050
 KE= 3.779286727959D+02 PE=-1.685644506041D+03 EE= 5.264374232750D+02
 Leave Link  502 at Sat Dec 17 23:13:46 2022, MaxMem=  6710886400 cpu:            1588.2 elap:              66.4
 (Enter /data0/home/software/g16/l601.exe)
 Copying SCF densities to generalized density rwf, IOpCl= 0 IROHF=0.

 **********************************************************************

            Population analysis using the SCF density.

 **********************************************************************

 Alpha  occ. eigenvalues --  -14.81354 -14.74268 -10.62256 -10.58762 -10.57017
 Alpha  occ. eigenvalues --  -10.55269 -10.54578 -10.54464 -10.54129  -1.12191
 Alpha  occ. eigenvalues --   -0.98074  -0.95018  -0.84456  -0.83261  -0.71872
 Alpha  occ. eigenvalues --   -0.70690  -0.68081  -0.62581  -0.57362  -0.55907
 Alpha  occ. eigenvalues --   -0.51823  -0.51249  -0.50688  -0.48589  -0.43153
 Alpha  occ. eigenvalues --   -0.42192  -0.41415  -0.37311  -0.34423  -0.28694
 Alpha  occ. eigenvalues --   -0.28021
 Alpha virt. eigenvalues --   -0.00398  -0.00122   0.01667   0.02624   0.03389
 Alpha virt. eigenvalues --    0.03744   0.03966   0.04487   0.05372   0.05867
 Alpha virt. eigenvalues --    0.06737   0.06973   0.07706   0.08130   0.09659
 Alpha virt. eigenvalues --    0.10323   0.11492   0.11674   0.11792   0.12756
 Alpha virt. eigenvalues --    0.13325   0.14035   0.15475   0.15899   0.16446
 Alpha virt. eigenvalues --    0.16493   0.17022   0.17106   0.17627   0.18870
 Alpha virt. eigenvalues --    0.19009   0.19254   0.19997   0.20401   0.20851
 Alpha virt. eigenvalues --    0.21511   0.22007   0.22378   0.23206   0.23395
 Alpha virt. eigenvalues --    0.23655   0.23950   0.24208   0.24620   0.24853
 Alpha virt. eigenvalues --    0.25592   0.26018   0.26597   0.26844   0.27275
 Alpha virt. eigenvalues --    0.27960   0.28402   0.29036   0.29676   0.29987
 Alpha virt. eigenvalues --    0.30580   0.30947   0.31662   0.32526   0.32786
 Alpha virt. eigenvalues --    0.33829   0.34632   0.35516   0.36148   0.36706
 Alpha virt. eigenvalues --    0.37380   0.38195   0.38710   0.39208   0.39681
 Alpha virt. eigenvalues --    0.40532   0.42160   0.43359   0.45262   0.46524
 Alpha virt. eigenvalues --    0.46878   0.47886   0.48581   0.51588   0.54716
 Alpha virt. eigenvalues --    0.55352   0.56347   0.56963   0.57402   0.59083
 Alpha virt. eigenvalues --    0.59461   0.60006   0.60718   0.63770   0.64313
 Alpha virt. eigenvalues --    0.65251   0.65625   0.66045   0.66950   0.68046
 Alpha virt. eigenvalues --    0.68415   0.69826   0.70027   0.71043   0.71641
 Alpha virt. eigenvalues --    0.72140   0.72562   0.73400   0.73573   0.75236
 Alpha virt. eigenvalues --    0.76170   0.76791   0.78251   0.78596   0.79281
 Alpha virt. eigenvalues --    0.79880   0.80299   0.81297   0.82405   0.82655
 Alpha virt. eigenvalues --    0.83262   0.83953   0.84440   0.84759   0.85542
 Alpha virt. eigenvalues --    0.85859   0.86851   0.87538   0.88064   0.88421
 Alpha virt. eigenvalues --    0.89257   0.89475   0.90038   0.91798   0.92943
 Alpha virt. eigenvalues --    0.94181   0.94743   0.95724   0.96967   0.97517
 Alpha virt. eigenvalues --    0.98262   0.99296   1.01151   1.01359   1.02577
 Alpha virt. eigenvalues --    1.03473   1.04369   1.05895   1.07133   1.08404
 Alpha virt. eigenvalues --    1.09916   1.11589   1.12963   1.15526   1.16406
 Alpha virt. eigenvalues --    1.19025   1.19680   1.20569   1.22013   1.23568
 Alpha virt. eigenvalues --    1.23709   1.27102   1.27328   1.30007   1.31083
 Alpha virt. eigenvalues --    1.35577   1.35800   1.36755   1.38107   1.38755
 Alpha virt. eigenvalues --    1.40092   1.43754   1.44087   1.45371   1.47562
 Alpha virt. eigenvalues --    1.48700   1.49796   1.53182   1.54896   1.57883
 Alpha virt. eigenvalues --    1.59837   1.62068   1.63349   1.64627   1.65837
 Alpha virt. eigenvalues --    1.70058   1.70362   1.74864   1.75902   1.76634
 Alpha virt. eigenvalues --    1.77531   1.79131   1.82550   1.83411   1.84061
 Alpha virt. eigenvalues --    1.86017   1.86432   1.87414   1.89075   1.90705
 Alpha virt. eigenvalues --    1.92269   1.94240   1.96008   1.96512   1.99208
 Alpha virt. eigenvalues --    2.00071   2.01730   2.04392   2.08095   2.09201
 Alpha virt. eigenvalues --    2.10697   2.13174   2.13465   2.16088   2.19690
 Alpha virt. eigenvalues --    2.21566   2.24436   2.25893   2.27140   2.29178
 Alpha virt. eigenvalues --    2.30624   2.33109   2.34125   2.35836   2.38012
 Alpha virt. eigenvalues --    2.42689   2.45123   2.45648   2.47011   2.49280
 Alpha virt. eigenvalues --    2.49973   2.51935   2.55442   2.55520   2.56633
 Alpha virt. eigenvalues --    2.57351   2.59446   2.61110   2.61326   2.62422
 Alpha virt. eigenvalues --    2.64254   2.65337   2.65488   2.67014   2.67765
 Alpha virt. eigenvalues --    2.70474   2.71511   2.71838   2.72922   2.73241
 Alpha virt. eigenvalues --    2.73900   2.75090   2.77297   2.79951   2.81016
 Alpha virt. eigenvalues --    2.81943   2.82947   2.84812   2.86138   2.88368
 Alpha virt. eigenvalues --    2.89445   2.90890   2.91208   2.93243   2.95056
 Alpha virt. eigenvalues --    2.95967   2.96276   2.98561   2.99800   3.01185
 Alpha virt. eigenvalues --    3.03088   3.04414   3.06140   3.10825   3.11355
 Alpha virt. eigenvalues --    3.12194   3.16347   3.16435   3.17324   3.18767
 Alpha virt. eigenvalues --    3.20416   3.21392   3.26472   3.30389   3.30958
 Alpha virt. eigenvalues --    3.31342   3.31839   3.35171   3.36709   3.39062
 Alpha virt. eigenvalues --    3.39395   3.40794   3.41915   3.44330   3.44717
 Alpha virt. eigenvalues --    3.47974   3.48520   3.49729   3.51400   3.53249
 Alpha virt. eigenvalues --    3.56046   3.58481   3.59581   3.60018   3.60712
 Alpha virt. eigenvalues --    3.62187   3.62348   3.64229   3.65047   3.66521
 Alpha virt. eigenvalues --    3.67244   3.70673   3.72589   3.73583   3.74677
 Alpha virt. eigenvalues --    3.75346   3.76781   3.77563   3.80106   3.80532
 Alpha virt. eigenvalues --    3.83630   3.88568   3.93185   3.95377   3.97119
 Alpha virt. eigenvalues --    3.97378   4.00418   4.02547   4.04721   4.06084
 Alpha virt. eigenvalues --    4.10783   4.11832   4.26003   4.44209   4.55894
 Alpha virt. eigenvalues --    4.57871   4.58913   4.65107   4.66449   4.69096
 Alpha virt. eigenvalues --    4.72202   4.76402   4.91701   4.99988   5.03348
 Alpha virt. eigenvalues --    5.04024   5.05415   5.11067   5.12031   5.15541
 Alpha virt. eigenvalues --    5.19709   5.20313   5.20902   5.23782   5.29054
 Alpha virt. eigenvalues --    5.32893   5.41951   5.46201   5.60630   5.66372
 Alpha virt. eigenvalues --    9.73048   9.80113   9.81905   9.84288   9.88619
 Alpha virt. eigenvalues --    9.91526   9.94584   9.95106   9.97465  10.02161
 Alpha virt. eigenvalues --   10.02824  10.06862  10.09314  10.10901  10.15977
 Alpha virt. eigenvalues --   10.18310  10.26244  10.27562  10.35828  10.38725
 Alpha virt. eigenvalues --   12.77343  12.92239  13.11714  13.20857  13.29372
 Alpha virt. eigenvalues --   13.31472  13.51996  13.61932  13.67984  13.83546
 Alpha virt. eigenvalues --   13.97552  14.06486  17.54952  17.80487  18.04444
 Alpha virt. eigenvalues --   18.21370  23.80624  24.03285  24.07521  24.12869
 Alpha virt. eigenvalues --   24.13696  24.25086  24.28547  35.73994  35.82025
 Alpha virt. eigenvalues --  134.25579 135.29023 136.95414 138.65529
          Condensed to atoms (all electrons):
               1          2          3          4          5          6
     1  C   11.815953  -4.402548  -1.551846  -0.630497   0.018793   0.387951
     2  C   -4.402548  12.625573  -1.733351   0.431093  -0.958564  -1.121207
     3  C   -1.551846  -1.733351   9.976496   0.119828   0.598699  -0.915021
     4  C   -0.630497   0.431093   0.119828   5.285021   0.423796   0.289882
     5  C    0.018793  -0.958564   0.598699   0.423796   5.136930   0.542156
     6  C    0.387951  -1.121207  -0.915021   0.289882   0.542156   7.470467
[...]
     4  C    0.000000
     5  C    0.000000
     6  C    0.000000
     7  H    0.000000
     8  H    0.000000
     9  H    0.000000
    10  H    0.000000
    11  H    0.000000
    12  C    0.000000
    13  H    0.000000
    14  N    0.000000
    15  N    0.000000
    16  O    0.000000
    17  H    0.000000
    18  H    0.000000
    19  O    0.000000
    20  H    0.000000
    21  H    0.000000
    22  O   -0.560472
    23  H    0.281765
    24  H    0.278707
    25  O    0.000000
    26  H    0.000000
    27  H    0.000000
 Sum of Mulliken charges =  -0.00000
 Mulliken charges with hydrogens summed into heavy atoms:
               1
     1  C    0.000000
     2  C    0.000000
     3  C    0.000000
     4  C    0.000000
     5  C    0.000000
     6  C    0.000000
    12  C    0.000000
    14  N    0.000000
    15  N    0.000000
    16  O    0.000000
    19  O    0.000000
    22  O   -0.000000
    25  O    0.000000
         Mulliken charges condensed to fragments:
      1      0.000000
      2      0.000000
      3      0.000000
      4     -0.000000
      5      0.000000
 Electronic spatial extent (au):  <R**2>=          12307.4151
 Charge=             -0.0000 electrons
 Dipole moment (field-independent basis, Debye):
    X=             -1.6847    Y=             -0.4938    Z=             -1.1270  Tot=              2.0861
 Quadrupole moment (field-independent basis, Debye-Ang):
   XX=            -32.4571   YY=            -19.1019   ZZ=            -31.5592
   XY=            -24.9109   XZ=            -29.1539   YZ=            -18.2256
 Traceless Quadrupole moment (field-independent basis, Debye-Ang):
   XX=             -4.7510   YY=              8.6041   ZZ=             -3.8531
   XY=            -24.9109   XZ=            -29.1539   YZ=            -18.2256
 Octapole moment (field-independent basis, Debye-Ang**2):
  XXX=           -456.2455  YYY=           -477.8283  ZZZ=           -643.2842  XYY=           -413.3219
  XXY=           -433.5484  XXZ=           -457.3490  XZZ=           -492.8103  YZZ=           -422.8835
  YYZ=           -358.7159  XYZ=           -396.2517
 Hexadecapole moment (field-independent basis, Debye-Ang**3):
 XXXX=          -5592.8373 YYYY=          -9852.9669 ZZZZ=         -11411.8816 XXXY=          -5884.2078
 XXXZ=          -5964.6922 YYYX=          -7056.7919 YYYZ=          -7027.7567 ZZZX=          -8010.3872
 ZZZY=          -8128.8385 XXYY=          -6198.5360 XXZZ=          -6589.2609 YYZZ=          -6570.7240
 XXYZ=          -5935.9099 YYXZ=          -5981.0728 ZZXY=          -6370.8500
 N-N= 9.144559589585D+00 E-N=-1.991490719796D+02  KE= 7.620988254159D+01
 No NMR shielding tensors so no spin-rotation constants.
 Leave Link  601 at Sat Dec 17 23:17:04 2022, MaxMem=  6710886400 cpu:               1.8 elap:               0.1
 (Enter /data0/home/software/g16/l122.exe)
 CPIOFr:  IOpCl= 0 IRwI=-1 IRwCP=  731 ICalc=  9 LCPTot=      292286 Len1MO=      765957 IndFrg=     7951856
 Counterpoise: doing calculation for fragment   5 using the basis set of the fragment.
 Leave Link  122 at Sat Dec 17 23:17:04 2022, MaxMem=  6710886400 cpu:               0.2 elap:               0.0
 (Enter /data0/home/software/g16/l301.exe)
 Basis read from rwf:  (5D, 7F)
 No pseudopotential information found on rwf file.
    39 basis functions,    58 primitive gaussians,    41 cartesian basis functions
     5 alpha electrons        5 beta electrons
       nuclear repulsion energy         9.1270167134 Hartrees.
 IExCor= 4336 DFT=T Ex+Corr=M062X ExCW=0 ScaHFX=  0.540000
 ScaDFX=  1.000000  1.000000  1.000000  1.000000 ScalE2=  1.000000  1.000000
 IRadAn=      5 IRanWt=     -1 IRanGd=            0 ICorTp=0 IEmpDi=131
 NAtoms=   27 NActive=    3 NUniq=    3 SFac= 1.00D+00 NAtFMM=   60 NAOKFM=F Big=F
 Integral buffers will be    131072 words long.
 Raffenetti 2 integral format.
 Two-electron integral symmetry is turned off.
 R6Disp:  Grimme-D3 Dispersion energy=       -0.0000000079 Hartrees.
 Nuclear repulsion after empirical dispersion term =        9.1270167055 Hartrees.
 No density basis found on file   718.
 Leave Link  301 at Sat Dec 17 23:17:04 2022, MaxMem=  6710886400 cpu:               1.3 elap:               0.1
 (Enter /data0/home/software/g16/l302.exe)
 NPDir=0 NMtPBC=     1 NCelOv=     1 NCel=       1 NClECP=     1 NCelD=      1
         NCelK=      1 NCelE2=     1 NClLst=     1 CellRange=     0.0.
 One-electron integrals computed using PRISM.
 NBasis=    39 RedAO= T EigKep=  3.06D-03  NBF=    39
 NBsUse=    39 1.00D-06 EigRej= -1.00D+00 NBFU=    39
 Precomputing XC quadrature grid using
 IXCGrd= 4 IRadAn=           5 IRanWt=          -1 IRanGd=           0 AccXCQ= 0.00D+00.
 Generated NRdTot=       0 NPtTot=           0 NUsed=           0 NTot=          32
 NSgBfM=    41    41    41    41    41 MxSgAt=     3 MxSgA2=     3.
 Leave Link  302 at Sat Dec 17 23:17:04 2022, MaxMem=  6710886400 cpu:               2.2 elap:               0.1
 (Enter /data0/home/software/g16/l303.exe)
 DipDrv:  MaxL=1.
 Leave Link  303 at Sat Dec 17 23:17:04 2022, MaxMem=  6710886400 cpu:               0.4 elap:               0.0
 (Enter /data0/home/software/g16/l401.exe)
 ExpMin= 8.45D-02 ExpMax= 8.59D+03 ExpMxC= 1.30D+03 IAcc=3 IRadAn=         5 AccDes= 0.00D+00
 Harris functional with IExCor= 1009 and IRadAn=       5 diagonalized for initial guess.
 HarFok:  IExCor= 1009 AccDes= 0.00D+00 IRadAn=         5 IDoV= 1 UseB2=F ITyADJ=14
 ICtDFT=  3500011 ScaDFX=  1.000000  1.000000  1.000000  1.000000
 FoFCou: FMM=F IPFlag=           0 FMFlag=      100000 FMFlg1=           0
         NFxFlg=           0 DoJE=T BraDBF=F KetDBF=T FulRan=T
         wScrn=  0.000000 ICntrl=       500 IOpCl=  0 I1Cent=   200000004 NGrid=           0
         NMat0=    1 NMatS0=      1 NMatT0=    0 NMatD0=    1 NMtDS0=    0 NMtDT0=    0
 Symmetry not used in FoFCou.
 Harris En= -76.4169588837766    
 JPrj=0 DoOrth=F DoCkMO=F.
 Leave Link  401 at Sat Dec 17 23:17:04 2022, MaxMem=  6710886400 cpu:               2.9 elap:               0.1
 (Enter /data0/home/software/g16/l502.exe)
 Keep R1 ints in memory in canonical form, NReq=21041058.
 FoFCou: FMM=F IPFlag=           0 FMFlag=           0 FMFlg1=           0
         NFxFlg=           0 DoJE=F BraDBF=F KetDBF=F FulRan=T
         wScrn=  0.000000 ICntrl=       600 IOpCl=  0 I1Cent=           0 NGrid=           0
         NMat0=    1 NMatS0=    780 NMatT0=    0 NMatD0=    1 NMtDS0=    0 NMtDT0=    0
 Symmetry not used in FoFCou.
 Two-electron integral symmetry not used.
 Closed shell SCF:
 Using DIIS extrapolation, IDIIS=  1040.
 NGot=  6710886400 LenX=  6710576304 LenY=  6710574182
 Requested convergence on RMS density matrix=1.00D-08 within 128 cycles.
 Requested convergence on MAX density matrix=1.00D-06.
 Requested convergence on             energy=1.00D-06.
 No special actions if energy rises.
 Integral accuracy reduced to 1.0D-05 until final iterations.

 Cycle   1  Pass 0  IDiag  1:
 E= -76.3461679135458    
 DIIS: error= 7.06D-02 at cycle   1 NSaved=   1.
 NSaved= 1 IEnMin= 1 EnMin= -76.3461679135458     IErMin= 1 ErrMin= 7.06D-02
 ErrMax= 7.06D-02  0.00D+00 EMaxC= 1.00D-01 BMatC= 1.21D-01 BMatP= 1.21D-01
 IDIUse=3 WtCom= 2.94D-01 WtEn= 7.06D-01
 Coeff-Com:  0.100D+01
 Coeff-En:   0.100D+01
 Coeff:      0.100D+01
 Gap=     0.325 Goal=   None    Shift=    0.000
 GapD=    0.325 DampG=1.000 DampE=0.500 DampFc=0.5000 IDamp=-1.
 Damping current iteration by 5.00D-01
 RMSDP=7.87D-03 MaxDP=1.02D-01              OVMax= 1.69D-01

 Cycle   2  Pass 0  IDiag  1:
 E= -76.3778538376417     Delta-E=       -0.031685924096 Rises=F Damp=T
 DIIS: error= 1.16D-02 at cycle   2 NSaved=   2.
 NSaved= 2 IEnMin= 2 EnMin= -76.3778538376417     IErMin= 2 ErrMin= 1.16D-02
 ErrMax= 1.16D-02  0.00D+00 EMaxC= 1.00D-01 BMatC= 4.79D-03 BMatP= 1.21D-01
 IDIUse=3 WtCom= 8.84D-01 WtEn= 1.16D-01
 Coeff-Com:  0.806D-01 0.919D+00
 Coeff-En:   0.185D+00 0.815D+00
 Coeff:      0.927D-01 0.907D+00
 Gap=     0.458 Goal=   None    Shift=    0.000
 RMSDP=9.32D-04 MaxDP=1.38D-02 DE=-3.17D-02 OVMax= 1.01D-01

 Cycle   3  Pass 0  IDiag  1:
 E= -76.4218861756061     Delta-E=       -0.044032337964 Rises=F Damp=F
 DIIS: error= 2.18D-03 at cycle   3 NSaved=   3.
 NSaved= 3 IEnMin= 3 EnMin= -76.4218861756061     IErMin= 3 ErrMin= 2.18D-03
 ErrMax= 2.18D-03  0.00D+00 EMaxC= 1.00D-01 BMatC= 9.09D-05 BMatP= 4.79D-03
 IDIUse=3 WtCom= 9.78D-01 WtEn= 2.18D-02
 Coeff-Com: -0.199D-01 0.397D-01 0.980D+00
 Coeff-En:   0.000D+00 0.000D+00 0.100D+01
 Coeff:     -0.195D-01 0.388D-01 0.981D+00
 Gap=     0.463 Goal=   None    Shift=    0.000
 RMSDP=1.14D-04 MaxDP=1.01D-03 DE=-4.40D-02 OVMax= 3.29D-03

 Cycle   4  Pass 0  IDiag  1:
 E= -76.4219634463342     Delta-E=       -0.000077270728 Rises=F Damp=F
 DIIS: error= 4.09D-04 at cycle   4 NSaved=   4.
 NSaved= 4 IEnMin= 4 EnMin= -76.4219634463342     IErMin= 4 ErrMin= 4.09D-04
 ErrMax= 4.09D-04  0.00D+00 EMaxC= 1.00D-01 BMatC= 3.27D-06 BMatP= 9.09D-05
 IDIUse=3 WtCom= 9.96D-01 WtEn= 4.09D-03
 Coeff-Com: -0.190D-02-0.213D-02 0.163D+00 0.841D+00
 Coeff-En:   0.000D+00 0.000D+00 0.000D+00 0.100D+01
 Coeff:     -0.189D-02-0.212D-02 0.163D+00 0.841D+00
 Gap=     0.463 Goal=   None    Shift=    0.000
 RMSDP=2.19D-05 MaxDP=3.51D-04 DE=-7.73D-05 OVMax= 5.27D-04

 Cycle   5  Pass 0  IDiag  1:
 E= -76.4219654542522     Delta-E=       -0.000002007918 Rises=F Damp=F
 DIIS: error= 8.82D-05 at cycle   5 NSaved=   5.
 NSaved= 5 IEnMin= 5 EnMin= -76.4219654542522     IErMin= 5 ErrMin= 8.82D-05
 ErrMax= 8.82D-05  0.00D+00 EMaxC= 1.00D-01 BMatC= 8.17D-08 BMatP= 3.27D-06
 IDIUse=1 WtCom= 1.00D+00 WtEn= 0.00D+00
 Coeff-Com:  0.116D-02-0.177D-02-0.361D-01-0.669D-01 0.110D+01
 Coeff:      0.116D-02-0.177D-02-0.361D-01-0.669D-01 0.110D+01
 Gap=     0.463 Goal=   None    Shift=    0.000
 RMSDP=8.89D-06 MaxDP=1.03D-04 DE=-2.01D-06 OVMax= 1.99D-04

 Initial convergence to 1.0D-05 achieved.  Increase integral accuracy.
 Cycle   6  Pass 1  IDiag  1:
 E= -76.4219530010288     Delta-E=        0.000012453223 Rises=F Damp=F
 DIIS: error= 1.89D-05 at cycle   1 NSaved=   1.
 NSaved= 1 IEnMin= 1 EnMin= -76.4219530010288     IErMin= 1 ErrMin= 1.89D-05
 ErrMax= 1.89D-05  0.00D+00 EMaxC= 1.00D-01 BMatC= 1.99D-08 BMatP= 1.99D-08
 IDIUse=1 WtCom= 1.00D+00 WtEn= 0.00D+00
 Coeff-Com:  0.100D+01
 Coeff:      0.100D+01
 Gap=     0.463 Goal=   None    Shift=    0.000
 RMSDP=8.89D-06 MaxDP=1.03D-04 DE= 1.25D-05 OVMax= 6.22D-05

 Cycle   7  Pass 1  IDiag  1:
 E= -76.4219530193103     Delta-E=       -0.000000018281 Rises=F Damp=F
 DIIS: error= 1.30D-05 at cycle   2 NSaved=   2.
 NSaved= 2 IEnMin= 2 EnMin= -76.4219530193103     IErMin= 2 ErrMin= 1.30D-05
 ErrMax= 1.30D-05  0.00D+00 EMaxC= 1.00D-01 BMatC= 2.48D-09 BMatP= 1.99D-08
 IDIUse=1 WtCom= 1.00D+00 WtEn= 0.00D+00
 Coeff-Com:  0.100D+00 0.900D+00
 Coeff:      0.100D+00 0.900D+00
 Gap=     0.463 Goal=   None    Shift=    0.000
 RMSDP=1.06D-06 MaxDP=1.70D-05 DE=-1.83D-08 OVMax= 2.81D-05

 Cycle   8  Pass 1  IDiag  1:
 E= -76.4219530200228     Delta-E=       -0.000000000713 Rises=F Damp=F
 DIIS: error= 8.86D-06 at cycle   3 NSaved=   3.
 NSaved= 3 IEnMin= 3 EnMin= -76.4219530200228     IErMin= 3 ErrMin= 8.86D-06
 ErrMax= 8.86D-06  0.00D+00 EMaxC= 1.00D-01 BMatC= 2.08D-09 BMatP= 2.48D-09
 IDIUse=1 WtCom= 1.00D+00 WtEn= 0.00D+00
 Coeff-Com: -0.531D-01 0.493D+00 0.561D+00
 Coeff:     -0.531D-01 0.493D+00 0.561D+00
 Gap=     0.463 Goal=   None    Shift=    0.000
 RMSDP=5.21D-07 MaxDP=6.72D-06 DE=-7.13D-10 OVMax= 1.27D-05

 Cycle   9  Pass 1  IDiag  1:
 E= -76.4219530214079     Delta-E=       -0.000000001385 Rises=F Damp=F
 DIIS: error= 6.34D-07 at cycle   4 NSaved=   4.
 NSaved= 4 IEnMin= 4 EnMin= -76.4219530214079     IErMin= 4 ErrMin= 6.34D-07
 ErrMax= 6.34D-07  0.00D+00 EMaxC= 1.00D-01 BMatC= 7.04D-12 BMatP= 2.08D-09
 IDIUse=1 WtCom= 1.00D+00 WtEn= 0.00D+00
 Coeff-Com: -0.526D-04-0.578D-01-0.489D-01 0.111D+01
 Coeff:     -0.526D-04-0.578D-01-0.489D-01 0.111D+01
 Gap=     0.463 Goal=   None    Shift=    0.000
 RMSDP=1.30D-07 MaxDP=9.49D-07 DE=-1.39D-09 OVMax= 2.43D-06

 Cycle  10  Pass 1  IDiag  1:
 E= -76.4219530214243     Delta-E=       -0.000000000016 Rises=F Damp=F
 DIIS: error= 1.20D-07 at cycle   5 NSaved=   5.
 NSaved= 5 IEnMin= 5 EnMin= -76.4219530214243     IErMin= 5 ErrMin= 1.20D-07
 ErrMax= 1.20D-07  0.00D+00 EMaxC= 1.00D-01 BMatC= 4.63D-13 BMatP= 7.04D-12
 IDIUse=1 WtCom= 1.00D+00 WtEn= 0.00D+00
 Coeff-Com:  0.323D-02-0.371D-01-0.366D-01 0.135D+00 0.936D+00
 Coeff:      0.323D-02-0.371D-01-0.366D-01 0.135D+00 0.936D+00
 Gap=     0.463 Goal=   None    Shift=    0.000
 RMSDP=3.42D-08 MaxDP=2.21D-07 DE=-1.64D-11 OVMax= 5.84D-07

 Cycle  11  Pass 1  IDiag  1:
 E= -76.4219530214252     Delta-E=       -0.000000000001 Rises=F Damp=F
 DIIS: error= 2.37D-08 at cycle   6 NSaved=   6.
 NSaved= 6 IEnMin= 6 EnMin= -76.4219530214252     IErMin= 6 ErrMin= 2.37D-08
 ErrMax= 2.37D-08  0.00D+00 EMaxC= 1.00D-01 BMatC= 1.16D-14 BMatP= 4.63D-13
 IDIUse=1 WtCom= 1.00D+00 WtEn= 0.00D+00
 Coeff-Com:  0.117D-03-0.351D-04 0.112D-02-0.283D-01-0.110D-01 0.104D+01
 Coeff:      0.117D-03-0.351D-04 0.112D-02-0.283D-01-0.110D-01 0.104D+01
 Gap=     0.463 Goal=   None    Shift=    0.000
 RMSDP=6.46D-09 MaxDP=5.16D-08 DE=-8.38D-13 OVMax= 1.27D-07

 SCF Done:  E(RM062X) =  -76.4219530214     A.U. after   11 cycles
            NFock= 11  Conv=0.65D-08     -V/T= 2.0029
 KE= 7.620372399209D+01 PE=-1.991103199168D+02 EE= 3.735762619777D+01
 Leave Link  502 at Sat Dec 17 23:17:04 2022, MaxMem=  6710886400 cpu:               8.7 elap:               0.4
 (Enter /data0/home/software/g16/l601.exe)
 Copying SCF densities to generalized density rwf, IOpCl= 0 IROHF=0.

 **********************************************************************

            Population analysis using the SCF density.

 **********************************************************************

 Alpha  occ. eigenvalues --  -19.62522  -1.13403  -0.61038  -0.47371  -0.39985
 Alpha virt. eigenvalues --    0.06345   0.13361   0.17375   0.17948   0.18956
 Alpha virt. eigenvalues --    0.23191   0.51559   0.53397   0.97780   1.00154
 Alpha virt. eigenvalues --    1.06057   1.19138   1.19808   1.32729   1.33729
 Alpha virt. eigenvalues --    1.69322   1.74127   1.76055   2.08138   2.09192
 Alpha virt. eigenvalues --    2.34868   2.43421   2.54244   2.89113   3.01233
 Alpha virt. eigenvalues --    5.05720   5.47676   5.94168   6.78161   6.80369
 Alpha virt. eigenvalues --    6.86863   6.91559   7.09448  49.96157
          Condensed to atoms (all electrons):
              25         26         27
    25  O    7.913040   0.321820   0.323788
    26  H    0.321820   0.422790  -0.024826
    27  H    0.323788  -0.024826   0.422606
 Mulliken charges:
               1
     1  C    0.000000
     2  C    0.000000
     3  C    0.000000
     4  C    0.000000
     5  C    0.000000
     6  C    0.000000
     7  H    0.000000
     8  H    0.000000
     9  H    0.000000
    10  H    0.000000
    11  H    0.000000
    12  C    0.000000
    13  H    0.000000
    14  N    0.000000
    15  N    0.000000
    16  O    0.000000
    17  H    0.000000
    18  H    0.000000
    19  O    0.000000
    20  H    0.000000
    21  H    0.000000
    22  O    0.000000
    23  H    0.000000
    24  H    0.000000
    25  O   -0.558648
    26  H    0.280216
    27  H    0.278432
 Sum of Mulliken charges =   0.00000
 Mulliken charges with hydrogens summed into heavy atoms:
               1
     1  C    0.000000
     2  C    0.000000
     3  C    0.000000
     4  C    0.000000
     5  C    0.000000
     6  C    0.000000
    12  C    0.000000
    14  N    0.000000
    15  N    0.000000
    16  O    0.000000
    19  O    0.000000
    22  O    0.000000
    25  O    0.000000
         Mulliken charges condensed to fragments:
      1      0.000000
      2      0.000000
      3      0.000000
      4      0.000000
      5      0.000000
 Electronic spatial extent (au):  <R**2>=          11230.1277
 Charge=              0.0000 electrons
 Dipole moment (field-independent basis, Debye):
    X=             -0.9005    Y=              0.3190    Z=              1.8702  Tot=              2.1001
 Quadrupole moment (field-independent basis, Debye-Ang):
   XX=            -24.1561   YY=              0.2979   ZZ=             25.0012
   XY=             -5.8157   XZ=             12.6323   YZ=             24.8456
 Traceless Quadrupole moment (field-independent basis, Debye-Ang):
   XX=            -24.5371   YY=             -0.0831   ZZ=             24.6202
   XY=             -5.8157   XZ=             12.6323   YZ=             24.8456
 Octapole moment (field-independent basis, Debye-Ang**2):
  XXX=           -465.7096  YYY=           -116.0909  ZZZ=            236.1172  XYY=            -89.2592
  XXY=           -217.6276  XXZ=             16.0132  XZZ=            208.0498  YZZ=            321.3935
  YYZ=            265.7286  XYZ=            190.6383
 Hexadecapole moment (field-independent basis, Debye-Ang**3):
 XXXX=          -7757.2665 YYYY=          -3643.0051 ZZZZ=           1775.4445 XXXY=          -4592.1418
 XXXZ=          -1530.5578 YYYX=          -2139.3369 YYYZ=           2156.2908 ZZZX=           2056.3464
 ZZZY=           3051.7899 XXYY=          -2603.2840 XXZZ=           1256.7965 YYZZ=           3599.1577
 XXYZ=            768.9906 YYXZ=           2095.6352 ZZXY=           2837.8741
 N-N= 9.127016705550D+00 E-N=-1.991103203447D+02  KE= 7.620372399209D+01
 No NMR shielding tensors so no spin-rotation constants.
 Leave Link  601 at Sat Dec 17 23:17:04 2022, MaxMem=  6710886400 cpu:               1.8 elap:               0.1
 (Enter /data0/home/software/g16/l122.exe)
 CPIOFr:  IOpCl= 0 IRwI=-1 IRwCP=  731 ICalc= 10 LCPTot=      292286 Len1MO=      765957 IndFrg=     8717813
 Restoring MOs from calculation   1 to rwf.
 CPIOFr:  IOpCl= 0 IRwI=-2 IRwCP=  731 ICalc=  0 LCPTot=      292286 Len1MO=      765957 IndFrg=     1058243
 Counterpoise corrected energy =    -685.544465883362
                   BSSE energy =       0.005832912372
              sum of fragments =    -685.503964930224
           complexation energy =     -29.07 kcal/mole (raw)
           complexation energy =     -25.41 kcal/mole (corrected)
 Leave Link  122 at Sat Dec 17 23:17:04 2022, MaxMem=  6710886400 cpu:               0.3 elap:               0.0
 (Enter /data0/home/software/g16/l9999.exe)
 1\1\GINC-LOCALHOST\SP\RM062X\6-311+G(2d,p)\C7H14N2O4\WUHANYU\17-Dec-20
 22\0\\#p M062X/6-311+G(2d,p) nosymm em=GD3 counterpoise=5\\Title Card 
 Required\\0,1\C,0,11.285254,10.97493,11.628365\C,0,11.984534,9.743352,
 11.381329\C,0,13.249335,9.760157,10.784855\C,0,13.780888,10.991328,10.
 444432\C,0,13.088807,12.196788,10.693046\C,0,11.83951,12.211438,11.288
 747\H,0,13.785822,8.829164,10.612939\H,0,14.76317,11.044466,9.974841\H
 ,0,13.56201,13.137239,10.408795\H,0,11.309153,13.137645,11.494244\H,0,
 9.310482,11.258439,12.432248\C,0,10.052203,9.221226,12.289193\H,0,9.20
 6051,8.664774,12.677044\N,0,10.07142,10.616349,12.218796\N,0,11.185129
 ,8.682229,11.814394\O,0,11.87036,9.047566,7.753749\H,0,12.405774,8.959
 601,8.544571\H,0,11.463189,9.931519,7.831676\O,0,8.07137,10.666192,9.1
 878\H,0,8.267038,9.759843,9.515267\H,0,7.470843,10.532236,8.455076\O,0
 ,8.022953,12.170282,11.570414\H,0,7.998257,11.723634,10.70748\H,0,7.11
 4868,12.339942,11.802415\O,0,10.625871,11.48567,8.272132\H,0,9.730851,
 11.23548,8.550065\H,0,11.01498,11.912294,9.037093\\Version=ES64L-G16Re
 vA.03\HF=-76.421953\RMSD=6.458e-09\Dipole=-2.6425788,1.038927,1.075845
 7\Quadrupole=-80.5324491,42.8790039,37.6534451,-27.7499375,-27.7759634
 ,40.6107041\PG=C01 [X(C7H14N2O4)]\\@


 KNOWLEDGE IS CHIMERA - FOR BEYOND IT LIES OTHER KNOWLEDGE,
 AND THE INCOMPLETENESS OF WHAT IS KNOWN RENDERS THE KNOWING FALSE.
     -- THE THOMAS COVENANT CHRONICLES
 Job cpu time:       0 days  2 hours 15 minutes 25.2 seconds.
 Elapsed time:       0 days  0 hours  5 minutes 41.4 seconds.
 File lengths (MBytes):  RWF=    189 Int=      0 D2E=      0 Chk=     78 Scr=      1
 Normal termination of Gaussian 16 at Sat Dec 17 23:17:05 2022.
