 Entering Gaussian System, Link 0=g16
 Initial command:
 /data0/home/software/g16/l1.exe "/data0/home/software/g16/scratch/Gau-324084.inp" -scrdir="/data0/home/software/g16/scratch/"
 Default is to use a total of  22 processors:
                               22 via shared-memory
                                1 via Linda
 Entering Link 1 = /data0/home/software/g16/l1.exe PID=    324085.
  
 Copyright (c) 1988,1990,1992,1993,1995,1998,2003,2009,2016,
            Gaussian, Inc.  All Rights Reserved.
  
 This is part of the Gaussian(R) 16 program.  It is based on
 the Gaussian(R) 09 system (copyright 2009, Gaussian, Inc.),
 the Gaussian(R) 03 system (copyright 2003, Gaussian, Inc.),
 the Gaussian(R) 98 system (copyright 1998, Gaussian, Inc.),
 the Gaussian(R) 94 system (copyright 1995, Gaussian, Inc.),
 the Gaussian 92(TM) system (copyright 1992, Gaussian, Inc.),
 the Gaussian 90(TM) system (copyright 1990, Gaussian, Inc.),
 the Gaussian 88(TM) system (copyright 1988, Gaussian, Inc.),
 the Gaussian 86(TM) system (copyright 1986, Carnegie Mellon
 University), and the Gaussian 82(TM) system (copyright 1983,
 Carnegie Mellon University). Gaussian is a federally registered
 trademark of Gaussian, Inc.
  
 This software contains proprietary and confidential information,
 including trade secrets, belonging to Gaussian, Inc.
  
 This software is provided under written license and may be
 used, copied, transmitted, or stored only in accord with that
 written license.
  
 The following legend is applicable only to US Government
 contracts under FAR:
  
                    RESTRICTED RIGHTS LEGEND
  
 Use, reproduction and disclosure by the US Government is
 subject to restrictions as set forth in subparagraphs (a)
 and (c) of the Commercial Computer Software - Restricted
 Rights clause in FAR 52.227-19.
  
 Gaussian, Inc.
 340 Quinnipiac St., Bldg. 40, Wallingford CT 06492
  
  
 ---------------------------------------------------------------
 Warning -- This program may not be used in any manner that
 competes with the business of Gaussian, Inc. or will provide
 assistance to any competitor of Gaussian, Inc.  The licensee
 of this program is prohibited from giving any competitor of
 Gaussian, Inc. access to this program.  By using this program,
 the user acknowledges that Gaussian, Inc. is engaged in the
 business of creating and licensing software in the field of
 computational chemistry and represents and warrants to the
 licensee that it is not a competitor of Gaussian, Inc. and that
 it will not use this program in any manner prohibited above.
 ---------------------------------------------------------------
  

 Cite this work as:
 Gaussian 16, Revision A.03,
 M. J. Frisch, G. W. Trucks, H. B. Schlegel, G. E. Scuseria, 
 M. A. Robb, J. R. Cheeseman, G. Scalmani, V. Barone, 
 G. A. Petersson, H. Nakatsuji, X. Li, M. Caricato, A. V. Marenich, 
 J. Bloino, B. G. Janesko, R. Gomperts, B. Mennucci, H. P. Hratchian, 
 J. V. Ortiz, A. F. Izmaylov, J. L. Sonnenberg, D. Williams-Young, 
 F. Ding, F. Lipparini, F. Egidi, J. Goings, B. Peng, A. Petrone, 
 T. Henderson, D. Ranasinghe, V. G. Zakrzewski, J. Gao, N. Rega, 
 G. Zheng, W. Liang, M. Hada, M. Ehara, K. Toyota, R. Fukuda, 
 J. Hasegawa, M. Ishida, T. Nakajima, Y. Honda, O. Kitao, H. Nakai, 
 T. Vreven, K. Throssell, J. A. Montgomery, Jr., J. E. Peralta, 
 F. Ogliaro, M. J. Bearpark, J. J. Heyd, E. N. Brothers, K. N. Kudin, 
 V. N. Staroverov, T. A. Keith, R. Kobayashi, J. Normand, 
 K. Raghavachari, A. P. Rendell, J. C. Burant, S. S. Iyengar, 
 J. Tomasi, M. Cossi, J. M. Millam, M. Klene, C. Adamo, R. Cammi, 
 J. W. Ochterski, R. L. Martin, K. Morokuma, O. Farkas, 
 J. B. Foresman, and D. J. Fox, Gaussian, Inc., Wallingford CT, 2016.
 
 ******************************************
 Gaussian 16:  ES64L-G16RevA.03 25-Dec-2016
                19-Feb-2023 
 ******************************************
 %nproc=24
 Will use up to   24 processors via shared memory.
 %mem=50GB
 ---------------------------------------------------
 #p M062X/6-311+G(2d,p) nosymm em=GD3 counterpoise=2
 ---------------------------------------------------
 1/38=1,62=2,172=1/1;
 2/12=2,15=1,17=6,18=5,40=1/2;
 1/38=1,53=2,62=2,63=1/22;
 3/5=4,6=6,7=112,11=2,25=1,30=1,74=-55,124=31/1,2,3;
 4//1;
 5/5=2,38=5/2;
 6/7=2,8=2,9=2,10=2,28=1/1;
 1/53=2,62=2,63=1/22;
 3/5=7,6=11,7=112,11=2,25=1,30=1,74=-55,82=7,124=31/1,2,3;
 4//1;
 5/5=2,38=5/2;
 6/7=2,8=2,9=2,10=2,28=1/1;
 1/53=2,62=2,63=1/22(-4);
 99/5=1,9=1/99;
 Leave Link    1 at Sun Feb 19 22:06:41 2023, MaxMem=  6710886400 cpu:               0.7 elap:               0.0
 (Enter /data0/home/software/g16/l101.exe)
 -------------------
 Title Card Required
 -------------------
 Symbolic Z-matrix:
 Charge =  0 Multiplicity = 1 in supermolecule
 Charge =  0 Multiplicity = 1 in fragment      1.
 Charge =  0 Multiplicity = 1 in fragment      2.
 C                     10.18345   12.07911   9.76091    
 C                     10.94969   11.90008   8.61249    
 C                     10.57792   10.93985   7.67137    
 C                     9.43153   10.17519   7.89357    
 C                     8.66401   10.40972   9.04572    
 H                     11.21035   10.75902   6.79627    
 H                     10.49151   12.7695   10.55396    
 H                     11.86517   12.48455   8.47464    
 H                     7.77211   9.78882   9.28046    
 C                     9.04071   9.08074   6.97178    
 H                     7.96038   8.88187   6.96599    
 H                     9.354     9.25997   5.93528    
 H                     9.52745   8.13247   7.29228    
 N                     9.03615   11.3607   9.94051    
 C                     8.18195   11.64365   11.11985    
 H                     7.91458   12.72366   11.09777    
 H                     7.22057   11.07948   11.01258    
 C                     8.86191   11.28414   12.45605    
 H                     9.89787   10.90486   12.29062    
 H                     9.0036    12.20688   13.05358    
 C                     8.06126   10.27347   13.26402    
 H                     7.00921   10.58126   13.37471    
 H                     8.45991   10.21357   14.29489    
 S                     8.11115   8.58845   12.5749    
 O                     8.13227   8.81333   11.08082    
 O                     6.90851   7.94065   13.07265    
 O                     9.41161   8.02913   13.03185    
 P                     11.55887   8.70957   10.47477    
 O                     11.54232   10.18332   10.68773    
 O                     12.77813   8.22175   9.56362    
 H                     12.92472   8.96529   8.85133    
 O                     11.75425   7.83502   11.75755    
 H                     10.79599   7.88434   12.3111    
 O                     10.30035   8.22555   9.64994    
 H                     9.40842   8.3773    10.24516    
 
 ITRead=  0  0  0  0  0  0  0  0  0  0  0  0  0  0  0  0  0  0  0  0
 ITRead=  0  0  0  0  0  0  0  0  0  0  0  0  0  0  0
 MicOpt= -1 -1 -1 -1 -1 -1 -1 -1 -1 -1 -1 -1 -1 -1 -1 -1 -1 -1 -1 -1
 MicOpt= -1 -1 -1 -1 -1 -1 -1 -1 -1 -1 -1 -1 -1 -1 -1
 NAtoms=     35 NQM=       35 NQMF=       0 NMMI=      0 NMMIF=      0
                NMic=       0 NMicF=      0.
                    Isotopes and Nuclear Properties:
 (Nuclear quadrupole moments (NQMom) in fm**2, nuclear magnetic moments (NMagM)
  in nuclear magnetons)

  Atom         1           2           3           4           5           6           7           8           9          10
 IAtWgt=          12          12          12          12          12           1           1           1           1          12
 AtmWgt=  12.0000000  12.0000000  12.0000000  12.0000000  12.0000000   1.0078250   1.0078250   1.0078250   1.0078250  12.0000000
 NucSpn=           0           0           0           0           0           1           1           1           1           0
 AtZEff=  -0.0000000  -0.0000000  -0.0000000  -0.0000000  -0.0000000  -0.0000000  -0.0000000  -0.0000000  -0.0000000  -0.0000000
 NQMom=    0.0000000   0.0000000   0.0000000   0.0000000   0.0000000   0.0000000   0.0000000   0.0000000   0.0000000   0.0000000
 NMagM=    0.0000000   0.0000000   0.0000000   0.0000000   0.0000000   2.7928460   2.7928460   2.7928460   2.7928460   0.0000000
 AtZNuc=   6.0000000   6.0000000   6.0000000   6.0000000   6.0000000   1.0000000   1.0000000   1.0000000   1.0000000   6.0000000

  Atom        11          12          13          14          15          16          17          18          19          20
 IAtWgt=           1           1           1          14          12           1           1          12           1           1
 AtmWgt=   1.0078250   1.0078250   1.0078250  14.0030740  12.0000000   1.0078250   1.0078250  12.0000000   1.0078250   1.0078250
 NucSpn=           1           1           1           2           0           1           1           0           1           1
 AtZEff=  -0.0000000  -0.0000000  -0.0000000  -0.0000000  -0.0000000  -0.0000000  -0.0000000  -0.0000000  -0.0000000  -0.0000000
 NQMom=    0.0000000   0.0000000   0.0000000   2.0440000   0.0000000   0.0000000   0.0000000   0.0000000   0.0000000   0.0000000
 NMagM=    2.7928460   2.7928460   2.7928460   0.4037610   0.0000000   2.7928460   2.7928460   0.0000000   2.7928460   2.7928460
 AtZNuc=   1.0000000   1.0000000   1.0000000   7.0000000   6.0000000   1.0000000   1.0000000   6.0000000   1.0000000   1.0000000

  Atom        21          22          23          24          25          26          27          28          29          30
 IAtWgt=          12           1           1          32          16          16          16          31          16          16
 AtmWgt=  12.0000000   1.0078250   1.0078250  31.9720718  15.9949146  15.9949146  15.9949146  30.9737634  15.9949146  15.9949146
 NucSpn=           0           1           1           0           0           0           0           1           0           0
 AtZEff=  -0.0000000  -0.0000000  -0.0000000  -0.0000000  -0.0000000  -0.0000000  -0.0000000  -0.0000000  -0.0000000  -0.0000000
 NQMom=    0.0000000   0.0000000   0.0000000   0.0000000   0.0000000   0.0000000   0.0000000   0.0000000   0.0000000   0.0000000
 NMagM=    0.0000000   2.7928460   2.7928460   0.0000000   0.0000000   0.0000000   0.0000000   1.1316000   0.0000000   0.0000000
 AtZNuc=   6.0000000   1.0000000   1.0000000  16.0000000   8.0000000   8.0000000   8.0000000  15.0000000   8.0000000   8.0000000

  Atom        31          32          33          34          35
 IAtWgt=           1          16           1          16           1
 AtmWgt=   1.0078250  15.9949146   1.0078250  15.9949146   1.0078250
 NucSpn=           1           0           1           0           1
 AtZEff=  -0.0000000  -0.0000000  -0.0000000  -0.0000000  -0.0000000
 NQMom=    0.0000000   0.0000000   0.0000000   0.0000000   0.0000000
 NMagM=    2.7928460   0.0000000   2.7928460   0.0000000   2.7928460
 AtZNuc=   1.0000000   8.0000000   1.0000000   8.0000000   1.0000000
 Leave Link  101 at Sun Feb 19 22:06:41 2023, MaxMem=  6710886400 cpu:               2.2 elap:               0.1
 (Enter /data0/home/software/g16/l202.exe)
                          Input orientation:                          
 ---------------------------------------------------------------------
 Center     Atomic      Atomic             Coordinates (Angstroms)
 Number     Number       Type             X           Y           Z
 ---------------------------------------------------------------------
      1          6           0       10.183452   12.079111    9.760909
      2          6           0       10.949692   11.900079    8.612488
      3          6           0       10.577915   10.939851    7.671365
      4          6           0        9.431530   10.175186    7.893573
      5          6           0        8.664008   10.409720    9.045721
      6          1           0       11.210348   10.759018    6.796268
      7          1           0       10.491507   12.769503   10.553958
      8          1           0       11.865170   12.484553    8.474641
      9          1           0        7.772113    9.788819    9.280464
     10          6           0        9.040711    9.080736    6.971782
     11          1           0        7.960383    8.881871    6.965992
     12          1           0        9.354000    9.259968    5.935282
     13          1           0        9.527454    8.132466    7.292276
     14          7           0        9.036146   11.360701    9.940514
     15          6           0        8.181946   11.643653   11.119849
     16          1           0        7.914575   12.723656   11.097765
     17          1           0        7.220566   11.079476   11.012576
     18          6           0        8.861905   11.284143   12.456052
     19          1           0        9.897868   10.904862   12.290622
     20          1           0        9.003604   12.206875   13.053582
     21          6           0        8.061262   10.273473   13.264020
     22          1           0        7.009207   10.581255   13.374706
     23          1           0        8.459906   10.213572   14.294885
     24         16           0        8.111146    8.588455   12.574903
     25          8           0        8.132268    8.813334   11.080816
     26          8           0        6.908506    7.940652   13.072650
     27          8           0        9.411610    8.029127   13.031851
     28         15           0       11.558873    8.709567   10.474772
     29          8           0       11.542325   10.183315   10.687734
     30          8           0       12.778130    8.221746    9.563623
     31          1           0       12.924720    8.965293    8.851334
     32          8           0       11.754249    7.835016   11.757545
     33          1           0       10.795986    7.884341   12.311098
     34          8           0       10.300349    8.225548    9.649944
     35          1           0        9.408422    8.377296   10.245155
 ---------------------------------------------------------------------
                    Distance matrix (angstroms):
                    1          2          3          4          5
     1  C    0.000000
     2  C    1.392138   0.000000
     3  C    2.412407   1.394980   0.000000
     4  C    2.770787   2.407677   1.395811   0.000000
     5  C    2.367925   2.762827   2.415147   1.404116   0.000000
     6  H    3.403859   2.160698   1.094745   2.170053   3.415537
     7  H    1.095658   2.176037   3.415324   3.864153   3.344115
     8  H    2.155700   1.094857   2.165267   3.404911   3.857266
     9  H    3.360182   3.873063   3.433162   2.196909   1.111800
    10  C    4.251510   3.779526   2.511717   1.483327   2.491852
    11  H    4.793322   4.555930   3.403573   2.167336   2.674824
    12  H    4.824000   4.084587   2.708128   2.162993   3.387159
    13  H    4.701116   4.237998   3.021355   2.131540   3.000999
    14  N    1.365534   2.390866   2.775465   2.398279   1.357758
    15  C    2.458123   3.743398   4.257704   3.758552   2.461094
    16  H    2.711167   4.008343   4.692074   4.366085   3.182269
    17  H    3.368180   4.510010   4.738668   3.928649   2.529944
    18  C    3.105198   4.417150   5.094748   4.729743   3.526207
    19  H    2.803545   3.952905   4.669178   4.481511   3.506702
    20  H    3.500009   4.858467   5.749093   5.562066   4.405456
    21  C    4.476137   5.711885   6.168905   5.543374   4.263322
    22  H    5.037751   6.320240   6.737386   6.006277   4.637661
    23  H    5.196901   6.429073   6.991742   6.474745   5.256791
    24  S    4.939402   5.892786   5.971490   5.116247   4.009712
    25  O    4.076127   4.853712   4.704000   3.701519   2.640607
    26  O    6.230549   7.204255   7.185655   6.179129   5.039270
    27  O    5.262810   6.072951   6.210265   5.568471   4.702698
    28  P    3.708802   3.744138   3.714234   3.651878   3.648692
    29  O    2.509897   2.757742   3.255905   3.501836   3.321472
    30  O    4.653014   4.216394   3.976139   4.219565   4.688438
    31  H    4.247086   3.545526   3.286138   3.818838   4.503090
    32  O    4.946342   5.202253   5.265038   5.079537   4.851049
    33  H    4.947197   5.461638   5.559750   5.159868   4.646026
    34  O    3.856932   3.873001   3.370350   2.764195   2.795229
    35  H    3.812952   4.177453   3.815599   2.960216   2.474579
                    6          7          8          9         10
     6  H    0.000000
     7  H    4.321923   0.000000
     8  H    2.494634   2.508327   0.000000
     9  H    4.351319   4.231001   4.966835   0.000000
    10  C    2.748592   5.342639   4.671416   2.727771   0.000000
    11  H    3.756961   5.864620   5.522925   2.492946   1.098494
    12  H    2.536627   5.911254   4.811680   3.737953   1.097546
    13  H    3.158628   5.750659   5.079721   3.126918   1.113037
    14  N    3.869814   2.116391   3.378639   2.122324   3.743211
    15  C    5.352303   2.630940   4.611982   2.644184   4.951008
    16  H    5.764096   2.634086   4.748173   3.454873   5.618077
    17  H    5.813631   3.710199   5.476103   2.229397   4.861677
    18  C    6.150130   2.912020   5.129544   3.675323   5.913053
    19  H    5.650823   2.616351   4.574649   3.850381   5.687901
    20  H    6.791170   2.962858   5.406696   4.647578   6.838305
    21  C    7.210015   4.413694   6.503595   4.023334   6.478750
    22  H    7.807498   4.987130   7.156365   4.239434   6.883023
    23  H    8.005729   4.965352   7.115365   5.079163   7.432933
    24  S    6.907172   5.218381   6.788551   3.522662   5.701000
    25  O    5.622954   4.636255   5.848466   2.079074   4.216744
    26  O    8.114309   6.519165   8.145995   4.306067   6.562521
    27  O    7.040615   5.456858   6.829271   4.456161   6.161808
    28  P    4.225294   4.198645   4.283090   4.114694   4.330109
    29  O    3.947803   2.794724   3.209004   4.043579   4.613247
    30  O    4.068654   5.185702   4.493429   5.253199   4.628586
    31  H    3.221772   4.826123   3.694555   5.235619   4.316430
    32  O    5.784452   5.233765   5.692799   5.080422   5.640801
    33  H    6.232882   5.200486   6.084695   4.685679   5.746359
    34  O    3.923014   4.636950   4.687123   2.995381   3.080679
    35  H    4.562276   4.534304   5.102930   2.366545   3.368235
                   11         12         13         14         15
    11  H    0.000000
    12  H    1.774116   0.000000
    13  H    1.767422   1.772789   0.000000
    14  N    4.018662   4.533872   4.204289   0.000000
    15  C    4.993101   5.825410   5.365551   1.483425   0.000000
    16  H    5.642070   6.381247   6.177552   2.110639   1.112826
    17  H    4.663865   5.800092   5.277048   2.127142   1.119846
    18  C    6.060067   6.845428   6.086099   2.522727   1.541762
    19  H    6.016479   6.587246   5.727726   2.544280   2.204747
    20  H    7.014465   7.712148   7.075866   3.226184   2.175239
    21  C    6.450728   7.510577   6.511172   3.630173   2.547435
    22  H    6.698079   7.911314   7.023823   4.063212   2.754703
    23  H    7.465629   8.461189   7.382899   4.539659   3.493315
    24  S    5.618603   6.788239   5.488169   3.934587   3.384735
    25  O    4.118983   5.307413   4.094284   2.933660   2.831024
    26  O    6.267664   7.659181   6.348890   5.102339   4.375763
    27  O    6.295068   7.202748   5.741674   4.560342   4.269968
    28  P    5.028952   5.076552   3.819423   3.698391   4.519803
    29  O    5.326859   5.312922   4.449137   2.868015   3.689371
    30  O    5.513088   5.095825   3.966596   4.898727   5.937693
    31  H    5.310943   4.619549   3.829579   4.695242   5.900312
    32  O    6.200670   6.456813   4.998572   4.808341   5.260582
    33  H    6.132362   6.680023   5.182597   4.560897   4.731248
    34  O    3.620746   3.970430   2.482867   3.392908   4.281553
    35  H    3.619989   4.399668   2.965401   3.021937   3.597002
                   16         17         18         19         20
    16  H    0.000000
    17  H    1.786682   0.000000
    18  C    2.194214   2.195337   0.000000
    19  H    2.943530   2.971841   1.115545   0.000000
    20  H    2.297448   2.935295   1.108402   1.754153   0.000000
    21  C    3.273771   2.534839   1.521609   2.172390   2.161096
    22  H    3.254848   2.423335   2.184140   3.102309   2.592948
    23  H    4.101156   3.613766   2.165417   2.561774   2.410331
    24  S    4.395505   3.072326   2.800803   2.939206   3.757470
    25  O    3.916414   2.443616   2.920367   2.992568   4.020840
    26  O    5.271572   3.767426   3.921083   4.281868   4.752942
    27  O    5.293430   4.264126   3.350948   3.009272   4.197680
    28  P    5.457283   4.972586   4.222268   3.297813   5.040915
    29  O    4.447699   4.425633   3.394617   2.407098   4.017105
    30  O    6.802570   6.415029   5.751629   4.788689   6.504469
    31  H    6.653818   6.455859   5.905720   4.975185   6.598628
    32  O    6.251176   5.624569   4.555221   3.626882   5.325309
    33  H    5.761395   4.967764   3.914120   3.151283   4.737955
    34  O    5.293494   4.414378   4.392991   3.783371   5.396042
    35  H    4.674331   3.560537   3.692764   3.288173   4.766216
                   21         22         23         24         25
    21  C    0.000000
    22  H    1.101726   0.000000
    23  H    1.106882   1.756829   0.000000
    24  S    1.821169   2.413546   2.391856   0.000000
    25  O    2.627437   3.106242   3.521115   1.511063   0.000000
    26  O    2.609123   2.659730   3.011124   1.453872   2.495310
    27  O    2.629531   3.521711   2.696812   1.487567   2.461348
    28  P    4.739092   5.710717   5.143821   4.038817   3.481333
    29  O    4.331648   5.284632   4.744867   4.228235   3.695923
    30  O    6.336511   7.305622   6.708149   5.566240   4.922995
    31  H    6.695996   7.620074   7.150176   6.097333   5.287842
    32  O    4.674793   5.715983   4.790440   3.808929   3.812324
    33  H    3.754295   4.769099   3.849415   2.788142   3.077664
    34  O    4.719010   5.500438   5.377262   3.671471   2.663355
    35  H    3.811020   4.517495   4.546637   2.674928   1.586514
                   26         27         28         29         30
    26  O    0.000000
    27  O    2.504999   0.000000
    28  P    5.382018   3.407696   0.000000
    29  O    5.673591   3.830843   1.489147   0.000000
    30  O    6.844324   4.837268   1.598358   2.576547   0.000000
    31  H    7.420528   5.540313   2.136933   2.601338   1.040051
    32  O    5.022140   2.673853   1.564774   2.589192   2.451772
    33  H    3.961771   1.567464   2.152925   2.911634   3.404608
    34  O    4.827078   3.502247   1.580664   2.540150   2.479287
    35  H    3.799338   2.808364   2.188051   2.830393   3.441455
                   31         32         33         34         35
    31  H    0.000000
    32  O    3.330704   0.000000
    33  H    4.203562   1.107755   0.000000
    34  O    2.841184   2.590043   2.728336   0.000000
    35  H    3.827901   2.843290   2.537018   1.082976   0.000000
 Symmetry turned off by external request.
 Stoichiometry    C9H16NO7PS
 Framework group  C1[X(C9H16NO7PS)]
 Deg. of freedom    99
 Full point group                 C1      NOp   1
 Rotational constants (GHZ):           0.4508052           0.2931360           0.2409293
 Leave Link  202 at Sun Feb 19 22:06:41 2023, MaxMem=  6710886400 cpu:               0.1 elap:               0.0
 (Enter /data0/home/software/g16/l122.exe)
 Counterpoise: doing full-system calculation.
 Leave Link  122 at Sun Feb 19 22:06:41 2023, MaxMem=  6710886400 cpu:               0.0 elap:               0.0
 (Enter /data0/home/software/g16/l301.exe)
 Standard basis: 6-311+G(2d,p) (5D, 7F)
 Ernie: Thresh=  0.10000D-02 Tol=  0.10000D-05 Strict=F.
   625 basis functions,   954 primitive gaussians,   663 cartesian basis functions
    82 alpha electrons       82 beta electrons
       nuclear repulsion energy      2089.3859929287 Hartrees.
 IExCor= 4336 DFT=T Ex+Corr=M062X ExCW=0 ScaHFX=  0.540000
 ScaDFX=  1.000000  1.000000  1.000000  1.000000 ScalE2=  1.000000  1.000000
 IRadAn=      5 IRanWt=     -1 IRanGd=            0 ICorTp=0 IEmpDi=131
 NAtoms=   35 NActive=   35 NUniq=   35 SFac= 1.00D+00 NAtFMM=   60 NAOKFM=F Big=F
 Integral buffers will be    131072 words long.
 Raffenetti 2 integral format.
 Two-electron integral symmetry is turned off.
 R6Disp:  Grimme-D3 Dispersion energy=       -0.0028204571 Hartrees.
 Nuclear repulsion after empirical dispersion term =     2089.3831724716 Hartrees.
 Leave Link  301 at Sun Feb 19 22:06:41 2023, MaxMem=  6710886400 cpu:               1.1 elap:               0.1
 (Enter /data0/home/software/g16/l302.exe)
 NPDir=0 NMtPBC=     1 NCelOv=     1 NCel=       1 NClECP=     1 NCelD=      1
         NCelK=      1 NCelE2=     1 NClLst=     1 CellRange=     0.0.
 One-electron integrals computed using PRISM.
 NBasis=   625 RedAO= T EigKep=  1.97D-06  NBF=   625
 NBsUse=   625 1.00D-06 EigRej= -1.00D+00 NBFU=   625
 Precomputing XC quadrature grid using
 IXCGrd= 4 IRadAn=           5 IRanWt=          -1 IRanGd=           0 AccXCQ= 0.00D+00.
 Generated NRdTot=       0 NPtTot=           0 NUsed=           0 NTot=          32
 NSgBfM=   663   663   663   663   663 MxSgAt=    35 MxSgA2=    35.
 Leave Link  302 at Sun Feb 19 22:06:42 2023, MaxMem=  6710886400 cpu:              17.6 elap:               0.8
 (Enter /data0/home/software/g16/l303.exe)
 DipDrv:  MaxL=1.
 Leave Link  303 at Sun Feb 19 22:06:42 2023, MaxMem=  6710886400 cpu:               1.6 elap:               0.1
 (Enter /data0/home/software/g16/l401.exe)
 ExpMin= 3.48D-02 ExpMax= 9.34D+04 ExpMxC= 3.17D+03 IAcc=3 IRadAn=         5 AccDes= 0.00D+00
 Harris functional with IExCor= 1009 and IRadAn=       5 diagonalized for initial guess.
 HarFok:  IExCor= 1009 AccDes= 0.00D+00 IRadAn=         5 IDoV= 1 UseB2=F ITyADJ=14
 ICtDFT=  3500011 ScaDFX=  1.000000  1.000000  1.000000  1.000000
 FoFCou: FMM=F IPFlag=           0 FMFlag=      100000 FMFlg1=           0
         NFxFlg=           0 DoJE=T BraDBF=F KetDBF=T FulRan=T
         wScrn=  0.000000 ICntrl=       500 IOpCl=  0 I1Cent=   200000004 NGrid=           0
         NMat0=    1 NMatS0=      1 NMatT0=    0 NMatD0=    1 NMtDS0=    0 NMtDT0=    0
 Symmetry not used in FoFCou.
 Harris En= -1672.82598529950    
 JPrj=0 DoOrth=F DoCkMO=F.
 Leave Link  401 at Sun Feb 19 22:06:45 2023, MaxMem=  6710886400 cpu:              69.7 elap:               2.9
 (Enter /data0/home/software/g16/l502.exe)
 Two-electron integral symmetry not used.
 Closed shell SCF:
 Using DIIS extrapolation, IDIIS=  1040.
 NGot=  6710886400 LenX=  6709986778 LenY=  6709546546
 Requested convergence on RMS density matrix=1.00D-08 within 128 cycles.
 Requested convergence on MAX density matrix=1.00D-06.
 Requested convergence on             energy=1.00D-06.
 No special actions if energy rises.
 Fock matrices will be formed incrementally for  20 cycles.

 Cycle   1  Pass 1  IDiag  1:
 FoFJK:  IHMeth= 1 ICntrl=       0 DoSepK=F KAlg= 0 I1Cent=           0 FoldK=F
 IRaf= 860000000 NMat=       1 IRICut=       1 DoRegI=T DoRafI=F ISym2E= 0 IDoP0=0 IntGTp=1.
 FoFCou: FMM=F IPFlag=           0 FMFlag=      100000 FMFlg1=           0
         NFxFlg=           0 DoJE=F BraDBF=F KetDBF=F FulRan=T
         wScrn=  0.000000 ICntrl=         0 IOpCl=  0 I1Cent=           0 NGrid=           0
         NMat0=    1 NMatS0=      1 NMatT0=    0 NMatD0=    1 NMtDS0=    0 NMtDT0=    0
 Symmetry not used in FoFCou.
 E= -1672.71755571936    
 DIIS: error= 2.50D-02 at cycle   1 NSaved=   1.
 NSaved= 1 IEnMin= 1 EnMin= -1672.71755571936     IErMin= 1 ErrMin= 2.50D-02
 ErrMax= 2.50D-02  0.00D+00 EMaxC= 1.00D-01 BMatC= 1.24D+00 BMatP= 1.24D+00
 IDIUse=3 WtCom= 7.50D-01 WtEn= 2.50D-01
 Coeff-Com:  0.100D+01
 Coeff-En:   0.100D+01
 Coeff:      0.100D+01
 Gap=     0.232 Goal=   None    Shift=    0.000
 GapD=    0.232 DampG=1.000 DampE=0.500 DampFc=0.5000 IDamp=-1.
 Damping current iteration by 5.00D-01
 RMSDP=1.63D-02 MaxDP=3.41D+00              OVMax= 2.09D-01

 Cycle   2  Pass 1  IDiag  1:
 RMSU=  7.36D-03    CP:  1.16D+00
 E= -1673.04592071993     Delta-E=       -0.328365000573 Rises=F Damp=T
 DIIS: error= 4.33D-03 at cycle   2 NSaved=   2.
 NSaved= 2 IEnMin= 2 EnMin= -1673.04592071993     IErMin= 2 ErrMin= 4.33D-03
 ErrMax= 4.33D-03  0.00D+00 EMaxC= 1.00D-01 BMatC= 7.57D-02 BMatP= 1.24D+00
 IDIUse=3 WtCom= 9.57D-01 WtEn= 4.33D-02
 Coeff-Com:  0.341D-01 0.966D+00
 Coeff-En:   0.127D+00 0.873D+00
 Coeff:      0.381D-01 0.962D+00
 Gap=     0.290 Goal=   None    Shift=    0.000
 RMSDP=5.89D-03 MaxDP=1.06D+00 DE=-3.28D-01 OVMax= 1.27D-01

 Cycle   3  Pass 1  IDiag  1:
 RMSU=  2.86D-03    CP:  9.58D-01  6.53D-01
 E= -1673.44471476868     Delta-E=       -0.398794048751 Rises=F Damp=F
 DIIS: error= 4.69D-03 at cycle   3 NSaved=   3.
 NSaved= 3 IEnMin= 3 EnMin= -1673.44471476868     IErMin= 2 ErrMin= 4.33D-03
 ErrMax= 4.69D-03  0.00D+00 EMaxC= 1.00D-01 BMatC= 3.14D-02 BMatP= 7.57D-02
 IDIUse=3 WtCom= 9.53D-01 WtEn= 4.69D-02
 Coeff-Com: -0.484D-01 0.363D+00 0.685D+00
 Coeff-En:   0.000D+00 0.000D+00 0.100D+01
 Coeff:     -0.461D-01 0.346D+00 0.700D+00
 Gap=     0.255 Goal=   None    Shift=    0.000
 RMSDP=1.20D-03 MaxDP=1.42D-01 DE=-3.99D-01 OVMax= 3.43D-02

 Cycle   4  Pass 1  IDiag  1:
 RMSU=  1.04D-03    CP:  9.42D-01  7.05D-01  8.95D-01
 E= -1673.46274572670     Delta-E=       -0.018030958013 Rises=F Damp=F
 DIIS: error= 1.92D-03 at cycle   4 NSaved=   4.
 NSaved= 4 IEnMin= 4 EnMin= -1673.46274572670     IErMin= 4 ErrMin= 1.92D-03
 ErrMax= 1.92D-03  0.00D+00 EMaxC= 1.00D-01 BMatC= 8.41D-03 BMatP= 3.14D-02
 IDIUse=3 WtCom= 9.81D-01 WtEn= 1.92D-02
 Coeff-Com: -0.285D-01 0.860D-01 0.385D+00 0.557D+00
 Coeff-En:   0.000D+00 0.000D+00 0.207D+00 0.793D+00
 Coeff:     -0.279D-01 0.843D-01 0.382D+00 0.562D+00
 Gap=     0.254 Goal=   None    Shift=    0.000
 RMSDP=5.04D-04 MaxDP=7.32D-02 DE=-1.80D-02 OVMax= 1.38D-02

 Cycle   5  Pass 1  IDiag  1:
 RMSU=  2.74D-04    CP:  9.38D-01  6.92D-01  9.52D-01  6.49D-01
 E= -1673.46927671532     Delta-E=       -0.006530988627 Rises=F Damp=F
 DIIS: error= 3.60D-04 at cycle   5 NSaved=   5.
 NSaved= 5 IEnMin= 5 EnMin= -1673.46927671532     IErMin= 5 ErrMin= 3.60D-04
 ErrMax= 3.60D-04  0.00D+00 EMaxC= 1.00D-01 BMatC= 3.44D-04 BMatP= 8.41D-03
 IDIUse=3 WtCom= 9.96D-01 WtEn= 3.60D-03
 Coeff-Com: -0.948D-02 0.199D-01 0.136D+00 0.260D+00 0.593D+00
 Coeff-En:   0.000D+00 0.000D+00 0.000D+00 0.000D+00 0.100D+01
 Coeff:     -0.945D-02 0.199D-01 0.136D+00 0.259D+00 0.595D+00
 Gap=     0.254 Goal=   None    Shift=    0.000
 RMSDP=9.02D-05 MaxDP=8.58D-03 DE=-6.53D-03 OVMax= 3.23D-03

 Cycle   6  Pass 1  IDiag  1:
 RMSU=  5.70D-05    CP:  9.38D-01  6.91D-01  9.46D-01  6.91D-01  8.11D-01
 E= -1673.46953486199     Delta-E=       -0.000258146665 Rises=F Damp=F
 DIIS: error= 1.16D-04 at cycle   6 NSaved=   6.
 NSaved= 6 IEnMin= 6 EnMin= -1673.46953486199     IErMin= 6 ErrMin= 1.16D-04
 ErrMax= 1.16D-04  0.00D+00 EMaxC= 1.00D-01 BMatC= 3.14D-05 BMatP= 3.44D-04
 IDIUse=3 WtCom= 9.99D-01 WtEn= 1.16D-03
 Coeff-Com: -0.181D-02 0.164D-02 0.287D-01 0.708D-01 0.283D+00 0.617D+00
 Coeff-En:   0.000D+00 0.000D+00 0.000D+00 0.000D+00 0.000D+00 0.100D+01
 Coeff:     -0.181D-02 0.164D-02 0.287D-01 0.707D-01 0.283D+00 0.618D+00
 Gap=     0.254 Goal=   None    Shift=    0.000
 RMSDP=3.33D-05 MaxDP=3.26D-03 DE=-2.58D-04 OVMax= 9.22D-04

 Cycle   7  Pass 1  IDiag  1:
 RMSU=  2.63D-05    CP:  9.38D-01  6.92D-01  9.47D-01  7.00D-01  7.97D-01
                    CP:  7.40D-01
 E= -1673.46955848201     Delta-E=       -0.000023620024 Rises=F Damp=F
 DIIS: error= 3.04D-05 at cycle   7 NSaved=   7.
 NSaved= 7 IEnMin= 7 EnMin= -1673.46955848201     IErMin= 7 ErrMin= 3.04D-05
 ErrMax= 3.04D-05  0.00D+00 EMaxC= 1.00D-01 BMatC= 2.60D-06 BMatP= 3.14D-05
 IDIUse=1 WtCom= 1.00D+00 WtEn= 0.00D+00
 Coeff-Com:  0.118D-03-0.114D-02-0.842D-03 0.563D-02 0.724D-01 0.267D+00
 Coeff-Com:  0.656D+00
 Coeff:      0.118D-03-0.114D-02-0.842D-03 0.563D-02 0.724D-01 0.267D+00
 Coeff:      0.656D+00
 Gap=     0.254 Goal=   None    Shift=    0.000
 RMSDP=1.23D-05 MaxDP=1.26D-03 DE=-2.36D-05 OVMax= 2.64D-04

 Cycle   8  Pass 1  IDiag  1:
 RMSU=  8.33D-06    CP:  9.37D-01  6.92D-01  9.47D-01  7.02D-01  7.96D-01
                    CP:  8.02D-01  9.08D-01
 E= -1673.46956044058     Delta-E=       -0.000001958563 Rises=F Damp=F
 DIIS: error= 8.40D-06 at cycle   8 NSaved=   8.
 NSaved= 8 IEnMin= 8 EnMin= -1673.46956044058     IErMin= 8 ErrMin= 8.40D-06
 ErrMax= 8.40D-06  0.00D+00 EMaxC= 1.00D-01 BMatC= 2.74D-07 BMatP= 2.60D-06
 IDIUse=1 WtCom= 1.00D+00 WtEn= 0.00D+00
 Coeff-Com:  0.292D-03-0.647D-03-0.468D-02-0.832D-02-0.104D-01 0.106D-01
 Coeff-Com:  0.252D+00 0.761D+00
 Coeff:      0.292D-03-0.647D-03-0.468D-02-0.832D-02-0.104D-01 0.106D-01
 Coeff:      0.252D+00 0.761D+00
 Gap=     0.254 Goal=   None    Shift=    0.000
 RMSDP=7.45D-06 MaxDP=1.54D-03 DE=-1.96D-06 OVMax= 9.67D-05

 Cycle   9  Pass 1  IDiag  1:
 RMSU=  3.23D-06    CP:  9.37D-01  6.91D-01  9.48D-01  7.03D-01  8.03D-01
                    CP:  8.00D-01  9.57D-01  8.22D-01
 E= -1673.46956066759     Delta-E=       -0.000000227016 Rises=F Damp=F
 DIIS: error= 3.64D-06 at cycle   9 NSaved=   9.
 NSaved= 9 IEnMin= 9 EnMin= -1673.46956066759     IErMin= 9 ErrMin= 3.64D-06
 ErrMax= 3.64D-06  0.00D+00 EMaxC= 1.00D-01 BMatC= 3.71D-08 BMatP= 2.74D-07
 IDIUse=1 WtCom= 1.00D+00 WtEn= 0.00D+00
 Coeff-Com:  0.123D-03-0.214D-03-0.222D-02-0.443D-02-0.987D-02-0.137D-01
 Coeff-Com:  0.718D-01 0.358D+00 0.600D+00
 Coeff:      0.123D-03-0.214D-03-0.222D-02-0.443D-02-0.987D-02-0.137D-01
 Coeff:      0.718D-01 0.358D+00 0.600D+00
 Gap=     0.254 Goal=   None    Shift=    0.000
 RMSDP=1.30D-06 MaxDP=1.78D-04 DE=-2.27D-07 OVMax= 3.28D-05

 Cycle  10  Pass 1  IDiag  1:
 RMSU=  9.20D-07    CP:  9.37D-01  6.91D-01  9.48D-01  7.03D-01  8.01D-01
                    CP:  8.03D-01  9.63D-01  8.75D-01  8.77D-01
 E= -1673.46956069655     Delta-E=       -0.000000028960 Rises=F Damp=F
 DIIS: error= 1.30D-06 at cycle  10 NSaved=  10.
 NSaved=10 IEnMin=10 EnMin= -1673.46956069655     IErMin=10 ErrMin= 1.30D-06
 ErrMax= 1.30D-06  0.00D+00 EMaxC= 1.00D-01 BMatC= 3.36D-09 BMatP= 3.71D-08
 IDIUse=1 WtCom= 1.00D+00 WtEn= 0.00D+00
 Coeff-Com:  0.153D-04-0.140D-04-0.399D-03-0.888D-03-0.291D-02-0.688D-02
 Coeff-Com:  0.784D-03 0.606D-01 0.251D+00 0.699D+00
 Coeff:      0.153D-04-0.140D-04-0.399D-03-0.888D-03-0.291D-02-0.688D-02
 Coeff:      0.784D-03 0.606D-01 0.251D+00 0.699D+00
 Gap=     0.254 Goal=   None    Shift=    0.000
 RMSDP=5.38D-07 MaxDP=7.16D-05 DE=-2.90D-08 OVMax= 1.21D-05

 Cycle  11  Pass 1  IDiag  1:
 RMSU=  3.11D-07    CP:  9.37D-01  6.91D-01  9.48D-01  7.03D-01  8.01D-01
                    CP:  8.02D-01  9.68D-01  8.82D-01  9.24D-01  1.01D+00
 E= -1673.46956069918     Delta-E=       -0.000000002625 Rises=F Damp=F
 DIIS: error= 4.19D-07 at cycle  11 NSaved=  11.
 NSaved=11 IEnMin=11 EnMin= -1673.46956069918     IErMin=11 ErrMin= 4.19D-07
 ErrMax= 4.19D-07  0.00D+00 EMaxC= 1.00D-01 BMatC= 4.48D-10 BMatP= 3.36D-09
 IDIUse=1 WtCom= 1.00D+00 WtEn= 0.00D+00
 Coeff-Com: -0.864D-05 0.209D-04 0.107D-03 0.171D-03-0.609D-04-0.126D-02
 Coeff-Com: -0.889D-02-0.216D-01 0.257D-01 0.298D+00 0.707D+00
 Coeff:     -0.864D-05 0.209D-04 0.107D-03 0.171D-03-0.609D-04-0.126D-02
 Coeff:     -0.889D-02-0.216D-01 0.257D-01 0.298D+00 0.707D+00
 Gap=     0.254 Goal=   None    Shift=    0.000
 RMSDP=1.94D-07 MaxDP=3.19D-05 DE=-2.62D-09 OVMax= 8.22D-06

 Cycle  12  Pass 1  IDiag  1:
 RMSU=  8.23D-08    CP:  9.37D-01  6.91D-01  9.48D-01  7.03D-01  8.01D-01
                    CP:  8.02D-01  9.67D-01  8.83D-01  9.47D-01  1.08D+00
                    CP:  9.31D-01
 E= -1673.46956069966     Delta-E=       -0.000000000486 Rises=F Damp=F
 DIIS: error= 1.49D-07 at cycle  12 NSaved=  12.
 NSaved=12 IEnMin=12 EnMin= -1673.46956069966     IErMin=12 ErrMin= 1.49D-07
 ErrMax= 1.49D-07  0.00D+00 EMaxC= 1.00D-01 BMatC= 4.89D-11 BMatP= 4.48D-10
 IDIUse=1 WtCom= 1.00D+00 WtEn= 0.00D+00
 Coeff-Com: -0.438D-05 0.879D-05 0.800D-04 0.151D-03 0.246D-03 0.208D-03
 Coeff-Com: -0.358D-02-0.148D-01-0.165D-01 0.468D-01 0.290D+00 0.698D+00
 Coeff:     -0.438D-05 0.879D-05 0.800D-04 0.151D-03 0.246D-03 0.208D-03
 Coeff:     -0.358D-02-0.148D-01-0.165D-01 0.468D-01 0.290D+00 0.698D+00
 Gap=     0.254 Goal=   None    Shift=    0.000
 RMSDP=5.02D-08 MaxDP=8.03D-06 DE=-4.86D-10 OVMax= 1.70D-06

 Cycle  13  Pass 1  IDiag  1:
 RMSU=  3.08D-08    CP:  9.37D-01  6.91D-01  9.48D-01  7.03D-01  8.01D-01
                    CP:  8.02D-01  9.67D-01  8.82D-01  9.52D-01  1.10D+00
                    CP:  1.01D+00  9.86D-01
 E= -1673.46956069960     Delta-E=        0.000000000065 Rises=F Damp=F
 DIIS: error= 7.94D-08 at cycle  13 NSaved=  13.
 NSaved=13 IEnMin=12 EnMin= -1673.46956069966     IErMin=13 ErrMin= 7.94D-08
 ErrMax= 7.94D-08  0.00D+00 EMaxC= 1.00D-01 BMatC= 6.12D-12 BMatP= 4.89D-11
 IDIUse=1 WtCom= 1.00D+00 WtEn= 0.00D+00
 Coeff-Com: -0.358D-06 0.477D-06 0.165D-04 0.345D-04 0.966D-04 0.264D-03
 Coeff-Com: -0.240D-03-0.262D-02-0.948D-02-0.183D-01 0.290D-01 0.280D+00
 Coeff-Com:  0.721D+00
 Coeff:     -0.358D-06 0.477D-06 0.165D-04 0.345D-04 0.966D-04 0.264D-03
 Coeff:     -0.240D-03-0.262D-02-0.948D-02-0.183D-01 0.290D-01 0.280D+00
 Coeff:      0.721D+00
 Gap=     0.254 Goal=   None    Shift=    0.000
 RMSDP=1.85D-08 MaxDP=2.56D-06 DE= 6.55D-11 OVMax= 1.86D-06

 Cycle  14  Pass 1  IDiag  1:
 RMSU=  1.24D-08    CP:  9.37D-01  6.91D-01  9.48D-01  7.03D-01  8.01D-01
                    CP:  8.02D-01  9.67D-01  8.82D-01  9.51D-01  1.11D+00
                    CP:  1.02D+00  1.06D+00  1.01D+00
 E= -1673.46956069968     Delta-E=       -0.000000000087 Rises=F Damp=F
 DIIS: error= 3.79D-08 at cycle  14 NSaved=  14.
 NSaved=14 IEnMin=14 EnMin= -1673.46956069968     IErMin=14 ErrMin= 3.79D-08
 ErrMax= 3.79D-08  0.00D+00 EMaxC= 1.00D-01 BMatC= 1.55D-12 BMatP= 6.12D-12
 IDIUse=1 WtCom= 1.00D+00 WtEn= 0.00D+00
 Coeff-Com:  0.548D-06-0.123D-05-0.498D-05-0.790D-05 0.502D-06 0.862D-04
 Coeff-Com:  0.385D-03 0.112D-02-0.194D-02-0.170D-01-0.352D-01 0.112D-01
 Coeff-Com:  0.361D+00 0.680D+00
 Coeff:      0.548D-06-0.123D-05-0.498D-05-0.790D-05 0.502D-06 0.862D-04
 Coeff:      0.385D-03 0.112D-02-0.194D-02-0.170D-01-0.352D-01 0.112D-01
 Coeff:      0.361D+00 0.680D+00
 Gap=     0.254 Goal=   None    Shift=    0.000
 RMSDP=7.72D-09 MaxDP=1.04D-06 DE=-8.69D-11 OVMax= 5.95D-07

 Cycle  15  Pass 1  IDiag  1:
 RMSU=  4.84D-09    CP:  9.37D-01  6.91D-01  9.48D-01  7.03D-01  8.01D-01
                    CP:  8.02D-01  9.66D-01  8.82D-01  9.51D-01  1.11D+00
                    CP:  1.03D+00  1.09D+00  1.13D+00  1.06D+00
 E= -1673.46956069977     Delta-E=       -0.000000000082 Rises=F Damp=F
 DIIS: error= 1.16D-08 at cycle  15 NSaved=  15.
 NSaved=15 IEnMin=15 EnMin= -1673.46956069977     IErMin=15 ErrMin= 1.16D-08
 ErrMax= 1.16D-08  0.00D+00 EMaxC= 1.00D-01 BMatC= 1.28D-13 BMatP= 1.55D-12
 IDIUse=1 WtCom= 1.00D+00 WtEn= 0.00D+00
 Coeff-Com:  0.242D-06-0.482D-06-0.461D-05-0.830D-05-0.159D-04-0.572D-05
 Coeff-Com:  0.182D-03 0.911D-03 0.999D-03-0.289D-02-0.167D-01-0.465D-01
 Coeff-Com:  0.189D-01 0.221D+00 0.825D+00
 Coeff:      0.242D-06-0.482D-06-0.461D-05-0.830D-05-0.159D-04-0.572D-05
 Coeff:      0.182D-03 0.911D-03 0.999D-03-0.289D-02-0.167D-01-0.465D-01
 Coeff:      0.189D-01 0.221D+00 0.825D+00
 Gap=     0.254 Goal=   None    Shift=    0.000
 RMSDP=3.78D-09 MaxDP=8.00D-07 DE=-8.23D-11 OVMax= 3.63D-07

 SCF Done:  E(RM062X) =  -1673.46956070     A.U. after   15 cycles
            NFock= 15  Conv=0.38D-08     -V/T= 2.0030
 KE= 1.668434355344D+03 PE=-8.125714379929D+03 EE= 2.694427291414D+03
 Leave Link  502 at Sun Feb 19 22:09:50 2023, MaxMem=  6710886400 cpu:            4435.6 elap:             185.4
 (Enter /data0/home/software/g16/l601.exe)
 Copying SCF densities to generalized density rwf, IOpCl= 0 IROHF=0.

 **********************************************************************

            Population analysis using the SCF density.

 **********************************************************************

 Alpha  occ. eigenvalues --  -90.09417 -78.13551 -19.65192 -19.62485 -19.61954
 Alpha  occ. eigenvalues --  -19.61222 -19.60738 -19.59348 -19.56486 -14.89276
 Alpha  occ. eigenvalues --  -10.65316 -10.64646 -10.63128 -10.61116 -10.61037
 Alpha  occ. eigenvalues --  -10.60571 -10.57491 -10.57305 -10.56560  -8.42858
 Alpha  occ. eigenvalues --   -6.94244  -6.35176  -6.35087  -6.35048  -5.06197
 Alpha  occ. eigenvalues --   -5.06102  -5.05958  -1.23856  -1.19862  -1.16551
 Alpha  occ. eigenvalues --   -1.12716  -1.11540  -1.10236  -1.09700  -1.06278
 Alpha  occ. eigenvalues --   -0.98914  -0.93621  -0.92387  -0.85048  -0.83974
 Alpha  occ. eigenvalues --   -0.77800  -0.76014  -0.72535  -0.69624  -0.66717
 Alpha  occ. eigenvalues --   -0.65788  -0.63472  -0.62318  -0.60509  -0.59809
 Alpha  occ. eigenvalues --   -0.57697  -0.56826  -0.56511  -0.55441  -0.54731
 Alpha  occ. eigenvalues --   -0.54205  -0.53336  -0.53257  -0.52535  -0.51161
 Alpha  occ. eigenvalues --   -0.50108  -0.49454  -0.48230  -0.47703  -0.46797
 Alpha  occ. eigenvalues --   -0.46584  -0.45766  -0.44933  -0.44415  -0.43137
 Alpha  occ. eigenvalues --   -0.41915  -0.41547  -0.41170  -0.40500  -0.39875
 Alpha  occ. eigenvalues --   -0.37923  -0.37483  -0.36357  -0.35593  -0.34959
 Alpha  occ. eigenvalues --   -0.34115  -0.32815
 Alpha virt. eigenvalues --   -0.07406  -0.03715  -0.01758  -0.00890   0.00140
 Alpha virt. eigenvalues --    0.01065   0.01678   0.02342   0.02874   0.03468
 Alpha virt. eigenvalues --    0.03770   0.04768   0.04856   0.05838   0.06060
 Alpha virt. eigenvalues --    0.06532   0.07290   0.07591   0.07808   0.08471
 Alpha virt. eigenvalues --    0.08598   0.09511   0.09603   0.09961   0.10451
 Alpha virt. eigenvalues --    0.10627   0.11557   0.11934   0.12153   0.12632
 Alpha virt. eigenvalues --    0.12854   0.12961   0.13335   0.13666   0.14341
 Alpha virt. eigenvalues --    0.14545   0.15038   0.15150   0.15402   0.15544
 Alpha virt. eigenvalues --    0.16256   0.16574   0.17202   0.17497   0.17758
 Alpha virt. eigenvalues --    0.18022   0.18280   0.18598   0.18863   0.19543
 Alpha virt. eigenvalues --    0.19814   0.20348   0.20574   0.20822   0.21310
 Alpha virt. eigenvalues --    0.21731   0.21967   0.22087   0.22345   0.22797
 Alpha virt. eigenvalues --    0.23506   0.23627   0.23950   0.24464   0.24786
 Alpha virt. eigenvalues --    0.25266   0.26068   0.26707   0.26891   0.27328
 Alpha virt. eigenvalues --    0.27733   0.28362   0.28540   0.28939   0.29401
 Alpha virt. eigenvalues --    0.29799   0.30213   0.30560   0.30785   0.31245
 Alpha virt. eigenvalues --    0.31414   0.31850   0.32472   0.32489   0.32758
 Alpha virt. eigenvalues --    0.33213   0.33699   0.33756   0.34255   0.34548
 Alpha virt. eigenvalues --    0.35166   0.35640   0.35871   0.36030   0.36900
 Alpha virt. eigenvalues --    0.37280   0.38206   0.38363   0.38676   0.39304
 Alpha virt. eigenvalues --    0.39925   0.40422   0.40633   0.41520   0.42479
 Alpha virt. eigenvalues --    0.42508   0.43033   0.43220   0.43609   0.44365
 Alpha virt. eigenvalues --    0.45654   0.46042   0.46423   0.47475   0.47544
 Alpha virt. eigenvalues --    0.47915   0.49137   0.49439   0.49571   0.50854
 Alpha virt. eigenvalues --    0.51160   0.52242   0.52817   0.53272   0.54226
 Alpha virt. eigenvalues --    0.54480   0.54912   0.55692   0.56289   0.56867
 Alpha virt. eigenvalues --    0.58295   0.58650   0.59367   0.60584   0.61158
 Alpha virt. eigenvalues --    0.61770   0.62678   0.63551   0.63862   0.64474
 Alpha virt. eigenvalues --    0.64881   0.65884   0.66343   0.66662   0.67589
 Alpha virt. eigenvalues --    0.67964   0.68243   0.68686   0.69211   0.70052
 Alpha virt. eigenvalues --    0.70808   0.71020   0.71752   0.72213   0.73072
 Alpha virt. eigenvalues --    0.73628   0.75129   0.76024   0.76152   0.76718
 Alpha virt. eigenvalues --    0.78138   0.78645   0.79584   0.79804   0.79996
 Alpha virt. eigenvalues --    0.81453   0.81725   0.82840   0.83800   0.84151
 Alpha virt. eigenvalues --    0.84562   0.84787   0.86292   0.86498   0.87508
 Alpha virt. eigenvalues --    0.88677   0.88996   0.89855   0.90631   0.91334
 Alpha virt. eigenvalues --    0.91850   0.93120   0.93523   0.95157   0.96106
 Alpha virt. eigenvalues --    0.97257   0.98681   0.99250   1.01230   1.01753
 Alpha virt. eigenvalues --    1.02128   1.03151   1.03854   1.05212   1.07612
 Alpha virt. eigenvalues --    1.08537   1.10103   1.10571   1.11893   1.12461
 Alpha virt. eigenvalues --    1.13658   1.14242   1.14631   1.14782   1.15909
 Alpha virt. eigenvalues --    1.16874   1.18101   1.19269   1.19877   1.20236
 Alpha virt. eigenvalues --    1.21384   1.22573   1.23322   1.23879   1.24148
 Alpha virt. eigenvalues --    1.25095   1.25512   1.26851   1.27202   1.28190
 Alpha virt. eigenvalues --    1.28954   1.29664   1.29983   1.30834   1.31406
 Alpha virt. eigenvalues --    1.31983   1.32872   1.33498   1.33829   1.34684
 Alpha virt. eigenvalues --    1.35146   1.35680   1.36849   1.37162   1.37972
 Alpha virt. eigenvalues --    1.39106   1.39641   1.39687   1.40494   1.40622
 Alpha virt. eigenvalues --    1.41571   1.42238   1.42807   1.44371   1.45647
 Alpha virt. eigenvalues --    1.45847   1.46467   1.48176   1.49081   1.50012
 Alpha virt. eigenvalues --    1.51797   1.52334   1.52594   1.54630   1.55119
 Alpha virt. eigenvalues --    1.55746   1.56250   1.57431   1.57975   1.59026
 Alpha virt. eigenvalues --    1.60048   1.60345   1.61227   1.62061   1.63045
 Alpha virt. eigenvalues --    1.63437   1.64400   1.66258   1.66869   1.67411
 Alpha virt. eigenvalues --    1.70572   1.70826   1.71709   1.73601   1.73993
 Alpha virt. eigenvalues --    1.75609   1.76361   1.76677   1.77322   1.77926
 Alpha virt. eigenvalues --    1.80006   1.80690   1.81204   1.83087   1.83759
 Alpha virt. eigenvalues --    1.84073   1.85393   1.85940   1.86806   1.87760
 Alpha virt. eigenvalues --    1.89441   1.91382   1.92680   1.93572   1.93924
 Alpha virt. eigenvalues --    1.94447   1.96069   1.97106   1.97483   1.98306
 Alpha virt. eigenvalues --    1.99515   2.01376   2.02250   2.04233   2.05067
 Alpha virt. eigenvalues --    2.06084   2.06635   2.08217   2.08630   2.10038
 Alpha virt. eigenvalues --    2.11482   2.13011   2.13733   2.15028   2.15416
 Alpha virt. eigenvalues --    2.16922   2.18280   2.19301   2.20508   2.22020
 Alpha virt. eigenvalues --    2.24005   2.24976   2.25136   2.26421   2.27390
 Alpha virt. eigenvalues --    2.28019   2.30350   2.32130   2.33029   2.33991
 Alpha virt. eigenvalues --    2.34315   2.35446   2.35727   2.36789   2.37798
 Alpha virt. eigenvalues --    2.38580   2.39686   2.40922   2.42222   2.43646
 Alpha virt. eigenvalues --    2.45217   2.45830   2.47036   2.50048   2.50888
 Alpha virt. eigenvalues --    2.54506   2.55524   2.57067   2.58699   2.63091
 Alpha virt. eigenvalues --    2.64544   2.66605   2.69267   2.71196   2.71888
 Alpha virt. eigenvalues --    2.73049   2.74027   2.75270   2.77249   2.77695
 Alpha virt. eigenvalues --    2.78829   2.79530   2.81869   2.83563   2.85766
 Alpha virt. eigenvalues --    2.85915   2.86999   2.89011   2.89220   2.89838
 Alpha virt. eigenvalues --    2.91775   2.92277   2.93959   2.95501   2.95879
 Alpha virt. eigenvalues --    2.97296   2.98735   2.99472   3.01844   3.02597
 Alpha virt. eigenvalues --    3.05249   3.07840   3.10061   3.11803   3.13941
 Alpha virt. eigenvalues --    3.14738   3.15130   3.18043   3.18114   3.22406
 Alpha virt. eigenvalues --    3.23780   3.25731   3.28067   3.30112   3.31543
 Alpha virt. eigenvalues --    3.32844   3.33659   3.35893   3.37652   3.39475
 Alpha virt. eigenvalues --    3.40647   3.42277   3.42655   3.45255   3.46307
 Alpha virt. eigenvalues --    3.49027   3.49930   3.50486   3.51355   3.51912
 Alpha virt. eigenvalues --    3.53166   3.54720   3.57233   3.58130   3.59889
 Alpha virt. eigenvalues --    3.61161   3.62192   3.63173   3.64179   3.65168
 Alpha virt. eigenvalues --    3.66042   3.66475   3.69092   3.70818   3.71661
 Alpha virt. eigenvalues --    3.72225   3.76151   3.77037   3.78517   3.80280
 Alpha virt. eigenvalues --    3.81014   3.83439   3.87436   3.89523   3.92598
 Alpha virt. eigenvalues --    3.95623   3.98248   4.03319   4.04479   4.05934
 Alpha virt. eigenvalues --    4.13816   4.15059   4.18204   4.19985   4.22700
 Alpha virt. eigenvalues --    4.25629   4.27640   4.40175   4.50731   4.51738
 Alpha virt. eigenvalues --    4.63289   4.71242   4.96223   5.03279   5.06195
 Alpha virt. eigenvalues --    5.10746   5.11233   5.14373   5.16928   5.18999
 Alpha virt. eigenvalues --    5.21166   5.22167   5.23125   5.27199   5.28343
 Alpha virt. eigenvalues --    5.29531   5.30493   5.33270   5.35700   5.37562
 Alpha virt. eigenvalues --    5.40876   5.43001   5.45811   5.48820   5.50996
 Alpha virt. eigenvalues --    5.52844   5.56149   5.57713   5.65491   5.69370
 Alpha virt. eigenvalues --    5.76323   6.77397   6.79089   6.80218   6.80896
 Alpha virt. eigenvalues --    6.81453   6.82375   6.83238   6.84602   6.86090
 Alpha virt. eigenvalues --    6.86977   6.88207   6.90510   6.91370   6.92003
 Alpha virt. eigenvalues --    6.94314   6.97040   6.99468   7.01071   7.03889
 Alpha virt. eigenvalues --    7.04346   7.05589   7.06637   7.07393   7.10949
 Alpha virt. eigenvalues --    7.21430   7.23115   7.26651   7.27390   7.29127
 Alpha virt. eigenvalues --    7.35989   7.38783   7.41233   7.41636   7.44544
 Alpha virt. eigenvalues --    7.45672   7.75493   8.59101  14.33502  14.37796
 Alpha virt. eigenvalues --   14.46257  17.74727  17.79131  17.85192  23.82550
 Alpha virt. eigenvalues --   23.95753  23.97777  24.03346  24.04141  24.07840
 Alpha virt. eigenvalues --   24.08958  24.11852  24.23720  35.69672  50.05554
 Alpha virt. eigenvalues --   50.06175  50.11116  50.12911  50.13797  50.15515
 Alpha virt. eigenvalues --   50.19644 164.01552 189.90437
          Condensed to atoms (all electrons):
               1          2          3          4          5          6
     1  C    8.185127  -2.763763   2.271847  -1.278219  -0.521283  -0.023155
     2  C   -2.763763  10.668654  -4.103292   2.640293  -0.841451   0.030609
     3  C    2.271847  -4.103292  13.372308  -3.796014  -0.828104   0.305488
     4  C   -1.278219   2.640293  -3.796014  13.052078  -4.817366   0.018206
     5  C   -0.521283  -0.841451  -0.828104  -4.817366  13.205165   0.012570
     6  H   -0.023155   0.030609   0.305488   0.018206   0.012570   0.501593
     7  H    0.340676   0.023929  -0.028727   0.022644   0.000209  -0.000176
     8  H    0.056069   0.266097   0.033217  -0.025675   0.004382  -0.005319
     9  H   -0.012789   0.011927  -0.035381   0.016793   0.379917  -0.000113
    10  C   -0.112062   0.163416  -0.376523  -0.352098   0.165471   0.000991
    11  H    0.004194  -0.010078  -0.038297  -0.133237   0.082637   0.000024
    12  H   -0.000440   0.019526   0.011407  -0.148665   0.056278   0.002257
    13  H    0.001469   0.005481  -0.033525   0.127018  -0.104969   0.000591
    14  N    0.259971  -0.000056  -0.104309  -0.005927  -0.089030  -0.000094
    15  C   -0.062186  -0.171131  -0.000804  -0.478546   0.378710  -0.000103
    16  H   -0.013432   0.015541  -0.004094  -0.015315   0.023580   0.000002
    17  H   -0.030137   0.003640  -0.010485   0.026997   0.006952  -0.000001
    18  C   -0.073365   0.275509  -0.246311   0.237297  -0.175757   0.000050
    19  H    0.038143  -0.041250   0.013942  -0.016151   0.004078  -0.000007
    20  H   -0.012243   0.001359   0.000140   0.000882   0.000071   0.000000
    21  C   -0.005006  -0.179410   0.105497   0.040308  -0.081450  -0.000110
    22  H   -0.001599   0.000254  -0.000388  -0.002959  -0.003810   0.000000
    23  H    0.001118   0.000154   0.000051   0.000933  -0.002496   0.000000
    24  S   -0.016696   0.017605  -0.008606  -0.019392  -0.136637   0.000024
    25  O   -0.005675   0.003211   0.022352  -0.079983   0.117985  -0.000017
    26  O    0.001294  -0.002312   0.001302  -0.007856  -0.008678   0.000000
    27  O    0.004982  -0.001086   0.004981   0.035048  -0.001419   0.000001
    28  P   -0.059546  -0.078382   0.074633  -0.004586   0.062186  -0.002125
    29  O   -0.203265   0.341009  -0.312383   0.168793   0.004303   0.001875
    30  O    0.059737  -0.108676   0.143758  -0.066724   0.010981  -0.000632
    31  H    0.019137  -0.052245   0.085952  -0.032971  -0.009976  -0.001320
    32  O   -0.027924   0.037425  -0.015134   0.006714   0.005132   0.000033
    33  H   -0.003050   0.000199  -0.001508   0.004084  -0.006206  -0.000001
    34  O    0.114490  -0.093033   0.102531  -0.117589  -0.037880  -0.000177
    35  H   -0.032676   0.032421  -0.031700   0.107888  -0.057339   0.000037
               7          8          9         10         11         12
     1  C    0.340676   0.056069  -0.012789  -0.112062   0.004194  -0.000440
     2  C    0.023929   0.266097   0.011927   0.163416  -0.010078   0.019526
     3  C   -0.028727   0.033217  -0.035381  -0.376523  -0.038297   0.011407
     4  C    0.022644  -0.025675   0.016793  -0.352098  -0.133237  -0.148665
     5  C    0.000209   0.004382   0.379917   0.165471   0.082637   0.056278
     6  H   -0.000176  -0.005319  -0.000113   0.000991   0.000024   0.002257
     7  H    0.483744  -0.003520  -0.000047   0.002413  -0.000003  -0.000000
     8  H   -0.003520   0.509564   0.000013  -0.000386   0.000009  -0.000008
     9  H   -0.000047   0.000013   0.436996   0.011451   0.003906  -0.000445
    10  C    0.002413  -0.000386   0.011451   6.158530   0.449676   0.424214
    11  H   -0.000003   0.000009   0.003906   0.449676   0.497508  -0.019774
    12  H   -0.000000  -0.000008  -0.000445   0.424214  -0.019774   0.509714
    13  H   -0.000001   0.000006   0.000502   0.375517  -0.024290  -0.023445
    14  N   -0.045584   0.010969  -0.048933  -0.105194   0.007185  -0.002398
    15  C    0.027204   0.002106   0.002019  -0.032812   0.003884   0.000132
    16  H   -0.000950  -0.000016   0.000028  -0.001254   0.000001  -0.000001
    17  H    0.000186   0.000012   0.007163   0.003188   0.000012   0.000000
    18  C   -0.000100  -0.000070   0.024010   0.017617   0.000176  -0.000085
    19  H   -0.002016   0.000093   0.000023  -0.000715   0.000001   0.000000
    20  H   -0.000012   0.000005  -0.000100   0.000005  -0.000000   0.000000
    21  C    0.001255   0.000407  -0.009628  -0.006868  -0.000190   0.000071
    22  H   -0.000015  -0.000000   0.000023  -0.000026   0.000000  -0.000000
    23  H    0.000026  -0.000000   0.000023  -0.000004   0.000000  -0.000000
    24  S    0.000519  -0.000083   0.007058  -0.010465   0.000428  -0.000148
    25  O    0.000147  -0.000021  -0.019180   0.012067   0.000061  -0.000071
    26  O   -0.000006   0.000000  -0.000031  -0.002476   0.000006   0.000000
    27  O    0.000007  -0.000005  -0.000116   0.002467  -0.000010   0.000001
    28  P    0.002244   0.000440  -0.002838  -0.010449   0.000132   0.001058
    29  O   -0.008108  -0.005847   0.002513   0.003693   0.000068  -0.000065
    30  O   -0.000183   0.000575  -0.000389  -0.014971   0.000017   0.000047
    31  H   -0.000040   0.000362  -0.000007  -0.006735  -0.000001   0.000012
    32  O    0.000050  -0.000093   0.000109   0.003245  -0.000010   0.000006
    33  H    0.000012   0.000003   0.000070   0.000622  -0.000001  -0.000000
    34  O   -0.000443   0.000108  -0.012154  -0.049223  -0.000823   0.000622
    35  H    0.000149  -0.000007   0.009427   0.034024  -0.000544  -0.000073
              13         14         15         16         17         18
     1  C    0.001469   0.259971  -0.062186  -0.013432  -0.030137  -0.073365
     2  C    0.005481  -0.000056  -0.171131   0.015541   0.003640   0.275509
     3  C   -0.033525  -0.104309  -0.000804  -0.004094  -0.010485  -0.246311
     4  C    0.127018  -0.005927  -0.478546  -0.015315   0.026997   0.237297
     5  C   -0.104969  -0.089030   0.378710   0.023580   0.006952  -0.175757
     6  H    0.000591  -0.000094  -0.000103   0.000002  -0.000001   0.000050
     7  H   -0.000001  -0.045584   0.027204  -0.000950   0.000186  -0.000100
     8  H    0.000006   0.010969   0.002106  -0.000016   0.000012  -0.000070
     9  H    0.000502  -0.048933   0.002019   0.000028   0.007163   0.024010
    10  C    0.375517  -0.105194  -0.032812  -0.001254   0.003188   0.017617
    11  H   -0.024290   0.007185   0.003884   0.000001   0.000012   0.000176
    12  H   -0.023445  -0.002398   0.000132  -0.000001   0.000000  -0.000085
    13  H    0.445081  -0.000488  -0.001213   0.000001  -0.000002   0.000051
    14  N   -0.000488   6.551405   0.005262  -0.046377  -0.063777  -0.027161
    15  C   -0.001213   0.005262   6.435302   0.450456   0.467814  -0.520977
    16  H    0.000001  -0.046377   0.450456   0.495293  -0.026876  -0.065163
    17  H   -0.000002  -0.063777   0.467814  -0.026876   0.462504  -0.023207
    18  C    0.000051  -0.027161  -0.520977  -0.065163  -0.023207   7.339719
    19  H   -0.000001   0.006223  -0.013229   0.002106   0.000371   0.417092
    20  H    0.000000   0.004340  -0.022614  -0.011808   0.003594   0.362744
    21  C    0.000128   0.080986  -0.048291   0.001953  -0.024542  -1.295361
    22  H   -0.000000   0.003410  -0.009091  -0.000077  -0.001080  -0.034980
    23  H   -0.000000  -0.002605   0.029998  -0.000115   0.000171  -0.058520
    24  S   -0.000253   0.091864   0.050172   0.004333   0.012248   0.076537
    25  O   -0.000383  -0.048690  -0.014027   0.002843  -0.009678  -0.133436
    26  O    0.000006   0.005756   0.013540  -0.000086  -0.001454   0.024876
    27  O    0.000011  -0.028696   0.004436  -0.000038   0.000444  -0.008404
    28  P   -0.000618  -0.009950   0.057825  -0.000418  -0.000984  -0.105433
    29  O    0.000010  -0.031738  -0.049219  -0.000196   0.000092   0.035904
    30  O   -0.000214  -0.003688   0.005367  -0.000006  -0.000020  -0.008751
    31  H    0.000093  -0.000664  -0.001182  -0.000000   0.000000   0.000094
    32  O    0.000009  -0.002470  -0.001972   0.000034   0.000091   0.006708
    33  H    0.000001   0.002510  -0.000887  -0.000009  -0.000041   0.000247
    34  O   -0.003162   0.025332  -0.002518  -0.000009   0.000298  -0.030097
    35  H    0.001438  -0.014540  -0.022913  -0.000101   0.000847   0.044361
              19         20         21         22         23         24
     1  C    0.038143  -0.012243  -0.005006  -0.001599   0.001118  -0.016696
     2  C   -0.041250   0.001359  -0.179410   0.000254   0.000154   0.017605
     3  C    0.013942   0.000140   0.105497  -0.000388   0.000051  -0.008606
     4  C   -0.016151   0.000882   0.040308  -0.002959   0.000933  -0.019392
     5  C    0.004078   0.000071  -0.081450  -0.003810  -0.002496  -0.136637
     6  H   -0.000007   0.000000  -0.000110   0.000000   0.000000   0.000024
     7  H   -0.002016  -0.000012   0.001255  -0.000015   0.000026   0.000519
     8  H    0.000093   0.000005   0.000407  -0.000000  -0.000000  -0.000083
     9  H    0.000023  -0.000100  -0.009628   0.000023   0.000023   0.007058
    10  C   -0.000715   0.000005  -0.006868  -0.000026  -0.000004  -0.010465
    11  H    0.000001  -0.000000  -0.000190   0.000000   0.000000   0.000428
    12  H    0.000000   0.000000   0.000071  -0.000000  -0.000000  -0.000148
    13  H   -0.000001   0.000000   0.000128  -0.000000  -0.000000  -0.000253
    14  N    0.006223   0.004340   0.080986   0.003410  -0.002605   0.091864
    15  C   -0.013229  -0.022614  -0.048291  -0.009091   0.029998   0.050172
    16  H    0.002106  -0.011808   0.001953  -0.000077  -0.000115   0.004333
    17  H    0.000371   0.003594  -0.024542  -0.001080   0.000171   0.012248
    18  C    0.417092   0.362744  -1.295361  -0.034980  -0.058520   0.076537
    19  H    0.412616  -0.031406  -0.027247   0.002904  -0.002674   0.003689
    20  H   -0.031406   0.527329   0.017822  -0.005673  -0.004384   0.001035
    21  C   -0.027247   0.017822   7.485249   0.472827   0.393897  -0.292414
    22  H    0.002904  -0.005673   0.472827   0.453768  -0.027797  -0.072716
    23  H   -0.002674  -0.004384   0.393897  -0.027797   0.464005  -0.017374
    24  S    0.003689   0.001035  -0.292414  -0.072716  -0.017374  14.340217
    25  O   -0.005583   0.001450   0.011182  -0.000642  -0.002711   0.151480
    26  O    0.001582  -0.001113  -0.085863   0.020604  -0.000986   0.424957
    27  O   -0.002853   0.000024  -0.014065  -0.006122   0.011846   0.260620
    28  P    0.018599   0.000879   0.103651   0.000382  -0.000205  -0.101851
    29  O   -0.004905   0.000905  -0.043124  -0.000116   0.000223   0.065350
    30  O    0.001282   0.000007   0.005445  -0.000000  -0.000004  -0.018719
    31  H    0.000026   0.000000   0.000054  -0.000000  -0.000000  -0.000001
    32  O   -0.000096  -0.000103  -0.021112   0.000019   0.000205   0.009289
    33  H   -0.001274   0.000033  -0.001331  -0.000008  -0.000128   0.031478
    34  O    0.000258   0.000101   0.002338  -0.000036   0.000186  -0.023355
    35  H   -0.001079  -0.000040  -0.022028   0.000151  -0.000150   0.055912
              25         26         27         28         29         30
     1  C   -0.005675   0.001294   0.004982  -0.059546  -0.203265   0.059737
     2  C    0.003211  -0.002312  -0.001086  -0.078382   0.341009  -0.108676
     3  C    0.022352   0.001302   0.004981   0.074633  -0.312383   0.143758
     4  C   -0.079983  -0.007856   0.035048  -0.004586   0.168793  -0.066724
     5  C    0.117985  -0.008678  -0.001419   0.062186   0.004303   0.010981
     6  H   -0.000017   0.000000   0.000001  -0.002125   0.001875  -0.000632
     7  H    0.000147  -0.000006   0.000007   0.002244  -0.008108  -0.000183
     8  H   -0.000021   0.000000  -0.000005   0.000440  -0.005847   0.000575
     9  H   -0.019180  -0.000031  -0.000116  -0.002838   0.002513  -0.000389
    10  C    0.012067  -0.002476   0.002467  -0.010449   0.003693  -0.014971
    11  H    0.000061   0.000006  -0.000010   0.000132   0.000068   0.000017
    12  H   -0.000071   0.000000   0.000001   0.001058  -0.000065   0.000047
    13  H   -0.000383   0.000006   0.000011  -0.000618   0.000010  -0.000214
    14  N   -0.048690   0.005756  -0.028696  -0.009950  -0.031738  -0.003688
    15  C   -0.014027   0.013540   0.004436   0.057825  -0.049219   0.005367
    16  H    0.002843  -0.000086  -0.000038  -0.000418  -0.000196  -0.000006
    17  H   -0.009678  -0.001454   0.000444  -0.000984   0.000092  -0.000020
    18  C   -0.133436   0.024876  -0.008404  -0.105433   0.035904  -0.008751
    19  H   -0.005583   0.001582  -0.002853   0.018599  -0.004905   0.001282
    20  H    0.001450  -0.001113   0.000024   0.000879   0.000905   0.000007
    21  C    0.011182  -0.085863  -0.014065   0.103651  -0.043124   0.005445
    22  H   -0.000642   0.020604  -0.006122   0.000382  -0.000116  -0.000000
    23  H   -0.002711  -0.000986   0.011846  -0.000205   0.000223  -0.000004
    24  S    0.151480   0.424957   0.260620  -0.101851   0.065350  -0.018719
    25  O    8.657204  -0.014061  -0.011727   0.043238  -0.016449   0.005948
    26  O   -0.014061   8.198354  -0.086426   0.004081   0.000407  -0.000018
    27  O   -0.011727  -0.086426   8.412989   0.063034  -0.033529   0.007078
    28  P    0.043238   0.004081   0.063034  12.898110   0.311581   0.190526
    29  O   -0.016449   0.000407  -0.033529   0.311581   8.530661  -0.062575
    30  O    0.005948  -0.000018   0.007078   0.190526  -0.062575   8.083236
    31  H    0.000200  -0.000001  -0.000054   0.000716  -0.010719   0.266688
    32  O   -0.010815  -0.000188  -0.013848   0.211146   0.009891  -0.071936
    33  H    0.000953   0.001393   0.046307   0.019695   0.013506  -0.007152
    34  O    0.030688  -0.002258   0.004040   0.195045  -0.045040   0.032705
    35  H    0.007182  -0.000446   0.007444  -0.003369  -0.005606  -0.009743
              31         32         33         34         35
     1  C    0.019137  -0.027924  -0.003050   0.114490  -0.032676
     2  C   -0.052245   0.037425   0.000199  -0.093033   0.032421
     3  C    0.085952  -0.015134  -0.001508   0.102531  -0.031700
     4  C   -0.032971   0.006714   0.004084  -0.117589   0.107888
     5  C   -0.009976   0.005132  -0.006206  -0.037880  -0.057339
     6  H   -0.001320   0.000033  -0.000001  -0.000177   0.000037
     7  H   -0.000040   0.000050   0.000012  -0.000443   0.000149
     8  H    0.000362  -0.000093   0.000003   0.000108  -0.000007
     9  H   -0.000007   0.000109   0.000070  -0.012154   0.009427
    10  C   -0.006735   0.003245   0.000622  -0.049223   0.034024
    11  H   -0.000001  -0.000010  -0.000001  -0.000823  -0.000544
    12  H    0.000012   0.000006  -0.000000   0.000622  -0.000073
    13  H    0.000093   0.000009   0.000001  -0.003162   0.001438
    14  N   -0.000664  -0.002470   0.002510   0.025332  -0.014540
    15  C   -0.001182  -0.001972  -0.000887  -0.002518  -0.022913
    16  H   -0.000000   0.000034  -0.000009  -0.000009  -0.000101
    17  H    0.000000   0.000091  -0.000041   0.000298   0.000847
    18  C    0.000094   0.006708   0.000247  -0.030097   0.044361
    19  H    0.000026  -0.000096  -0.001274   0.000258  -0.001079
    20  H    0.000000  -0.000103   0.000033   0.000101  -0.000040
    21  C    0.000054  -0.021112  -0.001331   0.002338  -0.022028
    22  H   -0.000000   0.000019  -0.000008  -0.000036   0.000151
    23  H   -0.000000   0.000205  -0.000128   0.000186  -0.000150
    24  S   -0.000001   0.009289   0.031478  -0.023355   0.055912
    25  O    0.000200  -0.010815   0.000953   0.030688   0.007182
    26  O   -0.000001  -0.000188   0.001393  -0.002258  -0.000446
    27  O   -0.000054  -0.013848   0.046307   0.004040   0.007444
    28  P    0.000716   0.211146   0.019695   0.195045  -0.003369
    29  O   -0.010719   0.009891   0.013506  -0.045040  -0.005606
    30  O    0.266688  -0.071936  -0.007152   0.032705  -0.009743
    31  H    0.444823  -0.003179  -0.000115   0.002051  -0.000944
    32  O   -0.003179   8.163651   0.204190   0.006011   0.001844
    33  H   -0.000115   0.204190   0.205430  -0.006848   0.009894
    34  O    0.002051   0.006011  -0.006848   8.358915   0.136507
    35  H   -0.000944   0.001844   0.009894   0.136507   0.370951
 Mulliken charges:
               1
     1  C   -0.099745
     2  C   -0.112091
     3  C   -0.573822
     4  C    0.893296
     5  C   -0.796759
     6  H    0.158997
     7  H    0.184517
     8  H    0.156611
     9  H    0.228179
    10  C   -0.746346
    11  H    0.177332
    12  H    0.170275
    13  H    0.235152
    14  N    0.627152
    15  C   -0.480515
    16  H    0.190170
    17  H    0.195657
    18  C   -0.055814
    19  H    0.227458
    20  H    0.166771
    21  C   -0.565031
    22  H    0.212794
    23  H    0.217317
    24  S    1.113896
    25  O   -0.695042
    26  O   -0.483900
    27  O   -0.657362
    28  P    1.121554
    29  O   -0.657902
    30  O   -0.438997
    31  H    0.299947
    32  O   -0.496925
    33  H    0.487933
    34  O   -0.587584
    35  H    0.382825
 Sum of Mulliken charges =  -0.00000
 Mulliken charges with hydrogens summed into heavy atoms:
               1
     1  C    0.084772
     2  C    0.044520
     3  C   -0.414824
     4  C    0.893296
     5  C   -0.568581
    10  C   -0.163587
    14  N    0.627152
    15  C   -0.094688
    18  C    0.338415
    21  C   -0.134920
    24  S    1.113896
    25  O   -0.695042
    26  O   -0.483900
    27  O   -0.657362
    28  P    1.121554
    29  O   -0.657902
    30  O   -0.139050
    32  O   -0.008992
    34  O   -0.204759
         Mulliken charges condensed to fragments:
      1     -0.110851
      2      0.110851
 Electronic spatial extent (au):  <R**2>=         179814.7386
 Charge=              0.0000 electrons
 Dipole moment (field-independent basis, Debye):
    X=             -0.6958    Y=             10.3464    Z=             -7.1989  Tot=             12.6236
 Quadrupole moment (field-independent basis, Debye-Ang):
   XX=           -150.2681   YY=             72.3343   ZZ=           -268.0356
   XY=             90.9915   XZ=            -79.9983   YZ=             51.0348
 Traceless Quadrupole moment (field-independent basis, Debye-Ang):
   XX=            -34.9449   YY=            187.6574   ZZ=           -152.7125
   XY=             90.9915   XZ=            -79.9983   YZ=             51.0348
 Octapole moment (field-independent basis, Debye-Ang**2):
  XXX=          -4145.9612  YYY=           -744.7927  ZZZ=          -6148.2893  XYY=            595.3091
  XXY=           -474.8497  XXZ=          -2373.5380  XZZ=          -2701.2497  YZZ=          -1161.6452
  YYZ=            298.4893  XYZ=            332.3232
 Hexadecapole moment (field-independent basis, Debye-Ang**3):
 XXXX=         -80676.3535 YYYY=         -33615.6140 ZZZZ=        -116944.2879 XXXY=         -29719.9495
 XXXZ=         -52302.6560 YYYX=          -8215.3243 YYYZ=         -11216.4676 ZZZX=         -59867.9734
 ZZZY=         -41939.8502 XXYY=          -7635.8673 XXZZ=         -44395.3548 YYZZ=         -12723.1775
 XXYZ=         -12113.5833 YYXZ=            960.5878 ZZXY=         -13316.3056
 N-N= 2.089383172472D+03 E-N=-8.125714379529D+03  KE= 1.668434355344D+03
 No NMR shielding tensors so no spin-rotation constants.
 Leave Link  601 at Sun Feb 19 22:09:50 2023, MaxMem=  6710886400 cpu:               4.4 elap:               0.2
 (Enter /data0/home/software/g16/l122.exe)
 CPIOFr:  IOpCl= 0 IRwI=-1 IRwCP=  731 ICalc= -1 LCPTot=      598137 Len1MO=     1575263 IndFrg=      598137
 CPIOFr:  IOpCl= 0 IRwI=-1 IRwCP=  731 ICalc=  0 LCPTot=      598137 Len1MO=     1575263 IndFrg=     2173400
 Counterpoise: doing calculation for fragment   1 using the basis set of the full-system, NewBq=T
 Leave Link  122 at Sun Feb 19 22:09:50 2023, MaxMem=  6710886400 cpu:               0.6 elap:               0.0
 (Enter /data0/home/software/g16/l301.exe)
 Basis read from rwf:  (5D, 7F)
 No pseudopotential information found on rwf file.
   625 basis functions,   954 primitive gaussians,   663 cartesian basis functions
    57 alpha electrons       57 beta electrons
       nuclear repulsion energy      1067.3835645845 Hartrees.
 IExCor= 4336 DFT=T Ex+Corr=M062X ExCW=0 ScaHFX=  0.540000
 ScaDFX=  1.000000  1.000000  1.000000  1.000000 ScalE2=  1.000000  1.000000
 IRadAn=      5 IRanWt=     -1 IRanGd=            0 ICorTp=0 IEmpDi=131
 NAtoms=   35 NActive=   35 NUniq=   35 SFac= 1.00D+00 NAtFMM=   60 NAOKFM=F Big=F
 Integral buffers will be    131072 words long.
 Raffenetti 2 integral format.
 Two-electron integral symmetry is turned off.
 R6Disp:  Grimme-D3 Dispersion energy=       -0.0014280733 Hartrees.
 Nuclear repulsion after empirical dispersion term =     1067.3821365112 Hartrees.
 No density basis found on file   718.
 Leave Link  301 at Sun Feb 19 22:09:50 2023, MaxMem=  6710886400 cpu:               1.2 elap:               0.1
 (Enter /data0/home/software/g16/l302.exe)
 NPDir=0 NMtPBC=     1 NCelOv=     1 NCel=       1 NClECP=     1 NCelD=      1
         NCelK=      1 NCelE2=     1 NClLst=     1 CellRange=     0.0.
 One-electron integrals computed using PRISM.
 NBasis=   625 RedAO= T EigKep=  1.97D-06  NBF=   625
 NBsUse=   625 1.00D-06 EigRej= -1.00D+00 NBFU=   625
 Precomputing XC quadrature grid using
 IXCGrd= 4 IRadAn=           5 IRanWt=          -1 IRanGd=           0 AccXCQ= 0.00D+00.
 Generated NRdTot=       0 NPtTot=           0 NUsed=           0 NTot=          32
 NSgBfM=   663   663   663   663   663 MxSgAt=    35 MxSgA2=    35.
 Leave Link  302 at Sun Feb 19 22:09:51 2023, MaxMem=  6710886400 cpu:              17.6 elap:               0.8
 (Enter /data0/home/software/g16/l303.exe)
 DipDrv:  MaxL=1.
 Leave Link  303 at Sun Feb 19 22:09:51 2023, MaxMem=  6710886400 cpu:               1.6 elap:               0.1
 (Enter /data0/home/software/g16/l401.exe)
 ExpMin= 3.48D-02 ExpMax= 9.34D+04 ExpMxC= 3.17D+03 IAcc=3 IRadAn=         5 AccDes= 0.00D+00
 Harris functional with IExCor= 1009 and IRadAn=       5 diagonalized for initial guess.
 HarFok:  IExCor= 1009 AccDes= 0.00D+00 IRadAn=         5 IDoV= 1 UseB2=F ITyADJ=14
 ICtDFT=  3500011 ScaDFX=  1.000000  1.000000  1.000000  1.000000
 FoFCou: FMM=F IPFlag=           0 FMFlag=      100000 FMFlg1=           0
         NFxFlg=           0 DoJE=T BraDBF=F KetDBF=T FulRan=T
         wScrn=  0.000000 ICntrl=       500 IOpCl=  0 I1Cent=   200000004 NGrid=           0
         NMat0=    1 NMatS0=      1 NMatT0=    0 NMatD0=    1 NMtDS0=    0 NMtDT0=    0
 Symmetry not used in FoFCou.
 Harris En= -1028.89263716658    
 JPrj=0 DoOrth=F DoCkMO=F.
 Leave Link  401 at Sun Feb 19 22:09:54 2023, MaxMem=  6710886400 cpu:              67.5 elap:               2.8
 (Enter /data0/home/software/g16/l502.exe)
 Two-electron integral symmetry not used.
 Closed shell SCF:
 Using DIIS extrapolation, IDIIS=  1040.
 NGot=  6710886400 LenX=  6709986778 LenY=  6709546546
 Requested convergence on RMS density matrix=1.00D-08 within 128 cycles.
 Requested convergence on MAX density matrix=1.00D-06.
 Requested convergence on             energy=1.00D-06.
 No special actions if energy rises.
 Fock matrices will be formed incrementally for  20 cycles.

 Cycle   1  Pass 1  IDiag  1:
 FoFJK:  IHMeth= 1 ICntrl=       0 DoSepK=F KAlg= 0 I1Cent=           0 FoldK=F
 IRaf= 860000000 NMat=       1 IRICut=       1 DoRegI=T DoRafI=F ISym2E= 0 IDoP0=0 IntGTp=1.
 FoFCou: FMM=F IPFlag=           0 FMFlag=      100000 FMFlg1=           0
         NFxFlg=           0 DoJE=F BraDBF=F KetDBF=F FulRan=T
         wScrn=  0.000000 ICntrl=         0 IOpCl=  0 I1Cent=           0 NGrid=           0
         NMat0=    1 NMatS0=      1 NMatT0=    0 NMatD0=    1 NMtDS0=    0 NMtDT0=    0
 Symmetry not used in FoFCou.
 E= -1028.75293301111    
 DIIS: error= 1.67D-02 at cycle   1 NSaved=   1.
 NSaved= 1 IEnMin= 1 EnMin= -1028.75293301111     IErMin= 1 ErrMin= 1.67D-02
 ErrMax= 1.67D-02  0.00D+00 EMaxC= 1.00D-01 BMatC= 7.77D-01 BMatP= 7.77D-01
 IDIUse=3 WtCom= 8.33D-01 WtEn= 1.67D-01
 Coeff-Com:  0.100D+01
 Coeff-En:   0.100D+01
 Coeff:      0.100D+01
 Gap=     0.254 Goal=   None    Shift=    0.000
 GapD=    0.254 DampG=1.000 DampE=0.500 DampFc=0.5000 IDamp=-1.
 Damping current iteration by 5.00D-01
 RMSDP=1.04D-02 MaxDP=1.86D+00              OVMax= 1.94D-01

 Cycle   2  Pass 1  IDiag  1:
 RMSU=  5.01D-03    CP:  1.08D+00
 E= -1028.97297778136     Delta-E=       -0.220044770246 Rises=F Damp=T
 DIIS: error= 4.35D-03 at cycle   2 NSaved=   2.
 NSaved= 2 IEnMin= 2 EnMin= -1028.97297778136     IErMin= 2 ErrMin= 4.35D-03
 ErrMax= 4.35D-03  0.00D+00 EMaxC= 1.00D-01 BMatC= 5.53D-02 BMatP= 7.77D-01
 IDIUse=3 WtCom= 9.56D-01 WtEn= 4.35D-02
 Coeff-Com:  0.400D-01 0.960D+00
 Coeff-En:   0.122D+00 0.878D+00
 Coeff:      0.436D-01 0.956D+00
 Gap=     0.199 Goal=   None    Shift=    0.000
 RMSDP=4.59D-03 MaxDP=8.84D-01 DE=-2.20D-01 OVMax= 1.22D-01

 Cycle   3  Pass 1  IDiag  1:
 RMSU=  2.67D-03    CP:  8.77D-01  6.65D-01
 E= -1029.24081035966     Delta-E=       -0.267832578301 Rises=F Damp=F
 DIIS: error= 3.56D-03 at cycle   3 NSaved=   3.
 NSaved= 3 IEnMin= 3 EnMin= -1029.24081035966     IErMin= 3 ErrMin= 3.56D-03
 ErrMax= 3.56D-03  0.00D+00 EMaxC= 1.00D-01 BMatC= 2.41D-02 BMatP= 5.53D-02
 IDIUse=3 WtCom= 9.64D-01 WtEn= 3.56D-02
 Coeff-Com: -0.563D-01 0.377D+00 0.679D+00
 Coeff-En:   0.000D+00 0.000D+00 0.100D+01
 Coeff:     -0.543D-01 0.363D+00 0.691D+00
 Gap=     0.179 Goal=   None    Shift=    0.000
 RMSDP=7.74D-04 MaxDP=1.25D-01 DE=-2.68D-01 OVMax= 4.08D-02

 Cycle   4  Pass 1  IDiag  1:
 RMSU=  6.85D-04    CP:  8.57D-01  6.97D-01  1.01D+00
 E= -1029.25709656512     Delta-E=       -0.016286205458 Rises=F Damp=F
 DIIS: error= 1.58D-03 at cycle   4 NSaved=   4.
 NSaved= 4 IEnMin= 4 EnMin= -1029.25709656512     IErMin= 4 ErrMin= 1.58D-03
 ErrMax= 1.58D-03  0.00D+00 EMaxC= 1.00D-01 BMatC= 3.73D-03 BMatP= 2.41D-02
 IDIUse=3 WtCom= 9.84D-01 WtEn= 1.58D-02
 Coeff-Com: -0.280D-01 0.831D-01 0.336D+00 0.609D+00
 Coeff-En:   0.000D+00 0.000D+00 0.112D+00 0.888D+00
 Coeff:     -0.276D-01 0.818D-01 0.333D+00 0.613D+00
 Gap=     0.183 Goal=   None    Shift=    0.000
 RMSDP=2.87D-04 MaxDP=2.99D-02 DE=-1.63D-02 OVMax= 1.60D-02

 Cycle   5  Pass 1  IDiag  1:
 RMSU=  1.83D-04    CP:  8.53D-01  6.75D-01  1.01D+00  7.39D-01
 E= -1029.26047583594     Delta-E=       -0.003379270818 Rises=F Damp=F
 DIIS: error= 3.45D-04 at cycle   5 NSaved=   5.
 NSaved= 5 IEnMin= 5 EnMin= -1029.26047583594     IErMin= 5 ErrMin= 3.45D-04
 ErrMax= 3.45D-04  0.00D+00 EMaxC= 1.00D-01 BMatC= 1.95D-04 BMatP= 3.73D-03
 IDIUse=3 WtCom= 9.97D-01 WtEn= 3.45D-03
 Coeff-Com: -0.931D-02 0.206D-01 0.117D+00 0.281D+00 0.591D+00
 Coeff-En:   0.000D+00 0.000D+00 0.000D+00 0.000D+00 0.100D+01
 Coeff:     -0.927D-02 0.205D-01 0.117D+00 0.280D+00 0.592D+00
 Gap=     0.184 Goal=   None    Shift=    0.000
 RMSDP=7.94D-05 MaxDP=8.71D-03 DE=-3.38D-03 OVMax= 4.47D-03

 Cycle   6  Pass 1  IDiag  1:
 RMSU=  5.57D-05    CP:  8.53D-01  6.75D-01  1.02D+00  7.89D-01  7.80D-01
 E= -1029.26063120788     Delta-E=       -0.000155371940 Rises=F Damp=F
 DIIS: error= 1.03D-04 at cycle   6 NSaved=   6.
 NSaved= 6 IEnMin= 6 EnMin= -1029.26063120788     IErMin= 6 ErrMin= 1.03D-04
 ErrMax= 1.03D-04  0.00D+00 EMaxC= 1.00D-01 BMatC= 2.66D-05 BMatP= 1.95D-04
 IDIUse=3 WtCom= 9.99D-01 WtEn= 1.03D-03
 Coeff-Com: -0.141D-02 0.560D-03 0.200D-01 0.718D-01 0.308D+00 0.602D+00
 Coeff-En:   0.000D+00 0.000D+00 0.000D+00 0.000D+00 0.327D-01 0.967D+00
 Coeff:     -0.141D-02 0.560D-03 0.200D-01 0.717D-01 0.307D+00 0.602D+00
 Gap=     0.184 Goal=   None    Shift=    0.000
 RMSDP=2.55D-05 MaxDP=2.59D-03 DE=-1.55D-04 OVMax= 1.12D-03

 Cycle   7  Pass 1  IDiag  1:
 RMSU=  2.21D-05    CP:  8.53D-01  6.76D-01  1.02D+00  8.03D-01  7.67D-01
                    CP:  9.90D-01
 E= -1029.26065261169     Delta-E=       -0.000021403817 Rises=F Damp=F
 DIIS: error= 2.54D-05 at cycle   7 NSaved=   7.
 NSaved= 7 IEnMin= 7 EnMin= -1029.26065261169     IErMin= 7 ErrMin= 2.54D-05
 ErrMax= 2.54D-05  0.00D+00 EMaxC= 1.00D-01 BMatC= 1.33D-06 BMatP= 2.66D-05
 IDIUse=1 WtCom= 1.00D+00 WtEn= 0.00D+00
 Coeff-Com:  0.370D-03-0.170D-02-0.390D-02 0.505D-03 0.675D-01 0.223D+00
 Coeff-Com:  0.714D+00
 Coeff:      0.370D-03-0.170D-02-0.390D-02 0.505D-03 0.675D-01 0.223D+00
 Coeff:      0.714D+00
 Gap=     0.184 Goal=   None    Shift=    0.000
 RMSDP=1.62D-05 MaxDP=3.43D-03 DE=-2.14D-05 OVMax= 2.34D-04

 Cycle   8  Pass 1  IDiag  1:
 RMSU=  5.78D-06    CP:  8.53D-01  6.73D-01  1.02D+00  8.04D-01  7.85D-01
                    CP:  1.03D+00  8.54D-01
 E= -1029.26065381277     Delta-E=       -0.000001201075 Rises=F Damp=F
 DIIS: error= 8.61D-06 at cycle   8 NSaved=   8.
 NSaved= 8 IEnMin= 8 EnMin= -1029.26065381277     IErMin= 8 ErrMin= 8.61D-06
 ErrMax= 8.61D-06  0.00D+00 EMaxC= 1.00D-01 BMatC= 1.68D-07 BMatP= 1.33D-06
 IDIUse=1 WtCom= 1.00D+00 WtEn= 0.00D+00
 Coeff-Com:  0.308D-03-0.689D-03-0.429D-02-0.933D-02-0.117D-01 0.187D-02
 Coeff-Com:  0.269D+00 0.755D+00
 Coeff:      0.308D-03-0.689D-03-0.429D-02-0.933D-02-0.117D-01 0.187D-02
 Coeff:      0.269D+00 0.755D+00
 Gap=     0.184 Goal=   None    Shift=    0.000
 RMSDP=2.62D-06 MaxDP=3.00D-04 DE=-1.20D-06 OVMax= 1.43D-04

 Cycle   9  Pass 1  IDiag  1:
 RMSU=  1.82D-06    CP:  8.53D-01  6.73D-01  1.02D+00  8.05D-01  7.91D-01
                    CP:  1.03D+00  8.93D-01  9.99D-01
 E= -1029.26065396485     Delta-E=       -0.000000152083 Rises=F Damp=F
 DIIS: error= 3.81D-06 at cycle   9 NSaved=   9.
 NSaved= 9 IEnMin= 9 EnMin= -1029.26065396485     IErMin= 9 ErrMin= 3.81D-06
 ErrMax= 3.81D-06  0.00D+00 EMaxC= 1.00D-01 BMatC= 3.20D-08 BMatP= 1.68D-07
 IDIUse=1 WtCom= 1.00D+00 WtEn= 0.00D+00
 Coeff-Com:  0.131D-03-0.247D-03-0.204D-02-0.502D-02-0.103D-01-0.139D-01
 Coeff-Com:  0.930D-01 0.399D+00 0.539D+00
 Coeff:      0.131D-03-0.247D-03-0.204D-02-0.502D-02-0.103D-01-0.139D-01
 Coeff:      0.930D-01 0.399D+00 0.539D+00
 Gap=     0.184 Goal=   None    Shift=    0.000
 RMSDP=9.62D-07 MaxDP=9.74D-05 DE=-1.52D-07 OVMax= 4.39D-05

 Cycle  10  Pass 1  IDiag  1:
[...]
 FoFCou: FMM=F IPFlag=           0 FMFlag=      100000 FMFlg1=           0
         NFxFlg=           0 DoJE=T BraDBF=F KetDBF=T FulRan=T
         wScrn=  0.000000 ICntrl=       500 IOpCl=  0 I1Cent=   200000004 NGrid=           0
         NMat0=    1 NMatS0=      1 NMatT0=    0 NMatD0=    1 NMtDS0=    0 NMtDT0=    0
 Symmetry not used in FoFCou.
 Harris En= -643.928847821696    
 JPrj=0 DoOrth=F DoCkMO=F.
 Leave Link  401 at Sun Feb 19 22:16:35 2023, MaxMem=  6710886400 cpu:               5.9 elap:               0.3
 (Enter /data0/home/software/g16/l502.exe)
 Keep R1 ints in memory in canonical form, NReq=108966875.
 FoFCou: FMM=F IPFlag=           0 FMFlag=           0 FMFlg1=           0
         NFxFlg=           0 DoJE=F BraDBF=F KetDBF=F FulRan=T
         wScrn=  0.000000 ICntrl=       600 IOpCl=  0 I1Cent=           0 NGrid=           0
         NMat0=    1 NMatS0=  13041 NMatT0=    0 NMatD0=    1 NMtDS0=    0 NMtDT0=    0
 Symmetry not used in FoFCou.
 Two-electron integral symmetry not used.
 Closed shell SCF:
 Using DIIS extrapolation, IDIIS=  1040.
 NGot=  6710886400 LenX=  6625781341 LenY=  6625751659
 Requested convergence on RMS density matrix=1.00D-08 within 128 cycles.
 Requested convergence on MAX density matrix=1.00D-06.
 Requested convergence on             energy=1.00D-06.
 No special actions if energy rises.

 Cycle   1  Pass 1  IDiag  1:
 E= -643.834051349028    
 DIIS: error= 4.73D-02 at cycle   1 NSaved=   1.
 NSaved= 1 IEnMin= 1 EnMin= -643.834051349028     IErMin= 1 ErrMin= 4.73D-02
 ErrMax= 4.73D-02  0.00D+00 EMaxC= 1.00D-01 BMatC= 5.07D-01 BMatP= 5.07D-01
 IDIUse=3 WtCom= 5.27D-01 WtEn= 4.73D-01
 Coeff-Com:  0.100D+01
 Coeff-En:   0.100D+01
 Coeff:      0.100D+01
 Gap=     0.203 Goal=   None    Shift=    0.000
 GapD=    0.203 DampG=1.000 DampE=0.500 DampFc=0.5000 IDamp=-1.
 Damping current iteration by 5.00D-01
 RMSDP=7.23D-03 MaxDP=1.81D-01              OVMax= 2.56D-01

 Cycle   2  Pass 1  IDiag  1:
 E= -643.952344262719     Delta-E=       -0.118292913691 Rises=F Damp=T
 DIIS: error= 9.87D-03 at cycle   2 NSaved=   2.
 NSaved= 2 IEnMin= 2 EnMin= -643.952344262719     IErMin= 2 ErrMin= 9.87D-03
 ErrMax= 9.87D-03  0.00D+00 EMaxC= 1.00D-01 BMatC= 2.68D-02 BMatP= 5.07D-01
 IDIUse=3 WtCom= 9.01D-01 WtEn= 9.87D-02
 Coeff-Com:  0.733D-01 0.927D+00
 Coeff-En:   0.202D+00 0.798D+00
 Coeff:      0.860D-01 0.914D+00
 Gap=     0.326 Goal=   None    Shift=    0.000
 RMSDP=1.65D-03 MaxDP=5.79D-02 DE=-1.18D-01 OVMax= 1.64D-01

 Cycle   3  Pass 1  IDiag  1:
 E= -644.120380895501     Delta-E=       -0.168036632782 Rises=F Damp=F
 DIIS: error= 7.29D-03 at cycle   3 NSaved=   3.
 NSaved= 3 IEnMin= 3 EnMin= -644.120380895501     IErMin= 3 ErrMin= 7.29D-03
 ErrMax= 7.29D-03  0.00D+00 EMaxC= 1.00D-01 BMatC= 8.76D-03 BMatP= 2.68D-02
 IDIUse=3 WtCom= 9.27D-01 WtEn= 7.29D-02
 Coeff-Com: -0.147D-01 0.316D+00 0.699D+00
 Coeff-En:   0.000D+00 0.000D+00 0.100D+01
 Coeff:     -0.137D-01 0.293D+00 0.721D+00
 Gap=     0.315 Goal=   None    Shift=    0.000
 RMSDP=6.74D-04 MaxDP=1.48D-02 DE=-1.68D-01 OVMax= 3.51D-02

 Cycle   4  Pass 1  IDiag  1:
 E= -644.123659384632     Delta-E=       -0.003278489131 Rises=F Damp=F
 DIIS: error= 4.17D-03 at cycle   4 NSaved=   4.
 NSaved= 4 IEnMin= 4 EnMin= -644.123659384632     IErMin= 4 ErrMin= 4.17D-03
 ErrMax= 4.17D-03  0.00D+00 EMaxC= 1.00D-01 BMatC= 4.33D-03 BMatP= 8.76D-03
 IDIUse=3 WtCom= 9.58D-01 WtEn= 4.17D-02
 Coeff-Com: -0.203D-01 0.470D-01 0.434D+00 0.539D+00
 Coeff-En:   0.000D+00 0.000D+00 0.336D+00 0.664D+00
 Coeff:     -0.194D-01 0.450D-01 0.430D+00 0.544D+00
 Gap=     0.324 Goal=   None    Shift=    0.000
 RMSDP=2.81D-04 MaxDP=6.59D-03 DE=-3.28D-03 OVMax= 1.26D-02

 Cycle   5  Pass 1  IDiag  1:
 E= -644.126582021801     Delta-E=       -0.002922637169 Rises=F Damp=F
 DIIS: error= 2.84D-04 at cycle   5 NSaved=   5.
 NSaved= 5 IEnMin= 5 EnMin= -644.126582021801     IErMin= 5 ErrMin= 2.84D-04
 ErrMax= 2.84D-04  0.00D+00 EMaxC= 1.00D-01 BMatC= 1.74D-05 BMatP= 4.33D-03
 IDIUse=3 WtCom= 9.97D-01 WtEn= 2.84D-03
 Coeff-Com: -0.214D-02-0.454D-03 0.645D-01 0.114D+00 0.824D+00
 Coeff-En:   0.000D+00 0.000D+00 0.000D+00 0.000D+00 0.100D+01
 Coeff:     -0.213D-02-0.453D-03 0.643D-01 0.114D+00 0.824D+00
 Gap=     0.323 Goal=   None    Shift=    0.000
 RMSDP=2.87D-05 MaxDP=7.35D-04 DE=-2.92D-03 OVMax= 9.55D-04

 Cycle   6  Pass 1  IDiag  1:
 E= -644.126593508270     Delta-E=       -0.000011486469 Rises=F Damp=F
 DIIS: error= 7.01D-05 at cycle   6 NSaved=   6.
 NSaved= 6 IEnMin= 6 EnMin= -644.126593508270     IErMin= 6 ErrMin= 7.01D-05
 ErrMax= 7.01D-05  0.00D+00 EMaxC= 1.00D-01 BMatC= 1.76D-06 BMatP= 1.74D-05
 IDIUse=1 WtCom= 1.00D+00 WtEn= 0.00D+00
 Coeff-Com:  0.344D-04-0.187D-02 0.437D-02 0.158D-01 0.262D+00 0.720D+00
 Coeff:      0.344D-04-0.187D-02 0.437D-02 0.158D-01 0.262D+00 0.720D+00
 Gap=     0.323 Goal=   None    Shift=    0.000
 RMSDP=1.06D-05 MaxDP=2.05D-04 DE=-1.15D-05 OVMax= 2.72D-04

 Cycle   7  Pass 1  IDiag  1:
 E= -644.126594671186     Delta-E=       -0.000001162916 Rises=F Damp=F
 DIIS: error= 3.83D-05 at cycle   7 NSaved=   7.
 NSaved= 7 IEnMin= 7 EnMin= -644.126594671186     IErMin= 7 ErrMin= 3.83D-05
 ErrMax= 3.83D-05  0.00D+00 EMaxC= 1.00D-01 BMatC= 4.32D-07 BMatP= 1.76D-06
 IDIUse=1 WtCom= 1.00D+00 WtEn= 0.00D+00
 Coeff-Com:  0.420D-03-0.713D-03-0.108D-01-0.149D-01-0.306D-01 0.330D+00
 Coeff-Com:  0.726D+00
 Coeff:      0.420D-03-0.713D-03-0.108D-01-0.149D-01-0.306D-01 0.330D+00
 Coeff:      0.726D+00
 Gap=     0.323 Goal=   None    Shift=    0.000
 RMSDP=4.64D-06 MaxDP=8.25D-05 DE=-1.16D-06 OVMax= 1.32D-04

 Cycle   8  Pass 1  IDiag  1:
 E= -644.126594984021     Delta-E=       -0.000000312835 Rises=F Damp=F
 DIIS: error= 9.13D-06 at cycle   8 NSaved=   8.
 NSaved= 8 IEnMin= 8 EnMin= -644.126594984021     IErMin= 8 ErrMin= 9.13D-06
 ErrMax= 9.13D-06  0.00D+00 EMaxC= 1.00D-01 BMatC= 3.20D-08 BMatP= 4.32D-07
 IDIUse=1 WtCom= 1.00D+00 WtEn= 0.00D+00
 Coeff-Com:  0.158D-03-0.190D-03-0.461D-02-0.647D-02-0.205D-01 0.952D-01
 Coeff-Com:  0.305D+00 0.632D+00
 Coeff:      0.158D-03-0.190D-03-0.461D-02-0.647D-02-0.205D-01 0.952D-01
 Coeff:      0.305D+00 0.632D+00
 Gap=     0.323 Goal=   None    Shift=    0.000
 RMSDP=8.99D-07 MaxDP=2.77D-05 DE=-3.13D-07 OVMax= 3.45D-05

 Cycle   9  Pass 1  IDiag  1:
 E= -644.126595008879     Delta-E=       -0.000000024858 Rises=F Damp=F
 DIIS: error= 1.88D-06 at cycle   9 NSaved=   9.
 NSaved= 9 IEnMin= 9 EnMin= -644.126595008879     IErMin= 9 ErrMin= 1.88D-06
 ErrMax= 1.88D-06  0.00D+00 EMaxC= 1.00D-01 BMatC= 1.17D-09 BMatP= 3.20D-08
 IDIUse=1 WtCom= 1.00D+00 WtEn= 0.00D+00
 Coeff-Com: -0.239D-04 0.512D-04 0.209D-03 0.430D-03-0.948D-03-0.180D-01
 Coeff-Com: -0.211D-01 0.928D-01 0.947D+00
 Coeff:     -0.239D-04 0.512D-04 0.209D-03 0.430D-03-0.948D-03-0.180D-01
 Coeff:     -0.211D-01 0.928D-01 0.947D+00
 Gap=     0.323 Goal=   None    Shift=    0.000
 RMSDP=4.10D-07 MaxDP=9.44D-06 DE=-2.49D-08 OVMax= 1.32D-05

 Cycle  10  Pass 1  IDiag  1:
 E= -644.126595010174     Delta-E=       -0.000000001295 Rises=F Damp=F
 DIIS: error= 8.43D-07 at cycle  10 NSaved=  10.
 NSaved=10 IEnMin=10 EnMin= -644.126595010174     IErMin=10 ErrMin= 8.43D-07
 ErrMax= 8.43D-07  0.00D+00 EMaxC= 1.00D-01 BMatC= 2.62D-10 BMatP= 1.17D-09
 IDIUse=1 WtCom= 1.00D+00 WtEn= 0.00D+00
 Coeff-Com: -0.186D-04 0.335D-04 0.327D-03 0.531D-03 0.564D-03-0.138D-01
 Coeff-Com: -0.268D-01 0.950D-02 0.451D+00 0.579D+00
 Coeff:     -0.186D-04 0.335D-04 0.327D-03 0.531D-03 0.564D-03-0.138D-01
 Coeff:     -0.268D-01 0.950D-02 0.451D+00 0.579D+00
 Gap=     0.323 Goal=   None    Shift=    0.000
 RMSDP=9.13D-08 MaxDP=2.36D-06 DE=-1.30D-09 OVMax= 3.21D-06

 Cycle  11  Pass 1  IDiag  1:
 E= -644.126595010377     Delta-E=       -0.000000000203 Rises=F Damp=F
 DIIS: error= 2.34D-07 at cycle  11 NSaved=  11.
 NSaved=11 IEnMin=11 EnMin= -644.126595010377     IErMin=11 ErrMin= 2.34D-07
 ErrMax= 2.34D-07  0.00D+00 EMaxC= 1.00D-01 BMatC= 1.82D-11 BMatP= 2.62D-10
 IDIUse=1 WtCom= 1.00D+00 WtEn= 0.00D+00
 Coeff-Com:  0.795D-06-0.215D-05 0.369D-04 0.486D-04 0.325D-03-0.429D-03
 Coeff-Com: -0.352D-02-0.142D-01-0.484D-01 0.175D+00 0.891D+00
 Coeff:      0.795D-06-0.215D-05 0.369D-04 0.486D-04 0.325D-03-0.429D-03
 Coeff:     -0.352D-02-0.142D-01-0.484D-01 0.175D+00 0.891D+00
 Gap=     0.323 Goal=   None    Shift=    0.000
 RMSDP=4.66D-08 MaxDP=1.08D-06 DE=-2.03D-10 OVMax= 1.75D-06

 Cycle  12  Pass 1  IDiag  1:
 E= -644.126595010398     Delta-E=       -0.000000000021 Rises=F Damp=F
 DIIS: error= 2.81D-08 at cycle  12 NSaved=  12.
 NSaved=12 IEnMin=12 EnMin= -644.126595010398     IErMin=12 ErrMin= 2.81D-08
 ErrMax= 2.81D-08  0.00D+00 EMaxC= 1.00D-01 BMatC= 2.97D-13 BMatP= 1.82D-11
 IDIUse=1 WtCom= 1.00D+00 WtEn= 0.00D+00
 Coeff-Com:  0.755D-06-0.133D-05-0.109D-04-0.185D-04-0.234D-04 0.509D-03
 Coeff-Com:  0.124D-02-0.148D-03-0.212D-01-0.240D-01 0.214D-01 0.102D+01
 Coeff:      0.755D-06-0.133D-05-0.109D-04-0.185D-04-0.234D-04 0.509D-03
 Coeff:      0.124D-02-0.148D-03-0.212D-01-0.240D-01 0.214D-01 0.102D+01
 Gap=     0.323 Goal=   None    Shift=    0.000
 RMSDP=1.19D-08 MaxDP=2.84D-07 DE=-2.09D-11 OVMax= 4.25D-07

 Cycle  13  Pass 1  IDiag  1:
 E= -644.126595010403     Delta-E=       -0.000000000005 Rises=F Damp=F
 DIIS: error= 8.10D-09 at cycle  13 NSaved=  13.
 NSaved=13 IEnMin=13 EnMin= -644.126595010403     IErMin=13 ErrMin= 8.10D-09
 ErrMax= 8.10D-09  0.00D+00 EMaxC= 1.00D-01 BMatC= 2.17D-14 BMatP= 2.97D-13
 IDIUse=1 WtCom= 1.00D+00 WtEn= 0.00D+00
 Coeff-Com: -0.198D-07 0.131D-07-0.268D-05-0.305D-05-0.138D-04 0.837D-04
 Coeff-Com:  0.310D-03 0.642D-03 0.781D-03-0.117D-01-0.494D-01 0.105D+00
 Coeff-Com:  0.955D+00
 Coeff:     -0.198D-07 0.131D-07-0.268D-05-0.305D-05-0.138D-04 0.837D-04
 Coeff:      0.310D-03 0.642D-03 0.781D-03-0.117D-01-0.494D-01 0.105D+00
 Coeff:      0.955D+00
 Gap=     0.323 Goal=   None    Shift=    0.000
 RMSDP=2.67D-09 MaxDP=7.26D-08 DE=-4.77D-12 OVMax= 1.01D-07

 SCF Done:  E(RM062X) =  -644.126595010     A.U. after   13 cycles
            NFock= 13  Conv=0.27D-08     -V/T= 2.0027
 KE= 6.423914796537D+02 PE=-2.086408661497D+03 EE= 5.205011034598D+02
 Leave Link  502 at Sun Feb 19 22:16:41 2023, MaxMem=  6710886400 cpu:             105.5 elap:               5.8
 (Enter /data0/home/software/g16/l601.exe)
 Copying SCF densities to generalized density rwf, IOpCl= 0 IROHF=0.

 **********************************************************************

            Population analysis using the SCF density.

 **********************************************************************

 Alpha  occ. eigenvalues --  -78.16896 -19.69908 -19.68936 -19.67500 -19.57860
 Alpha  occ. eigenvalues --   -6.97654  -5.09573  -5.09563  -5.09307  -1.24258
 Alpha  occ. eigenvalues --   -1.17281  -1.16186  -1.07393  -0.72972  -0.65470
 Alpha  occ. eigenvalues --   -0.60360  -0.57786  -0.55277  -0.51922  -0.50860
 Alpha  occ. eigenvalues --   -0.46316  -0.45332  -0.44048  -0.37000  -0.36324
 Alpha virt. eigenvalues --   -0.04001   0.01137   0.02522   0.04267   0.07056
 Alpha virt. eigenvalues --    0.08867   0.11585   0.14302   0.15250   0.17250
 Alpha virt. eigenvalues --    0.17588   0.18641   0.18942   0.20869   0.21377
 Alpha virt. eigenvalues --    0.21482   0.24167   0.25638   0.26669   0.27115
 Alpha virt. eigenvalues --    0.29129   0.29303   0.29742   0.31040   0.33188
 Alpha virt. eigenvalues --    0.34936   0.36470   0.38625   0.39443   0.42951
 Alpha virt. eigenvalues --    0.43823   0.47178   0.49701   0.54958   0.58148
 Alpha virt. eigenvalues --    0.74294   0.76216   0.77827   0.84563   0.95885
 Alpha virt. eigenvalues --    1.00072   1.01469   1.05022   1.07326   1.11981
 Alpha virt. eigenvalues --    1.13188   1.14896   1.17674   1.20133   1.21262
 Alpha virt. eigenvalues --    1.21721   1.22091   1.25169   1.28346   1.30294
 Alpha virt. eigenvalues --    1.36450   1.41115   1.46846   1.49824   1.50375
 Alpha virt. eigenvalues --    1.54257   1.54719   1.56357   1.59448   1.63400
 Alpha virt. eigenvalues --    1.63977   1.68198   1.68938   1.71560   1.81515
 Alpha virt. eigenvalues --    1.82853   1.85693   1.87015   1.91274   1.95545
 Alpha virt. eigenvalues --    1.99536   2.00759   2.08377   2.11394   2.13943
 Alpha virt. eigenvalues --    2.17753   2.19981   2.23891   2.39094   2.42967
 Alpha virt. eigenvalues --    2.47309   2.54929   2.59793   2.61221   2.66689
 Alpha virt. eigenvalues --    2.74574   2.81326   2.82133   2.88523   2.96470
 Alpha virt. eigenvalues --    5.00843   5.03777   5.05835   5.07296   5.09270
 Alpha virt. eigenvalues --    5.14320   5.19148   5.24499   5.33853   5.35561
 Alpha virt. eigenvalues --    5.42169   5.51510   6.72188   6.75175   6.75606
 Alpha virt. eigenvalues --    6.76399   6.77186   6.80299   6.82762   6.86591
 Alpha virt. eigenvalues --    6.90672   6.93395   6.96245   6.98382   7.00360
 Alpha virt. eigenvalues --    7.01231   7.11955   7.21406   7.26794   7.29097
 Alpha virt. eigenvalues --    7.33077   7.38089   7.64464  14.23121  14.25908
 Alpha virt. eigenvalues --   14.31613  49.97661  49.99029  50.00720  50.10034
 Alpha virt. eigenvalues --  163.85640
          Condensed to atoms (all electrons):
              28         29         30         31         32         33
    28  P   12.489421   0.528165   0.270500  -0.004443   0.238488   0.000306
    29  O    0.528165   8.193873  -0.028478  -0.017245  -0.000842  -0.008121
    30  O    0.270500  -0.028478   8.027257   0.278407  -0.028643   0.000240
    31  H   -0.004443  -0.017245   0.278407   0.408333   0.000884  -0.000867
    32  O    0.238488  -0.000842  -0.028643   0.000884   8.036253   0.249032
    33  H    0.000306  -0.008121   0.000240  -0.000867   0.249032   0.442685
    34  O    0.247601   0.008074   0.000217  -0.001047   0.015407  -0.003807
    35  H   -0.003829  -0.022059   0.001316   0.000925  -0.002044  -0.004541
              34         35
    28  P    0.247601  -0.003829
    29  O    0.008074  -0.022059
    30  O    0.000217   0.001316
    31  H   -0.001047   0.000925
    32  O    0.015407  -0.002044
    33  H   -0.003807  -0.004541
    34  O    8.010605   0.253162
    35  H    0.253162   0.458056
 Mulliken charges:
               1
     1  C    0.000000
     2  C    0.000000
     3  C    0.000000
     4  C    0.000000
     5  C    0.000000
     6  H    0.000000
     7  H    0.000000
     8  H    0.000000
     9  H    0.000000
    10  C    0.000000
    11  H    0.000000
    12  H    0.000000
    13  H    0.000000
    14  N    0.000000
    15  C    0.000000
    16  H    0.000000
    17  H    0.000000
    18  C    0.000000
    19  H    0.000000
    20  H    0.000000
    21  C    0.000000
    22  H    0.000000
    23  H    0.000000
    24  S    0.000000
    25  O    0.000000
    26  O    0.000000
    27  O    0.000000
    28  P    1.233790
    29  O   -0.653367
    30  O   -0.520815
    31  H    0.335053
    32  O   -0.508537
    33  H    0.325073
    34  O   -0.530211
    35  H    0.319013
 Sum of Mulliken charges =  -0.00000
 Mulliken charges with hydrogens summed into heavy atoms:
               1
     1  C    0.000000
     2  C    0.000000
     3  C    0.000000
     4  C    0.000000
     5  C    0.000000
    10  C    0.000000
    14  N    0.000000
    15  C    0.000000
    18  C    0.000000
    21  C    0.000000
    24  S    0.000000
    25  O    0.000000
    26  O    0.000000
    27  O    0.000000
    28  P    1.233790
    29  O   -0.653367
    30  O   -0.185762
    32  O   -0.183463
    34  O   -0.211198
         Mulliken charges condensed to fragments:
      1      0.000000
      2     -0.000000
 Electronic spatial extent (au):  <R**2>=          57038.6584
 Charge=             -0.0000 electrons
 Dipole moment (field-independent basis, Debye):
    X=             -2.7663    Y=             -1.9071    Z=              0.4545  Tot=              3.3906
 Quadrupole moment (field-independent basis, Debye-Ang):
   XX=            -92.7101   YY=            -76.6625   ZZ=            -21.1936
   XY=            -42.5608   XZ=            -30.6717   YZ=            -20.3898
 Traceless Quadrupole moment (field-independent basis, Debye-Ang):
   XX=            -29.1881   YY=            -13.1404   ZZ=             42.3285
   XY=            -42.5608   XZ=            -30.6717   YZ=            -20.3898
 Octapole moment (field-independent basis, Debye-Ang**2):
  XXX=          -2121.9152  YYY=          -1570.6168  ZZZ=           -810.4584  XYY=          -1034.2000
  XXY=           -976.9445  XXZ=          -1068.4221  XZZ=           -693.1004  YZZ=           -482.3542
  YYZ=           -843.8776  XYZ=           -510.1602
 Hexadecapole moment (field-independent basis, Debye-Ang**3):
 XXXX=         -40994.4146 YYYY=         -25039.3802 ZZZZ=         -18045.9487 XXXY=         -19891.3205
 XXXZ=         -24224.9312 YYYX=         -19180.4478 YYYZ=         -17125.7433 ZZZX=         -14827.7660
 ZZZY=         -10603.7324 XXYY=         -15855.3964 XXZZ=         -16335.5478 YYZZ=         -11597.1002
 XXYZ=         -11649.1926 YYXZ=         -11817.9385 ZZXY=          -9057.4004
 N-N= 2.793894833728D+02 E-N=-2.086408661156D+03  KE= 6.423914796537D+02
 No NMR shielding tensors so no spin-rotation constants.
 Leave Link  601 at Sun Feb 19 22:16:41 2023, MaxMem=  6710886400 cpu:               2.0 elap:               0.1
 (Enter /data0/home/software/g16/l122.exe)
 CPIOFr:  IOpCl= 0 IRwI=-1 IRwCP=  731 ICalc=  4 LCPTot=      598137 Len1MO=     1575263 IndFrg=     8474452
 Restoring MOs from calculation   1 to rwf.
 CPIOFr:  IOpCl= 0 IRwI=-2 IRwCP=  731 ICalc=  0 LCPTot=      598137 Len1MO=     1575263 IndFrg=     2173400
 Counterpoise corrected energy =   -1673.465064954484
                   BSSE energy =       0.004495745282
              sum of fragments =   -1673.385760051798
           complexation energy =     -52.59 kcal/mole (raw)
           complexation energy =     -49.76 kcal/mole (corrected)
 Leave Link  122 at Sun Feb 19 22:16:41 2023, MaxMem=  6710886400 cpu:               0.5 elap:               0.0
 (Enter /data0/home/software/g16/l9999.exe)
 1\1\GINC-LOCALHOST\SP\RM062X\6-311+G(2d,p)\C9H16N1O7P1S1\WUHANYU\19-Fe
 b-2023\0\\#p M062X/6-311+G(2d,p) nosymm em=GD3 counterpoise=2\\Title C
 ard Required\\0,1\C,0,10.183452,12.079111,9.760909\C,0,10.949692,11.90
 0079,8.612488\C,0,10.577915,10.939851,7.671365\C,0,9.43153,10.175186,7
 .893573\C,0,8.664008,10.40972,9.045721\H,0,11.210348,10.759018,6.79626
 8\H,0,10.491507,12.769503,10.553958\H,0,11.86517,12.484553,8.474641\H,
 0,7.772113,9.788819,9.280464\C,0,9.040711,9.080736,6.971782\H,0,7.9603
 83,8.881871,6.965992\H,0,9.354,9.259968,5.935282\H,0,9.527454,8.132466
 ,7.292276\N,0,9.036146,11.360701,9.940514\C,0,8.181946,11.643653,11.11
 9849\H,0,7.914575,12.723656,11.097765\H,0,7.220566,11.079476,11.012576
 \C,0,8.861905,11.284143,12.456052\H,0,9.897868,10.904862,12.290622\H,0
 ,9.003604,12.206875,13.053582\C,0,8.061262,10.273473,13.26402\H,0,7.00
 9207,10.581255,13.374706\H,0,8.459906,10.213572,14.294885\S,0,8.111146
 ,8.588455,12.574903\O,0,8.132268,8.813334,11.080816\O,0,6.908506,7.940
 652,13.07265\O,0,9.41161,8.029127,13.031851\P,0,11.558873,8.709567,10.
 474772\O,0,11.542325,10.183315,10.687734\O,0,12.77813,8.221746,9.56362
 3\H,0,12.92472,8.965293,8.851334\O,0,11.754249,7.835016,11.757545\H,0,
 10.795986,7.884341,12.311098\O,0,10.300349,8.225548,9.649944\H,0,9.408
 422,8.377296,10.245155\\Version=ES64L-G16RevA.03\HF=-644.126595\RMSD=2
 .673e-09\Dipole=-0.2930434,4.0911903,-2.8254628\Quadrupole=-26.8274807
 ,140.1306945,-113.3032138,67.7987222,-59.8038156,38.4624803\PG=C01 [X(
 C9H16N1O7P1S1)]\\@



 WE LOSE BECAUSE WE WIN

 GAMBLERS,

 RECOLLECTING WHICH,

 TOSS THEIR DICE AGAIN....


                          EMILY DICKINSON  BOLTS OF MELODY NO. 533
 Job cpu time:       0 days  3 hours 58 minutes 39.1 seconds.
 Elapsed time:       0 days  0 hours 10 minutes  0.7 seconds.
 File lengths (MBytes):  RWF=    293 Int=      0 D2E=      0 Chk=     87 Scr=      1
 Normal termination of Gaussian 16 at Sun Feb 19 22:16:42 2023.
