          22
 G =       -0.378362 Gcorr = 0.098998 a.u. Nimag =   0 Frame:     1 Step:     1 Geom:     1
C           6.42629300     12.28464700     12.62116100
C           5.55428600     11.98905200     13.67497900
C           5.72434300     12.65634400     14.88745800
C           6.74976800     13.59006700     15.01444000
C           7.58062900     13.83047100     13.91167300
N           7.41579800     13.19053900     12.73904700
H           5.06163600     12.44774300     15.72692200
H           6.34576500     11.78972000     11.64618200
H           4.76472000     11.25473400     13.54844100
H           6.90910900     14.12272700     15.94718900
H           8.40924700     14.55415000     13.95667100
P          10.83760400     13.88611800     11.45904500
O          11.91125400     14.28469900     10.55507000
O          10.58895000     14.87898900     12.69558000
H          10.94145900     15.81436800     12.45492000
O           9.44092200     13.71862500     10.75566300
H           8.71823700     13.45373500     11.49478500
O          10.98017500     12.49190000     12.23045300
H          11.82711000     12.52942800     12.80495900
O          11.71898200     17.40223100     11.68594600
H          11.18095700     17.49109800     10.89391500
H          12.53276800     16.98862500     11.37551400
          22
 G =       -0.377861 Gcorr = 0.102624 a.u. Nimag =   0 Frame:     2 Step:     2 Geom:     2
C           8.04887500     12.21431900     13.49422700
C           8.38314600     12.79812800     14.72105000
C           7.96982000     14.10640800     14.97192800
C           7.23064500     14.78528900     14.00470100
C           6.93438700     14.12829600     12.80446200
N           7.33731200     12.86506000     12.55149200
H           8.23974700     14.59922100     15.90695200
H           8.37063200     11.20123400     13.23036100
H           8.96337200     12.24971500     15.45453800
H           6.90980900     15.80919300     14.16484600
H           6.37992600     14.62172500     11.99730600
P          10.11456800     14.11725900     11.02836800
O          11.12789000     14.70466900     10.17403700
O           9.21236800     15.10573400     11.89675000
H           9.56644200     15.13219800     12.86932800
O           9.07081500     13.23480600     10.24295800
H           8.30532400     12.92543600     10.89744500
O          10.66743900     13.16692500     12.22107300
H          11.39211800     12.55557500     11.87836200
O          10.44270700     14.90608800     14.63936200
H          11.25111500     15.41207600     14.54384300
H          10.64155100     14.04066100     14.25662400
          22
 G =       -0.378312 Gcorr = 0.098607 a.u. Nimag =   0 Frame:     3 Step:     3 Geom:     3
C           7.62298100     13.29125800     15.44223400
C           6.38417500     12.70932300     15.73252400
C           5.60613500     12.23711500     14.67591400
C           6.08089700     12.35725500     13.37249000
C           7.33275900     12.95272100     13.16425400
N           8.08514600     13.40957900     14.18262100
H           4.63691400     11.77845000     14.86983200
H           8.27899600     13.67957200     16.22994000
H           6.03936600     12.62810500     16.75870000
H           5.49834700     11.99836900     12.52923000
H           7.75591700     13.07212300     12.15418300
P          10.71854600     14.68859700     11.89473300
O          11.97116000     15.26085300     11.41281800
O          10.38355000     13.18111800     11.48321600
H          10.85890300     12.98424400     10.58231600
O          10.57338500     14.67848900     13.46217900
H           9.68339600     14.15129300     13.71953300
O           9.37828800     15.38050400     11.33808200
H           9.43714900     16.38329000     11.50697600
O          11.97321900     12.87001700      9.03118200
H          11.75173500     13.68268300      8.56720300
H          12.80904700     13.06505100      9.46984900
          22
 G =       -0.378279 Gcorr = 0.098640 a.u. Nimag =   0 Frame:     4 Step:     4 Geom:     4
C           7.51207400     13.53057500     15.46205700
C           6.22493100     13.04376400     15.71471500
C           5.48486700     12.53297100     14.64880000
C           6.04390000     12.52202900     13.37361300
C           7.33993000     13.02812100     13.20242500
N           8.05580700     13.52200900     14.22976900
H           4.47961400     12.14613700     14.81370100
H           8.14170300     13.94324000     16.25886400
H           5.81445700     13.06404700     16.71951700
H           5.49260700     12.13013100     12.52405700
H           7.82981600     13.04280800     12.21583500
P          10.89299600     14.47044100     12.02724000
O          12.20358500     14.93463400     11.58481200
O          10.49576400     12.95516900     11.71066400
H          11.01188000     12.66233600     10.85961900
O          10.65387900     14.59257400     13.57833300
H           9.72047500     14.13657700     13.81707100
O           9.63115300     15.18692400     11.33493300
H           9.74046100     16.19546900     11.42699300
O          12.21172200     12.36443700      9.39890600
H          13.02900900     12.54648500      9.87650200
H          12.06937400     13.14913200      8.86158700
          22
 G =       -0.378285 Gcorr = 0.098634 a.u. Nimag =   0 Frame:     5 Step:     5 Geom:     5
C           7.63391000     12.61096200     13.42805000
C           6.65349400     11.72305000     13.89229600
C           5.62860200     12.21839700     14.69414800
C           5.60538800     13.57607600     15.01193700
C           6.62040800     14.39748400     14.50941200
N           7.61302400     13.92182300     13.73304500
H           4.85224600     11.55294800     15.07072100
H           8.46684800     12.27217100     12.79162700
H           6.69886700     10.67065800     13.62832000
H           4.81886100     13.98936400     15.63572700
H           6.65609200     15.47161600     14.72526900
P          10.61501100     14.63308600     11.66301500
O          11.74371300     15.33531700     11.06155600
O          10.93484000     13.38167100     12.60412000
H          11.83678100     12.97300900     12.29419300
O           9.69514200     15.53954200     12.56321600
H           8.96920000     14.92200700     13.04058600
O           9.62472800     13.89691400     10.63236900
H           9.33338000     14.57037000      9.92589900
O          13.57571800     12.55597900     11.61436300
H          13.98679000     13.40650700     11.80576200
H          13.42696500     12.57106000     10.66437600
          22
 G =       -0.378302 Gcorr = 0.098617 a.u. Nimag =   0 Frame:     6 Step:     6 Geom:     6
C           7.41074500     11.67587700     14.18984900
C           6.13657600     11.76847400     14.76033700
C           5.45143200     12.97953100     14.66704200
C           6.05036100     14.05339900     14.01373200
C           7.33010800     13.88061000     13.46826600
N           7.99336000     12.71273400     13.55758500
H           4.45724900     13.08282400     15.10097400
H           7.99731000     10.75071600     14.23029600
H           5.69355400     10.91448400     15.26328500
H           5.54159700     15.00860500     13.92434400
H           7.84932300     14.69653100     12.94075300
P          10.99603800     14.08514800     11.85533300
O          12.30180700     14.16734500     11.20956500
O           9.70986100     14.44949500     10.97946300
H          10.00601400     15.11584200     10.24154200
O          10.65018200     12.66311200     12.43524400
H           9.64457400     12.67347100     12.78869100
O          10.75058600     15.11840300     13.06236900
H          11.51936800     15.03112100     13.72492500
O          10.87469500     16.18008300      8.90921800
H          11.42333500     16.76005300      9.44530000
H          11.48193700     15.50215500      8.59190000
          22
 G =       -0.378415 Gcorr = 0.101987 a.u. Nimag =   0 Frame:     7 Step:     7 Geom:     7
C           7.93746100     13.58650500     14.46736500
C           7.05507800     14.45968200     13.81950400
C           6.53392600     14.08462600     12.58262100
C           6.89183400     12.85241200     12.03660900
C           7.77767300     12.03646800     12.74888400
N           8.29696700     12.39685700     13.94053900
H           5.86674300     14.75638900     12.04049700
H           8.40199600     13.84250200     15.42639800
H           6.80635900     15.41818500     14.26220400
H           6.50426200     12.53614400     11.07435900
H           8.11232200     11.06836500     12.35851400
P          10.86726400     13.93885700     12.42320100
O          10.43942800     13.47829100     11.10591100
O           9.84760700     14.94039300     13.15088800
H           9.13748500     15.25235100     12.47346900
O          11.15046100     12.87471900     13.56719300
H          10.24045400     12.42111000     13.83494100
O          12.24448900     14.72737300     12.36476200
H          12.51923900     14.96325100     13.33162100
O           8.00361400     15.52903200     10.88064500
H           8.28944600     14.67262200     10.53180800
H           8.50590100     16.17387500     10.37807600
          22
 G =       -0.378443 Gcorr = 0.101959 a.u. Nimag =   0 Frame:     8 Step:     8 Geom:     8
C           7.93762300     13.82168300     14.55721400
C           7.01729200     14.59398000     13.83791500
C           6.44565300     14.05138800     12.68859800
C           6.79297300     12.75826100     12.29890300
C           7.71897300     12.05147800     13.07399100
N           8.28672900     12.57330300     14.18079400
H           5.74709100     14.63958100     12.09166700
H           8.44152100     14.20818600     15.45040600
H           6.77788600     15.60262000     14.15723700
H           6.36647500     12.31197200     11.40723600
H           8.04697300     11.04105500     12.80368300
P          10.76813500     13.91159100     12.35143500
O          10.28902300     13.27489200     11.12859200
O           9.76890000     14.99523200     12.98336400
H           9.02751700     15.21045100     12.30175400
O          11.11449600     13.01317900     13.61416100
H          10.22284400     12.59474500     13.98179400
O          12.13154200     14.69407600     12.12559100
H          12.44895700     15.05413600     13.03942600
O           7.82042500     15.26703300     10.74290900
H           8.09571400     14.37192500     10.49846000
H           8.29327100     15.83924700     10.13488500
          22
 G =       -0.378405 Gcorr = 0.101997 a.u. Nimag =   0 Frame:     9 Step:     9 Geom:     9
C           7.04163100     14.54351400     12.82179500
C           6.82159100     13.45344700     11.97085900
C           7.19642300     12.18303000     12.40407500
C           7.76222200     12.03299200     13.66976000
C           7.94647400     13.17286000     14.46007000
N           7.59826300     14.40786000     14.04403100
H           7.06374300     11.31840100     11.75206800
H           6.79553000     15.56844100     12.52171000
H           6.39306300     13.60291300     10.98563200
H           8.06633100     11.05694000     14.03162700
H           8.40726400     13.11895300     15.45323500
P          10.61263000     14.84730000     12.62592900
O          11.10871500     13.57903700     13.15097700
O           9.41125900     14.71679500     11.57156800
H           9.31701200     13.73209300     11.28514900
O          10.04675800     15.93951800     13.62997900
H           9.15717500     15.57443200     14.05522400
O          11.74161700     15.66224000     11.86205800
H          11.34420200     16.57216900     11.57994900
O           9.47980800     11.77966400     11.07052600
H           9.87901200     11.71527800     11.94992900
H          10.21928700     11.70213400     10.46386300
          22
 G =       -0.378646 Gcorr = 0.098802 a.u. Nimag =   0 Frame:    10 Step:    10 Geom:    10
C           7.12095700     13.53519000     12.27415300
C           5.82857500     13.04263200     12.04950300
C           4.95299600     12.94808600     13.12863500
C           5.38385600     13.34223800     14.39476200
C           6.69052700     13.82283900     14.53705200
N           7.53868900     13.91703700     13.49536100
H           3.94122400     12.56927800     12.98589700
H           7.85585000     13.63236800     11.46044000
H           5.52148000     12.74197900     11.05213500
H           4.72286700     13.27851700     15.25383500
H           7.08738800     14.14631900     15.50674300
P          11.21345300     14.49382000     12.67924000
O          12.11473100     13.44204800     13.12967400
O          10.30733300     14.12989700     11.40546600
H          10.78029200     13.41135500     10.84348000
O          10.14521800     15.08809600     13.68088900
H           9.24967600     14.52071400     13.60628500
O          12.03164800     15.78793300     12.23898000
H          11.36911000     16.54939700     12.05359200
O          11.87965300     12.02511700     10.09447200
H          11.97823400     11.51507600     10.90694700
H          12.71624900     12.49007700     10.00247100
          22
 G =       -0.379096 Gcorr = 0.100900 a.u. Nimag =   0 Frame:    11 Step:    11 Geom:    11
C           8.05955100     12.12174800     12.81008200
C           7.11715200     12.04903300     11.77608200
C           6.16695700     13.06047700     11.66723100
C           6.18133800     14.11318900     12.58215400
C           7.16318800     14.12081800     13.57845300
N           8.07930900     13.13817000     13.69443000
H           5.42530300     13.03472300     10.87029400
H           8.83780100     11.35723100     12.93536200
H           7.16138800     11.23097500     11.05938300
H           5.45598900     14.91711700     12.51855700
H           7.24543500     14.93769000     14.30558600
P          10.79936200     14.96968400     12.93736000
O          10.62007800     14.40264500     11.60482500
O           9.75303900     16.11995400     13.33634700
H           9.55221200     16.68638700     12.51435100
O          10.71620500     14.03749400     14.21146100
H           9.72631400     13.64892700     14.28173300
O          12.23567000     15.63528800     13.08869700
H          12.36753500     15.89998800     14.07508600
O           9.66415200     11.68434700     10.60365600
H          10.48967300     11.35711400     10.25439900
H           9.87235400     12.57701900     10.90448500
          22
 G =       -0.378412 Gcorr = 0.101990 a.u. Nimag =   0 Frame:    12 Step:    12 Geom:    12
C           7.46096100     14.11135700     14.05261500
C           6.91896900     14.90325300     13.03279900
C           6.69782900     14.32385500     11.78485100
C           7.00655300     12.97749100     11.59323700
C           7.54311200     12.25469300     12.66438400
N           7.77227000     12.81043200     13.87200000
H           6.30340600     14.92274700     10.96262900
H           7.68472500     14.52136000     15.04404000
H           6.70259100     15.95175100     13.20735300
H           6.84782000     12.50125300     10.63192000
H           7.82637000     11.20034800     12.56566700
P          10.84819200     13.76731900     12.91505900
O          10.72666200     13.07838800     11.63407400
O           9.82484400     14.98391200     13.12617000
H           9.37499700     15.20845900     12.22746500
O          10.66094200     12.94747600     14.26208600
H           9.65747600     12.64103600     14.33038000
O          12.28881800     14.40358200     13.11948700
H          12.32773600     14.80927300     14.06800200
O           8.76003500     15.24639900     10.35409300
H           9.46782800     15.72242900      9.91448400
H           8.99787100     14.31320200     10.25721600
          22
 G =       -0.378025 Gcorr = 0.098656 a.u. Nimag =   0 Frame:    13 Step:    13 Geom:    13
C           7.29098200     14.30418800     13.61865800
C           6.22290900     13.94730700     14.45301500
C           5.20341000     13.15470800     13.93163500
C           5.27345800     12.73858200     12.60263500
C           6.37350500     13.13640100     11.83459500
N           7.35896700     13.90644300     12.33436600
H           4.35949400     12.86119500     14.55531700
H           8.12578200     14.92548200     13.97922600
H           6.19758800     14.28414000     15.48507500
H           4.49396100     12.11876500     12.17042400
H           6.48612200     12.83757100     10.78587600
P          10.97237600     14.47732500     11.99642800
O          10.79192900     14.74789400     13.42173500
O          11.40233800     12.98467800     11.62301400
H          11.91316500     12.58052200     12.42524300
O           9.77019800     14.72296100     10.99715700
H           8.88744500     14.32731900     11.43908700
O          12.11832500     15.39203900     11.37110600
H          12.13392300     15.24030500     10.35451700
O          12.76641600     12.13851000     14.10455100
H          12.03505600     12.42706000     14.66241300
H          13.41266000     12.84661900     14.17393900
          22
 G =       -0.378003 Gcorr = 0.098678 a.u. Nimag =   0 Frame:    14 Step:    14 Geom:    14
C           7.31489200     14.38195300     13.60755800
C           6.31212000     14.07535900     14.53747900
C           5.26041600     13.25365400     14.13981900
C           5.23476300     12.75968800     12.83610100
C           6.27401400     13.11118900     11.96741000
N           7.29032000     13.90908900     12.34740200
H           4.46554900     12.99776500     14.83983700
H           8.17137200     15.02311300     13.86880800
H           6.36099800     14.47263100     15.54695600
H           4.42832200     12.11551600     12.49950300
H           6.31074300     12.75104100     10.93263900
P          10.86807700     14.45198800     11.71555400
O          10.79194900     14.80709600     13.13163800
O          11.27061600     12.93821400     11.40101800
H          11.83839400     12.58020100     12.18668800
O           9.59602600     14.64248000     10.79371000
H           8.74864100     14.27397000     11.32009700
O          11.96472200     15.32382800     10.95517200
H          11.90517700     15.11313100      9.95077000
O          12.81124500     12.23531500     13.82326700
H          12.12189900     12.55823700     14.41476600
H          13.45975300     12.94455400     13.80382100
          22
 G =       -0.378430 Gcorr = 0.101972 a.u. Nimag =   0 Frame:    15 Step:    15 Geom:    15
C           7.49527000     12.45191800     12.34408700
C           7.72421900     12.18294800     13.69911400
C           7.58835700     13.22236900     14.61741700
C           7.21619900     14.48800200     14.16548400
C           7.00365700     14.67368300     12.79504900
N           7.14518000     13.67664400     11.89752400
H           7.78805800     13.05013200     15.67609100
H           7.61741200     11.68130800     11.57445100
H           8.02683900     11.19176500     14.01929600
H           7.10612600     15.31607100     14.85708600
H           6.73246700     15.65123500     12.37971300
P          10.40836900     14.38602300     11.53276900
O          10.30855000     15.55953700     12.39487800
O          10.12514200     12.98673300     12.26335900
H          10.11198900     13.13328300     13.28254900
O           9.47706900     14.27833700     10.25121300
H           8.48092300     14.16860700     10.56963000
O          11.85534300     14.23066600     10.89696600
H          11.83493400     13.42868100     10.24721800
O          10.13391600     13.88092200     15.10912000
H           9.88683400     14.74728100     14.75545400
H          11.07315300     13.95387200     15.29154300
          22
 G =       -0.377977 Gcorr = 0.098704 a.u. Nimag =   0 Frame:    16 Step:    16 Geom:    16
C           7.31388000     14.19257200     15.00495300
C           5.92296300     14.10219800     15.12918200
C           5.22588400     13.28864400     14.23668000
C           5.92824200     12.59559200     13.25393900
C           7.32129600     12.73821800     13.19575700
N           7.99669700     13.52028000     14.05853800
H           4.14236900     13.19768500     14.30779000
H           7.91565400     14.81858400     15.67411600
H           5.40108800     14.65545200     15.90387500
H           5.41268100     11.95700200     12.54285100
H           7.92625100     12.21712700     12.43721600
P          10.99584000     13.82577900     11.95980900
O          10.11097700     13.09497500     11.05415100
O          10.99386400     15.41517200     11.79814900
H          10.73441100     15.64501900     10.82458300
O          10.81846200     13.66309200     13.52383500
H           9.77971600     13.71589900     13.74560300
O          12.51891100     13.40433100     11.75123900
H          13.08347100     13.86440400     12.47682800
O          10.17984500     15.70855300      8.97227000
H           9.42407700     15.11941900      9.07799200
H          10.85343200     15.16001600      8.56065600
          22
 G =       -0.378041 Gcorr = 0.098641 a.u. Nimag =   0 Frame:    17 Step:    18 Geom:    18
C           7.98594200     12.72276500     14.01328700
C           6.94908200     11.83256200     14.32430300
C           5.65621900     12.33271500     14.45765000
C           5.42946500     13.69668600     14.27737100
C           6.51772200     14.52016000     13.96780800
N           7.76992800     14.04045500     13.84229400
H           4.82918800     11.66570200     14.69936200
H           9.02603700     12.38163200     13.89192400
H           7.15616100     10.77471200     14.45593100
H           4.43172000     14.11368500     14.37332900
H           6.40153300     15.59889900     13.81088300
P          10.87657000     14.65174800     11.97968900
O          10.92749700     13.19635800     12.10782700
O          10.22075700     15.20661700     10.63263200
H          10.34629300     14.49813100      9.89099600
O          10.12244900     15.50603500     13.07766800
H           9.19689500     15.02733100     13.29028000
O          12.33720000     15.28948300     12.00587100
H          12.24236800     16.31308600     12.01891100
O          10.71145000     12.95588900      8.78141900
H          10.35151900     12.30705900      9.39688000
H          11.66401200     12.87830300      8.88369700
          22
 G =       -0.378435 Gcorr = 0.101967 a.u. Nimag =   0 Frame:    18 Step:    19 Geom:    19
C           6.93338500     14.24805000     12.92740500
C           6.84942300     12.90135900     12.55293000
C           7.50380900     11.95017900     13.33335700
C           8.20608200     12.36242700     14.46540400
C           8.23962500     13.72713400     14.77227000
N           7.61978700     14.65611900     14.01565500
H           7.48043400     10.89662700     13.05087500
H           6.46513900     15.04187900     12.33439100
H           6.30779200     12.61233100     11.65865300
H           8.72739600     11.64463100     15.08922100
H           8.79467000     14.11159400     15.63583200
P          10.34277900     14.98036400     12.07492300
O          11.12126600     14.08151100     12.92128900
O           9.09583500     14.29702900     11.33319900
H           9.16627900     13.27378000     11.42434200
O           9.67327800     16.26998300     12.71542900
H           8.91631100     15.96081700     13.37635700
O          11.21614900     15.61295000     10.90902500
H          10.62595100     16.28804600     10.39754400
O           9.68660100     11.42438000     11.88096500
H          10.36589600     11.23515200     11.23018900
H          10.17212300     11.75367200     12.65076300
          22
 G =       -0.378394 Gcorr = 0.102008 a.u. Nimag =   0 Frame:    19 Step:    20 Geom:    20
C           7.01633800     14.24150100     13.19518200
C           6.79296000     12.96081500     12.67493400
C           7.43242000     11.87696700     13.27366600
C           8.25864100     12.09573100     14.37554800
C           8.42764000     13.40616500     14.83589700
N           7.82298300     14.46266500     14.25464500
H           7.30079700     10.87080500     12.87290400
H           6.56505500     15.13346300     12.74594000
H           6.15612600     12.82329400     11.80766300
H           8.77146700     11.27150500     14.85912300
H           9.08272100     13.64101900     15.68285800
P          10.39002900     14.83426300     12.12099700
O          11.15944400     13.78370200     12.78052500
O           9.03519900     14.33805100     11.42067900
H           9.02908800     13.30889900     11.38608700
O           9.88239200     16.07771100     12.96794100
H           9.16091500     15.74216900     13.65546300
O          11.21342900     15.54383300     10.96322900
H          10.64002800     16.31733600     10.59074200
O           9.43801100     11.38440400     11.57845700
H          10.04034700     11.22738200     10.84825300
H          10.01398000     11.58833300     12.32927700
          22
 G =       -0.378005 Gcorr = 0.098676 a.u. Nimag =   0 Frame:    20 Step:    21 Geom:    21
C           7.60601700     13.57529500     14.20284100
C           6.95565900     12.80465800     15.17621300
C           5.99440800     11.88371700     14.76721000
C           5.70830400     11.75264700     13.40879200
C           6.40182700     12.55827500     12.49873000
N           7.32888100     13.45295900     12.89119100
H           5.47122600     11.27043400     15.50034100
H           8.37702800     14.31526000     14.46908200
H           7.20215000     12.92699700     16.22670400
H           4.96521900     11.04149400     13.06140200
H           6.22341500     12.49789600     11.41876400
P          10.46021500     14.98907900     11.74038000
O          10.70440300     14.93779000     13.18083200
O          11.01659300     13.75065600     10.89826100
H          11.82568200     13.34975800     11.40070700
O           8.97555300     15.09903200     11.20388500
H           8.37494200     14.41332600     11.75166100
O          11.14941800     16.26501300     11.07862200
H          10.86286900     16.31169300     10.09244500
O          13.24338900     12.83869600     12.61440800
H          13.73107300     13.66421200     12.68275000
H          12.69173600     12.82112500     13.40479700
