 Entering Gaussian System, Link 0=g16
 Initial command:
 /data0/home/software/g16/l1.exe "/data0/home/software/g16/scratch/Gau-3358164.inp" -scrdir="/data0/home/software/g16/scratch/"
 Default is to use a total of  22 processors:
                               22 via shared-memory
                                1 via Linda
 Entering Link 1 = /data0/home/software/g16/l1.exe PID=   3358165.
  
 Copyright (c) 1988,1990,1992,1993,1995,1998,2003,2009,2016,
            Gaussian, Inc.  All Rights Reserved.
  
 This is part of the Gaussian(R) 16 program.  It is based on
 the Gaussian(R) 09 system (copyright 2009, Gaussian, Inc.),
 the Gaussian(R) 03 system (copyright 2003, Gaussian, Inc.),
 the Gaussian(R) 98 system (copyright 1998, Gaussian, Inc.),
 the Gaussian(R) 94 system (copyright 1995, Gaussian, Inc.),
 the Gaussian 92(TM) system (copyright 1992, Gaussian, Inc.),
 the Gaussian 90(TM) system (copyright 1990, Gaussian, Inc.),
 the Gaussian 88(TM) system (copyright 1988, Gaussian, Inc.),
 the Gaussian 86(TM) system (copyright 1986, Carnegie Mellon
 University), and the Gaussian 82(TM) system (copyright 1983,
 Carnegie Mellon University). Gaussian is a federally registered
 trademark of Gaussian, Inc.
  
 This software contains proprietary and confidential information,
 including trade secrets, belonging to Gaussian, Inc.
  
 This software is provided under written license and may be
 used, copied, transmitted, or stored only in accord with that
 written license.
  
 The following legend is applicable only to US Government
 contracts under FAR:
  
                    RESTRICTED RIGHTS LEGEND
  
 Use, reproduction and disclosure by the US Government is
 subject to restrictions as set forth in subparagraphs (a)
 and (c) of the Commercial Computer Software - Restricted
 Rights clause in FAR 52.227-19.
  
 Gaussian, Inc.
 340 Quinnipiac St., Bldg. 40, Wallingford CT 06492
  
  
 ---------------------------------------------------------------
 Warning -- This program may not be used in any manner that
 competes with the business of Gaussian, Inc. or will provide
 assistance to any competitor of Gaussian, Inc.  The licensee
 of this program is prohibited from giving any competitor of
 Gaussian, Inc. access to this program.  By using this program,
 the user acknowledges that Gaussian, Inc. is engaged in the
 business of creating and licensing software in the field of
 computational chemistry and represents and warrants to the
 licensee that it is not a competitor of Gaussian, Inc. and that
 it will not use this program in any manner prohibited above.
 ---------------------------------------------------------------
  

 Cite this work as:
 Gaussian 16, Revision A.03,
 M. J. Frisch, G. W. Trucks, H. B. Schlegel, G. E. Scuseria, 
 M. A. Robb, J. R. Cheeseman, G. Scalmani, V. Barone, 
 G. A. Petersson, H. Nakatsuji, X. Li, M. Caricato, A. V. Marenich, 
 J. Bloino, B. G. Janesko, R. Gomperts, B. Mennucci, H. P. Hratchian, 
 J. V. Ortiz, A. F. Izmaylov, J. L. Sonnenberg, D. Williams-Young, 
 F. Ding, F. Lipparini, F. Egidi, J. Goings, B. Peng, A. Petrone, 
 T. Henderson, D. Ranasinghe, V. G. Zakrzewski, J. Gao, N. Rega, 
 G. Zheng, W. Liang, M. Hada, M. Ehara, K. Toyota, R. Fukuda, 
 J. Hasegawa, M. Ishida, T. Nakajima, Y. Honda, O. Kitao, H. Nakai, 
 T. Vreven, K. Throssell, J. A. Montgomery, Jr., J. E. Peralta, 
 F. Ogliaro, M. J. Bearpark, J. J. Heyd, E. N. Brothers, K. N. Kudin, 
 V. N. Staroverov, T. A. Keith, R. Kobayashi, J. Normand, 
 K. Raghavachari, A. P. Rendell, J. C. Burant, S. S. Iyengar, 
 J. Tomasi, M. Cossi, J. M. Millam, M. Klene, C. Adamo, R. Cammi, 
 J. W. Ochterski, R. L. Martin, K. Morokuma, O. Farkas, 
 J. B. Foresman, and D. J. Fox, Gaussian, Inc., Wallingford CT, 2016.
 
 ******************************************
 Gaussian 16:  ES64L-G16RevA.03 25-Dec-2016
                15-Dec-2022 
 ******************************************
 %nproc=24
 Will use up to   24 processors via shared memory.
 %mem=100GB
 ---------------------------------------------------
 #p M062X/6-311+G(2d,p) nosymm em=GD3 counterpoise=5
 ---------------------------------------------------
 1/38=1,62=5,172=1/1;
 2/12=2,15=1,17=6,18=5,40=1/2;
 1/38=1,53=2,62=5,63=1/22;
 3/5=4,6=6,7=112,11=2,25=1,30=1,74=-55,124=31/1,2,3;
 4//1;
 5/5=2,38=5/2;
 6/7=2,8=2,9=2,10=2,28=1/1;
 1/53=2,62=5,63=1/22;
 3/5=7,6=11,7=112,11=2,25=1,30=1,74=-55,82=7,124=31/1,2,3;
 4//1;
 5/5=2,38=5/2;
 6/7=2,8=2,9=2,10=2,28=1/1;
 1/53=2,62=5,63=1/22(-4);
 99/5=1,9=1/99;
 Leave Link    1 at Thu Dec 15 12:42:11 2022, MaxMem= 13421772800 cpu:               0.7 elap:               0.0
 (Enter /data0/home/software/g16/l101.exe)
 -------------------
 Title Card Required
 -------------------
 Symbolic Z-matrix:
 Charge =  0 Multiplicity = 1 in supermolecule
 Charge =  0 Multiplicity = 1 in fragment      1.
 Charge =  0 Multiplicity = 1 in fragment      2.
 Charge =  0 Multiplicity = 1 in fragment      3.
 Charge =  0 Multiplicity = 1 in fragment      4.
 Charge =  0 Multiplicity = 1 in fragment      5.
 C                     9.94689   9.44772   11.57239    
 C                     11.18635   9.00296   11.09723    
 C                     11.22036   8.11747   10.01541    
 C                     10.02098   7.72235   9.42174    
 C                     8.81088   8.21901   9.89639    
 H                     12.17966   7.77188   9.6139     
 H                     9.8797    10.14264   12.42454    
 H                     10.02903   7.06714   8.54267    
 H                     7.85543   7.96316   9.41351    
 C                     12.42818   9.54445   11.6963    
 H                     13.24461   8.8135    11.7382    
 H                     12.78847   10.39956   11.08194    
 H                     12.28495   9.9558    12.70912    
 N                     8.78965   9.05901   10.9704    
 C                     7.50499   9.60111   11.4695    
 H                     6.7017    8.83345   11.32165    
 H                     7.58445   9.77622   12.56665    
 C                     7.0936    10.89878   10.75387    
 H                     6.88922   10.69871   9.67698    
 H                     6.10945   11.21413   11.16181    
 C                     8.09977   12.03738   10.8814    
 H                     7.60298   13.01249   10.70315    
 H                     8.537     12.10087   11.89394    
 C                     9.19537   11.86836   9.82643    
 O                     8.87652   11.97065   8.6312     
 O                     10.34553   11.5893   10.24331    
 P                     11.42869   10.16714   7.14018    
 O                     10.52174   9.03071   6.94678    
 O                     12.0465   10.25307   8.60625    
 H                     11.4205   10.84971   9.21808    
 O                     12.7127   10.01825   6.21151    
 H                     13.31082   10.84374   6.38276    
 O                     10.87388   11.61034   6.80177    
 H                     10.08131   11.82861   7.48409    
 O                     11.07164   12.19606   12.77658    
 H                     10.8456   12.0056   11.83791    
 H                     11.48911   13.04811   12.75981    
 O                     5.56548   8.63476   9.15259    
 H                     6.2249    9.00626   8.5378     
 H                     4.78472   8.5023    8.62413    
 O                     7.59527   9.6927    7.54973    
 H                     7.91282   10.56857   7.84512    
 H                     8.37859   9.30599   7.14133    
 
 ITRead=  0  0  0  0  0  0  0  0  0  0  0  0  0  0  0  0  0  0  0  0
 ITRead=  0  0  0  0  0  0  0  0  0  0  0  0  0  0  0  0  0  0  0  0
 ITRead=  0  0  0
 MicOpt= -1 -1 -1 -1 -1 -1 -1 -1 -1 -1 -1 -1 -1 -1 -1 -1 -1 -1 -1 -1
 MicOpt= -1 -1 -1 -1 -1 -1 -1 -1 -1 -1 -1 -1 -1 -1 -1 -1 -1 -1 -1 -1
 MicOpt= -1 -1 -1
 NAtoms=     43 NQM=       43 NQMF=       0 NMMI=      0 NMMIF=      0
                NMic=       0 NMicF=      0.
                    Isotopes and Nuclear Properties:
 (Nuclear quadrupole moments (NQMom) in fm**2, nuclear magnetic moments (NMagM)
  in nuclear magnetons)

  Atom         1           2           3           4           5           6           7           8           9          10
 IAtWgt=          12          12          12          12          12           1           1           1           1          12
 AtmWgt=  12.0000000  12.0000000  12.0000000  12.0000000  12.0000000   1.0078250   1.0078250   1.0078250   1.0078250  12.0000000
 NucSpn=           0           0           0           0           0           1           1           1           1           0
 AtZEff=  -0.0000000  -0.0000000  -0.0000000  -0.0000000  -0.0000000  -0.0000000  -0.0000000  -0.0000000  -0.0000000  -0.0000000
 NQMom=    0.0000000   0.0000000   0.0000000   0.0000000   0.0000000   0.0000000   0.0000000   0.0000000   0.0000000   0.0000000
 NMagM=    0.0000000   0.0000000   0.0000000   0.0000000   0.0000000   2.7928460   2.7928460   2.7928460   2.7928460   0.0000000
 AtZNuc=   6.0000000   6.0000000   6.0000000   6.0000000   6.0000000   1.0000000   1.0000000   1.0000000   1.0000000   6.0000000

  Atom        11          12          13          14          15          16          17          18          19          20
 IAtWgt=           1           1           1          14          12           1           1          12           1           1
 AtmWgt=   1.0078250   1.0078250   1.0078250  14.0030740  12.0000000   1.0078250   1.0078250  12.0000000   1.0078250   1.0078250
 NucSpn=           1           1           1           2           0           1           1           0           1           1
 AtZEff=  -0.0000000  -0.0000000  -0.0000000  -0.0000000  -0.0000000  -0.0000000  -0.0000000  -0.0000000  -0.0000000  -0.0000000
 NQMom=    0.0000000   0.0000000   0.0000000   2.0440000   0.0000000   0.0000000   0.0000000   0.0000000   0.0000000   0.0000000
 NMagM=    2.7928460   2.7928460   2.7928460   0.4037610   0.0000000   2.7928460   2.7928460   0.0000000   2.7928460   2.7928460
 AtZNuc=   1.0000000   1.0000000   1.0000000   7.0000000   6.0000000   1.0000000   1.0000000   6.0000000   1.0000000   1.0000000

  Atom        21          22          23          24          25          26          27          28          29          30
 IAtWgt=          12           1           1          12          16          16          31          16          16           1
 AtmWgt=  12.0000000   1.0078250   1.0078250  12.0000000  15.9949146  15.9949146  30.9737634  15.9949146  15.9949146   1.0078250
 NucSpn=           0           1           1           0           0           0           1           0           0           1
 AtZEff=  -0.0000000  -0.0000000  -0.0000000  -0.0000000  -0.0000000  -0.0000000  -0.0000000  -0.0000000  -0.0000000  -0.0000000
 NQMom=    0.0000000   0.0000000   0.0000000   0.0000000   0.0000000   0.0000000   0.0000000   0.0000000   0.0000000   0.0000000
 NMagM=    0.0000000   2.7928460   2.7928460   0.0000000   0.0000000   0.0000000   1.1316000   0.0000000   0.0000000   2.7928460
 AtZNuc=   6.0000000   1.0000000   1.0000000   6.0000000   8.0000000   8.0000000  15.0000000   8.0000000   8.0000000   1.0000000

  Atom        31          32          33          34          35          36          37          38          39          40
 IAtWgt=          16           1          16           1          16           1           1          16           1           1
 AtmWgt=  15.9949146   1.0078250  15.9949146   1.0078250  15.9949146   1.0078250   1.0078250  15.9949146   1.0078250   1.0078250
 NucSpn=           0           1           0           1           0           1           1           0           1           1
 AtZEff=  -0.0000000  -0.0000000  -0.0000000  -0.0000000  -0.0000000  -0.0000000  -0.0000000  -0.0000000  -0.0000000  -0.0000000
 NQMom=    0.0000000   0.0000000   0.0000000   0.0000000   0.0000000   0.0000000   0.0000000   0.0000000   0.0000000   0.0000000
 NMagM=    0.0000000   2.7928460   0.0000000   2.7928460   0.0000000   2.7928460   2.7928460   0.0000000   2.7928460   2.7928460
 AtZNuc=   8.0000000   1.0000000   8.0000000   1.0000000   8.0000000   1.0000000   1.0000000   8.0000000   1.0000000   1.0000000

  Atom        41          42          43
 IAtWgt=          16           1           1
 AtmWgt=  15.9949146   1.0078250   1.0078250
 NucSpn=           0           1           1
 AtZEff=  -0.0000000  -0.0000000  -0.0000000
 NQMom=    0.0000000   0.0000000   0.0000000
 NMagM=    0.0000000   2.7928460   2.7928460
 AtZNuc=   8.0000000   1.0000000   1.0000000
 Leave Link  101 at Thu Dec 15 12:42:11 2022, MaxMem= 13421772800 cpu:               2.3 elap:               0.1
 (Enter /data0/home/software/g16/l202.exe)
                          Input orientation:                          
 ---------------------------------------------------------------------
 Center     Atomic      Atomic             Coordinates (Angstroms)
 Number     Number       Type             X           Y           Z
 ---------------------------------------------------------------------
      1          6           0        9.946890    9.447717   11.572389
      2          6           0       11.186354    9.002964   11.097231
      3          6           0       11.220358    8.117471   10.015407
      4          6           0       10.020983    7.722347    9.421740
      5          6           0        8.810880    8.219009    9.896386
      6          1           0       12.179657    7.771882    9.613902
      7          1           0        9.879696   10.142636   12.424537
      8          1           0       10.029032    7.067144    8.542671
      9          1           0        7.855435    7.963163    9.413511
     10          6           0       12.428179    9.544449   11.696300
     11          1           0       13.244615    8.813503   11.738195
     12          1           0       12.788474   10.399563   11.081942
     13          1           0       12.284950    9.955802   12.709119
     14          7           0        8.789649    9.059009   10.970397
     15          6           0        7.504990    9.601108   11.469501
     16          1           0        6.701696    8.833451   11.321649
     17          1           0        7.584452    9.776220   12.566645
     18          6           0        7.093603   10.898781   10.753865
     19          1           0        6.889222   10.698710    9.676980
     20          1           0        6.109450   11.214127   11.161811
     21          6           0        8.099769   12.037379   10.881403
     22          1           0        7.602983   13.012494   10.703149
     23          1           0        8.537002   12.100866   11.893937
     24          6           0        9.195370   11.868358    9.826430
     25          8           0        8.876521   11.970654    8.631204
     26          8           0       10.345532   11.589299   10.243310
     27         15           0       11.428695   10.167135    7.140175
     28          8           0       10.521736    9.030708    6.946776
     29          8           0       12.046504   10.253073    8.606250
     30          1           0       11.420500   10.849709    9.218075
     31          8           0       12.712695   10.018246    6.211510
     32          1           0       13.310824   10.843742    6.382759
     33          8           0       10.873880   11.610336    6.801765
     34          1           0       10.081313   11.828613    7.484090
     35          8           0       11.071644   12.196057   12.776578
     36          1           0       10.845600   12.005602   11.837911
     37          1           0       11.489115   13.048109   12.759811
     38          8           0        5.565483    8.634762    9.152588
     39          1           0        6.224900    9.006261    8.537799
     40          1           0        4.784715    8.502299    8.624128
     41          8           0        7.595271    9.692701    7.549733
     42          1           0        7.912823   10.568569    7.845122
     43          1           0        8.378589    9.305995    7.141335
 ---------------------------------------------------------------------
                    Distance matrix (angstroms):
                    1          2          3          4          5
     1  C    0.000000
     2  C    1.399947   0.000000
     3  C    2.411528   1.398427   0.000000
     4  C    2.758203   2.409427   1.395372   0.000000
     5  C    2.368381   2.774796   2.414552   1.391514   0.000000
     6  H    3.410182   2.168520   1.095852   2.167776   3.410041
     7  H    1.101628   2.183563   3.420903   3.859346   3.351754
     8  H    3.853968   3.407722   2.165963   1.096411   2.154816
     9  H    3.352438   3.874419   3.421812   2.178912   1.100682
    10  C    2.486263   1.481290   2.514060   3.779983   4.252215
    11  H    3.362248   2.164063   2.747740   4.116842   4.837736
    12  H    3.036634   2.125444   2.967226   4.193180   4.688455
    13  H    2.648930   2.170944   3.430583   4.573918   4.795527
    14  N    1.361137   2.400713   2.776121   2.387716   1.363653
    15  C    2.448875   3.748173   4.256704   3.748772   2.467841
    16  H    3.312322   4.493468   4.757857   3.982697   2.618696
    17  H    2.584100   3.966207   4.741316   4.477221   3.325555
    18  C    3.304060   4.523564   5.031015   4.520381   3.296284
    19  H    3.808791   4.833013   5.053322   4.328026   3.144809
    20  H    4.244376   5.537903   6.084809   5.524533   4.227263
    21  C    3.255099   4.333735   5.084654   4.943802   4.006980
    22  H    4.353977   5.391862   6.125328   5.956038   5.008730
    23  H    3.021651   4.153409   5.157200   5.242651   4.374247
    24  C    3.077768   3.713413   4.266784   4.246742   3.670215
    25  O    4.020133   4.497088   4.717691   4.470218   3.959777
    26  O    2.551811   2.850490   3.587597   3.966564   3.719458
    27  P    4.728407   4.131866   3.537158   3.628248   4.271399
    28  O    4.679812   4.203423   3.276976   2.843942   3.505151
    29  O    3.722225   2.916782   2.688687   3.342504   4.033749
    30  H    3.111254   2.645093   2.853230   3.432276   3.767068
    31  O    6.059225   5.218312   4.506623   4.777242   5.660364
    32  H    6.340126   5.488905   4.999873   5.459081   6.283653
    33  O    5.319312   5.034586   4.758954   4.765308   5.033264
    34  H    4.732961   4.718071   4.634389   4.540875   4.523540
    35  O    3.204452   3.609599   4.927580   5.689719   5.405874
    36  H    2.724143   3.111359   4.310398   4.986396   4.716767
    37  H    4.092829   4.383952   5.649352   6.454601   6.220318
    38  O    5.070805   5.959144   5.743662   4.555922   3.355397
    39  H    4.822534   5.582717   5.284683   4.103661   3.025362
    40  H    6.019477   6.880980   6.595548   5.353785   4.231891
    41  O    4.666036   5.094738   4.658557   3.642909   3.025930
    42  H    4.391612   4.872714   4.653795   3.876989   3.245708
    43  H    4.702541   4.860503   4.212900   3.225778   2.993112
                    6          7          8          9         10
     6  H    0.000000
     7  H    4.337046   0.000000
     8  H    2.503873   4.954779   0.000000
     9  H    4.333087   4.232495   2.507137   0.000000
    10  C    2.745931   2.717153   4.673149   5.349914   0.000000
    11  H    2.594558   3.682437   4.858098   5.930472   1.096633
    12  H    3.070913   3.213964   5.016715   5.749311   1.112865
    13  H    3.789586   2.429226   5.549126   5.869604   1.102510
    14  N    3.871554   2.115886   3.376011   2.120738   3.741856
    15  C    5.351806   2.616214   4.621482   2.651937   4.928736
    16  H    5.835356   3.609711   4.681210   2.393639   5.782602
    17  H    5.818245   2.328648   5.432074   3.647309   4.926754
    18  C    6.078236   3.335448   5.309196   3.315839   5.583914
    19  H    6.046404   4.098929   4.932883   2.913108   6.007497
    20  H    7.147901   4.117927   6.278574   4.083354   6.557426
    21  C    6.037094   3.023153   5.821938   4.337470   5.061017
    22  H    7.042472   4.047553   6.774996   5.217532   6.024633
    23  H    6.099803   2.432905   6.228603   4.872128   4.659999
    24  C    5.072697   3.193208   5.039314   4.149274   4.398639
    25  O    5.431951   4.328670   5.037909   4.208872   5.281625
    26  O    4.281687   2.658494   4.841718   4.476384   3.260370
    27  P    3.524274   5.506767   3.679130   4.774279   4.705845
    28  O    3.383328   5.626230   2.577833   3.785973   5.143582
    29  O    2.681306   4.391648   3.771522   4.843596   3.193154
    30  H    3.194686   3.627041   4.086582   4.591300   2.976696
    31  O    4.111758   6.829573   4.620104   6.170020   5.512563
    32  H    4.599581   6.983357   5.449594   6.873461   5.540843
    33  O    4.934258   5.895601   4.938129   5.406857   5.535360
    34  H    5.039466   5.224097   4.878003   4.859928   5.335532
    35  O    5.550093   2.400252   6.731921   6.290597   3.168314
    36  H    4.964908   2.178932   5.992809   5.582125   2.929485
    37  H    6.181599   3.338325   7.462443   7.089290   3.780017
    38  O    6.686155   5.620655   4.769978   2.400626   7.375269
    39  H    6.175825   5.454871   4.269850   2.124516   6.981865
    40  H    7.496554   6.564499   5.437754   3.216071   8.303425
    41  O    5.382094   5.402291   3.715194   2.555906   6.369694
    42  H    5.399622   5.002105   4.150288   3.041591   6.022361
    43  H    4.786983   5.555674   3.114508   2.690664   6.099487
                   11         12         13         14         15
    11  H    0.000000
    12  H    1.776040   0.000000
    13  H    1.780027   1.760161   0.000000
    14  N    4.527307   4.219020   4.005561   0.000000
    15  C    5.799639   5.357512   4.950806   1.480988   0.000000
    16  H    6.556195   6.289597   5.861525   2.129273   1.120910
    17  H    5.800914   5.447453   4.706084   2.124829   1.113869
    18  C    6.569036   5.726116   5.626927   2.511617   1.537963
    19  H    6.942163   6.071621   6.233752   2.823680   2.190213
    20  H    7.550218   6.728986   6.489557   3.444509   2.155002
    21  C    6.131632   4.970575   5.018889   3.058520   2.575857
    22  H    7.108506   5.818953   5.940378   4.136380   3.497778
    23  H    5.743921   4.650675   4.394649   3.188989   2.737514
    24  C    5.420643   4.079714   4.638240   3.060345   3.270702
    25  O    6.221032   4.876251   5.683873   3.735913   3.943574
    26  O    4.283037   2.843720   3.536929   3.058070   3.677652
    27  P    5.125590   4.176188   5.638348   4.781538   5.870171
    28  O    5.515337   4.910342   6.096665   4.380691   5.466366
    29  O    3.649234   2.588635   4.120529   4.197867   5.408199
    30  H    3.718136   2.355416   3.705905   3.632990   4.686058
    31  O    5.681425   4.885924   6.511973   6.241589   7.412197
    32  H    5.727735   4.748944   6.470215   6.683765   7.818362
    33  O    6.149065   4.842681   6.294874   5.313265   6.097063
    34  H    6.098752   4.723922   5.971965   4.636102   5.242396
    35  O    4.152314   3.007771   2.548608   4.279119   4.600351
    36  H    3.994335   2.631655   2.651869   3.696204   4.132432
    37  H    4.696527   3.393873   3.193475   5.138291   5.424018
    38  O    8.104713   7.681701   7.716560   3.725542   3.172317
    39  H    7.717259   7.175964   7.417934   3.535287   3.253821
    40  H    9.020209   8.584906   8.663334   4.674869   4.086982
    41  O    7.087404   6.320246   6.977218   3.678185   3.921877
    42  H    6.831126   5.854702   6.568824   3.579796   3.773385
    43  H    6.712070   6.014263   6.832432   3.858975   4.425301
                   16         17         18         19         20
    16  H    0.000000
    17  H    1.793903   0.000000
    18  C    2.177512   2.187978   0.000000
    19  H    2.493851   3.111992   1.114218   0.000000
    20  H    2.458439   2.493344   1.111045   1.754543   0.000000
    21  C    3.523291   2.866781   1.524809   2.169814   2.172036
    22  H    4.319637   3.734492   2.174816   2.629843   2.382254
    23  H    3.791024   2.600743   2.197310   3.097760   2.686135
    24  C    4.202945   3.805375   2.493520   2.590122   3.425516
    25  O    4.670161   4.687502   2.972103   2.580862   3.825309
    26  O    4.694151   4.038404   3.363410   3.613856   4.350723
    27  P    6.450423   6.661651   5.690965   5.227310   6.750120
    28  O    5.811293   6.384853   5.453047   4.840599   6.480903
    29  O    6.160819   5.985150   5.436949   5.286077   6.534763
    30  H    5.545938   5.203899   4.591633   4.556959   5.667289
    31  O    7.978055   8.169773   7.278910   6.810679   8.338972
    32  H    8.492024   8.495374   7.600226   7.218719   8.650798
    33  O    6.748893   6.886084   5.515061   4.997542   6.470454
    34  H    5.926185   6.023205   4.525752   4.034215   5.447836
    35  O    5.702665   4.249728   4.647484   5.416845   5.309899
    36  H    5.244140   4.016999   4.059272   4.693668   4.849192
    37  H    6.538427   5.097937   5.288096   6.015192   5.904057
    38  O    2.456681   4.127341   3.166231   2.507420   3.314514
    39  H    2.829668   4.321206   3.040925   2.145563   3.431245
    40  H    3.325823   5.000484   3.950933   3.218955   3.943193
    41  O    3.970408   5.017619   3.460168   2.456774   4.191600
    42  H    4.069853   4.798794   3.039893   2.102475   3.830056
    43  H    4.528829   5.503249   4.151931   3.253823   4.995417
                   21         22         23         24         25
    21  C    0.000000
    22  H    1.108792   0.000000
    23  H    1.104730   1.766758   0.000000
    24  C    1.530319   2.147878   2.182222   0.000000
    25  O    2.381426   2.645805   3.282934   1.241247   0.000000
    26  O    2.377265   3.123862   2.501410   1.254805   2.214116
    27  P    5.345685   5.952052   5.890625   3.885597   3.462577
    28  O    5.512466   6.203554   6.151377   4.254869   3.766605
    29  O    4.892524   5.635270   5.151682   3.496706   3.605482
    30  H    3.899292   4.632118   4.127977   2.521695   2.841261
    31  O    6.867597   7.433001   7.352802   5.372349   4.937919
    32  H    6.986964   7.479887   7.398839   5.463119   5.097890
    33  O    4.951919   5.280683   5.624219   3.468799   2.732420
    34  H    3.938507   4.231552   4.680360   2.504602   1.669602
    35  O    3.528301   4.122777   2.685615   3.511576   4.696115
    36  H    2.907835   3.579955   2.311242   2.605408   3.763172
    37  H    4.004704   4.396948   3.219003   3.906124   5.003194
    38  O    4.581398   5.071507   5.325298   4.907778   4.728952
    39  H    4.265594   4.757915   5.117231   4.321558   3.978372
    40  H    5.346182   5.710238   6.141742   5.677126   5.363992
    41  O    4.105126   4.578768   5.055514   3.532301   2.828471
    42  H    3.378070   3.773207   4.373835   2.694431   1.874161
    43  H    4.639645   5.198675   5.515761   3.800338   3.093227
                   26         27         28         29         30
    26  O    0.000000
    27  P    3.581234   0.000000
    28  O    4.176670   1.466780   0.000000
    29  O    2.712705   1.593251   2.563776   0.000000
    30  H    1.659414   2.187154   3.045544   1.059333   0.000000
    31  O    4.932249   1.591616   2.513195   2.496745   3.376467
    32  H    4.924700   2.138664   3.374051   2.625130   3.407694
    33  O    3.481929   1.582773   2.607588   2.544283   2.591506
    34  H    2.782153   2.166616   2.882872   2.757453   2.399662
    35  O    2.704226   6.001087   6.656457   4.702890   3.820641
    36  H    1.722245   5.078256   5.733941   3.867449   2.920640
    37  H    3.125490   6.315376   7.132090   5.037358   4.169120
    38  O    5.724319   6.385548   5.439377   6.702317   6.260312
    39  H    5.153684   5.511848   4.582003   5.954015   5.554758
    40  H    6.563079   7.008300   6.000511   7.469880   7.063763
    41  O    4.291431   3.884323   3.060390   4.609091   4.330636
    42  H    3.565287   3.608248   3.158871   4.214994   3.777279
    43  H    4.324880   3.169339   2.169497   4.061592   3.993635
                   31         32         33         34         35
    31  O    0.000000
    32  H    1.033696   0.000000
    33  O    2.502877   2.588808   0.000000
    34  H    3.438177   3.551428   1.068351   0.000000
    35  O    7.108870   6.908227   6.006710   5.396869   0.000000
    36  H    6.252361   6.098027   5.051713   4.423937   0.984106
    37  H    7.318297   6.988895   6.159872   5.594847   0.948976
    38  O    7.851535   8.517150   6.523763   5.777308   7.492258
    39  H    6.966148   7.630914   5.604287   4.893659   7.185609
    40  H    8.424470   9.121438   7.075227   6.357515   8.391196
    41  O    5.299514   5.945946   3.871183   3.278236   6.758097
    42  H    5.100031   5.599343   3.307829   2.533852   6.078332
    43  H    4.489582   5.221786   3.413469   3.062736   6.881930
                   36         37         38         39         40
    36  H    0.000000
    37  H    1.533242   0.000000
    38  O    6.815655   8.220651   0.000000
    39  H    6.421655   7.865995   0.975094   0.000000
    40  H    7.702977   9.094902   0.952058   1.528255   0.000000
    41  O    5.856844   7.318859   2.794355   1.823565   3.235832
    42  H    5.158353   6.564461   3.310450   2.402018   3.829018
    43  H    5.952466   7.432769   3.522678   2.584246   3.969954
                   41         42         43
    41  O    0.000000
    42  H    0.977363   0.000000
    43  H    0.964322   1.518666   0.000000
 Symmetry turned off by external request.
 Stoichiometry    C10H22NO9P
 Framework group  C1[X(C10H22NO9P)]
 Deg. of freedom   123
 Full point group                 C1      NOp   1
 Rotational constants (GHZ):           0.3220811           0.2498971           0.2079545
 Leave Link  202 at Thu Dec 15 12:42:11 2022, MaxMem= 13421772800 cpu:               0.1 elap:               0.0
 (Enter /data0/home/software/g16/l122.exe)
 Counterpoise: doing full-system calculation.
 Leave Link  122 at Thu Dec 15 12:42:11 2022, MaxMem= 13421772800 cpu:               0.0 elap:               0.0
 (Enter /data0/home/software/g16/l301.exe)
 Standard basis: 6-311+G(2d,p) (5D, 7F)
 Ernie: Thresh=  0.10000D-02 Tol=  0.10000D-05 Strict=F.
   707 basis functions,  1072 primitive gaussians,   749 cartesian basis functions
    88 alpha electrons       88 beta electrons
       nuclear repulsion energy      2268.1185580465 Hartrees.
 IExCor= 4336 DFT=T Ex+Corr=M062X ExCW=0 ScaHFX=  0.540000
 ScaDFX=  1.000000  1.000000  1.000000  1.000000 ScalE2=  1.000000  1.000000
 IRadAn=      5 IRanWt=     -1 IRanGd=            0 ICorTp=0 IEmpDi=131
 NAtoms=   43 NActive=   43 NUniq=   43 SFac= 1.00D+00 NAtFMM=   60 NAOKFM=F Big=F
 Integral buffers will be    131072 words long.
 Raffenetti 2 integral format.
 Two-electron integral symmetry is turned off.
 R6Disp:  Grimme-D3 Dispersion energy=       -0.0041133912 Hartrees.
 Nuclear repulsion after empirical dispersion term =     2268.1144446553 Hartrees.
 Leave Link  301 at Thu Dec 15 12:42:12 2022, MaxMem= 13421772800 cpu:               1.1 elap:               0.1
 (Enter /data0/home/software/g16/l302.exe)
 NPDir=0 NMtPBC=     1 NCelOv=     1 NCel=       1 NClECP=     1 NCelD=      1
         NCelK=      1 NCelE2=     1 NClLst=     1 CellRange=     0.0.
 One-electron integrals computed using PRISM.
 NBasis=   707 RedAO= T EigKep=  1.24D-06  NBF=   707
 NBsUse=   707 1.00D-06 EigRej= -1.00D+00 NBFU=   707
 Precomputing XC quadrature grid using
 IXCGrd= 4 IRadAn=           5 IRanWt=          -1 IRanGd=           0 AccXCQ= 0.00D+00.
 Generated NRdTot=       0 NPtTot=           0 NUsed=           0 NTot=          32
 NSgBfM=   737   734   737   737   737 MxSgAt=    43 MxSgA2=    43.
 Leave Link  302 at Thu Dec 15 12:42:13 2022, MaxMem= 13421772800 cpu:              23.0 elap:               1.0
 (Enter /data0/home/software/g16/l303.exe)
 DipDrv:  MaxL=1.
 Leave Link  303 at Thu Dec 15 12:42:13 2022, MaxMem= 13421772800 cpu:               2.0 elap:               0.1
 (Enter /data0/home/software/g16/l401.exe)
 ExpMin= 3.48D-02 ExpMax= 7.75D+04 ExpMxC= 2.65D+03 IAcc=3 IRadAn=         5 AccDes= 0.00D+00
 Harris functional with IExCor= 1009 and IRadAn=       5 diagonalized for initial guess.
 HarFok:  IExCor= 1009 AccDes= 0.00D+00 IRadAn=         5 IDoV= 1 UseB2=F ITyADJ=14
 ICtDFT=  3500011 ScaDFX=  1.000000  1.000000  1.000000  1.000000
 FoFCou: FMM=F IPFlag=           0 FMFlag=      100000 FMFlg1=           0
         NFxFlg=           0 DoJE=T BraDBF=F KetDBF=T FulRan=T
         wScrn=  0.000000 ICntrl=       500 IOpCl=  0 I1Cent=   200000004 NGrid=           0
         NMat0=    1 NMatS0=      1 NMatT0=    0 NMatD0=    1 NMtDS0=    0 NMtDT0=    0
 Symmetry not used in FoFCou.
 Harris En= -1466.96264462690    
 JPrj=0 DoOrth=F DoCkMO=F.
 Leave Link  401 at Thu Dec 15 12:42:16 2022, MaxMem= 13421772800 cpu:              91.0 elap:               3.8
 (Enter /data0/home/software/g16/l502.exe)
 Two-electron integral symmetry not used.
 Closed shell SCF:
 Using DIIS extrapolation, IDIIS=  1040.
 NGot= 13421772800 LenX= 13420627572 LenY= 13420065822
 Requested convergence on RMS density matrix=1.00D-08 within 128 cycles.
 Requested convergence on MAX density matrix=1.00D-06.
 Requested convergence on             energy=1.00D-06.
 No special actions if energy rises.
 Fock matrices will be formed incrementally for  20 cycles.

 Cycle   1  Pass 1  IDiag  1:
 FoFJK:  IHMeth= 1 ICntrl=       0 DoSepK=F KAlg= 0 I1Cent=           0 FoldK=F
 IRaf= 840000000 NMat=       1 IRICut=       1 DoRegI=T DoRafI=F ISym2E= 0 IDoP0=0 IntGTp=1.
 FoFCou: FMM=F IPFlag=           0 FMFlag=      100000 FMFlg1=           0
         NFxFlg=           0 DoJE=F BraDBF=F KetDBF=F FulRan=T
         wScrn=  0.000000 ICntrl=         0 IOpCl=  0 I1Cent=           0 NGrid=           0
         NMat0=    1 NMatS0=      1 NMatT0=    0 NMatD0=    1 NMtDS0=    0 NMtDT0=    0
 Symmetry not used in FoFCou.
 E= -1466.73618090604    
 DIIS: error= 2.14D-02 at cycle   1 NSaved=   1.
 NSaved= 1 IEnMin= 1 EnMin= -1466.73618090604     IErMin= 1 ErrMin= 2.14D-02
 ErrMax= 2.14D-02  0.00D+00 EMaxC= 1.00D-01 BMatC= 1.29D+00 BMatP= 1.29D+00
 IDIUse=3 WtCom= 7.86D-01 WtEn= 2.14D-01
 Coeff-Com:  0.100D+01
 Coeff-En:   0.100D+01
 Coeff:      0.100D+01
 Gap=     0.249 Goal=   None    Shift=    0.000
 GapD=    0.249 DampG=1.000 DampE=0.500 DampFc=0.5000 IDamp=-1.
 Damping current iteration by 5.00D-01
 RMSDP=9.62D-03 MaxDP=1.35D+00              OVMax= 2.25D-01

 Cycle   2  Pass 1  IDiag  1:
 RMSU=  4.67D-03    CP:  1.04D+00
 E= -1467.09884876416     Delta-E=       -0.362667858111 Rises=F Damp=T
 DIIS: error= 4.91D-03 at cycle   2 NSaved=   2.
 NSaved= 2 IEnMin= 2 EnMin= -1467.09884876416     IErMin= 2 ErrMin= 4.91D-03
 ErrMax= 4.91D-03  0.00D+00 EMaxC= 1.00D-01 BMatC= 7.76D-02 BMatP= 1.29D+00
 IDIUse=3 WtCom= 9.51D-01 WtEn= 4.91D-02
 Coeff-Com:  0.218D-01 0.978D+00
 Coeff-En:   0.974D-01 0.903D+00
 Coeff:      0.255D-01 0.974D+00
 Gap=     0.334 Goal=   None    Shift=    0.000
 RMSDP=7.32D-03 MaxDP=2.16D+00 DE=-3.63D-01 OVMax= 1.37D-01

 Cycle   3  Pass 1  IDiag  1:
 RMSU=  3.18D-03    CP:  8.02D-01  7.74D-01
 E= -1467.52005541198     Delta-E=       -0.421206647824 Rises=F Damp=F
 DIIS: error= 3.34D-03 at cycle   3 NSaved=   3.
 NSaved= 3 IEnMin= 3 EnMin= -1467.52005541198     IErMin= 3 ErrMin= 3.34D-03
 ErrMax= 3.34D-03  0.00D+00 EMaxC= 1.00D-01 BMatC= 2.98D-02 BMatP= 7.76D-02
 IDIUse=3 WtCom= 9.67D-01 WtEn= 3.34D-02
 Coeff-Com: -0.475D-01 0.355D+00 0.693D+00
 Coeff-En:   0.000D+00 0.000D+00 0.100D+01
 Coeff:     -0.460D-01 0.343D+00 0.703D+00
 Gap=     0.273 Goal=   None    Shift=    0.000
 RMSDP=1.01D-03 MaxDP=1.65D-01 DE=-4.21D-01 OVMax= 5.22D-02

 Cycle   4  Pass 1  IDiag  1:
 RMSU=  9.34D-04    CP:  8.01D-01  8.50D-01  9.62D-01
 E= -1467.53696948048     Delta-E=       -0.016914068497 Rises=F Damp=F
 DIIS: error= 2.04D-03 at cycle   4 NSaved=   4.
 NSaved= 4 IEnMin= 4 EnMin= -1467.53696948048     IErMin= 4 ErrMin= 2.04D-03
 ErrMax= 2.04D-03  0.00D+00 EMaxC= 1.00D-01 BMatC= 9.23D-03 BMatP= 2.98D-02
 IDIUse=3 WtCom= 9.80D-01 WtEn= 2.04D-02
 Coeff-Com: -0.282D-01 0.806D-01 0.396D+00 0.552D+00
 Coeff-En:   0.000D+00 0.000D+00 0.242D+00 0.758D+00
 Coeff:     -0.276D-01 0.789D-01 0.393D+00 0.556D+00
 Gap=     0.275 Goal=   None    Shift=    0.000
 RMSDP=6.58D-04 MaxDP=1.29D-01 DE=-1.69D-02 OVMax= 2.18D-02

 Cycle   5  Pass 1  IDiag  1:
 RMSU=  3.48D-04    CP:  7.86D-01  8.14D-01  9.85D-01  6.43D-01
 E= -1467.54454525794     Delta-E=       -0.007575777458 Rises=F Damp=F
 DIIS: error= 3.34D-04 at cycle   5 NSaved=   5.
 NSaved= 5 IEnMin= 5 EnMin= -1467.54454525794     IErMin= 5 ErrMin= 3.34D-04
 ErrMax= 3.34D-04  0.00D+00 EMaxC= 1.00D-01 BMatC= 2.94D-04 BMatP= 9.23D-03
 IDIUse=3 WtCom= 9.97D-01 WtEn= 3.34D-03
 Coeff-Com: -0.948D-02 0.185D-01 0.140D+00 0.248D+00 0.603D+00
 Coeff-En:   0.000D+00 0.000D+00 0.000D+00 0.000D+00 0.100D+01
 Coeff:     -0.945D-02 0.184D-01 0.140D+00 0.248D+00 0.604D+00
 Gap=     0.272 Goal=   None    Shift=    0.000
 RMSDP=1.33D-04 MaxDP=3.60D-02 DE=-7.58D-03 OVMax= 4.30D-03

 Cycle   6  Pass 1  IDiag  1:
 RMSU=  7.39D-05    CP:  7.88D-01  8.16D-01  9.88D-01  6.67D-01  7.38D-01
 E= -1467.54478876049     Delta-E=       -0.000243502554 Rises=F Damp=F
 DIIS: error= 9.36D-05 at cycle   6 NSaved=   6.
 NSaved= 6 IEnMin= 6 EnMin= -1467.54478876049     IErMin= 6 ErrMin= 9.36D-05
 ErrMax= 9.36D-05  0.00D+00 EMaxC= 1.00D-01 BMatC= 2.15D-05 BMatP= 2.94D-04
 IDIUse=1 WtCom= 1.00D+00 WtEn= 0.00D+00
 Coeff-Com: -0.179D-02 0.155D-02 0.297D-01 0.622D-01 0.262D+00 0.646D+00
 Coeff:     -0.179D-02 0.155D-02 0.297D-01 0.622D-01 0.262D+00 0.646D+00
 Gap=     0.272 Goal=   None    Shift=    0.000
 RMSDP=2.81D-05 MaxDP=5.82D-03 DE=-2.44D-04 OVMax= 9.69D-04

 Cycle   7  Pass 1  IDiag  1:
 RMSU=  2.46D-05    CP:  7.88D-01  8.16D-01  9.89D-01  6.69D-01  7.68D-01
                    CP:  9.72D-01
 E= -1467.54480550981     Delta-E=       -0.000016749322 Rises=F Damp=F
 DIIS: error= 3.76D-05 at cycle   7 NSaved=   7.
 NSaved= 7 IEnMin= 7 EnMin= -1467.54480550981     IErMin= 7 ErrMin= 3.76D-05
 ErrMax= 3.76D-05  0.00D+00 EMaxC= 1.00D-01 BMatC= 2.45D-06 BMatP= 2.15D-05
 IDIUse=1 WtCom= 1.00D+00 WtEn= 0.00D+00
 Coeff-Com:  0.266D-03-0.117D-02-0.207D-02-0.726D-03 0.535D-01 0.283D+00
 Coeff-Com:  0.667D+00
 Coeff:      0.266D-03-0.117D-02-0.207D-02-0.726D-03 0.535D-01 0.283D+00
 Coeff:      0.667D+00
 Gap=     0.272 Goal=   None    Shift=    0.000
 RMSDP=9.63D-06 MaxDP=1.61D-03 DE=-1.67D-05 OVMax= 3.36D-04

 Cycle   8  Pass 1  IDiag  1:
 RMSU=  6.96D-06    CP:  7.88D-01  8.15D-01  9.89D-01  6.70D-01  7.72D-01
                    CP:  9.97D-01  9.62D-01
 E= -1467.54480729250     Delta-E=       -0.000001782684 Rises=F Damp=F
 DIIS: error= 1.34D-05 at cycle   8 NSaved=   8.
 NSaved= 8 IEnMin= 8 EnMin= -1467.54480729250     IErMin= 8 ErrMin= 1.34D-05
 ErrMax= 1.34D-05  0.00D+00 EMaxC= 1.00D-01 BMatC= 4.18D-07 BMatP= 2.45D-06
 IDIUse=1 WtCom= 1.00D+00 WtEn= 0.00D+00
 Coeff-Com:  0.394D-03-0.822D-03-0.536D-02-0.984D-02-0.117D-01 0.330D-01
 Coeff-Com:  0.324D+00 0.670D+00
 Coeff:      0.394D-03-0.822D-03-0.536D-02-0.984D-02-0.117D-01 0.330D-01
 Coeff:      0.324D+00 0.670D+00
 Gap=     0.272 Goal=   None    Shift=    0.000
 RMSDP=7.94D-06 MaxDP=1.68D-03 DE=-1.78D-06 OVMax= 1.04D-04

 Cycle   9  Pass 1  IDiag  1:
 RMSU=  3.41D-06    CP:  7.88D-01  8.14D-01  9.89D-01  6.69D-01  7.77D-01
                    CP:  1.01D+00  9.42D-01  9.02D-01
 E= -1467.54480763196     Delta-E=       -0.000000339464 Rises=F Damp=F
 DIIS: error= 3.17D-06 at cycle   9 NSaved=   9.
 NSaved= 9 IEnMin= 9 EnMin= -1467.54480763196     IErMin= 9 ErrMin= 3.17D-06
 ErrMax= 3.17D-06  0.00D+00 EMaxC= 1.00D-01 BMatC= 2.76D-08 BMatP= 4.18D-07
 IDIUse=1 WtCom= 1.00D+00 WtEn= 0.00D+00
 Coeff-Com:  0.133D-03-0.239D-03-0.200D-02-0.403D-02-0.837D-02-0.927D-02
 Coeff-Com:  0.832D-01 0.271D+00 0.669D+00
 Coeff:      0.133D-03-0.239D-03-0.200D-02-0.403D-02-0.837D-02-0.927D-02
 Coeff:      0.832D-01 0.271D+00 0.669D+00
 Gap=     0.272 Goal=   None    Shift=    0.000
 RMSDP=1.83D-06 MaxDP=3.40D-04 DE=-3.39D-07 OVMax= 3.33D-05

 Cycle  10  Pass 1  IDiag  1:
 RMSU=  8.71D-07    CP:  7.88D-01  8.14D-01  9.89D-01  6.69D-01  7.77D-01
                    CP:  1.01D+00  9.61D-01  9.27D-01  8.73D-01
 E= -1467.54480765502     Delta-E=       -0.000000023063 Rises=F Damp=F
 DIIS: error= 1.54D-06 at cycle  10 NSaved=  10.
 NSaved=10 IEnMin=10 EnMin= -1467.54480765502     IErMin=10 ErrMin= 1.54D-06
 ErrMax= 1.54D-06  0.00D+00 EMaxC= 1.00D-01 BMatC= 3.85D-09 BMatP= 2.76D-08
 IDIUse=1 WtCom= 1.00D+00 WtEn= 0.00D+00
 Coeff-Com:  0.123D-04-0.105D-04-0.278D-03-0.707D-03-0.230D-02-0.790D-02
 Coeff-Com:  0.116D-02 0.395D-01 0.287D+00 0.683D+00
 Coeff:      0.123D-04-0.105D-04-0.278D-03-0.707D-03-0.230D-02-0.790D-02
 Coeff:      0.116D-02 0.395D-01 0.287D+00 0.683D+00
 Gap=     0.272 Goal=   None    Shift=    0.000
 RMSDP=4.07D-07 MaxDP=4.77D-05 DE=-2.31D-08 OVMax= 1.43D-05

 Cycle  11  Pass 1  IDiag  1:
 RMSU=  3.43D-07    CP:  7.88D-01  8.14D-01  9.89D-01  6.69D-01  7.77D-01
                    CP:  1.01D+00  9.64D-01  9.40D-01  9.07D-01  1.03D+00
 E= -1467.54480765751     Delta-E=       -0.000000002491 Rises=F Damp=F
 DIIS: error= 5.18D-07 at cycle  11 NSaved=  11.
 NSaved=11 IEnMin=11 EnMin= -1467.54480765751     IErMin=11 ErrMin= 5.18D-07
 ErrMax= 5.18D-07  0.00D+00 EMaxC= 1.00D-01 BMatC= 9.12D-10 BMatP= 3.85D-09
 IDIUse=1 WtCom= 1.00D+00 WtEn= 0.00D+00
 Coeff-Com: -0.151D-04 0.318D-04 0.180D-03 0.278D-03 0.150D-03-0.287D-02
 Coeff-Com: -0.135D-01-0.261D-01 0.415D-01 0.372D+00 0.628D+00
 Coeff:     -0.151D-04 0.318D-04 0.180D-03 0.278D-03 0.150D-03-0.287D-02
 Coeff:     -0.135D-01-0.261D-01 0.415D-01 0.372D+00 0.628D+00
 Gap=     0.272 Goal=   None    Shift=    0.000
 RMSDP=2.73D-07 MaxDP=4.04D-05 DE=-2.49D-09 OVMax= 7.05D-06

 Cycle  12  Pass 1  IDiag  1:
 RMSU=  1.23D-07    CP:  7.88D-01  8.14D-01  9.89D-01  6.69D-01  7.77D-01
                    CP:  1.01D+00  9.62D-01  9.43D-01  9.42D-01  1.07D+00
                    CP:  9.60D-01
 E= -1467.54480765840     Delta-E=       -0.000000000890 Rises=F Damp=F
 DIIS: error= 1.52D-07 at cycle  12 NSaved=  12.
 NSaved=12 IEnMin=12 EnMin= -1467.54480765840     IErMin=12 ErrMin= 1.52D-07
 ErrMax= 1.52D-07  0.00D+00 EMaxC= 1.00D-01 BMatC= 5.01D-11 BMatP= 9.12D-10
 IDIUse=1 WtCom= 1.00D+00 WtEn= 0.00D+00
 Coeff-Com: -0.606D-05 0.120D-04 0.915D-04 0.162D-03 0.272D-03-0.256D-03
 Coeff-Com: -0.481D-02-0.131D-01-0.129D-01 0.672D-01 0.236D+00 0.727D+00
 Coeff:     -0.606D-05 0.120D-04 0.915D-04 0.162D-03 0.272D-03-0.256D-03
 Coeff:     -0.481D-02-0.131D-01-0.129D-01 0.672D-01 0.236D+00 0.727D+00
 Gap=     0.272 Goal=   None    Shift=    0.000
 RMSDP=4.95D-08 MaxDP=9.89D-06 DE=-8.90D-10 OVMax= 3.52D-06

 Cycle  13  Pass 1  IDiag  1:
 RMSU=  3.26D-08    CP:  7.88D-01  8.14D-01  9.89D-01  6.69D-01  7.77D-01
                    CP:  1.01D+00  9.62D-01  9.43D-01  9.44D-01  1.10D+00
                    CP:  9.70D-01  9.42D-01
 E= -1467.54480765837     Delta-E=        0.000000000035 Rises=F Damp=F
 DIIS: error= 6.57D-08 at cycle  13 NSaved=  13.
 NSaved=13 IEnMin=12 EnMin= -1467.54480765840     IErMin=13 ErrMin= 6.57D-08
 ErrMax= 6.57D-08  0.00D+00 EMaxC= 1.00D-01 BMatC= 7.42D-12 BMatP= 5.01D-11
 IDIUse=1 WtCom= 1.00D+00 WtEn= 0.00D+00
 Coeff-Com: -0.350D-06 0.534D-06 0.148D-04 0.297D-04 0.840D-04 0.242D-03
 Coeff-Com: -0.312D-03-0.201D-02-0.103D-01-0.216D-01 0.134D-01 0.290D+00
 Coeff-Com:  0.731D+00
 Coeff:     -0.350D-06 0.534D-06 0.148D-04 0.297D-04 0.840D-04 0.242D-03
 Coeff:     -0.312D-03-0.201D-02-0.103D-01-0.216D-01 0.134D-01 0.290D+00
 Coeff:      0.731D+00
 Gap=     0.272 Goal=   None    Shift=    0.000
 RMSDP=2.61D-08 MaxDP=6.25D-06 DE= 3.50D-11 OVMax= 1.17D-06

 Cycle  14  Pass 1  IDiag  1:
 RMSU=  1.58D-08    CP:  7.88D-01  8.14D-01  9.89D-01  6.69D-01  7.77D-01
                    CP:  1.01D+00  9.62D-01  9.43D-01  9.44D-01  1.10D+00
                    CP:  9.96D-01  1.01D+00  9.39D-01
 E= -1467.54480765842     Delta-E=       -0.000000000050 Rises=F Damp=F
 DIIS: error= 3.09D-08 at cycle  14 NSaved=  14.
 NSaved=14 IEnMin=14 EnMin= -1467.54480765842     IErMin=14 ErrMin= 3.09D-08
 ErrMax= 3.09D-08  0.00D+00 EMaxC= 1.00D-01 BMatC= 1.09D-12 BMatP= 7.42D-12
 IDIUse=1 WtCom= 1.00D+00 WtEn= 0.00D+00
 Coeff-Com:  0.768D-06-0.155D-05-0.661D-05-0.102D-04-0.338D-05 0.148D-03
 Coeff-Com:  0.556D-03 0.107D-02-0.211D-02-0.191D-01-0.273D-01 0.149D-01
 Coeff-Com:  0.299D+00 0.733D+00
 Coeff:      0.768D-06-0.155D-05-0.661D-05-0.102D-04-0.338D-05 0.148D-03
 Coeff:      0.556D-03 0.107D-02-0.211D-02-0.191D-01-0.273D-01 0.149D-01
 Coeff:      0.299D+00 0.733D+00
 Gap=     0.272 Goal=   None    Shift=    0.000
 RMSDP=8.34D-09 MaxDP=1.69D-06 DE=-5.00D-11 OVMax= 1.04D-06

 Cycle  15  Pass 1  IDiag  1:
 RMSU=  5.63D-09    CP:  7.88D-01  8.14D-01  9.89D-01  6.69D-01  7.77D-01
                    CP:  1.01D+00  9.62D-01  9.43D-01  9.44D-01  1.10D+00
                    CP:  1.00D+00  1.03D+00  1.05D+00  9.70D-01
 E= -1467.54480765830     Delta-E=        0.000000000118 Rises=F Damp=F
 DIIS: error= 1.43D-08 at cycle  15 NSaved=  15.
 NSaved=15 IEnMin=14 EnMin= -1467.54480765842     IErMin=15 ErrMin= 1.43D-08
 ErrMax= 1.43D-08  0.00D+00 EMaxC= 1.00D-01 BMatC= 2.00D-13 BMatP= 1.09D-12
 IDIUse=1 WtCom= 1.00D+00 WtEn= 0.00D+00
 Coeff-Com:  0.348D-06-0.693D-06-0.469D-05-0.783D-05-0.127D-04 0.321D-04
 Coeff-Com:  0.269D-03 0.719D-03 0.564D-03-0.526D-02-0.135D-01-0.383D-01
 Coeff-Com:  0.103D-01 0.318D+00 0.727D+00
 Coeff:      0.348D-06-0.693D-06-0.469D-05-0.783D-05-0.127D-04 0.321D-04
 Coeff:      0.269D-03 0.719D-03 0.564D-03-0.526D-02-0.135D-01-0.383D-01
 Coeff:      0.103D-01 0.318D+00 0.727D+00
 Gap=     0.272 Goal=   None    Shift=    0.000
 RMSDP=3.52D-09 MaxDP=5.30D-07 DE= 1.18D-10 OVMax= 2.55D-07

 SCF Done:  E(RM062X) =  -1467.54480766     A.U. after   15 cycles
            NFock= 15  Conv=0.35D-08     -V/T= 2.0033
 KE= 1.462646038716D+03 PE=-7.990818084236D+03 EE= 2.792512793206D+03
 Leave Link  502 at Thu Dec 15 12:46:41 2022, MaxMem= 13421772800 cpu:            6326.8 elap:             264.5
 (Enter /data0/home/software/g16/l601.exe)
 Copying SCF densities to generalized density rwf, IOpCl= 0 IROHF=0.

 **********************************************************************

            Population analysis using the SCF density.

 **********************************************************************

 Alpha  occ. eigenvalues --  -78.13984 -19.65271 -19.63042 -19.63002 -19.61507
 Alpha  occ. eigenvalues --  -19.61344 -19.61169 -19.60885 -19.60623 -19.57104
 Alpha  occ. eigenvalues --  -14.88112 -10.66530 -10.63797 -10.63480 -10.62085
 Alpha  occ. eigenvalues --  -10.59751 -10.59521 -10.58773 -10.56810 -10.55585
 Alpha  occ. eigenvalues --  -10.55083  -6.94698  -5.06632  -5.06577  -5.06408
 Alpha  occ. eigenvalues --   -1.21108  -1.20192  -1.15592  -1.13232  -1.13128
 Alpha  occ. eigenvalues --   -1.12436  -1.11932  -1.11810  -1.10265  -1.07459
 Alpha  occ. eigenvalues --   -0.97619  -0.92572  -0.91133  -0.84219  -0.82567
 Alpha  occ. eigenvalues --   -0.76490  -0.74638  -0.71093  -0.69060  -0.64740
 Alpha  occ. eigenvalues --   -0.63911  -0.62484  -0.62216  -0.61253  -0.60774
 Alpha  occ. eigenvalues --   -0.60415  -0.59863  -0.59033  -0.57713  -0.56050
 Alpha  occ. eigenvalues --   -0.55208  -0.54518  -0.54308  -0.53377  -0.52668
 Alpha  occ. eigenvalues --   -0.51633  -0.50918  -0.49685  -0.49071  -0.48705
 Alpha  occ. eigenvalues --   -0.48601  -0.47420  -0.46934  -0.46622  -0.46159
 Alpha  occ. eigenvalues --   -0.45736  -0.45121  -0.44462  -0.43643  -0.43319
 Alpha  occ. eigenvalues --   -0.42899  -0.42223  -0.40932  -0.39861  -0.39266
 Alpha  occ. eigenvalues --   -0.38505  -0.37717  -0.36951  -0.36680  -0.35905
 Alpha  occ. eigenvalues --   -0.35647  -0.35212  -0.33012
 Alpha virt. eigenvalues --   -0.05810  -0.02208  -0.00097   0.00786   0.01222
 Alpha virt. eigenvalues --    0.01915   0.02333   0.02940   0.03547   0.03946
 Alpha virt. eigenvalues --    0.04244   0.05248   0.05730   0.05860   0.06234
 Alpha virt. eigenvalues --    0.06412   0.06592   0.07336   0.07623   0.08708
 Alpha virt. eigenvalues --    0.09190   0.09387   0.09709   0.10345   0.10383
 Alpha virt. eigenvalues --    0.10865   0.11563   0.11885   0.12193   0.12848
 Alpha virt. eigenvalues --    0.13346   0.13759   0.14085   0.14566   0.14722
 Alpha virt. eigenvalues --    0.15024   0.15238   0.15409   0.15853   0.16450
 Alpha virt. eigenvalues --    0.16797   0.16971   0.17452   0.17666   0.18288
 Alpha virt. eigenvalues --    0.18398   0.18755   0.18943   0.19185   0.19216
 Alpha virt. eigenvalues --    0.19820   0.20285   0.20534   0.20699   0.21167
 Alpha virt. eigenvalues --    0.21391   0.21699   0.22240   0.22250   0.22659
 Alpha virt. eigenvalues --    0.23117   0.23378   0.23489   0.24072   0.24126
 Alpha virt. eigenvalues --    0.24411   0.24781   0.25263   0.25364   0.25835
 Alpha virt. eigenvalues --    0.26456   0.26902   0.27091   0.27476   0.27791
 Alpha virt. eigenvalues --    0.27977   0.28182   0.28458   0.29182   0.29409
 Alpha virt. eigenvalues --    0.29537   0.29787   0.30032   0.30361   0.30575
 Alpha virt. eigenvalues --    0.31396   0.31563   0.31672   0.31940   0.32102
 Alpha virt. eigenvalues --    0.32693   0.33063   0.33162   0.33394   0.33775
 Alpha virt. eigenvalues --    0.34527   0.34789   0.34926   0.35190   0.35734
 Alpha virt. eigenvalues --    0.36185   0.36376   0.37134   0.37635   0.37899
 Alpha virt. eigenvalues --    0.38186   0.38827   0.39105   0.39451   0.39995
 Alpha virt. eigenvalues --    0.40454   0.40851   0.41198   0.42150   0.42295
 Alpha virt. eigenvalues --    0.43717   0.43825   0.44168   0.44710   0.45591
 Alpha virt. eigenvalues --    0.46986   0.47677   0.48229   0.48657   0.48925
 Alpha virt. eigenvalues --    0.49963   0.50265   0.51203   0.51598   0.52840
 Alpha virt. eigenvalues --    0.53667   0.54265   0.54685   0.54905   0.55485
 Alpha virt. eigenvalues --    0.56208   0.56598   0.56894   0.57400   0.58474
 Alpha virt. eigenvalues --    0.59130   0.59633   0.59891   0.60765   0.61177
 Alpha virt. eigenvalues --    0.61918   0.62878   0.63016   0.64019   0.64250
 Alpha virt. eigenvalues --    0.64507   0.64986   0.65126   0.66273   0.66923
 Alpha virt. eigenvalues --    0.67216   0.67425   0.68115   0.68312   0.68667
 Alpha virt. eigenvalues --    0.69524   0.70137   0.70682   0.71315   0.71372
 Alpha virt. eigenvalues --    0.72051   0.72841   0.73290   0.73725   0.73907
 Alpha virt. eigenvalues --    0.75304   0.75456   0.76096   0.76828   0.77492
 Alpha virt. eigenvalues --    0.78222   0.79176   0.79894   0.79999   0.80966
 Alpha virt. eigenvalues --    0.81399   0.81991   0.82520   0.83501   0.84081
 Alpha virt. eigenvalues --    0.84549   0.85038   0.85148   0.86227   0.86249
 Alpha virt. eigenvalues --    0.87202   0.88432   0.88995   0.89743   0.90560
 Alpha virt. eigenvalues --    0.91575   0.92233   0.93034   0.93988   0.95237
 Alpha virt. eigenvalues --    0.95332   0.96722   0.97818   0.99838   1.00925
 Alpha virt. eigenvalues --    1.01101   1.02393   1.03703   1.04496   1.06336
 Alpha virt. eigenvalues --    1.07497   1.08044   1.08907   1.10495   1.10593
 Alpha virt. eigenvalues --    1.11165   1.12005   1.12546   1.13139   1.13897
 Alpha virt. eigenvalues --    1.14502   1.15440   1.16302   1.17014   1.18087
 Alpha virt. eigenvalues --    1.18655   1.18996   1.19772   1.20067   1.20257
 Alpha virt. eigenvalues --    1.20960   1.21545   1.21967   1.22944   1.23759
 Alpha virt. eigenvalues --    1.24109   1.24562   1.24974   1.26354   1.26698
 Alpha virt. eigenvalues --    1.27158   1.28092   1.29150   1.29674   1.29908
 Alpha virt. eigenvalues --    1.30245   1.30393   1.30725   1.31892   1.32429
 Alpha virt. eigenvalues --    1.32752   1.33498   1.33708   1.34716   1.34967
 Alpha virt. eigenvalues --    1.35864   1.36028   1.36324   1.37218   1.37756
 Alpha virt. eigenvalues --    1.37951   1.38896   1.39242   1.39937   1.40777
 Alpha virt. eigenvalues --    1.41109   1.41395   1.41680   1.42494   1.43098
 Alpha virt. eigenvalues --    1.44041   1.44515   1.44885   1.45139   1.45559
 Alpha virt. eigenvalues --    1.45931   1.46985   1.47215   1.48177   1.48549
 Alpha virt. eigenvalues --    1.49688   1.50736   1.51654   1.52356   1.52475
 Alpha virt. eigenvalues --    1.54479   1.55932   1.56657   1.57389   1.58170
 Alpha virt. eigenvalues --    1.59092   1.59637   1.60290   1.61970   1.62885
 Alpha virt. eigenvalues --    1.63773   1.64395   1.65932   1.66483   1.67838
 Alpha virt. eigenvalues --    1.68257   1.71039   1.71125   1.71322   1.72218
 Alpha virt. eigenvalues --    1.73357   1.73694   1.74572   1.75281   1.75655
 Alpha virt. eigenvalues --    1.76432   1.77607   1.77771   1.78763   1.79666
 Alpha virt. eigenvalues --    1.80341   1.80990   1.81652   1.82919   1.83621
 Alpha virt. eigenvalues --    1.85094   1.85751   1.86077   1.86606   1.87952
 Alpha virt. eigenvalues --    1.89008   1.89132   1.91130   1.92205   1.93345
 Alpha virt. eigenvalues --    1.93660   1.94245   1.95744   1.96196   1.96973
 Alpha virt. eigenvalues --    1.98474   1.99028   2.00323   2.01908   2.02563
 Alpha virt. eigenvalues --    2.04328   2.05814   2.06160   2.08219   2.09233
 Alpha virt. eigenvalues --    2.10417   2.11151   2.11843   2.12121   2.12918
 Alpha virt. eigenvalues --    2.13654   2.14568   2.15842   2.15933   2.17174
 Alpha virt. eigenvalues --    2.18381   2.20049   2.20389   2.20995   2.22016
 Alpha virt. eigenvalues --    2.22737   2.23796   2.24768   2.27890   2.28101
 Alpha virt. eigenvalues --    2.28749   2.29538   2.29933   2.30667   2.31747
 Alpha virt. eigenvalues --    2.33168   2.33510   2.34602   2.35677   2.36329
 Alpha virt. eigenvalues --    2.37916   2.38147   2.39785   2.40332   2.41961
 Alpha virt. eigenvalues --    2.43265   2.43442   2.44921   2.45742   2.46435
 Alpha virt. eigenvalues --    2.48515   2.49341   2.50242   2.51527   2.52246
 Alpha virt. eigenvalues --    2.55780   2.57947   2.58103   2.58945   2.60463
 Alpha virt. eigenvalues --    2.61485   2.63296   2.67091   2.67437   2.68310
 Alpha virt. eigenvalues --    2.69102   2.69807   2.71206   2.71852   2.74176
 Alpha virt. eigenvalues --    2.75699   2.76334   2.77864   2.80948   2.83078
 Alpha virt. eigenvalues --    2.83886   2.85108   2.85972   2.86802   2.87228
 Alpha virt. eigenvalues --    2.88621   2.89240   2.90335   2.91819   2.91964
 Alpha virt. eigenvalues --    2.93588   2.94300   2.96034   2.96962   2.97287
 Alpha virt. eigenvalues --    2.99629   3.01121   3.01842   3.02195   3.03140
 Alpha virt. eigenvalues --    3.05237   3.06419   3.08665   3.09924   3.11650
 Alpha virt. eigenvalues --    3.13040   3.14511   3.16684   3.17687   3.19084
 Alpha virt. eigenvalues --    3.19835   3.20605   3.22700   3.24701   3.26225
 Alpha virt. eigenvalues --    3.27196   3.28163   3.30516   3.33380   3.35230
 Alpha virt. eigenvalues --    3.36162   3.37043   3.37842   3.39341   3.40648
 Alpha virt. eigenvalues --    3.41896   3.43130   3.43552   3.44530   3.47729
 Alpha virt. eigenvalues --    3.48660   3.50451   3.50590   3.52982   3.53408
 Alpha virt. eigenvalues --    3.55159   3.56357   3.56672   3.57614   3.59005
 Alpha virt. eigenvalues --    3.59720   3.61204   3.62662   3.63090   3.63884
 Alpha virt. eigenvalues --    3.65117   3.66484   3.67881   3.68984   3.70898
 Alpha virt. eigenvalues --    3.72390   3.73084   3.73754   3.75194   3.76251
 Alpha virt. eigenvalues --    3.77559   3.78211   3.81032   3.83128   3.85208
 Alpha virt. eigenvalues --    3.85618   3.89939   3.90291   3.94130   3.95238
 Alpha virt. eigenvalues --    4.00137   4.00470   4.04468   4.05239   4.08628
 Alpha virt. eigenvalues --    4.10345   4.15944   4.17440   4.19218   4.23231
 Alpha virt. eigenvalues --    4.25430   4.28498   4.31572   4.39921   4.41886
 Alpha virt. eigenvalues --    4.50935   4.53319   4.65954   4.73293   4.98834
 Alpha virt. eigenvalues --    5.03413   5.09109   5.11585   5.12694   5.14565
 Alpha virt. eigenvalues --    5.16128   5.17351   5.19741   5.20946   5.23080
 Alpha virt. eigenvalues --    5.25205   5.30618   5.31951   5.35765   5.36913
 Alpha virt. eigenvalues --    5.40289   5.42736   5.43534   5.47529   5.48699
 Alpha virt. eigenvalues --    5.55926   5.58159   5.59274   5.60364   5.62059
 Alpha virt. eigenvalues --    5.63410   5.67589   5.69554   5.77449   5.94409
 Alpha virt. eigenvalues --    5.99202   6.01558   6.03028   6.23690   6.77589
 Alpha virt. eigenvalues --    6.78965   6.79989   6.80142   6.81405   6.81991
 Alpha virt. eigenvalues --    6.83566   6.83949   6.84523   6.85101   6.85617
 Alpha virt. eigenvalues --    6.86670   6.87421   6.88264   6.90007   6.91336
 Alpha virt. eigenvalues --    6.92136   6.92996   6.94306   6.96234   6.96503
 Alpha virt. eigenvalues --    6.97498   7.00700   7.00749   7.02470   7.03628
 Alpha virt. eigenvalues --    7.03965   7.05661   7.07536   7.08678   7.08916
 Alpha virt. eigenvalues --    7.15210   7.17135   7.19976   7.21988   7.22622
 Alpha virt. eigenvalues --    7.26373   7.28924   7.31779   7.32208   7.35750
 Alpha virt. eigenvalues --    7.39123   7.39431   7.42405   7.46721   7.73691
 Alpha virt. eigenvalues --   14.30793  14.37261  14.42471  23.85448  23.99369
 Alpha virt. eigenvalues --   24.00806  24.04130  24.06325  24.10905  24.11932
 Alpha virt. eigenvalues --   24.14248  24.24477  24.26111  35.71560  50.05211
 Alpha virt. eigenvalues --   50.05268  50.07025  50.09801  50.10439  50.11879
 Alpha virt. eigenvalues --   50.16120  50.18993  50.20821 163.99205
          Condensed to atoms (all electrons):
               1          2          3          4          5          6
     1  C   15.757751  -6.775378  -0.305327  -1.602602  -0.428760  -0.005857
     2  C   -6.775378  14.524291  -2.769537   2.672580  -1.776614   0.003382
     3  C   -0.305327  -2.769537  12.576767  -4.773534   2.675483   0.361521
     4  C   -1.602602   2.672580  -4.773534  12.634796  -4.141874   0.003061
     5  C   -0.428760  -1.776614   2.675483  -4.141874  10.702893  -0.002216
     6  H   -0.005857   0.003382   0.361521   0.003061  -0.002216   0.480221
     7  H    0.273616   0.084800  -0.007467   0.010683  -0.018674  -0.000064
     8  H    0.000928   0.009333  -0.022132   0.388682  -0.013993  -0.003151
     9  H   -0.010904   0.025318  -0.033927   0.004572   0.337198  -0.000165
    10  C    0.634163  -1.003287  -0.738019   0.396301  -0.202410  -0.007334
    11  H    0.124202  -0.120394  -0.073068   0.009729  -0.001960   0.002377
    12  H   -0.171337   0.162485   0.037516  -0.005797   0.011283   0.000729
    13  H    0.109045  -0.191757   0.001994  -0.021245   0.008158  -0.000247
    14  N   -0.648750   0.572976  -0.475794   0.466000  -0.367849   0.002740
    15  C    0.070094  -0.310889  -0.008861  -0.191931  -0.361434  -0.000905
    16  H    0.008919  -0.010401  -0.007701   0.045862  -0.037138   0.000002
    17  H    0.018750   0.012757   0.000876  -0.010533   0.003485  -0.000001
    18  C   -0.334941   0.391339   0.118011  -0.297162   0.236332  -0.000531
    19  H    0.041756  -0.012883   0.001106  -0.012587  -0.016529  -0.000001
    20  H   -0.003231  -0.000048  -0.000363   0.002911   0.003381   0.000000
    21  C    0.480483  -0.471114   0.004056   0.124854   0.102736   0.000181
    22  H    0.003049  -0.000223   0.001789  -0.001629   0.003517   0.000000
    23  H    0.023742  -0.006691   0.004426  -0.000808  -0.007927  -0.000001
    24  C   -0.381775   0.380712  -0.315648   0.260086  -0.302791  -0.000571
    25  O   -0.001568   0.017136  -0.005659   0.005513  -0.007121   0.000146
    26  O   -0.363487  -0.066568   0.138350   0.000512   0.083490   0.000618
    27  P    0.012352  -0.083018   0.132183  -0.138329   0.114958  -0.002319
    28  O    0.034354   0.024346  -0.165371   0.223370  -0.107746  -0.000140
    29  O    0.006090  -0.092324   0.010609  -0.090461   0.050382  -0.006609
    30  H    0.038697   0.148181  -0.073276  -0.006095  -0.027444  -0.000961
    31  O    0.004798   0.005685   0.041700  -0.047257  -0.003634   0.000074
    32  H   -0.001567  -0.006467   0.000997   0.006444   0.001230  -0.000042
    33  O   -0.026783   0.016342  -0.034071   0.049462  -0.020469  -0.000024
    34  H   -0.001562   0.001526  -0.001290  -0.002141   0.003829  -0.000040
    35  O   -0.075509  -0.036743   0.017410  -0.003086   0.012273   0.000003
    36  H    0.010822   0.015533  -0.012182   0.005257  -0.009109   0.000001
    37  H    0.037072  -0.025294  -0.004909   0.000219  -0.000493  -0.000000
    38  O   -0.003879   0.001515  -0.008396  -0.027026  -0.010843   0.000000
    39  H   -0.008332  -0.000823   0.007366  -0.024367   0.061415  -0.000000
    40  H    0.000523   0.000041  -0.000788   0.001826   0.003674   0.000000
    41  O    0.049360   0.016547  -0.093250  -0.051667  -0.052850  -0.000026
    42  H   -0.017088  -0.004921   0.021347  -0.016033   0.031757  -0.000006
    43  H   -0.000645   0.000309   0.015843   0.042329   0.003277   0.000053
               7          8          9         10         11         12
     1  C    0.273616   0.000928  -0.010904   0.634163   0.124202  -0.171337
     2  C    0.084800   0.009333   0.025318  -1.003287  -0.120394   0.162485
     3  C   -0.007467  -0.022132  -0.033927  -0.738019  -0.073068   0.037516
     4  C    0.010683   0.388682   0.004572   0.396301   0.009729  -0.005797
     5  C   -0.018674  -0.013993   0.337198  -0.202410  -0.001960   0.011283
     6  H   -0.000064  -0.003151  -0.000165  -0.007334   0.002377   0.000729
     7  H    0.444241   0.000011  -0.000044   0.015776  -0.000484   0.000312
     8  H    0.000011   0.471471  -0.002807   0.000401  -0.000006   0.000021
     9  H   -0.000044  -0.002807   0.465216   0.003150  -0.000002  -0.000010
    10  C    0.015776   0.000401   0.003150   6.579230   0.426387   0.324437
    11  H   -0.000484  -0.000006  -0.000002   0.426387   0.498765  -0.021555
    12  H    0.000312   0.000021  -0.000010   0.324437  -0.021555   0.470487
    13  H    0.004368   0.000013  -0.000004   0.453400  -0.020037  -0.023960
    14  N   -0.034977  -0.000605  -0.033969  -0.063189  -0.001337  -0.005040
    15  C   -0.001782   0.001245   0.017229  -0.002987   0.000219  -0.002557
    16  H    0.000348  -0.000055   0.002612  -0.000483  -0.000000  -0.000002
    17  H    0.002402   0.000016  -0.000338   0.001543  -0.000002   0.000013
    18  C    0.015046   0.001249   0.016457  -0.029191   0.000099   0.002304
    19  H   -0.000231   0.000042  -0.001784   0.002697   0.000000  -0.000003
    20  H   -0.000111  -0.000002  -0.000160  -0.000462   0.000000   0.000000
    21  C   -0.017355   0.000054  -0.009873   0.044560  -0.000106  -0.005621
    22  H   -0.000102   0.000000   0.000007   0.000015   0.000000   0.000002
    23  H   -0.001010   0.000001   0.000003   0.005022  -0.000003   0.000021
    24  C    0.015375  -0.000517   0.006271  -0.022328   0.000260   0.002019
    25  O   -0.000024  -0.000232  -0.001036   0.008497  -0.000019  -0.000124
    26  O   -0.015933  -0.000147   0.000032   0.003495   0.001138   0.003112
    27  P   -0.000303  -0.000428   0.000958  -0.027145   0.000141   0.002315
    28  O    0.000027  -0.015148  -0.000646   0.009393  -0.000062  -0.000086
    29  O   -0.000723   0.000070   0.000039   0.000343  -0.001154  -0.005905
    30  H    0.001228   0.000267  -0.000132  -0.016612  -0.000851   0.007739
    31  O   -0.000003   0.000060   0.000006  -0.011308   0.000053   0.000081
    32  H   -0.000000  -0.000007   0.000001   0.000565   0.000004   0.000054
    33  O    0.000034  -0.000133   0.000161   0.009531  -0.000012  -0.000420
    34  H   -0.000039   0.000043   0.000034  -0.000367   0.000002   0.000093
    35  O    0.010967  -0.000004   0.000002   0.040651   0.001541  -0.005214
    36  H   -0.002155   0.000004  -0.000004   0.011136  -0.000389  -0.000453
    37  H   -0.001126  -0.000000  -0.000000   0.005272  -0.000125  -0.000246
    38  O    0.000005   0.000079   0.019439   0.000302  -0.000000  -0.000000
    39  H    0.000007   0.000176  -0.004816  -0.000213   0.000000   0.000000
    40  H    0.000000  -0.000012  -0.001306  -0.000009   0.000000   0.000000
    41  O   -0.000067  -0.001956   0.000226   0.006472  -0.000005  -0.000031
    42  H    0.000011   0.000238   0.000807  -0.002364   0.000001   0.000008
    43  H   -0.000003   0.000256  -0.005756  -0.001648   0.000001   0.000003
              13         14         15         16         17         18
     1  C    0.109045  -0.648750   0.070094   0.008919   0.018750  -0.334941
     2  C   -0.191757   0.572976  -0.310889  -0.010401   0.012757   0.391339
     3  C    0.001994  -0.475794  -0.008861  -0.007701   0.000876   0.118011
     4  C   -0.021245   0.466000  -0.191931   0.045862  -0.010533  -0.297162
     5  C    0.008158  -0.367849  -0.361434  -0.037138   0.003485   0.236332
     6  H   -0.000247   0.002740  -0.000905   0.000002  -0.000001  -0.000531
     7  H    0.004368  -0.034977  -0.001782   0.000348   0.002402   0.015046
     8  H    0.000013  -0.000605   0.001245  -0.000055   0.000016   0.001249
     9  H   -0.000004  -0.033969   0.017229   0.002612  -0.000338   0.016457
    10  C    0.453400  -0.063189  -0.002987  -0.000483   0.001543  -0.029191
    11  H   -0.020037  -0.001337   0.000219  -0.000000  -0.000002   0.000099
    12  H   -0.023960  -0.005040  -0.002557  -0.000002   0.000013   0.002304
    13  H    0.472551   0.007032   0.004014   0.000002  -0.000001  -0.001503
    14  N    0.007032   6.957888   0.235894  -0.070399  -0.066807  -0.088023
    15  C    0.004014   0.235894   6.649667   0.451230   0.446539  -0.591706
    16  H    0.000002  -0.070399   0.451230   0.440923  -0.021595  -0.039033
    17  H   -0.000001  -0.066807   0.446539  -0.021595   0.468903  -0.042956
    18  C   -0.001503  -0.088023  -0.591706  -0.039033  -0.042956   7.056637
    19  H   -0.000001   0.014040   0.029709  -0.010189   0.003670   0.339397
    20  H   -0.000000   0.003481  -0.032344  -0.002546  -0.003842   0.439630
    21  C    0.004972   0.030330   0.012149   0.006179  -0.008857  -0.807489
    22  H   -0.000003   0.003010   0.002471  -0.000099  -0.000016  -0.020376
    23  H    0.000011  -0.009366  -0.001532  -0.000243  -0.000505  -0.002992
    24  C   -0.002825  -0.105089   0.051044   0.010920   0.000780  -0.171711
    25  O   -0.000033   0.028726   0.003320  -0.000406  -0.000341  -0.065011
    26  O   -0.002619   0.082278  -0.007209  -0.000737  -0.001068   0.073870
    27  P    0.000185   0.007581  -0.015085  -0.000133   0.000165   0.021843
    28  O    0.000003  -0.014263  -0.006493   0.000035   0.000004  -0.006270
    29  O    0.000050   0.002897   0.008441  -0.000008  -0.000020  -0.011207
    30  H    0.000891  -0.004989  -0.002915   0.000010   0.000019   0.010978
    31  O    0.000006   0.000484  -0.000373   0.000000   0.000000  -0.000136
    32  H    0.000000   0.000075   0.000053  -0.000000  -0.000000   0.000123
    33  O   -0.000027   0.002539   0.003486  -0.000003  -0.000006  -0.010699
    34  H    0.000003  -0.001657   0.000214   0.000003   0.000004   0.016804
    35  O   -0.017310   0.016076  -0.001604  -0.000018  -0.000412   0.016142
    36  H    0.001461  -0.008090   0.011279  -0.000008   0.000422  -0.010367
    37  H    0.000468  -0.000218   0.000212   0.000001   0.000008   0.000467
    38  O   -0.000000   0.019870   0.018349  -0.003399   0.000561  -0.095291
    39  H    0.000000  -0.017688  -0.003379  -0.000015   0.000087   0.020695
    40  H   -0.000000   0.000121  -0.001769   0.000295   0.000009   0.001344
    41  O   -0.000006   0.073419   0.098740  -0.002577  -0.000249  -0.118914
    42  H    0.000002  -0.015129  -0.022139   0.000519   0.000015   0.059411
    43  H    0.000001  -0.014763  -0.018672   0.000100   0.000013   0.002537
              19         20         21         22         23         24
     1  C    0.041756  -0.003231   0.480483   0.003049   0.023742  -0.381775
     2  C   -0.012883  -0.000048  -0.471114  -0.000223  -0.006691   0.380712
     3  C    0.001106  -0.000363   0.004056   0.001789   0.004426  -0.315648
     4  C   -0.012587   0.002911   0.124854  -0.001629  -0.000808   0.260086
     5  C   -0.016529   0.003381   0.102736   0.003517  -0.007927  -0.302791
     6  H   -0.000001   0.000000   0.000181   0.000000  -0.000001  -0.000571
     7  H   -0.000231  -0.000111  -0.017355  -0.000102  -0.001010   0.015375
     8  H    0.000042  -0.000002   0.000054   0.000000   0.000001  -0.000517
     9  H   -0.001784  -0.000160  -0.009873   0.000007   0.000003   0.006271
    10  C    0.002697  -0.000462   0.044560   0.000015   0.005022  -0.022328
    11  H    0.000000   0.000000  -0.000106   0.000000  -0.000003   0.000260
    12  H   -0.000003   0.000000  -0.005621   0.000002   0.000021   0.002019
    13  H   -0.000001  -0.000000   0.004972  -0.000003   0.000011  -0.002825
    14  N    0.014040   0.003481   0.030330   0.003010  -0.009366  -0.105089
    15  C    0.029709  -0.032344   0.012149   0.002471  -0.001532   0.051044
    16  H   -0.010189  -0.002546   0.006179  -0.000099  -0.000243   0.010920
    17  H    0.003670  -0.003842  -0.008857  -0.000016  -0.000505   0.000780
    18  C    0.339397   0.439630  -0.807489  -0.020376  -0.002992  -0.171711
    19  H    0.532762  -0.029607   0.034154  -0.000529   0.004439  -0.086683
    20  H   -0.029607   0.501186  -0.066213  -0.008134  -0.001878   0.023181
    21  C    0.034154  -0.066213   7.759696   0.444961   0.465320  -1.594291
    22  H   -0.000529  -0.008134   0.444961   0.490294  -0.027418  -0.097869
    23  H    0.004439  -0.001878   0.465320  -0.027418   0.480488  -0.129499
    24  C   -0.086683   0.023181  -1.594291  -0.097869  -0.129499   7.643622
    25  O   -0.002023  -0.000553  -0.056393  -0.000105   0.004175   0.337130
    26  O    0.005969  -0.001920   0.026453   0.014482   0.005367  -0.195770
    27  P   -0.000250   0.000005  -0.045047   0.000289  -0.000252  -0.047938
    28  O   -0.000158  -0.000003   0.006240  -0.000008   0.000010   0.041924
    29  O    0.000166  -0.000000  -0.037458   0.000169  -0.000051  -0.011624
    30  H   -0.000054  -0.000010   0.055581  -0.000379   0.000284  -0.006779
    31  O   -0.000009   0.000000  -0.002275   0.000002  -0.000002  -0.007896
    32  H    0.000000  -0.000000  -0.000233   0.000000  -0.000000  -0.001356
    33  O    0.000222  -0.000002   0.023189   0.000032  -0.000048   0.003326
    34  H    0.000333  -0.000022   0.016228  -0.000203   0.000194  -0.010521
    35  O   -0.000088   0.000010  -0.003540   0.000937   0.004261  -0.030624
    36  H    0.000023  -0.000036  -0.000593  -0.001057  -0.008749   0.056029
    37  H    0.000001  -0.000002   0.003460   0.000023  -0.000589  -0.006687
    38  O    0.008261   0.003766   0.044647  -0.000018  -0.000114  -0.005589
    39  H   -0.000265  -0.000421  -0.017173   0.000028   0.000050   0.007258
    40  H   -0.000151  -0.000117   0.002487  -0.000005  -0.000001  -0.000083
    41  O    0.010698   0.001164   0.055193   0.000167  -0.000434  -0.050675
    42  H    0.001365  -0.000325  -0.044998  -0.000198   0.000245   0.056679
    43  H   -0.000268   0.000019   0.006810  -0.000006   0.000011  -0.008819
              25         26         27         28         29         30
     1  C   -0.001568  -0.363487   0.012352   0.034354   0.006090   0.038697
     2  C    0.017136  -0.066568  -0.083018   0.024346  -0.092324   0.148181
     3  C   -0.005659   0.138350   0.132183  -0.165371   0.010609  -0.073276
     4  C    0.005513   0.000512  -0.138329   0.223370  -0.090461  -0.006095
     5  C   -0.007121   0.083490   0.114958  -0.107746   0.050382  -0.027444
     6  H    0.000146   0.000618  -0.002319  -0.000140  -0.006609  -0.000961
     7  H   -0.000024  -0.015933  -0.000303   0.000027  -0.000723   0.001228
     8  H   -0.000232  -0.000147  -0.000428  -0.015148   0.000070   0.000267
     9  H   -0.001036   0.000032   0.000958  -0.000646   0.000039  -0.000132
    10  C    0.008497   0.003495  -0.027145   0.009393   0.000343  -0.016612
    11  H   -0.000019   0.001138   0.000141  -0.000062  -0.001154  -0.000851
    12  H   -0.000124   0.003112   0.002315  -0.000086  -0.005905   0.007739
    13  H   -0.000033  -0.002619   0.000185   0.000003   0.000050   0.000891
    14  N    0.028726   0.082278   0.007581  -0.014263   0.002897  -0.004989
    15  C    0.003320  -0.007209  -0.015085  -0.006493   0.008441  -0.002915
    16  H   -0.000406  -0.000737  -0.000133   0.000035  -0.000008   0.000010
    17  H   -0.000341  -0.001068   0.000165   0.000004  -0.000020   0.000019
    18  C   -0.065011   0.073870   0.021843  -0.006270  -0.011207   0.010978
    19  H   -0.002023   0.005969  -0.000250  -0.000158   0.000166  -0.000054
    20  H   -0.000553  -0.001920   0.000005  -0.000003  -0.000000  -0.000010
    21  C   -0.056393   0.026453  -0.045047   0.006240  -0.037458   0.055581
    22  H   -0.000105   0.014482   0.000289  -0.000008   0.000169  -0.000379
    23  H    0.004175   0.005367  -0.000252   0.000010  -0.000051   0.000284
    24  C    0.337130  -0.195770  -0.047938   0.041924  -0.011624  -0.006779
    25  O    8.336357  -0.021119   0.059014   0.001082  -0.013952  -0.014732
    26  O   -0.021119   8.968665   0.023329  -0.017477   0.060199  -0.044602
    27  P    0.059014   0.023329  12.633239   0.418056   0.280598   0.015720
    28  O    0.001082  -0.017477   0.418056   8.342583  -0.081855   0.005369
    29  O   -0.013952   0.060199   0.280598  -0.081855   8.367899   0.105950
    30  H   -0.014732  -0.044602   0.015720   0.005369   0.105950   0.424807
    31  O    0.007546   0.003477   0.160020  -0.028401   0.070551  -0.014934
    32  H   -0.000204   0.000491   0.002584  -0.010658  -0.006155   0.001042
    33  O   -0.010511  -0.001358   0.250168  -0.021001   0.009966  -0.007306
    34  H    0.029148   0.007271  -0.013967  -0.004869  -0.018712   0.013330
    35  O   -0.000540   0.019683   0.000950  -0.000081   0.004838  -0.010903
    36  H    0.001270  -0.053184  -0.000720   0.000023  -0.007694   0.012328
    37  H    0.000242   0.000735   0.000176   0.000003  -0.000009   0.000226
    38  O    0.002464  -0.000317  -0.001147   0.000793  -0.000069   0.000005
    39  H   -0.004200   0.000433   0.002392  -0.001183   0.000085  -0.000025
    40  H    0.000046   0.000000  -0.000026  -0.000013   0.000001  -0.000000
    41  O    0.039410  -0.001489  -0.042483  -0.003938  -0.004102  -0.001466
    42  H   -0.011297  -0.005018   0.013740  -0.005921   0.000405   0.001177
    43  H   -0.003566  -0.000820   0.024992   0.031452   0.001839   0.000236
              31         32         33         34         35         36
     1  C    0.004798  -0.001567  -0.026783  -0.001562  -0.075509   0.010822
     2  C    0.005685  -0.006467   0.016342   0.001526  -0.036743   0.015533
     3  C    0.041700   0.000997  -0.034071  -0.001290   0.017410  -0.012182
     4  C   -0.047257   0.006444   0.049462  -0.002141  -0.003086   0.005257
     5  C   -0.003634   0.001230  -0.020469   0.003829   0.012273  -0.009109
     6  H    0.000074  -0.000042  -0.000024  -0.000040   0.000003   0.000001
     7  H   -0.000003  -0.000000   0.000034  -0.000039   0.010967  -0.002155
     8  H    0.000060  -0.000007  -0.000133   0.000043  -0.000004   0.000004
     9  H    0.000006   0.000001   0.000161   0.000034   0.000002  -0.000004
    10  C   -0.011308   0.000565   0.009531  -0.000367   0.040651   0.011136
    11  H    0.000053   0.000004  -0.000012   0.000002   0.001541  -0.000389
    12  H    0.000081   0.000054  -0.000420   0.000093  -0.005214  -0.000453
    13  H    0.000006   0.000000  -0.000027   0.000003  -0.017310   0.001461
    14  N    0.000484   0.000075   0.002539  -0.001657   0.016076  -0.008090
    15  C   -0.000373   0.000053   0.003486   0.000214  -0.001604   0.011279
    16  H    0.000000  -0.000000  -0.000003   0.000003  -0.000018  -0.000008
    17  H    0.000000  -0.000000  -0.000006   0.000004  -0.000412   0.000422
    18  C   -0.000136   0.000123  -0.010699   0.016804   0.016142  -0.010367
    19  H   -0.000009   0.000000   0.000222   0.000333  -0.000088   0.000023
    20  H    0.000000  -0.000000  -0.000002  -0.000022   0.000010  -0.000036
    21  C   -0.002275  -0.000233   0.023189   0.016228  -0.003540  -0.000593
    22  H    0.000002   0.000000   0.000032  -0.000203   0.000937  -0.001057
    23  H   -0.000002  -0.000000  -0.000048   0.000194   0.004261  -0.008749
    24  C   -0.007896  -0.001356   0.003326  -0.010521  -0.030624   0.056029
    25  O    0.007546  -0.000204  -0.010511   0.029148  -0.000540   0.001270
    26  O    0.003477   0.000491  -0.001358   0.007271   0.019683  -0.053184
    27  P    0.160020   0.002584   0.250168  -0.013967   0.000950  -0.000720
    28  O   -0.028401  -0.010658  -0.021001  -0.004869  -0.000081   0.000023
    29  O    0.070551  -0.006155   0.009966  -0.018712   0.004838  -0.007694
    30  H   -0.014934   0.001042  -0.007306   0.013330  -0.010903   0.012328
    31  O    8.055713   0.237783  -0.014724  -0.008016   0.000066  -0.000113
    32  H    0.237783   0.468264  -0.001795   0.001501  -0.000001   0.000005
    33  O   -0.014724  -0.001795   8.207170   0.200602  -0.000182   0.000467
    34  H   -0.008016   0.001501   0.200602   0.294327   0.000061  -0.000024
    35  O    0.000066  -0.000001  -0.000182   0.000061   8.206796   0.190772
    36  H   -0.000113   0.000005   0.000467  -0.000024   0.190772   0.447694
    37  H   -0.000001  -0.000000   0.000002   0.000003   0.271057  -0.007717
    38  O   -0.000002   0.000000   0.000124  -0.000095  -0.000009   0.000010
    39  H    0.000004  -0.000000  -0.000215   0.000173   0.000002  -0.000004
    40  H   -0.000000   0.000000   0.000002  -0.000002  -0.000000   0.000000
    41  O    0.000044   0.000092   0.023600  -0.014999  -0.000118   0.000220
    42  H   -0.000441   0.000002  -0.013804   0.016105   0.000086  -0.000221
    43  H    0.001433  -0.000080  -0.008941   0.000969   0.000009  -0.000017
              37         38         39         40         41         42
     1  C    0.037072  -0.003879  -0.008332   0.000523   0.049360  -0.017088
     2  C   -0.025294   0.001515  -0.000823   0.000041   0.016547  -0.004921
     3  C   -0.004909  -0.008396   0.007366  -0.000788  -0.093250   0.021347
     4  C    0.000219  -0.027026  -0.024367   0.001826  -0.051667  -0.016033
     5  C   -0.000493  -0.010843   0.061415   0.003674  -0.052850   0.031757
     6  H   -0.000000   0.000000  -0.000000   0.000000  -0.000026  -0.000006
     7  H   -0.001126   0.000005   0.000007   0.000000  -0.000067   0.000011
     8  H   -0.000000   0.000079   0.000176  -0.000012  -0.001956   0.000238
     9  H   -0.000000   0.019439  -0.004816  -0.001306   0.000226   0.000807
    10  C    0.005272   0.000302  -0.000213  -0.000009   0.006472  -0.002364
    11  H   -0.000125  -0.000000   0.000000   0.000000  -0.000005   0.000001
    12  H   -0.000246  -0.000000   0.000000   0.000000  -0.000031   0.000008
    13  H    0.000468  -0.000000   0.000000  -0.000000  -0.000006   0.000002
    14  N   -0.000218   0.019870  -0.017688   0.000121   0.073419  -0.015129
    15  C    0.000212   0.018349  -0.003379  -0.001769   0.098740  -0.022139
    16  H    0.000001  -0.003399  -0.000015   0.000295  -0.002577   0.000519
    17  H    0.000008   0.000561   0.000087   0.000009  -0.000249   0.000015
    18  C    0.000467  -0.095291   0.020695   0.001344  -0.118914   0.059411
    19  H    0.000001   0.008261  -0.000265  -0.000151   0.010698   0.001365
    20  H   -0.000002   0.003766  -0.000421  -0.000117   0.001164  -0.000325
    21  C    0.003460   0.044647  -0.017173   0.002487   0.055193  -0.044998
    22  H    0.000023  -0.000018   0.000028  -0.000005   0.000167  -0.000198
    23  H   -0.000589  -0.000114   0.000050  -0.000001  -0.000434   0.000245
    24  C   -0.006687  -0.005589   0.007258  -0.000083  -0.050675   0.056679
    25  O    0.000242   0.002464  -0.004200   0.000046   0.039410  -0.011297
    26  O    0.000735  -0.000317   0.000433   0.000000  -0.001489  -0.005018
[...]
      2      0.000000
      3      0.000000
      4      0.000000
      5      0.000000
 Electronic spatial extent (au):  <R**2>=           6739.6652
 Charge=             -0.0000 electrons
 Dipole moment (field-independent basis, Debye):
    X=             -0.2302    Y=              0.4236    Z=             -2.0466  Tot=              2.1026
 Quadrupole moment (field-independent basis, Debye-Ang):
   XX=             -7.2732   YY=              0.0216   ZZ=            -43.4488
   XY=              1.3773   XZ=            -13.4727   YZ=            -14.2142
 Traceless Quadrupole moment (field-independent basis, Debye-Ang):
   XX=              9.6269   YY=             16.9217   ZZ=            -26.5487
   XY=              1.3773   XZ=            -13.4727   YZ=            -14.2142
 Octapole moment (field-independent basis, Debye-Ang**2):
  XXX=           -100.3160  YYY=            -94.4072  ZZZ=           -677.9626  XYY=              0.5552
  XXY=            -38.4080  XXZ=           -130.4095  XZZ=           -260.5494  YZZ=           -347.2652
  YYZ=           -159.3328  XYZ=            -88.2945
 Hexadecapole moment (field-independent basis, Debye-Ang**3):
 XXXX=          -1046.7704 YYYY=          -2186.9473 ZZZZ=          -9266.2365 XXXY=           -698.2473
 XXXZ=          -1280.5095 YYYX=           -443.1797 YYYZ=          -2267.5983 ZZZX=          -3940.8096
 ZZZY=          -5632.0005 XXYY=           -347.0827 XXZZ=          -1964.0031 YYZZ=          -3365.4416
 XXYZ=           -920.5987 YYXZ=           -888.4147 ZZXY=          -2017.5825
 N-N= 9.134406638983D+00 E-N=-1.991259045236D+02  KE= 7.620703122396D+01
 No NMR shielding tensors so no spin-rotation constants.
 Leave Link  601 at Thu Dec 15 13:04:13 2022, MaxMem= 13421772800 cpu:               1.8 elap:               0.1
 (Enter /data0/home/software/g16/l122.exe)
 CPIOFr:  IOpCl= 0 IRwI=-1 IRwCP=  731 ICalc=  9 LCPTot=      766270 Len1MO=     2014045 IndFrg=    20906720
 Counterpoise: doing calculation for fragment   5 using the basis set of the fragment.
 Leave Link  122 at Thu Dec 15 13:04:13 2022, MaxMem= 13421772800 cpu:               0.4 elap:               0.0
 (Enter /data0/home/software/g16/l301.exe)
 Basis read from rwf:  (5D, 7F)
 No pseudopotential information found on rwf file.
    39 basis functions,    58 primitive gaussians,    41 cartesian basis functions
     5 alpha electrons        5 beta electrons
       nuclear repulsion energy         9.0699614919 Hartrees.
 IExCor= 4336 DFT=T Ex+Corr=M062X ExCW=0 ScaHFX=  0.540000
 ScaDFX=  1.000000  1.000000  1.000000  1.000000 ScalE2=  1.000000  1.000000
 IRadAn=      5 IRanWt=     -1 IRanGd=            0 ICorTp=0 IEmpDi=131
 NAtoms=   43 NActive=    3 NUniq=    3 SFac= 1.00D+00 NAtFMM=   60 NAOKFM=F Big=F
 Integral buffers will be    131072 words long.
 Raffenetti 2 integral format.
 Two-electron integral symmetry is turned off.
 R6Disp:  Grimme-D3 Dispersion energy=       -0.0000000075 Hartrees.
 Nuclear repulsion after empirical dispersion term =        9.0699614845 Hartrees.
 No density basis found on file   718.
 Leave Link  301 at Thu Dec 15 13:04:13 2022, MaxMem= 13421772800 cpu:               1.3 elap:               0.1
 (Enter /data0/home/software/g16/l302.exe)
 NPDir=0 NMtPBC=     1 NCelOv=     1 NCel=       1 NClECP=     1 NCelD=      1
         NCelK=      1 NCelE2=     1 NClLst=     1 CellRange=     0.0.
 One-electron integrals computed using PRISM.
 NBasis=    39 RedAO= T EigKep=  3.04D-03  NBF=    39
 NBsUse=    39 1.00D-06 EigRej= -1.00D+00 NBFU=    39
 Precomputing XC quadrature grid using
 IXCGrd= 4 IRadAn=           5 IRanWt=          -1 IRanGd=           0 AccXCQ= 0.00D+00.
 Generated NRdTot=       0 NPtTot=           0 NUsed=           0 NTot=          32
 NSgBfM=    41    41    41    41    41 MxSgAt=     3 MxSgA2=     3.
 Leave Link  302 at Thu Dec 15 13:04:13 2022, MaxMem= 13421772800 cpu:               2.3 elap:               0.1
 (Enter /data0/home/software/g16/l303.exe)
 DipDrv:  MaxL=1.
 Leave Link  303 at Thu Dec 15 13:04:13 2022, MaxMem= 13421772800 cpu:               0.4 elap:               0.0
 (Enter /data0/home/software/g16/l401.exe)
 ExpMin= 8.45D-02 ExpMax= 8.59D+03 ExpMxC= 1.30D+03 IAcc=3 IRadAn=         5 AccDes= 0.00D+00
 Harris functional with IExCor= 1009 and IRadAn=       5 diagonalized for initial guess.
 HarFok:  IExCor= 1009 AccDes= 0.00D+00 IRadAn=         5 IDoV= 1 UseB2=F ITyADJ=14
 ICtDFT=  3500011 ScaDFX=  1.000000  1.000000  1.000000  1.000000
 FoFCou: FMM=F IPFlag=           0 FMFlag=      100000 FMFlg1=           0
         NFxFlg=           0 DoJE=T BraDBF=F KetDBF=T FulRan=T
         wScrn=  0.000000 ICntrl=       500 IOpCl=  0 I1Cent=   200000004 NGrid=           0
         NMat0=    1 NMatS0=      1 NMatT0=    0 NMatD0=    1 NMtDS0=    0 NMtDT0=    0
 Symmetry not used in FoFCou.
 Harris En= -76.4160560608739    
 JPrj=0 DoOrth=F DoCkMO=F.
 Leave Link  401 at Thu Dec 15 13:04:14 2022, MaxMem= 13421772800 cpu:               2.9 elap:               0.1
 (Enter /data0/home/software/g16/l502.exe)
 Keep R1 ints in memory in canonical form, NReq=21048072.
 FoFCou: FMM=F IPFlag=           0 FMFlag=           0 FMFlg1=           0
         NFxFlg=           0 DoJE=F BraDBF=F KetDBF=F FulRan=T
         wScrn=  0.000000 ICntrl=       600 IOpCl=  0 I1Cent=           0 NGrid=           0
         NMat0=    1 NMatS0=    780 NMatT0=    0 NMatD0=    1 NMtDS0=    0 NMtDT0=    0
 Symmetry not used in FoFCou.
 Two-electron integral symmetry not used.
 Closed shell SCF:
 Using DIIS extrapolation, IDIIS=  1040.
 NGot= 13421772800 LenX= 13421462154 LenY= 13421460032
 Requested convergence on RMS density matrix=1.00D-08 within 128 cycles.
 Requested convergence on MAX density matrix=1.00D-06.
 Requested convergence on             energy=1.00D-06.
 No special actions if energy rises.
 Integral accuracy reduced to 1.0D-05 until final iterations.

 Cycle   1  Pass 0  IDiag  1:
 E= -76.3468204640168    
 DIIS: error= 6.96D-02 at cycle   1 NSaved=   1.
 NSaved= 1 IEnMin= 1 EnMin= -76.3468204640168     IErMin= 1 ErrMin= 6.96D-02
 ErrMax= 6.96D-02  0.00D+00 EMaxC= 1.00D-01 BMatC= 1.20D-01 BMatP= 1.20D-01
 IDIUse=3 WtCom= 3.04D-01 WtEn= 6.96D-01
 Coeff-Com:  0.100D+01
 Coeff-En:   0.100D+01
 Coeff:      0.100D+01
 Gap=     0.324 Goal=   None    Shift=    0.000
 GapD=    0.324 DampG=1.000 DampE=0.500 DampFc=0.5000 IDamp=-1.
 Damping current iteration by 5.00D-01
 RMSDP=7.96D-03 MaxDP=1.00D-01              OVMax= 1.67D-01

 Cycle   2  Pass 0  IDiag  1:
 E= -76.3778948400666     Delta-E=       -0.031074376050 Rises=F Damp=T
 DIIS: error= 1.12D-02 at cycle   2 NSaved=   2.
 NSaved= 2 IEnMin= 2 EnMin= -76.3778948400666     IErMin= 2 ErrMin= 1.12D-02
 ErrMax= 1.12D-02  0.00D+00 EMaxC= 1.00D-01 BMatC= 4.87D-03 BMatP= 1.20D-01
 IDIUse=3 WtCom= 8.88D-01 WtEn= 1.12D-01
 Coeff-Com:  0.842D-01 0.916D+00
 Coeff-En:   0.190D+00 0.810D+00
 Coeff:      0.961D-01 0.904D+00
 Gap=     0.456 Goal=   None    Shift=    0.000
 RMSDP=9.53D-04 MaxDP=1.42D-02 DE=-3.11D-02 OVMax= 1.00D-01

 Cycle   3  Pass 0  IDiag  1:
 E= -76.4215994106509     Delta-E=       -0.043704570584 Rises=F Damp=F
 DIIS: error= 2.17D-03 at cycle   3 NSaved=   3.
 NSaved= 3 IEnMin= 3 EnMin= -76.4215994106509     IErMin= 3 ErrMin= 2.17D-03
 ErrMax= 2.17D-03  0.00D+00 EMaxC= 1.00D-01 BMatC= 9.12D-05 BMatP= 4.87D-03
 IDIUse=3 WtCom= 9.78D-01 WtEn= 2.17D-02
 Coeff-Com: -0.199D-01 0.397D-01 0.980D+00
 Coeff-En:   0.000D+00 0.000D+00 0.100D+01
 Coeff:     -0.195D-01 0.389D-01 0.981D+00
 Gap=     0.461 Goal=   None    Shift=    0.000
 RMSDP=1.15D-04 MaxDP=1.00D-03 DE=-4.37D-02 OVMax= 3.33D-03

 Cycle   4  Pass 0  IDiag  1:
 E= -76.4216773521846     Delta-E=       -0.000077941534 Rises=F Damp=F
 DIIS: error= 4.17D-04 at cycle   4 NSaved=   4.
 NSaved= 4 IEnMin= 4 EnMin= -76.4216773521846     IErMin= 4 ErrMin= 4.17D-04
 ErrMax= 4.17D-04  0.00D+00 EMaxC= 1.00D-01 BMatC= 3.32D-06 BMatP= 9.12D-05
 IDIUse=3 WtCom= 9.96D-01 WtEn= 4.17D-03
 Coeff-Com: -0.193D-02-0.225D-02 0.163D+00 0.841D+00
 Coeff-En:   0.000D+00 0.000D+00 0.000D+00 0.100D+01
 Coeff:     -0.192D-02-0.224D-02 0.162D+00 0.842D+00
 Gap=     0.461 Goal=   None    Shift=    0.000
 RMSDP=2.23D-05 MaxDP=3.56D-04 DE=-7.79D-05 OVMax= 5.42D-04

 Cycle   5  Pass 0  IDiag  1:
 E= -76.4216794085828     Delta-E=       -0.000002056398 Rises=F Damp=F
 DIIS: error= 8.99D-05 at cycle   5 NSaved=   5.
 NSaved= 5 IEnMin= 5 EnMin= -76.4216794085828     IErMin= 5 ErrMin= 8.99D-05
 ErrMax= 8.99D-05  0.00D+00 EMaxC= 1.00D-01 BMatC= 8.38D-08 BMatP= 3.32D-06
 IDIUse=1 WtCom= 1.00D+00 WtEn= 0.00D+00
 Coeff-Com:  0.119D-02-0.181D-02-0.370D-01-0.659D-01 0.110D+01
 Coeff:      0.119D-02-0.181D-02-0.370D-01-0.659D-01 0.110D+01
 Gap=     0.462 Goal=   None    Shift=    0.000
 RMSDP=9.07D-06 MaxDP=1.03D-04 DE=-2.06D-06 OVMax= 2.06D-04

 Initial convergence to 1.0D-05 achieved.  Increase integral accuracy.
 Cycle   6  Pass 1  IDiag  1:
 E= -76.4216643979667     Delta-E=        0.000015010616 Rises=F Damp=F
 DIIS: error= 1.29D-05 at cycle   1 NSaved=   1.
 NSaved= 1 IEnMin= 1 EnMin= -76.4216643979667     IErMin= 1 ErrMin= 1.29D-05
 ErrMax= 1.29D-05  0.00D+00 EMaxC= 1.00D-01 BMatC= 1.57D-08 BMatP= 1.57D-08
 IDIUse=1 WtCom= 1.00D+00 WtEn= 0.00D+00
 Coeff-Com:  0.100D+01
 Coeff:      0.100D+01
 Gap=     0.462 Goal=   None    Shift=    0.000
 RMSDP=9.07D-06 MaxDP=1.03D-04 DE= 1.50D-05 OVMax= 5.97D-05

 Cycle   7  Pass 1  IDiag  1:
 E= -76.4216644120596     Delta-E=       -0.000000014093 Rises=F Damp=F
 DIIS: error= 1.45D-05 at cycle   2 NSaved=   2.
 NSaved= 2 IEnMin= 2 EnMin= -76.4216644120596     IErMin= 1 ErrMin= 1.29D-05
 ErrMax= 1.45D-05  0.00D+00 EMaxC= 1.00D-01 BMatC= 3.14D-09 BMatP= 1.57D-08
 IDIUse=1 WtCom= 1.00D+00 WtEn= 0.00D+00
 Coeff-Com:  0.186D+00 0.814D+00
 Coeff:      0.186D+00 0.814D+00
 Gap=     0.462 Goal=   None    Shift=    0.000
 RMSDP=1.05D-06 MaxDP=1.72D-05 DE=-1.41D-08 OVMax= 2.76D-05

 Cycle   8  Pass 1  IDiag  1:
 E= -76.4216644132260     Delta-E=       -0.000000001166 Rises=F Damp=F
 DIIS: error= 8.14D-06 at cycle   3 NSaved=   3.
 NSaved= 3 IEnMin= 3 EnMin= -76.4216644132260     IErMin= 3 ErrMin= 8.14D-06
 ErrMax= 8.14D-06  0.00D+00 EMaxC= 1.00D-01 BMatC= 1.85D-09 BMatP= 3.14D-09
 IDIUse=1 WtCom= 1.00D+00 WtEn= 0.00D+00
 Coeff-Com: -0.518D-01 0.440D+00 0.612D+00
 Coeff:     -0.518D-01 0.440D+00 0.612D+00
 Gap=     0.462 Goal=   None    Shift=    0.000
 RMSDP=4.89D-07 MaxDP=6.82D-06 DE=-1.17D-09 OVMax= 1.23D-05

 Cycle   9  Pass 1  IDiag  1:
 E= -76.4216644144652     Delta-E=       -0.000000001239 Rises=F Damp=F
 DIIS: error= 5.57D-07 at cycle   4 NSaved=   4.
 NSaved= 4 IEnMin= 4 EnMin= -76.4216644144652     IErMin= 4 ErrMin= 5.57D-07
 ErrMax= 5.57D-07  0.00D+00 EMaxC= 1.00D-01 BMatC= 5.27D-12 BMatP= 1.85D-09
 IDIUse=1 WtCom= 1.00D+00 WtEn= 0.00D+00
 Coeff-Com: -0.399D-02-0.168D-01-0.155D-01 0.104D+01
 Coeff:     -0.399D-02-0.168D-01-0.155D-01 0.104D+01
 Gap=     0.462 Goal=   None    Shift=    0.000
 RMSDP=8.82D-08 MaxDP=8.40D-07 DE=-1.24D-09 OVMax= 2.00D-06

 Cycle  10  Pass 1  IDiag  1:
 E= -76.4216644144766     Delta-E=       -0.000000000011 Rises=F Damp=F
 DIIS: error= 1.08D-07 at cycle   5 NSaved=   5.
 NSaved= 5 IEnMin= 5 EnMin= -76.4216644144766     IErMin= 5 ErrMin= 1.08D-07
 ErrMax= 1.08D-07  0.00D+00 EMaxC= 1.00D-01 BMatC= 4.38D-13 BMatP= 5.27D-12
 IDIUse=1 WtCom= 1.00D+00 WtEn= 0.00D+00
 Coeff-Com:  0.306D-02-0.321D-01-0.413D-01 0.104D+00 0.966D+00
 Coeff:      0.306D-02-0.321D-01-0.413D-01 0.104D+00 0.966D+00
 Gap=     0.462 Goal=   None    Shift=    0.000
 RMSDP=2.60D-08 MaxDP=2.24D-07 DE=-1.14D-11 OVMax= 5.89D-07

 Cycle  11  Pass 1  IDiag  1:
 E= -76.4216644144775     Delta-E=       -0.000000000001 Rises=F Damp=F
 DIIS: error= 2.94D-08 at cycle   6 NSaved=   6.
 NSaved= 6 IEnMin= 6 EnMin= -76.4216644144775     IErMin= 6 ErrMin= 2.94D-08
 ErrMax= 2.94D-08  0.00D+00 EMaxC= 1.00D-01 BMatC= 1.12D-14 BMatP= 4.38D-13
 IDIUse=1 WtCom= 1.00D+00 WtEn= 0.00D+00
 Coeff-Com:  0.191D-03-0.908D-03 0.510D-03-0.240D-01-0.628D-02 0.103D+01
 Coeff:      0.191D-03-0.908D-03 0.510D-03-0.240D-01-0.628D-02 0.103D+01
 Gap=     0.462 Goal=   None    Shift=    0.000
 RMSDP=3.87D-09 MaxDP=2.99D-08 DE=-9.24D-13 OVMax= 7.94D-08

 SCF Done:  E(RM062X) =  -76.4216644145     A.U. after   11 cycles
            NFock= 11  Conv=0.39D-08     -V/T= 2.0031
 KE= 7.618394992732D+01 PE=-1.989841740674D+02 EE= 3.730859824111D+01
 Leave Link  502 at Thu Dec 15 13:04:14 2022, MaxMem= 13421772800 cpu:               8.6 elap:               0.4
 (Enter /data0/home/software/g16/l601.exe)
 Copying SCF densities to generalized density rwf, IOpCl= 0 IROHF=0.

 **********************************************************************

            Population analysis using the SCF density.

 **********************************************************************

 Alpha  occ. eigenvalues --  -19.62716  -1.13261  -0.60355  -0.47699  -0.39983
 Alpha virt. eigenvalues --    0.06171   0.13268   0.17429   0.17944   0.18896
 Alpha virt. eigenvalues --    0.23426   0.50773   0.53198   0.98180   1.00295
 Alpha virt. eigenvalues --    1.06002   1.17475   1.20101   1.31877   1.34125
 Alpha virt. eigenvalues --    1.70378   1.74210   1.75135   2.07228   2.09388
 Alpha virt. eigenvalues --    2.36298   2.39255   2.54820   2.87456   3.00846
 Alpha virt. eigenvalues --    5.05602   5.48520   5.89832   6.78507   6.80048
 Alpha virt. eigenvalues --    6.87360   6.91614   7.09679  49.95276
          Condensed to atoms (all electrons):
              41         42         43
    41  O    7.920206   0.315586   0.317746
    42  H    0.315586   0.430309  -0.023618
    43  H    0.317746  -0.023618   0.430058
 Mulliken charges:
               1
     1  C    0.000000
     2  C    0.000000
     3  C    0.000000
     4  C    0.000000
     5  C    0.000000
     6  H    0.000000
     7  H    0.000000
     8  H    0.000000
     9  H    0.000000
    10  C    0.000000
    11  H    0.000000
    12  H    0.000000
    13  H    0.000000
    14  N    0.000000
    15  C    0.000000
    16  H    0.000000
    17  H    0.000000
    18  C    0.000000
    19  H    0.000000
    20  H    0.000000
    21  C    0.000000
    22  H    0.000000
    23  H    0.000000
    24  C    0.000000
    25  O    0.000000
    26  O    0.000000
    27  P    0.000000
    28  O    0.000000
    29  O    0.000000
    30  H    0.000000
    31  O    0.000000
    32  H    0.000000
    33  O    0.000000
    34  H    0.000000
    35  O    0.000000
    36  H    0.000000
    37  H    0.000000
    38  O    0.000000
    39  H    0.000000
    40  H    0.000000
    41  O   -0.553538
    42  H    0.277724
    43  H    0.275814
 Sum of Mulliken charges =  -0.00000
 Mulliken charges with hydrogens summed into heavy atoms:
               1
     1  C    0.000000
     2  C    0.000000
     3  C    0.000000
     4  C    0.000000
     5  C    0.000000
    10  C    0.000000
    14  N    0.000000
    15  C    0.000000
    18  C    0.000000
    21  C    0.000000
    24  C    0.000000
    25  O    0.000000
    26  O    0.000000
    27  P    0.000000
    28  O    0.000000
    29  O    0.000000
    31  O    0.000000
    33  O    0.000000
    35  O    0.000000
    38  O    0.000000
    41  O   -0.000000
         Mulliken charges condensed to fragments:
      1      0.000000
      2      0.000000
      3      0.000000
      4      0.000000
      5     -0.000000
 Electronic spatial extent (au):  <R**2>=           7525.9947
 Charge=             -0.0000 electrons
 Dipole moment (field-independent basis, Debye):
    X=              1.9491    Y=              0.8583    Z=             -0.2035  Tot=              2.1395
 Quadrupole moment (field-independent basis, Debye-Ang):
   XX=             23.7780   YY=             11.4895   ZZ=            -10.0908
   XY=             25.2691   XZ=             12.5291   YZ=              5.7096
 Traceless Quadrupole moment (field-independent basis, Debye-Ang):
   XX=             15.3858   YY=              3.0973   ZZ=            -18.4830
   XY=             25.2691   XZ=             12.5291   YZ=              5.7096
 Octapole moment (field-independent basis, Debye-Ang**2):
  XXX=            204.0540  YYY=             92.7636  ZZZ=           -193.6910  XYY=            267.8707
  XXY=            277.2895  XXZ=            157.6440  XZZ=             24.6245  YZZ=            -30.9273
  YYZ=             91.3134  XYZ=            179.1351
 Hexadecapole moment (field-independent basis, Debye-Ang**3):
 XXXX=           1378.1062 YYYY=            239.8540 ZZZZ=          -2756.0139 XXXY=           2316.6330
 XXXZ=           1330.9944 YYYX=           2446.8601 YYYZ=            865.4770 ZZZX=           -745.5492
 ZZZY=          -1306.9696 XXYY=           2845.9095 XXZZ=            615.4556 YYZZ=             58.4426
 XXYZ=           1957.4424 YYXZ=           2005.1233 ZZXY=            744.7747
 N-N= 9.069961484466D+00 E-N=-1.989841745463D+02  KE= 7.618394992732D+01
 No NMR shielding tensors so no spin-rotation constants.
 Leave Link  601 at Thu Dec 15 13:04:14 2022, MaxMem= 13421772800 cpu:               1.8 elap:               0.1
 (Enter /data0/home/software/g16/l122.exe)
 CPIOFr:  IOpCl= 0 IRwI=-1 IRwCP=  731 ICalc= 10 LCPTot=      766270 Len1MO=     2014045 IndFrg=    22920765
 Restoring MOs from calculation   1 to rwf.
 CPIOFr:  IOpCl= 0 IRwI=-2 IRwCP=  731 ICalc=  0 LCPTot=      766270 Len1MO=     2014045 IndFrg=     2780315
 Counterpoise corrected energy =   -1467.536564885686
                   BSSE energy =       0.008242772614
              sum of fragments =   -1467.382671924195
           complexation energy =    -101.74 kcal/mole (raw)
           complexation energy =     -96.57 kcal/mole (corrected)
 Leave Link  122 at Thu Dec 15 13:04:14 2022, MaxMem= 13421772800 cpu:               0.7 elap:               0.0
 (Enter /data0/home/software/g16/l9999.exe)
 1\1\GINC-LOCALHOST\SP\RM062X\6-311+G(2d,p)\C10H22N1O9P1\WUHANYU\15-Dec
 -2022\0\\#p M062X/6-311+G(2d,p) nosymm em=GD3 counterpoise=5\\Title Ca
 rd Required\\0,1\C,0,9.94689,9.447717,11.572389\C,0,11.186354,9.002964
 ,11.097231\C,0,11.220358,8.117471,10.015407\C,0,10.020983,7.722347,9.4
 2174\C,0,8.81088,8.219009,9.896386\H,0,12.179657,7.771882,9.613902\H,0
 ,9.879696,10.142636,12.424537\H,0,10.029032,7.067144,8.542671\H,0,7.85
 5435,7.963163,9.413511\C,0,12.428179,9.544449,11.6963\H,0,13.244615,8.
 813503,11.738195\H,0,12.788474,10.399563,11.081942\H,0,12.28495,9.9558
 02,12.709119\N,0,8.789649,9.059009,10.970397\C,0,7.50499,9.601108,11.4
 69501\H,0,6.701696,8.833451,11.321649\H,0,7.584452,9.77622,12.566645\C
 ,0,7.093603,10.898781,10.753865\H,0,6.889222,10.69871,9.67698\H,0,6.10
 945,11.214127,11.161811\C,0,8.099769,12.037379,10.881403\H,0,7.602983,
 13.012494,10.703149\H,0,8.537002,12.100866,11.893937\C,0,9.19537,11.86
 8358,9.82643\O,0,8.876521,11.970654,8.631204\O,0,10.345532,11.589299,1
 0.24331\P,0,11.428695,10.167135,7.140175\O,0,10.521736,9.030708,6.9467
 76\O,0,12.046504,10.253073,8.60625\H,0,11.4205,10.849709,9.218075\O,0,
 12.712695,10.018246,6.21151\H,0,13.310824,10.843742,6.382759\O,0,10.87
 388,11.610336,6.801765\H,0,10.081313,11.828613,7.48409\O,0,11.071644,1
 2.196057,12.776578\H,0,10.8456,12.005602,11.837911\H,0,11.489115,13.04
 8109,12.759811\O,0,5.565483,8.634762,9.152588\H,0,6.2249,9.006261,8.53
 7799\H,0,4.784715,8.502299,8.624128\O,0,7.595271,9.692701,7.549733\H,0
 ,7.912823,10.568569,7.845122\H,0,8.378589,9.305995,7.141335\\Version=E
 S64L-G16RevA.03\HF=-76.4216644\RMSD=3.871e-09\Dipole=-0.2481653,-0.416
 3851,2.1089613\Quadrupole=-16.984312,-29.9159054,46.9002174,-10.463860
 6,33.6257491,31.7694301\PG=C01 [X(C10H22N1O9P1)]\\@


 THERE'S NOTHING WRONG WITH FOLLOWING A TRAIN OF THOUGHT...
 AS LONG AS IT ULTIMATELY PULLS INTO THE STATION.
 Job cpu time:       0 days  8 hours 45 minutes 46.0 seconds.
 Elapsed time:       0 days  0 hours 22 minutes  2.6 seconds.
 File lengths (MBytes):  RWF=    487 Int=      0 D2E=      0 Chk=    203 Scr=      1
 Normal termination of Gaussian 16 at Thu Dec 15 13:04:14 2022.
