          31
 G =       -0.648104 Gcorr = 0.147716 a.u. Nimag =   0 Frame:     1 Step:     2 Geom:     2
C           4.19836700     11.73450900      7.73862100
C           4.27086700     10.33743200      7.72748900
C           4.45970800      9.67017600      8.93744400
C           4.57097000     10.40825600     10.11291200
C           4.48849800     11.80551600     10.04065600
N           4.30457800     12.45157900      8.87404900
H           4.51955300      8.58223400      8.96115600
H           4.05194100     12.31285400      6.81937400
H           4.18172600      9.78751700      6.79551400
H           4.71869500      9.91688100     11.07052800
H           4.57243200     12.43731100     10.93911300
P           4.07775600     15.84314000     10.42378400
O           4.58807600     15.01821900     11.52245400
O           4.72124800     17.28696000     10.41811800
H           4.36096700     17.82504400      9.59556300
O           4.26586900     15.32754500      8.93907400
H           4.25027500     14.26166000      8.96095300
O           2.49441800     16.08181200     10.41654800
H           2.15636700     16.27830000     11.37405200
O           3.99646200     15.78837700     14.29367800
H           4.21394100     15.34857900     13.45232400
H           4.68538700     16.44549300     14.38872900
O           1.62732000     17.00068800      7.69299600
H           1.63274300     16.68356000      8.61011200
H           2.14583400     16.33507900      7.22871000
O           3.57447300     18.88582900      8.30848800
H           2.89238400     18.27160800      7.97318100
H           3.08173700     19.62317400      8.65904700
O           1.64705200     16.73491700     13.07740100
H           1.71268800     17.67242200     13.24106100
H           2.36766500     16.34334900     13.60688000
          31
 G =       -0.649623 Gcorr = 0.155604 a.u. Nimag =   0 Frame:     2 Step:     3 Geom:     3
C           3.16143800     12.09782400      9.66074300
C           2.04619000     11.94203700     10.49136300
C           0.86415400     12.60127900     10.15261500
C           0.82848600     13.39165600      9.00705600
C           1.98748900     13.49538900      8.22519600
N           3.12623000     12.85081700      8.54268500
H          -0.01719400     12.51077200     10.78686400
H           4.12591000     11.62502100      9.88809800
H           2.10314600     11.32202900     11.38001700
H          -0.06521100     13.94311200      8.72996800
H           2.02342100     14.12476700      7.32685400
P           5.61494900     15.04969000      9.35864900
O           6.90774900     15.56430100      9.81059400
O           4.70140000     16.24743700      8.85851300
H           3.70053800     15.99851500      8.85246800
O           5.72017300     13.97271600      8.21995000
H           4.76823900     13.51219800      8.09178600
O           4.72432700     14.29962100     10.47248500
H           4.80881200     14.78631300     11.36827700
O           6.54761800     17.58206000     11.96436700
H           6.88882100     16.95410100     11.30029500
H           6.15332000     18.27887100     11.43480100
O           2.14757400     15.00943300     11.67895300
H           2.52587200     14.16944800     11.38513000
H           2.88099000     15.43452400     12.14974100
O           1.86520900     15.95205000      9.09385700
H           1.89785000     15.62129500     10.01600900
H           1.55701700     16.85227900      9.16610500
O           4.64864500     15.86658500     12.92610300
H           5.01614300     15.52077900     13.73412600
H           5.28069600     16.56310500     12.63634600
          31
 G =       -0.648768 Gcorr = 0.153833 a.u. Nimag =   0 Frame:     3 Step:     5 Geom:     5
C           2.05295500     13.49097900      9.59538900
C           2.12152400     13.11967800     10.94504200
C           3.17645000     12.31070500     11.36094600
C           4.11821000     11.88213200     10.42427000
C           3.98272800     12.30573900      9.09836400
N           2.97357300     13.10116500      8.68915700
H           3.27321200     12.02669000     12.41025000
H           1.25266100     14.14075300      9.21719000
H           1.37406100     13.47499300     11.64807200
H           4.93821600     11.23862900     10.72445400
H           4.70174500     12.02031000      8.32295400
P           4.60593700     16.04638500      9.43797100
O           5.98808900     15.58488000      9.53545500
O           4.45054300     17.59686900      9.66723800
H           3.44165900     17.85842600      9.49892600
O           3.82581500     15.81237300      8.07309200
H           3.64712200     14.78642900      7.95311100
O           3.57902700     15.36575800     10.47100900
H           4.04397300     14.91975200     11.27008600
O           6.90510300     13.25446000     11.07979100
H           6.81454800     14.08135800     10.57760400
H           6.66437500     12.57541200     10.44834300
O           0.84011000     16.12942600     10.97391400
H           1.74386400     15.79318200     10.86025600
H           0.81293000     16.45972600     11.87074700
O           1.68090800     18.20986600      9.25090900
H           1.26510800     17.55620000      9.83965100
H           1.50699200     17.88153400      8.36669300
O           4.79269000     14.05112900     12.66591500
H           5.20326700     14.68232600     13.25635000
H           5.54260900     13.65275700     12.17686000
          31
 G =       -0.648076 Gcorr = 0.147744 a.u. Nimag =   0 Frame:     4 Step:     7 Geom:     7
C           2.60096300     12.06163100      9.46714100
C           2.22925400     10.72972400      9.23850800
C           1.44369500     10.08225200     10.18851200
C           1.05022200     10.77268900     11.33455300
C           1.46290400     12.10035700     11.48999500
N           2.22365700     12.72947500     10.57337500
H           1.13853200      9.04669300     10.03930900
H           3.21919100     12.62148600      8.74754900
H           2.55132700     10.21822900      8.33577000
H           0.43700900     10.29306000     12.09142200
H           1.18415400     12.69300800     12.36862900
P           4.16101900     15.81661100      9.75586300
O           4.20209800     15.06554600      8.49803000
O           4.02685700     17.37281800      9.51280800
H           3.95789300     17.86422400     10.43445800
O           3.01688100     15.48579300     10.79858700
H           2.77202500     14.45319200     10.69544900
O           5.43696900     15.64160700     10.70723800
H           6.30756600     15.67103600     10.14948100
O           6.47515700     15.44051500      6.67636100
H           5.70371200     15.13807000      7.18822800
H           6.16598600     16.24285500      6.25652000
O           4.74101000     16.52210000     13.49229500
H           5.19428400     16.14573700     12.72127600
H           3.90207900     16.04933300     13.50479900
O           4.07679700     18.78769100     12.02627100
H           4.25071100     18.04776500     12.64042400
H           4.84709700     19.34513900     12.09801100
O           7.81166800     15.84974200      9.11304100
H           8.09173300     16.75745600      9.02577600
H           7.46754900     15.61419000      8.23033000
          31
 G =       -0.648489 Gcorr = 0.148542 a.u. Nimag =   0 Frame:     5 Step:     9 Geom:     9
C           2.37842200     12.17902500      9.58340200
C           2.16276800     10.79659700      9.50167000
C           1.74356500     10.11674300     10.64227300
C           1.55090400     10.82568700     11.82763000
C           1.78796400     12.20449100     11.82813600
N           2.19292600     12.86551600     10.72646300
H           1.56730300      9.04167100     10.61037500
H           2.71099100     12.76557200      8.71227400
H           2.32210700     10.27176300      8.56394700
H           1.22416800     10.32145000     12.73209600
H           1.65418600     12.81351400     12.72933500
P           3.91686600     15.93243200      9.54404500
O           3.97135700     15.05029300      8.37375500
O           3.72317500     17.44444200      9.13280200
H           3.72970700     18.04407100      9.99328000
O           2.79495300     15.68000900     10.63186100
H           2.60158800     14.63267500     10.66219000
O           5.20827100     15.90236100     10.49051500
H           6.07249600     15.83605700      9.92552500
O           6.21126600     15.42139600      6.50742500
H           5.40866000     15.16803600      6.99810900
H           6.01170600     16.29887700      6.17800800
O           4.55221600     17.06812700     13.17033100
H           3.69646900     16.62887900     13.21732000
H           4.99808500     16.60578700     12.44342800
O           3.96791700     19.15335800     11.42218100
H           4.12131500     18.50285400     12.13466200
H           4.79693000     19.62080600     11.34313100
O           7.56851800     15.60297200      8.92511000
H           7.88507500     14.71167000      9.05913000
H           7.19812600     15.59288700      8.01960200
          31
 G =       -0.645705 Gcorr = 0.150184 a.u. Nimag =   0 Frame:     6 Step:    10 Geom:    10
C           3.72121400     11.66980200      9.06046400
C           3.75257600     10.27633600      9.20644600
C           2.54923600      9.59385400      9.36689800
C           1.35353700     10.31114500      9.37979200
C           1.40616800     11.70138200      9.22908600
N           2.56793600     12.36404300      9.07102200
H           2.54087100      8.51018000      9.48150800
H           4.64186300     12.26071600      8.93156100
H           4.69970000      9.74484700      9.19322200
H           0.40089600      9.80521600      9.50371300
H           0.50056900     12.31913500      9.23333300
P           4.12875000     15.66205300      9.64396200
O           5.23533900     14.71265600      9.81567800
O           4.59865200     17.00483000      8.95100000
H           3.84044100     17.72355500      9.05953100
O           2.87188100     15.21444000      8.80211500
H           2.71965700     14.17294500      8.97680500
O           3.42974400     16.09183900     11.02389700
H           4.12847900     16.53315200     11.62922800
O           6.23816800     14.63006300     12.60172900
H           6.09617800     14.55262700     11.63921000
H           5.52978700     14.10861400     12.98199800
O           3.47831800     19.20391300     12.35921600
H           4.14225100     18.51737400     12.51252500
H           3.86500800     20.00452900     12.70432900
O           2.66268600     18.97909400      9.63244400
H           2.93758100     19.11432600     10.55630100
H           1.83661700     18.49567700      9.70662100
O           5.64756300     17.30703600     12.64398900
H           6.32226000     17.59790100     12.02854500
H           5.87607300     16.36674500     12.81384400
          31
 G =       -0.649301 Gcorr = 0.150802 a.u. Nimag =   0 Frame:     7 Step:    13 Geom:    13
C           1.93811800     13.77625200     10.73553600
C           2.47809000     13.75510500     12.02733500
C           3.63852200     13.01785100     12.25256500
C           4.22255300     12.32464700     11.19422200
C           3.63952500     12.42293700      9.92585600
N           2.51633900     13.13348200      9.69841300
H           4.09230200     13.00223700     13.24315500
H           1.02987800     14.34224500     10.50055800
H           2.02324500     14.33305600     12.82669100
H           5.12463200     11.73603500     11.33338800
H           4.08683100     11.93634300      9.05098800
P           3.95505900     16.10676000      8.94705600
O           5.32222100     15.61365400      9.11575900
O           3.92513900     17.59078700      8.40389200
H           2.92722300     17.83801500      8.20014000
O           3.01254200     15.34754000      7.90942100
H           2.76052400     14.40586800      8.29816700
O           3.02868200     16.10611800     10.24632100
H           3.58983300     15.96244800     11.10692700
O           6.50212900     13.03534800      9.68610400
H           5.99745000     13.83064400      9.43589300
H           7.31292300     13.10652600      9.18231400
O           4.47495200     15.72369300     12.65126400
H           5.18891300     15.07160100     12.52419300
H           4.93928500     16.55234700     12.77837000
O           1.08232800     18.01265000      7.85513400
H           0.73204300     17.74695700      8.71083500
H           1.00840100     17.22410600      7.30548700
O           6.63931000     13.92775900     12.33715900
H           6.81116000     13.14440700     12.84785400
H           6.60985100     13.63260600     11.40901800
          31
 G =       -0.648246 Gcorr = 0.151929 a.u. Nimag =   0 Frame:     8 Step:    18 Geom:    18
C           2.20788700     12.73208700     10.48569900
C           2.40339200     13.13429100     11.80979200
C           3.68679800     13.04349200     12.35049400
C           4.72537200     12.55248100     11.56456300
C           4.44337700     12.16634800     10.24628700
N           3.20825300     12.26071700      9.71277600
H           3.87418200     13.36370800     13.37787400
H           1.22699400     12.78553000     10.00252000
H           1.58292700     13.51930400     12.40975800
H           5.73938700     12.49608500     11.94920900
H           5.22566100     11.78752600      9.57780100
P           4.51318300     15.37383100      8.76776400
O           5.18072300     14.60015000      9.81960300
O           5.51815800     15.88304400      7.66125200
H           4.97021100     16.45074400      6.96791000
O           3.35955200     14.60032700      7.97767300
H           3.39904800     13.58647500      8.20195500
O           3.77324500     16.71315600      9.19501000
H           2.92778500     16.47974900      9.76804200
O           5.36011600     15.43227600     12.59690500
H           5.30810800     15.04616900     11.70122000
H           5.85197600     16.24304900     12.46561100
O           1.55924500     16.09411900     10.78873300
H           1.27577200     15.21291800     10.54336900
H           1.92996400     15.99059500     11.68717600
O           3.78713700     17.43380600      5.91003500
H           3.42926400     18.00904400      6.59552100
H           3.10054500     16.77468600      5.76318200
O           2.70171700     15.70033500     13.27712600
H           3.64978700     15.58561800     13.05637000
H           2.67023800     16.43836400     13.87878800
          31
 G =       -0.647687 Gcorr = 0.149614 a.u. Nimag =   0 Frame:     9 Step:    19 Geom:    19
C           2.94187400     11.82265100     10.10023500
C           2.84969700     11.97022900     11.48877800
C           1.94308400     12.89641600     12.00247900
C           1.14770400     13.63104600     11.12487400
C           1.29891400     13.42163800      9.74898300
N           2.18547300     12.53816800      9.24240200
H           1.86506800     13.06038800     13.07859800
H           3.65498100     11.12948900      9.63956300
H           3.48443200     11.38582800     12.14635700
H           0.44858000     14.37319100     11.49619600
H           0.71926000     13.98836800      9.01339500
P           4.46120300     15.02108600      9.21669400
O           5.45307600     14.23804200      9.95752500
O           5.04874400     16.42109300      8.76531800
H           4.36842600     16.87991200      8.11849600
O           3.89963800     14.42701700      7.85261400
H           3.35419800     13.55429200      8.07226500
O           3.11216200     15.35662800      9.99558100
H           3.24015300     15.19892500     11.02079200
O           7.51935300     15.69621500     11.46951300
H           6.93288900     15.07624500     11.00565200
H           7.92106200     16.20309400     10.76320900
O           3.60344300     14.94233700     12.74267400
H           4.22042000     14.20638000     12.73957200
H           4.17694900     15.72615700     12.89117300
O           3.05035500     17.49291000      6.97226800
H           3.02031300     16.73009900      6.38380900
H           2.26170100     17.41192900      7.51756100
O           5.42398700     17.00454100     12.77105100
H           6.22335700     16.56879300     12.41555900
H           5.13950900     17.58691500     12.06682600
