 Entering Gaussian System, Link 0=g16
 Initial command:
 /data0/hywu0/study/g16/l1.exe "/data0/hywu0/study/g16/scratch/Gau-3977535.inp" -scrdir="/data0/hywu0/study/g16/scratch/"
 Default is to use a total of   8 processors:
                                8 via shared-memory
                                1 via Linda
 Entering Link 1 = /data0/hywu0/study/g16/l1.exe PID=   3977536.
  
 Copyright (c) 1988,1990,1992,1993,1995,1998,2003,2009,2016,
            Gaussian, Inc.  All Rights Reserved.
  
 This is part of the Gaussian(R) 16 program.  It is based on
 the Gaussian(R) 09 system (copyright 2009, Gaussian, Inc.),
 the Gaussian(R) 03 system (copyright 2003, Gaussian, Inc.),
 the Gaussian(R) 98 system (copyright 1998, Gaussian, Inc.),
 the Gaussian(R) 94 system (copyright 1995, Gaussian, Inc.),
 the Gaussian 92(TM) system (copyright 1992, Gaussian, Inc.),
 the Gaussian 90(TM) system (copyright 1990, Gaussian, Inc.),
 the Gaussian 88(TM) system (copyright 1988, Gaussian, Inc.),
 the Gaussian 86(TM) system (copyright 1986, Carnegie Mellon
 University), and the Gaussian 82(TM) system (copyright 1983,
 Carnegie Mellon University). Gaussian is a federally registered
 trademark of Gaussian, Inc.
  
 This software contains proprietary and confidential information,
 including trade secrets, belonging to Gaussian, Inc.
  
 This software is provided under written license and may be
 used, copied, transmitted, or stored only in accord with that
 written license.
  
 The following legend is applicable only to US Government
 contracts under FAR:
  
                    RESTRICTED RIGHTS LEGEND
  
 Use, reproduction and disclosure by the US Government is
 subject to restrictions as set forth in subparagraphs (a)
 and (c) of the Commercial Computer Software - Restricted
 Rights clause in FAR 52.227-19.
  
 Gaussian, Inc.
 340 Quinnipiac St., Bldg. 40, Wallingford CT 06492
  
  
 ---------------------------------------------------------------
 Warning -- This program may not be used in any manner that
 competes with the business of Gaussian, Inc. or will provide
 assistance to any competitor of Gaussian, Inc.  The licensee
 of this program is prohibited from giving any competitor of
 Gaussian, Inc. access to this program.  By using this program,
 the user acknowledges that Gaussian, Inc. is engaged in the
 business of creating and licensing software in the field of
 computational chemistry and represents and warrants to the
 licensee that it is not a competitor of Gaussian, Inc. and that
 it will not use this program in any manner prohibited above.
 ---------------------------------------------------------------
  

 Cite this work as:
 Gaussian 16, Revision A.03,
 M. J. Frisch, G. W. Trucks, H. B. Schlegel, G. E. Scuseria, 
 M. A. Robb, J. R. Cheeseman, G. Scalmani, V. Barone, 
 G. A. Petersson, H. Nakatsuji, X. Li, M. Caricato, A. V. Marenich, 
 J. Bloino, B. G. Janesko, R. Gomperts, B. Mennucci, H. P. Hratchian, 
 J. V. Ortiz, A. F. Izmaylov, J. L. Sonnenberg, D. Williams-Young, 
 F. Ding, F. Lipparini, F. Egidi, J. Goings, B. Peng, A. Petrone, 
 T. Henderson, D. Ranasinghe, V. G. Zakrzewski, J. Gao, N. Rega, 
 G. Zheng, W. Liang, M. Hada, M. Ehara, K. Toyota, R. Fukuda, 
 J. Hasegawa, M. Ishida, T. Nakajima, Y. Honda, O. Kitao, H. Nakai, 
 T. Vreven, K. Throssell, J. A. Montgomery, Jr., J. E. Peralta, 
 F. Ogliaro, M. J. Bearpark, J. J. Heyd, E. N. Brothers, K. N. Kudin, 
 V. N. Staroverov, T. A. Keith, R. Kobayashi, J. Normand, 
 K. Raghavachari, A. P. Rendell, J. C. Burant, S. S. Iyengar, 
 J. Tomasi, M. Cossi, J. M. Millam, M. Klene, C. Adamo, R. Cammi, 
 J. W. Ochterski, R. L. Martin, K. Morokuma, O. Farkas, 
 J. B. Foresman, and D. J. Fox, Gaussian, Inc., Wallingford CT, 2016.
 
 ******************************************
 Gaussian 16:  ES64L-G16RevA.03 25-Dec-2016
                19-May-2022 
 ******************************************
 %nproc=8
 Will use up to    8 processors via shared memory.
 %mem=5GB
 ---------------------------------------------------
 #p M062X/6-311+G(2d,p) nosymm em=GD3 counterpoise=4
 ---------------------------------------------------
 1/38=1,62=4,172=1/1;
 2/12=2,15=1,17=6,18=5,40=1/2;
 1/38=1,53=2,62=4,63=1/22;
 3/5=4,6=6,7=112,11=2,25=1,30=1,74=-55,124=31/1,2,3;
 4//1;
 5/5=2,38=5/2;
 6/7=2,8=2,9=2,10=2,28=1/1;
 1/53=2,62=4,63=1/22;
 3/5=7,6=11,7=112,11=2,25=1,30=1,74=-55,82=7,124=31/1,2,3;
 4//1;
 5/5=2,38=5/2;
 6/7=2,8=2,9=2,10=2,28=1/1;
 1/53=2,62=4,63=1/22(-4);
 99/5=1,9=1/99;
 Leave Link    1 at Thu May 19 19:13:00 2022, MaxMem=   671088640 cpu:               0.3 elap:               0.0
 (Enter /data0/hywu0/study/g16/l101.exe)
 -------------------
 Title Card Required
 -------------------
 Symbolic Z-matrix:
 Charge =  0 Multiplicity = 1 in supermolecule
 Charge =  0 Multiplicity = 1 in fragment      1.
 Charge =  0 Multiplicity = 1 in fragment      2.
 Charge =  0 Multiplicity = 1 in fragment      3.
 Charge =  0 Multiplicity = 1 in fragment      4.
 C                     13.77381   17.67676   15.61013    
 H                     14.38281   17.0922   14.87908    
 H                     14.47129   18.16407   16.30377    
 H                     13.16541   16.93392   16.15888    
 C                     12.20749   19.52625   15.91647    
 H                     11.59755   20.30903   15.43284    
 H                     11.53411   18.91215   16.53973    
 H                     12.92675   20.02779   16.58457    
 C                     13.7872   19.54258   14.03921    
 H                     13.2004   20.20281   13.37103    
 H                     14.47828   20.14538   14.64044    
 H                     14.39442   18.91909   13.34061    
 C                     11.88704   17.93221   14.05193    
 H                     11.33595   17.21195   14.69832    
 H                     12.46076   17.28557   13.33186    
 C                     10.91393   18.85824   13.30898    
 H                     11.32721   19.88261   13.19522    
 H                     9.96937   18.96345   13.87334    
 C                     10.62658   18.31322   11.9088    
 H                     10.02643   19.02533   11.31623    
 H                     10.03878   17.37565   11.95276    
 N                     12.90939   18.67871   14.89525    
 C                     11.9584   18.07339   11.18313    
 O                     12.8237   18.9594   11.2615    
 O                     12.09225   16.95632   10.63218    
 P                     15.39208   16.59722   11.5074    
 O                     15.04061   16.32935   12.90973    
 O                     16.88569   16.12462   11.22336    
 H                     17.08447   16.33545   10.22996    
 O                     14.53619   15.86167   10.40234    
 H                     13.55378   16.3011   10.40105    
 O                     15.40672   18.14084   11.13326    
 H                     14.40055   18.48719   11.05917    
 O                     11.101    15.0383   12.28057    
 H                     11.4385   15.71674   11.64326    
 H                     11.17454   14.21565   11.80568    
 O                     12.77373   15.15883   14.51086    
 H                     13.60813   15.22179   14.03477    
 H                     12.12472   15.00322   13.80236    
 
 ITRead=  0  0  0  0  0  0  0  0  0  0  0  0  0  0  0  0  0  0  0  0
 ITRead=  0  0  0  0  0  0  0  0  0  0  0  0  0  0  0  0  0  0  0
 MicOpt= -1 -1 -1 -1 -1 -1 -1 -1 -1 -1 -1 -1 -1 -1 -1 -1 -1 -1 -1 -1
 MicOpt= -1 -1 -1 -1 -1 -1 -1 -1 -1 -1 -1 -1 -1 -1 -1 -1 -1 -1 -1
 NAtoms=     39 NQM=       39 NQMF=       0 NMMI=      0 NMMIF=      0
                NMic=       0 NMicF=      0.
                    Isotopes and Nuclear Properties:
 (Nuclear quadrupole moments (NQMom) in fm**2, nuclear magnetic moments (NMagM)
  in nuclear magnetons)

  Atom         1           2           3           4           5           6           7           8           9          10
 IAtWgt=          12           1           1           1          12           1           1           1          12           1
 AtmWgt=  12.0000000   1.0078250   1.0078250   1.0078250  12.0000000   1.0078250   1.0078250   1.0078250  12.0000000   1.0078250
 NucSpn=           0           1           1           1           0           1           1           1           0           1
 AtZEff=  -0.0000000  -0.0000000  -0.0000000  -0.0000000  -0.0000000  -0.0000000  -0.0000000  -0.0000000  -0.0000000  -0.0000000
 NQMom=    0.0000000   0.0000000   0.0000000   0.0000000   0.0000000   0.0000000   0.0000000   0.0000000   0.0000000   0.0000000
 NMagM=    0.0000000   2.7928460   2.7928460   2.7928460   0.0000000   2.7928460   2.7928460   2.7928460   0.0000000   2.7928460
 AtZNuc=   6.0000000   1.0000000   1.0000000   1.0000000   6.0000000   1.0000000   1.0000000   1.0000000   6.0000000   1.0000000

  Atom        11          12          13          14          15          16          17          18          19          20
 IAtWgt=           1           1          12           1           1          12           1           1          12           1
 AtmWgt=   1.0078250   1.0078250  12.0000000   1.0078250   1.0078250  12.0000000   1.0078250   1.0078250  12.0000000   1.0078250
 NucSpn=           1           1           0           1           1           0           1           1           0           1
 AtZEff=  -0.0000000  -0.0000000  -0.0000000  -0.0000000  -0.0000000  -0.0000000  -0.0000000  -0.0000000  -0.0000000  -0.0000000
 NQMom=    0.0000000   0.0000000   0.0000000   0.0000000   0.0000000   0.0000000   0.0000000   0.0000000   0.0000000   0.0000000
 NMagM=    2.7928460   2.7928460   0.0000000   2.7928460   2.7928460   0.0000000   2.7928460   2.7928460   0.0000000   2.7928460
 AtZNuc=   1.0000000   1.0000000   6.0000000   1.0000000   1.0000000   6.0000000   1.0000000   1.0000000   6.0000000   1.0000000

  Atom        21          22          23          24          25          26          27          28          29          30
 IAtWgt=           1          14          12          16          16          31          16          16           1          16
 AtmWgt=   1.0078250  14.0030740  12.0000000  15.9949146  15.9949146  30.9737634  15.9949146  15.9949146   1.0078250  15.9949146
 NucSpn=           1           2           0           0           0           1           0           0           1           0
 AtZEff=  -0.0000000  -0.0000000  -0.0000000  -0.0000000  -0.0000000  -0.0000000  -0.0000000  -0.0000000  -0.0000000  -0.0000000
 NQMom=    0.0000000   2.0440000   0.0000000   0.0000000   0.0000000   0.0000000   0.0000000   0.0000000   0.0000000   0.0000000
 NMagM=    2.7928460   0.4037610   0.0000000   0.0000000   0.0000000   1.1316000   0.0000000   0.0000000   2.7928460   0.0000000
 AtZNuc=   1.0000000   7.0000000   6.0000000   8.0000000   8.0000000  15.0000000   8.0000000   8.0000000   1.0000000   8.0000000

  Atom        31          32          33          34          35          36          37          38          39
 IAtWgt=           1          16           1          16           1           1          16           1           1
 AtmWgt=   1.0078250  15.9949146   1.0078250  15.9949146   1.0078250   1.0078250  15.9949146   1.0078250   1.0078250
 NucSpn=           1           0           1           0           1           1           0           1           1
 AtZEff=  -0.0000000  -0.0000000  -0.0000000  -0.0000000  -0.0000000  -0.0000000  -0.0000000  -0.0000000  -0.0000000
 NQMom=    0.0000000   0.0000000   0.0000000   0.0000000   0.0000000   0.0000000   0.0000000   0.0000000   0.0000000
 NMagM=    2.7928460   0.0000000   2.7928460   0.0000000   2.7928460   2.7928460   0.0000000   2.7928460   2.7928460
 AtZNuc=   1.0000000   8.0000000   1.0000000   8.0000000   1.0000000   1.0000000   8.0000000   1.0000000   1.0000000
 Leave Link  101 at Thu May 19 19:13:00 2022, MaxMem=   671088640 cpu:               1.5 elap:               0.2
 (Enter /data0/hywu0/study/g16/l202.exe)
                          Input orientation:                          
 ---------------------------------------------------------------------
 Center     Atomic      Atomic             Coordinates (Angstroms)
 Number     Number       Type             X           Y           Z
 ---------------------------------------------------------------------
      1          6           0       13.773813   17.676761   15.610132
      2          1           0       14.382808   17.092195   14.879084
      3          1           0       14.471295   18.164067   16.303770
      4          1           0       13.165413   16.933917   16.158878
      5          6           0       12.207495   19.526250   15.916474
      6          1           0       11.597552   20.309032   15.432836
      7          1           0       11.534113   18.912148   16.539732
      8          1           0       12.926749   20.027787   16.584572
      9          6           0       13.787202   19.542581   14.039210
     10          1           0       13.200401   20.202813   13.371028
     11          1           0       14.478284   20.145376   14.640438
     12          1           0       14.394422   18.919095   13.340611
     13          6           0       11.887037   17.932210   14.051933
     14          1           0       11.335949   17.211951   14.698322
     15          1           0       12.460763   17.285571   13.331855
     16          6           0       10.913926   18.858243   13.308978
     17          1           0       11.327213   19.882605   13.195219
     18          1           0        9.969373   18.963453   13.873336
     19          6           0       10.626577   18.313223   11.908798
     20          1           0       10.026430   19.025335   11.316230
     21          1           0       10.038780   17.375646   11.952763
     22          7           0       12.909387   18.678706   14.895252
     23          6           0       11.958398   18.073388   11.183128
     24          8           0       12.823703   18.959399   11.261503
     25          8           0       12.092247   16.956318   10.632175
     26         15           0       15.392076   16.597220   11.507399
     27          8           0       15.040612   16.329347   12.909729
     28          8           0       16.885688   16.124621   11.223357
     29          1           0       17.084472   16.335453   10.229960
     30          8           0       14.536186   15.861675   10.402337
     31          1           0       13.553777   16.301097   10.401048
     32          8           0       15.406716   18.140836   11.133256
     33          1           0       14.400545   18.487190   11.059168
     34          8           0       11.100997   15.038299   12.280570
     35          1           0       11.438500   15.716736   11.643264
     36          1           0       11.174540   14.215646   11.805682
     37          8           0       12.773726   15.158833   14.510860
     38          1           0       13.608127   15.221788   14.034773
     39          1           0       12.124724   15.003221   13.802359
 ---------------------------------------------------------------------
                    Distance matrix (angstroms):
                    1          2          3          4          5
     1  C    0.000000
     2  H    1.116702   0.000000
     3  H    1.097762   1.785069   0.000000
     4  H    1.105934   1.773408   1.799886   0.000000
     5  C    2.442910   3.425316   2.670268   2.774267   0.000000
     6  H    3.419999   4.290959   3.690230   3.791665   1.103940
     7  H    2.721506   3.766304   3.040122   2.592217   1.104090
     8  H    2.682233   3.694117   2.436786   3.132125   1.102370
     9  C    2.439110   2.657918   2.737977   3.418295   2.453541
    10  H    3.423934   3.653528   3.791125   4.296395   2.814764
    11  H    2.744202   3.063981   2.586949   3.787184   2.677325
    12  H    2.660691   2.388430   3.058805   3.659785   3.433126
    13  C    2.460317   2.760195   3.435537   2.658957   2.473898
    14  H    2.643979   3.054565   3.648888   2.357428   2.756713
    15  H    2.658510   2.474989   3.694086   2.934664   3.430021
    16  C    3.856185   4.197297   4.701652   4.110250   2.986401
    17  H    4.084532   4.467488   4.743597   4.566948   2.882206
    18  H    4.375591   4.898116   5.178159   4.422374   3.082263
    19  C    4.900005   4.941941   5.841223   5.139198   4.475735
    20  H    5.856546   5.950545   6.736035   6.138280   5.115682
    21  H    5.236171   5.245405   6.260995   5.259502   5.003941
    22  N    1.504054   2.165236   2.165256   2.169467   1.501292
    23  C    4.801188   4.527758   5.704722   5.245319   4.957562
    24  O    4.632326   4.359375   5.363914   5.310709   4.729671
    25  O    5.303467   4.827149   6.267816   5.629976   5.877214
    26  P    4.540551   3.554136   5.129135   5.167944   6.177436
    27  O    3.272993   2.212013   3.899979   3.799848   5.223721
    28  O    5.597919   4.534859   5.983246   6.233360   7.448618
    29  H    6.458004   5.430101   6.860298   7.132268   8.142637
    30  O    5.567484   4.645317   6.334993   6.013858   7.018377
    31  H    5.392163   4.622330   6.257366   5.805505   6.529472
    32  O    4.787918   4.022345   5.254500   5.633557   5.918916
    33  H    4.664854   4.066704   5.255023   5.472225   5.429782
    34  O    5.019105   4.662730   6.108639   4.785024   5.880973
    35  H    5.003142   4.585997   6.075162   4.985432   5.776164
    36  H    5.762758   5.292761   6.833112   5.504806   6.794713
    37  O    2.923788   2.542169   3.889434   2.453631   4.622845
    38  H    2.921661   2.193494   3.814500   2.763911   4.902138
    39  H    3.624273   3.259155   4.664161   3.219286   4.993408
                    6          7          8          9         10
     6  H    0.000000
     7  H    1.783404   0.000000
     8  H    1.781112   1.784964   0.000000
     9  C    2.706327   3.424393   2.730325   0.000000
    10  H    2.613706   3.805656   3.229920   1.107569   0.000000
    11  H    2.992206   3.714339   2.490130   1.096554   1.802134
    12  H    3.759230   4.291362   3.729148   1.116016   1.753438
    13  C    2.764051   2.697031   3.447710   2.490800   2.710017
    14  H    3.193722   2.514106   3.743997   3.445999   3.766052
    15  H    3.781610   3.714150   4.279843   2.711805   3.009801
    16  C    2.661373   3.290184   4.018558   3.042577   2.653241
    17  H    2.293873   3.488605   3.750641   2.622877   1.908475
    18  H    2.625565   3.092040   4.150865   3.865064   3.496837
    19  C    4.164720   4.756877   5.485744   4.004938   3.511871
    20  H    4.589417   5.437913   6.096900   4.671784   3.960144
    21  H    4.810970   5.063314   6.068597   4.806198   4.472158
    22  N    2.160526   2.156430   2.161972   1.499882   2.175052
    23  C    4.815426   5.438450   5.825202   3.695978   3.296047
    24  O    4.552469   5.433689   5.430206   2.997347   2.477514
    25  O    5.876373   6.247881   6.749914   4.601034   4.389653
    26  P    6.601895   6.750344   6.604870   4.202480   4.612684
    27  O    5.835977   5.669508   5.625953   3.629275   4.313109
    28  O    7.949427   8.041984   7.723375   5.404821   5.901312
    29  H    8.541987   8.789714   8.443997   5.972273   6.317340
    30  O    7.329425   7.482342   7.626717   5.228469   5.426134
    31  H    6.723782   6.969941   7.246886   4.878312   4.916202
    32  O    6.139804   6.694920   6.279145   3.610025   3.758617
    33  H    5.504984   6.199484   5.922466   3.220356   3.119039
    34  O    6.161491   5.773626   6.837601   5.531462   5.680563
    35  H    5.956118   5.847666   6.724327   5.088619   5.119995
    36  H    7.103840   6.678147   7.725866   6.339628   6.511574
    37  O    5.362646   4.443010   5.294375   4.524028   5.188738
    38  H    5.645976   4.918853   5.483008   4.324505   5.041568
    39  H    5.575661   4.808507   5.799157   4.840012   5.327184
                   11         12         13         14         15
    11  H    0.000000
    12  H    1.788952   0.000000
    13  C    3.458179   2.786916   0.000000
    14  H    4.299140   3.756591   1.113683   0.000000
    15  H    3.736478   2.531307   1.125085   1.771400   0.000000
    16  C    4.016733   3.481172   1.535078   2.195144   2.206020
    17  H    3.476630   3.218270   2.202590   3.064602   2.836933
    18  H    4.723946   4.457221   2.184673   2.369787   3.052133
    19  C    5.065006   4.076006   2.515344   3.081794   2.538779
    20  H    5.667791   4.815471   3.484372   4.054843   3.607700
    21  H    5.882533   4.824933   2.851724   3.040976   2.788550
    22  N    2.162750   2.163336   1.521066   2.160060   2.141565
    23  C    4.753520   3.362167   2.873163   3.672343   2.343086
    24  O    3.944792   2.606045   3.117525   4.132640   2.686965
    25  O    5.650614   4.060558   3.562193   4.143777   2.744537
    26  P    4.820826   3.122032   4.532345   5.197312   3.520662
    27  O    4.227723   2.703704   3.717369   4.207444   2.783554
    28  O    5.799871   4.300960   6.021190   6.637565   5.037215
    29  H    6.384359   4.856720   6.646085   7.333487   5.648288
    30  O    6.026188   4.242802   4.962324   5.524513   3.862245
    31  H    5.797036   4.025125   4.332149   4.920872   3.279253
    32  O    4.144936   2.550067   4.577154   5.490325   3.774116
    33  H    3.947293   2.321974   3.947451   4.925589   3.220520
    34  O    6.561805   5.199126   3.482859   3.259676   2.829204
    35  H    6.151113   4.676918   3.303210   3.402876   2.521429
    36  H    7.356104   5.903057   4.400698   4.167885   3.661695
    37  O    5.271425   4.258604   2.947618   2.513491   2.451737
    38  H    5.036439   3.843202   3.210737   3.092546   2.463684
    39  H    5.716938   4.549594   2.949196   2.510658   2.354446
                   16         17         18         19         20
    16  C    0.000000
    17  H    1.110434   0.000000
    18  H    1.105328   1.774377   0.000000
    19  C    1.529745   2.146795   2.171204   0.000000
    20  H    2.187833   2.440809   2.558491   1.103819   0.000000
    21  H    2.191642   3.080357   2.492900   1.107470   1.768276
    22  N    2.555458   2.615867   3.125552   3.776732   4.608795
    23  C    2.495227   2.778520   3.462031   1.535534   2.157874
    24  O    2.801720   2.613628   3.868965   2.379894   2.798585
    25  O    3.488701   3.964546   4.363520   2.370474   3.002726
    26  P    5.330266   5.492322   6.372003   5.080922   5.892575
    27  O    4.856362   5.147473   5.795215   4.941794   5.911820
    28  O    6.890896   6.993377   7.932009   6.666054   7.447965
    29  H    7.343055   7.383839   8.414583   6.959488   7.630950
    30  O    5.527092   5.853681   6.521092   4.854334   5.584071
    31  H    4.686562   5.058871   5.656224   3.858816   4.549858
    32  O    5.043174   4.891605   6.144057   4.845711   5.455575
    33  H    4.166034   3.994404   5.270830   3.872334   4.414585
    34  O    3.960378   4.935084   4.384554   3.329927   4.240413
    35  H    3.594280   4.446956   4.203894   2.733399   3.612163
    36  H    4.886873   5.836827   5.316887   4.135340   4.968987
    37  O    4.311498   5.112468   4.769273   4.618566   5.718665
    38  H    4.583591   5.256485   5.221748   4.792325   5.889482
    39  H    4.070706   4.981268   4.509325   4.097088   5.173111
                   21         22         23         24         25
    21  H    0.000000
    22  N    4.312377   0.000000
    23  C    2.182685   3.879517   0.000000
    24  O    3.277485   3.645581   1.240931   0.000000
    25  O    2.477199   4.669921   1.252721   2.223379   0.000000
    26  P    5.427898   4.687630   3.751582   3.498127   3.432760
    27  O    5.198928   3.742180   3.939908   3.814251   3.777989
    28  O    6.998375   5.984742   5.298820   4.953498   4.900846
    29  H    7.327471   6.684842   5.495961   5.109141   5.046738
    30  O    4.992253   5.546929   3.485154   3.642342   2.687733
    31  H    3.989697   5.125050   2.509561   2.887899   1.618272
    32  O    5.483780   4.547370   3.449338   2.712646   3.555259
    33  H    4.589013   4.120166   2.480056   1.658418   2.802522
    34  O    2.588234   4.833156   3.339353   4.402413   2.716354
    35  H    2.192484   4.638125   2.456792   3.546744   1.728077
    36  H    3.361128   5.698600   3.985496   5.051640   3.119389
    37  O    4.351787   3.543398   4.498132   5.000512   4.328922
    38  H    4.659840   3.630281   4.357190   4.719755   4.109034
    39  H    3.660679   3.913988   4.039054   4.753511   3.723669
                   26         27         28         29         30
    26  P    0.000000
    27  O    1.470310   0.000000
    28  O    1.592139   2.508001   0.000000
    29  H    2.136487   3.370247   1.034796   0.000000
    30  O    1.579473   2.600034   2.502673   2.597680   0.000000
    31  H    2.165882   2.916326   3.436418   3.535005   1.076207
    32  O    1.588379   2.563470   2.502119   2.624922   2.546888
    33  H    2.180833   2.913855   3.432874   3.538506   2.709826
    34  O    4.630485   4.193234   5.980004   6.456747   4.000779
    35  H    4.052712   3.867097   5.478554   5.852968   3.340145
    36  H    4.852677   4.542374   6.049835   6.473313   3.997431
    37  O    4.236212   3.012058   5.352444   6.188140   4.525507
    38  H    3.385544   2.131766   4.411527   5.272744   3.803333
    39  H    4.299217   3.325327   5.529518   6.255875   4.255848
                   31         32         33         34         35
    31  H    0.000000
    32  O    2.711854   0.000000
    33  H    2.434983   1.066691   0.000000
    34  O    3.338172   5.429667   4.926834   0.000000
    35  H    2.521701   4.677938   4.097596   0.990123   0.000000
    36  H    3.461628   5.811247   5.404672   0.952725   1.532751
    37  O    4.336335   5.218543   5.063465   2.790474   3.212038
    38  H    3.791018   4.491610   4.488318   3.065387   3.266737
    39  H    3.910958   5.266898   4.984225   1.834418   2.375226
                   36         37         38         39
    36  H    0.000000
    37  O    3.281004   0.000000
    38  H    3.450147   0.962729   0.000000
    39  H    2.347305   0.973341   1.517324   0.000000
 Symmetry turned off by external request.
 Stoichiometry    C7H22NO8P
 Framework group  C1[X(C7H22NO8P)]
 Deg. of freedom   111
 Full point group                 C1      NOp   1
 Rotational constants (GHZ):           0.4704819           0.3026988           0.2715571
 Leave Link  202 at Thu May 19 19:13:00 2022, MaxMem=   671088640 cpu:               0.0 elap:               0.0
 (Enter /data0/hywu0/study/g16/l122.exe)
 Counterpoise: doing full-system calculation.
 Leave Link  122 at Thu May 19 19:13:00 2022, MaxMem=   671088640 cpu:               0.0 elap:               0.0
 (Enter /data0/hywu0/study/g16/l301.exe)
 Standard basis: 6-311+G(2d,p) (5D, 7F)
 Ernie: Thresh=  0.10000D-02 Tol=  0.10000D-05 Strict=F.
   599 basis functions,   904 primitive gaussians,   633 cartesian basis functions
    75 alpha electrons       75 beta electrons
       nuclear repulsion energy      1710.4702128449 Hartrees.
 IExCor= 4336 DFT=T Ex+Corr=M062X ExCW=0 ScaHFX=  0.540000
 ScaDFX=  1.000000  1.000000  1.000000  1.000000 ScalE2=  1.000000  1.000000
 IRadAn=      5 IRanWt=     -1 IRanGd=            0 ICorTp=0 IEmpDi=131
 NAtoms=   39 NActive=   39 NUniq=   39 SFac= 1.00D+00 NAtFMM=   60 NAOKFM=F Big=F
 Integral buffers will be    131072 words long.
 Raffenetti 2 integral format.
 Two-electron integral symmetry is turned off.
 R6Disp:  Grimme-D3 Dispersion energy=       -0.0032745175 Hartrees.
 Nuclear repulsion after empirical dispersion term =     1710.4669383273 Hartrees.
 Leave Link  301 at Thu May 19 19:13:00 2022, MaxMem=   671088640 cpu:               0.4 elap:               0.1
 (Enter /data0/hywu0/study/g16/l302.exe)
 NPDir=0 NMtPBC=     1 NCelOv=     1 NCel=       1 NClECP=     1 NCelD=      1
         NCelK=      1 NCelE2=     1 NClLst=     1 CellRange=     0.0.
 One-electron integrals computed using PRISM.
 NBasis=   599 RedAO= T EigKep=  5.14D-06  NBF=   599
 NBsUse=   599 1.00D-06 EigRej= -1.00D+00 NBFU=   599
 Precomputing XC quadrature grid using
 IXCGrd= 4 IRadAn=           5 IRanWt=          -1 IRanGd=           0 AccXCQ= 0.00D+00.
 Generated NRdTot=       0 NPtTot=           0 NUsed=           0 NTot=          32
 NSgBfM=   632   632   632   632   632 MxSgAt=    39 MxSgA2=    39.
 Leave Link  302 at Thu May 19 19:13:01 2022, MaxMem=   671088640 cpu:               8.9 elap:               1.1
 (Enter /data0/hywu0/study/g16/l303.exe)
 DipDrv:  MaxL=1.
 Leave Link  303 at Thu May 19 19:13:01 2022, MaxMem=   671088640 cpu:               0.7 elap:               0.1
 (Enter /data0/hywu0/study/g16/l401.exe)
 ExpMin= 3.48D-02 ExpMax= 7.75D+04 ExpMxC= 2.65D+03 IAcc=3 IRadAn=         5 AccDes= 0.00D+00
 Harris functional with IExCor= 1009 and IRadAn=       5 diagonalized for initial guess.
 HarFok:  IExCor= 1009 AccDes= 0.00D+00 IRadAn=         5 IDoV= 1 UseB2=F ITyADJ=14
 ICtDFT=  3500011 ScaDFX=  1.000000  1.000000  1.000000  1.000000
 FoFCou: FMM=F IPFlag=           0 FMFlag=      100000 FMFlg1=           0
         NFxFlg=           0 DoJE=T BraDBF=F KetDBF=T FulRan=T
         wScrn=  0.000000 ICntrl=       500 IOpCl=  0 I1Cent=   200000004 NGrid=           0
         NMat0=    1 NMatS0=      1 NMatT0=    0 NMatD0=    1 NMtDS0=    0 NMtDT0=    0
 Symmetry not used in FoFCou.
 Harris En= -1277.50851180336    
 JPrj=0 DoOrth=F DoCkMO=F.
 Leave Link  401 at Thu May 19 19:13:11 2022, MaxMem=   671088640 cpu:              73.3 elap:               9.2
 (Enter /data0/hywu0/study/g16/l502.exe)
 Two-electron integral symmetry not used.
 Closed shell SCF:
 Using DIIS extrapolation, IDIIS=  1040.
 NGot=   671088640 LenX=   670277652 LenY=   669876330
 Requested convergence on RMS density matrix=1.00D-08 within 128 cycles.
 Requested convergence on MAX density matrix=1.00D-06.
 Requested convergence on             energy=1.00D-06.
 No special actions if energy rises.
 Fock matrices will be formed incrementally for  20 cycles.

 Cycle   1  Pass 1  IDiag  1:
 FoFJK:  IHMeth= 1 ICntrl=       0 DoSepK=F KAlg= 0 I1Cent=           0 FoldK=F
 IRaf= 860000000 NMat=       1 IRICut=       1 DoRegI=T DoRafI=F ISym2E= 0 IDoP0=0 IntGTp=1.
 FoFCou: FMM=F IPFlag=           0 FMFlag=      100000 FMFlg1=           0
         NFxFlg=           0 DoJE=F BraDBF=F KetDBF=F FulRan=T
         wScrn=  0.000000 ICntrl=         0 IOpCl=  0 I1Cent=           0 NGrid=           0
         NMat0=    1 NMatS0=      1 NMatT0=    0 NMatD0=    1 NMtDS0=    0 NMtDT0=    0
 Symmetry not used in FoFCou.
 E= -1277.27487854628    
 DIIS: error= 2.85D-02 at cycle   1 NSaved=   1.
 NSaved= 1 IEnMin= 1 EnMin= -1277.27487854628     IErMin= 1 ErrMin= 2.85D-02
 ErrMax= 2.85D-02  0.00D+00 EMaxC= 1.00D-01 BMatC= 1.14D+00 BMatP= 1.14D+00
 IDIUse=3 WtCom= 7.15D-01 WtEn= 2.85D-01
 Coeff-Com:  0.100D+01
 Coeff-En:   0.100D+01
 Coeff:      0.100D+01
 Gap=     0.360 Goal=   None    Shift=    0.000
 GapD=    0.360 DampG=1.000 DampE=0.500 DampFc=0.5000 IDamp=-1.
 Damping current iteration by 5.00D-01
 RMSDP=5.09D-03 MaxDP=1.03D+00              OVMax= 2.15D-01

 Cycle   2  Pass 1  IDiag  1:
 RMSU=  2.54D-03    CP:  9.94D-01
 E= -1277.60144256592     Delta-E=       -0.326564019642 Rises=F Damp=T
 DIIS: error= 5.74D-03 at cycle   2 NSaved=   2.
 NSaved= 2 IEnMin= 2 EnMin= -1277.60144256592     IErMin= 2 ErrMin= 5.74D-03
 ErrMax= 5.74D-03  0.00D+00 EMaxC= 1.00D-01 BMatC= 6.19D-02 BMatP= 1.14D+00
 IDIUse=3 WtCom= 9.43D-01 WtEn= 5.74D-02
 Coeff-Com:  0.124D-01 0.988D+00
 Coeff-En:   0.673D-01 0.933D+00
 Coeff:      0.156D-01 0.984D+00
 Gap=     0.338 Goal=   None    Shift=    0.000
 RMSDP=2.13D-03 MaxDP=4.14D-01 DE=-3.27D-01 OVMax= 1.30D-01

 Cycle   3  Pass 1  IDiag  1:
 RMSU=  1.70D-03    CP:  8.79D-01  9.86D-01
 E= -1277.96893666171     Delta-E=       -0.367494095798 Rises=F Damp=F
 DIIS: error= 3.38D-03 at cycle   3 NSaved=   3.
 NSaved= 3 IEnMin= 3 EnMin= -1277.96893666171     IErMin= 3 ErrMin= 3.38D-03
 ErrMax= 3.38D-03  0.00D+00 EMaxC= 1.00D-01 BMatC= 1.68D-02 BMatP= 6.19D-02
 IDIUse=3 WtCom= 9.66D-01 WtEn= 3.38D-02
 Coeff-Com: -0.461D-01 0.297D+00 0.749D+00
 Coeff-En:   0.000D+00 0.000D+00 0.100D+01
 Coeff:     -0.445D-01 0.287D+00 0.757D+00
 Gap=     0.332 Goal=   None    Shift=    0.000
 RMSDP=3.63D-04 MaxDP=2.72D-02 DE=-3.67D-01 OVMax= 3.31D-02

 Cycle   4  Pass 1  IDiag  1:
 RMSU=  3.27D-04    CP:  8.82D-01  1.04D+00  9.47D-01
 E= -1277.97701309891     Delta-E=       -0.008076437199 Rises=F Damp=F
 DIIS: error= 2.18D-03 at cycle   4 NSaved=   4.
 NSaved= 4 IEnMin= 4 EnMin= -1277.97701309891     IErMin= 4 ErrMin= 2.18D-03
 ErrMax= 2.18D-03  0.00D+00 EMaxC= 1.00D-01 BMatC= 5.69D-03 BMatP= 1.68D-02
 IDIUse=3 WtCom= 9.78D-01 WtEn= 2.18D-02
 Coeff-Com: -0.246D-01 0.688D-01 0.410D+00 0.546D+00
 Coeff-En:   0.000D+00 0.000D+00 0.241D+00 0.759D+00
 Coeff:     -0.241D-01 0.673D-01 0.406D+00 0.551D+00
 Gap=     0.332 Goal=   None    Shift=    0.000
 RMSDP=1.68D-04 MaxDP=2.36D-02 DE=-8.08D-03 OVMax= 1.50D-02

 Cycle   5  Pass 1  IDiag  1:
 RMSU=  1.03D-04    CP:  8.77D-01  1.02D+00  9.79D-01  6.75D-01
 E= -1277.98102778484     Delta-E=       -0.004014685930 Rises=F Damp=F
 DIIS: error= 3.77D-04 at cycle   5 NSaved=   5.
 NSaved= 5 IEnMin= 5 EnMin= -1277.98102778484     IErMin= 5 ErrMin= 3.77D-04
 ErrMax= 3.77D-04  0.00D+00 EMaxC= 1.00D-01 BMatC= 1.95D-04 BMatP= 5.69D-03
 IDIUse=3 WtCom= 9.96D-01 WtEn= 3.77D-03
 Coeff-Com: -0.797D-02 0.151D-01 0.142D+00 0.248D+00 0.604D+00
 Coeff-En:   0.000D+00 0.000D+00 0.000D+00 0.000D+00 0.100D+01
 Coeff:     -0.794D-02 0.150D-01 0.141D+00 0.247D+00 0.605D+00
 Gap=     0.323 Goal=   None    Shift=    0.000
 RMSDP=3.38D-05 MaxDP=1.75D-03 DE=-4.01D-03 OVMax= 2.38D-03

 Cycle   6  Pass 1  IDiag  1:
 RMSU=  2.82D-05    CP:  8.77D-01  1.02D+00  9.81D-01  6.88D-01  8.31D-01
 E= -1277.98115796643     Delta-E=       -0.000130181590 Rises=F Damp=F
 DIIS: error= 8.96D-05 at cycle   6 NSaved=   6.
 NSaved= 6 IEnMin= 6 EnMin= -1277.98115796643     IErMin= 6 ErrMin= 8.96D-05
 ErrMax= 8.96D-05  0.00D+00 EMaxC= 1.00D-01 BMatC= 1.36D-05 BMatP= 1.95D-04
 IDIUse=1 WtCom= 1.00D+00 WtEn= 0.00D+00
 Coeff-Com: -0.129D-02 0.999D-03 0.255D-01 0.585D-01 0.260D+00 0.656D+00
 Coeff:     -0.129D-02 0.999D-03 0.255D-01 0.585D-01 0.260D+00 0.656D+00
 Gap=     0.323 Goal=   None    Shift=    0.000
 RMSDP=1.60D-05 MaxDP=3.58D-03 DE=-1.30D-04 OVMax= 8.04D-04

 Cycle   7  Pass 1  IDiag  1:
 RMSU=  1.39D-05    CP:  8.77D-01  1.03D+00  9.80D-01  6.93D-01  8.31D-01
                    CP:  8.25D-01
 E= -1277.98116881720     Delta-E=       -0.000010850767 Rises=F Damp=F
 DIIS: error= 2.34D-05 at cycle   7 NSaved=   7.
 NSaved= 7 IEnMin= 7 EnMin= -1277.98116881720     IErMin= 7 ErrMin= 2.34D-05
 ErrMax= 2.34D-05  0.00D+00 EMaxC= 1.00D-01 BMatC= 1.32D-06 BMatP= 1.36D-05
 IDIUse=1 WtCom= 1.00D+00 WtEn= 0.00D+00
 Coeff-Com:  0.134D-03-0.899D-03-0.131D-02 0.363D-02 0.589D-01 0.273D+00
 Coeff-Com:  0.667D+00
 Coeff:      0.134D-03-0.899D-03-0.131D-02 0.363D-02 0.589D-01 0.273D+00
 Coeff:      0.667D+00
 Gap=     0.323 Goal=   None    Shift=    0.000
 RMSDP=4.31D-06 MaxDP=6.18D-04 DE=-1.09D-05 OVMax= 3.47D-04

 Cycle   8  Pass 1  IDiag  1:
 RMSU=  3.06D-06    CP:  8.77D-01  1.02D+00  9.80D-01  6.95D-01  8.43D-01
                    CP:  8.95D-01  9.51D-01
 E= -1277.98116968059     Delta-E=       -0.000000863390 Rises=F Damp=F
 DIIS: error= 1.43D-05 at cycle   8 NSaved=   8.
 NSaved= 8 IEnMin= 8 EnMin= -1277.98116968059     IErMin= 8 ErrMin= 1.43D-05
 ErrMax= 1.43D-05  0.00D+00 EMaxC= 1.00D-01 BMatC= 3.32D-07 BMatP= 1.32D-06
 IDIUse=1 WtCom= 1.00D+00 WtEn= 0.00D+00
 Coeff-Com:  0.333D-03-0.676D-03-0.588D-02-0.974D-02-0.187D-01 0.194D-01
 Coeff-Com:  0.358D+00 0.658D+00
 Coeff:      0.333D-03-0.676D-03-0.588D-02-0.974D-02-0.187D-01 0.194D-01
 Coeff:      0.358D+00 0.658D+00
 Gap=     0.323 Goal=   None    Shift=    0.000
 RMSDP=1.87D-06 MaxDP=3.06D-04 DE=-8.63D-07 OVMax= 1.41D-04

 Cycle   9  Pass 1  IDiag  1:
 RMSU=  1.36D-06    CP:  8.77D-01  1.02D+00  9.80D-01  6.95D-01  8.48D-01
                    CP:  9.12D-01  9.65D-01  8.43D-01
 E= -1277.98116992725     Delta-E=       -0.000000246659 Rises=F Damp=F
 DIIS: error= 2.75D-06 at cycle   9 NSaved=   9.
 NSaved= 9 IEnMin= 9 EnMin= -1277.98116992725     IErMin= 9 ErrMin= 2.75D-06
 ErrMax= 2.75D-06  0.00D+00 EMaxC= 1.00D-01 BMatC= 1.79D-08 BMatP= 3.32D-07
 IDIUse=1 WtCom= 1.00D+00 WtEn= 0.00D+00
 Coeff-Com:  0.114D-03-0.188D-03-0.219D-02-0.400D-02-0.107D-01-0.806D-02
 Coeff-Com:  0.980D-01 0.265D+00 0.662D+00
 Coeff:      0.114D-03-0.188D-03-0.219D-02-0.400D-02-0.107D-01-0.806D-02
 Coeff:      0.980D-01 0.265D+00 0.662D+00
 Gap=     0.323 Goal=   None    Shift=    0.000
 RMSDP=5.97D-07 MaxDP=1.11D-04 DE=-2.47D-07 OVMax= 2.79D-05

 Cycle  10  Pass 1  IDiag  1:
 RMSU=  3.70D-07    CP:  8.77D-01  1.02D+00  9.80D-01  6.95D-01  8.47D-01
                    CP:  9.13D-01  9.88D-01  9.12D-01  9.19D-01
 E= -1277.98116994096     Delta-E=       -0.000000013715 Rises=F Damp=F
 DIIS: error= 1.42D-06 at cycle  10 NSaved=  10.
 NSaved=10 IEnMin=10 EnMin= -1277.98116994096     IErMin=10 ErrMin= 1.42D-06
 ErrMax= 1.42D-06  0.00D+00 EMaxC= 1.00D-01 BMatC= 2.30D-09 BMatP= 1.79D-08
 IDIUse=1 WtCom= 1.00D+00 WtEn= 0.00D+00
 Coeff-Com: -0.221D-05 0.124D-04-0.781D-04-0.298D-03-0.199D-02-0.649D-02
 Coeff-Com: -0.108D-01 0.150D-01 0.264D+00 0.740D+00
 Coeff:     -0.221D-05 0.124D-04-0.781D-04-0.298D-03-0.199D-02-0.649D-02
 Coeff:     -0.108D-01 0.150D-01 0.264D+00 0.740D+00
 Gap=     0.323 Goal=   None    Shift=    0.000
 RMSDP=1.90D-07 MaxDP=2.73D-05 DE=-1.37D-08 OVMax= 9.54D-06

 Cycle  11  Pass 1  IDiag  1:
 RMSU=  1.05D-07    CP:  8.77D-01  1.02D+00  9.80D-01  6.95D-01  8.47D-01
                    CP:  9.13D-01  9.85D-01  9.15D-01  1.01D+00  1.11D+00
 E= -1277.98116994302     Delta-E=       -0.000000002057 Rises=F Damp=F
 DIIS: error= 5.84D-07 at cycle  11 NSaved=  11.
 NSaved=11 IEnMin=11 EnMin= -1277.98116994302     IErMin=11 ErrMin= 5.84D-07
 ErrMax= 5.84D-07  0.00D+00 EMaxC= 1.00D-01 BMatC= 2.81D-10 BMatP= 2.30D-09
 IDIUse=1 WtCom= 1.00D+00 WtEn= 0.00D+00
 Coeff-Com: -0.128D-04 0.263D-04 0.202D-03 0.300D-03 0.332D-03-0.154D-02
 Coeff-Com: -0.149D-01-0.246D-01 0.258D-01 0.310D+00 0.704D+00
 Coeff:     -0.128D-04 0.263D-04 0.202D-03 0.300D-03 0.332D-03-0.154D-02
 Coeff:     -0.149D-01-0.246D-01 0.258D-01 0.310D+00 0.704D+00
 Gap=     0.323 Goal=   None    Shift=    0.000
 RMSDP=7.39D-08 MaxDP=6.19D-06 DE=-2.06D-09 OVMax= 2.51D-06

 Cycle  12  Pass 1  IDiag  1:
 RMSU=  4.73D-08    CP:  8.77D-01  1.02D+00  9.80D-01  6.95D-01  8.46D-01
                    CP:  9.14D-01  9.84D-01  9.24D-01  1.03D+00  1.14D+00
                    CP:  8.94D-01
 E= -1277.98116994319     Delta-E=       -0.000000000172 Rises=F Damp=F
 DIIS: error= 1.05D-07 at cycle  12 NSaved=  12.
 NSaved=12 IEnMin=12 EnMin= -1277.98116994319     IErMin=12 ErrMin= 1.05D-07
 ErrMax= 1.05D-07  0.00D+00 EMaxC= 1.00D-01 BMatC= 1.42D-11 BMatP= 2.81D-10
 IDIUse=1 WtCom= 1.00D+00 WtEn= 0.00D+00
 Coeff-Com: -0.369D-05 0.703D-05 0.730D-04 0.119D-03 0.256D-03 0.205D-04
 Coeff-Com: -0.393D-02-0.931D-02-0.141D-01 0.429D-01 0.216D+00 0.768D+00
 Coeff:     -0.369D-05 0.703D-05 0.730D-04 0.119D-03 0.256D-03 0.205D-04
 Coeff:     -0.393D-02-0.931D-02-0.141D-01 0.429D-01 0.216D+00 0.768D+00
 Gap=     0.323 Goal=   None    Shift=    0.000
 RMSDP=1.57D-08 MaxDP=1.18D-06 DE=-1.72D-10 OVMax= 1.07D-06

 Cycle  13  Pass 1  IDiag  1:
 RMSU=  1.09D-08    CP:  8.77D-01  1.02D+00  9.80D-01  6.95D-01  8.47D-01
                    CP:  9.14D-01  9.84D-01  9.24D-01  1.03D+00  1.16D+00
                    CP:  9.34D-01  9.52D-01
 E= -1277.98116994323     Delta-E=       -0.000000000041 Rises=F Damp=F
 DIIS: error= 4.81D-08 at cycle  13 NSaved=  13.
 NSaved=13 IEnMin=13 EnMin= -1277.98116994323     IErMin=13 ErrMin= 4.81D-08
 ErrMax= 4.81D-08  0.00D+00 EMaxC= 1.00D-01 BMatC= 1.93D-12 BMatP= 1.42D-11
 IDIUse=1 WtCom= 1.00D+00 WtEn= 0.00D+00
 Coeff-Com:  0.422D-06-0.842D-06 0.920D-06 0.331D-05 0.412D-04 0.180D-03
 Coeff-Com:  0.403D-03-0.382D-03-0.784D-02-0.196D-01-0.952D-02 0.274D+00
 Coeff-Com:  0.762D+00
 Coeff:      0.422D-06-0.842D-06 0.920D-06 0.331D-05 0.412D-04 0.180D-03
 Coeff:      0.403D-03-0.382D-03-0.784D-02-0.196D-01-0.952D-02 0.274D+00
 Coeff:      0.762D+00
 Gap=     0.323 Goal=   None    Shift=    0.000
 RMSDP=6.28D-09 MaxDP=5.37D-07 DE=-4.09D-11 OVMax= 2.94D-07

 SCF Done:  E(RM062X) =  -1277.98116994     A.U. after   13 cycles
            NFock= 13  Conv=0.63D-08     -V/T= 2.0034
 KE= 1.273652249543D+03 PE=-6.432232804710D+03 EE= 2.170132446897D+03
 Leave Link  502 at Thu May 19 19:22:36 2022, MaxMem=   671088640 cpu:            4508.7 elap:             565.5
 (Enter /data0/hywu0/study/g16/l601.exe)
 Copying SCF densities to generalized density rwf, IOpCl= 0 IROHF=0.

 **********************************************************************

            Population analysis using the SCF density.

 **********************************************************************

 Alpha  occ. eigenvalues --  -78.13377 -19.64683 -19.62137 -19.62021 -19.61047
 Alpha  occ. eigenvalues --  -19.59991 -19.59601 -19.57793 -19.56843 -14.90953
 Alpha  occ. eigenvalues --  -10.65333 -10.63422 -10.61561 -10.60959 -10.60341
 Alpha  occ. eigenvalues --  -10.57189 -10.55135  -6.94088  -5.06026  -5.05954
 Alpha  occ. eigenvalues --   -5.05813  -1.20065  -1.19138  -1.15408  -1.12404
 Alpha  occ. eigenvalues --   -1.12321  -1.11078  -1.09271  -1.09036  -1.06960
 Alpha  occ. eigenvalues --   -0.92242  -0.87222  -0.85655  -0.83425  -0.75711
 Alpha  occ. eigenvalues --   -0.71091  -0.68267  -0.63291  -0.62827  -0.62313
 Alpha  occ. eigenvalues --   -0.61205  -0.60941  -0.59901  -0.58800  -0.57305
 Alpha  occ. eigenvalues --   -0.56992  -0.54859  -0.54060  -0.53249  -0.52572
 Alpha  occ. eigenvalues --   -0.52442  -0.50614  -0.49373  -0.49209  -0.48996
 Alpha  occ. eigenvalues --   -0.48370  -0.48079  -0.47653  -0.46728  -0.46196
 Alpha  occ. eigenvalues --   -0.45653  -0.44830  -0.44076  -0.43822  -0.42487
 Alpha  occ. eigenvalues --   -0.41763  -0.41540  -0.39912  -0.38563  -0.36731
 Alpha  occ. eigenvalues --   -0.35820  -0.35625  -0.34790  -0.34683  -0.34127
 Alpha virt. eigenvalues --   -0.01831   0.00241   0.00777   0.01385   0.02097
 Alpha virt. eigenvalues --    0.02795   0.03573   0.03912   0.04051   0.04414
 Alpha virt. eigenvalues --    0.05942   0.06371   0.06573   0.06815   0.07166
 Alpha virt. eigenvalues --    0.07573   0.08222   0.08234   0.09508   0.09978
 Alpha virt. eigenvalues --    0.10418   0.11055   0.11314   0.11697   0.12059
 Alpha virt. eigenvalues --    0.12490   0.12986   0.13474   0.14262   0.14452
 Alpha virt. eigenvalues --    0.14531   0.15161   0.15522   0.16183   0.16322
 Alpha virt. eigenvalues --    0.16747   0.16987   0.17778   0.17923   0.18208
 Alpha virt. eigenvalues --    0.18681   0.19339   0.19835   0.20201   0.20802
 Alpha virt. eigenvalues --    0.21082   0.21227   0.21750   0.21907   0.22240
 Alpha virt. eigenvalues --    0.22792   0.23329   0.23662   0.23980   0.24009
 Alpha virt. eigenvalues --    0.24530   0.24980   0.25329   0.25651   0.25738
 Alpha virt. eigenvalues --    0.25924   0.26475   0.26766   0.26857   0.27598
 Alpha virt. eigenvalues --    0.27996   0.28538   0.28988   0.29295   0.29498
 Alpha virt. eigenvalues --    0.30678   0.31048   0.31259   0.31390   0.31743
 Alpha virt. eigenvalues --    0.31914   0.32681   0.33075   0.33422   0.33634
 Alpha virt. eigenvalues --    0.34247   0.34949   0.35463   0.35698   0.36475
 Alpha virt. eigenvalues --    0.36746   0.37670   0.37715   0.38265   0.38713
 Alpha virt. eigenvalues --    0.39491   0.40116   0.40460   0.41103   0.42755
 Alpha virt. eigenvalues --    0.43463   0.43809   0.45036   0.45091   0.45751
 Alpha virt. eigenvalues --    0.46120   0.46667   0.47788   0.48003   0.48895
 Alpha virt. eigenvalues --    0.49355   0.50153   0.51775   0.51970   0.52821
 Alpha virt. eigenvalues --    0.53618   0.54120   0.54594   0.55222   0.55778
 Alpha virt. eigenvalues --    0.56209   0.56715   0.57268   0.58364   0.59061
 Alpha virt. eigenvalues --    0.59256   0.60149   0.61105   0.61127   0.61448
 Alpha virt. eigenvalues --    0.62109   0.62725   0.63154   0.63835   0.65330
 Alpha virt. eigenvalues --    0.65769   0.66001   0.66917   0.67269   0.67665
 Alpha virt. eigenvalues --    0.68415   0.68604   0.69886   0.70564   0.71366
 Alpha virt. eigenvalues --    0.71907   0.73402   0.73755   0.74491   0.74876
 Alpha virt. eigenvalues --    0.75587   0.76902   0.77225   0.77858   0.78203
 Alpha virt. eigenvalues --    0.79295   0.79834   0.80810   0.81789   0.82471
 Alpha virt. eigenvalues --    0.84300   0.85069   0.85512   0.85907   0.87192
 Alpha virt. eigenvalues --    0.87353   0.88561   0.90139   0.90498   0.91894
 Alpha virt. eigenvalues --    0.93606   0.95158   0.96602   0.97081   0.97839
 Alpha virt. eigenvalues --    1.00424   1.01989   1.04060   1.05170   1.08481
 Alpha virt. eigenvalues --    1.08993   1.09867   1.10585   1.11505   1.11906
 Alpha virt. eigenvalues --    1.12404   1.12786   1.14525   1.15339   1.15736
 Alpha virt. eigenvalues --    1.15810   1.16634   1.16801   1.18105   1.19425
 Alpha virt. eigenvalues --    1.20021   1.20447   1.21175   1.21829   1.21896
 Alpha virt. eigenvalues --    1.22185   1.23543   1.24467   1.24986   1.25257
 Alpha virt. eigenvalues --    1.25624   1.25921   1.26757   1.27673   1.28246
 Alpha virt. eigenvalues --    1.29535   1.29725   1.30364   1.30592   1.31415
 Alpha virt. eigenvalues --    1.32553   1.33006   1.34258   1.34360   1.34867
 Alpha virt. eigenvalues --    1.35601   1.35877   1.37033   1.37708   1.38584
 Alpha virt. eigenvalues --    1.39786   1.39846   1.41169   1.41479   1.42036
 Alpha virt. eigenvalues --    1.43372   1.43794   1.44928   1.45397   1.46724
 Alpha virt. eigenvalues --    1.47863   1.48389   1.49174   1.49834   1.50527
 Alpha virt. eigenvalues --    1.52160   1.52587   1.54214   1.54995   1.57001
 Alpha virt. eigenvalues --    1.57628   1.59102   1.59486   1.60171   1.61362
 Alpha virt. eigenvalues --    1.62078   1.62522   1.64992   1.66334   1.68694
 Alpha virt. eigenvalues --    1.69437   1.70607   1.71593   1.71778   1.73395
 Alpha virt. eigenvalues --    1.73749   1.74228   1.75451   1.76220   1.76890
 Alpha virt. eigenvalues --    1.77364   1.78650   1.79125   1.80531   1.81036
 Alpha virt. eigenvalues --    1.81946   1.82269   1.83350   1.84454   1.84594
 Alpha virt. eigenvalues --    1.85714   1.87273   1.87723   1.89423   1.90866
 Alpha virt. eigenvalues --    1.91999   1.92926   1.94139   1.95332   1.96350
 Alpha virt. eigenvalues --    1.96849   1.98929   1.99280   2.00015   2.01136
 Alpha virt. eigenvalues --    2.02050   2.04341   2.04610   2.06236   2.08007
 Alpha virt. eigenvalues --    2.09161   2.09620   2.10088   2.12303   2.13162
 Alpha virt. eigenvalues --    2.14435   2.14551   2.16506   2.17974   2.18272
 Alpha virt. eigenvalues --    2.18768   2.19827   2.22956   2.23783   2.24890
 Alpha virt. eigenvalues --    2.25085   2.25625   2.26927   2.27810   2.28551
 Alpha virt. eigenvalues --    2.28848   2.30295   2.30742   2.32178   2.32965
 Alpha virt. eigenvalues --    2.33809   2.34530   2.35727   2.36314   2.37245
 Alpha virt. eigenvalues --    2.38655   2.39532   2.40016   2.40938   2.41906
 Alpha virt. eigenvalues --    2.42975   2.43217   2.44513   2.45090   2.46664
 Alpha virt. eigenvalues --    2.47219   2.47670   2.49290   2.51034   2.52983
 Alpha virt. eigenvalues --    2.54478   2.55944   2.59241   2.59674   2.61623
 Alpha virt. eigenvalues --    2.62244   2.65057   2.66228   2.67056   2.68339
 Alpha virt. eigenvalues --    2.69603   2.70749   2.72795   2.73700   2.74086
 Alpha virt. eigenvalues --    2.77077   2.78445   2.79605   2.80769   2.82150
 Alpha virt. eigenvalues --    2.84818   2.86467   2.87450   2.88697   2.89558
 Alpha virt. eigenvalues --    2.90432   2.93363   2.95045   3.00307   3.01016
 Alpha virt. eigenvalues --    3.03174   3.04865   3.05166   3.07445   3.07908
 Alpha virt. eigenvalues --    3.10963   3.11255   3.13172   3.15267   3.17361
 Alpha virt. eigenvalues --    3.19176   3.20718   3.21113   3.21848   3.24238
 Alpha virt. eigenvalues --    3.26555   3.28216   3.31476   3.34504   3.35969
 Alpha virt. eigenvalues --    3.36127   3.37035   3.39679   3.40365   3.41920
 Alpha virt. eigenvalues --    3.43024   3.43332   3.48164   3.50143   3.50303
 Alpha virt. eigenvalues --    3.55298   3.56834   3.58712   3.60487   3.61132
 Alpha virt. eigenvalues --    3.61645   3.63218   3.64956   3.67231   3.67723
 Alpha virt. eigenvalues --    3.68500   3.70030   3.71331   3.72621   3.76570
 Alpha virt. eigenvalues --    3.78442   3.81357   3.84506   3.85062   3.86919
 Alpha virt. eigenvalues --    3.89201   3.92224   3.99366   4.03618   4.13054
 Alpha virt. eigenvalues --    4.14530   4.14697   4.16303   4.18226   4.19753
 Alpha virt. eigenvalues --    4.21381   4.25192   4.27126   4.37456   4.41767
 Alpha virt. eigenvalues --    4.53548   4.78466   4.80715   4.83421   5.10991
 Alpha virt. eigenvalues --    5.11906   5.15449   5.18470   5.20293   5.22671
 Alpha virt. eigenvalues --    5.22908   5.24421   5.24787   5.25551   5.32919
 Alpha virt. eigenvalues --    5.33783   5.35137   5.39960   5.44242   5.45902
 Alpha virt. eigenvalues --    5.47531   5.49404   5.50333   5.52173   5.57425
 Alpha virt. eigenvalues --    5.61862   5.63430   5.65293   5.66467   5.95447
 Alpha virt. eigenvalues --    5.98944   6.00929   6.22972   6.77791   6.79045
 Alpha virt. eigenvalues --    6.80994   6.81858   6.83344   6.84703   6.85050
 Alpha virt. eigenvalues --    6.85399   6.86238   6.88521   6.89750   6.90546
 Alpha virt. eigenvalues --    6.92700   6.93417   6.95408   6.95757   6.96723
 Alpha virt. eigenvalues --    6.98567   6.99588   7.00738   7.01101   7.03780
 Alpha virt. eigenvalues --    7.05093   7.06225   7.06364   7.07917   7.10124
 Alpha virt. eigenvalues --    7.15122   7.16973   7.21871   7.23498   7.28789
 Alpha virt. eigenvalues --    7.30481   7.30914   7.32250   7.35508   7.38758
 Alpha virt. eigenvalues --    7.39779   7.43284   7.48035   7.74346  14.30145
 Alpha virt. eigenvalues --   14.34177  14.41123  23.96261  23.99567  24.06806
 Alpha virt. eigenvalues --   24.07317  24.08888  24.11865  24.24277  35.53079
 Alpha virt. eigenvalues --   50.05171  50.06413  50.10232  50.11494  50.12258
 Alpha virt. eigenvalues --   50.16091  50.18669  50.19555 164.00372
          Condensed to atoms (all electrons):
               1          2          3          4          5          6
     1  C    5.934885   0.370202   0.366948   0.400459  -0.197658   0.028843
     2  H    0.370202   0.383514  -0.016278  -0.008709   0.015182  -0.000142
     3  H    0.366948  -0.016278   0.470633  -0.018884  -0.020807   0.000057
     4  H    0.400459  -0.008709  -0.018884   0.425438  -0.010029  -0.000085
     5  C   -0.197658   0.015182  -0.020807  -0.010029   5.541378   0.403424
     6  H    0.028843  -0.000142   0.000057  -0.000085   0.403424   0.458699
     7  H   -0.020926   0.000238   0.000117   0.001756   0.424360  -0.019537
     8  H   -0.022996   0.000282  -0.000245   0.000212   0.393579  -0.019776
     9  C   -0.132431  -0.004803  -0.026010   0.027758  -0.187890  -0.012602
    10  H    0.034229   0.000111  -0.000026  -0.000340  -0.010445   0.000977
    11  H   -0.020869  -0.000277  -0.001557   0.000105  -0.013229   0.000261
    12  H   -0.005247   0.004284  -0.000087   0.000176   0.010470   0.000223
    13  C   -0.793464  -0.005767   0.066628  -0.023022  -0.208261  -0.077215
    14  H    0.000988   0.000468   0.000103   0.002467  -0.015489   0.000098
    15  H    0.028529   0.004976  -0.000153   0.000005  -0.001314   0.000287
    16  C   -0.058716  -0.003314   0.003667   0.005196   0.025561   0.029647
    17  H    0.014139   0.000022  -0.000034   0.000006  -0.007082  -0.001449
    18  H   -0.004485   0.000010  -0.000005   0.000009  -0.003139  -0.001051
    19  C   -0.007603  -0.001290  -0.000007   0.003299  -0.058844   0.000772
    20  H   -0.000063   0.000003  -0.000000  -0.000000   0.000143   0.000030
    21  H    0.000527  -0.000003  -0.000000  -0.000008   0.000502  -0.000006
    22  N    0.483919  -0.014837  -0.020798  -0.025359   0.261584  -0.003214
    23  C   -0.006609  -0.003766   0.000308  -0.000366   0.017849   0.001343
    24  O   -0.008994  -0.000224  -0.000081   0.000066  -0.003909   0.000156
    25  O   -0.000159   0.000144   0.000007   0.000018  -0.001883   0.000008
    26  P    0.004333  -0.000112   0.000176  -0.000286  -0.000062   0.000009
    27  O   -0.014341   0.029029  -0.000019  -0.002319   0.001163  -0.000007
    28  O   -0.002660   0.000414  -0.000005   0.000011  -0.000028   0.000000
    29  H    0.000360  -0.000024  -0.000000  -0.000000   0.000012  -0.000000
    30  O    0.002323   0.000063  -0.000003  -0.000022  -0.000288  -0.000001
    31  H    0.001283   0.000107  -0.000002  -0.000005   0.000205   0.000001
    32  O   -0.007615  -0.002010   0.000078  -0.000012   0.000406  -0.000005
    33  H    0.000804   0.000227   0.000001  -0.000005   0.001624  -0.000014
    34  O    0.011894  -0.000199  -0.000020   0.000017  -0.001765   0.000015
    35  H   -0.000873   0.000065   0.000003  -0.000012   0.000224  -0.000006
    36  H   -0.000142  -0.000002   0.000000  -0.000002   0.000049   0.000000
    37  O    0.003726  -0.012396   0.002181  -0.017160  -0.011038   0.000068
    38  H   -0.003119   0.003772  -0.000101   0.003514   0.000657  -0.000007
    39  H   -0.017089   0.001978   0.000096   0.001683   0.002877  -0.000010
               7          8          9         10         11         12
     1  C   -0.020926  -0.022996  -0.132431   0.034229  -0.020869  -0.005247
     2  H    0.000238   0.000282  -0.004803   0.000111  -0.000277   0.004284
     3  H    0.000117  -0.000245  -0.026010  -0.000026  -0.001557  -0.000087
     4  H    0.001756   0.000212   0.027758  -0.000340   0.000105   0.000176
     5  C    0.424360   0.393579  -0.187890  -0.010445  -0.013229   0.010470
     6  H   -0.019537  -0.019776  -0.012602   0.000977   0.000261   0.000223
     7  H    0.439273  -0.018052   0.020296  -0.000088   0.000214  -0.000262
     8  H   -0.018052   0.459768  -0.018685   0.000243   0.000272   0.000068
     9  C    0.020296  -0.018685   5.796115   0.404462   0.392623   0.381386
    10  H   -0.000088   0.000243   0.404462   0.442579  -0.016241  -0.013443
    11  H    0.000214   0.000272   0.392623  -0.016241   0.455121  -0.017317
    12  H   -0.000262   0.000068   0.381386  -0.013443  -0.017317   0.430302
    13  C   -0.014265   0.050936  -0.225842  -0.021187   0.028002   0.016470
    14  H    0.000665  -0.000058   0.013952   0.000015  -0.000049   0.000053
    15  H    0.000625  -0.000323   0.014351   0.001037   0.000407   0.003276
    16  C   -0.007101   0.003402  -0.252368  -0.024307   0.004461  -0.014664
    17  H    0.000267  -0.000405  -0.023247   0.002123  -0.000016   0.000076
    18  H    0.000353   0.000028   0.011549   0.000355  -0.000002  -0.000010
    19  C   -0.003526   0.002239   0.112335   0.000177  -0.001673   0.003658
    20  H   -0.000001  -0.000001   0.001759  -0.000014  -0.000002  -0.000009
    21  H    0.000005  -0.000002  -0.002368  -0.000046  -0.000000   0.000002
    22  N   -0.022224  -0.034761   0.212973  -0.013495  -0.019221  -0.039696
    23  C    0.000290  -0.000073  -0.091562  -0.001179   0.001402  -0.007081
    24  O    0.000060   0.000003   0.007070  -0.011400   0.003121  -0.009862
    25  O   -0.000012  -0.000006   0.012349   0.000772  -0.000083   0.000597
    26  P   -0.000074   0.000132   0.004094  -0.000110  -0.000433   0.010884
    27  O   -0.000019  -0.000001  -0.036053   0.000293   0.001014   0.005823
    28  O    0.000000   0.000000   0.003399  -0.000055  -0.000048  -0.001265
    29  H   -0.000000  -0.000000   0.000659   0.000000  -0.000001   0.000014
    30  O   -0.000000  -0.000000  -0.000761   0.000132   0.000012   0.002482
    31  H    0.000000   0.000000  -0.001040  -0.000007   0.000005  -0.000338
    32  O   -0.000003  -0.000006   0.001999  -0.003545   0.000758   0.002807
    33  H   -0.000002  -0.000007   0.006787   0.003225  -0.000617   0.001690
    34  O    0.000032   0.000003   0.001502   0.000052   0.000008   0.000253
    35  H   -0.000006  -0.000000  -0.001924  -0.000012   0.000001   0.000005
    36  H    0.000000   0.000000   0.000206  -0.000000  -0.000000  -0.000007
    37  O   -0.000168  -0.000018   0.002365   0.000481   0.000114   0.001103
    38  H    0.000005  -0.000003   0.002631  -0.000076  -0.000039  -0.000472
    39  H    0.000004   0.000000   0.000184  -0.000040  -0.000011  -0.000174
              13         14         15         16         17         18
     1  C   -0.793464   0.000988   0.028529  -0.058716   0.014139  -0.004485
     2  H   -0.005767   0.000468   0.004976  -0.003314   0.000022   0.000010
     3  H    0.066628   0.000103  -0.000153   0.003667  -0.000034  -0.000005
     4  H   -0.023022   0.002467   0.000005   0.005196   0.000006   0.000009
     5  C   -0.208261  -0.015489  -0.001314   0.025561  -0.007082  -0.003139
     6  H   -0.077215   0.000098   0.000287   0.029647  -0.001449  -0.001051
     7  H   -0.014265   0.000665   0.000625  -0.007101   0.000267   0.000353
     8  H    0.050936  -0.000058  -0.000323   0.003402  -0.000405   0.000028
     9  C   -0.225842   0.013952   0.014351  -0.252368  -0.023247   0.011549
    10  H   -0.021187   0.000015   0.001037  -0.024307   0.002123   0.000355
    11  H    0.028002  -0.000049   0.000407   0.004461  -0.000016  -0.000002
    12  H    0.016470   0.000053   0.003276  -0.014664   0.000076  -0.000010
    13  C    9.991572   0.269068   0.195072  -1.612446  -0.125935  -0.002329
    14  H    0.269068   0.437671  -0.013032   0.023399   0.002959  -0.008940
    15  H    0.195072  -0.013032   0.561115  -0.051111  -0.000898   0.006024
    16  C   -1.612446   0.023399  -0.051111   7.374790   0.488011   0.372197
    17  H   -0.125935   0.002959  -0.000898   0.488011   0.510946  -0.037261
    18  H   -0.002329  -0.008940   0.006024   0.372197  -0.037261   0.515986
    19  C    0.022363   0.026815   0.007985  -0.355539  -0.053013  -0.017142
    20  H    0.042925  -0.000275   0.000785  -0.050516  -0.007661  -0.002188
    21  H    0.014685  -0.001484  -0.004075  -0.040246   0.004979  -0.006410
    22  N   -1.022680   0.034329   0.023565   0.236259   0.067067  -0.020600
    23  C   -0.286869  -0.005706  -0.027009   0.279953   0.009659   0.020623
    24  O    0.039397   0.001724   0.011523  -0.067913  -0.012153   0.002016
    25  O    0.039857  -0.000414   0.022874  -0.035364   0.000563  -0.001072
    26  P   -0.061098   0.000927   0.008905   0.003320   0.000028   0.000069
    27  O    0.042378  -0.001341   0.005783  -0.008942  -0.000069   0.000034
    28  O   -0.006098   0.000019   0.000763   0.000470   0.000002  -0.000000
    29  H   -0.000713   0.000000  -0.000000  -0.000088   0.000000   0.000000
    30  O    0.011333  -0.000021  -0.002673  -0.010865   0.000006   0.000005
    31  H   -0.021213   0.000036   0.000019   0.005078  -0.000053   0.000000
    32  O    0.007871   0.000002  -0.004716  -0.000423  -0.000133  -0.000014
    33  H   -0.004097  -0.000080   0.001769   0.007967   0.000443   0.000002
    34  O   -0.096894   0.003604   0.028719   0.018037   0.000030   0.000361
    35  H    0.011788  -0.000683  -0.004379  -0.006145  -0.000136  -0.000140
    36  H   -0.007097   0.000243  -0.000136  -0.002114   0.000008   0.000004
    37  O   -0.196982   0.001866   0.069191  -0.041796   0.000162   0.000650
    38  H    0.035662   0.000611  -0.003384   0.005483  -0.000011  -0.000028
    39  H    0.081959   0.000268  -0.010817   0.007977  -0.000057  -0.000139
              19         20         21         22         23         24
     1  C   -0.007603  -0.000063   0.000527   0.483919  -0.006609  -0.008994
     2  H   -0.001290   0.000003  -0.000003  -0.014837  -0.003766  -0.000224
     3  H   -0.000007  -0.000000  -0.000000  -0.020798   0.000308  -0.000081
     4  H    0.003299  -0.000000  -0.000008  -0.025359  -0.000366   0.000066
     5  C   -0.058844   0.000143   0.000502   0.261584   0.017849  -0.003909
     6  H    0.000772   0.000030  -0.000006  -0.003214   0.001343   0.000156
     7  H   -0.003526  -0.000001   0.000005  -0.022224   0.000290   0.000060
     8  H    0.002239  -0.000001  -0.000002  -0.034761  -0.000073   0.000003
     9  C    0.112335   0.001759  -0.002368   0.212973  -0.091562   0.007070
    10  H    0.000177  -0.000014  -0.000046  -0.013495  -0.001179  -0.011400
    11  H   -0.001673  -0.000002  -0.000000  -0.019221   0.001402   0.003121
    12  H    0.003658  -0.000009   0.000002  -0.039696  -0.007081  -0.009862
    13  C    0.022363   0.042925   0.014685  -1.022680  -0.286869   0.039397
    14  H    0.026815  -0.000275  -0.001484   0.034329  -0.005706   0.001724
    15  H    0.007985   0.000785  -0.004075   0.023565  -0.027009   0.011523
    16  C   -0.355539  -0.050516  -0.040246   0.236259   0.279953  -0.067913
    17  H   -0.053013  -0.007661   0.004979   0.067067   0.009659  -0.012153
    18  H   -0.017142  -0.002188  -0.006410  -0.020600   0.020623   0.002016
    19  C    6.587179   0.439334   0.440621  -0.066979  -0.528711  -0.072519
    20  H    0.439334   0.497434  -0.025361  -0.002129  -0.093788   0.000408
    21  H    0.440621  -0.025361   0.470540   0.000005  -0.042571   0.002442
    22  N   -0.066979  -0.002129   0.000005   7.116060   0.093949  -0.039289
    23  C   -0.528711  -0.093788  -0.042571   0.093949   5.805859   0.306490
    24  O   -0.072519   0.000408   0.002442  -0.039289   0.306490   8.444536
    25  O   -0.114523   0.011323  -0.010429  -0.010867   0.264233  -0.067245
    26  P    0.028533  -0.000031  -0.000525   0.028906  -0.053005   0.057262
    27  O   -0.023026  -0.000011   0.000008   0.021925   0.033318  -0.011837
    28  O    0.000800   0.000002  -0.000003   0.001740  -0.006430   0.006459
    29  H    0.000343  -0.000000  -0.000000  -0.000058  -0.001678   0.000239
    30  O    0.006681   0.000083  -0.000036  -0.005315  -0.005969  -0.025450
    31  H    0.003698  -0.000360   0.000016   0.003529   0.030211   0.015276
    32  O    0.001123   0.000052  -0.000099  -0.004356   0.014205  -0.007148
    33  H    0.003618  -0.000225   0.000197  -0.000246  -0.002763   0.034934
    34  O   -0.031265   0.000762  -0.004024   0.011035  -0.000914   0.008856
    35  H    0.040721  -0.000941  -0.000150  -0.003609   0.007856  -0.001351
    36  H    0.008901  -0.000063  -0.000274   0.000604  -0.003273   0.000405
    37  O    0.024124  -0.000051  -0.001216   0.019577  -0.027625   0.002542
    38  H   -0.002194   0.000006   0.000048  -0.006900  -0.000376  -0.000243
    39  H    0.005246   0.000023   0.000394  -0.011316  -0.002387  -0.000995
              25         26         27         28         29         30
     1  C   -0.000159   0.004333  -0.014341  -0.002660   0.000360   0.002323
     2  H    0.000144  -0.000112   0.029029   0.000414  -0.000024   0.000063
     3  H    0.000007   0.000176  -0.000019  -0.000005  -0.000000  -0.000003
     4  H    0.000018  -0.000286  -0.002319   0.000011  -0.000000  -0.000022
     5  C   -0.001883  -0.000062   0.001163  -0.000028   0.000012  -0.000288
     6  H    0.000008   0.000009  -0.000007   0.000000  -0.000000  -0.000001
     7  H   -0.000012  -0.000074  -0.000019   0.000000  -0.000000  -0.000000
     8  H   -0.000006   0.000132  -0.000001   0.000000  -0.000000  -0.000000
     9  C    0.012349   0.004094  -0.036053   0.003399   0.000659  -0.000761
    10  H    0.000772  -0.000110   0.000293  -0.000055   0.000000   0.000132
    11  H   -0.000083  -0.000433   0.001014  -0.000048  -0.000001   0.000012
    12  H    0.000597   0.010884   0.005823  -0.001265   0.000014   0.002482
    13  C    0.039857  -0.061098   0.042378  -0.006098  -0.000713   0.011333
    14  H   -0.000414   0.000927  -0.001341   0.000019   0.000000  -0.000021
    15  H    0.022874   0.008905   0.005783   0.000763  -0.000000  -0.002673
    16  C   -0.035364   0.003320  -0.008942   0.000470  -0.000088  -0.010865
    17  H    0.000563   0.000028  -0.000069   0.000002   0.000000   0.000006
    18  H   -0.001072   0.000069   0.000034  -0.000000   0.000000   0.000005
    19  C   -0.114523   0.028533  -0.023026   0.000800   0.000343   0.006681
    20  H    0.011323  -0.000031  -0.000011   0.000002  -0.000000   0.000083
    21  H   -0.010429  -0.000525   0.000008  -0.000003  -0.000000  -0.000036
    22  N   -0.010867   0.028906   0.021925   0.001740  -0.000058  -0.005315
    23  C    0.264233  -0.053005   0.033318  -0.006430  -0.001678  -0.005969
    24  O   -0.067245   0.057262  -0.011837   0.006459   0.000239  -0.025450
    25  O    8.508432   0.027983  -0.005689   0.003715   0.000169   0.005769
    26  P    0.027983  12.515715   0.439138   0.183360   0.010255   0.251582
    27  O   -0.005689   0.439138   8.292027  -0.005161  -0.009757  -0.017530
    28  O    0.003715   0.183360  -0.005161   8.045482   0.232284  -0.004854
    29  H    0.000169   0.010255  -0.009757   0.232284   0.464082  -0.004611
    30  O    0.005769   0.251582  -0.017530  -0.004854  -0.004611   8.220758
    31  H    0.001025   0.020055  -0.000796   0.000636   0.000487   0.192518
    32  O   -0.018066   0.287915  -0.045730   0.020343  -0.005007  -0.003992
    33  H    0.011464   0.017574  -0.003959  -0.003809   0.000980  -0.007891
    34  O    0.014944   0.000668   0.003049   0.000418   0.000007   0.010191
    35  H   -0.020585  -0.001779  -0.001517  -0.000294   0.000011  -0.010946
    36  H   -0.001217  -0.000354   0.000023   0.000010   0.000002  -0.000204
    37  O    0.001965  -0.000504   0.000059  -0.000479   0.000049   0.004217
    38  H    0.001132   0.001876   0.034305   0.000718  -0.000019  -0.003708
    39  H   -0.006429   0.001096  -0.003108  -0.000011  -0.000010  -0.002337
              31         32         33         34         35         36
     1  C    0.001283  -0.007615   0.000804   0.011894  -0.000873  -0.000142
     2  H    0.000107  -0.002010   0.000227  -0.000199   0.000065  -0.000002
     3  H   -0.000002   0.000078   0.000001  -0.000020   0.000003   0.000000
     4  H   -0.000005  -0.000012  -0.000005   0.000017  -0.000012  -0.000002
     5  C    0.000205   0.000406   0.001624  -0.001765   0.000224   0.000049
     6  H    0.000001  -0.000005  -0.000014   0.000015  -0.000006   0.000000
     7  H    0.000000  -0.000003  -0.000002   0.000032  -0.000006   0.000000
     8  H    0.000000  -0.000006  -0.000007   0.000003  -0.000000   0.000000
     9  C   -0.001040   0.001999   0.006787   0.001502  -0.001924   0.000206
    10  H   -0.000007  -0.003545   0.003225   0.000052  -0.000012  -0.000000
    11  H    0.000005   0.000758  -0.000617   0.000008   0.000001  -0.000000
    12  H   -0.000338   0.002807   0.001690   0.000253   0.000005  -0.000007
    13  C   -0.021213   0.007871  -0.004097  -0.096894   0.011788  -0.007097
    14  H    0.000036   0.000002  -0.000080   0.003604  -0.000683   0.000243
    15  H    0.000019  -0.004716   0.001769   0.028719  -0.004379  -0.000136
    16  C    0.005078  -0.000423   0.007967   0.018037  -0.006145  -0.002114
    17  H   -0.000053  -0.000133   0.000443   0.000030  -0.000136   0.000008
    18  H    0.000000  -0.000014   0.000002   0.000361  -0.000140   0.000004
    19  C    0.003698   0.001123   0.003618  -0.031265   0.040721   0.008901
    20  H   -0.000360   0.000052  -0.000225   0.000762  -0.000941  -0.000063
    21  H    0.000016  -0.000099   0.000197  -0.004024  -0.000150  -0.000274
    22  N    0.003529  -0.004356  -0.000246   0.011035  -0.003609   0.000604
    23  C    0.030211   0.014205  -0.002763  -0.000914   0.007856  -0.003273
    24  O    0.015276  -0.007148   0.034934   0.008856  -0.001351   0.000405
    25  O    0.001025  -0.018066   0.011464   0.014944  -0.020585  -0.001217
    26  P    0.020055   0.287915   0.017574   0.000668  -0.001779  -0.000354
    27  O   -0.000796  -0.045730  -0.003959   0.003049  -0.001517   0.000023
    28  O    0.000636   0.020343  -0.003809   0.000418  -0.000294   0.000010
    29  H    0.000487  -0.005007   0.000980   0.000007   0.000011   0.000002
    30  O    0.192518  -0.003992  -0.007891   0.010191  -0.010946  -0.000204
    31  H    0.297640  -0.009348   0.003089  -0.016558   0.018875   0.000491
    32  O   -0.009348   8.206850   0.203638   0.000563  -0.000012   0.000039
    33  H    0.003089   0.203638   0.300045  -0.000872   0.000350  -0.000018
    34  O   -0.016558   0.000563  -0.000872   8.302241   0.179944   0.254595
    35  H    0.018875  -0.000012   0.000350   0.179944   0.413756  -0.001278
    36  H    0.000491   0.000039  -0.000018   0.254595  -0.001278   0.444755
    37  O    0.000482   0.001077  -0.000045   0.049082  -0.010709   0.001810
    38  H   -0.000365  -0.000003   0.000120  -0.003422  -0.000440  -0.001948
    39  H    0.001032  -0.000284   0.000107  -0.064180   0.015364  -0.002674
              37         38         39
     1  C    0.003726  -0.003119  -0.017089
     2  H   -0.012396   0.003772   0.001978
     3  H    0.002181  -0.000101   0.000096
     4  H   -0.017160   0.003514   0.001683
     5  C   -0.011038   0.000657   0.002877
     6  H    0.000068  -0.000007  -0.000010
     7  H   -0.000168   0.000005   0.000004
     8  H   -0.000018  -0.000003   0.000000
     9  C    0.002365   0.002631   0.000184
    10  H    0.000481  -0.000076  -0.000040
    11  H    0.000114  -0.000039  -0.000011
    12  H    0.001103  -0.000472  -0.000174
    13  C   -0.196982   0.035662   0.081959
    14  H    0.001866   0.000611   0.000268
    15  H    0.069191  -0.003384  -0.010817
    16  C   -0.041796   0.005483   0.007977
    17  H    0.000162  -0.000011  -0.000057
    18  H    0.000650  -0.000028  -0.000139
    19  C    0.024124  -0.002194   0.005246
    20  H   -0.000051   0.000006   0.000023
    21  H   -0.001216   0.000048   0.000394
    22  N    0.019577  -0.006900  -0.011316
    23  C   -0.027625  -0.000376  -0.002387
    24  O    0.002542  -0.000243  -0.000995
    25  O    0.001965   0.001132  -0.006429
    26  P   -0.000504   0.001876   0.001096
    27  O    0.000059   0.034305  -0.003108
    28  O   -0.000479   0.000718  -0.000011
    29  H    0.000049  -0.000019  -0.000010
    30  O    0.004217  -0.003708  -0.002337
    31  H    0.000482  -0.000365   0.001032
    32  O    0.001077  -0.000003  -0.000284
    33  H   -0.000045   0.000120   0.000107
    34  O    0.049082  -0.003422  -0.064180
    35  H   -0.010709  -0.000440   0.015364
    36  H    0.001810  -0.001948  -0.002674
    37  O    8.142910   0.290630   0.278261
    38  H    0.290630   0.369930  -0.012347
    39  H    0.278261  -0.012347   0.379635
 Mulliken charges:
               1
     1  C   -0.362334
     2  H    0.259060
     3  H    0.194119
     4  H    0.234430
     5  C   -0.348089
     6  H    0.210212
     7  H    0.217705
     8  H    0.204253
     9  C   -0.415220
    10  H    0.224793
    11  H    0.203783
    12  H    0.233834
    13  C   -0.154492
    14  H    0.225223
    15  H    0.126437
    16  C   -0.250896
    17  H    0.168119
    18  H    0.174679
    19  C   -0.432708
    20  H    0.188618
    21  H    0.204366
    22  N   -0.229075
    23  C    0.312158
    24  O   -0.604371
    25  O   -0.635298
    26  P    1.213580
    27  O   -0.718138
    28  O   -0.469844
    29  H    0.312015
    30  O   -0.600677
    31  H    0.454291
    32  O   -0.637199
    33  H    0.423991
    34  O   -0.680773
    35  H    0.378965
    36  H    0.308657
    37  O   -0.578506
    38  H    0.288106
    39  H    0.356229
 Sum of Mulliken charges =  -0.00000
 Mulliken charges with hydrogens summed into heavy atoms:
               1
     1  C    0.325274
     5  C    0.284081
     9  C    0.247190
    13  C    0.197168
    16  C    0.091902
    19  C   -0.039724
    22  N   -0.229075
    23  C    0.312158
    24  O   -0.604371
    25  O   -0.635298
    26  P    1.213580
    27  O   -0.718138
    28  O   -0.157830
    30  O   -0.146386
    32  O   -0.213207
    34  O    0.006849
    37  O    0.065828
         Mulliken charges condensed to fragments:
      1     -0.050696
      2     -0.021981
      3      0.006849
      4      0.065828
 Electronic spatial extent (au):  <R**2>=         348336.1160
 Charge=             -0.0000 electrons
 Dipole moment (field-independent basis, Debye):
    X=             -3.1729    Y=              6.1234    Z=              5.8972  Tot=              9.0741
 Quadrupole moment (field-independent basis, Debye-Ang):
   XX=           -197.3601   YY=            102.0535   ZZ=             50.1743
   XY=             24.1822   XZ=             32.7673   YZ=            200.5429
 Traceless Quadrupole moment (field-independent basis, Debye-Ang):
   XX=           -182.3160   YY=            117.0976   ZZ=             65.2184
   XY=             24.1822   XZ=             32.7673   YZ=            200.5429
 Octapole moment (field-independent basis, Debye-Ang**2):
  XXX=          -6190.3376  YYY=           -245.1635  ZZZ=           -905.5944  XYY=            310.1182
  XXY=          -2395.1481  XXZ=          -1628.3027  XZZ=             38.0912  YZZ=           2403.6194
  YYZ=           3784.2245  XYZ=           1840.3637
 Hexadecapole moment (field-independent basis, Debye-Ang**3):
 XXXX=        -151980.5460 YYYY=         -74862.2941 ZZZZ=         -48275.4659 XXXY=         -93789.6125
 XXXZ=         -68310.2383 YYYX=         -22348.4659 YYYZ=          46151.5068 ZZZX=         -20240.0812
 ZZZY=           7546.0827 XXYY=         -44278.3721 XXZZ=         -27260.7827 YYZZ=          49959.5418
 XXYZ=         -11792.3545 YYXZ=          35313.1138 ZZXY=          20564.0782
 N-N= 1.710466938327D+03 E-N=-6.432232804866D+03  KE= 1.273652249543D+03
 No NMR shielding tensors so no spin-rotation constants.
 Leave Link  601 at Thu May 19 19:22:36 2022, MaxMem=   671088640 cpu:               1.8 elap:               0.3
 (Enter /data0/hywu0/study/g16/l122.exe)
 CPIOFr:  IOpCl= 0 IRwI=-1 IRwCP=  731 ICalc= -1 LCPTot=      552446 Len1MO=     1448049 IndFrg=      552446
 CPIOFr:  IOpCl= 0 IRwI=-1 IRwCP=  731 ICalc=  0 LCPTot=      552446 Len1MO=     1448049 IndFrg=     2000495
 Counterpoise: doing calculation for fragment   1 using the basis set of the full-system, NewBq=T
 Leave Link  122 at Thu May 19 19:22:36 2022, MaxMem=   671088640 cpu:               0.2 elap:               0.0
 (Enter /data0/hywu0/study/g16/l301.exe)
 Basis read from rwf:  (5D, 7F)
 No pseudopotential information found on rwf file.
   599 basis functions,   904 primitive gaussians,   633 cartesian basis functions
    40 alpha electrons       40 beta electrons
       nuclear repulsion energy       590.6435284880 Hartrees.
 IExCor= 4336 DFT=T Ex+Corr=M062X ExCW=0 ScaHFX=  0.540000
 ScaDFX=  1.000000  1.000000  1.000000  1.000000 ScalE2=  1.000000  1.000000
 IRadAn=      5 IRanWt=     -1 IRanGd=            0 ICorTp=0 IEmpDi=131
 NAtoms=   39 NActive=   39 NUniq=   39 SFac= 1.00D+00 NAtFMM=   60 NAOKFM=F Big=F
 Integral buffers will be    131072 words long.
 Raffenetti 2 integral format.
 Two-electron integral symmetry is turned off.
 R6Disp:  Grimme-D3 Dispersion energy=       -0.0010165983 Hartrees.
 Nuclear repulsion after empirical dispersion term =      590.6425118898 Hartrees.
 No density basis found on file   718.
 Leave Link  301 at Thu May 19 19:22:37 2022, MaxMem=   671088640 cpu:               0.5 elap:               0.1
 (Enter /data0/hywu0/study/g16/l302.exe)
 NPDir=0 NMtPBC=     1 NCelOv=     1 NCel=       1 NClECP=     1 NCelD=      1
         NCelK=      1 NCelE2=     1 NClLst=     1 CellRange=     0.0.
 One-electron integrals computed using PRISM.
 NBasis=   599 RedAO= T EigKep=  5.14D-06  NBF=   599
 NBsUse=   599 1.00D-06 EigRej= -1.00D+00 NBFU=   599
 Precomputing XC quadrature grid using
 IXCGrd= 4 IRadAn=           5 IRanWt=          -1 IRanGd=           0 AccXCQ= 0.00D+00.
 Generated NRdTot=       0 NPtTot=           0 NUsed=           0 NTot=          32
 NSgBfM=   632   632   632   632   632 MxSgAt=    39 MxSgA2=    39.
 Leave Link  302 at Thu May 19 19:22:38 2022, MaxMem=   671088640 cpu:               8.0 elap:               1.0
 (Enter /data0/hywu0/study/g16/l303.exe)
 DipDrv:  MaxL=1.
 Leave Link  303 at Thu May 19 19:22:38 2022, MaxMem=   671088640 cpu:               0.6 elap:               0.1
 (Enter /data0/hywu0/study/g16/l401.exe)
 ExpMin= 3.48D-02 ExpMax= 7.75D+04 ExpMxC= 2.65D+03 IAcc=3 IRadAn=         5 AccDes= 0.00D+00
 Harris functional with IExCor= 1009 and IRadAn=       5 diagonalized for initial guess.
 HarFok:  IExCor= 1009 AccDes= 0.00D+00 IRadAn=         5 IDoV= 1 UseB2=F ITyADJ=14
 ICtDFT=  3500011 ScaDFX=  1.000000  1.000000  1.000000  1.000000
 FoFCou: FMM=F IPFlag=           0 FMFlag=      100000 FMFlg1=           0
         NFxFlg=           0 DoJE=T BraDBF=F KetDBF=T FulRan=T
         wScrn=  0.000000 ICntrl=       500 IOpCl=  0 I1Cent=   200000004 NGrid=           0
         NMat0=    1 NMatS0=      1 NMatT0=    0 NMatD0=    1 NMtDS0=    0 NMtDT0=    0
 Symmetry not used in FoFCou.
 Harris En= -480.726408843911    
 JPrj=0 DoOrth=F DoCkMO=F.
 Leave Link  401 at Thu May 19 19:22:47 2022, MaxMem=   671088640 cpu:              72.0 elap:               9.0
 (Enter /data0/hywu0/study/g16/l502.exe)
 Two-electron integral symmetry not used.
 Closed shell SCF:
 Using DIIS extrapolation, IDIIS=  1040.
 NGot=   671088640 LenX=   670277652 LenY=   669876330
 Requested convergence on RMS density matrix=1.00D-08 within 128 cycles.
 Requested convergence on MAX density matrix=1.00D-06.
 Requested convergence on             energy=1.00D-06.
 No special actions if energy rises.
 Fock matrices will be formed incrementally for  20 cycles.

 Cycle   1  Pass 1  IDiag  1:
 FoFJK:  IHMeth= 1 ICntrl=       0 DoSepK=F KAlg= 0 I1Cent=           0 FoldK=F
 IRaf= 860000000 NMat=       1 IRICut=       1 DoRegI=T DoRafI=F ISym2E= 0 IDoP0=0 IntGTp=1.
 FoFCou: FMM=F IPFlag=           0 FMFlag=      100000 FMFlg1=           0
         NFxFlg=           0 DoJE=F BraDBF=F KetDBF=F FulRan=T
         wScrn=  0.000000 ICntrl=         0 IOpCl=  0 I1Cent=           0 NGrid=           0
         NMat0=    1 NMatS0=      1 NMatT0=    0 NMatD0=    1 NMtDS0=    0 NMtDT0=    0
 Symmetry not used in FoFCou.
 E= -480.476504604075    
 DIIS: error= 1.47D-02 at cycle   1 NSaved=   1.
 NSaved= 1 IEnMin= 1 EnMin= -480.476504604075     IErMin= 1 ErrMin= 1.47D-02
 ErrMax= 1.47D-02  0.00D+00 EMaxC= 1.00D-01 BMatC= 4.96D-01 BMatP= 4.96D-01
 IDIUse=3 WtCom= 8.53D-01 WtEn= 1.47D-01
 Coeff-Com:  0.100D+01
 Coeff-En:   0.100D+01
 Coeff:      0.100D+01
 Gap=     0.310 Goal=   None    Shift=    0.000
 GapD=    0.310 DampG=1.000 DampE=0.500 DampFc=0.5000 IDamp=-1.
 Damping current iteration by 5.00D-01
 RMSDP=8.81D-02 MaxDP=9.82D+00              OVMax= 9.24D-01

 Cycle   2  Pass 1  IDiag  1:
 RMSU=  4.39D-02    CP:  1.48D+00
 E= -480.355465586147     Delta-E=        0.121039017928 Rises=F Damp=T
 DIIS: error= 6.52D-03 at cycle   2 NSaved=   2.
 NSaved= 2 IEnMin= 1 EnMin= -480.476504604075     IErMin= 2 ErrMin= 6.52D-03
 ErrMax= 6.52D-03  0.00D+00 EMaxC= 1.00D-01 BMatC= 1.14D-01 BMatP= 4.96D-01
 IDIUse=3 WtCom= 9.35D-01 WtEn= 6.52D-02
 Coeff-Com:  0.226D+00 0.774D+00
 Coeff-En:   0.626D+00 0.374D+00
 Coeff:      0.252D+00 0.748D+00
 Gap=    -0.233 Goal=   None    Shift=    0.000
 RMSDP=4.41D-02 MaxDP=5.33D+00 DE= 1.21D-01 OVMax= 7.42D-01

 Cycle   3  Pass 1  IDiag  1:
 RMSU=  2.53D-03    CP:  8.21D-01  2.64D-03
 E= -480.717614776600     Delta-E=       -0.362149190453 Rises=F Damp=F
 DIIS: error= 8.48D-03 at cycle   3 NSaved=   3.
 NSaved= 3 IEnMin= 3 EnMin= -480.717614776600     IErMin= 2 ErrMin= 6.52D-03
 ErrMax= 8.48D-03  0.00D+00 EMaxC= 1.00D-01 BMatC= 1.55D-01 BMatP= 1.14D-01
 IDIUse=3 WtCom= 9.80D-02 WtEn= 9.02D-01
 Coeff-Com:  0.300D-01 0.536D+00 0.434D+00
 Coeff-En:   0.000D+00 0.393D-01 0.961D+00
 Coeff:      0.294D-02 0.880D-01 0.909D+00
[...]
    30  O    0.000000
    32  O    0.000000
    34  O    0.000000
    37  O    0.000000
         Mulliken charges condensed to fragments:
      1      0.000000
      2      0.000000
      3      0.000000
      4      0.000000
 Electronic spatial extent (au):  <R**2>=          17832.2227
 Charge=              0.0000 electrons
 Dipole moment (field-independent basis, Debye):
    X=              0.7263    Y=             -0.2782    Z=             -1.9734  Tot=              2.1212
 Quadrupole moment (field-independent basis, Debye-Ang):
   XX=              8.6952   YY=            -12.8433   ZZ=            -54.5540
   XY=              8.3150   XZ=            -13.6460   YZ=            -33.2008
 Traceless Quadrupole moment (field-independent basis, Debye-Ang):
   XX=             28.2625   YY=              6.7241   ZZ=            -34.9866
   XY=              8.3150   XZ=            -13.6460   YZ=            -33.2008
 Octapole moment (field-independent basis, Debye-Ang**2):
  XXX=             20.5678  YYY=           -391.0492  ZZZ=          -1116.2653  XYY=             36.3736
  XXY=            107.3299  XXZ=           -150.6980  XZZ=           -512.1255  YZZ=           -864.7672
  YYZ=           -608.0125  XYZ=           -238.6756
 Hexadecapole moment (field-independent basis, Debye-Ang**3):
 XXXX=          -1548.6254 YYYY=          -9886.7293 ZZZZ=         -20096.1474 XXXY=            112.5768
 XXXZ=          -2679.2121 YYYX=          -1534.1319 YYYZ=         -11621.0975 ZZZX=         -11340.1291
 ZZZY=         -17342.3828 XXYY=            712.9436 XXZZ=          -5762.1931 YYZZ=         -14367.6187
 XXYZ=          -2572.6869 YYXZ=          -4708.5446 ZZXY=          -8127.3694
 N-N= 9.064376857128D+00 E-N=-1.989739854843D+02  KE= 7.618156400911D+01
 No NMR shielding tensors so no spin-rotation constants.
 Leave Link  601 at Thu May 19 19:55:29 2022, MaxMem=   671088640 cpu:               0.5 elap:               0.1
 (Enter /data0/hywu0/study/g16/l122.exe)
 CPIOFr:  IOpCl= 0 IRwI=-1 IRwCP=  731 ICalc=  7 LCPTot=      552446 Len1MO=     1448049 IndFrg=    12136838
 Counterpoise: doing calculation for fragment   4 using the basis set of the fragment.
 Leave Link  122 at Thu May 19 19:55:29 2022, MaxMem=   671088640 cpu:               0.1 elap:               0.0
 (Enter /data0/hywu0/study/g16/l301.exe)
 Basis read from rwf:  (5D, 7F)
 No pseudopotential information found on rwf file.
    39 basis functions,    58 primitive gaussians,    41 cartesian basis functions
     5 alpha electrons        5 beta electrons
       nuclear repulsion energy         9.0954348208 Hartrees.
 IExCor= 4336 DFT=T Ex+Corr=M062X ExCW=0 ScaHFX=  0.540000
 ScaDFX=  1.000000  1.000000  1.000000  1.000000 ScalE2=  1.000000  1.000000
 IRadAn=      5 IRanWt=     -1 IRanGd=            0 ICorTp=0 IEmpDi=131
 NAtoms=   39 NActive=    3 NUniq=    3 SFac= 1.00D+00 NAtFMM=   60 NAOKFM=F Big=F
 Integral buffers will be    131072 words long.
 Raffenetti 2 integral format.
 Two-electron integral symmetry is turned off.
 R6Disp:  Grimme-D3 Dispersion energy=       -0.0000000074 Hartrees.
 Nuclear repulsion after empirical dispersion term =        9.0954348134 Hartrees.
 No density basis found on file   718.
 Leave Link  301 at Thu May 19 19:55:29 2022, MaxMem=   671088640 cpu:               0.5 elap:               0.1
 (Enter /data0/hywu0/study/g16/l302.exe)
 NPDir=0 NMtPBC=     1 NCelOv=     1 NCel=       1 NClECP=     1 NCelD=      1
         NCelK=      1 NCelE2=     1 NClLst=     1 CellRange=     0.0.
 One-electron integrals computed using PRISM.
 NBasis=    39 RedAO= T EigKep=  3.01D-03  NBF=    39
 NBsUse=    39 1.00D-06 EigRej= -1.00D+00 NBFU=    39
 Precomputing XC quadrature grid using
 IXCGrd= 4 IRadAn=           5 IRanWt=          -1 IRanGd=           0 AccXCQ= 0.00D+00.
 Generated NRdTot=       0 NPtTot=           0 NUsed=           0 NTot=          32
 NSgBfM=    41    41    41    41    41 MxSgAt=     3 MxSgA2=     3.
 Leave Link  302 at Thu May 19 19:55:29 2022, MaxMem=   671088640 cpu:               0.7 elap:               0.1
 (Enter /data0/hywu0/study/g16/l303.exe)
 DipDrv:  MaxL=1.
 Leave Link  303 at Thu May 19 19:55:29 2022, MaxMem=   671088640 cpu:               0.2 elap:               0.0
 (Enter /data0/hywu0/study/g16/l401.exe)
 ExpMin= 8.45D-02 ExpMax= 8.59D+03 ExpMxC= 1.30D+03 IAcc=3 IRadAn=         5 AccDes= 0.00D+00
 Harris functional with IExCor= 1009 and IRadAn=       5 diagonalized for initial guess.
 HarFok:  IExCor= 1009 AccDes= 0.00D+00 IRadAn=         5 IDoV= 1 UseB2=F ITyADJ=14
 ICtDFT=  3500011 ScaDFX=  1.000000  1.000000  1.000000  1.000000
 FoFCou: FMM=F IPFlag=           0 FMFlag=      100000 FMFlg1=           0
         NFxFlg=           0 DoJE=T BraDBF=F KetDBF=T FulRan=T
         wScrn=  0.000000 ICntrl=       500 IOpCl=  0 I1Cent=   200000004 NGrid=           0
         NMat0=    1 NMatS0=      1 NMatT0=    0 NMatD0=    1 NMtDS0=    0 NMtDT0=    0
 Symmetry not used in FoFCou.
 Harris En= -76.4163866401667    
 JPrj=0 DoOrth=F DoCkMO=F.
 Leave Link  401 at Thu May 19 19:55:29 2022, MaxMem=   671088640 cpu:               1.0 elap:               0.1
 (Enter /data0/hywu0/study/g16/l502.exe)
 Keep R1 ints in memory in canonical form, NReq=7220940.
 FoFCou: FMM=F IPFlag=           0 FMFlag=           0 FMFlg1=           0
         NFxFlg=           0 DoJE=F BraDBF=F KetDBF=F FulRan=T
         wScrn=  0.000000 ICntrl=       600 IOpCl=  0 I1Cent=           0 NGrid=           0
         NMat0=    1 NMatS0=    780 NMatT0=    0 NMatD0=    1 NMtDS0=    0 NMtDT0=    0
 Symmetry not used in FoFCou.
 Two-electron integral symmetry not used.
 Closed shell SCF:
 Using DIIS extrapolation, IDIIS=  1040.
 NGot=   671088640 LenX=   670778774 LenY=   670776652
 Requested convergence on RMS density matrix=1.00D-08 within 128 cycles.
 Requested convergence on MAX density matrix=1.00D-06.
 Requested convergence on             energy=1.00D-06.
 No special actions if energy rises.
 Integral accuracy reduced to 1.0D-05 until final iterations.

 Cycle   1  Pass 0  IDiag  1:
 E= -76.3466153841242    
 DIIS: error= 6.99D-02 at cycle   1 NSaved=   1.
 NSaved= 1 IEnMin= 1 EnMin= -76.3466153841242     IErMin= 1 ErrMin= 6.99D-02
 ErrMax= 6.99D-02  0.00D+00 EMaxC= 1.00D-01 BMatC= 1.20D-01 BMatP= 1.20D-01
 IDIUse=3 WtCom= 3.01D-01 WtEn= 6.99D-01
 Coeff-Com:  0.100D+01
 Coeff-En:   0.100D+01
 Coeff:      0.100D+01
 Gap=     0.325 Goal=   None    Shift=    0.000
 GapD=    0.325 DampG=1.000 DampE=0.500 DampFc=0.5000 IDamp=-1.
 Damping current iteration by 5.00D-01
 RMSDP=7.96D-03 MaxDP=1.01D-01              OVMax= 1.68D-01

 Cycle   2  Pass 0  IDiag  1:
 E= -76.3779105717378     Delta-E=       -0.031295187614 Rises=F Damp=T
 DIIS: error= 1.14D-02 at cycle   2 NSaved=   2.
 NSaved= 2 IEnMin= 2 EnMin= -76.3779105717378     IErMin= 2 ErrMin= 1.14D-02
 ErrMax= 1.14D-02  0.00D+00 EMaxC= 1.00D-01 BMatC= 4.84D-03 BMatP= 1.20D-01
 IDIUse=3 WtCom= 8.86D-01 WtEn= 1.14D-01
 Coeff-Com:  0.829D-01 0.917D+00
 Coeff-En:   0.188D+00 0.812D+00
 Coeff:      0.949D-01 0.905D+00
 Gap=     0.457 Goal=   None    Shift=    0.000
 RMSDP=9.47D-04 MaxDP=1.41D-02 DE=-3.13D-02 OVMax= 1.00D-01

 Cycle   3  Pass 0  IDiag  1:
 E= -76.4217198270435     Delta-E=       -0.043809255306 Rises=F Damp=F
 DIIS: error= 2.16D-03 at cycle   3 NSaved=   3.
 NSaved= 3 IEnMin= 3 EnMin= -76.4217198270435     IErMin= 3 ErrMin= 2.16D-03
 ErrMax= 2.16D-03  0.00D+00 EMaxC= 1.00D-01 BMatC= 9.04D-05 BMatP= 4.84D-03
 IDIUse=3 WtCom= 9.78D-01 WtEn= 2.16D-02
 Coeff-Com: -0.199D-01 0.393D-01 0.981D+00
 Coeff-En:   0.000D+00 0.000D+00 0.100D+01
 Coeff:     -0.195D-01 0.384D-01 0.981D+00
 Gap=     0.462 Goal=   None    Shift=    0.000
 RMSDP=1.14D-04 MaxDP=1.04D-03 DE=-4.38D-02 OVMax= 3.31D-03

 Cycle   4  Pass 0  IDiag  1:
 E= -76.4217969858776     Delta-E=       -0.000077158834 Rises=F Damp=F
 DIIS: error= 4.13D-04 at cycle   4 NSaved=   4.
 NSaved= 4 IEnMin= 4 EnMin= -76.4217969858776     IErMin= 4 ErrMin= 4.13D-04
 ErrMax= 4.13D-04  0.00D+00 EMaxC= 1.00D-01 BMatC= 3.27D-06 BMatP= 9.04D-05
 IDIUse=3 WtCom= 9.96D-01 WtEn= 4.13D-03
 Coeff-Com: -0.188D-02-0.226D-02 0.162D+00 0.842D+00
 Coeff-En:   0.000D+00 0.000D+00 0.000D+00 0.100D+01
 Coeff:     -0.187D-02-0.225D-02 0.161D+00 0.843D+00
 Gap=     0.462 Goal=   None    Shift=    0.000
 RMSDP=2.21D-05 MaxDP=3.54D-04 DE=-7.72D-05 OVMax= 5.36D-04

 Cycle   5  Pass 0  IDiag  1:
 E= -76.4217990062610     Delta-E=       -0.000002020383 Rises=F Damp=F
 DIIS: error= 8.86D-05 at cycle   5 NSaved=   5.
 NSaved= 5 IEnMin= 5 EnMin= -76.4217990062610     IErMin= 5 ErrMin= 8.86D-05
 ErrMax= 8.86D-05  0.00D+00 EMaxC= 1.00D-01 BMatC= 8.21D-08 BMatP= 3.27D-06
 IDIUse=1 WtCom= 1.00D+00 WtEn= 0.00D+00
 Coeff-Com:  0.118D-02-0.179D-02-0.367D-01-0.640D-01 0.110D+01
 Coeff:      0.118D-02-0.179D-02-0.367D-01-0.640D-01 0.110D+01
 Gap=     0.462 Goal=   None    Shift=    0.000
 RMSDP=8.96D-06 MaxDP=1.02D-04 DE=-2.02D-06 OVMax= 2.02D-04

 Initial convergence to 1.0D-05 achieved.  Increase integral accuracy.
 Cycle   6  Pass 1  IDiag  1:
 E= -76.4218024807349     Delta-E=       -0.000003474474 Rises=F Damp=F
 DIIS: error= 1.22D-05 at cycle   1 NSaved=   1.
 NSaved= 1 IEnMin= 1 EnMin= -76.4218024807349     IErMin= 1 ErrMin= 1.22D-05
 ErrMax= 1.22D-05  0.00D+00 EMaxC= 1.00D-01 BMatC= 8.61D-09 BMatP= 8.61D-09
 IDIUse=1 WtCom= 1.00D+00 WtEn= 0.00D+00
 Coeff-Com:  0.100D+01
 Coeff:      0.100D+01
 Gap=     0.462 Goal=   None    Shift=    0.000
 RMSDP=8.96D-06 MaxDP=1.02D-04 DE=-3.47D-06 OVMax= 3.42D-05

 Cycle   7  Pass 1  IDiag  1:
 E= -76.4218024878702     Delta-E=       -0.000000007135 Rises=F Damp=F
 DIIS: error= 7.94D-06 at cycle   2 NSaved=   2.
 NSaved= 2 IEnMin= 2 EnMin= -76.4218024878702     IErMin= 2 ErrMin= 7.94D-06
 ErrMax= 7.94D-06  0.00D+00 EMaxC= 1.00D-01 BMatC= 7.68D-10 BMatP= 8.61D-09
 IDIUse=1 WtCom= 1.00D+00 WtEn= 0.00D+00
 Coeff-Com:  0.665D-01 0.933D+00
 Coeff:      0.665D-01 0.933D+00
 Gap=     0.462 Goal=   None    Shift=    0.000
 RMSDP=5.89D-07 MaxDP=9.48D-06 DE=-7.14D-09 OVMax= 1.67D-05

 Cycle   8  Pass 1  IDiag  1:
 E= -76.4218024880670     Delta-E=       -0.000000000197 Rises=F Damp=F
 DIIS: error= 4.97D-06 at cycle   3 NSaved=   3.
 NSaved= 3 IEnMin= 3 EnMin= -76.4218024880670     IErMin= 3 ErrMin= 4.97D-06
 ErrMax= 4.97D-06  0.00D+00 EMaxC= 1.00D-01 BMatC= 6.88D-10 BMatP= 7.68D-10
 IDIUse=1 WtCom= 1.00D+00 WtEn= 0.00D+00
 Coeff-Com: -0.544D-01 0.500D+00 0.554D+00
 Coeff:     -0.544D-01 0.500D+00 0.554D+00
 Gap=     0.462 Goal=   None    Shift=    0.000
 RMSDP=3.07D-07 MaxDP=3.97D-06 DE=-1.97D-10 OVMax= 7.23D-06

 Cycle   9  Pass 1  IDiag  1:
 E= -76.4218024885235     Delta-E=       -0.000000000456 Rises=F Damp=F
 DIIS: error= 5.85D-07 at cycle   4 NSaved=   4.
 NSaved= 4 IEnMin= 4 EnMin= -76.4218024885235     IErMin= 4 ErrMin= 5.85D-07
 ErrMax= 5.85D-07  0.00D+00 EMaxC= 1.00D-01 BMatC= 3.11D-12 BMatP= 6.88D-10
 IDIUse=1 WtCom= 1.00D+00 WtEn= 0.00D+00
 Coeff-Com:  0.106D-02-0.574D-01-0.146D-01 0.107D+01
 Coeff:      0.106D-02-0.574D-01-0.146D-01 0.107D+01
 Gap=     0.462 Goal=   None    Shift=    0.000
 RMSDP=5.68D-08 MaxDP=4.74D-07 DE=-4.56D-10 OVMax= 1.36D-06

 Cycle  10  Pass 1  IDiag  1:
 E= -76.4218024885287     Delta-E=       -0.000000000005 Rises=F Damp=F
 DIIS: error= 7.80D-08 at cycle   5 NSaved=   5.
 NSaved= 5 IEnMin= 5 EnMin= -76.4218024885287     IErMin= 5 ErrMin= 7.80D-08
 ErrMax= 7.80D-08  0.00D+00 EMaxC= 1.00D-01 BMatC= 1.89D-13 BMatP= 3.11D-12
 IDIUse=1 WtCom= 1.00D+00 WtEn= 0.00D+00
 Coeff-Com:  0.276D-02-0.369D-01-0.331D-01 0.181D+00 0.886D+00
 Coeff:      0.276D-02-0.369D-01-0.331D-01 0.181D+00 0.886D+00
 Gap=     0.462 Goal=   None    Shift=    0.000
 RMSDP=1.32D-08 MaxDP=1.18D-07 DE=-5.26D-12 OVMax= 3.14D-07

 Cycle  11  Pass 1  IDiag  1:
 E= -76.4218024885291     Delta-E=       -0.000000000000 Rises=F Damp=F
 DIIS: error= 8.55D-09 at cycle   6 NSaved=   6.
 NSaved= 6 IEnMin= 6 EnMin= -76.4218024885291     IErMin= 6 ErrMin= 8.55D-09
 ErrMax= 8.55D-09  0.00D+00 EMaxC= 1.00D-01 BMatC= 2.83D-15 BMatP= 1.89D-13
 IDIUse=1 WtCom= 1.00D+00 WtEn= 0.00D+00
 Coeff-Com:  0.127D-03 0.333D-03-0.146D-02-0.291D-01 0.201D-02 0.103D+01
 Coeff:      0.127D-03 0.333D-03-0.146D-02-0.291D-01 0.201D-02 0.103D+01
 Gap=     0.462 Goal=   None    Shift=    0.000
 RMSDP=2.22D-09 MaxDP=2.15D-08 DE=-3.41D-13 OVMax= 5.65D-08

 SCF Done:  E(RM062X) =  -76.4218024885     A.U. after   11 cycles
            NFock= 11  Conv=0.22D-08     -V/T= 2.0030
 KE= 7.619336827959D+01 PE=-1.990394779795D+02 EE= 3.732887239795D+01
 Leave Link  502 at Thu May 19 19:55:30 2022, MaxMem=   671088640 cpu:               5.0 elap:               0.6
 (Enter /data0/hywu0/study/g16/l601.exe)
 Copying SCF densities to generalized density rwf, IOpCl= 0 IROHF=0.

 **********************************************************************

            Population analysis using the SCF density.

 **********************************************************************

 Alpha  occ. eigenvalues --  -19.62660  -1.13366  -0.60528  -0.47679  -0.39999
 Alpha virt. eigenvalues --    0.06233   0.13313   0.17415   0.17943   0.18906
 Alpha virt. eigenvalues --    0.23382   0.51029   0.53359   0.98087   1.00233
 Alpha virt. eigenvalues --    1.06013   1.17698   1.20116   1.32020   1.33969
 Alpha virt. eigenvalues --    1.70371   1.74306   1.75349   2.07593   2.09420
 Alpha virt. eigenvalues --    2.36282   2.39901   2.54816   2.87973   3.01211
 Alpha virt. eigenvalues --    5.05635   5.48723   5.91152   6.78453   6.80075
 Alpha virt. eigenvalues --    6.87314   6.91593   7.09493  49.95594
          Condensed to atoms (all electrons):
              37         38         39
    37  O    7.917472   0.318989   0.317224
    38  H    0.318989   0.428884  -0.023929
    39  H    0.317224  -0.023929   0.429074
 Mulliken charges:
               1
     1  C    0.000000
     2  H    0.000000
     3  H    0.000000
     4  H    0.000000
     5  C    0.000000
     6  H    0.000000
     7  H    0.000000
     8  H    0.000000
     9  C    0.000000
    10  H    0.000000
    11  H    0.000000
    12  H    0.000000
    13  C    0.000000
    14  H    0.000000
    15  H    0.000000
    16  C    0.000000
    17  H    0.000000
    18  H    0.000000
    19  C    0.000000
    20  H    0.000000
    21  H    0.000000
    22  N    0.000000
    23  C    0.000000
    24  O    0.000000
    25  O    0.000000
    26  P    0.000000
    27  O    0.000000
    28  O    0.000000
    29  H    0.000000
    30  O    0.000000
    31  H    0.000000
    32  O    0.000000
    33  H    0.000000
    34  O    0.000000
    35  H    0.000000
    36  H    0.000000
    37  O   -0.553686
    38  H    0.276055
    39  H    0.277630
 Sum of Mulliken charges =   0.00000
 Mulliken charges with hydrogens summed into heavy atoms:
               1
     1  C    0.000000
     5  C    0.000000
     9  C    0.000000
    13  C    0.000000
    16  C    0.000000
    19  C    0.000000
    22  N    0.000000
    23  C    0.000000
    24  O    0.000000
    25  O    0.000000
    26  P    0.000000
    27  O    0.000000
    28  O    0.000000
    30  O    0.000000
    32  O    0.000000
    34  O    0.000000
    37  O    0.000000
         Mulliken charges condensed to fragments:
      1      0.000000
      2      0.000000
      3      0.000000
      4      0.000000
 Electronic spatial extent (au):  <R**2>=          21499.0239
 Charge=              0.0000 electrons
 Dipole moment (field-independent basis, Debye):
    X=              0.3351    Y=             -0.1634    Z=             -2.0999  Tot=              2.1328
 Quadrupole moment (field-independent basis, Debye-Ang):
   XX=              4.0379   YY=            -12.6142   ZZ=            -66.7549
   XY=              3.4369   XZ=            -21.7639   YZ=            -33.9867
 Traceless Quadrupole moment (field-independent basis, Debye-Ang):
   XX=             29.1483   YY=             12.4962   ZZ=            -41.6445
   XY=              3.4369   XZ=            -21.7639   YZ=            -33.9867
 Octapole moment (field-independent basis, Debye-Ang**2):
  XXX=             -8.9154  YYY=           -460.9016  ZZZ=          -1578.8634  XYY=            -70.7696
  XXY=             45.8799  XXZ=           -279.7866  XZZ=           -776.7844  YZZ=          -1040.1285
  YYZ=           -658.5363  XYZ=           -351.1931
 Hexadecapole moment (field-independent basis, Debye-Ang**3):
 XXXX=          -1620.9276 YYYY=         -12838.8844 ZZZZ=         -32977.7530 XXXY=           -258.5165
 XXXZ=          -4439.3986 YYYX=          -4418.8118 YYYZ=         -13831.6365 ZZZX=         -19034.8185
 ZZZY=         -24299.7939 XXYY=           -791.9760 XXZZ=          -9929.2628 YYZZ=         -17796.2897
 XXYZ=          -4433.3287 YYXZ=          -7061.4874 ZZXY=         -12047.5836
 N-N= 9.095434813409D+00 E-N=-1.990394778994D+02  KE= 7.619336827959D+01
 No NMR shielding tensors so no spin-rotation constants.
 Leave Link  601 at Thu May 19 19:55:30 2022, MaxMem=   671088640 cpu:               0.5 elap:               0.1
 (Enter /data0/hywu0/study/g16/l122.exe)
 CPIOFr:  IOpCl= 0 IRwI=-1 IRwCP=  731 ICalc=  8 LCPTot=      552446 Len1MO=     1448049 IndFrg=    13584887
 Restoring MOs from calculation   1 to rwf.
 CPIOFr:  IOpCl= 0 IRwI=-2 IRwCP=  731 ICalc=  0 LCPTot=      552446 Len1MO=     1448049 IndFrg=     2000495
 Counterpoise corrected energy =   -1277.974976645843
                   BSSE energy =       0.006193297390
              sum of fragments =   -1277.829040615302
           complexation energy =     -95.46 kcal/mole (raw)
           complexation energy =     -91.58 kcal/mole (corrected)
 Leave Link  122 at Thu May 19 19:55:30 2022, MaxMem=   671088640 cpu:               0.2 elap:               0.0
 (Enter /data0/hywu0/study/g16/l9999.exe)
 1\1\GINC-LOCALHOST\SP\RM062X\6-311+G(2d,p)\C7H22N1O8P1\HYWU0\19-May-20
 22\0\\#p M062X/6-311+G(2d,p) nosymm em=GD3 counterpoise=4\\Title Card 
 Required\\0,1\C,0,13.773813,17.676761,15.610132\H,0,14.382808,17.09219
 5,14.879084\H,0,14.471295,18.164067,16.30377\H,0,13.165413,16.933917,1
 6.158878\C,0,12.207495,19.52625,15.916474\H,0,11.597552,20.309032,15.4
 32836\H,0,11.534113,18.912148,16.539732\H,0,12.926749,20.027787,16.584
 572\C,0,13.787202,19.542581,14.03921\H,0,13.200401,20.202813,13.371028
 \H,0,14.478284,20.145376,14.640438\H,0,14.394422,18.919095,13.340611\C
 ,0,11.887037,17.93221,14.051933\H,0,11.335949,17.211951,14.698322\H,0,
 12.460763,17.285571,13.331855\C,0,10.913926,18.858243,13.308978\H,0,11
 .327213,19.882605,13.195219\H,0,9.969373,18.963453,13.873336\C,0,10.62
 6577,18.313223,11.908798\H,0,10.02643,19.025335,11.31623\H,0,10.03878,
 17.375646,11.952763\N,0,12.909387,18.678706,14.895252\C,0,11.958398,18
 .073388,11.183128\O,0,12.823703,18.959399,11.261503\O,0,12.092247,16.9
 56318,10.632175\P,0,15.392076,16.59722,11.507399\O,0,15.040612,16.3293
 47,12.909729\O,0,16.885688,16.124621,11.223357\H,0,17.084472,16.335453
 ,10.22996\O,0,14.536186,15.861675,10.402337\H,0,13.553777,16.301097,10
 .401048\O,0,15.406716,18.140836,11.133256\H,0,14.400545,18.48719,11.05
 9168\O,0,11.100997,15.038299,12.28057\H,0,11.4385,15.716736,11.643264\
 H,0,11.17454,14.215646,11.805682\O,0,12.773726,15.158833,14.51086\H,0,
 13.608127,15.221788,14.034773\H,0,12.124724,15.003221,13.802359\\Versi
 on=ES64L-G16RevA.03\HF=-76.4218025\RMSD=2.220e-09\Dipole=-1.2571998,2.
 4132989,2.2304671\Quadrupole=-134.5468252,88.9937147,45.5531106,17.721
 307,22.2137147,146.6826484\PG=C01 [X(C7H22N1O8P1)]\\@


    UPON JULIA'S CLOTHES

 WHENAS IN SILKS MY JULIA GOES,
 THEN, THEN, METHINKS, HOW SWEETLY FLOWS
 THAT LIQUEFACTION OF HER CLOTHES.

 NEXT, WHEN I CAST MINE EYES, AND SEE
 THAT BRAVE VIBRATION, EACH WAY FREE,
 O, HOW THAT GLITTERING TAKETH ME!
     -- ROBERT HERRICK, 1648
 Job cpu time:       0 days  5 hours 38 minutes 32.2 seconds.
 Elapsed time:       0 days  0 hours 42 minutes 30.1 seconds.
 File lengths (MBytes):  RWF=    325 Int=      0 D2E=      0 Chk=    124 Scr=      1
 Normal termination of Gaussian 16 at Thu May 19 19:55:30 2022.
