          37
 G =       -0.534270 Gcorr = 0.219214 a.u. Nimag =   0 Frame:     1 Step:     1 Geom:     1
C          10.33233600      8.28288700     10.33921200
H          10.23275700      7.37871600      9.72294900
H          10.57190200      8.00909300     11.37672600
H          11.23115400      8.82946200      9.94435800
C           9.13793500      9.84782700      8.90521000
H           9.19868000      9.08559100      8.09811200
H          10.12537700     10.39876600      8.87244600
C           9.09479200     10.15816800     11.37175900
H           8.08548500     10.34549200     11.75628400
H           9.75193500      9.85598600     12.20627700
H           9.50129700     11.14575300     11.02659500
C           7.89035300      8.27455500     10.36266200
H           7.88332700      7.72474800     11.31881600
H           6.96351100      8.87089100     10.30305000
H           7.86021600      7.53545400      9.54344800
C           7.98441600     10.82422500      8.65867000
H           7.73103400     11.39336600      9.58092500
H           7.06429600     10.27930900      8.37441300
C           8.35962000     11.80591200      7.55107500
H           7.50251500     12.45783400      7.30790000
H           8.60642000     11.27750600      6.61451300
N           9.10387700      9.15129400     10.25379600
S           9.77649200     12.87025700      7.99605100
O           9.67801900     13.01109200      9.47926200
O          10.95799900     11.99115600      7.67242400
O           9.64102200     14.07883000      7.20651500
P          12.65206000     11.70303100     10.75851600
O          11.93689000     10.45970700     11.07677400
O          13.18115600     11.82740600      9.27045800
H          12.34973700     11.91877700      8.61064900
O          11.87892100     13.03839100     11.10547500
H          10.98664000     13.08467400     10.51596600
O          13.98641900     11.80841800     11.62339000
H          14.44678600     12.69638200     11.36249200
O          11.63218500      9.26989900      7.38786700
H          12.57368600      9.27232300      7.54871200
H          11.40877100     10.22684200      7.34626800
          37
 G =       -0.536642 Gcorr = 0.215923 a.u. Nimag =   0 Frame:     2 Step:     2 Geom:     2
C          10.39666400      8.21961800     10.33567100
H          10.65839600      7.80994700      9.33942100
H          10.30906200      7.40302400     11.06124500
H          11.27065100      8.85251700     10.63339800
C           9.27812000      9.99902100      9.08923800
H           9.22224100      9.40599400      8.14597100
H          10.33032900     10.41462100      9.11873600
C           8.95610800      9.78486700     11.55590800
H           7.94917300     10.21746900     11.63766200
H           9.14339100      9.13636900     12.42416000
H           9.68465700     10.63554800     11.63421100
C           7.97191600      8.13057900     10.04692600
H           7.83107700      7.44765600     10.90009900
H           7.03976300      8.70462600      9.90858000
H           8.12021800      7.51600100      9.14007000
C           8.27263800     11.15144500      9.06690200
H           8.44410000     11.84306400      9.92575200
H           7.23567600     10.78316200      9.16861600
C           8.41445400     11.92609000      7.75924000
H           7.59411200     12.65820300      7.65665400
H           8.33541700     11.26495700      6.88191400
N           9.14178300      9.04770300     10.26441200
S           9.98756200     12.84756700      7.64854800
O          10.06477000     13.59377200      8.92940300
O          11.02392800     11.74695500      7.62990400
O           9.89318100     13.62775800      6.42800700
P          12.53318000     11.96719900     10.79349100
O          11.66494500     10.86086800     11.22786000
O          13.16189400     11.79872900      9.34969100
H          12.37277200     11.76495300      8.63398000
O          11.92268600     13.41666000     10.89939300
H          11.17028800     13.53515000     10.13784400
O          13.81473400     12.03399400     11.74191600
H          14.39085800     12.82698200     11.41648400
O          11.25562300      9.03342900      7.24966600
H          12.05992500      8.87219500      6.77038600
H          11.21372100     10.02132500      7.31866000
          37
 G =       -0.536628 Gcorr = 0.215936 a.u. Nimag =   0 Frame:     3 Step:     3 Geom:     3
C          10.45072600      8.22573000     10.35810900
H          10.70761700      7.81674900      9.36033500
H          10.39090500      7.41117000     11.08877300
H          11.31472200      8.87902300     10.64060200
C           9.27734100      9.97503700      9.11961100
H           9.22257800      9.37686700      8.17950500
H          10.32039100     10.41387400      9.13383700
C           8.99268600      9.76449400     11.59115400
H           7.97788500     10.17590300     11.68438700
H           9.20498200      9.12378400     12.45943400
H           9.70387000     10.63079700     11.65650000
C           8.02488800      8.08274200     10.10203400
H           7.91033400      7.40047800     10.95966900
H           7.07865700      8.63576300      9.97391500
H           8.17444900      7.46771000      9.19568200
C           8.24632400     11.10480300      9.10564300
H           8.41325000     11.80357500      9.95958200
H           7.21915600     10.71403400      9.22190500
C           8.35434200     11.87707400      7.79336400
H           7.51694000     12.59070000      7.69863800
H           8.27843600     11.21084400      6.91961100
N           9.17723100      9.02598700     10.30024100
S           9.90538600     12.83217100      7.65892400
O           9.98259100     13.58503400      8.93585900
O          10.96517900     11.75424100      7.63104700
O           9.77847300     13.60520600      6.43679400
P          12.51074900     12.02176500     10.77326700
O          11.67303300     10.89797400     11.22252000
O          13.12408800     11.86267800      9.32182900
H          12.32644600     11.80747400      8.61691700
O          11.86934700     13.45764900     10.88246000
H          11.10447400     13.55625000     10.13068000
O          13.80269800     12.12042700     11.70456100
H          14.35575800     12.92610600     11.37022300
O          11.25184200      9.04486100      7.25876100
H          12.05302000      8.89921400      6.76928900
H          11.18922200     10.03183000      7.32435300
          37
 G =       -0.536641 Gcorr = 0.215924 a.u. Nimag =   0 Frame:     4 Step:     4 Geom:     4
C          10.42218200      8.23311400     10.40538200
H          10.70844200      7.80077000      9.42560200
H          10.32857800      7.43448300     11.15000600
H          11.28308400      8.88322100     10.70418400
C           9.31024000      9.96668400      9.09051700
H           9.28021900      9.34849700      8.16230100
H          10.35707000     10.39490800      9.13034100
C           8.94078800      9.81359700     11.55510300
H           7.92807100     10.23744100     11.60511200
H           9.11686400      9.18997400     12.44369900
H           9.65896600     10.67369500     11.62569500
C           8.00476400      8.10953400     10.07108500
H           7.85446900      7.44721800     10.93876300
H           7.06947500      8.66939600      9.89976200
H           8.17748300      7.47353800      9.18351800
C           8.29288900     11.10646900      9.01732500
H           8.43853700     11.82182900      9.86142600
H           7.25810100     10.72906900      9.10672900
C           8.45393100     11.84908000      7.69337000
H           7.62792300     12.56882400      7.55487700
H           8.40078600     11.16482400      6.83193400
N           9.16025200      9.04496400     10.28743200
S          10.01882500     12.78542000      7.59170500
O          10.06084400     13.56510700      8.85415800
O          11.06724100     11.69645400      7.62325500
O           9.94196700     13.53274200      6.34964700
P          12.50935700     12.01508900     10.80809700
O          11.64458300     10.91025600     11.25309700
O          13.16866700     11.81831400      9.38186400
H          12.39401100     11.75656900      8.65176100
O          11.88059200     13.45965800     10.86536700
H          11.14248000     13.55019400     10.08660700
O          13.77056600     12.12047200     11.77993100
H          14.34244800     12.91409800     11.44830700
O          11.33437600      8.97690600      7.31595800
H          12.14946500      8.81197600      6.85662600
H          11.28148200      9.96563200      7.35946700
          37
 G =       -0.535301 Gcorr = 0.218005 a.u. Nimag =   0 Frame:     5 Step:     5 Geom:     5
C          10.00261000      8.42401600     10.96096700
H          10.10898600      7.52903000     10.32952000
H           9.82493200      8.11577900     12.00073300
H          10.99175000      8.95091300     10.94256100
C           9.24081100      9.71916200      9.02011100
H           9.43631800      8.80001600      8.42503900
H          10.22874300     10.26194100      9.04353500
C           8.85032500     10.54209900     11.33981600
H           8.19278800     11.32920700     10.91756100
H           8.52661500     10.29111200     12.35549100
H           9.84723000     11.04075500     11.40180200
C           7.60785600      8.59743300     10.51381700
H           7.40261000      8.21870400     11.52858300
H           6.77021400      9.25861200     10.22877400
H           7.60620100      7.73788500      9.82187800
C           8.15434400     10.57404000      8.35384400
H           7.61236000     11.19725200      9.09796000
H           7.38761200      9.92086600      7.89188500
C           8.75693900     11.47759000      7.28420500
H           7.95967800     11.95360400      6.68655600
H           9.35236300     10.88630700      6.56137600
N           8.91562600      9.33178300     10.45572400
S           9.82163700     12.79415800      7.97160900
O           9.65973700     12.65566600      9.45729900
O          11.19519700     12.33740200      7.57364900
O           9.35952300     14.04308400      7.39527100
P          12.88399700     11.68330000     10.48474500
O          12.51926000     10.27286300     10.28403400
O          13.36441500     12.47469600      9.20722200
H          12.57044700     12.44368200      8.48041400
O          11.76032900     12.55350000     11.19038700
H          10.93955600     12.68128600     10.51938100
O          14.11060500     11.79847400     11.49451800
H          14.33022200     12.80401800     11.58968100
O          11.57608300      9.54625600      7.37117700
H          12.26497600      9.44511400      8.03179300
H          11.53712300     10.51841300      7.24710200
          37
 G =       -0.536980 Gcorr = 0.215901 a.u. Nimag =   0 Frame:     6 Step:     6 Geom:     6
C          10.36167400      8.23389700     10.30712500
H          10.53575200      7.69478400      9.35683800
H          10.32819000      7.52142100     11.13942000
H          11.26497000      8.88227000     10.44411600
C           9.24426800      9.99297500      9.03327000
H           9.26789400      9.37258000      8.10908600
H          10.26775600     10.47204900      9.09779300
C           8.96479700      9.85567200     11.50415300
H           7.97216100     10.32078400     11.58247800
H           9.14328300      9.23040100     12.39081800
H           9.71900400     10.68683600     11.54731200
C           7.93194200      8.16362700     10.06954000
H           7.82543200      7.48377000     10.93063500
H           6.99674800      8.74124700      9.97270600
H           8.03620600      7.54552400      9.15965800
C           8.17556900     11.08308000      8.93429300
H           8.23687100     11.77777900      9.80501000
H           7.15776800     10.65292200      8.95170300
C           8.37325800     11.87555800      7.64468100
H           7.53436400     12.57748500      7.49331600
H           8.37736000     11.22049400      6.75931000
N           9.11482700      9.07365800     10.23418700
S           9.91683200     12.85290000      7.64623200
O           9.93287600     13.50611100      8.98153600
O          10.98646200     11.78866500      7.59138900
O           9.83263700     13.71763900      6.48409600
P          12.54876000     11.98859300     10.72465900
O          11.73049000     10.84765000     11.16557100
O          13.14477400     11.85444400      9.26235500
H          12.34056600     11.84335500      8.56172200
O          11.88902300     13.41379400     10.85663600
H          11.08991200     13.49713800     10.13719100
O          13.85266400     12.09168700     11.63716600
H          14.39003200     12.90928400     11.30484200
O          11.68321500      9.08430400      7.66287100
H          12.61870800      9.13213100      7.84904400
H          11.44296900     10.02351600      7.48726000
          37
 G =       -0.536975 Gcorr = 0.215906 a.u. Nimag =   0 Frame:     7 Step:     7 Geom:     7
C          10.31167700      8.23859000     10.34038400
H          10.48376900      7.69279300      9.39359800
H          10.26191000      7.53036800     11.17550500
H          11.22398800      8.87361000     10.48064200
C           9.23049000     10.01010800      9.05268300
H           9.25181400      9.38624100      8.13078000
H          10.26044000     10.47433800      9.12345900
C           8.93130800      9.88575400     11.52186600
H           7.94481500     10.36493000     11.59220700
H           9.09557700      9.26137400     12.41191400
H           9.69687100     10.70639100     11.56690800
C           7.88292300      8.20464200     10.08564300
H           7.75994900      7.52951400     10.94826600
H           6.95741300      8.79617400      9.98018100
H           7.98414200      7.58183000      9.17864700
C           8.17892600     11.11563100      8.94185800
H           8.24289700     11.81154200      9.81139800
H           7.15475200     10.70060600      8.95146800
C           8.39956600     11.90174800      7.65208400
H           7.57218500     12.61508800      7.49119900
H           8.40239300     11.24430500      6.76842500
N           9.07842900      9.09705100     10.25568100
S           9.95700800     12.85682100      7.66504500
O           9.97167900     13.51196800      8.99925200
O          11.01150300     11.77694200      7.62063100
O           9.89495000     13.72063700      6.50077500
P          12.55333000     11.95989500     10.76436700
O          11.71427100     10.83304200     11.20245000
O          13.15729000     11.81301800      9.30669600
H          12.35782900     11.81355400      8.60012200
O          11.91474300     13.39553800     10.88851700
H          11.12097800     13.48874900     10.16513500
O          13.85215700     12.04541000     11.68587800
H          14.40556500     12.85233100     11.35374200
O          11.66752200      9.06105200      7.70661200
H          12.60230700      9.09539800      7.89948100
H          11.44265000     10.00303100      7.52651800
          37
 G =       -0.536971 Gcorr = 0.215910 a.u. Nimag =   0 Frame:     8 Step:     8 Geom:     8
C          10.23329100      8.23360700     10.30748900
H          10.36025400      7.67764500      9.35947800
H          10.17567000      7.53115300     11.14697700
H          11.17330500      8.83218500     10.42262900
C           9.19156300     10.04068400      9.03666100
H           9.16351400      9.41205100      8.11820100
H          10.24110500     10.46267300      9.07811700
C           8.94993000      9.94042800     11.51335800
H           7.98524100     10.45867900     11.60580000
H           9.11200200      9.31436000     12.40261000
H           9.74815500     10.73035400     11.53425600
C           7.79948800      8.29573400     10.11359000
H           7.67113800      7.63056700     10.98314300
H           6.89598200      8.92332600     10.02734700
H           7.85308700      7.66469500      9.20821200
C           8.18347500     11.18779700      8.94649600
H           8.29892800     11.88506300      9.80961500
H           7.14381800     10.81514800      8.98573900
C           8.40157100     11.95745100      7.64641000
H           7.60001500     12.70329600      7.50302100
H           8.35389400     11.29583100      6.76717100
N           9.03354600      9.14037800     10.24851900
S           9.99645900     12.84798700      7.61204900
O          10.07280200     13.51037900      8.94060000
O          11.00457900     11.72563600      7.54817700
O           9.93913200     13.70628800      6.44350100
P          12.63207800     11.86336300     10.65040200
O          11.75835000     10.77488500     11.11693900
O          13.19252300     11.68265800      9.17920300
H          12.37588900     11.71200300      8.49298400
O          12.05711300     13.32509700     10.78017100
H          11.24899700     13.44660200     10.07683500
O          13.95602700     11.89999400     11.53881800
H          14.53348500     12.68183400     11.18825400
O          11.55225200      8.98712900      7.63215300
H          12.49174500      8.98700300      7.80439500
H          11.35960900      9.93605200      7.45069800
          37
 G =       -0.534274 Gcorr = 0.218086 a.u. Nimag =   0 Frame:     9 Step:     9 Geom:     9
C          10.32048400      8.12366500     10.25075000
H          10.54284300      7.72833200      9.23846100
H          10.20117400      7.29032900     10.95333200
H          11.22823200      8.69980600     10.54756900
C           9.29483900     10.02318700      9.10415000
H           9.23410000      9.48278200      8.12981000
H          10.35922200     10.40233600      9.17108900
C           8.95297000      9.68979000     11.55290000
H           7.97303700     10.17921300     11.64959400
H           9.08722700      8.98485600     12.38597900
H           9.72689200     10.49165400     11.68234700
C           7.89651800      8.16743400      9.95571500
H           7.72385700      7.44184900     10.76673700
H           6.99155200      8.79101700      9.85434500
H           8.01558700      7.60242700      9.01286300
C           8.32611500     11.20685700      9.13105200
H           8.55467300     11.88264000      9.98971000
H           7.28229800     10.87213400      9.27116000
C           8.43892900     11.99026400      7.82619500
H           7.64204900     12.75258800      7.76704700
H           8.29853000     11.34334600      6.94633600
N           9.10746200      9.01487200     10.22404600
S          10.03679300     12.85943700      7.65632900
O          10.14988500     13.65946200      8.89992300
O          11.04100500     11.72922000      7.67233600
O           9.94722300     13.58493700      6.40182900
P          12.55057500     12.00869300     10.84135300
O          11.66590800     10.93159700     11.30819800
O          13.17593900     11.78737900      9.40213600
H          12.38923400     11.74924400      8.68703300
O          11.97376900     13.47475500     10.90589300
H          11.23777200     13.59588200     10.13121300
O          13.83690000     12.07892500     11.78392000
H          14.42483700     12.85360000     11.43723000
O          11.25749700      9.02600700      7.26177000
H          12.03825400      8.86542700      6.74502300
H          11.22583700     10.01408000      7.34464600
          37
 G =       -0.534242 Gcorr = 0.218527 a.u. Nimag =   0 Frame:    10 Step:    10 Geom:    10
C          10.18991400      8.12520300     10.16766400
H          10.35348700      7.60864400      9.20262400
H          10.09739500      7.38666400     10.97289500
H          11.12358400      8.71396900     10.34067400
C           9.22605200     10.02524800      8.97173100
H           9.29582200      9.46406100      8.01256300
H          10.25446800     10.47001400      9.13453000
C           8.82518200      9.74184800     11.41007800
H           7.86823500     10.28098900     11.46274300
H           8.89589500      9.04814300     12.25986000
H           9.63361300     10.50777600     11.55242000
C           7.77429200      8.20239300      9.82414200
H           7.60564700      7.46137700     10.62259700
H           6.87097500      8.83171100      9.74705900
H           7.87983900      7.65584800      8.86965000
C           8.19381800     11.15038600      8.87583200
H           8.26378800     11.82496400      9.76205400
H           7.16208100     10.75478500      8.86798900
C           8.43768200     11.96069100      7.60564600
H           7.62776600     12.69672400      7.45860800
H           8.42998900     11.32513500      6.70656000
N           8.99279700      9.03533500     10.09902800
S          10.01550200     12.88132800      7.64883900
O          10.00104800     13.56353200      8.96825000
O          11.04588800     11.77770300      7.65844700
O          10.00811600     13.72023800      6.46469600
P          12.47854900     11.97861900     10.86509000
O          11.62718900     10.85857200     11.29049000
O          13.12890600     11.81259800      9.42829600
H          12.35658400     11.81278400      8.69562400
O          11.84770600     13.42060100     10.95248300
H          11.09283100     13.52121700     10.19134900
O          13.75122200     12.07162300     11.82259000
H          14.31312000     12.87687600     11.50219200
O          11.73475100      9.07530100      7.76811200
H          12.66025700      9.12267500      8.00061700
H          11.50602600     10.01443500      7.57599200
          37
 G =       -0.536955 Gcorr = 0.215927 a.u. Nimag =   0 Frame:    11 Step:    11 Geom:    11
C          10.15958500      8.29404400     10.34928800
H          10.36021200      7.72584600      9.42150900
H          10.04659400      7.60322200     11.19277600
H          11.08363800      8.90307600     10.52363400
C           9.20020500     10.07535300      8.98113400
H           9.24821900      9.43506500      8.07156700
H          10.23929200     10.50928400      9.09655300
C           8.77520200     10.00335300     11.43388000
H           9.56408100     10.79969100     11.50488200
H           7.80275700     10.51519100     11.44636700
H           8.87360200      9.38947000     12.34076200
C           7.74657000      8.33060400      9.97383900
H           7.56015600      7.67414100     10.83948900
H           6.84644800      8.94844500      9.81362600
H           7.87247800      7.68986100      9.08255400
C           8.19046500     11.21013200      8.79960700
H           8.23238600     11.91884400      9.66010800
H           7.15466800     10.82660000      8.76385100
C           8.49993000     11.96666300      7.51038100
H           7.70460900     12.70228800      7.29684400
H           8.52602800     11.29426300      6.63845100
N           8.95979700      9.18852100     10.18931800
S          10.08426900     12.87328700      7.58694500
O          10.05316100     13.55002500      8.91014300
O          11.10485600     11.76078800      7.61219700
O          10.10767600     13.71893700      6.40803700
P          12.49489200     11.95145100     10.82561200
O          11.60023000     10.85845900     11.23874000
O          13.16547500     11.76099200      9.40246200
H          12.40235700     11.77297200      8.65704700
O          11.89638200     13.40787100     10.89484600
H          11.14229400     13.51250200     10.13150500
O          13.74852800     12.01323200     11.80949700
H          14.34314600     12.79647900     11.49219400
O          11.67035600      9.02825000      7.77585800
H          12.59493700      9.03745500      8.01521600
H          11.48453200      9.97336100      7.56929900
          37
 G =       -0.536634 Gcorr = 0.215929 a.u. Nimag =   0 Frame:    12 Step:    12 Geom:    12
C          10.33726100      8.25041400     10.46463900
H          10.69343700      7.79852300      9.51709500
H          10.19698400      7.46797000     11.21900400
H          11.17157200      8.91345000     10.80727600
C           9.30759800      9.94314700      9.03459900
H           9.34389200      9.30222900      8.12215500
H          10.34697200     10.37962300      9.13450100
C           8.77223100      9.84780900     11.47143200
H           9.47770300     10.71590200     11.56799200
H           7.75529700     10.26339000     11.44309500
H           8.89334500      9.24821000     12.38542500
C           7.94895000      8.10111600      9.97021400
H           7.74315700      7.45963700     10.84217600
H           7.02449600      8.64972500      9.72123000
H           8.18553800      7.44441100      9.11298500
C           8.29139200     11.07356700      8.86431000
H           8.37510000     11.81018400      9.69843400
H           7.25498800     10.69098800      8.89244200
C           8.53828300     11.78484200      7.53641600
H           7.71949600     12.49463300      7.32384500
H           8.54829500     11.07938100      6.69061800
N           9.08174300      9.04995900     10.24116500
S          10.10105700     12.73009900      7.51869800
O          10.05280700     13.53934600      8.76206900
O          11.15100200     11.64968300      7.64705900
O          10.10441400     13.44760400      6.25677900
P          12.37231700     12.05418700     10.91392000
O          11.48312800     10.95651300     11.32750500
O          13.12772100     11.82393300      9.54122200
H          12.40491600     11.74154600      8.76185800
O          11.73664300     13.49654800     10.89057100
H          11.04766700     13.56070700     10.06538300
O          13.56426500     12.19099400     11.96595500
H          14.15876400     12.97393600     11.64927000
O          11.45163900      8.92555300      7.42478400
H          12.29559100      8.75566000      7.02299300
H          11.39035500      9.91459500      7.44090500
          37
 G =       -0.536966 Gcorr = 0.215915 a.u. Nimag =   0 Frame:    13 Step:    13 Geom:    13
C          10.06993700      8.33693100     10.44399400
H          10.31173200      7.71264000      9.56325500
H           9.89289600      7.69802300     11.31686600
H          10.99543700      8.93769400     10.63826300
C           9.23075700     10.05337200      8.92244800
H           9.31651100      9.36063300      8.05510000
H          10.27099300     10.47330400      9.07376200
C           8.66322000     10.13192100     11.34599400
H           9.46361000     10.91666000     11.41751600
H           7.70281200     10.66102000     11.27240700
H           8.69640600      9.57021900     12.29066200
C           7.68403800      8.39669700      9.92540900
H           7.43307900      7.79573600     10.81473300
H           6.80870800      9.02088200      9.67682600
H           7.84734900      7.70254600      9.08145000
C           8.25889200     11.19486700      8.61794600
H           8.26747400     11.95142500      9.43773900
H           7.21846400     10.82985900      8.54364000
C           8.65860800     11.86913700      7.30804300
H           7.89349900     12.60613300      7.00680800
H           8.71955000     11.14679900      6.47883200
N           8.90143800      9.24287300     10.16289700
S          10.25584600     12.74833500      7.42536100
O          10.16385600     13.50186500      8.70345400
O          11.24815300     11.62003400      7.57421600
O          10.36596800     13.52296200      6.20334800
P          12.45332000     11.97163400     10.84838500
O          11.51226300     10.92138700     11.26927200
O          13.20104100     11.68641100      9.48059600
H          12.48291100     11.66904100      8.69185300
O          11.88403000     13.44052200     10.79922100
H          11.17853800     13.51498800      9.98732900
O          13.64883600     12.06685200     11.89964700
H          14.27684400     12.82059700     11.57535100
O          11.74202900      8.89194200      7.92530500
H          12.65145700      8.89710400      8.21690800
H          11.58951400      9.82696800      7.65517800
          37
 G =       -0.536629 Gcorr = 0.215935 a.u. Nimag =   0 Frame:    14 Step:    14 Geom:    14
C          10.00003200      8.33666700     10.50102000
H          10.33785000      7.83224000      9.57354100
H           9.75577600      7.58770600     11.26285400
H          10.88684900      8.91731900     10.86089400
C           9.19927100     10.10228200      9.01378400
H           9.20206800      9.44642700      8.11131700
H          10.27363700     10.43251300      9.14609700
C           8.57269400     10.10095800     11.43061600
H           9.36048900     10.89306500     11.54275000
H           7.60600600     10.61880700     11.35960500
H           8.59825200      9.50656200     12.35558500
C           7.62760600      8.42329400      9.92238600
H           7.32701700      7.82031900     10.79429300
H           6.77335600      9.05905900      9.63314100
H           7.82541900      7.73209600      9.08263300
C           8.31029900     11.32717900      8.79258000
H           8.44025500     12.06517000      9.61952600
H           7.23987500     11.05244700      8.78859000
C           8.67383400     11.98766000      7.46527200
H           7.94002100     12.77397900      7.21488600
H           8.63990400     11.27124500      6.62941600
N           8.84141300      9.25614800     10.22231700
S          10.32505300     12.76793700      7.49100300
O          10.31697300     13.59966500      8.72039000
O          11.25360900     11.58858200      7.67255300
O          10.44579100     13.45902600      6.22014100
P          12.39478600     11.92337200     10.97599400
O          11.38686600     10.92552100     11.36957100
O          13.17132600     11.59943600      9.63432600
H          12.47134700     11.57457800      8.83061000
O          11.90634900     13.42096100     10.91340400
H          11.26254200     13.54251900     10.05866900
O          13.55688000     11.95722100     12.06900800
H          14.23448300     12.67619900     11.76793300
O          11.28527400      8.84423600      7.49955600
H          12.12275000      8.58299600      7.13479400
H          11.32406200      9.83461800      7.49896200
          37