 Entering Gaussian System, Link 0=g16
 Initial command:
 /data0/home/software/g16/l1.exe "/data0/home/software/g16/scratch/Gau-309921.inp" -scrdir="/data0/home/software/g16/scratch/"
 Default is to use a total of  22 processors:
                               22 via shared-memory
                                1 via Linda
 Entering Link 1 = /data0/home/software/g16/l1.exe PID=    309922.
  
 Copyright (c) 1988,1990,1992,1993,1995,1998,2003,2009,2016,
            Gaussian, Inc.  All Rights Reserved.
  
 This is part of the Gaussian(R) 16 program.  It is based on
 the Gaussian(R) 09 system (copyright 2009, Gaussian, Inc.),
 the Gaussian(R) 03 system (copyright 2003, Gaussian, Inc.),
 the Gaussian(R) 98 system (copyright 1998, Gaussian, Inc.),
 the Gaussian(R) 94 system (copyright 1995, Gaussian, Inc.),
 the Gaussian 92(TM) system (copyright 1992, Gaussian, Inc.),
 the Gaussian 90(TM) system (copyright 1990, Gaussian, Inc.),
 the Gaussian 88(TM) system (copyright 1988, Gaussian, Inc.),
 the Gaussian 86(TM) system (copyright 1986, Carnegie Mellon
 University), and the Gaussian 82(TM) system (copyright 1983,
 Carnegie Mellon University). Gaussian is a federally registered
 trademark of Gaussian, Inc.
  
 This software contains proprietary and confidential information,
 including trade secrets, belonging to Gaussian, Inc.
  
 This software is provided under written license and may be
 used, copied, transmitted, or stored only in accord with that
 written license.
  
 The following legend is applicable only to US Government
 contracts under FAR:
  
                    RESTRICTED RIGHTS LEGEND
  
 Use, reproduction and disclosure by the US Government is
 subject to restrictions as set forth in subparagraphs (a)
 and (c) of the Commercial Computer Software - Restricted
 Rights clause in FAR 52.227-19.
  
 Gaussian, Inc.
 340 Quinnipiac St., Bldg. 40, Wallingford CT 06492
  
  
 ---------------------------------------------------------------
 Warning -- This program may not be used in any manner that
 competes with the business of Gaussian, Inc. or will provide
 assistance to any competitor of Gaussian, Inc.  The licensee
 of this program is prohibited from giving any competitor of
 Gaussian, Inc. access to this program.  By using this program,
 the user acknowledges that Gaussian, Inc. is engaged in the
 business of creating and licensing software in the field of
 computational chemistry and represents and warrants to the
 licensee that it is not a competitor of Gaussian, Inc. and that
 it will not use this program in any manner prohibited above.
 ---------------------------------------------------------------
  

 Cite this work as:
 Gaussian 16, Revision A.03,
 M. J. Frisch, G. W. Trucks, H. B. Schlegel, G. E. Scuseria, 
 M. A. Robb, J. R. Cheeseman, G. Scalmani, V. Barone, 
 G. A. Petersson, H. Nakatsuji, X. Li, M. Caricato, A. V. Marenich, 
 J. Bloino, B. G. Janesko, R. Gomperts, B. Mennucci, H. P. Hratchian, 
 J. V. Ortiz, A. F. Izmaylov, J. L. Sonnenberg, D. Williams-Young, 
 F. Ding, F. Lipparini, F. Egidi, J. Goings, B. Peng, A. Petrone, 
 T. Henderson, D. Ranasinghe, V. G. Zakrzewski, J. Gao, N. Rega, 
 G. Zheng, W. Liang, M. Hada, M. Ehara, K. Toyota, R. Fukuda, 
 J. Hasegawa, M. Ishida, T. Nakajima, Y. Honda, O. Kitao, H. Nakai, 
 T. Vreven, K. Throssell, J. A. Montgomery, Jr., J. E. Peralta, 
 F. Ogliaro, M. J. Bearpark, J. J. Heyd, E. N. Brothers, K. N. Kudin, 
 V. N. Staroverov, T. A. Keith, R. Kobayashi, J. Normand, 
 K. Raghavachari, A. P. Rendell, J. C. Burant, S. S. Iyengar, 
 J. Tomasi, M. Cossi, J. M. Millam, M. Klene, C. Adamo, R. Cammi, 
 J. W. Ochterski, R. L. Martin, K. Morokuma, O. Farkas, 
 J. B. Foresman, and D. J. Fox, Gaussian, Inc., Wallingford CT, 2016.
 
 ******************************************
 Gaussian 16:  ES64L-G16RevA.03 25-Dec-2016
                19-Feb-2023 
 ******************************************
 %nproc=24
 Will use up to   24 processors via shared memory.
 %mem=50GB
 ---------------------------------------------------
 #p M062X/6-311+G(2d,p) nosymm em=GD3 counterpoise=5
 ---------------------------------------------------
 1/38=1,62=5,172=1/1;
 2/12=2,15=1,17=6,18=5,40=1/2;
 1/38=1,53=2,62=5,63=1/22;
 3/5=4,6=6,7=112,11=2,25=1,30=1,74=-55,124=31/1,2,3;
 4//1;
 5/5=2,38=5/2;
 6/7=2,8=2,9=2,10=2,28=1/1;
 1/53=2,62=5,63=1/22;
 3/5=7,6=11,7=112,11=2,25=1,30=1,74=-55,82=7,124=31/1,2,3;
 4//1;
 5/5=2,38=5/2;
 6/7=2,8=2,9=2,10=2,28=1/1;
 1/53=2,62=5,63=1/22(-4);
 99/5=1,9=1/99;
 Leave Link    1 at Sun Feb 19 15:11:59 2023, MaxMem=  6710886400 cpu:               0.7 elap:               0.0
 (Enter /data0/home/software/g16/l101.exe)
 -------------------
 Title Card Required
 -------------------
 Symbolic Z-matrix:
 Charge =  0 Multiplicity = 1 in supermolecule
 Charge =  0 Multiplicity = 1 in fragment      1.
 Charge =  0 Multiplicity = 1 in fragment      2.
 Charge =  0 Multiplicity = 1 in fragment      3.
 Charge =  0 Multiplicity = 1 in fragment      4.
 Charge =  0 Multiplicity = 1 in fragment      5.
 C                     11.50458   8.18576   11.44782    
 C                     12.0279   9.4006    11.87496    
 C                     9.78093   9.54845   11.93785    
 N                     10.11574   8.2967    11.50073    
 H                     12.01167   7.30504   11.08105    
 H                     13.05851   9.72076   11.94033    
 H                     8.76743   9.93908   12.04764    
 C                     9.15743   7.28496   11.09516    
 H                     8.54633   6.94773   11.94915    
 H                     8.46706   7.68839   10.31336    
 H                     9.66773   6.40756   10.64532    
 N                     10.9473   10.2332   12.17325    
 C                     11.02957   11.64111   12.56878    
 H                     11.56053   11.69475   13.54836    
 H                     9.99357   12.03231   12.73208    
 C                     11.7632   12.5118   11.52583    
 H                     12.32424   13.304    12.06556    
 H                     12.55397   11.91527   11.01017    
 C                     10.84327   13.16694   10.5002    
 H                     11.42856   13.83908   9.84225    
 H                     10.09554   13.81555   10.99113    
 S                     9.98918   11.95529   9.48273    
 O                     9.332     12.62594   8.35923    
 O                     11.04644   10.99284   9.05832    
 O                     9.02736   11.32921   10.44675    
 O                     7.52493   8.55191   7.70323    
 H                     7.74413   9.34495   7.17566    
 H                     7.28001   8.89866   8.57335    
 O                     6.99304   9.64034   10.26034    
 H                     7.74318   10.29635   10.2835    
 H                     6.2099    10.17618   10.19616    
 O                     8.45509   10.82619   6.347      
 H                     8.6157    11.59307   6.93332    
 H                     9.31477   10.39922   6.30432    
 O                     13.60379   10.035    9.81179    
 H                     12.77443   10.44571   9.50095    
 H                     13.5871   9.18198   9.3707     
 
 ITRead=  0  0  0  0  0  0  0  0  0  0  0  0  0  0  0  0  0  0  0  0
 ITRead=  0  0  0  0  0  0  0  0  0  0  0  0  0  0  0  0  0
 MicOpt= -1 -1 -1 -1 -1 -1 -1 -1 -1 -1 -1 -1 -1 -1 -1 -1 -1 -1 -1 -1
 MicOpt= -1 -1 -1 -1 -1 -1 -1 -1 -1 -1 -1 -1 -1 -1 -1 -1 -1
 NAtoms=     37 NQM=       37 NQMF=       0 NMMI=      0 NMMIF=      0
                NMic=       0 NMicF=      0.
                    Isotopes and Nuclear Properties:
 (Nuclear quadrupole moments (NQMom) in fm**2, nuclear magnetic moments (NMagM)
  in nuclear magnetons)

  Atom         1           2           3           4           5           6           7           8           9          10
 IAtWgt=          12          12          12          14           1           1           1          12           1           1
 AtmWgt=  12.0000000  12.0000000  12.0000000  14.0030740   1.0078250   1.0078250   1.0078250  12.0000000   1.0078250   1.0078250
 NucSpn=           0           0           0           2           1           1           1           0           1           1
 AtZEff=  -0.0000000  -0.0000000  -0.0000000  -0.0000000  -0.0000000  -0.0000000  -0.0000000  -0.0000000  -0.0000000  -0.0000000
 NQMom=    0.0000000   0.0000000   0.0000000   2.0440000   0.0000000   0.0000000   0.0000000   0.0000000   0.0000000   0.0000000
 NMagM=    0.0000000   0.0000000   0.0000000   0.4037610   2.7928460   2.7928460   2.7928460   0.0000000   2.7928460   2.7928460
 AtZNuc=   6.0000000   6.0000000   6.0000000   7.0000000   1.0000000   1.0000000   1.0000000   6.0000000   1.0000000   1.0000000

  Atom        11          12          13          14          15          16          17          18          19          20
 IAtWgt=           1          14          12           1           1          12           1           1          12           1
 AtmWgt=   1.0078250  14.0030740  12.0000000   1.0078250   1.0078250  12.0000000   1.0078250   1.0078250  12.0000000   1.0078250
 NucSpn=           1           2           0           1           1           0           1           1           0           1
 AtZEff=  -0.0000000  -0.0000000  -0.0000000  -0.0000000  -0.0000000  -0.0000000  -0.0000000  -0.0000000  -0.0000000  -0.0000000
 NQMom=    0.0000000   2.0440000   0.0000000   0.0000000   0.0000000   0.0000000   0.0000000   0.0000000   0.0000000   0.0000000
 NMagM=    2.7928460   0.4037610   0.0000000   2.7928460   2.7928460   0.0000000   2.7928460   2.7928460   0.0000000   2.7928460
 AtZNuc=   1.0000000   7.0000000   6.0000000   1.0000000   1.0000000   6.0000000   1.0000000   1.0000000   6.0000000   1.0000000

  Atom        21          22          23          24          25          26          27          28          29          30
 IAtWgt=           1          32          16          16          16          16           1           1          16           1
 AtmWgt=   1.0078250  31.9720718  15.9949146  15.9949146  15.9949146  15.9949146   1.0078250   1.0078250  15.9949146   1.0078250
 NucSpn=           1           0           0           0           0           0           1           1           0           1
 AtZEff=  -0.0000000  -0.0000000  -0.0000000  -0.0000000  -0.0000000  -0.0000000  -0.0000000  -0.0000000  -0.0000000  -0.0000000
 NQMom=    0.0000000   0.0000000   0.0000000   0.0000000   0.0000000   0.0000000   0.0000000   0.0000000   0.0000000   0.0000000
 NMagM=    2.7928460   0.0000000   0.0000000   0.0000000   0.0000000   0.0000000   2.7928460   2.7928460   0.0000000   2.7928460
 AtZNuc=   1.0000000  16.0000000   8.0000000   8.0000000   8.0000000   8.0000000   1.0000000   1.0000000   8.0000000   1.0000000

  Atom        31          32          33          34          35          36          37
 IAtWgt=           1          16           1           1          16           1           1
 AtmWgt=   1.0078250  15.9949146   1.0078250   1.0078250  15.9949146   1.0078250   1.0078250
 NucSpn=           1           0           1           1           0           1           1
 AtZEff=  -0.0000000  -0.0000000  -0.0000000  -0.0000000  -0.0000000  -0.0000000  -0.0000000
 NQMom=    0.0000000   0.0000000   0.0000000   0.0000000   0.0000000   0.0000000   0.0000000
 NMagM=    2.7928460   0.0000000   2.7928460   2.7928460   0.0000000   2.7928460   2.7928460
 AtZNuc=   1.0000000   8.0000000   1.0000000   1.0000000   8.0000000   1.0000000   1.0000000
 Leave Link  101 at Sun Feb 19 15:11:59 2023, MaxMem=  6710886400 cpu:               2.3 elap:               0.1
 (Enter /data0/home/software/g16/l202.exe)
                          Input orientation:                          
 ---------------------------------------------------------------------
 Center     Atomic      Atomic             Coordinates (Angstroms)
 Number     Number       Type             X           Y           Z
 ---------------------------------------------------------------------
      1          6           0       11.504582    8.185756   11.447825
      2          6           0       12.027899    9.400597   11.874956
      3          6           0        9.780929    9.548446   11.937849
      4          7           0       10.115739    8.296700   11.500731
      5          1           0       12.011673    7.305043   11.081049
      6          1           0       13.058507    9.720755   11.940328
      7          1           0        8.767425    9.939079   12.047636
      8          6           0        9.157428    7.284959   11.095159
      9          1           0        8.546333    6.947727   11.949153
     10          1           0        8.467065    7.688388   10.313363
     11          1           0        9.667732    6.407565   10.645318
     12          7           0       10.947301   10.233203   12.173248
     13          6           0       11.029566   11.641112   12.568779
     14          1           0       11.560530   11.694754   13.548361
     15          1           0        9.993573   12.032309   12.732083
     16          6           0       11.763203   12.511803   11.525831
     17          1           0       12.324244   13.303999   12.065561
     18          1           0       12.553972   11.915270   11.010169
     19          6           0       10.843272   13.166937   10.500202
     20          1           0       11.428560   13.839080    9.842245
     21          1           0       10.095537   13.815550   10.991128
     22         16           0        9.989182   11.955293    9.482733
     23          8           0        9.331997   12.625944    8.359235
     24          8           0       11.046444   10.992837    9.058324
     25          8           0        9.027365   11.329214   10.446755
     26          8           0        7.524933    8.551909    7.703229
     27          1           0        7.744129    9.344953    7.175664
     28          1           0        7.280006    8.898657    8.573351
     29          8           0        6.993039    9.640335   10.260344
     30          1           0        7.743181   10.296349   10.283504
     31          1           0        6.209901   10.176181   10.196157
     32          8           0        8.455091   10.826190    6.346999
     33          1           0        8.615697   11.593072    6.933316
     34          1           0        9.314774   10.399224    6.304321
     35          8           0       13.603788   10.035001    9.811785
     36          1           0       12.774431   10.445713    9.500946
     37          1           0       13.587104    9.181984    9.370699
 ---------------------------------------------------------------------
                    Distance matrix (angstroms):
                    1          2          3          4          5
     1  C    0.000000
     2  C    1.390014   0.000000
     3  C    2.251228   2.252707   0.000000
     4  N    1.394271   2.239417   1.367493   0.000000
     5  H    1.080426   2.240959   3.277679   2.180386   0.000000
     6  H    2.239077   1.081170   3.282105   3.298645   2.769456
     7  H    3.305441   3.309150   1.091713   2.194189   4.289240
     8  C    2.538689   3.650152   2.494444   1.451368   2.854351
     9  H    3.245810   4.259504   2.878905   2.117509   3.590245
    10  H    3.280379   4.248502   2.797322   2.120852   3.646991
    11  H    2.679552   4.005077   3.398321   2.121620   2.547428
    12  N    2.242507   1.396389   1.372854   2.212198   3.301501
    13  C    3.663559   2.549111   2.517224   3.627795   4.688216
    14  H    4.090043   2.877825   3.219840   4.222201   5.055761
    15  H    4.327636   3.434976   2.616410   3.935216   5.398674
    16  C    4.334473   3.141903   3.588963   4.525689   5.231627
    17  H    5.220139   3.919273   4.537504   5.501779   6.087236
    18  H    3.898979   2.710754   3.761943   4.390863   4.642554
    19  C    5.113461   4.180742   4.035948   5.024895   6.005360
    20  H    5.877392   4.918460   5.051315   5.932289   6.675949
    21  H    5.821388   4.899692   4.382172   5.542365   6.787221
    22  S    4.513029   4.050379   3.444398   4.180148   5.316945
    23  O    5.828789   5.480059   4.741204   5.406071   6.549880
    24  O    3.714742   3.381109   3.461135   3.755092   4.315427
    25  O    4.125539   3.842203   2.441793   3.389921   5.049988
    26  O    5.476648   6.196796   4.900470   4.604175   5.752841
    27  H    5.808279   6.359019   5.183471   5.042774   6.133938
    28  H    5.159251   5.804742   4.242250   4.119865   5.587202
    29  O    4.886710   5.292850   3.254965   3.618725   5.595876
    30  H    4.467481   4.657671   2.729218   3.333057   5.272951
    31  H    5.793282   6.104834   4.022410   4.526581   6.533531
    32  O    6.503054   6.734655   5.886262   5.976372   6.889048
    33  H    6.351083   6.392955   5.530245   5.829020   6.864658
    34  H    6.012515   6.276167   5.716447   5.662581   6.297964
    35  O    3.240833   2.672559   4.401265   4.247436   3.405662
    36  H    3.241953   2.699167   3.962908   3.960561   3.597545
    37  H    3.105450   2.958076   4.605597   4.167870   2.988342
                    6          7          8          9         10
     6  H    0.000000
     7  H    4.297972   0.000000
     8  C    4.676091   2.846694   0.000000
     9  H    5.296176   3.001128   1.102936   0.000000
    10  H    5.278150   2.857189   1.118285   1.797407   0.000000
    11  H    4.914431   3.904951   1.110219   1.802580   1.786702
    12  N    2.184959   2.203213   3.613594   4.075441   4.010839
    13  C    2.863446   2.878505   4.965131   5.345862   5.222771
    14  H    2.954044   3.624363   5.589221   5.846120   6.007138
    15  H    3.919691   2.520619   5.090775   5.344198   5.200969
    16  C    3.104766   3.983199   5.856231   6.440993   5.966568
    17  H    3.659845   4.896322   6.870171   7.395158   7.034424
    18  H    2.436318   4.395407   5.743128   6.451306   5.920716
    19  C    4.342511   4.137966   6.147659   6.786307   5.974594
    20  H    4.900947   5.211084   7.048712   7.761252   6.842764
    21  H    5.142715   4.231680   6.598446   7.105268   6.376002
    22  S    4.522576   3.483753   5.010364   5.765480   4.605786
    23  O    5.928847   4.598074   6.003489   6.763647   5.380166
    24  O    3.737986   3.903885   4.633081   5.565102   4.375809
    25  O    4.589990   2.136086   4.097968   4.656825   3.686101
    26  O    7.066799   4.726722   3.971825   4.652368   2.906214
    27  H    7.147438   5.013605   4.647949   5.401520   3.621049
    28  H    6.738208   3.919892   3.533872   4.099482   2.429301
    29  O    6.294340   2.536160   3.305948   3.537646   2.446561
    30  H    5.597237   2.070961   3.424522   3.825272   2.706725
    31  H    7.081875   3.166247   4.225551   4.353714   3.361196
    32  O    7.327943   5.777697   5.964781   6.814318   5.057469
    33  H    6.950849   5.377265   6.014503   6.836861   5.166562
    34  H    6.800032   5.787659   5.716252   6.660890   4.913213
    35  O    2.219634   5.329037   5.383298   6.299004   5.669576
    36  H    2.560634   4.774768   5.061086   6.008863   5.178442
    37  H    2.678186   5.564934   5.118056   6.086847   5.416110
                   11         12         13         14         15
    11  H    0.000000
    12  N    4.313626   0.000000
    13  C    5.739713   1.464725   0.000000
    14  H    6.321765   2.098361   1.115518   0.000000
    15  H    6.008203   2.111558   1.119368   1.798779   0.000000
    16  C    6.513680   2.505367   1.544042   2.190724   2.194664
    17  H    7.525619   3.367099   2.166705   2.317677   2.737421
    18  H    6.228829   2.600672   2.197326   2.734588   3.087771
    19  C    6.862366   3.378861   2.577180   3.460210   2.643986
    20  H    7.679379   4.320594   3.524805   4.283789   3.697942
    21  H    7.428381   3.867314   2.844218   3.630898   2.494247
    22  S    5.677343   3.335035   3.271817   4.366503   3.250266
    23  O    6.633787   4.783420   4.644555   5.723679   4.462274
    24  O    5.044216   3.207744   3.569851   4.573555   3.960498
    25  O    4.967104   2.805026   2.934123   4.021257   2.578880
    26  O    4.224416   5.875408   6.745310   7.767180   6.595206
    27  H    4.936294   6.002095   6.719534   7.790876   6.569298
    28  H    4.024900   5.309362   6.127292   7.133847   5.871820
    29  O    4.213430   4.432480   5.062167   5.991132   4.564454
    30  H    4.354015   3.720417   4.222700   5.214114   3.751448
    31  H    5.134278   5.133722   5.568171   6.494041   4.918567
    32  O    6.282539   6.364583   6.782519   7.890359   6.677645
    33  H    6.463375   5.894278   6.130866   7.241630   5.976384
    34  H    5.907806   6.094014   6.612581   7.694019   6.666623
    35  O    5.417158   3.559876   4.099662   4.570742   5.054803
    36  H    5.221858   3.244189   3.726276   4.406271   4.548704
    37  H    4.968252   3.990978   4.776612   5.279571   5.686538
                   16         17         18         19         20
    16  C    0.000000
    17  H    1.110698   0.000000
    18  H    1.116725   1.759317   0.000000
    19  C    1.525578   2.159262   2.180191   0.000000
    20  H    2.169818   2.455951   2.516276   1.107811   0.000000
    21  H    2.183294   2.526505   3.107303   1.104905   1.759953
    22  S    2.762445   3.733969   2.985433   1.797997   2.397856
    23  O    3.993885   4.811461   4.232450   2.675886   2.840175
    24  O    2.984894   4.002214   2.633101   2.616678   2.976851
    25  O    3.169816   4.170098   3.619096   2.584105   3.525705
    26  O    6.946652   8.040254   6.894874   6.335054   6.911430
    27  H    6.716089   7.782197   6.666674   5.938417   6.393971
    28  H    6.470782   7.552940   6.546201   5.884542   6.574829
    29  O    5.709750   6.715876   6.054878   5.226734   6.121937
    30  H    4.755228   5.762623   5.127637   4.230579   5.131050
    31  H    6.169467   7.117802   6.628294   5.523151   6.385647
    32  O    6.372221   7.335655   6.303338   5.332129   5.489606
    33  H    5.642876   6.559004   5.677548   4.490191   4.628025
    34  H    6.141821   7.119446   5.910652   5.253757   5.368203
    35  O    3.529909   4.171701   2.464478   4.231240   4.382187
    36  H    3.064550   3.866486   2.118007   3.483238   3.666442
    37  H    4.365650   5.084103   3.350534   4.968324   5.154630
                   21         22         23         24         25
    21  H    0.000000
    22  S    2.397316   0.000000
    23  O    2.987477   1.464211   0.000000
    24  O    3.550727   1.491391   2.468824   0.000000
    25  O    2.760290   1.498801   2.476297   2.473372   0.000000
    26  O    6.717455   4.563133   4.504840   4.493935   4.183020
    27  H    6.330334   4.144479   3.832371   4.143092   4.035347
    28  H    6.160251   4.184451   4.260186   4.336686   3.531361
    29  O    5.252805   3.865305   4.242499   4.438942   2.650574
    30  H    4.291746   2.904798   3.413819   3.591338   1.656077
    31  H    5.382857   4.237591   4.372997   5.035250   3.054568
    32  O    5.761534   3.668942   2.838516   3.754220   4.169956
    33  H    4.857486   2.918423   1.900830   3.283972   3.547301
    34  H    5.852097   3.602566   3.030058   3.306900   4.255261
    35  O    5.290673   4.106236   5.202988   2.832872   4.798106
    36  H    4.555537   3.168087   4.231697   1.865797   3.964295
    37  H    6.023850   4.544099   5.566853   3.135557   5.153612
                   26         27         28         29         30
    26  O    0.000000
    27  H    0.977390   0.000000
    28  H    0.968161   1.538869   0.000000
    29  O    2.829562   3.188516   1.865042   0.000000
    30  H    3.122262   3.250204   2.256701   0.996797   0.000000
    31  H    3.253038   3.488291   2.326089   0.951082   1.540460
    32  O    2.806583   1.840167   3.170623   4.342593   4.035297
    33  H    3.321326   2.423304   3.425443   4.185130   3.696828
    34  H    2.927977   2.082703   3.397128   4.649353   4.279531
    35  O    6.602882   6.462268   6.543334   6.637693   5.885366
    36  H    5.863063   5.650004   5.782951   5.886409   5.093936
    37  H    6.318811   6.243804   6.363609   6.669576   6.018842
                   31         32         33         34         35
    31  H    0.000000
    32  O    4.503266   0.000000
    33  H    4.294364   0.978606   0.000000
    34  H    4.983610   0.960821   1.519742   0.000000
    35  O    7.405217   6.256181   5.966089   5.552531   0.000000
    36  H    6.606740   5.361795   5.020381   4.710605   0.976288
    37  H    7.489522   6.179299   6.038963   5.397884   0.960455
                   36         37
    36  H    0.000000
    37  H    1.508116   0.000000
 Symmetry turned off by external request.
 Stoichiometry    C7H20N2O7S
 Framework group  C1[X(C7H20N2O7S)]
 Deg. of freedom   105
 Full point group                 C1      NOp   1
 Rotational constants (GHZ):           0.4222014           0.3439239           0.2611198
 Leave Link  202 at Sun Feb 19 15:11:59 2023, MaxMem=  6710886400 cpu:               0.1 elap:               0.0
 (Enter /data0/home/software/g16/l122.exe)
 Counterpoise: doing full-system calculation.
 Leave Link  122 at Sun Feb 19 15:11:59 2023, MaxMem=  6710886400 cpu:               0.1 elap:               0.0
 (Enter /data0/home/software/g16/l301.exe)
 Standard basis: 6-311+G(2d,p) (5D, 7F)
 Ernie: Thresh=  0.10000D-02 Tol=  0.10000D-05 Strict=F.
   587 basis functions,   888 primitive gaussians,   621 cartesian basis functions
    74 alpha electrons       74 beta electrons
       nuclear repulsion energy      1660.2703017934 Hartrees.
 IExCor= 4336 DFT=T Ex+Corr=M062X ExCW=0 ScaHFX=  0.540000
 ScaDFX=  1.000000  1.000000  1.000000  1.000000 ScalE2=  1.000000  1.000000
 IRadAn=      5 IRanWt=     -1 IRanGd=            0 ICorTp=0 IEmpDi=131
 NAtoms=   37 NActive=   37 NUniq=   37 SFac= 1.00D+00 NAtFMM=   60 NAOKFM=F Big=F
 Integral buffers will be    131072 words long.
 Raffenetti 2 integral format.
 Two-electron integral symmetry is turned off.
 R6Disp:  Grimme-D3 Dispersion energy=       -0.0029157805 Hartrees.
 Nuclear repulsion after empirical dispersion term =     1660.2673860129 Hartrees.
 Leave Link  301 at Sun Feb 19 15:11:59 2023, MaxMem=  6710886400 cpu:               1.2 elap:               0.1
 (Enter /data0/home/software/g16/l302.exe)
 NPDir=0 NMtPBC=     1 NCelOv=     1 NCel=       1 NClECP=     1 NCelD=      1
         NCelK=      1 NCelE2=     1 NClLst=     1 CellRange=     0.0.
 One-electron integrals computed using PRISM.
 NBasis=   587 RedAO= T EigKep=  9.00D-06  NBF=   587
 NBsUse=   587 1.00D-06 EigRej= -1.00D+00 NBFU=   587
 Precomputing XC quadrature grid using
 IXCGrd= 4 IRadAn=           5 IRanWt=          -1 IRanGd=           0 AccXCQ= 0.00D+00.
 Generated NRdTot=       0 NPtTot=           0 NUsed=           0 NTot=          32
 NSgBfM=   618   617   617   617   618 MxSgAt=    37 MxSgA2=    37.
 Leave Link  302 at Sun Feb 19 15:12:00 2023, MaxMem=  6710886400 cpu:              16.1 elap:               0.7
 (Enter /data0/home/software/g16/l303.exe)
 DipDrv:  MaxL=1.
 Leave Link  303 at Sun Feb 19 15:12:00 2023, MaxMem=  6710886400 cpu:               1.5 elap:               0.1
 (Enter /data0/home/software/g16/l401.exe)
 ExpMin= 4.05D-02 ExpMax= 9.34D+04 ExpMxC= 3.17D+03 IAcc=3 IRadAn=         5 AccDes= 0.00D+00
 Harris functional with IExCor= 1009 and IRadAn=       5 diagonalized for initial guess.
 HarFok:  IExCor= 1009 AccDes= 0.00D+00 IRadAn=         5 IDoV= 1 UseB2=F ITyADJ=14
 ICtDFT=  3500011 ScaDFX=  1.000000  1.000000  1.000000  1.000000
 FoFCou: FMM=F IPFlag=           0 FMFlag=      100000 FMFlg1=           0
         NFxFlg=           0 DoJE=T BraDBF=F KetDBF=T FulRan=T
         wScrn=  0.000000 ICntrl=       500 IOpCl=  0 I1Cent=   200000004 NGrid=           0
         NMat0=    1 NMatS0=      1 NMatT0=    0 NMatD0=    1 NMtDS0=    0 NMtDT0=    0
 Symmetry not used in FoFCou.
 Harris En= -1312.47796505131    
 JPrj=0 DoOrth=F DoCkMO=F.
 Leave Link  401 at Sun Feb 19 15:12:02 2023, MaxMem=  6710886400 cpu:              61.6 elap:               2.6
 (Enter /data0/home/software/g16/l502.exe)
 Two-electron integral symmetry not used.
 Closed shell SCF:
 Using DIIS extrapolation, IDIIS=  1040.
 NGot=  6710886400 LenX=  6710095790 LenY=  6709709528
 Requested convergence on RMS density matrix=1.00D-08 within 128 cycles.
 Requested convergence on MAX density matrix=1.00D-06.
 Requested convergence on             energy=1.00D-06.
 No special actions if energy rises.
 Fock matrices will be formed incrementally for  20 cycles.

 Cycle   1  Pass 1  IDiag  1:
 FoFJK:  IHMeth= 1 ICntrl=       0 DoSepK=F KAlg= 0 I1Cent=           0 FoldK=F
 IRaf= 850000000 NMat=       1 IRICut=       1 DoRegI=T DoRafI=F ISym2E= 0 IDoP0=0 IntGTp=1.
 FoFCou: FMM=F IPFlag=           0 FMFlag=      100000 FMFlg1=           0
         NFxFlg=           0 DoJE=F BraDBF=F KetDBF=F FulRan=T
         wScrn=  0.000000 ICntrl=         0 IOpCl=  0 I1Cent=           0 NGrid=           0
         NMat0=    1 NMatS0=      1 NMatT0=    0 NMatD0=    1 NMtDS0=    0 NMtDT0=    0
 Symmetry not used in FoFCou.
 E= -1312.29218101546    
 DIIS: error= 2.87D-02 at cycle   1 NSaved=   1.
 NSaved= 1 IEnMin= 1 EnMin= -1312.29218101546     IErMin= 1 ErrMin= 2.87D-02
 ErrMax= 2.87D-02  0.00D+00 EMaxC= 1.00D-01 BMatC= 1.13D+00 BMatP= 1.13D+00
 IDIUse=3 WtCom= 7.13D-01 WtEn= 2.87D-01
 Coeff-Com:  0.100D+01
 Coeff-En:   0.100D+01
 Coeff:      0.100D+01
 Gap=     0.274 Goal=   None    Shift=    0.000
 GapD=    0.274 DampG=1.000 DampE=0.500 DampFc=0.5000 IDamp=-1.
 Damping current iteration by 5.00D-01
 RMSDP=5.97D-03 MaxDP=7.30D-01              OVMax= 1.95D-01

 Cycle   2  Pass 1  IDiag  1:
 RMSU=  2.91D-03    CP:  1.06D+00
 E= -1312.59355789329     Delta-E=       -0.301376877828 Rises=F Damp=T
 DIIS: error= 5.63D-03 at cycle   2 NSaved=   2.
 NSaved= 2 IEnMin= 2 EnMin= -1312.59355789329     IErMin= 2 ErrMin= 5.63D-03
 ErrMax= 5.63D-03  0.00D+00 EMaxC= 1.00D-01 BMatC= 6.41D-02 BMatP= 1.13D+00
 IDIUse=3 WtCom= 9.44D-01 WtEn= 5.63D-02
 Coeff-Com:  0.309D-01 0.969D+00
 Coeff-En:   0.113D+00 0.887D+00
 Coeff:      0.356D-01 0.964D+00
 Gap=     0.304 Goal=   None    Shift=    0.000
 RMSDP=2.43D-03 MaxDP=4.71D-01 DE=-3.01D-01 OVMax= 1.14D-01

 Cycle   3  Pass 1  IDiag  1:
 RMSU=  1.86D-03    CP:  9.41D-01  7.25D-01
 E= -1312.95978781114     Delta-E=       -0.366229917858 Rises=F Damp=F
 DIIS: error= 3.05D-03 at cycle   3 NSaved=   3.
 NSaved= 3 IEnMin= 3 EnMin= -1312.95978781114     IErMin= 3 ErrMin= 3.05D-03
 ErrMax= 3.05D-03  0.00D+00 EMaxC= 1.00D-01 BMatC= 1.68D-02 BMatP= 6.41D-02
 IDIUse=3 WtCom= 9.69D-01 WtEn= 3.05D-02
 Coeff-Com: -0.494D-01 0.286D+00 0.763D+00
 Coeff-En:   0.000D+00 0.000D+00 0.100D+01
 Coeff:     -0.478D-01 0.277D+00 0.771D+00
 Gap=     0.298 Goal=   None    Shift=    0.000
 RMSDP=4.78D-04 MaxDP=5.12D-02 DE=-3.66D-01 OVMax= 2.73D-02

 Cycle   4  Pass 1  IDiag  1:
 RMSU=  4.37D-04    CP:  9.42D-01  7.91D-01  9.86D-01
 E= -1312.96930997188     Delta-E=       -0.009522160734 Rises=F Damp=F
 DIIS: error= 1.62D-03 at cycle   4 NSaved=   4.
 NSaved= 4 IEnMin= 4 EnMin= -1312.96930997188     IErMin= 4 ErrMin= 1.62D-03
 ErrMax= 1.62D-03  0.00D+00 EMaxC= 1.00D-01 BMatC= 4.28D-03 BMatP= 1.68D-02
 IDIUse=3 WtCom= 9.84D-01 WtEn= 1.62D-02
 Coeff-Com: -0.255D-01 0.721D-01 0.394D+00 0.559D+00
 Coeff-En:   0.000D+00 0.000D+00 0.179D+00 0.821D+00
 Coeff:     -0.251D-01 0.709D-01 0.391D+00 0.564D+00
 Gap=     0.295 Goal=   None    Shift=    0.000
 RMSDP=2.10D-04 MaxDP=2.52D-02 DE=-9.52D-03 OVMax= 1.03D-02

 Cycle   5  Pass 1  IDiag  1:
 RMSU=  1.23D-04    CP:  9.38D-01  7.72D-01  1.00D+00  6.57D-01
 E= -1312.97275215668     Delta-E=       -0.003442184803 Rises=F Damp=F
 DIIS: error= 4.19D-04 at cycle   5 NSaved=   5.
 NSaved= 5 IEnMin= 5 EnMin= -1312.97275215668     IErMin= 5 ErrMin= 4.19D-04
 ErrMax= 4.19D-04  0.00D+00 EMaxC= 1.00D-01 BMatC= 2.31D-04 BMatP= 4.28D-03
 IDIUse=3 WtCom= 9.96D-01 WtEn= 4.19D-03
 Coeff-Com: -0.863D-02 0.170D-01 0.137D+00 0.267D+00 0.588D+00
 Coeff-En:   0.000D+00 0.000D+00 0.000D+00 0.000D+00 0.100D+01
 Coeff:     -0.859D-02 0.169D-01 0.137D+00 0.266D+00 0.589D+00
 Gap=     0.294 Goal=   None    Shift=    0.000
 RMSDP=5.39D-05 MaxDP=3.40D-03 DE=-3.44D-03 OVMax= 2.51D-03

 Cycle   6  Pass 1  IDiag  1:
 RMSU=  3.28D-05    CP:  9.38D-01  7.71D-01  1.01D+00  7.18D-01  7.32D-01
 E= -1312.97290689674     Delta-E=       -0.000154740059 Rises=F Damp=F
 DIIS: error= 1.27D-04 at cycle   6 NSaved=   6.
 NSaved= 6 IEnMin= 6 EnMin= -1312.97290689674     IErMin= 6 ErrMin= 1.27D-04
 ErrMax= 1.27D-04  0.00D+00 EMaxC= 1.00D-01 BMatC= 2.03D-05 BMatP= 2.31D-04
 IDIUse=3 WtCom= 9.99D-01 WtEn= 1.27D-03
 Coeff-Com: -0.164D-02 0.145D-02 0.274D-01 0.743D-01 0.276D+00 0.622D+00
 Coeff-En:   0.000D+00 0.000D+00 0.000D+00 0.000D+00 0.000D+00 0.100D+01
 Coeff:     -0.163D-02 0.145D-02 0.274D-01 0.742D-01 0.276D+00 0.623D+00
 Gap=     0.294 Goal=   None    Shift=    0.000
 RMSDP=1.61D-05 MaxDP=1.76D-03 DE=-1.55D-04 OVMax= 1.01D-03

 Cycle   7  Pass 1  IDiag  1:
 RMSU=  1.43D-05    CP:  9.37D-01  7.70D-01  1.01D+00  7.22D-01  7.48D-01
                    CP:  8.90D-01
 E= -1312.97292210815     Delta-E=       -0.000015211410 Rises=F Damp=F
 DIIS: error= 4.48D-05 at cycle   7 NSaved=   7.
 NSaved= 7 IEnMin= 7 EnMin= -1312.97292210815     IErMin= 7 ErrMin= 4.48D-05
 ErrMax= 4.48D-05  0.00D+00 EMaxC= 1.00D-01 BMatC= 2.12D-06 BMatP= 2.03D-05
 IDIUse=1 WtCom= 1.00D+00 WtEn= 0.00D+00
 Coeff-Com:  0.324D-03-0.138D-02-0.470D-02 0.208D-02 0.532D-01 0.273D+00
 Coeff-Com:  0.677D+00
 Coeff:      0.324D-03-0.138D-02-0.470D-02 0.208D-02 0.532D-01 0.273D+00
 Coeff:      0.677D+00
 Gap=     0.294 Goal=   None    Shift=    0.000
 RMSDP=4.97D-06 MaxDP=5.47D-04 DE=-1.52D-05 OVMax= 2.60D-04

 Cycle   8  Pass 1  IDiag  1:
 RMSU=  3.58D-06    CP:  9.37D-01  7.70D-01  1.01D+00  7.24D-01  7.59D-01
                    CP:  9.38D-01  9.18D-01
 E= -1312.97292380057     Delta-E=       -0.000001692415 Rises=F Damp=F
 DIIS: error= 1.36D-05 at cycle   8 NSaved=   8.
 NSaved= 8 IEnMin= 8 EnMin= -1312.97292380057     IErMin= 8 ErrMin= 1.36D-05
 ErrMax= 1.36D-05  0.00D+00 EMaxC= 1.00D-01 BMatC= 2.36D-07 BMatP= 2.12D-06
 IDIUse=1 WtCom= 1.00D+00 WtEn= 0.00D+00
 Coeff-Com:  0.342D-03-0.701D-03-0.598D-02-0.972D-02-0.191D-01 0.180D-01
 Coeff-Com:  0.271D+00 0.746D+00
 Coeff:      0.342D-03-0.701D-03-0.598D-02-0.972D-02-0.191D-01 0.180D-01
 Coeff:      0.271D+00 0.746D+00
 Gap=     0.294 Goal=   None    Shift=    0.000
 RMSDP=3.25D-06 MaxDP=4.93D-04 DE=-1.69D-06 OVMax= 1.66D-04

 Cycle   9  Pass 1  IDiag  1:
 RMSU=  1.74D-06    CP:  9.37D-01  7.69D-01  1.01D+00  7.25D-01  7.66D-01
                    CP:  9.74D-01  9.43D-01  9.37D-01
 E= -1312.97292401471     Delta-E=       -0.000000214142 Rises=F Damp=F
 DIIS: error= 3.48D-06 at cycle   9 NSaved=   9.
 NSaved= 9 IEnMin= 9 EnMin= -1312.97292401471     IErMin= 9 ErrMin= 3.48D-06
 ErrMax= 3.48D-06  0.00D+00 EMaxC= 1.00D-01 BMatC= 2.56D-08 BMatP= 2.36D-07
 IDIUse=1 WtCom= 1.00D+00 WtEn= 0.00D+00
 Coeff-Com:  0.107D-03-0.174D-03-0.214D-02-0.407D-02-0.116D-01-0.121D-01
 Coeff-Com:  0.575D-01 0.316D+00 0.657D+00
 Coeff:      0.107D-03-0.174D-03-0.214D-02-0.407D-02-0.116D-01-0.121D-01
 Coeff:      0.575D-01 0.316D+00 0.657D+00
 Gap=     0.294 Goal=   None    Shift=    0.000
 RMSDP=6.97D-07 MaxDP=5.52D-05 DE=-2.14D-07 OVMax= 4.61D-05

 Cycle  10  Pass 1  IDiag  1:
 RMSU=  4.56D-07    CP:  9.37D-01  7.69D-01  1.01D+00  7.25D-01  7.65D-01
                    CP:  9.77D-01  9.70D-01  1.00D+00  9.17D-01
 E= -1312.97292403802     Delta-E=       -0.000000023308 Rises=F Damp=F
 DIIS: error= 1.74D-06 at cycle  10 NSaved=  10.
 NSaved=10 IEnMin=10 EnMin= -1312.97292403802     IErMin=10 ErrMin= 1.74D-06
 ErrMax= 1.74D-06  0.00D+00 EMaxC= 1.00D-01 BMatC= 2.33D-09 BMatP= 2.56D-08
 IDIUse=1 WtCom= 1.00D+00 WtEn= 0.00D+00
 Coeff-Com: -0.318D-05 0.198D-04-0.968D-04-0.398D-03-0.214D-02-0.674D-02
 Coeff-Com: -0.128D-01 0.298D-01 0.223D+00 0.769D+00
 Coeff:     -0.318D-05 0.198D-04-0.968D-04-0.398D-03-0.214D-02-0.674D-02
 Coeff:     -0.128D-01 0.298D-01 0.223D+00 0.769D+00
 Gap=     0.294 Goal=   None    Shift=    0.000
 RMSDP=2.32D-07 MaxDP=4.02D-05 DE=-2.33D-08 OVMax= 2.72D-05

 Cycle  11  Pass 1  IDiag  1:
 RMSU=  1.53D-07    CP:  9.37D-01  7.69D-01  1.01D+00  7.25D-01  7.65D-01
                    CP:  9.78D-01  9.70D-01  1.03D+00  9.76D-01  1.12D+00
 E= -1312.97292404055     Delta-E=       -0.000000002534 Rises=F Damp=F
 DIIS: error= 8.86D-07 at cycle  11 NSaved=  11.
 NSaved=11 IEnMin=11 EnMin= -1312.97292404055     IErMin=11 ErrMin= 8.86D-07
 ErrMax= 8.86D-07  0.00D+00 EMaxC= 1.00D-01 BMatC= 7.74D-10 BMatP= 2.33D-09
 IDIUse=1 WtCom= 1.00D+00 WtEn= 0.00D+00
 Coeff-Com: -0.172D-04 0.359D-04 0.263D-03 0.379D-03 0.543D-03-0.168D-02
 Coeff-Com: -0.157D-01-0.315D-01 0.827D-02 0.409D+00 0.631D+00
 Coeff:     -0.172D-04 0.359D-04 0.263D-03 0.379D-03 0.543D-03-0.168D-02
 Coeff:     -0.157D-01-0.315D-01 0.827D-02 0.409D+00 0.631D+00
 Gap=     0.294 Goal=   None    Shift=    0.000
 RMSDP=1.09D-07 MaxDP=1.82D-05 DE=-2.53D-09 OVMax= 1.04D-05

 Cycle  12  Pass 1  IDiag  1:
 RMSU=  5.73D-08    CP:  9.37D-01  7.69D-01  1.01D+00  7.25D-01  7.66D-01
                    CP:  9.79D-01  9.71D-01  1.03D+00  1.00D+00  1.21D+00
                    CP:  9.13D-01
 E= -1312.97292404138     Delta-E=       -0.000000000827 Rises=F Damp=F
 DIIS: error= 2.03D-07 at cycle  12 NSaved=  12.
 NSaved=12 IEnMin=12 EnMin= -1312.97292404138     IErMin=12 ErrMin= 2.03D-07
 ErrMax= 2.03D-07  0.00D+00 EMaxC= 1.00D-01 BMatC= 7.18D-11 BMatP= 7.74D-10
 IDIUse=1 WtCom= 1.00D+00 WtEn= 0.00D+00
 Coeff-Com: -0.612D-05 0.116D-04 0.122D-03 0.213D-03 0.524D-03 0.379D-03
 Coeff-Com: -0.477D-02-0.168D-01-0.288D-01 0.696D-01 0.273D+00 0.707D+00
 Coeff:     -0.612D-05 0.116D-04 0.122D-03 0.213D-03 0.524D-03 0.379D-03
 Coeff:     -0.477D-02-0.168D-01-0.288D-01 0.696D-01 0.273D+00 0.707D+00
 Gap=     0.294 Goal=   None    Shift=    0.000
 RMSDP=3.20D-08 MaxDP=4.96D-06 DE=-8.27D-10 OVMax= 3.45D-06

 Cycle  13  Pass 1  IDiag  1:
 RMSU=  2.22D-08    CP:  9.37D-01  7.69D-01  1.01D+00  7.25D-01  7.66D-01
                    CP:  9.79D-01  9.71D-01  1.03D+00  1.01D+00  1.23D+00
                    CP:  9.91D-01  1.03D+00
 E= -1312.97292404146     Delta-E=       -0.000000000084 Rises=F Damp=F
 DIIS: error= 6.66D-08 at cycle  13 NSaved=  13.
 NSaved=13 IEnMin=13 EnMin= -1312.97292404146     IErMin=13 ErrMin= 6.66D-08
 ErrMax= 6.66D-08  0.00D+00 EMaxC= 1.00D-01 BMatC= 6.70D-12 BMatP= 7.18D-11
 IDIUse=1 WtCom= 1.00D+00 WtEn= 0.00D+00
 Coeff-Com:  0.504D-06-0.125D-05 0.534D-05 0.172D-04 0.771D-04 0.324D-03
 Coeff-Com:  0.409D-03-0.102D-02-0.101D-01-0.328D-01 0.888D-02 0.250D+00
 Coeff-Com:  0.784D+00
 Coeff:      0.504D-06-0.125D-05 0.534D-05 0.172D-04 0.771D-04 0.324D-03
 Coeff:      0.409D-03-0.102D-02-0.101D-01-0.328D-01 0.888D-02 0.250D+00
 Coeff:      0.784D+00
 Gap=     0.294 Goal=   None    Shift=    0.000
 RMSDP=1.20D-08 MaxDP=6.92D-07 DE=-8.37D-11 OVMax= 2.13D-06

 Cycle  14  Pass 1  IDiag  1:
 RMSU=  9.25D-09    CP:  9.37D-01  7.69D-01  1.01D+00  7.25D-01  7.66D-01
                    CP:  9.79D-01  9.71D-01  1.03D+00  1.01D+00  1.24D+00
                    CP:  1.02D+00  1.10D+00  9.48D-01
 E= -1312.97292404152     Delta-E=       -0.000000000059 Rises=F Damp=F
 DIIS: error= 2.44D-08 at cycle  14 NSaved=  14.
 NSaved=14 IEnMin=14 EnMin= -1312.97292404152     IErMin=14 ErrMin= 2.44D-08
 ErrMax= 2.44D-08  0.00D+00 EMaxC= 1.00D-01 BMatC= 1.10D-12 BMatP= 6.70D-12
 IDIUse=1 WtCom= 1.00D+00 WtEn= 0.00D+00
 Coeff-Com:  0.933D-06-0.189D-05-0.111D-04-0.157D-04-0.245D-04 0.104D-03
 Coeff-Com:  0.709D-03 0.146D-02-0.138D-02-0.240D-01-0.285D-01 0.238D-01
 Coeff-Com:  0.342D+00 0.686D+00
 Coeff:      0.933D-06-0.189D-05-0.111D-04-0.157D-04-0.245D-04 0.104D-03
 Coeff:      0.709D-03 0.146D-02-0.138D-02-0.240D-01-0.285D-01 0.238D-01
 Coeff:      0.342D+00 0.686D+00
 Gap=     0.294 Goal=   None    Shift=    0.000
 RMSDP=4.39D-09 MaxDP=4.31D-07 DE=-5.87D-11 OVMax= 3.54D-07

 SCF Done:  E(RM062X) =  -1312.97292404     A.U. after   14 cycles
            NFock= 14  Conv=0.44D-08     -V/T= 2.0033
 KE= 1.308660809472D+03 PE=-6.412426333978D+03 EE= 2.130525214452D+03
 Leave Link  502 at Sun Feb 19 15:14:22 2023, MaxMem=  6710886400 cpu:            3337.7 elap:             139.5
 (Enter /data0/home/software/g16/l601.exe)
 Copying SCF densities to generalized density rwf, IOpCl= 0 IROHF=0.

 **********************************************************************

            Population analysis using the SCF density.

 **********************************************************************

 Alpha  occ. eigenvalues --  -90.09345 -19.61343 -19.61323 -19.60310 -19.59719
 Alpha  occ. eigenvalues --  -19.59608 -19.58789 -19.54613 -14.87556 -14.87177
 Alpha  occ. eigenvalues --  -10.67939 -10.63355 -10.62779 -10.62680 -10.61363
 Alpha  occ. eigenvalues --  -10.58416 -10.58059  -8.42793  -6.35077  -6.35040
 Alpha  occ. eigenvalues --   -6.35010  -1.23631  -1.20089  -1.12723  -1.12623
 Alpha  occ. eigenvalues --   -1.10396  -1.09671  -1.09115  -1.08924  -1.05435
 Alpha  occ. eigenvalues --   -0.94162  -0.91069  -0.87293  -0.82714  -0.76784
 Alpha  occ. eigenvalues --   -0.73719  -0.71724  -0.67753  -0.65813  -0.61415
 Alpha  occ. eigenvalues --   -0.61185  -0.60270  -0.58653  -0.58053  -0.57696
 Alpha  occ. eigenvalues --   -0.57197  -0.56775  -0.55674  -0.55045  -0.54293
 Alpha  occ. eigenvalues --   -0.53794  -0.53658  -0.51446  -0.50203  -0.49697
 Alpha  occ. eigenvalues --   -0.47838  -0.47279  -0.47110  -0.45634  -0.45212
 Alpha  occ. eigenvalues --   -0.44334  -0.42501  -0.41816  -0.41223  -0.40051
 Alpha  occ. eigenvalues --   -0.39128  -0.38353  -0.37486  -0.36889  -0.36259
 Alpha  occ. eigenvalues --   -0.35652  -0.34360  -0.32815  -0.32166
 Alpha virt. eigenvalues --   -0.02781  -0.00622  -0.00371   0.00517   0.01306
 Alpha virt. eigenvalues --    0.01699   0.02096   0.02808   0.03365   0.04332
 Alpha virt. eigenvalues --    0.04923   0.04972   0.05367   0.05860   0.06937
 Alpha virt. eigenvalues --    0.07311   0.07858   0.08301   0.08765   0.09342
 Alpha virt. eigenvalues --    0.09858   0.10117   0.10887   0.11054   0.11826
 Alpha virt. eigenvalues --    0.12270   0.13181   0.13783   0.13927   0.14206
 Alpha virt. eigenvalues --    0.14740   0.15078   0.15214   0.15541   0.16181
 Alpha virt. eigenvalues --    0.16404   0.16645   0.16959   0.17039   0.17328
 Alpha virt. eigenvalues --    0.17899   0.18093   0.18572   0.19098   0.19462
 Alpha virt. eigenvalues --    0.19817   0.20187   0.20490   0.20859   0.21035
 Alpha virt. eigenvalues --    0.21583   0.21982   0.22501   0.22855   0.23293
 Alpha virt. eigenvalues --    0.23547   0.23911   0.24518   0.24845   0.25365
 Alpha virt. eigenvalues --    0.25528   0.25747   0.26362   0.26549   0.27242
 Alpha virt. eigenvalues --    0.27676   0.28247   0.28448   0.28970   0.29543
 Alpha virt. eigenvalues --    0.29711   0.30254   0.31016   0.31293   0.31802
 Alpha virt. eigenvalues --    0.31934   0.32835   0.32996   0.33590   0.34463
 Alpha virt. eigenvalues --    0.34817   0.35079   0.35485   0.35989   0.36374
 Alpha virt. eigenvalues --    0.36843   0.37146   0.37864   0.38844   0.39094
 Alpha virt. eigenvalues --    0.39389   0.39745   0.40449   0.41048   0.41727
 Alpha virt. eigenvalues --    0.42766   0.42962   0.43167   0.44321   0.44612
 Alpha virt. eigenvalues --    0.45229   0.46689   0.46897   0.48458   0.48698
 Alpha virt. eigenvalues --    0.49712   0.50666   0.50945   0.51982   0.52238
 Alpha virt. eigenvalues --    0.53248   0.54726   0.55310   0.56026   0.56811
 Alpha virt. eigenvalues --    0.57587   0.57931   0.59223   0.59726   0.60097
 Alpha virt. eigenvalues --    0.61144   0.61676   0.62427   0.63012   0.63384
 Alpha virt. eigenvalues --    0.63898   0.64123   0.65373   0.65767   0.66148
 Alpha virt. eigenvalues --    0.66856   0.67366   0.67786   0.68193   0.69126
 Alpha virt. eigenvalues --    0.69510   0.69896   0.70523   0.71449   0.72455
 Alpha virt. eigenvalues --    0.72905   0.73650   0.74205   0.74558   0.75500
 Alpha virt. eigenvalues --    0.76494   0.76637   0.77232   0.78242   0.79333
 Alpha virt. eigenvalues --    0.80272   0.81475   0.82116   0.83593   0.84857
 Alpha virt. eigenvalues --    0.86231   0.87286   0.88450   0.88558   0.90330
 Alpha virt. eigenvalues --    0.91607   0.91933   0.92867   0.93562   0.94096
 Alpha virt. eigenvalues --    0.95637   0.96739   0.98677   0.99748   1.00477
 Alpha virt. eigenvalues --    1.03168   1.04712   1.05192   1.05694   1.07004
 Alpha virt. eigenvalues --    1.07744   1.08554   1.09562   1.11347   1.11513
 Alpha virt. eigenvalues --    1.12796   1.13284   1.13769   1.14467   1.16742
 Alpha virt. eigenvalues --    1.16871   1.17333   1.17705   1.18341   1.18582
 Alpha virt. eigenvalues --    1.19655   1.20213   1.21134   1.21948   1.22502
 Alpha virt. eigenvalues --    1.23007   1.23309   1.23465   1.25002   1.25445
 Alpha virt. eigenvalues --    1.26179   1.26503   1.27261   1.28049   1.28146
 Alpha virt. eigenvalues --    1.28646   1.29219   1.29768   1.30681   1.31128
 Alpha virt. eigenvalues --    1.31490   1.32347   1.33546   1.34519   1.35101
 Alpha virt. eigenvalues --    1.35820   1.36267   1.36699   1.37698   1.39335
 Alpha virt. eigenvalues --    1.39576   1.40131   1.40320   1.41311   1.43137
 Alpha virt. eigenvalues --    1.43450   1.43995   1.44869   1.45989   1.46374
 Alpha virt. eigenvalues --    1.46733   1.47310   1.48763   1.49936   1.50497
 Alpha virt. eigenvalues --    1.51119   1.51728   1.52847   1.54514   1.55117
 Alpha virt. eigenvalues --    1.55711   1.57050   1.57478   1.59259   1.59553
 Alpha virt. eigenvalues --    1.61378   1.62612   1.63898   1.67405   1.68642
 Alpha virt. eigenvalues --    1.69859   1.70552   1.72344   1.72809   1.74455
 Alpha virt. eigenvalues --    1.75771   1.76367   1.77477   1.77859   1.78274
 Alpha virt. eigenvalues --    1.79005   1.79102   1.80599   1.81177   1.81354
 Alpha virt. eigenvalues --    1.82622   1.83923   1.84824   1.85697   1.86143
 Alpha virt. eigenvalues --    1.87279   1.87582   1.88982   1.90589   1.93105
 Alpha virt. eigenvalues --    1.93609   1.95493   1.97533   1.99547   2.01862
 Alpha virt. eigenvalues --    2.03341   2.04166   2.05550   2.06022   2.06532
 Alpha virt. eigenvalues --    2.07257   2.08145   2.08848   2.09704   2.10358
 Alpha virt. eigenvalues --    2.11264   2.11788   2.14040   2.15222   2.16162
 Alpha virt. eigenvalues --    2.16960   2.18512   2.20486   2.21535   2.22442
 Alpha virt. eigenvalues --    2.22979   2.24249   2.25064   2.26250   2.26840
 Alpha virt. eigenvalues --    2.27291   2.28715   2.29869   2.32301   2.33386
 Alpha virt. eigenvalues --    2.33609   2.34664   2.35078   2.35687   2.37841
 Alpha virt. eigenvalues --    2.38409   2.40662   2.41900   2.42427   2.44549
 Alpha virt. eigenvalues --    2.45677   2.46237   2.47474   2.49276   2.50193
 Alpha virt. eigenvalues --    2.51653   2.53076   2.53618   2.56625   2.60198
 Alpha virt. eigenvalues --    2.61624   2.64149   2.66324   2.67531   2.68978
 Alpha virt. eigenvalues --    2.70279   2.70522   2.72276   2.74792   2.75210
 Alpha virt. eigenvalues --    2.76687   2.77207   2.79153   2.81007   2.82099
 Alpha virt. eigenvalues --    2.85089   2.86566   2.86760   2.89463   2.91205
 Alpha virt. eigenvalues --    2.92258   2.93714   2.94758   2.95590   2.97449
 Alpha virt. eigenvalues --    2.98881   2.99321   3.00101   3.01711   3.02340
 Alpha virt. eigenvalues --    3.03168   3.06310   3.08431   3.09779   3.14336
 Alpha virt. eigenvalues --    3.16681   3.17491   3.19611   3.20985   3.22336
 Alpha virt. eigenvalues --    3.25502   3.25671   3.28236   3.30283   3.31085
 Alpha virt. eigenvalues --    3.32298   3.33587   3.34489   3.36833   3.40205
 Alpha virt. eigenvalues --    3.41243   3.44104   3.45669   3.47130   3.48104
 Alpha virt. eigenvalues --    3.49107   3.50134   3.52376   3.54040   3.54744
 Alpha virt. eigenvalues --    3.55325   3.58028   3.58492   3.61382   3.62351
 Alpha virt. eigenvalues --    3.62641   3.64927   3.65503   3.67024   3.67769
 Alpha virt. eigenvalues --    3.69757   3.70869   3.72348   3.80542   3.83254
 Alpha virt. eigenvalues --    3.86187   3.89520   3.90980   3.92172   3.96390
 Alpha virt. eigenvalues --    4.00029   4.03468   4.05941   4.14703   4.14991
 Alpha virt. eigenvalues --    4.15715   4.18312   4.19306   4.23601   4.37178
 Alpha virt. eigenvalues --    4.48395   4.52961   4.95377   4.99911   5.02834
 Alpha virt. eigenvalues --    5.05015   5.06260   5.10469   5.13944   5.17810
 Alpha virt. eigenvalues --    5.18197   5.19149   5.20709   5.22037   5.22385
 Alpha virt. eigenvalues --    5.23497   5.27784   5.30104   5.30869   5.36176
 Alpha virt. eigenvalues --    5.39832   5.42020   5.44629   5.46612   5.52929
 Alpha virt. eigenvalues --    5.54836   5.56497   5.58888   5.60266   5.62261
 Alpha virt. eigenvalues --    5.63442   5.64393   5.84132   5.96874   5.97737
 Alpha virt. eigenvalues --    5.98709   6.03270   6.79047   6.80675   6.81639
 Alpha virt. eigenvalues --    6.82697   6.82863   6.82958   6.83523   6.84078
 Alpha virt. eigenvalues --    6.87336   6.87644   6.88149   6.88820   6.89844
 Alpha virt. eigenvalues --    6.90579   6.92130   6.93636   6.94419   6.94980
 Alpha virt. eigenvalues --    6.96226   6.96988   6.99316   7.00938   7.01463
 Alpha virt. eigenvalues --    7.02351   7.08930   7.09652   7.16222   7.17829
 Alpha virt. eigenvalues --    7.19546   7.21059   7.27067   7.29092   7.32643
 Alpha virt. eigenvalues --    7.40352   7.42760   8.60500  17.75405  17.77722
 Alpha virt. eigenvalues --   17.85157  23.90656  23.94865  23.99175  24.02125
 Alpha virt. eigenvalues --   24.03865  24.10122  24.16383  35.58783  35.67393
 Alpha virt. eigenvalues --   50.05549  50.05693  50.06752  50.08857  50.11452
 Alpha virt. eigenvalues --   50.12236  50.17842 189.91584
          Condensed to atoms (all electrons):
               1          2          3          4          5          6
     1  C    6.543423  -0.765232  -0.990623   0.668055   0.373385  -0.018503
     2  C   -0.765232   7.220492  -0.150434  -0.172053   0.004926   0.403020
     3  C   -0.990623  -0.150434   8.726658  -0.657925   0.022436  -0.013269
     4  N    0.668055  -0.172053  -0.657925   6.510413  -0.042623   0.017438
     5  H    0.373385   0.004926   0.022436  -0.042623   0.478597  -0.000992
     6  H   -0.018503   0.403020  -0.013269   0.017438  -0.000992   0.445769
     7  H    0.025277   0.004963   0.282103   0.006896  -0.000077   0.000071
     8  C   -0.051991   0.000308  -0.249672   0.201685  -0.000274   0.001055
     9  H    0.007723  -0.013495  -0.017745  -0.047075   0.000214   0.000012
    10  H   -0.009452  -0.007112   0.029177  -0.040113   0.000144   0.000010
    11  H   -0.021307   0.034405   0.026541  -0.063151   0.002461  -0.000035
    12  N    0.179815   0.054176  -0.029094   0.089095   0.002956  -0.039252
    13  C   -0.021233  -0.002701  -0.259210  -0.010693  -0.000797   0.006777
    14  H    0.008387  -0.021832  -0.001759  -0.001098  -0.000012   0.000677
    15  H    0.000891  -0.008387  -0.023092   0.011515   0.000012   0.000161
    16  C    0.098217  -0.321143   0.161405  -0.013287   0.000274   0.005148
    17  H    0.000198   0.007954  -0.003250  -0.000014  -0.000001  -0.000272
    18  H    0.000216  -0.021929  -0.019570   0.004211   0.000029   0.004443
    19  C   -0.139256   0.199479   0.280717  -0.053782   0.000089  -0.010188
    20  H    0.000427   0.000608   0.000663   0.000010  -0.000000   0.000005
    21  H    0.001001  -0.004950  -0.003660   0.000693   0.000000   0.000039
    22  S    0.105658  -0.056079  -0.409794   0.091909   0.000554   0.009729
    23  O    0.000427   0.016342  -0.054494   0.007940  -0.000002   0.000043
    24  O    0.013584   0.017485  -0.033718  -0.014982  -0.000525  -0.000674
    25  O    0.049830  -0.068709  -0.223676   0.072176  -0.000137   0.000275
    26  O    0.000896  -0.004111   0.010531  -0.006572   0.000014   0.000000
    27  H   -0.000971   0.000537   0.001567  -0.000010   0.000000   0.000000
    28  H   -0.000177  -0.002949   0.023924  -0.008479   0.000002   0.000001
    29  O    0.004546   0.013442  -0.091132   0.025487  -0.000015  -0.000004
    30  H   -0.000738  -0.018786   0.102882  -0.033894   0.000020   0.000015
    31  H   -0.000765  -0.001194   0.015035  -0.004480   0.000001   0.000000
    32  O    0.001024   0.000904  -0.010873   0.000531  -0.000001  -0.000002
    33  H   -0.000344  -0.000075   0.002153  -0.000118   0.000000   0.000001
    34  H    0.000313  -0.000066  -0.001334   0.000281  -0.000000   0.000000
    35  O   -0.016091  -0.015845   0.036256  -0.019547  -0.001444  -0.034608
    36  H   -0.001052   0.031974  -0.018199   0.000829   0.000143   0.001324
    37  H   -0.013583   0.029748   0.001713  -0.000541  -0.000316  -0.000765
               7          8          9         10         11         12
     1  C    0.025277  -0.051991   0.007723  -0.009452  -0.021307   0.179815
     2  C    0.004963   0.000308  -0.013495  -0.007112   0.034405   0.054176
     3  C    0.282103  -0.249672  -0.017745   0.029177   0.026541  -0.029094
     4  N    0.006896   0.201685  -0.047075  -0.040113  -0.063151   0.089095
     5  H   -0.000077  -0.000274   0.000214   0.000144   0.002461   0.002956
     6  H    0.000071   0.001055   0.000012   0.000010  -0.000035  -0.039252
     7  H    0.428593   0.011774   0.000828  -0.000391  -0.000073  -0.014087
     8  C    0.011774   5.353142   0.439528   0.387635   0.392866  -0.007538
     9  H    0.000828   0.439528   0.488263  -0.023598  -0.018636  -0.000745
    10  H   -0.000391   0.387635  -0.023598   0.418386  -0.018377   0.001547
    11  H   -0.000073   0.392866  -0.018636  -0.018377   0.499338  -0.004329
    12  N   -0.014087  -0.007538  -0.000745   0.001547  -0.004329   6.389148
    13  C    0.004638  -0.010049  -0.000264  -0.001485   0.000800   0.109419
    14  H    0.000416  -0.000008  -0.000010   0.000004  -0.000003  -0.043691
    15  H    0.004115   0.001700  -0.000001   0.000003  -0.000001  -0.049317
    16  C   -0.002495  -0.008319   0.000311   0.001018   0.000061   0.018179
    17  H   -0.000017   0.000068  -0.000000  -0.000000  -0.000000  -0.000052
    18  H    0.000267   0.000299   0.000000  -0.000004  -0.000001  -0.002277
    19  C   -0.011349  -0.008421  -0.000143  -0.000373   0.000008   0.046752
    20  H    0.000011   0.000006   0.000000  -0.000000  -0.000000  -0.000264
    21  H    0.000161   0.000045   0.000000   0.000000  -0.000000   0.000286
    22  S    0.021440   0.002019   0.000641   0.004653  -0.000295  -0.048863
    23  O    0.000985   0.004696  -0.000007  -0.000014  -0.000007  -0.016239
    24  O    0.002022  -0.001770  -0.000069  -0.000690  -0.000040   0.072539
    25  O   -0.008563   0.015309  -0.000459  -0.002385   0.000029   0.031877
    26  O   -0.000066  -0.002863   0.000199   0.007323   0.000026   0.000350
    27  H   -0.000043   0.001128  -0.000015  -0.000712  -0.000023  -0.000215
    28  H   -0.000139  -0.012001   0.000253   0.006350   0.000072  -0.000071
    29  O    0.005590   0.000733  -0.001775  -0.006648   0.000699   0.007422
    30  H   -0.001364  -0.017247   0.000831   0.005937  -0.000047  -0.001125
    31  H   -0.001068  -0.000480  -0.000079   0.002022  -0.000001  -0.000084
    32  O    0.000081  -0.002711   0.000003   0.000219   0.000014   0.001436
    33  H   -0.000015   0.000524   0.000000  -0.000003  -0.000001  -0.000278
    34  H    0.000004   0.000551  -0.000000  -0.000022  -0.000003  -0.000192
    35  O   -0.000297  -0.006769   0.000009   0.000037   0.000017   0.015132
    36  H    0.000101   0.001419  -0.000001  -0.000003  -0.000011  -0.005137
    37  H    0.000004  -0.000075  -0.000001   0.000004   0.000015  -0.004400
              13         14         15         16         17         18
     1  C   -0.021233   0.008387   0.000891   0.098217   0.000198   0.000216
     2  C   -0.002701  -0.021832  -0.008387  -0.321143   0.007954  -0.021929
     3  C   -0.259210  -0.001759  -0.023092   0.161405  -0.003250  -0.019570
     4  N   -0.010693  -0.001098   0.011515  -0.013287  -0.000014   0.004211
     5  H   -0.000797  -0.000012   0.000012   0.000274  -0.000001   0.000029
     6  H    0.006777   0.000677   0.000161   0.005148  -0.000272   0.004443
     7  H    0.004638   0.000416   0.004115  -0.002495  -0.000017   0.000267
     8  C   -0.010049  -0.000008   0.001700  -0.008319   0.000068   0.000299
     9  H   -0.000264  -0.000010  -0.000001   0.000311  -0.000000   0.000000
    10  H   -0.001485   0.000004   0.000003   0.001018  -0.000000  -0.000004
    11  H    0.000800  -0.000003  -0.000001   0.000061  -0.000000  -0.000001
    12  N    0.109419  -0.043691  -0.049317   0.018179  -0.000052  -0.002277
    13  C    6.140191   0.449754   0.466001  -0.410492  -0.029208  -0.011714
    14  H    0.449754   0.504567  -0.023389  -0.065434  -0.007148  -0.000188
    15  H    0.466001  -0.023389   0.456954  -0.046827   0.000796   0.004036
    16  C   -0.410492  -0.065434  -0.046827   6.906236   0.394211   0.406437
    17  H   -0.029208  -0.007148   0.000796   0.394211   0.513676  -0.029310
    18  H   -0.011714  -0.000188   0.004036   0.406437  -0.029310   0.500986
    19  C    0.118818   0.006256  -0.017860  -1.298903  -0.003253  -0.032478
    20  H    0.014241  -0.000069  -0.000073  -0.052254  -0.005363  -0.005124
    21  H   -0.015518  -0.000065   0.002314  -0.024971  -0.005582   0.004902
    22  S   -0.142210   0.005955   0.015461   0.459401  -0.006592   0.016722
    23  O    0.005482   0.000022   0.000436  -0.053507  -0.000275   0.001504
    24  O    0.058860   0.000116   0.000955  -0.052216  -0.000097   0.002937
    25  O    0.012451   0.001576   0.001186   0.006722   0.000239  -0.000712
    26  O    0.000564  -0.000000  -0.000000   0.000581  -0.000000  -0.000001
    27  H    0.000183  -0.000000  -0.000000  -0.000843   0.000000   0.000001
    28  H   -0.000135  -0.000000  -0.000008   0.001004  -0.000000  -0.000001
    29  O    0.008640   0.000010   0.000490  -0.012904  -0.000000   0.000060
    30  H   -0.012864   0.000007  -0.000672   0.015102   0.000008  -0.000111
    31  H   -0.001484   0.000000  -0.000011   0.002006  -0.000000  -0.000001
    32  O   -0.000322   0.000000  -0.000004   0.006354  -0.000000  -0.000026
    33  H   -0.000055  -0.000000   0.000000  -0.001942   0.000000   0.000007
    34  H   -0.000055   0.000000   0.000001   0.000307  -0.000000   0.000002
    35  O    0.007639  -0.000032  -0.000297  -0.024828   0.000231   0.003205
    36  H   -0.003849  -0.000035   0.000098   0.009826   0.000189   0.005405
    37  H    0.000970  -0.000007   0.000002   0.003197  -0.000009  -0.001308
              19         20         21         22         23         24
     1  C   -0.139256   0.000427   0.001001   0.105658   0.000427   0.013584
     2  C    0.199479   0.000608  -0.004950  -0.056079   0.016342   0.017485
     3  C    0.280717   0.000663  -0.003660  -0.409794  -0.054494  -0.033718
     4  N   -0.053782   0.000010   0.000693   0.091909   0.007940  -0.014982
     5  H    0.000089  -0.000000   0.000000   0.000554  -0.000002  -0.000525
     6  H   -0.010188   0.000005   0.000039   0.009729   0.000043  -0.000674
     7  H   -0.011349   0.000011   0.000161   0.021440   0.000985   0.002022
     8  C   -0.008421   0.000006   0.000045   0.002019   0.004696  -0.001770
     9  H   -0.000143   0.000000   0.000000   0.000641  -0.000007  -0.000069
    10  H   -0.000373  -0.000000   0.000000   0.004653  -0.000014  -0.000690
    11  H    0.000008  -0.000000  -0.000000  -0.000295  -0.000007  -0.000040
    12  N    0.046752  -0.000264   0.000286  -0.048863  -0.016239   0.072539
    13  C    0.118818   0.014241  -0.015518  -0.142210   0.005482   0.058860
    14  H    0.006256  -0.000069  -0.000065   0.005955   0.000022   0.000116
    15  H   -0.017860  -0.000073   0.002314   0.015461   0.000436   0.000955
    16  C   -1.298903  -0.052254  -0.024971   0.459401  -0.053507  -0.052216
    17  H   -0.003253  -0.005363  -0.005582  -0.006592  -0.000275  -0.000097
    18  H   -0.032478  -0.005124   0.004902   0.016722   0.001504   0.002937
    19  C    8.001763   0.415392   0.422721  -1.047753  -0.162450  -0.087974
    20  H    0.415392   0.457610  -0.025683  -0.032043   0.012404   0.000252
    21  H    0.422721  -0.025683   0.453984  -0.028842   0.007354  -0.003336
    22  S   -1.047753  -0.032043  -0.028842  14.774845   0.478312   0.334876
    23  O   -0.162450   0.012404   0.007354   0.478312   8.328079  -0.061187
    24  O   -0.087974   0.000252  -0.003336   0.334876  -0.061187   8.371809
    25  O   -0.103103   0.000238   0.008171   0.234684  -0.034376  -0.013750
    26  O   -0.001855   0.000002   0.000005   0.014691  -0.004065  -0.004920
    27  H    0.002098  -0.000001  -0.000002  -0.003906  -0.001343   0.000130
    28  H   -0.000037  -0.000000  -0.000001   0.011449  -0.000951  -0.001272
    29  O   -0.001146   0.000007   0.000116  -0.047875   0.006622   0.002781
    30  H   -0.003663   0.000054  -0.000162   0.077816  -0.001472  -0.007955
    31  H    0.000396  -0.000001   0.000020   0.005901  -0.001445  -0.000511
    32  O   -0.008968   0.000031   0.000056   0.060330  -0.017126  -0.004109
    33  H    0.008642  -0.000032  -0.000048  -0.011483   0.033649   0.004366
    34  H   -0.003291   0.000017  -0.000002  -0.011659   0.003145   0.006856
    35  O    0.036250   0.000196  -0.000093  -0.048049  -0.001539  -0.024649
    36  H   -0.023559  -0.000192  -0.000025   0.026773   0.002074   0.069518
    37  H   -0.002875   0.000004   0.000003   0.001046   0.000073   0.001514
              25         26         27         28         29         30
     1  C    0.049830   0.000896  -0.000971  -0.000177   0.004546  -0.000738
     2  C   -0.068709  -0.004111   0.000537  -0.002949   0.013442  -0.018786
     3  C   -0.223676   0.010531   0.001567   0.023924  -0.091132   0.102882
     4  N    0.072176  -0.006572  -0.000010  -0.008479   0.025487  -0.033894
     5  H   -0.000137   0.000014   0.000000   0.000002  -0.000015   0.000020
     6  H    0.000275   0.000000   0.000000   0.000001  -0.000004   0.000015
     7  H   -0.008563  -0.000066  -0.000043  -0.000139   0.005590  -0.001364
     8  C    0.015309  -0.002863   0.001128  -0.012001   0.000733  -0.017247
     9  H   -0.000459   0.000199  -0.000015   0.000253  -0.001775   0.000831
    10  H   -0.002385   0.007323  -0.000712   0.006350  -0.006648   0.005937
    11  H    0.000029   0.000026  -0.000023   0.000072   0.000699  -0.000047
    12  N    0.031877   0.000350  -0.000215  -0.000071   0.007422  -0.001125
    13  C    0.012451   0.000564   0.000183  -0.000135   0.008640  -0.012864
    14  H    0.001576  -0.000000  -0.000000  -0.000000   0.000010   0.000007
    15  H    0.001186  -0.000000  -0.000000  -0.000008   0.000490  -0.000672
    16  C    0.006722   0.000581  -0.000843   0.001004  -0.012904   0.015102
    17  H    0.000239  -0.000000   0.000000  -0.000000  -0.000000   0.000008
    18  H   -0.000712  -0.000001   0.000001  -0.000001   0.000060  -0.000111
    19  C   -0.103103  -0.001855   0.002098  -0.000037  -0.001146  -0.003663
    20  H    0.000238   0.000002  -0.000001  -0.000000   0.000007   0.000054
    21  H    0.008171   0.000005  -0.000002  -0.000001   0.000116  -0.000162
    22  S    0.234684   0.014691  -0.003906   0.011449  -0.047875   0.077816
    23  O   -0.034376  -0.004065  -0.001343  -0.000951   0.006622  -0.001472
    24  O   -0.013750  -0.004920   0.000130  -0.001272   0.002781  -0.007955
    25  O    8.775238  -0.002414   0.001953  -0.006284   0.043034  -0.026714
    26  O   -0.002414   8.081566   0.310420   0.303888   0.011159  -0.005821
    27  H    0.001953   0.310420   0.351472  -0.036520   0.012348  -0.003787
    28  H   -0.006284   0.303888  -0.036520   0.403945  -0.055505   0.016990
    29  O    0.043034   0.011159   0.012348  -0.055505   8.398793   0.146255
    30  H   -0.026714  -0.005821  -0.003787   0.016990   0.146255   0.382027
    31  H   -0.002918  -0.007388  -0.001261   0.003472   0.243686   0.005995
    32  O   -0.008562   0.006681  -0.014074   0.010177  -0.009459   0.005484
    33  H    0.003776  -0.007128   0.006561  -0.001910   0.002474  -0.000931
    34  H   -0.000920  -0.006049   0.002261  -0.001244   0.000933  -0.000590
    35  O    0.000256   0.000061  -0.000002  -0.000006  -0.000029   0.000065
    36  H   -0.000002  -0.000085  -0.000005   0.000006   0.000028  -0.000074
    37  H    0.000098   0.000001   0.000000   0.000000  -0.000001  -0.000001
              31         32         33         34         35         36
     1  C   -0.000765   0.001024  -0.000344   0.000313  -0.016091  -0.001052
     2  C   -0.001194   0.000904  -0.000075  -0.000066  -0.015845   0.031974
     3  C    0.015035  -0.010873   0.002153  -0.001334   0.036256  -0.018199
     4  N   -0.004480   0.000531  -0.000118   0.000281  -0.019547   0.000829
     5  H    0.000001  -0.000001   0.000000  -0.000000  -0.001444   0.000143
     6  H    0.000000  -0.000002   0.000001   0.000000  -0.034608   0.001324
     7  H   -0.001068   0.000081  -0.000015   0.000004  -0.000297   0.000101
     8  C   -0.000480  -0.002711   0.000524   0.000551  -0.006769   0.001419
     9  H   -0.000079   0.000003   0.000000  -0.000000   0.000009  -0.000001
    10  H    0.002022   0.000219  -0.000003  -0.000022   0.000037  -0.000003
    11  H   -0.000001   0.000014  -0.000001  -0.000003   0.000017  -0.000011
    12  N   -0.000084   0.001436  -0.000278  -0.000192   0.015132  -0.005137
    13  C   -0.001484  -0.000322  -0.000055  -0.000055   0.007639  -0.003849
    14  H    0.000000   0.000000  -0.000000   0.000000  -0.000032  -0.000035
    15  H   -0.000011  -0.000004   0.000000   0.000001  -0.000297   0.000098
    16  C    0.002006   0.006354  -0.001942   0.000307  -0.024828   0.009826
    17  H   -0.000000  -0.000000   0.000000  -0.000000   0.000231   0.000189
    18  H   -0.000001  -0.000026   0.000007   0.000002   0.003205   0.005405
    19  C    0.000396  -0.008968   0.008642  -0.003291   0.036250  -0.023559
    20  H   -0.000001   0.000031  -0.000032   0.000017   0.000196  -0.000192
    21  H    0.000020   0.000056  -0.000048  -0.000002  -0.000093  -0.000025
    22  S    0.005901   0.060330  -0.011483  -0.011659  -0.048049   0.026773
    23  O   -0.001445  -0.017126   0.033649   0.003145  -0.001539   0.002074
    24  O   -0.000511  -0.004109   0.004366   0.006856  -0.024649   0.069518
    25  O   -0.002918  -0.008562   0.003776  -0.000920   0.000256  -0.000002
    26  O   -0.007388   0.006681  -0.007128  -0.006049   0.000061  -0.000085
    27  H   -0.001261  -0.014074   0.006561   0.002261  -0.000002  -0.000005
    28  H    0.003472   0.010177  -0.001910  -0.001244  -0.000006   0.000006
    29  O    0.243686  -0.009459   0.002474   0.000933  -0.000029   0.000028
    30  H    0.005995   0.005484  -0.000931  -0.000590   0.000065  -0.000074
    31  H    0.432276   0.000472  -0.000177  -0.000076   0.000004  -0.000003
    32  O    0.000472   7.947554   0.329286   0.317774  -0.000187   0.000359
    33  H   -0.000177   0.329286   0.306333  -0.019451   0.000031  -0.000070
    34  H   -0.000076   0.317774  -0.019451   0.436804  -0.000000   0.000048
    35  O    0.000004  -0.000187   0.000031  -0.000000   8.068838   0.273957
    36  H   -0.000003   0.000359  -0.000070   0.000048   0.273957   0.343475
    37  H   -0.000000   0.000005   0.000000  -0.000000   0.290135  -0.024311
              37
     1  C   -0.013583
     2  C    0.029748
     3  C    0.001713
     4  N   -0.000541
     5  H   -0.000316
     6  H   -0.000765
     7  H    0.000004
     8  C   -0.000075
     9  H   -0.000001
    10  H    0.000004
    11  H    0.000015
    12  N   -0.004400
    13  C    0.000970
    14  H   -0.000007
    15  H    0.000002
    16  C    0.003197
    17  H   -0.000009
    18  H   -0.001308
    19  C   -0.002875
    20  H    0.000004
    21  H    0.000003
    22  S    0.001046
    23  O    0.000073
    24  O    0.001514
    25  O    0.000098
    26  O    0.000001
    27  H    0.000000
    28  H    0.000000
    29  O   -0.000001
    30  H   -0.000001
    31  H   -0.000000
    32  O    0.000005
    33  H    0.000000
    34  H   -0.000000
    35  O    0.290135
    36  H   -0.024311
    37  H    0.453606
 Mulliken charges:
               1
     1  C   -0.031974
     2  C   -0.383680
     3  C   -0.461238
     4  N    0.481273
     5  H    0.160960
     6  H    0.222552
     7  H    0.239704
     8  C   -0.436300
     9  H    0.185303
    10  H    0.246914
    11  H    0.168986
    12  N    0.247122
    13  C   -0.471090
    14  H    0.187032
    15  H    0.202809
    16  C   -0.105631
    17  H    0.172874
    18  H    0.169088
    19  C   -0.516702
    20  H    0.218921
    21  H    0.211071
    22  S    1.140580
    23  O   -0.499091
    24  O   -0.646158
    25  O   -0.755433
    26  O   -0.695619
    27  H    0.373076
    28  H    0.346157
    29  O   -0.708864
    30  H    0.378532
    31  H    0.312143
    32  O   -0.612351
    33  H    0.346256
    34  H    0.275658
    35  O   -0.538004
    36  H    0.309066
    37  H    0.266056
 Sum of Mulliken charges =  -0.00000
 Mulliken charges with hydrogens summed into heavy atoms:
               1
     1  C    0.128986
     2  C   -0.161127
     3  C   -0.221534
     4  N    0.481273
     8  C    0.164903
    12  N    0.247122
    13  C   -0.081249
    16  C    0.236331
    19  C   -0.086710
    22  S    1.140580
    23  O   -0.499091
    24  O   -0.646158
    25  O   -0.755433
    26  O    0.023614
    29  O   -0.018189
    32  O    0.009564
    35  O    0.037118
         Mulliken charges condensed to fragments:
      1     -0.052106
      2      0.023614
      3     -0.018189
      4      0.009564
      5      0.037118
 Electronic spatial extent (au):  <R**2>=         170960.9235
 Charge=             -0.0000 electrons
 Dipole moment (field-independent basis, Debye):
    X=              4.4076    Y=             -1.0934    Z=             10.8475  Tot=             11.7597
 Quadrupole moment (field-independent basis, Debye-Ang):
   XX=            -31.6520   YY=           -121.1892   ZZ=             98.5395
   XY=             27.2828   XZ=            141.9172   YZ=            102.3349
 Traceless Quadrupole moment (field-independent basis, Debye-Ang):
   XX=            -13.5515   YY=           -103.0886   ZZ=            116.6401
   XY=             27.2828   XZ=            141.9172   YZ=            102.3349
 Octapole moment (field-independent basis, Debye-Ang**2):
  XXX=          -2350.5843  YYY=          -3466.6626  ZZZ=           -312.1213  XYY=           -860.3090
  XXY=           -585.1782  XXZ=            570.8133  XZZ=           1252.9994  YZZ=            931.4175
  YYZ=             -8.0762  XYZ=           1322.8173
 Hexadecapole moment (field-independent basis, Debye-Ang**3):
 XXXX=         -59483.3779 YYYY=         -72362.4246 ZZZZ=         -30402.7273 XXXY=         -27966.1384
 XXXZ=         -15862.8332 YYYX=         -31322.6665 YYYZ=         -21564.5859 ZZZX=          -1291.7809
 ZZZY=          -3810.6394 XXYY=         -18589.8623 XXZZ=           2778.0599 YYZZ=          -1439.8447
 XXYZ=           3991.7296 YYXZ=           2661.8996 ZZXY=          11821.8813
 N-N= 1.660267386013D+03 E-N=-6.412426338887D+03  KE= 1.308660809472D+03
 No NMR shielding tensors so no spin-rotation constants.
 Leave Link  601 at Sun Feb 19 15:14:22 2023, MaxMem=  6710886400 cpu:               4.2 elap:               0.2
 (Enter /data0/home/software/g16/l122.exe)
 CPIOFr:  IOpCl= 0 IRwI=-1 IRwCP=  731 ICalc= -1 LCPTot=      530053 Len1MO=     1390697 IndFrg=      530053
 CPIOFr:  IOpCl= 0 IRwI=-1 IRwCP=  731 ICalc=  0 LCPTot=      530053 Len1MO=     1390697 IndFrg=     1920750
 Counterpoise: doing calculation for fragment   1 using the basis set of the full-system, NewBq=T
 Leave Link  122 at Sun Feb 19 15:14:22 2023, MaxMem=  6710886400 cpu:               0.6 elap:               0.0
 (Enter /data0/home/software/g16/l301.exe)
 Basis read from rwf:  (5D, 7F)
 No pseudopotential information found on rwf file.
   587 basis functions,   888 primitive gaussians,   621 cartesian basis functions
    54 alpha electrons       54 beta electrons
       nuclear repulsion energy      1025.4536013726 Hartrees.
 IExCor= 4336 DFT=T Ex+Corr=M062X ExCW=0 ScaHFX=  0.540000
 ScaDFX=  1.000000  1.000000  1.000000  1.000000 ScalE2=  1.000000  1.000000
 IRadAn=      5 IRanWt=     -1 IRanGd=            0 ICorTp=0 IEmpDi=131
 NAtoms=   37 NActive=   37 NUniq=   37 SFac= 1.00D+00 NAtFMM=   60 NAOKFM=F Big=F
 Integral buffers will be    131072 words long.
 Raffenetti 2 integral format.
 Two-electron integral symmetry is turned off.
 R6Disp:  Grimme-D3 Dispersion energy=       -0.0012054933 Hartrees.
 Nuclear repulsion after empirical dispersion term =     1025.4523958794 Hartrees.
 No density basis found on file   718.
 Leave Link  301 at Sun Feb 19 15:14:22 2023, MaxMem=  6710886400 cpu:               1.3 elap:               0.1
 (Enter /data0/home/software/g16/l302.exe)
 NPDir=0 NMtPBC=     1 NCelOv=     1 NCel=       1 NClECP=     1 NCelD=      1
         NCelK=      1 NCelE2=     1 NClLst=     1 CellRange=     0.0.
 One-electron integrals computed using PRISM.
 NBasis=   587 RedAO= T EigKep=  9.00D-06  NBF=   587
 NBsUse=   587 1.00D-06 EigRej= -1.00D+00 NBFU=   587
 Precomputing XC quadrature grid using
 IXCGrd= 4 IRadAn=           5 IRanWt=          -1 IRanGd=           0 AccXCQ= 0.00D+00.
 Generated NRdTot=       0 NPtTot=           0 NUsed=           0 NTot=          32
 NSgBfM=   618   617   617   617   618 MxSgAt=    37 MxSgA2=    37.
 Leave Link  302 at Sun Feb 19 15:14:23 2023, MaxMem=  6710886400 cpu:              16.3 elap:               0.7
 (Enter /data0/home/software/g16/l303.exe)
 DipDrv:  MaxL=1.
 Leave Link  303 at Sun Feb 19 15:14:23 2023, MaxMem=  6710886400 cpu:               1.5 elap:               0.1
 (Enter /data0/home/software/g16/l401.exe)
 ExpMin= 4.05D-02 ExpMax= 9.34D+04 ExpMxC= 3.17D+03 IAcc=3 IRadAn=         5 AccDes= 0.00D+00
 Harris functional with IExCor= 1009 and IRadAn=       5 diagonalized for initial guess.
 HarFok:  IExCor= 1009 AccDes= 0.00D+00 IRadAn=         5 IDoV= 1 UseB2=F ITyADJ=14
 ICtDFT=  3500011 ScaDFX=  1.000000  1.000000  1.000000  1.000000
 FoFCou: FMM=F IPFlag=           0 FMFlag=      100000 FMFlg1=           0
         NFxFlg=           0 DoJE=T BraDBF=F KetDBF=T FulRan=T
         wScrn=  0.000000 ICntrl=       500 IOpCl=  0 I1Cent=   200000004 NGrid=           0
         NMat0=    1 NMatS0=      1 NMatT0=    0 NMatD0=    1 NMtDS0=    0 NMtDT0=    0
 Symmetry not used in FoFCou.
 Harris En= -1006.81004875347    
 JPrj=0 DoOrth=F DoCkMO=F.
 Leave Link  401 at Sun Feb 19 15:14:26 2023, MaxMem=  6710886400 cpu:              63.8 elap:               2.7
 (Enter /data0/home/software/g16/l502.exe)
 Two-electron integral symmetry not used.
 Closed shell SCF:
 Using DIIS extrapolation, IDIIS=  1040.
 NGot=  6710886400 LenX=  6710095790 LenY=  6709709528
 Requested convergence on RMS density matrix=1.00D-08 within 128 cycles.
 Requested convergence on MAX density matrix=1.00D-06.
 Requested convergence on             energy=1.00D-06.
 No special actions if energy rises.
 Fock matrices will be formed incrementally for  20 cycles.

 Cycle   1  Pass 1  IDiag  1:
 FoFJK:  IHMeth= 1 ICntrl=       0 DoSepK=F KAlg= 0 I1Cent=           0 FoldK=F
 IRaf= 850000000 NMat=       1 IRICut=       1 DoRegI=T DoRafI=F ISym2E= 0 IDoP0=0 IntGTp=1.
 FoFCou: FMM=F IPFlag=           0 FMFlag=      100000 FMFlg1=           0
         NFxFlg=           0 DoJE=F BraDBF=F KetDBF=F FulRan=T
         wScrn=  0.000000 ICntrl=         0 IOpCl=  0 I1Cent=           0 NGrid=           0
         NMat0=    1 NMatS0=      1 NMatT0=    0 NMatD0=    1 NMtDS0=    0 NMtDT0=    0
 Symmetry not used in FoFCou.
 E= -1006.77255908329    
 DIIS: error= 1.54D-02 at cycle   1 NSaved=   1.
 NSaved= 1 IEnMin= 1 EnMin= -1006.77255908329     IErMin= 1 ErrMin= 1.54D-02
 ErrMax= 1.54D-02  0.00D+00 EMaxC= 1.00D-01 BMatC= 7.14D-01 BMatP= 7.14D-01
 IDIUse=3 WtCom= 8.46D-01 WtEn= 1.54D-01
 Coeff-Com:  0.100D+01
 Coeff-En:   0.100D+01
 Coeff:      0.100D+01
 Gap=     0.281 Goal=   None    Shift=    0.000
 GapD=    0.281 DampG=1.000 DampE=0.500 DampFc=0.5000 IDamp=-1.
 Damping current iteration by 5.00D-01
 RMSDP=5.03D-03 MaxDP=5.87D-01              OVMax= 1.88D-01

 Cycle   2  Pass 1  IDiag  1:
 RMSU=  2.50D-03    CP:  1.03D+00
 E= -1006.96480174520     Delta-E=       -0.192242661903 Rises=F Damp=T
 DIIS: error= 4.78D-03 at cycle   2 NSaved=   2.
 NSaved= 2 IEnMin= 2 EnMin= -1006.96480174520     IErMin= 2 ErrMin= 4.78D-03
 ErrMax= 4.78D-03  0.00D+00 EMaxC= 1.00D-01 BMatC= 5.04D-02 BMatP= 7.14D-01
 IDIUse=3 WtCom= 9.52D-01 WtEn= 4.78D-02
 Coeff-Com:  0.335D-01 0.966D+00
 Coeff-En:   0.115D+00 0.885D+00
 Coeff:      0.374D-01 0.963D+00
 Gap=     0.254 Goal=   None    Shift=    0.000
 RMSDP=2.01D-03 MaxDP=3.91D-01 DE=-1.92D-01 OVMax= 1.21D-01

 Cycle   3  Pass 1  IDiag  1:
 RMSU=  1.61D-03    CP:  9.29D-01  7.10D-01
 E= -1007.19851971339     Delta-E=       -0.233717968199 Rises=F Damp=F
 DIIS: error= 3.38D-03 at cycle   3 NSaved=   3.
 NSaved= 3 IEnMin= 3 EnMin= -1007.19851971339     IErMin= 3 ErrMin= 3.38D-03
 ErrMax= 3.38D-03  0.00D+00 EMaxC= 1.00D-01 BMatC= 1.92D-02 BMatP= 5.04D-02
 IDIUse=3 WtCom= 9.66D-01 WtEn= 3.38D-02
 Coeff-Com: -0.624D-01 0.352D+00 0.710D+00
 Coeff-En:   0.000D+00 0.000D+00 0.100D+01
 Coeff:     -0.603D-01 0.340D+00 0.720D+00
 Gap=     0.250 Goal=   None    Shift=    0.000
 RMSDP=4.97D-04 MaxDP=5.01D-02 DE=-2.34D-01 OVMax= 3.30D-02

 Cycle   4  Pass 1  IDiag  1:
 RMSU=  4.05D-04    CP:  9.33D-01  8.19D-01  9.45D-01
 E= -1007.21046693976     Delta-E=       -0.011947226365 Rises=F Damp=F
 DIIS: error= 1.65D-03 at cycle   4 NSaved=   4.
 NSaved= 4 IEnMin= 4 EnMin= -1007.21046693976     IErMin= 4 ErrMin= 1.65D-03
 ErrMax= 1.65D-03  0.00D+00 EMaxC= 1.00D-01 BMatC= 2.88D-03 BMatP= 1.92D-02
 IDIUse=3 WtCom= 9.83D-01 WtEn= 1.65D-02
 Coeff-Com: -0.289D-01 0.810D-01 0.340D+00 0.608D+00
 Coeff-En:   0.000D+00 0.000D+00 0.950D-01 0.905D+00
 Coeff:     -0.284D-01 0.796D-01 0.336D+00 0.613D+00
 Gap=     0.249 Goal=   None    Shift=    0.000
 RMSDP=1.84D-04 MaxDP=1.77D-02 DE=-1.19D-02 OVMax= 1.17D-02

 Cycle   5  Pass 1  IDiag  1:
 RMSU=  1.07D-04    CP:  9.29D-01  7.90D-01  9.79D-01  7.21D-01
 E= -1007.21302066326     Delta-E=       -0.002553723504 Rises=F Damp=F
 DIIS: error= 2.62D-04 at cycle   5 NSaved=   5.
 NSaved= 5 IEnMin= 5 EnMin= -1007.21302066326     IErMin= 5 ErrMin= 2.62D-04
 ErrMax= 2.62D-04  0.00D+00 EMaxC= 1.00D-01 BMatC= 1.12D-04 BMatP= 2.88D-03
 IDIUse=3 WtCom= 9.97D-01 WtEn= 2.62D-03
 Coeff-Com: -0.815D-02 0.160D-01 0.989D-01 0.248D+00 0.645D+00
 Coeff-En:   0.000D+00 0.000D+00 0.000D+00 0.000D+00 0.100D+01
 Coeff:     -0.813D-02 0.159D-01 0.986D-01 0.248D+00 0.646D+00
 Gap=     0.249 Goal=   None    Shift=    0.000
 RMSDP=4.81D-05 MaxDP=4.54D-03 DE=-2.55D-03 OVMax= 2.08D-03

 Cycle   6  Pass 1  IDiag  1:
 RMSU=  2.82D-05    CP:  9.30D-01  7.97D-01  9.78D-01  7.77D-01  7.60D-01
 E= -1007.21310284266     Delta-E=       -0.000082179399 Rises=F Damp=F
 DIIS: error= 1.29D-04 at cycle   6 NSaved=   6.
 NSaved= 6 IEnMin= 6 EnMin= -1007.21310284266     IErMin= 6 ErrMin= 1.29D-04
 ErrMax= 1.29D-04  0.00D+00 EMaxC= 1.00D-01 BMatC= 1.98D-05 BMatP= 1.12D-04
 IDIUse=3 WtCom= 9.99D-01 WtEn= 1.29D-03
 Coeff-Com: -0.154D-02 0.102D-02 0.198D-01 0.745D-01 0.343D+00 0.563D+00
 Coeff-En:   0.000D+00 0.000D+00 0.000D+00 0.000D+00 0.316D-01 0.968D+00
 Coeff:     -0.154D-02 0.101D-02 0.198D-01 0.744D-01 0.343D+00 0.564D+00
 Gap=     0.250 Goal=   None    Shift=    0.000
 RMSDP=1.44D-05 MaxDP=1.89D-03 DE=-8.22D-05 OVMax= 9.12D-04

 Cycle   7  Pass 1  IDiag  1:
 RMSU=  1.14D-05    CP:  9.30D-01  7.95D-01  9.81D-01  7.82D-01  7.92D-01
                    CP:  9.56D-01
 E= -1007.21311808172     Delta-E=       -0.000015239054 Rises=F Damp=F
[...]
     3  C    0.000000
     4  N    0.000000
     8  C    0.000000
    12  N    0.000000
    13  C    0.000000
    16  C    0.000000
    19  C    0.000000
    22  S    0.000000
    23  O    0.000000
    24  O    0.000000
    25  O    0.000000
    26  O    0.000000
    29  O    0.000000
    32  O   -0.000000
    35  O    0.000000
         Mulliken charges condensed to fragments:
      1      0.000000
      2      0.000000
      3      0.000000
      4     -0.000000
      5      0.000000
 Electronic spatial extent (au):  <R**2>=           8268.2477
 Charge=             -0.0000 electrons
 Dipole moment (field-independent basis, Debye):
    X=              1.8124    Y=              0.5936    Z=              0.9585  Tot=              2.1345
 Quadrupole moment (field-independent basis, Debye-Ang):
   XX=             24.9942   YY=              7.3032   ZZ=              5.3761
   XY=             23.8897   XZ=             19.7058   YZ=             15.4611
 Traceless Quadrupole moment (field-independent basis, Debye-Ang):
   XX=             12.4364   YY=             -5.2546   ZZ=             -7.1817
   XY=             23.8897   XZ=             19.7058   YZ=             15.4611
 Octapole moment (field-independent basis, Debye-Ang**2):
  XXX=            245.2387  YYY=             28.7610  ZZZ=            -13.8004  XYY=            257.9809
  XXY=            299.5590  XXZ=            228.5295  XZZ=            119.3757  YZZ=             99.1988
  YYZ=            187.6413  XYZ=            251.7302
 Hexadecapole moment (field-independent basis, Debye-Ang**3):
 XXXX=           1948.6337 YYYY=           -884.4243 ZZZZ=           -676.7616 XXXY=           2832.6366
 XXXZ=           2149.4821 YYYX=           2281.0395 YYYZ=           1876.4903 ZZZX=            352.1921
 ZZZY=            168.7617 XXYY=           3158.7847 XXZZ=           1400.3601 YYZZ=           1297.7811
 XXYZ=           2755.0206 YYXZ=           2847.3413 ZZXY=           1611.1010
 N-N= 9.080212719543D+00 E-N=-1.990066467214D+02  KE= 7.618771300717D+01
 No NMR shielding tensors so no spin-rotation constants.
 Leave Link  601 at Sun Feb 19 15:23:12 2023, MaxMem=  6710886400 cpu:               1.7 elap:               0.1
 (Enter /data0/home/software/g16/l122.exe)
 CPIOFr:  IOpCl= 0 IRwI=-1 IRwCP=  731 ICalc=  9 LCPTot=      530053 Len1MO=     1390697 IndFrg=    14437023
 Counterpoise: doing calculation for fragment   5 using the basis set of the fragment.
 Leave Link  122 at Sun Feb 19 15:23:12 2023, MaxMem=  6710886400 cpu:               0.3 elap:               0.0
 (Enter /data0/home/software/g16/l301.exe)
 Basis read from rwf:  (5D, 7F)
 No pseudopotential information found on rwf file.
    39 basis functions,    58 primitive gaussians,    41 cartesian basis functions
     5 alpha electrons        5 beta electrons
       nuclear repulsion energy         9.0948473585 Hartrees.
 IExCor= 4336 DFT=T Ex+Corr=M062X ExCW=0 ScaHFX=  0.540000
 ScaDFX=  1.000000  1.000000  1.000000  1.000000 ScalE2=  1.000000  1.000000
 IRadAn=      5 IRanWt=     -1 IRanGd=            0 ICorTp=0 IEmpDi=131
 NAtoms=   37 NActive=    3 NUniq=    3 SFac= 1.00D+00 NAtFMM=   60 NAOKFM=F Big=F
 Integral buffers will be    131072 words long.
 Raffenetti 2 integral format.
 Two-electron integral symmetry is turned off.
 R6Disp:  Grimme-D3 Dispersion energy=       -0.0000000071 Hartrees.
 Nuclear repulsion after empirical dispersion term =        9.0948473514 Hartrees.
 No density basis found on file   718.
 Leave Link  301 at Sun Feb 19 15:23:12 2023, MaxMem=  6710886400 cpu:               1.3 elap:               0.1
 (Enter /data0/home/software/g16/l302.exe)
 NPDir=0 NMtPBC=     1 NCelOv=     1 NCel=       1 NClECP=     1 NCelD=      1
         NCelK=      1 NCelE2=     1 NClLst=     1 CellRange=     0.0.
 One-electron integrals computed using PRISM.
 NBasis=    39 RedAO= T EigKep=  2.97D-03  NBF=    39
 NBsUse=    39 1.00D-06 EigRej= -1.00D+00 NBFU=    39
 Precomputing XC quadrature grid using
 IXCGrd= 4 IRadAn=           5 IRanWt=          -1 IRanGd=           0 AccXCQ= 0.00D+00.
 Generated NRdTot=       0 NPtTot=           0 NUsed=           0 NTot=          32
 NSgBfM=    41    41    41    41    41 MxSgAt=     3 MxSgA2=     3.
 Leave Link  302 at Sun Feb 19 15:23:12 2023, MaxMem=  6710886400 cpu:               2.2 elap:               0.1
 (Enter /data0/home/software/g16/l303.exe)
 DipDrv:  MaxL=1.
 Leave Link  303 at Sun Feb 19 15:23:12 2023, MaxMem=  6710886400 cpu:               0.4 elap:               0.0
 (Enter /data0/home/software/g16/l401.exe)
 ExpMin= 8.45D-02 ExpMax= 8.59D+03 ExpMxC= 1.30D+03 IAcc=3 IRadAn=         5 AccDes= 0.00D+00
 Harris functional with IExCor= 1009 and IRadAn=       5 diagonalized for initial guess.
 HarFok:  IExCor= 1009 AccDes= 0.00D+00 IRadAn=         5 IDoV= 1 UseB2=F ITyADJ=14
 ICtDFT=  3500011 ScaDFX=  1.000000  1.000000  1.000000  1.000000
 FoFCou: FMM=F IPFlag=           0 FMFlag=      100000 FMFlg1=           0
         NFxFlg=           0 DoJE=T BraDBF=F KetDBF=T FulRan=T
         wScrn=  0.000000 ICntrl=       500 IOpCl=  0 I1Cent=   200000004 NGrid=           0
         NMat0=    1 NMatS0=      1 NMatT0=    0 NMatD0=    1 NMtDS0=    0 NMtDT0=    0
 Symmetry not used in FoFCou.
 Harris En= -76.4161300555427    
 JPrj=0 DoOrth=F DoCkMO=F.
 Leave Link  401 at Sun Feb 19 15:23:12 2023, MaxMem=  6710886400 cpu:               2.8 elap:               0.1
 (Enter /data0/home/software/g16/l502.exe)
 Keep R1 ints in memory in canonical form, NReq=21044142.
 FoFCou: FMM=F IPFlag=           0 FMFlag=           0 FMFlg1=           0
         NFxFlg=           0 DoJE=F BraDBF=F KetDBF=F FulRan=T
         wScrn=  0.000000 ICntrl=       600 IOpCl=  0 I1Cent=           0 NGrid=           0
         NMat0=    1 NMatS0=    780 NMatT0=    0 NMatD0=    1 NMtDS0=    0 NMtDT0=    0
 Symmetry not used in FoFCou.
 Two-electron integral symmetry not used.
 Closed shell SCF:
 Using DIIS extrapolation, IDIIS=  1040.
 NGot=  6710886400 LenX=  6710575940 LenY=  6710573818
 Requested convergence on RMS density matrix=1.00D-08 within 128 cycles.
 Requested convergence on MAX density matrix=1.00D-06.
 Requested convergence on             energy=1.00D-06.
 No special actions if energy rises.
 Integral accuracy reduced to 1.0D-05 until final iterations.

 Cycle   1  Pass 0  IDiag  1:
 E= -76.3465727310540    
 DIIS: error= 6.98D-02 at cycle   1 NSaved=   1.
 NSaved= 1 IEnMin= 1 EnMin= -76.3465727310540     IErMin= 1 ErrMin= 6.98D-02
 ErrMax= 6.98D-02  0.00D+00 EMaxC= 1.00D-01 BMatC= 1.20D-01 BMatP= 1.20D-01
 IDIUse=3 WtCom= 3.02D-01 WtEn= 6.98D-01
 Coeff-Com:  0.100D+01
 Coeff-En:   0.100D+01
 Coeff:      0.100D+01
 Gap=     0.325 Goal=   None    Shift=    0.000
 GapD=    0.325 DampG=1.000 DampE=0.500 DampFc=0.5000 IDamp=-1.
 Damping current iteration by 5.00D-01
 RMSDP=8.01D-03 MaxDP=1.00D-01              OVMax= 1.67D-01

 Cycle   2  Pass 0  IDiag  1:
 E= -76.3778055406657     Delta-E=       -0.031232809612 Rises=F Damp=T
 DIIS: error= 1.13D-02 at cycle   2 NSaved=   2.
 NSaved= 2 IEnMin= 2 EnMin= -76.3778055406657     IErMin= 2 ErrMin= 1.13D-02
 ErrMax= 1.13D-02  0.00D+00 EMaxC= 1.00D-01 BMatC= 4.84D-03 BMatP= 1.20D-01
 IDIUse=3 WtCom= 8.87D-01 WtEn= 1.13D-01
 Coeff-Com:  0.833D-01 0.917D+00
 Coeff-En:   0.189D+00 0.811D+00
 Coeff:      0.952D-01 0.905D+00
 Gap=     0.457 Goal=   None    Shift=    0.000
 RMSDP=9.52D-04 MaxDP=1.41D-02 DE=-3.12D-02 OVMax= 1.00D-01

 Cycle   3  Pass 0  IDiag  1:
 E= -76.4215659518398     Delta-E=       -0.043760411174 Rises=F Damp=F
 DIIS: error= 2.15D-03 at cycle   3 NSaved=   3.
 NSaved= 3 IEnMin= 3 EnMin= -76.4215659518398     IErMin= 3 ErrMin= 2.15D-03
 ErrMax= 2.15D-03  0.00D+00 EMaxC= 1.00D-01 BMatC= 9.00D-05 BMatP= 4.84D-03
 IDIUse=3 WtCom= 9.78D-01 WtEn= 2.15D-02
 Coeff-Com: -0.200D-01 0.388D-01 0.981D+00
 Coeff-En:   0.000D+00 0.000D+00 0.100D+01
 Coeff:     -0.195D-01 0.380D-01 0.982D+00
 Gap=     0.462 Goal=   None    Shift=    0.000
 RMSDP=1.14D-04 MaxDP=9.70D-04 DE=-4.38D-02 OVMax= 3.32D-03

 Cycle   4  Pass 0  IDiag  1:
 E= -76.4216429195977     Delta-E=       -0.000076967758 Rises=F Damp=F
 DIIS: error= 4.13D-04 at cycle   4 NSaved=   4.
 NSaved= 4 IEnMin= 4 EnMin= -76.4216429195977     IErMin= 4 ErrMin= 4.13D-04
 ErrMax= 4.13D-04  0.00D+00 EMaxC= 1.00D-01 BMatC= 3.23D-06 BMatP= 9.00D-05
 IDIUse=3 WtCom= 9.96D-01 WtEn= 4.13D-03
 Coeff-Com: -0.184D-02-0.233D-02 0.160D+00 0.844D+00
 Coeff-En:   0.000D+00 0.000D+00 0.000D+00 0.100D+01
 Coeff:     -0.184D-02-0.232D-02 0.159D+00 0.845D+00
 Gap=     0.462 Goal=   None    Shift=    0.000
 RMSDP=2.22D-05 MaxDP=3.55D-04 DE=-7.70D-05 OVMax= 5.38D-04

 Cycle   5  Pass 0  IDiag  1:
 E= -76.4216449288539     Delta-E=       -0.000002009256 Rises=F Damp=F
 DIIS: error= 8.80D-05 at cycle   5 NSaved=   5.
 NSaved= 5 IEnMin= 5 EnMin= -76.4216449288539     IErMin= 5 ErrMin= 8.80D-05
 ErrMax= 8.80D-05  0.00D+00 EMaxC= 1.00D-01 BMatC= 8.16D-08 BMatP= 3.23D-06
 IDIUse=1 WtCom= 1.00D+00 WtEn= 0.00D+00
 Coeff-Com:  0.118D-02-0.180D-02-0.369D-01-0.606D-01 0.110D+01
 Coeff:      0.118D-02-0.180D-02-0.369D-01-0.606D-01 0.110D+01
 Gap=     0.462 Goal=   None    Shift=    0.000
 RMSDP=8.96D-06 MaxDP=1.01D-04 DE=-2.01D-06 OVMax= 2.02D-04

 Initial convergence to 1.0D-05 achieved.  Increase integral accuracy.
 Cycle   6  Pass 1  IDiag  1:
 E= -76.4216282878925     Delta-E=        0.000016640961 Rises=F Damp=F
 DIIS: error= 1.65D-05 at cycle   1 NSaved=   1.
 NSaved= 1 IEnMin= 1 EnMin= -76.4216282878925     IErMin= 1 ErrMin= 1.65D-05
 ErrMax= 1.65D-05  0.00D+00 EMaxC= 1.00D-01 BMatC= 1.43D-08 BMatP= 1.43D-08
 IDIUse=1 WtCom= 1.00D+00 WtEn= 0.00D+00
 Coeff-Com:  0.100D+01
 Coeff:      0.100D+01
 Gap=     0.462 Goal=   None    Shift=    0.000
 RMSDP=8.96D-06 MaxDP=1.01D-04 DE= 1.66D-05 OVMax= 4.75D-05

 Cycle   7  Pass 1  IDiag  1:
 E= -76.4216282991772     Delta-E=       -0.000000011285 Rises=F Damp=F
 DIIS: error= 1.12D-05 at cycle   2 NSaved=   2.
 NSaved= 2 IEnMin= 2 EnMin= -76.4216282991772     IErMin= 2 ErrMin= 1.12D-05
 ErrMax= 1.12D-05  0.00D+00 EMaxC= 1.00D-01 BMatC= 1.93D-09 BMatP= 1.43D-08
 IDIUse=1 WtCom= 1.00D+00 WtEn= 0.00D+00
 Coeff-Com:  0.116D+00 0.884D+00
 Coeff:      0.116D+00 0.884D+00
 Gap=     0.462 Goal=   None    Shift=    0.000
 RMSDP=9.06D-07 MaxDP=1.41D-05 DE=-1.13D-08 OVMax= 2.36D-05

 Cycle   8  Pass 1  IDiag  1:
 E= -76.4216282996405     Delta-E=       -0.000000000463 Rises=F Damp=F
 DIIS: error= 7.73D-06 at cycle   3 NSaved=   3.
 NSaved= 3 IEnMin= 3 EnMin= -76.4216282996405     IErMin= 3 ErrMin= 7.73D-06
 ErrMax= 7.73D-06  0.00D+00 EMaxC= 1.00D-01 BMatC= 1.56D-09 BMatP= 1.93D-09
 IDIUse=1 WtCom= 1.00D+00 WtEn= 0.00D+00
 Coeff-Com: -0.447D-01 0.486D+00 0.559D+00
 Coeff:     -0.447D-01 0.486D+00 0.559D+00
 Gap=     0.462 Goal=   None    Shift=    0.000
 RMSDP=4.36D-07 MaxDP=6.03D-06 DE=-4.63D-10 OVMax= 1.03D-05

 Cycle   9  Pass 1  IDiag  1:
 E= -76.4216283006702     Delta-E=       -0.000000001030 Rises=F Damp=F
 DIIS: error= 5.05D-07 at cycle   4 NSaved=   4.
 NSaved= 4 IEnMin= 4 EnMin= -76.4216283006702     IErMin= 4 ErrMin= 5.05D-07
 ErrMax= 5.05D-07  0.00D+00 EMaxC= 1.00D-01 BMatC= 3.49D-12 BMatP= 1.56D-09
 IDIUse=1 WtCom= 1.00D+00 WtEn= 0.00D+00
 Coeff-Com: -0.364D-02-0.118D-01-0.540D-02 0.102D+01
 Coeff:     -0.364D-02-0.118D-01-0.540D-02 0.102D+01
 Gap=     0.462 Goal=   None    Shift=    0.000
 RMSDP=7.21D-08 MaxDP=6.59D-07 DE=-1.03D-09 OVMax= 1.46D-06

 Cycle  10  Pass 1  IDiag  1:
 E= -76.4216283006776     Delta-E=       -0.000000000007 Rises=F Damp=F
 DIIS: error= 9.83D-08 at cycle   5 NSaved=   5.
 NSaved= 5 IEnMin= 5 EnMin= -76.4216283006776     IErMin= 5 ErrMin= 9.83D-08
 ErrMax= 9.83D-08  0.00D+00 EMaxC= 1.00D-01 BMatC= 2.44D-13 BMatP= 3.49D-12
 IDIUse=1 WtCom= 1.00D+00 WtEn= 0.00D+00
 Coeff-Com:  0.250D-02-0.309D-01-0.334D-01 0.337D-01 0.103D+01
 Coeff:      0.250D-02-0.309D-01-0.334D-01 0.337D-01 0.103D+01
 Gap=     0.462 Goal=   None    Shift=    0.000
 RMSDP=2.25D-08 MaxDP=1.77D-07 DE=-7.39D-12 OVMax= 4.92D-07

 Cycle  11  Pass 1  IDiag  1:
 E= -76.4216283006781     Delta-E=       -0.000000000000 Rises=F Damp=F
 DIIS: error= 2.33D-08 at cycle   6 NSaved=   6.
 NSaved= 6 IEnMin= 6 EnMin= -76.4216283006781     IErMin= 6 ErrMin= 2.33D-08
 ErrMax= 2.33D-08  0.00D+00 EMaxC= 1.00D-01 BMatC= 6.46D-15 BMatP= 2.44D-13
 IDIUse=1 WtCom= 1.00D+00 WtEn= 0.00D+00
 Coeff-Com:  0.103D-04 0.126D-02 0.258D-02-0.323D-01-0.233D-01 0.105D+01
 Coeff:      0.103D-04 0.126D-02 0.258D-02-0.323D-01-0.233D-01 0.105D+01
 Gap=     0.462 Goal=   None    Shift=    0.000
 RMSDP=2.73D-09 MaxDP=2.03D-08 DE=-4.69D-13 OVMax= 5.91D-08

 SCF Done:  E(RM062X) =  -76.4216283007     A.U. after   11 cycles
            NFock= 11  Conv=0.27D-08     -V/T= 2.0030
 KE= 7.619405820379D+01 PE=-1.990366676577D+02 EE= 3.732613380180D+01
 Leave Link  502 at Sun Feb 19 15:23:13 2023, MaxMem=  6710886400 cpu:               8.6 elap:               0.4
 (Enter /data0/home/software/g16/l601.exe)
 Copying SCF densities to generalized density rwf, IOpCl= 0 IROHF=0.

 **********************************************************************

            Population analysis using the SCF density.

 **********************************************************************

 Alpha  occ. eigenvalues --  -19.62703  -1.13419  -0.60344  -0.47848  -0.40019
 Alpha virt. eigenvalues --    0.06204   0.13315   0.17429   0.17938   0.18888
 Alpha virt. eigenvalues --    0.23462   0.50785   0.53554   0.98186   1.00267
 Alpha virt. eigenvalues --    1.05992   1.16983   1.20315   1.31702   1.34013
 Alpha virt. eigenvalues --    1.70965   1.74402   1.75173   2.07121   2.09969
 Alpha virt. eigenvalues --    2.36138   2.39201   2.55198   2.87572   3.01519
 Alpha virt. eigenvalues --    5.05610   5.49408   5.90299   6.78587   6.79918
 Alpha virt. eigenvalues --    6.87304   6.91852   7.09368  49.95517
          Condensed to atoms (all electrons):
              35         36         37
    35  O    7.918459   0.314847   0.317455
    36  H    0.314847   0.432146  -0.023526
    37  H    0.317455  -0.023526   0.431842
 Mulliken charges:
               1
     1  C    0.000000
     2  C    0.000000
     3  C    0.000000
     4  N    0.000000
     5  H    0.000000
     6  H    0.000000
     7  H    0.000000
     8  C    0.000000
     9  H    0.000000
    10  H    0.000000
    11  H    0.000000
    12  N    0.000000
    13  C    0.000000
    14  H    0.000000
    15  H    0.000000
    16  C    0.000000
    17  H    0.000000
    18  H    0.000000
    19  C    0.000000
    20  H    0.000000
    21  H    0.000000
    22  S    0.000000
    23  O    0.000000
    24  O    0.000000
    25  O    0.000000
    26  O    0.000000
    27  H    0.000000
    28  H    0.000000
    29  O    0.000000
    30  H    0.000000
    31  H    0.000000
    32  O    0.000000
    33  H    0.000000
    34  H    0.000000
    35  O   -0.550762
    36  H    0.276533
    37  H    0.274229
 Sum of Mulliken charges =   0.00000
 Mulliken charges with hydrogens summed into heavy atoms:
               1
     1  C    0.000000
     2  C    0.000000
     3  C    0.000000
     4  N    0.000000
     8  C    0.000000
    12  N    0.000000
    13  C    0.000000
    16  C    0.000000
    19  C    0.000000
    22  S    0.000000
    23  O    0.000000
    24  O    0.000000
    25  O    0.000000
    26  O    0.000000
    29  O    0.000000
    32  O    0.000000
    35  O    0.000000
         Mulliken charges condensed to fragments:
      1      0.000000
      2      0.000000
      3      0.000000
      4      0.000000
      5      0.000000
 Electronic spatial extent (au):  <R**2>=          13557.5275
 Charge=              0.0000 electrons
 Dipole moment (field-independent basis, Debye):
    X=             -1.4895    Y=             -0.7897    Z=             -1.3294  Tot=              2.1470
 Quadrupole moment (field-independent basis, Debye-Ang):
   XX=            -46.3831   YY=            -21.0247   ZZ=            -33.0551
   XY=            -26.6694   XZ=            -32.0170   YZ=            -20.4055
 Traceless Quadrupole moment (field-independent basis, Debye-Ang):
   XX=            -12.8955   YY=             12.4629   ZZ=              0.4326
   XY=            -26.6694   XZ=            -32.0170   YZ=            -20.4055
 Octapole moment (field-independent basis, Debye-Ang**2):
  XXX=          -1066.0046  YYY=           -394.9269  ZZZ=           -588.2859  XYY=           -455.5814
  XXY=           -637.4609  XXZ=           -682.6471  XZZ=           -579.4641  YZZ=           -394.3897
  YYZ=           -326.8678  XYZ=           -426.7971
 Hexadecapole moment (field-independent basis, Debye-Ang**3):
 XXXX=         -21510.8341 YYYY=          -6347.8519 ZZZZ=          -9025.4209 XXXY=         -13198.0463
 XXXZ=         -13431.0408 YYYX=          -7171.2935 YYYZ=          -5024.1801 ZZZX=          -9206.6202
 ZZZY=          -6453.9800 XXYY=          -9081.1142 XXZZ=         -10216.7403 YYZZ=          -5095.4819
 XXYZ=          -8406.1942 YYXZ=          -6037.4557 ZZXY=          -6757.8312
 N-N= 9.094847351403D+00 E-N=-1.990366680267D+02  KE= 7.619405820379D+01
 No NMR shielding tensors so no spin-rotation constants.
 Leave Link  601 at Sun Feb 19 15:23:13 2023, MaxMem=  6710886400 cpu:               1.8 elap:               0.1
 (Enter /data0/home/software/g16/l122.exe)
 CPIOFr:  IOpCl= 0 IRwI=-1 IRwCP=  731 ICalc= 10 LCPTot=      530053 Len1MO=     1390697 IndFrg=    15827720
 Restoring MOs from calculation   1 to rwf.
 CPIOFr:  IOpCl= 0 IRwI=-2 IRwCP=  731 ICalc=  0 LCPTot=      530053 Len1MO=     1390697 IndFrg=     1920750
 Counterpoise corrected energy =   -1312.966855523262
                   BSSE energy =       0.006068518258
              sum of fragments =   -1312.897736140050
           complexation energy =     -47.18 kcal/mole (raw)
           complexation energy =     -43.37 kcal/mole (corrected)
 Leave Link  122 at Sun Feb 19 15:23:13 2023, MaxMem=  6710886400 cpu:               0.6 elap:               0.0
 (Enter /data0/home/software/g16/l9999.exe)
 1\1\GINC-LOCALHOST\SP\RM062X\6-311+G(2d,p)\C7H20N2O7S1\WUHANYU\19-Feb-
 2023\0\\#p M062X/6-311+G(2d,p) nosymm em=GD3 counterpoise=5\\Title Car
 d Required\\0,1\C,0,11.504582,8.185756,11.447825\C,0,12.027899,9.40059
 7,11.874956\C,0,9.780929,9.548446,11.937849\N,0,10.115739,8.2967,11.50
 0731\H,0,12.011673,7.305043,11.081049\H,0,13.058507,9.720755,11.940328
 \H,0,8.767425,9.939079,12.047636\C,0,9.157428,7.284959,11.095159\H,0,8
 .546333,6.947727,11.949153\H,0,8.467065,7.688388,10.313363\H,0,9.66773
 2,6.407565,10.645318\N,0,10.947301,10.233203,12.173248\C,0,11.029566,1
 1.641112,12.568779\H,0,11.56053,11.694754,13.548361\H,0,9.993573,12.03
 2309,12.732083\C,0,11.763203,12.511803,11.525831\H,0,12.324244,13.3039
 99,12.065561\H,0,12.553972,11.91527,11.010169\C,0,10.843272,13.166937,
 10.500202\H,0,11.42856,13.83908,9.842245\H,0,10.095537,13.81555,10.991
 128\S,0,9.989182,11.955293,9.482733\O,0,9.331997,12.625944,8.359235\O,
 0,11.046444,10.992837,9.058324\O,0,9.027365,11.329214,10.446755\O,0,7.
 524933,8.551909,7.703229\H,0,7.744129,9.344953,7.175664\H,0,7.280006,8
 .898657,8.573351\O,0,6.993039,9.640335,10.260344\H,0,7.743181,10.29634
 9,10.283504\H,0,6.209901,10.176181,10.196157\O,0,8.455091,10.82619,6.3
 46999\H,0,8.615697,11.593072,6.933316\H,0,9.314774,10.399224,6.304321\
 O,0,13.603788,10.035001,9.811785\H,0,12.774431,10.445713,9.500946\H,0,
 13.587104,9.181984,9.370699\\Version=ES64L-G16RevA.03\HF=-76.4216283\R
 MSD=2.729e-09\Dipole=1.7424196,-0.3340599,4.2879291\Quadrupole=-11.549
 8628,-74.3153057,85.8651684,21.7258177,105.5328047,78.0321896\PG=C01 [
 X(C7H20N2O7S1)]\\@


 OF ALL THE WONDERS OF THE UNIVERSE, THE GREATEST IS MAN.

                                    -- ARISTOTLE
 Job cpu time:       0 days  4 hours 27 minutes 59.7 seconds.
 Elapsed time:       0 days  0 hours 11 minutes 13.9 seconds.
 File lengths (MBytes):  RWF=    338 Int=      0 D2E=      0 Chk=    141 Scr=      1
 Normal termination of Gaussian 16 at Sun Feb 19 15:23:13 2023.
