 Entering Gaussian System, Link 0=g16
 Initial command:
 /data0/hywu0/study/g16/l1.exe "/data0/hywu0/study/g16/scratch/Gau-3016260.inp" -scrdir="/data0/hywu0/study/g16/scratch/"
 Default is to use a total of  16 processors:
                               16 via shared-memory
                                1 via Linda
 Entering Link 1 = /data0/hywu0/study/g16/l1.exe PID=   3016261.
  
 Copyright (c) 1988,1990,1992,1993,1995,1998,2003,2009,2016,
            Gaussian, Inc.  All Rights Reserved.
  
 This is part of the Gaussian(R) 16 program.  It is based on
 the Gaussian(R) 09 system (copyright 2009, Gaussian, Inc.),
 the Gaussian(R) 03 system (copyright 2003, Gaussian, Inc.),
 the Gaussian(R) 98 system (copyright 1998, Gaussian, Inc.),
 the Gaussian(R) 94 system (copyright 1995, Gaussian, Inc.),
 the Gaussian 92(TM) system (copyright 1992, Gaussian, Inc.),
 the Gaussian 90(TM) system (copyright 1990, Gaussian, Inc.),
 the Gaussian 88(TM) system (copyright 1988, Gaussian, Inc.),
 the Gaussian 86(TM) system (copyright 1986, Carnegie Mellon
 University), and the Gaussian 82(TM) system (copyright 1983,
 Carnegie Mellon University). Gaussian is a federally registered
 trademark of Gaussian, Inc.
  
 This software contains proprietary and confidential information,
 including trade secrets, belonging to Gaussian, Inc.
  
 This software is provided under written license and may be
 used, copied, transmitted, or stored only in accord with that
 written license.
  
 The following legend is applicable only to US Government
 contracts under FAR:
  
                    RESTRICTED RIGHTS LEGEND
  
 Use, reproduction and disclosure by the US Government is
 subject to restrictions as set forth in subparagraphs (a)
 and (c) of the Commercial Computer Software - Restricted
 Rights clause in FAR 52.227-19.
  
 Gaussian, Inc.
 340 Quinnipiac St., Bldg. 40, Wallingford CT 06492
  
  
 ---------------------------------------------------------------
 Warning -- This program may not be used in any manner that
 competes with the business of Gaussian, Inc. or will provide
 assistance to any competitor of Gaussian, Inc.  The licensee
 of this program is prohibited from giving any competitor of
 Gaussian, Inc. access to this program.  By using this program,
 the user acknowledges that Gaussian, Inc. is engaged in the
 business of creating and licensing software in the field of
 computational chemistry and represents and warrants to the
 licensee that it is not a competitor of Gaussian, Inc. and that
 it will not use this program in any manner prohibited above.
 ---------------------------------------------------------------
  

 Cite this work as:
 Gaussian 16, Revision A.03,
 M. J. Frisch, G. W. Trucks, H. B. Schlegel, G. E. Scuseria, 
 M. A. Robb, J. R. Cheeseman, G. Scalmani, V. Barone, 
 G. A. Petersson, H. Nakatsuji, X. Li, M. Caricato, A. V. Marenich, 
 J. Bloino, B. G. Janesko, R. Gomperts, B. Mennucci, H. P. Hratchian, 
 J. V. Ortiz, A. F. Izmaylov, J. L. Sonnenberg, D. Williams-Young, 
 F. Ding, F. Lipparini, F. Egidi, J. Goings, B. Peng, A. Petrone, 
 T. Henderson, D. Ranasinghe, V. G. Zakrzewski, J. Gao, N. Rega, 
 G. Zheng, W. Liang, M. Hada, M. Ehara, K. Toyota, R. Fukuda, 
 J. Hasegawa, M. Ishida, T. Nakajima, Y. Honda, O. Kitao, H. Nakai, 
 T. Vreven, K. Throssell, J. A. Montgomery, Jr., J. E. Peralta, 
 F. Ogliaro, M. J. Bearpark, J. J. Heyd, E. N. Brothers, K. N. Kudin, 
 V. N. Staroverov, T. A. Keith, R. Kobayashi, J. Normand, 
 K. Raghavachari, A. P. Rendell, J. C. Burant, S. S. Iyengar, 
 J. Tomasi, M. Cossi, J. M. Millam, M. Klene, C. Adamo, R. Cammi, 
 J. W. Ochterski, R. L. Martin, K. Morokuma, O. Farkas, 
 J. B. Foresman, and D. J. Fox, Gaussian, Inc., Wallingford CT, 2016.
 
 ******************************************
 Gaussian 16:  ES64L-G16RevA.03 25-Dec-2016
                18-May-2022 
 ******************************************
 %nproc=10
 Will use up to   10 processors via shared memory.
 %mem=5GB
 ---------------------------------------------------
 #p M062X/6-311+G(2d,p) nosymm em=GD3 counterpoise=2
 ---------------------------------------------------
 1/38=1,62=2,172=1/1;
 2/12=2,15=1,17=6,18=5,40=1/2;
 1/38=1,53=2,62=2,63=1/22;
 3/5=4,6=6,7=112,11=2,25=1,30=1,74=-55,124=31/1,2,3;
 4//1;
 5/5=2,38=5/2;
 6/7=2,8=2,9=2,10=2,28=1/1;
 1/53=2,62=2,63=1/22;
 3/5=7,6=11,7=112,11=2,25=1,30=1,74=-55,82=7,124=31/1,2,3;
 4//1;
 5/5=2,38=5/2;
 6/7=2,8=2,9=2,10=2,28=1/1;
 1/53=2,62=2,63=1/22(-4);
 99/5=1,9=1/99;
 Leave Link    1 at Wed May 18 15:33:21 2022, MaxMem=   671088640 cpu:               0.3 elap:               0.0
 (Enter /data0/hywu0/study/g16/l101.exe)
 -------------------
 Title Card Required
 -------------------
 Symbolic Z-matrix:
 Charge =  0 Multiplicity = 1 in supermolecule
 Charge =  0 Multiplicity = 1 in fragment      1.
 Charge =  0 Multiplicity = 1 in fragment      2.
 C                     4.36393   12.69306   10.94131    
 H                     4.11575   12.1554   10.01365    
 H                     5.25454   13.31271   10.76701    
 H                     4.63474   11.91405   11.70121    
 C                     2.83475   14.52376   10.38404    
 H                     2.5845    14.03772   9.4262     
 H                     1.95472   15.11396   10.69922    
 H                     3.66243   15.22936   10.20256    
 C                     2.04207   12.58954   11.66099    
 H                     1.20941   13.08932   12.19609    
 H                     1.67142   12.159    10.7232    
 H                     2.33511   11.75161   12.33895    
 C                     3.62551   14.22462   12.70933    
 H                     4.52506   14.83552   12.49398    
 H                     3.95067   13.4287   13.43821    
 C                     2.52227   15.09145   13.33452    
 H                     1.51349   14.77821   12.98958    
 H                     2.63909   16.14877   13.03829    
 C                     2.54875   14.96295   14.85905    
 H                     1.69675   15.49151   15.32001    
 H                     3.46059   15.40629   15.29424    
 N                     3.2014    13.51314   11.43134    
 C                     2.46276   13.4761   15.26211    
 O                     1.77976   12.74495   14.50637    
 O                     3.11749   13.11509   16.24366    
 P                     4.10856   10.08197   14.64855    
 O                     4.65321   8.74646   14.4436    
 O                     4.30432   10.64485   16.10751    
 H                     3.80841   11.58459   16.20414    
 O                     4.83081   11.20954   13.7048    
 H                     5.81206   11.23432   13.91989    
 O                     2.6135    10.25449   14.19356    
 H                     2.25214   11.24702   14.45284    
 
 ITRead=  0  0  0  0  0  0  0  0  0  0  0  0  0  0  0  0  0  0  0  0
 ITRead=  0  0  0  0  0  0  0  0  0  0  0  0  0
 MicOpt= -1 -1 -1 -1 -1 -1 -1 -1 -1 -1 -1 -1 -1 -1 -1 -1 -1 -1 -1 -1
 MicOpt= -1 -1 -1 -1 -1 -1 -1 -1 -1 -1 -1 -1 -1
 NAtoms=     33 NQM=       33 NQMF=       0 NMMI=      0 NMMIF=      0
                NMic=       0 NMicF=      0.
                    Isotopes and Nuclear Properties:
 (Nuclear quadrupole moments (NQMom) in fm**2, nuclear magnetic moments (NMagM)
  in nuclear magnetons)

  Atom         1           2           3           4           5           6           7           8           9          10
 IAtWgt=          12           1           1           1          12           1           1           1          12           1
 AtmWgt=  12.0000000   1.0078250   1.0078250   1.0078250  12.0000000   1.0078250   1.0078250   1.0078250  12.0000000   1.0078250
 NucSpn=           0           1           1           1           0           1           1           1           0           1
 AtZEff=  -0.0000000  -0.0000000  -0.0000000  -0.0000000  -0.0000000  -0.0000000  -0.0000000  -0.0000000  -0.0000000  -0.0000000
 NQMom=    0.0000000   0.0000000   0.0000000   0.0000000   0.0000000   0.0000000   0.0000000   0.0000000   0.0000000   0.0000000
 NMagM=    0.0000000   2.7928460   2.7928460   2.7928460   0.0000000   2.7928460   2.7928460   2.7928460   0.0000000   2.7928460
 AtZNuc=   6.0000000   1.0000000   1.0000000   1.0000000   6.0000000   1.0000000   1.0000000   1.0000000   6.0000000   1.0000000

  Atom        11          12          13          14          15          16          17          18          19          20
 IAtWgt=           1           1          12           1           1          12           1           1          12           1
 AtmWgt=   1.0078250   1.0078250  12.0000000   1.0078250   1.0078250  12.0000000   1.0078250   1.0078250  12.0000000   1.0078250
 NucSpn=           1           1           0           1           1           0           1           1           0           1
 AtZEff=  -0.0000000  -0.0000000  -0.0000000  -0.0000000  -0.0000000  -0.0000000  -0.0000000  -0.0000000  -0.0000000  -0.0000000
 NQMom=    0.0000000   0.0000000   0.0000000   0.0000000   0.0000000   0.0000000   0.0000000   0.0000000   0.0000000   0.0000000
 NMagM=    2.7928460   2.7928460   0.0000000   2.7928460   2.7928460   0.0000000   2.7928460   2.7928460   0.0000000   2.7928460
 AtZNuc=   1.0000000   1.0000000   6.0000000   1.0000000   1.0000000   6.0000000   1.0000000   1.0000000   6.0000000   1.0000000

  Atom        21          22          23          24          25          26          27          28          29          30
 IAtWgt=           1          14          12          16          16          31          16          16           1          16
 AtmWgt=   1.0078250  14.0030740  12.0000000  15.9949146  15.9949146  30.9737634  15.9949146  15.9949146   1.0078250  15.9949146
 NucSpn=           1           2           0           0           0           1           0           0           1           0
 AtZEff=  -0.0000000  -0.0000000  -0.0000000  -0.0000000  -0.0000000  -0.0000000  -0.0000000  -0.0000000  -0.0000000  -0.0000000
 NQMom=    0.0000000   2.0440000   0.0000000   0.0000000   0.0000000   0.0000000   0.0000000   0.0000000   0.0000000   0.0000000
 NMagM=    2.7928460   0.4037610   0.0000000   0.0000000   0.0000000   1.1316000   0.0000000   0.0000000   2.7928460   0.0000000
 AtZNuc=   1.0000000   7.0000000   6.0000000   8.0000000   8.0000000  15.0000000   8.0000000   8.0000000   1.0000000   8.0000000

  Atom        31          32          33
 IAtWgt=           1          16           1
 AtmWgt=   1.0078250  15.9949146   1.0078250
 NucSpn=           1           0           1
 AtZEff=  -0.0000000  -0.0000000  -0.0000000
 NQMom=    0.0000000   0.0000000   0.0000000
 NMagM=    2.7928460   0.0000000   2.7928460
 AtZNuc=   1.0000000   8.0000000   1.0000000
 Leave Link  101 at Wed May 18 15:33:21 2022, MaxMem=   671088640 cpu:               1.0 elap:               0.1
 (Enter /data0/hywu0/study/g16/l202.exe)
                          Input orientation:                          
 ---------------------------------------------------------------------
 Center     Atomic      Atomic             Coordinates (Angstroms)
 Number     Number       Type             X           Y           Z
 ---------------------------------------------------------------------
      1          6           0        4.363933   12.693059   10.941306
      2          1           0        4.115753   12.155399   10.013654
      3          1           0        5.254536   13.312712   10.767014
      4          1           0        4.634740   11.914049   11.701212
      5          6           0        2.834748   14.523762   10.384041
      6          1           0        2.584503   14.037724    9.426204
      7          1           0        1.954724   15.113960   10.699222
      8          1           0        3.662426   15.229358   10.202565
      9          6           0        2.042072   12.589536   11.660985
     10          1           0        1.209412   13.089316   12.196094
     11          1           0        1.671422   12.158998   10.723199
     12          1           0        2.335110   11.751606   12.338946
     13          6           0        3.625512   14.224620   12.709333
     14          1           0        4.525062   14.835524   12.493978
     15          1           0        3.950674   13.428699   13.438209
     16          6           0        2.522274   15.091451   13.334523
     17          1           0        1.513488   14.778210   12.989575
     18          1           0        2.639091   16.148773   13.038290
     19          6           0        2.548754   14.962947   14.859054
     20          1           0        1.696746   15.491510   15.320014
     21          1           0        3.460591   15.406291   15.294244
     22          7           0        3.201397   13.513144   11.431340
     23          6           0        2.462764   13.476101   15.262110
     24          8           0        1.779757   12.744945   14.506368
     25          8           0        3.117492   13.115089   16.243656
     26         15           0        4.108562   10.081966   14.648549
     27          8           0        4.653213    8.746464   14.443596
     28          8           0        4.304320   10.644847   16.107510
     29          1           0        3.808407   11.584592   16.204143
     30          8           0        4.830808   11.209544   13.704795
     31          1           0        5.812062   11.234315   13.919887
     32          8           0        2.613501   10.254490   14.193563
     33          1           0        2.252144   11.247021   14.452842
 ---------------------------------------------------------------------
                    Distance matrix (angstroms):
                    1          2          3          4          5
     1  C    0.000000
     2  H    1.100550   0.000000
     3  H    1.098873   1.789903   0.000000
     4  H    1.121450   1.781979   1.792521   0.000000
     5  C    2.449576   2.717959   2.732889   3.433003   0.000000
     6  H    2.696299   2.496592   3.074490   3.726812   1.102863
     7  H    3.423982   3.727349   3.760033   4.292540   1.105493
     8  H    2.733251   3.112943   2.554789   3.765981   1.102656
     9  C    2.433042   2.683715   3.412051   2.679520   2.449521
    10  H    3.417969   3.752608   4.295952   3.655001   2.825401
    11  H    2.753617   2.545235   3.764529   3.130138   2.657153
    12  H    2.637395   2.956471   3.664842   2.391943   3.428723
    13  C    2.452930   3.433467   2.694049   2.715435   2.474222
    14  H    2.650832   3.674590   2.415263   3.029113   2.721432
    15  H    2.635616   3.657338   2.974692   2.404011   3.431093
    16  C    3.856356   4.710387   4.149852   4.150434   3.020804
    17  H    4.082683   4.744157   4.591612   4.427811   2.932453
    18  H    4.394813   5.222642   4.476884   4.868601   3.118330
    19  C    4.878116   5.815128   5.175840   4.859947   4.505598
    20  H    5.841087   6.718533   6.175341   5.875863   5.157074
    21  H    5.208236   6.235557   5.300672   5.146286   5.027985
    22  N    1.504713   2.165491   2.167229   2.164349   1.500872
    23  C    4.785075   5.658879   5.294013   4.453929   5.003151
    24  O    4.403445   5.097933   5.136070   4.087813   4.612025
    25  O    5.463208   6.382042   5.882144   4.937442   6.033191
    26  P    4.541660   5.077542   5.178541   3.510012   6.287939
    27  O    5.284442   5.615522   5.893171   4.189822   7.291363
    28  O    5.557732   6.281115   6.044941   4.597338   7.068502
    29  H    5.406918   6.224342   5.885581   4.589962   6.592444
    30  O    3.171066   3.876915   3.637777   2.132865   5.098598
    31  H    3.618972   4.357122   3.817221   2.602046   5.673365
    32  O    4.425811   4.831341   5.298021   3.612666   5.726089
    33  H    4.345292   4.899447   5.183316   3.700427   5.256577
                    6          7          8          9         10
     6  H    0.000000
     7  H    1.781988   0.000000
     8  H    1.784558   1.782198   0.000000
     9  C    2.717669   2.702838   3.423623   0.000000
    10  H    3.234601   2.625890   3.817226   1.108803   0.000000
    11  H    2.458765   2.968608   3.696250   1.096443   1.802322
    12  H    3.711145   3.760161   4.291929   1.116973   1.754158
    13  C    3.449285   2.760979   2.700879   2.505956   2.718431
    14  H    3.716651   3.147271   2.479883   3.450156   3.759190
    15  H    4.281766   3.784966   3.714142   2.739613   3.028621
    16  C    4.048354   2.695817   3.335885   3.048098   2.651070
    17  H    3.793811   2.356509   3.548083   2.614354   1.890618
    18  H    4.184098   2.647723   3.151805   3.862845   3.480453
    19  C    5.511186   4.204745   4.795219   4.014655   3.520751
    20  H    6.135031   4.643363   5.488252   4.682862   3.970756
    21  H    6.088875   4.844308   5.098749   4.811120   4.476015
    22  N    2.162478   2.157036   2.160515   1.499941   2.175427
    23  C    5.864132   4.874488   5.487449   3.732436   3.334809
    24  O    5.303486   4.487450   5.314082   2.861672   2.404423
    25  O    6.900216   6.007351   6.423540   4.736413   4.474840
    26  P    6.726341   6.749605   6.816264   4.414049   4.843941
    27  O    7.579658   7.864298   7.809988   5.415735   5.980919
    28  O    7.688253   7.398861   7.503209   5.354546   5.554553
    29  H    7.311378   6.796818   7.023145   4.976961   5.008336
    30  O    5.599181   5.705243   5.457988   3.722712   4.350199
    31  H    6.202373   6.348495   5.865133   4.599140   5.253273
    32  O    6.086166   6.021533   6.463561   3.491837   3.741335
    33  H    5.758956   5.397346   5.992725   3.104987   3.094229
                   11         12         13         14         15
    11  H    0.000000
    12  H    1.793624   0.000000
    13  C    3.468428   2.813916   0.000000
    14  H    4.294498   3.785561   1.108500   0.000000
    15  H    3.765423   2.575086   1.127156   1.789036   0.000000
    16  C    4.017741   3.490096   1.536031   2.187047   2.194498
    17  H    3.467229   3.202923   2.201282   3.052618   2.821760
    18  H    4.713208   4.462798   2.187145   2.361733   3.046143
    19  C    5.073178   4.087701   2.515121   3.084739   2.517558
    20  H    5.677762   4.825055   3.484366   4.051687   3.588394
    21  H    5.885617   4.832930   2.846983   3.049650   2.756069
    22  N    2.162406   2.162688   1.522937   2.151738   2.143845
    23  C    4.791941   3.396331   2.903263   3.709941   2.354302
    24  O    3.829809   2.448031   2.970789   3.994613   2.514232
    25  O    5.786249   4.209272   3.739062   4.359041   2.943310
    26  P    5.065776   3.356649   4.599508   5.235643   3.562369
    27  O    5.863260   4.339819   5.837297   6.394848   4.840216
    28  O    6.181878   4.393720   4.982285   5.537880   3.872992
    29  H    5.910786   4.139836   4.383708   4.984724   3.327366
    30  O    4.446695   2.896184   3.396228   3.835008   2.402156
    31  H    5.312133   3.854369   3.897225   4.081457   2.917550
    32  O    4.069163   2.399680   4.357641   5.246763   3.526215
    33  H    3.883192   2.174867   3.713766   4.677677   2.945200
                   16         17         18         19         20
    16  C    0.000000
    17  H    1.111197   0.000000
    18  H    1.104233   1.774204   0.000000
    19  C    1.530166   2.144960   2.174747   0.000000
    20  H    2.187171   2.444039   2.554657   1.103531   0.000000
    21  H    2.195466   3.081752   2.513060   1.103354   1.766090
    22  N    2.564053   2.622504   3.137677   3.778504   4.615159
    23  C    2.515649   2.785862   3.481328   1.542906   2.156852
    24  O    2.725921   2.550633   3.805227   2.373874   2.865751
    25  O    3.566980   3.990970   4.439198   2.378059   2.918734
    26  P    5.416448   5.616165   6.446583   5.128478   5.960779
    27  O    6.784527   6.953705   7.799087   6.576170   7.416499
    28  O    5.535109   5.881747   6.518152   4.825623   5.559652
    29  H    4.710299   5.079301   5.676414   3.848282   4.528223
    30  O    4.531626   4.924584   5.444615   4.541819   5.546757
    31  H    5.103220   5.648222   5.915814   5.043204   6.084397
    32  O    4.913498   4.808707   6.006487   4.755695   5.434677
    33  H    4.012885   3.893078   5.116430   3.749812   4.367624
                   21         22         23         24         25
    21  H    0.000000
    22  N    4.309665   0.000000
    23  C    2.173091   3.901506   0.000000
    24  O    3.244798   3.473757   1.253887   0.000000
    25  O    2.503739   4.829480   1.233868   2.223671   0.000000
    26  P    5.402335   4.790236   3.821683   3.540481   3.567411
    27  O    6.819035   5.822602   5.276125   4.924281   4.968253
    28  O    4.903532   5.595546   3.481670   3.653421   2.743937
    29  H    3.943891   5.183379   2.505192   2.888647   1.679686
    30  O    4.692177   3.623555   3.629069   3.508402   3.607266
    31  H    4.982334   4.266322   4.247936   4.345739   4.024664
    32  O    5.335739   4.312114   3.397542   2.644871   3.555266
    33  H    4.412236   3.894338   2.380772   1.571557   2.728648
                   26         27         28         29         30
    26  P    0.000000
    27  O    1.456783   0.000000
    28  O    1.575983   2.548371   0.000000
    29  H    2.183541   3.445024   1.066953   0.000000
    30  O    1.638213   2.577621   2.523710   2.726299   0.000000
    31  H    2.181919   2.794030   2.721480   3.058619   1.004857
    32  O    1.572254   2.548938   2.583494   2.690614   2.463224
    33  H    2.200441   3.466699   2.704065   2.367058   2.685235
                   31         32         33
    31  H    0.000000
    32  O    3.356449   0.000000
    33  H    3.599614   1.087622   0.000000
 Symmetry turned off by external request.
 Stoichiometry    C7H18NO6P
 Framework group  C1[X(C7H18NO6P)]
 Deg. of freedom    93
 Full point group                 C1      NOp   1
 Rotational constants (GHZ):           0.7283787           0.3809100           0.2912472
 Leave Link  202 at Wed May 18 15:33:21 2022, MaxMem=   671088640 cpu:               0.1 elap:               0.0
 (Enter /data0/hywu0/study/g16/l122.exe)
 Counterpoise: doing full-system calculation.
 Leave Link  122 at Wed May 18 15:33:21 2022, MaxMem=   671088640 cpu:               0.0 elap:               0.0
 (Enter /data0/hywu0/study/g16/l301.exe)
 Standard basis: 6-311+G(2d,p) (5D, 7F)
 Ernie: Thresh=  0.10000D-02 Tol=  0.10000D-05 Strict=F.
   521 basis functions,   788 primitive gaussians,   551 cartesian basis functions
    65 alpha electrons       65 beta electrons
       nuclear repulsion energy      1351.2991351054 Hartrees.
 IExCor= 4336 DFT=T Ex+Corr=M062X ExCW=0 ScaHFX=  0.540000
 ScaDFX=  1.000000  1.000000  1.000000  1.000000 ScalE2=  1.000000  1.000000
 IRadAn=      5 IRanWt=     -1 IRanGd=            0 ICorTp=0 IEmpDi=131
 NAtoms=   33 NActive=   33 NUniq=   33 SFac= 1.00D+00 NAtFMM=   60 NAOKFM=F Big=F
 Integral buffers will be    131072 words long.
 Raffenetti 2 integral format.
 Two-electron integral symmetry is turned off.
 R6Disp:  Grimme-D3 Dispersion energy=       -0.0022107173 Hartrees.
 Nuclear repulsion after empirical dispersion term =     1351.2969243881 Hartrees.
 Leave Link  301 at Wed May 18 15:33:21 2022, MaxMem=   671088640 cpu:               0.5 elap:               0.1
 (Enter /data0/hywu0/study/g16/l302.exe)
 NPDir=0 NMtPBC=     1 NCelOv=     1 NCel=       1 NClECP=     1 NCelD=      1
         NCelK=      1 NCelE2=     1 NClLst=     1 CellRange=     0.0.
 One-electron integrals computed using PRISM.
 NBasis=   521 RedAO= T EigKep=  8.82D-06  NBF=   521
 NBsUse=   521 1.00D-06 EigRej= -1.00D+00 NBFU=   521
 Precomputing XC quadrature grid using
 IXCGrd= 4 IRadAn=           5 IRanWt=          -1 IRanGd=           0 AccXCQ= 0.00D+00.
 Generated NRdTot=       0 NPtTot=           0 NUsed=           0 NTot=          32
 NSgBfM=   551   551   551   551   551 MxSgAt=    33 MxSgA2=    33.
 Leave Link  302 at Wed May 18 15:33:22 2022, MaxMem=   671088640 cpu:               7.5 elap:               0.8
 (Enter /data0/hywu0/study/g16/l303.exe)
 DipDrv:  MaxL=1.
 Leave Link  303 at Wed May 18 15:33:22 2022, MaxMem=   671088640 cpu:               0.6 elap:               0.1
 (Enter /data0/hywu0/study/g16/l401.exe)
 ExpMin= 3.48D-02 ExpMax= 7.75D+04 ExpMxC= 2.65D+03 IAcc=3 IRadAn=         5 AccDes= 0.00D+00
 Harris functional with IExCor= 1009 and IRadAn=       5 diagonalized for initial guess.
 HarFok:  IExCor= 1009 AccDes= 0.00D+00 IRadAn=         5 IDoV= 1 UseB2=F ITyADJ=14
 ICtDFT=  3500011 ScaDFX=  1.000000  1.000000  1.000000  1.000000
 FoFCou: FMM=F IPFlag=           0 FMFlag=      100000 FMFlg1=           0
         NFxFlg=           0 DoJE=T BraDBF=F KetDBF=T FulRan=T
         wScrn=  0.000000 ICntrl=       500 IOpCl=  0 I1Cent=   200000004 NGrid=           0
         NMat0=    1 NMatS0=      1 NMatT0=    0 NMatD0=    1 NMtDS0=    0 NMtDT0=    0
 Symmetry not used in FoFCou.
 Harris En= -1124.67928416138    
 JPrj=0 DoOrth=F DoCkMO=F.
 Leave Link  401 at Wed May 18 15:33:28 2022, MaxMem=   671088640 cpu:              56.0 elap:               5.6
 (Enter /data0/hywu0/study/g16/l502.exe)
 Two-electron integral symmetry not used.
 Closed shell SCF:
 Using DIIS extrapolation, IDIIS=  1040.
 NGot=   671088640 LenX=   670471978 LenY=   670167826
 Requested convergence on RMS density matrix=1.00D-08 within 128 cycles.
 Requested convergence on MAX density matrix=1.00D-06.
 Requested convergence on             energy=1.00D-06.
 No special actions if energy rises.
 Fock matrices will be formed incrementally for  20 cycles.

 Cycle   1  Pass 1  IDiag  1:
 FoFJK:  IHMeth= 1 ICntrl=       0 DoSepK=F KAlg= 0 I1Cent=           0 FoldK=F
 IRaf= 880000000 NMat=       1 IRICut=       1 DoRegI=T DoRafI=F ISym2E= 0 IDoP0=0 IntGTp=1.
 FoFCou: FMM=F IPFlag=           0 FMFlag=      100000 FMFlg1=           0
         NFxFlg=           0 DoJE=F BraDBF=F KetDBF=F FulRan=T
         wScrn=  0.000000 ICntrl=         0 IOpCl=  0 I1Cent=           0 NGrid=           0
         NMat0=    1 NMatS0=      1 NMatT0=    0 NMatD0=    1 NMtDS0=    0 NMtDT0=    0
 Symmetry not used in FoFCou.
 E= -1124.48043022586    
 DIIS: error= 2.49D-02 at cycle   1 NSaved=   1.
 NSaved= 1 IEnMin= 1 EnMin= -1124.48043022586     IErMin= 1 ErrMin= 2.49D-02
 ErrMax= 2.49D-02  0.00D+00 EMaxC= 1.00D-01 BMatC= 9.51D-01 BMatP= 9.51D-01
 IDIUse=3 WtCom= 7.51D-01 WtEn= 2.49D-01
 Coeff-Com:  0.100D+01
 Coeff-En:   0.100D+01
 Coeff:      0.100D+01
 Gap=     0.334 Goal=   None    Shift=    0.000
 GapD=    0.334 DampG=1.000 DampE=0.500 DampFc=0.5000 IDamp=-1.
 Damping current iteration by 5.00D-01
 RMSDP=4.76D-03 MaxDP=3.46D-01              OVMax= 2.26D-01

 Cycle   2  Pass 1  IDiag  1:
 RMSU=  2.37D-03    CP:  9.84D-01
 E= -1124.75685064506     Delta-E=       -0.276420419200 Rises=F Damp=T
 DIIS: error= 6.93D-03 at cycle   2 NSaved=   2.
 NSaved= 2 IEnMin= 2 EnMin= -1124.75685064506     IErMin= 2 ErrMin= 6.93D-03
 ErrMax= 6.93D-03  0.00D+00 EMaxC= 1.00D-01 BMatC= 5.66D-02 BMatP= 9.51D-01
 IDIUse=3 WtCom= 9.31D-01 WtEn= 6.93D-02
 Coeff-Com:  0.151D-01 0.985D+00
 Coeff-En:   0.680D-01 0.932D+00
 Coeff:      0.188D-01 0.981D+00
 Gap=     0.303 Goal=   None    Shift=    0.000
 RMSDP=2.03D-03 MaxDP=3.96D-01 DE=-2.76D-01 OVMax= 1.50D-01

 Cycle   3  Pass 1  IDiag  1:
 RMSU=  1.73D-03    CP:  8.89D-01  9.73D-01
 E= -1125.06838067764     Delta-E=       -0.311530032582 Rises=F Damp=F
 DIIS: error= 6.88D-03 at cycle   3 NSaved=   3.
 NSaved= 3 IEnMin= 3 EnMin= -1125.06838067764     IErMin= 3 ErrMin= 6.88D-03
 ErrMax= 6.88D-03  0.00D+00 EMaxC= 1.00D-01 BMatC= 1.96D-02 BMatP= 5.66D-02
 IDIUse=3 WtCom= 9.31D-01 WtEn= 6.88D-02
 Coeff-Com: -0.478D-01 0.339D+00 0.709D+00
 Coeff-En:   0.000D+00 0.000D+00 0.100D+01
 Coeff:     -0.445D-01 0.316D+00 0.729D+00
 Gap=     0.295 Goal=   None    Shift=    0.000
 RMSDP=3.67D-04 MaxDP=2.18D-02 DE=-3.12D-01 OVMax= 4.04D-02

 Cycle   4  Pass 1  IDiag  1:
 RMSU=  3.51D-04    CP:  8.90D-01  1.01D+00  9.71D-01
 E= -1125.07816709477     Delta-E=       -0.009786417126 Rises=F Damp=F
 DIIS: error= 3.84D-03 at cycle   4 NSaved=   4.
 NSaved= 4 IEnMin= 4 EnMin= -1125.07816709477     IErMin= 4 ErrMin= 3.84D-03
 ErrMax= 3.84D-03  0.00D+00 EMaxC= 1.00D-01 BMatC= 6.05D-03 BMatP= 1.96D-02
 IDIUse=3 WtCom= 9.62D-01 WtEn= 3.84D-02
 Coeff-Com: -0.242D-01 0.700D-01 0.394D+00 0.560D+00
 Coeff-En:   0.000D+00 0.000D+00 0.229D+00 0.771D+00
 Coeff:     -0.233D-01 0.673D-01 0.387D+00 0.569D+00
 Gap=     0.298 Goal=   None    Shift=    0.000
 RMSDP=1.71D-04 MaxDP=1.13D-02 DE=-9.79D-03 OVMax= 1.29D-02

 Cycle   5  Pass 1  IDiag  1:
 RMSU=  9.83D-05    CP:  8.85D-01  9.99D-01  1.00D+00  6.68D-01
 E= -1125.08242979937     Delta-E=       -0.004262704600 Rises=F Damp=F
 DIIS: error= 4.09D-04 at cycle   5 NSaved=   5.
 NSaved= 5 IEnMin= 5 EnMin= -1125.08242979937     IErMin= 5 ErrMin= 4.09D-04
 ErrMax= 4.09D-04  0.00D+00 EMaxC= 1.00D-01 BMatC= 1.65D-04 BMatP= 6.05D-03
 IDIUse=3 WtCom= 9.96D-01 WtEn= 4.09D-03
 Coeff-Com: -0.687D-02 0.123D-01 0.125D+00 0.240D+00 0.630D+00
 Coeff-En:   0.000D+00 0.000D+00 0.000D+00 0.000D+00 0.100D+01
 Coeff:     -0.684D-02 0.123D-01 0.124D+00 0.239D+00 0.632D+00
 Gap=     0.288 Goal=   None    Shift=    0.000
 RMSDP=2.73D-05 MaxDP=1.07D-03 DE=-4.26D-03 OVMax= 1.97D-03

 Cycle   6  Pass 1  IDiag  1:
 RMSU=  2.42D-05    CP:  8.85D-01  9.99D-01  1.00D+00  6.92D-01  9.06D-01
 E= -1125.08254180228     Delta-E=       -0.000112002913 Rises=F Damp=F
 DIIS: error= 1.09D-04 at cycle   6 NSaved=   6.
 NSaved= 6 IEnMin= 6 EnMin= -1125.08254180228     IErMin= 6 ErrMin= 1.09D-04
 ErrMax= 1.09D-04  0.00D+00 EMaxC= 1.00D-01 BMatC= 1.19D-05 BMatP= 1.65D-04
 IDIUse=3 WtCom= 9.99D-01 WtEn= 1.09D-03
 Coeff-Com: -0.816D-03-0.317D-03 0.183D-01 0.509D-01 0.261D+00 0.671D+00
 Coeff-En:   0.000D+00 0.000D+00 0.000D+00 0.000D+00 0.000D+00 0.100D+01
 Coeff:     -0.816D-03-0.317D-03 0.183D-01 0.509D-01 0.261D+00 0.671D+00
 Gap=     0.289 Goal=   None    Shift=    0.000
 RMSDP=1.46D-05 MaxDP=1.88D-03 DE=-1.12D-04 OVMax= 5.50D-04

 Cycle   7  Pass 1  IDiag  1:
 RMSU=  1.32D-05    CP:  8.85D-01  9.99D-01  1.00D+00  7.00D-01  9.08D-01
                    CP:  8.42D-01
 E= -1125.08255194324     Delta-E=       -0.000010140957 Rises=F Damp=F
 DIIS: error= 2.79D-05 at cycle   7 NSaved=   7.
 NSaved= 7 IEnMin= 7 EnMin= -1125.08255194324     IErMin= 7 ErrMin= 2.79D-05
 ErrMax= 2.79D-05  0.00D+00 EMaxC= 1.00D-01 BMatC= 8.01D-07 BMatP= 1.19D-05
 IDIUse=1 WtCom= 1.00D+00 WtEn= 0.00D+00
 Coeff-Com:  0.386D-03-0.133D-02-0.563D-02-0.550D-02 0.287D-01 0.209D+00
 Coeff-Com:  0.774D+00
 Coeff:      0.386D-03-0.133D-02-0.563D-02-0.550D-02 0.287D-01 0.209D+00
 Coeff:      0.774D+00
 Gap=     0.289 Goal=   None    Shift=    0.000
 RMSDP=3.99D-06 MaxDP=3.15D-04 DE=-1.01D-05 OVMax= 3.09D-04

 Cycle   8  Pass 1  IDiag  1:
 RMSU=  2.83D-06    CP:  8.85D-01  9.98D-01  1.00D+00  7.01D-01  9.24D-01
                    CP:  8.93D-01  9.63D-01
 E= -1125.08255253281     Delta-E=       -0.000000589575 Rises=F Damp=F
 DIIS: error= 1.33D-05 at cycle   8 NSaved=   8.
 NSaved= 8 IEnMin= 8 EnMin= -1125.08255253281     IErMin= 8 ErrMin= 1.33D-05
 ErrMax= 1.33D-05  0.00D+00 EMaxC= 1.00D-01 BMatC= 2.88D-07 BMatP= 8.01D-07
 IDIUse=1 WtCom= 1.00D+00 WtEn= 0.00D+00
 Coeff-Com:  0.322D-03-0.627D-03-0.562D-02-0.103D-01-0.223D-01 0.141D-01
 Coeff-Com:  0.416D+00 0.608D+00
 Coeff:      0.322D-03-0.627D-03-0.562D-02-0.103D-01-0.223D-01 0.141D-01
 Coeff:      0.416D+00 0.608D+00
 Gap=     0.289 Goal=   None    Shift=    0.000
 RMSDP=1.62D-06 MaxDP=1.42D-04 DE=-5.90D-07 OVMax= 1.01D-04

 Cycle   9  Pass 1  IDiag  1:
 RMSU=  1.29D-06    CP:  8.85D-01  9.98D-01  1.00D+00  7.01D-01  9.29D-01
                    CP:  9.04D-01  1.02D+00  9.22D-01
 E= -1125.08255273883     Delta-E=       -0.000000206015 Rises=F Damp=F
 DIIS: error= 5.28D-06 at cycle   9 NSaved=   9.
 NSaved= 9 IEnMin= 9 EnMin= -1125.08255273883     IErMin= 9 ErrMin= 5.28D-06
 ErrMax= 5.28D-06  0.00D+00 EMaxC= 1.00D-01 BMatC= 1.67D-08 BMatP= 2.88D-07
 IDIUse=1 WtCom= 1.00D+00 WtEn= 0.00D+00
 Coeff-Com:  0.982D-04-0.150D-03-0.188D-02-0.379D-02-0.110D-01-0.777D-02
 Coeff-Com:  0.116D+00 0.248D+00 0.660D+00
 Coeff:      0.982D-04-0.150D-03-0.188D-02-0.379D-02-0.110D-01-0.777D-02
 Coeff:      0.116D+00 0.248D+00 0.660D+00
 Gap=     0.289 Goal=   None    Shift=    0.000
 RMSDP=5.26D-07 MaxDP=6.38D-05 DE=-2.06D-07 OVMax= 5.40D-05

 Cycle  10  Pass 1  IDiag  1:
 RMSU=  4.02D-07    CP:  8.85D-01  9.98D-01  1.00D+00  7.01D-01  9.28D-01
                    CP:  9.06D-01  1.03D+00  9.66D-01  8.77D-01
 E= -1125.08255275195     Delta-E=       -0.000000013121 Rises=F Damp=F
 DIIS: error= 1.56D-06 at cycle  10 NSaved=  10.
 NSaved=10 IEnMin=10 EnMin= -1125.08255275195     IErMin=10 ErrMin= 1.56D-06
 ErrMax= 1.56D-06  0.00D+00 EMaxC= 1.00D-01 BMatC= 4.28D-09 BMatP= 1.67D-08
 IDIUse=1 WtCom= 1.00D+00 WtEn= 0.00D+00
 Coeff-Com: -0.109D-04 0.347D-04 0.771D-04-0.452D-04-0.181D-02-0.726D-02
 Coeff-Com: -0.175D-01 0.582D-02 0.339D+00 0.682D+00
 Coeff:     -0.109D-04 0.347D-04 0.771D-04-0.452D-04-0.181D-02-0.726D-02
 Coeff:     -0.175D-01 0.582D-02 0.339D+00 0.682D+00
 Gap=     0.289 Goal=   None    Shift=    0.000
 RMSDP=2.20D-07 MaxDP=9.97D-06 DE=-1.31D-08 OVMax= 2.07D-05

 Cycle  11  Pass 1  IDiag  1:
 RMSU=  1.35D-07    CP:  8.85D-01  9.98D-01  1.00D+00  7.01D-01  9.28D-01
                    CP:  9.06D-01  1.03D+00  9.82D-01  1.00D+00  1.04D+00
 E= -1125.08255275548     Delta-E=       -0.000000003527 Rises=F Damp=F
 DIIS: error= 4.95D-07 at cycle  11 NSaved=  11.
 NSaved=11 IEnMin=11 EnMin= -1125.08255275548     IErMin=11 ErrMin= 4.95D-07
 ErrMax= 4.95D-07  0.00D+00 EMaxC= 1.00D-01 BMatC= 3.29D-10 BMatP= 4.28D-09
 IDIUse=1 WtCom= 1.00D+00 WtEn= 0.00D+00
 Coeff-Com: -0.168D-04 0.346D-04 0.275D-03 0.471D-03 0.718D-03-0.161D-02
 Coeff-Com: -0.215D-01-0.351D-01 0.491D-01 0.263D+00 0.745D+00
 Coeff:     -0.168D-04 0.346D-04 0.275D-03 0.471D-03 0.718D-03-0.161D-02
 Coeff:     -0.215D-01-0.351D-01 0.491D-01 0.263D+00 0.745D+00
 Gap=     0.289 Goal=   None    Shift=    0.000
 RMSDP=8.00D-08 MaxDP=8.10D-06 DE=-3.53D-09 OVMax= 6.90D-06

 Cycle  12  Pass 1  IDiag  1:
 RMSU=  5.15D-08    CP:  8.85D-01  9.98D-01  1.00D+00  7.01D-01  9.28D-01
                    CP:  9.06D-01  1.03D+00  9.91D-01  1.04D+00  1.05D+00
                    CP:  9.98D-01
 E= -1125.08255275586     Delta-E=       -0.000000000386 Rises=F Damp=F
 DIIS: error= 1.08D-07 at cycle  12 NSaved=  12.
 NSaved=12 IEnMin=12 EnMin= -1125.08255275586     IErMin=12 ErrMin= 1.08D-07
 ErrMax= 1.08D-07  0.00D+00 EMaxC= 1.00D-01 BMatC= 2.53D-11 BMatP= 3.29D-10
 IDIUse=1 WtCom= 1.00D+00 WtEn= 0.00D+00
 Coeff-Com: -0.287D-05 0.511D-05 0.635D-04 0.123D-03 0.360D-03 0.253D-03
 Coeff-Com: -0.356D-02-0.106D-01-0.180D-01-0.603D-02 0.193D+00 0.844D+00
 Coeff:     -0.287D-05 0.511D-05 0.635D-04 0.123D-03 0.360D-03 0.253D-03
 Coeff:     -0.356D-02-0.106D-01-0.180D-01-0.603D-02 0.193D+00 0.844D+00
 Gap=     0.289 Goal=   None    Shift=    0.000
 RMSDP=2.49D-08 MaxDP=2.23D-06 DE=-3.86D-10 OVMax= 2.18D-06

 Cycle  13  Pass 1  IDiag  1:
 RMSU=  1.63D-08    CP:  8.85D-01  9.98D-01  1.00D+00  7.01D-01  9.28D-01
                    CP:  9.06D-01  1.03D+00  9.91D-01  1.05D+00  1.07D+00
                    CP:  1.09D+00  1.01D+00
 E= -1125.08255275589     Delta-E=       -0.000000000026 Rises=F Damp=F
 DIIS: error= 5.40D-08 at cycle  13 NSaved=  13.
 NSaved=13 IEnMin=13 EnMin= -1125.08255275589     IErMin=13 ErrMin= 5.40D-08
 ErrMax= 5.40D-08  0.00D+00 EMaxC= 1.00D-01 BMatC= 3.91D-12 BMatP= 2.53D-11
 IDIUse=1 WtCom= 1.00D+00 WtEn= 0.00D+00
 Coeff-Com:  0.115D-05-0.258D-05-0.107D-04-0.141D-04 0.436D-04 0.257D-03
 Coeff-Com:  0.141D-02 0.231D-03-0.111D-01-0.363D-01-0.218D-01 0.308D+00
 Coeff-Com:  0.759D+00
 Coeff:      0.115D-05-0.258D-05-0.107D-04-0.141D-04 0.436D-04 0.257D-03
 Coeff:      0.141D-02 0.231D-03-0.111D-01-0.363D-01-0.218D-01 0.308D+00
 Coeff:      0.759D+00
 Gap=     0.289 Goal=   None    Shift=    0.000
 RMSDP=8.54D-09 MaxDP=7.09D-07 DE=-2.64D-11 OVMax= 7.43D-07

 SCF Done:  E(RM062X) =  -1125.08255276     A.U. after   13 cycles
            NFock= 13  Conv=0.85D-08     -V/T= 2.0034
 KE= 1.121248187882D+03 PE=-5.351900088175D+03 EE= 1.754272423149D+03
 Leave Link  502 at Wed May 18 15:39:03 2022, MaxMem=   671088640 cpu:            3344.4 elap:             335.4
 (Enter /data0/hywu0/study/g16/l601.exe)
 Copying SCF densities to generalized density rwf, IOpCl= 0 IROHF=0.

 **********************************************************************

            Population analysis using the SCF density.

 **********************************************************************

 Alpha  occ. eigenvalues --  -78.11374 -19.64453 -19.60912 -19.60766 -19.58348
 Alpha  occ. eigenvalues --  -19.57715 -19.53732 -14.92864 -10.65065 -10.63824
 Alpha  occ. eigenvalues --  -10.63610 -10.63450 -10.62042 -10.58057 -10.55130
 Alpha  occ. eigenvalues --   -6.92127  -5.04072  -5.03993  -5.03818  -1.18856
 Alpha  occ. eigenvalues --   -1.17658  -1.17260  -1.11585  -1.09943  -1.07718
 Alpha  occ. eigenvalues --   -1.04377  -0.93228  -0.89080  -0.87571  -0.84547
 Alpha  occ. eigenvalues --   -0.76900  -0.72114  -0.67300  -0.64774  -0.64203
 Alpha  occ. eigenvalues --   -0.63385  -0.61400  -0.60182  -0.58405  -0.57377
 Alpha  occ. eigenvalues --   -0.55246  -0.54082  -0.53638  -0.53192  -0.52405
 Alpha  occ. eigenvalues --   -0.51376  -0.50762  -0.50199  -0.49827  -0.49148
 Alpha  occ. eigenvalues --   -0.48313  -0.47658  -0.46255  -0.44757  -0.44489
 Alpha  occ. eigenvalues --   -0.42561  -0.42327  -0.41449  -0.40215  -0.37407
 Alpha  occ. eigenvalues --   -0.35058  -0.33843  -0.33365  -0.32763  -0.32124
 Alpha virt. eigenvalues --   -0.03234  -0.01200  -0.00870   0.00341   0.00951
 Alpha virt. eigenvalues --    0.01924   0.02499   0.03062   0.03221   0.04093
 Alpha virt. eigenvalues --    0.05445   0.05936   0.05983   0.06733   0.07220
 Alpha virt. eigenvalues --    0.07291   0.08010   0.08505   0.09157   0.09519
 Alpha virt. eigenvalues --    0.10018   0.10246   0.10552   0.11094   0.11482
 Alpha virt. eigenvalues --    0.11766   0.12519   0.13262   0.13319   0.13898
 Alpha virt. eigenvalues --    0.14875   0.14956   0.15220   0.15940   0.16114
 Alpha virt. eigenvalues --    0.16586   0.16992   0.17425   0.18284   0.18808
 Alpha virt. eigenvalues --    0.19355   0.19792   0.20127   0.20651   0.20788
 Alpha virt. eigenvalues --    0.20894   0.21646   0.22453   0.22962   0.23195
 Alpha virt. eigenvalues --    0.23599   0.24044   0.24263   0.24878   0.25101
 Alpha virt. eigenvalues --    0.25322   0.26027   0.26945   0.27323   0.28280
 Alpha virt. eigenvalues --    0.28481   0.28687   0.29077   0.29521   0.30518
 Alpha virt. eigenvalues --    0.30619   0.31223   0.32236   0.32505   0.33278
 Alpha virt. eigenvalues --    0.33479   0.33705   0.34073   0.34240   0.34838
 Alpha virt. eigenvalues --    0.34889   0.35821   0.36333   0.36681   0.37565
 Alpha virt. eigenvalues --    0.37983   0.38800   0.39168   0.39382   0.41021
 Alpha virt. eigenvalues --    0.41949   0.42222   0.42725   0.43562   0.44063
 Alpha virt. eigenvalues --    0.45105   0.45924   0.46344   0.47364   0.48084
 Alpha virt. eigenvalues --    0.49561   0.50029   0.50991   0.51351   0.51671
 Alpha virt. eigenvalues --    0.52435   0.53077   0.54167   0.54374   0.55465
 Alpha virt. eigenvalues --    0.56058   0.57202   0.57591   0.58156   0.59365
 Alpha virt. eigenvalues --    0.59730   0.60329   0.60906   0.61824   0.62371
 Alpha virt. eigenvalues --    0.63239   0.64152   0.64730   0.65743   0.66374
 Alpha virt. eigenvalues --    0.66933   0.67237   0.68198   0.69420   0.69757
 Alpha virt. eigenvalues --    0.70185   0.71514   0.71662   0.72452   0.72874
 Alpha virt. eigenvalues --    0.74274   0.75179   0.75714   0.76519   0.77238
 Alpha virt. eigenvalues --    0.77862   0.79047   0.79347   0.81775   0.81971
 Alpha virt. eigenvalues --    0.82943   0.83969   0.85481   0.86296   0.86753
 Alpha virt. eigenvalues --    0.88220   0.88836   0.90504   0.93029   0.93540
 Alpha virt. eigenvalues --    0.93926   0.94289   0.95370   0.97195   0.98654
 Alpha virt. eigenvalues --    1.03704   1.03764   1.06537   1.08413   1.09656
 Alpha virt. eigenvalues --    1.11083   1.11795   1.13058   1.13500   1.14025
 Alpha virt. eigenvalues --    1.15232   1.16254   1.16955   1.17035   1.18189
 Alpha virt. eigenvalues --    1.19414   1.19721   1.20414   1.21169   1.21923
 Alpha virt. eigenvalues --    1.22318   1.23236   1.23793   1.25034   1.25473
 Alpha virt. eigenvalues --    1.26740   1.26941   1.27467   1.27654   1.29320
 Alpha virt. eigenvalues --    1.30033   1.30761   1.31683   1.32269   1.33380
 Alpha virt. eigenvalues --    1.33688   1.34377   1.35642   1.36014   1.37152
 Alpha virt. eigenvalues --    1.38218   1.39281   1.39676   1.40609   1.42294
 Alpha virt. eigenvalues --    1.43794   1.44618   1.45397   1.45889   1.47368
 Alpha virt. eigenvalues --    1.48681   1.50216   1.50836   1.52410   1.52834
 Alpha virt. eigenvalues --    1.54665   1.55644   1.56378   1.58213   1.59221
 Alpha virt. eigenvalues --    1.59902   1.61384   1.64093   1.64515   1.66789
 Alpha virt. eigenvalues --    1.68294   1.69592   1.71535   1.71691   1.72276
 Alpha virt. eigenvalues --    1.73561   1.74649   1.75940   1.76281   1.77048
 Alpha virt. eigenvalues --    1.77759   1.79204   1.79455   1.82131   1.82488
 Alpha virt. eigenvalues --    1.83416   1.84766   1.84991   1.86497   1.88172
 Alpha virt. eigenvalues --    1.89087   1.90829   1.91241   1.92167   1.92507
 Alpha virt. eigenvalues --    1.93952   1.95558   1.96891   1.97975   1.98462
 Alpha virt. eigenvalues --    1.99279   2.01388   2.02026   2.04128   2.06372
 Alpha virt. eigenvalues --    2.07406   2.09376   2.10494   2.12253   2.13503
 Alpha virt. eigenvalues --    2.14074   2.15399   2.16466   2.18522   2.20484
 Alpha virt. eigenvalues --    2.21527   2.21698   2.22301   2.24665   2.25769
 Alpha virt. eigenvalues --    2.26542   2.27865   2.28799   2.29948   2.31052
 Alpha virt. eigenvalues --    2.31812   2.33754   2.34335   2.34958   2.36039
 Alpha virt. eigenvalues --    2.36637   2.37584   2.37819   2.38714   2.39797
 Alpha virt. eigenvalues --    2.40161   2.41564   2.41891   2.43938   2.46002
 Alpha virt. eigenvalues --    2.47112   2.48503   2.49293   2.53399   2.54466
 Alpha virt. eigenvalues --    2.59304   2.60044   2.61380   2.63506   2.65789
 Alpha virt. eigenvalues --    2.65935   2.67632   2.69885   2.72292   2.74342
 Alpha virt. eigenvalues --    2.74934   2.75729   2.77807   2.78298   2.83037
 Alpha virt. eigenvalues --    2.84291   2.85831   2.87512   2.89324   2.90477
 Alpha virt. eigenvalues --    2.92735   2.95885   2.97341   2.99409   2.99646
 Alpha virt. eigenvalues --    3.02696   3.05280   3.06328   3.08509   3.09489
 Alpha virt. eigenvalues --    3.12654   3.15067   3.17000   3.17455   3.21389
 Alpha virt. eigenvalues --    3.22115   3.25158   3.29748   3.31331   3.32412
 Alpha virt. eigenvalues --    3.33546   3.35258   3.36290   3.37204   3.37968
 Alpha virt. eigenvalues --    3.40297   3.41544   3.46356   3.48497   3.49694
 Alpha virt. eigenvalues --    3.53938   3.54230   3.55326   3.57668   3.58360
 Alpha virt. eigenvalues --    3.60118   3.61153   3.62781   3.63531   3.65178
 Alpha virt. eigenvalues --    3.66563   3.67808   3.68691   3.70718   3.73553
 Alpha virt. eigenvalues --    3.75879   3.78918   3.80723   3.82091   3.84010
 Alpha virt. eigenvalues --    3.85739   3.90840   3.97747   4.00986   4.11158
 Alpha virt. eigenvalues --    4.12502   4.13015   4.13701   4.16070   4.17049
 Alpha virt. eigenvalues --    4.19356   4.23316   4.25702   4.35605   4.40175
 Alpha virt. eigenvalues --    4.53395   4.76313   4.78510   4.80472   5.12765
 Alpha virt. eigenvalues --    5.16255   5.18731   5.19563   5.21023   5.22253
 Alpha virt. eigenvalues --    5.22880   5.23960   5.28039   5.30086   5.34372
 Alpha virt. eigenvalues --    5.35883   5.41823   5.44259   5.44918   5.47681
 Alpha virt. eigenvalues --    5.49705   5.50732   5.65944   5.66325   5.70310
 Alpha virt. eigenvalues --    5.96715   6.25627   6.78861   6.80510   6.81586
 Alpha virt. eigenvalues --    6.83553   6.84239   6.85934   6.86238   6.89509
 Alpha virt. eigenvalues --    6.90883   6.92992   6.97058   6.98610   7.01227
 Alpha virt. eigenvalues --    7.02982   7.04130   7.05035   7.06607   7.08645
 Alpha virt. eigenvalues --    7.10210   7.16723   7.20579   7.21474   7.29251
 Alpha virt. eigenvalues --    7.30916   7.33567   7.35773   7.36844   7.42707
 Alpha virt. eigenvalues --    7.44592   7.48972   7.72823  14.27125  14.33808
 Alpha virt. eigenvalues --   14.45034  23.94353  23.97225  24.03443  24.05781
 Alpha virt. eigenvalues --   24.07493  24.09542  24.26130  35.49223  50.07687
 Alpha virt. eigenvalues --   50.09684  50.11645  50.16340  50.18896  50.21675
 Alpha virt. eigenvalues --  163.95826
          Condensed to atoms (all electrons):
               1          2          3          4          5          6
     1  C    5.825955   0.392324   0.381735   0.394116  -0.178590  -0.020056
     2  H    0.392324   0.450274  -0.018285  -0.016992  -0.025838   0.000487
     3  H    0.381735  -0.018285   0.465378  -0.009784  -0.006301   0.000255
     4  H    0.394116  -0.016992  -0.009784   0.366460   0.014456   0.000203
     5  C   -0.178590  -0.025838  -0.006301   0.014456   5.606926   0.389084
     6  H   -0.020056   0.000487   0.000255   0.000203   0.389084   0.454530
     7  H    0.025295   0.000067   0.000072  -0.000150   0.403814  -0.018328
     8  H   -0.025014   0.000566   0.001146   0.000186   0.415638  -0.018598
     9  C   -0.237464  -0.024590   0.035979  -0.006777  -0.184480  -0.021348
    10  H    0.030274   0.000021  -0.000300   0.000180  -0.016399   0.000384
    11  H   -0.027244  -0.001540   0.000185   0.000276  -0.014875   0.000239
    12  H   -0.012776  -0.000567   0.000166   0.002484   0.014948   0.000130
    13  C   -0.494037   0.051283  -0.036077  -0.033908  -0.372680   0.053647
    14  H    0.003798   0.000148   0.001502   0.000954  -0.016433  -0.000048
    15  H   -0.000115  -0.000109   0.001104   0.003151   0.009655  -0.000174
    16  C    0.061389  -0.000829   0.001846  -0.002112   0.067681  -0.000418
    17  H    0.013868  -0.000013   0.000034   0.000097  -0.007096  -0.000289
    18  H   -0.005846  -0.000002   0.000018   0.000030  -0.001346   0.000057
    19  C   -0.085619   0.000921   0.001610  -0.003002  -0.094808   0.003485
    20  H    0.000495  -0.000000  -0.000001   0.000001   0.000445  -0.000001
    21  H    0.001702  -0.000001  -0.000001   0.000006   0.000591  -0.000002
    22  N    0.347287  -0.014807  -0.017260  -0.015294   0.320115  -0.030407
    23  C    0.054670  -0.000098   0.000613   0.003708   0.019081  -0.000587
    24  O   -0.019929  -0.000088   0.000089  -0.001750   0.006613   0.000024
    25  O    0.000031   0.000003  -0.000004   0.000143  -0.001004  -0.000002
    26  P   -0.011647   0.000710  -0.000077  -0.002245  -0.009018   0.000139
    27  O    0.000549  -0.000004  -0.000008  -0.000271  -0.000696   0.000000
    28  O   -0.001096   0.000013   0.000019   0.000113  -0.000185   0.000000
    29  H    0.000337  -0.000000   0.000000   0.000126   0.000021   0.000000
    30  O   -0.017780   0.000097  -0.002305   0.009698   0.001842  -0.000032
    31  H    0.014462  -0.000177  -0.000186  -0.000569   0.000499  -0.000005
    32  O   -0.007786   0.000091  -0.000039  -0.000571   0.005373  -0.000002
    33  H    0.003676  -0.000024  -0.000011   0.000233   0.000360  -0.000011
               7          8          9         10         11         12
     1  C    0.025295  -0.025014  -0.237464   0.030274  -0.027244  -0.012776
     2  H    0.000067   0.000566  -0.024590   0.000021  -0.001540  -0.000567
     3  H    0.000072   0.001146   0.035979  -0.000300   0.000185   0.000166
     4  H   -0.000150   0.000186  -0.006777   0.000180   0.000276   0.002484
     5  C    0.403814   0.415638  -0.184480  -0.016399  -0.014875   0.014948
     6  H   -0.018328  -0.018598  -0.021348   0.000384   0.000239   0.000130
     7  H    0.448689  -0.019302  -0.013129   0.001100   0.000268   0.000124
     8  H   -0.019302   0.443391   0.023853  -0.000058   0.000343  -0.000236
     9  C   -0.013129   0.023853   5.832761   0.406068   0.393113   0.384867
    10  H    0.001100  -0.000058   0.406068   0.429015  -0.016323  -0.011648
    11  H    0.000268   0.000343   0.393113  -0.016323   0.452667  -0.018687
    12  H    0.000124  -0.000236   0.384867  -0.011648  -0.018687   0.413386
    13  C   -0.055306  -0.009035  -0.201238   0.007784   0.029308  -0.011482
    14  H    0.000178  -0.000511   0.014219   0.000026  -0.000003   0.000126
    15  H    0.000164   0.000519   0.004820  -0.000169   0.000107  -0.003120
    16  C    0.019042  -0.007747  -0.198872  -0.033142   0.005570   0.006800
    17  H   -0.000930   0.000262  -0.018292   0.003327   0.000019  -0.000086
    18  H   -0.001033   0.000363   0.008997   0.000311   0.000001  -0.000069
    19  C    0.003583  -0.002877   0.133722   0.005382  -0.000103  -0.006127
    20  H    0.000015  -0.000000   0.000632   0.000000  -0.000003  -0.000027
    21  H   -0.000005   0.000006  -0.001289  -0.000025   0.000001   0.000008
    22  N   -0.011018  -0.017503   0.193771  -0.021731  -0.015636  -0.018166
    23  C    0.000017   0.000020  -0.079089  -0.002100   0.000390   0.007528
    24  O    0.000165   0.000087  -0.041405  -0.011117   0.005016  -0.015756
    25  O    0.000003  -0.000004   0.005565   0.000202  -0.000020   0.000258
    26  P   -0.000001  -0.000014   0.000608   0.000905   0.000282   0.000408
    27  O    0.000000   0.000000   0.001341   0.000016  -0.000022  -0.000817
    28  O   -0.000000   0.000000  -0.001869   0.000026   0.000029   0.001300
    29  H    0.000000   0.000000   0.001157   0.000004  -0.000003  -0.000072
    30  O   -0.000029  -0.000027  -0.019202  -0.000535   0.000058   0.009782
    31  H   -0.000003  -0.000010   0.001349  -0.000034  -0.000020   0.000471
    32  O   -0.000000  -0.000001  -0.013961  -0.003450   0.000627   0.011878
    33  H   -0.000017  -0.000004   0.018251   0.003541  -0.000781   0.001953
              13         14         15         16         17         18
     1  C   -0.494037   0.003798  -0.000115   0.061389   0.013868  -0.005846
     2  H    0.051283   0.000148  -0.000109  -0.000829  -0.000013  -0.000002
     3  H   -0.036077   0.001502   0.001104   0.001846   0.000034   0.000018
     4  H   -0.033908   0.000954   0.003151  -0.002112   0.000097   0.000030
     5  C   -0.372680  -0.016433   0.009655   0.067681  -0.007096  -0.001346
     6  H    0.053647  -0.000048  -0.000174  -0.000418  -0.000289   0.000057
     7  H   -0.055306   0.000178   0.000164   0.019042  -0.000930  -0.001033
     8  H   -0.009035  -0.000511   0.000519  -0.007747   0.000262   0.000363
     9  C   -0.201238   0.014219   0.004820  -0.198872  -0.018292   0.008997
    10  H    0.007784   0.000026  -0.000169  -0.033142   0.003327   0.000311
    11  H    0.029308  -0.000003   0.000107   0.005570   0.000019   0.000001
    12  H   -0.011482   0.000126  -0.003120   0.006800  -0.000086  -0.000069
    13  C    8.076313   0.298591   0.347758  -0.852463  -0.169694   0.004020
    14  H    0.298591   0.471481  -0.021191   0.005770   0.004279  -0.011192
    15  H    0.347758  -0.021191   0.422315  -0.021157   0.000710   0.003930
    16  C   -0.852463   0.005770  -0.021157   6.556359   0.549386   0.357655
    17  H   -0.169694   0.004279   0.000710   0.549386   0.508774  -0.038219
    18  H    0.004020  -0.011192   0.003930   0.357655  -0.038219   0.520999
    19  C    0.348152   0.003907  -0.017263  -0.747285  -0.095275   0.008379
    20  H    0.030399  -0.000203   0.000440  -0.067545  -0.006622  -0.001755
    21  H   -0.010030  -0.000085  -0.000308  -0.014825   0.005839  -0.006502
    22  N   -0.413877   0.025667  -0.003405   0.218360   0.076142  -0.024182
    23  C   -0.428359   0.011852   0.029597   0.378114   0.017523   0.012928
    24  O    0.082661   0.001525  -0.017469  -0.086479  -0.010367   0.002414
    25  O   -0.002595  -0.000453   0.005572   0.005227  -0.000516  -0.000780
    26  P    0.010366  -0.000283   0.005647  -0.027351   0.000389   0.000046
    27  O   -0.002810   0.000017   0.000885  -0.001679   0.000009  -0.000000
    28  O    0.012003  -0.000026  -0.002107   0.002491  -0.000039   0.000002
    29  H   -0.013310   0.000034   0.001037   0.004874   0.000009   0.000005
    30  O    0.029109  -0.001583  -0.024903   0.005379  -0.000369  -0.000083
    31  H    0.010420  -0.000139  -0.000399  -0.000295  -0.000013   0.000001
    32  O    0.001534   0.000029  -0.003566   0.007774  -0.000138  -0.000023
    33  H   -0.012283  -0.000098   0.003738   0.013771   0.000333   0.000021
              19         20         21         22         23         24
     1  C   -0.085619   0.000495   0.001702   0.347287   0.054670  -0.019929
     2  H    0.000921  -0.000000  -0.000001  -0.014807  -0.000098  -0.000088
     3  H    0.001610  -0.000001  -0.000001  -0.017260   0.000613   0.000089
     4  H   -0.003002   0.000001   0.000006  -0.015294   0.003708  -0.001750
     5  C   -0.094808   0.000445   0.000591   0.320115   0.019081   0.006613
     6  H    0.003485  -0.000001  -0.000002  -0.030407  -0.000587   0.000024
     7  H    0.003583   0.000015  -0.000005  -0.011018   0.000017   0.000165
     8  H   -0.002877  -0.000000   0.000006  -0.017503   0.000020   0.000087
     9  C    0.133722   0.000632  -0.001289   0.193771  -0.079089  -0.041405
    10  H    0.005382   0.000000  -0.000025  -0.021731  -0.002100  -0.011117
    11  H   -0.000103  -0.000003   0.000001  -0.015636   0.000390   0.005016
    12  H   -0.006127  -0.000027   0.000008  -0.018166   0.007528  -0.015756
    13  C    0.348152   0.030399  -0.010030  -0.413877  -0.428359   0.082661
    14  H    0.003907  -0.000203  -0.000085   0.025667   0.011852   0.001525
    15  H   -0.017263   0.000440  -0.000308  -0.003405   0.029597  -0.017469
    16  C   -0.747285  -0.067545  -0.014825   0.218360   0.378114  -0.086479
    17  H   -0.095275  -0.006622   0.005839   0.076142   0.017523  -0.010367
    18  H    0.008379  -0.001755  -0.006502  -0.024182   0.012928   0.002414
    19  C    6.982276   0.435468   0.413857  -0.168662  -0.581012  -0.066332
    20  H    0.435468   0.494885  -0.025565  -0.000452  -0.049113   0.000306
    21  H    0.413857  -0.025565   0.486222   0.004075  -0.037963   0.004442
    22  N   -0.168662  -0.000452   0.004075   6.729926   0.104412  -0.037557
    23  C   -0.581012  -0.049113  -0.037963   0.104412   5.571533   0.214174
    24  O   -0.066332   0.000306   0.004442  -0.037557   0.214174   8.668898
    25  O   -0.088029   0.002396  -0.010451  -0.007919   0.453614  -0.067379
    26  P    0.045417  -0.000244  -0.000344   0.000148  -0.030106   0.016723
    27  O    0.003621   0.000001  -0.000005  -0.000361  -0.000814   0.003024
    28  O   -0.013436   0.000025   0.000146  -0.003785   0.001702  -0.023948
    29  H   -0.001598  -0.000157  -0.000009   0.000890   0.013378   0.006839
    30  O   -0.027809  -0.000012   0.000141   0.022798   0.014388   0.008998
    31  H   -0.001548   0.000003  -0.000022  -0.009501   0.001965  -0.000744
    32  O   -0.006893   0.000050   0.000016   0.013681   0.006763  -0.000419
    33  H    0.010875  -0.000335   0.000156  -0.006474  -0.002442   0.021709
              25         26         27         28         29         30
     1  C    0.000031  -0.011647   0.000549  -0.001096   0.000337  -0.017780
     2  H    0.000003   0.000710  -0.000004   0.000013  -0.000000   0.000097
     3  H   -0.000004  -0.000077  -0.000008   0.000019   0.000000  -0.002305
     4  H    0.000143  -0.002245  -0.000271   0.000113   0.000126   0.009698
     5  C   -0.001004  -0.009018  -0.000696  -0.000185   0.000021   0.001842
     6  H   -0.000002   0.000139   0.000000   0.000000   0.000000  -0.000032
     7  H    0.000003  -0.000001   0.000000  -0.000000   0.000000  -0.000029
     8  H   -0.000004  -0.000014   0.000000   0.000000   0.000000  -0.000027
     9  C    0.005565   0.000608   0.001341  -0.001869   0.001157  -0.019202
    10  H    0.000202   0.000905   0.000016   0.000026   0.000004  -0.000535
    11  H   -0.000020   0.000282  -0.000022   0.000029  -0.000003   0.000058
    12  H    0.000258   0.000408  -0.000817   0.001300  -0.000072   0.009782
    13  C   -0.002595   0.010366  -0.002810   0.012003  -0.013310   0.029109
    14  H   -0.000453  -0.000283   0.000017  -0.000026   0.000034  -0.001583
    15  H    0.005572   0.005647   0.000885  -0.002107   0.001037  -0.024903
    16  C    0.005227  -0.027351  -0.001679   0.002491   0.004874   0.005379
    17  H   -0.000516   0.000389   0.000009  -0.000039   0.000009  -0.000369
    18  H   -0.000780   0.000046  -0.000000   0.000002   0.000005  -0.000083
    19  C   -0.088029   0.045417   0.003621  -0.013436  -0.001598  -0.027809
    20  H    0.002396  -0.000244   0.000001   0.000025  -0.000157  -0.000012
    21  H   -0.010451  -0.000344  -0.000005   0.000146  -0.000009   0.000141
    22  N   -0.007919   0.000148  -0.000361  -0.003785   0.000890   0.022798
    23  C    0.453614  -0.030106  -0.000814   0.001702   0.013378   0.014388
    24  O   -0.067379   0.016723   0.003024  -0.023948   0.006839   0.008998
    25  O    8.157424   0.027820   0.001979  -0.041749   0.076748  -0.004542
    26  P    0.027820  12.491819   0.559781   0.227338   0.040099   0.160265
    27  O    0.001979   0.559781   8.150649  -0.075605   0.011226  -0.026065
    28  O   -0.041749   0.227338  -0.075605   8.237924   0.197684   0.084376
    29  H    0.076748   0.040099   0.011226   0.197684   0.275736  -0.018832
    30  O   -0.004542   0.160265  -0.026065   0.084376  -0.018832   8.293029
    31  H    0.000533  -0.020190  -0.002379  -0.010739  -0.002241   0.203943
    32  O   -0.029086   0.223015  -0.043976   0.005984  -0.009386   0.031354
    33  H    0.019091   0.051706   0.006277  -0.003434   0.007508  -0.024028
              31         32         33
     1  C    0.014462  -0.007786   0.003676
     2  H   -0.000177   0.000091  -0.000024
     3  H   -0.000186  -0.000039  -0.000011
     4  H   -0.000569  -0.000571   0.000233
     5  C    0.000499   0.005373   0.000360
     6  H   -0.000005  -0.000002  -0.000011
     7  H   -0.000003  -0.000000  -0.000017
     8  H   -0.000010  -0.000001  -0.000004
     9  C    0.001349  -0.013961   0.018251
    10  H   -0.000034  -0.003450   0.003541
    11  H   -0.000020   0.000627  -0.000781
    12  H    0.000471   0.011878   0.001953
    13  C    0.010420   0.001534  -0.012283
    14  H   -0.000139   0.000029  -0.000098
    15  H   -0.000399  -0.003566   0.003738
    16  C   -0.000295   0.007774   0.013771
    17  H   -0.000013  -0.000138   0.000333
    18  H    0.000001  -0.000023   0.000021
    19  C   -0.001548  -0.006893   0.010875
    20  H    0.000003   0.000050  -0.000335
    21  H   -0.000022   0.000016   0.000156
    22  N   -0.009501   0.013681  -0.006474
    23  C    0.001965   0.006763  -0.002442
    24  O   -0.000744  -0.000419   0.021709
    25  O    0.000533  -0.029086   0.019091
    26  P   -0.020190   0.223015   0.051706
    27  O   -0.002379  -0.043976   0.006277
    28  O   -0.010739   0.005984  -0.003434
    29  H   -0.002241  -0.009386   0.007508
    30  O    0.203943   0.031354  -0.024028
    31  H    0.502787   0.002431   0.002969
    32  O    0.002431   8.250170   0.153988
    33  H    0.002969   0.153988   0.324623
 Mulliken charges:
               1
     1  C   -0.406964
     2  H    0.206961
     3  H    0.198891
     4  H    0.296805
     5  C   -0.347391
     6  H    0.207643
     7  H    0.216654
     8  H    0.214561
     9  C   -0.398069
    10  H    0.228465
    11  H    0.206764
    12  H    0.243019
    13  C   -0.274163
    14  H    0.208143
    15  H    0.274306
    16  C   -0.205286
    17  H    0.166960
    18  H    0.170854
    19  C   -0.392975
    20  H    0.186474
    21  H    0.190224
    22  N   -0.219276
    23  C    0.293713
    24  O   -0.642965
    25  O   -0.502077
    26  P    1.237892
    27  O   -0.583863
    28  O   -0.593160
    29  H    0.407894
    30  O   -0.707120
    31  H    0.307382
    32  O   -0.595461
    33  H    0.405166
 Sum of Mulliken charges =  -0.00000
 Mulliken charges with hydrogens summed into heavy atoms:
               1
     1  C    0.295693
     5  C    0.291467
     9  C    0.280179
    13  C    0.208287
    16  C    0.132528
    19  C   -0.016277
    22  N   -0.219276
    23  C    0.293713
    24  O   -0.642965
    25  O   -0.502077
    26  P    1.237892
    27  O   -0.583863
    28  O   -0.185266
    30  O   -0.399739
    32  O   -0.190295
         Mulliken charges condensed to fragments:
      1      0.121271
      2     -0.121271
 Electronic spatial extent (au):  <R**2>=         166538.7869
 Charge=             -0.0000 electrons
 Dipole moment (field-independent basis, Debye):
    X=              0.1313    Y=             11.7011    Z=            -12.6047  Tot=             17.1992
 Quadrupole moment (field-independent basis, Debye-Ang):
   XX=            -94.6718   YY=            172.1508   ZZ=           -433.8802
   XY=             46.2204   XZ=            -41.0364   YZ=              0.5336
 Traceless Quadrupole moment (field-independent basis, Debye-Ang):
   XX=             24.1286   YY=            290.9512   ZZ=           -315.0798
   XY=             46.2204   XZ=            -41.0364   YZ=              0.5336
 Octapole moment (field-independent basis, Debye-Ang**2):
  XXX=           -927.8611  YYY=           1142.1474  ZZZ=         -10821.3513  XYY=            695.0774
  XXY=           -993.2541  XXZ=          -1448.6000  XZZ=          -1455.0438  YZZ=          -3250.0360
  YYZ=            303.0412  XYZ=             98.8205
 Hexadecapole moment (field-independent basis, Debye-Ang**3):
 XXXX=          -6682.7904 YYYY=         -15610.6792 ZZZZ=        -235918.3863 XXXY=         -10448.3767
 XXXZ=         -13308.6218 YYYX=           5677.1417 YYYZ=         -10738.0192 ZZZX=         -36693.8077
 ZZZY=        -104566.8691 XXYY=         -12177.1434 XXZZ=         -23412.5807 YYZZ=         -37584.7164
 XXYZ=         -15338.9217 YYXZ=           2700.9228 ZZXY=          -9555.7366
 N-N= 1.351296924388D+03 E-N=-5.351900077363D+03  KE= 1.121248187882D+03
 No NMR shielding tensors so no spin-rotation constants.
 Leave Link  601 at Wed May 18 15:39:04 2022, MaxMem=   671088640 cpu:               1.8 elap:               0.2
 (Enter /data0/hywu0/study/g16/l122.exe)
 CPIOFr:  IOpCl= 0 IRwI=-1 IRwCP=  731 ICalc= -1 LCPTot=      418338 Len1MO=     1096859 IndFrg=      418338
 CPIOFr:  IOpCl= 0 IRwI=-1 IRwCP=  731 ICalc=  0 LCPTot=      418338 Len1MO=     1096859 IndFrg=     1515197
 Counterpoise: doing calculation for fragment   1 using the basis set of the full-system, NewBq=T
 Leave Link  122 at Wed May 18 15:39:04 2022, MaxMem=   671088640 cpu:               0.2 elap:               0.0
 (Enter /data0/hywu0/study/g16/l301.exe)
 Basis read from rwf:  (5D, 7F)
 No pseudopotential information found on rwf file.
   521 basis functions,   788 primitive gaussians,   551 cartesian basis functions
    40 alpha electrons       40 beta electrons
       nuclear repulsion energy       591.1339831641 Hartrees.
 IExCor= 4336 DFT=T Ex+Corr=M062X ExCW=0 ScaHFX=  0.540000
 ScaDFX=  1.000000  1.000000  1.000000  1.000000 ScalE2=  1.000000  1.000000
 IRadAn=      5 IRanWt=     -1 IRanGd=            0 ICorTp=0 IEmpDi=131
 NAtoms=   33 NActive=   33 NUniq=   33 SFac= 1.00D+00 NAtFMM=   60 NAOKFM=F Big=F
 Integral buffers will be    131072 words long.
 Raffenetti 2 integral format.
 Two-electron integral symmetry is turned off.
 R6Disp:  Grimme-D3 Dispersion energy=       -0.0010085580 Hartrees.
 Nuclear repulsion after empirical dispersion term =      591.1329746061 Hartrees.
 No density basis found on file   718.
 Leave Link  301 at Wed May 18 15:39:04 2022, MaxMem=   671088640 cpu:               0.6 elap:               0.1
 (Enter /data0/hywu0/study/g16/l302.exe)
 NPDir=0 NMtPBC=     1 NCelOv=     1 NCel=       1 NClECP=     1 NCelD=      1
         NCelK=      1 NCelE2=     1 NClLst=     1 CellRange=     0.0.
 One-electron integrals computed using PRISM.
 NBasis=   521 RedAO= T EigKep=  8.82D-06  NBF=   521
 NBsUse=   521 1.00D-06 EigRej= -1.00D+00 NBFU=   521
 Precomputing XC quadrature grid using
 IXCGrd= 4 IRadAn=           5 IRanWt=          -1 IRanGd=           0 AccXCQ= 0.00D+00.
 Generated NRdTot=       0 NPtTot=           0 NUsed=           0 NTot=          32
 NSgBfM=   551   551   551   551   551 MxSgAt=    33 MxSgA2=    33.
 Leave Link  302 at Wed May 18 15:39:04 2022, MaxMem=   671088640 cpu:               7.6 elap:               0.8
 (Enter /data0/hywu0/study/g16/l303.exe)
 DipDrv:  MaxL=1.
 Leave Link  303 at Wed May 18 15:39:05 2022, MaxMem=   671088640 cpu:               0.6 elap:               0.1
 (Enter /data0/hywu0/study/g16/l401.exe)
 ExpMin= 3.48D-02 ExpMax= 7.75D+04 ExpMxC= 2.65D+03 IAcc=3 IRadAn=         5 AccDes= 0.00D+00
 Harris functional with IExCor= 1009 and IRadAn=       5 diagonalized for initial guess.
 HarFok:  IExCor= 1009 AccDes= 0.00D+00 IRadAn=         5 IDoV= 1 UseB2=F ITyADJ=14
 ICtDFT=  3500011 ScaDFX=  1.000000  1.000000  1.000000  1.000000
 FoFCou: FMM=F IPFlag=           0 FMFlag=      100000 FMFlg1=           0
         NFxFlg=           0 DoJE=T BraDBF=F KetDBF=T FulRan=T
         wScrn=  0.000000 ICntrl=       500 IOpCl=  0 I1Cent=   200000004 NGrid=           0
         NMat0=    1 NMatS0=      1 NMatT0=    0 NMatD0=    1 NMtDS0=    0 NMtDT0=    0
 Symmetry not used in FoFCou.
 Harris En= -480.726355108196    
 JPrj=0 DoOrth=F DoCkMO=F.
 Leave Link  401 at Wed May 18 15:39:09 2022, MaxMem=   671088640 cpu:              49.0 elap:               4.9
 (Enter /data0/hywu0/study/g16/l502.exe)
 Two-electron integral symmetry not used.
 Closed shell SCF:
 Using DIIS extrapolation, IDIIS=  1040.
 NGot=   671088640 LenX=   670471978 LenY=   670167826
 Requested convergence on RMS density matrix=1.00D-08 within 128 cycles.
 Requested convergence on MAX density matrix=1.00D-06.
 Requested convergence on             energy=1.00D-06.
 No special actions if energy rises.
 Fock matrices will be formed incrementally for  20 cycles.

 Cycle   1  Pass 1  IDiag  1:
 FoFJK:  IHMeth= 1 ICntrl=       0 DoSepK=F KAlg= 0 I1Cent=           0 FoldK=F
 IRaf= 880000000 NMat=       1 IRICut=       1 DoRegI=T DoRafI=F ISym2E= 0 IDoP0=0 IntGTp=1.
 FoFCou: FMM=F IPFlag=           0 FMFlag=      100000 FMFlg1=           0
         NFxFlg=           0 DoJE=F BraDBF=F KetDBF=F FulRan=T
         wScrn=  0.000000 ICntrl=         0 IOpCl=  0 I1Cent=           0 NGrid=           0
         NMat0=    1 NMatS0=      1 NMatT0=    0 NMatD0=    1 NMtDS0=    0 NMtDT0=    0
 Symmetry not used in FoFCou.
 E= -480.478110139808    
 DIIS: error= 1.68D-02 at cycle   1 NSaved=   1.
 NSaved= 1 IEnMin= 1 EnMin= -480.478110139808     IErMin= 1 ErrMin= 1.68D-02
 ErrMax= 1.68D-02  0.00D+00 EMaxC= 1.00D-01 BMatC= 4.97D-01 BMatP= 4.97D-01
 IDIUse=3 WtCom= 8.32D-01 WtEn= 1.68D-01
 Coeff-Com:  0.100D+01
 Coeff-En:   0.100D+01
 Coeff:      0.100D+01
 Gap=     0.324 Goal=   None    Shift=    0.000
 GapD=    0.324 DampG=1.000 DampE=0.500 DampFc=0.5000 IDamp=-1.
 Damping current iteration by 5.00D-01
 RMSDP=2.07D-02 MaxDP=1.87D+00              OVMax= 5.44D-01

 Cycle   2  Pass 1  IDiag  1:
 RMSU=  1.03D-02    CP:  1.01D+00
 E= -480.584164967228     Delta-E=       -0.106054827419 Rises=F Damp=T
 DIIS: error= 4.57D-03 at cycle   2 NSaved=   2.
 NSaved= 2 IEnMin= 2 EnMin= -480.584164967228     IErMin= 2 ErrMin= 4.57D-03
 ErrMax= 4.57D-03  0.00D+00 EMaxC= 1.00D-01 BMatC= 4.98D-02 BMatP= 4.97D-01
 IDIUse=3 WtCom= 9.54D-01 WtEn= 4.57D-02
 Coeff-Com:  0.826D-01 0.917D+00
 Coeff-En:   0.289D+00 0.711D+00
 Coeff:      0.921D-01 0.908D+00
 Gap=     0.149 Goal=   None    Shift=    0.000
 RMSDP=1.03D-02 MaxDP=1.20D+00 DE=-1.06D-01 OVMax= 4.53D-01

 Cycle   3  Pass 1  IDiag  1:
 RMSU=  2.68D-03    CP:  8.38D-01  5.06D-02
 E= -480.823041136103     Delta-E=       -0.238876168875 Rises=F Damp=F
 DIIS: error= 5.35D-03 at cycle   3 NSaved=   3.
 NSaved= 3 IEnMin= 3 EnMin= -480.823041136103     IErMin= 2 ErrMin= 4.57D-03
 ErrMax= 5.35D-03  0.00D+00 EMaxC= 1.00D-01 BMatC= 3.78D-02 BMatP= 4.98D-02
 IDIUse=3 WtCom= 9.47D-01 WtEn= 5.35D-02
 Coeff-Com: -0.497D-01 0.462D+00 0.588D+00
 Coeff-En:   0.000D+00 0.000D+00 0.100D+01
 Coeff:     -0.470D-01 0.437D+00 0.610D+00
 Gap=     0.232 Goal=   None    Shift=    0.000
 RMSDP=5.39D-04 MaxDP=3.96D-02 DE=-2.39D-01 OVMax= 5.69D-02

 Cycle   4  Pass 1  IDiag  1:
 RMSU=  5.11D-04    CP:  8.36D-01  5.73D-02  1.06D+00
 E= -480.850927663972     Delta-E=       -0.027886527870 Rises=F Damp=F
 DIIS: error= 1.64D-03 at cycle   4 NSaved=   4.
 NSaved= 4 IEnMin= 4 EnMin= -480.850927663972     IErMin= 4 ErrMin= 1.64D-03
 ErrMax= 1.64D-03  0.00D+00 EMaxC= 1.00D-01 BMatC= 4.49D-03 BMatP= 3.78D-02
 IDIUse=3 WtCom= 9.84D-01 WtEn= 1.64D-02
 Coeff-Com: -0.503D-01 0.138D+00 0.267D+00 0.646D+00
 Coeff-En:   0.000D+00 0.000D+00 0.000D+00 0.100D+01
 Coeff:     -0.495D-01 0.135D+00 0.263D+00 0.651D+00
 Gap=     0.210 Goal=   None    Shift=    0.000
 RMSDP=3.23D-04 MaxDP=3.07D-02 DE=-2.79D-02 OVMax= 1.87D-02

 Cycle   5  Pass 1  IDiag  1:
 RMSU=  2.83D-04    CP:  8.30D-01  5.45D-02  1.10D+00  1.18D+00
 E= -480.854277351537     Delta-E=       -0.003349687564 Rises=F Damp=F
 DIIS: error= 1.06D-03 at cycle   5 NSaved=   5.
 NSaved= 5 IEnMin= 5 EnMin= -480.854277351537     IErMin= 5 ErrMin= 1.06D-03
 ErrMax= 1.06D-03  0.00D+00 EMaxC= 1.00D-01 BMatC= 7.78D-04 BMatP= 4.49D-03
 IDIUse=3 WtCom= 9.89D-01 WtEn= 1.06D-02
 Coeff-Com: -0.223D-01 0.373D-01 0.641D-01 0.329D+00 0.592D+00
 Coeff-En:   0.000D+00 0.000D+00 0.000D+00 0.000D+00 0.100D+01
 Coeff:     -0.221D-01 0.369D-01 0.634D-01 0.326D+00 0.596D+00
 Gap=     0.208 Goal=   None    Shift=    0.000
 RMSDP=9.49D-05 MaxDP=7.53D-03 DE=-3.35D-03 OVMax= 1.02D-02

 Cycle   6  Pass 1  IDiag  1:
 RMSU=  7.87D-05    CP:  8.31D-01  5.29D-02  1.10D+00  1.26D+00  1.08D+00
 E= -480.854881120116     Delta-E=       -0.000603768580 Rises=F Damp=F
 DIIS: error= 2.31D-04 at cycle   6 NSaved=   6.
 NSaved= 6 IEnMin= 6 EnMin= -480.854881120116     IErMin= 6 ErrMin= 2.31D-04
 ErrMax= 2.31D-04  0.00D+00 EMaxC= 1.00D-01 BMatC= 7.97D-05 BMatP= 7.78D-04
 IDIUse=3 WtCom= 9.98D-01 WtEn= 2.31D-03
 Coeff-Com: -0.345D-03-0.405D-02-0.202D-01 0.139D-01 0.262D+00 0.749D+00
 Coeff-En:   0.000D+00 0.000D+00 0.000D+00 0.000D+00 0.000D+00 0.100D+01
 Coeff:     -0.344D-03-0.404D-02-0.202D-01 0.139D-01 0.262D+00 0.749D+00
 Gap=     0.211 Goal=   None    Shift=    0.000
 RMSDP=6.95D-05 MaxDP=8.69D-03 DE=-6.04D-04 OVMax= 4.07D-03

 Cycle   7  Pass 1  IDiag  1:
 RMSU=  4.09D-05    CP:  8.33D-01  5.18D-02  1.10D+00  1.32D+00  1.23D+00
                    CP:  1.18D+00
 E= -480.854949432781     Delta-E=       -0.000068312665 Rises=F Damp=F
 DIIS: error= 8.12D-05 at cycle   7 NSaved=   7.
 NSaved= 7 IEnMin= 7 EnMin= -480.854949432781     IErMin= 7 ErrMin= 8.12D-05
 ErrMax= 8.12D-05  0.00D+00 EMaxC= 1.00D-01 BMatC= 9.80D-06 BMatP= 7.97D-05
 IDIUse=1 WtCom= 1.00D+00 WtEn= 0.00D+00
 Coeff-Com:  0.254D-02-0.575D-02-0.128D-01-0.274D-01 0.643D-01 0.324D+00
 Coeff-Com:  0.655D+00
 Coeff:      0.254D-02-0.575D-02-0.128D-01-0.274D-01 0.643D-01 0.324D+00
 Coeff:      0.655D+00
 Gap=     0.211 Goal=   None    Shift=    0.000
 RMSDP=1.62D-05 MaxDP=1.31D-03 DE=-6.83D-05 OVMax= 1.07D-03

 Cycle   8  Pass 1  IDiag  1:
 RMSU=  1.04D-05    CP:  8.33D-01  5.15D-02  1.10D+00  1.32D+00  1.26D+00
                    CP:  1.26D+00  1.10D+00
 E= -480.854957270084     Delta-E=       -0.000007837303 Rises=F Damp=F
 DIIS: error= 3.17D-05 at cycle   8 NSaved=   8.
 NSaved= 8 IEnMin= 8 EnMin= -480.854957270084     IErMin= 8 ErrMin= 3.17D-05
 ErrMax= 3.17D-05  0.00D+00 EMaxC= 1.00D-01 BMatC= 1.01D-06 BMatP= 9.80D-06
 IDIUse=1 WtCom= 1.00D+00 WtEn= 0.00D+00
 Coeff-Com:  0.738D-03-0.121D-02 0.205D-03-0.746D-02 0.444D-03 0.197D-01
 Coeff-Com:  0.229D+00 0.758D+00
 Coeff:      0.738D-03-0.121D-02 0.205D-03-0.746D-02 0.444D-03 0.197D-01
 Coeff:      0.229D+00 0.758D+00
 Gap=     0.212 Goal=   None    Shift=    0.000
 RMSDP=6.83D-06 MaxDP=1.09D-03 DE=-7.84D-06 OVMax= 4.52D-04

 Cycle   9  Pass 1  IDiag  1:
 RMSU=  4.57D-06    CP:  8.33D-01  5.14D-02  1.10D+00  1.31D+00  1.26D+00
                    CP:  1.27D+00  1.15D+00  1.13D+00
 E= -480.854958339157     Delta-E=       -0.000001069073 Rises=F Damp=F
 DIIS: error= 1.45D-05 at cycle   9 NSaved=   9.
 NSaved= 9 IEnMin= 9 EnMin= -480.854958339157     IErMin= 9 ErrMin= 1.45D-05
 ErrMax= 1.45D-05  0.00D+00 EMaxC= 1.00D-01 BMatC= 7.77D-08 BMatP= 1.01D-06
 IDIUse=1 WtCom= 1.00D+00 WtEn= 0.00D+00
 Coeff-Com: -0.101D-03 0.339D-03 0.154D-02 0.101D-02-0.414D-02-0.286D-01
 Coeff-Com: -0.845D-02 0.214D+00 0.824D+00
 Coeff:     -0.101D-03 0.339D-03 0.154D-02 0.101D-02-0.414D-02-0.286D-01
 Coeff:     -0.845D-02 0.214D+00 0.824D+00
 Gap=     0.212 Goal=   None    Shift=    0.000
 RMSDP=2.58D-06 MaxDP=2.02D-04 DE=-1.07D-06 OVMax= 1.58D-04

 Cycle  10  Pass 1  IDiag  1:
 RMSU=  1.17D-06    CP:  8.33D-01  5.13D-02  1.10D+00  1.31D+00  1.26D+00
                    CP:  1.28D+00  1.20D+00  1.22D+00  1.02D+00
 E= -480.854958426396     Delta-E=       -0.000000087240 Rises=F Damp=F
 DIIS: error= 5.94D-06 at cycle  10 NSaved=  10.
 NSaved=10 IEnMin=10 EnMin= -480.854958426396     IErMin=10 ErrMin= 5.94D-06
 ErrMax= 5.94D-06  0.00D+00 EMaxC= 1.00D-01 BMatC= 2.13D-08 BMatP= 7.77D-08
 IDIUse=1 WtCom= 1.00D+00 WtEn= 0.00D+00
 Coeff-Com: -0.123D-03 0.189D-03 0.439D-03 0.107D-02-0.137D-02-0.154D-01
 Coeff-Com: -0.304D-01 0.790D-02 0.390D+00 0.648D+00
 Coeff:     -0.123D-03 0.189D-03 0.439D-03 0.107D-02-0.137D-02-0.154D-01
 Coeff:     -0.304D-01 0.790D-02 0.390D+00 0.648D+00
 Gap=     0.212 Goal=   None    Shift=    0.000
 RMSDP=6.82D-07 MaxDP=5.60D-05 DE=-8.72D-08 OVMax= 4.56D-05

 Cycle  11  Pass 1  IDiag  1:
 RMSU=  3.57D-07    CP:  8.33D-01  5.13D-02  1.10D+00  1.31D+00  1.26D+00
                    CP:  1.28D+00  1.20D+00  1.25D+00  1.07D+00  1.16D+00
 E= -480.854958449058     Delta-E=       -0.000000022661 Rises=F Damp=F
 DIIS: error= 8.89D-07 at cycle  11 NSaved=  11.
 NSaved=11 IEnMin=11 EnMin= -480.854958449058     IErMin=11 ErrMin= 8.89D-07
 ErrMax= 8.89D-07  0.00D+00 EMaxC= 1.00D-01 BMatC= 1.03D-09 BMatP= 2.13D-08
 IDIUse=1 WtCom= 1.00D+00 WtEn= 0.00D+00
 Coeff-Com: -0.234D-04 0.491D-04-0.344D-04 0.886D-05-0.300D-04-0.184D-02
 Coeff-Com: -0.494D-02-0.163D-01 0.120D-01 0.115D+00 0.896D+00
 Coeff:     -0.234D-04 0.491D-04-0.344D-04 0.886D-05-0.300D-04-0.184D-02
 Coeff:     -0.494D-02-0.163D-01 0.120D-01 0.115D+00 0.896D+00
 Gap=     0.212 Goal=   None    Shift=    0.000
 RMSDP=2.12D-07 MaxDP=1.81D-05 DE=-2.27D-08 OVMax= 2.01D-05

 Cycle  12  Pass 1  IDiag  1:
 RMSU=  1.10D-07    CP:  8.33D-01  5.13D-02  1.10D+00  1.31D+00  1.26D+00
                    CP:  1.28D+00  1.20D+00  1.26D+00  1.08D+00  1.25D+00
                    CP:  1.23D+00
 E= -480.854958450608     Delta-E=       -0.000000001550 Rises=F Damp=F
 DIIS: error= 2.85D-07 at cycle  12 NSaved=  12.
 NSaved=12 IEnMin=12 EnMin= -480.854958450608     IErMin=12 ErrMin= 2.85D-07
 ErrMax= 2.85D-07  0.00D+00 EMaxC= 1.00D-01 BMatC= 1.08D-10 BMatP= 1.03D-09
 IDIUse=1 WtCom= 1.00D+00 WtEn= 0.00D+00
 Coeff-Com:  0.629D-05-0.400D-05-0.396D-04-0.121D-03 0.113D-03 0.754D-03
 Coeff-Com:  0.185D-02-0.454D-02-0.357D-01-0.458D-01 0.210D+00 0.873D+00
 Coeff:      0.629D-05-0.400D-05-0.396D-04-0.121D-03 0.113D-03 0.754D-03
 Coeff:      0.185D-02-0.454D-02-0.357D-01-0.458D-01 0.210D+00 0.873D+00
 Gap=     0.212 Goal=   None    Shift=    0.000
 RMSDP=6.59D-08 MaxDP=4.47D-06 DE=-1.55D-09 OVMax= 7.86D-06

 Cycle  13  Pass 1  IDiag  1:
 RMSU=  3.86D-08    CP:  8.33D-01  5.13D-02  1.10D+00  1.31D+00  1.26D+00
                    CP:  1.28D+00  1.20D+00  1.26D+00  1.08D+00  1.27D+00
                    CP:  1.31D+00  1.15D+00
 E= -480.854958450812     Delta-E=       -0.000000000205 Rises=F Damp=F
 DIIS: error= 9.51D-08 at cycle  13 NSaved=  13.
 NSaved=13 IEnMin=13 EnMin= -480.854958450812     IErMin=13 ErrMin= 9.51D-08
 ErrMax= 9.51D-08  0.00D+00 EMaxC= 1.00D-01 BMatC= 1.16D-11 BMatP= 1.08D-10
 IDIUse=1 WtCom= 1.00D+00 WtEn= 0.00D+00
 Coeff-Com:  0.285D-05-0.418D-05-0.197D-05-0.221D-04 0.513D-04 0.274D-03
 Coeff-Com:  0.696D-03-0.384D-03-0.939D-02-0.175D-01-0.206D-01 0.227D+00
 Coeff-Com:  0.819D+00
 Coeff:      0.285D-05-0.418D-05-0.197D-05-0.221D-04 0.513D-04 0.274D-03
 Coeff:      0.696D-03-0.384D-03-0.939D-02-0.175D-01-0.206D-01 0.227D+00
 Coeff:      0.819D+00
 Gap=     0.212 Goal=   None    Shift=    0.000
 RMSDP=1.66D-08 MaxDP=1.34D-06 DE=-2.05D-10 OVMax= 1.94D-06

 Cycle  14  Pass 1  IDiag  1:
 RMSU=  1.06D-08    CP:  8.33D-01  5.13D-02  1.10D+00  1.31D+00  1.26D+00
                    CP:  1.28D+00  1.20D+00  1.26D+00  1.08D+00  1.27D+00
                    CP:  1.31D+00  1.20D+00  1.17D+00
 E= -480.854958450826     Delta-E=       -0.000000000013 Rises=F Damp=F
 DIIS: error= 3.22D-08 at cycle  14 NSaved=  14.
 NSaved=14 IEnMin=14 EnMin= -480.854958450826     IErMin=14 ErrMin= 3.22D-08
 ErrMax= 3.22D-08  0.00D+00 EMaxC= 1.00D-01 BMatC= 1.55D-12 BMatP= 1.16D-11
 IDIUse=1 WtCom= 1.00D+00 WtEn= 0.00D+00
 Coeff-Com: -0.334D-06 0.163D-06 0.730D-05 0.134D-04 0.798D-05-0.435D-04
 Coeff-Com: -0.711D-04 0.336D-03 0.199D-02 0.161D-02-0.330D-01-0.331D-01
 Coeff-Com:  0.270D+00 0.792D+00
 Coeff:     -0.334D-06 0.163D-06 0.730D-05 0.134D-04 0.798D-05-0.435D-04
 Coeff:     -0.711D-04 0.336D-03 0.199D-02 0.161D-02-0.330D-01-0.331D-01
 Coeff:      0.270D+00 0.792D+00
 Gap=     0.212 Goal=   None    Shift=    0.000
 RMSDP=7.99D-09 MaxDP=5.60D-07 DE=-1.34D-11 OVMax= 5.39D-07

 SCF Done:  E(RM062X) =  -480.854958451     A.U. after   14 cycles
            NFock= 14  Conv=0.80D-08     -V/T= 2.0048
 KE= 4.785737841492D+02 PE=-2.303656225082D+03 EE= 7.530945078758D+02
 Leave Link  502 at Wed May 18 15:44:19 2022, MaxMem=   671088640 cpu:            3085.6 elap:             309.5
 (Enter /data0/hywu0/study/g16/l601.exe)
 Copying SCF densities to generalized density rwf, IOpCl= 0 IROHF=0.

 **********************************************************************

            Population analysis using the SCF density.

 **********************************************************************

 Alpha  occ. eigenvalues --  -19.49781 -19.49231 -14.92198 -10.64392 -10.64357
 Alpha  occ. eigenvalues --  -10.62088 -10.61229 -10.56044 -10.55226 -10.50522
 Alpha  occ. eigenvalues --   -1.16692  -1.09088  -0.99292  -0.90799  -0.88738
 Alpha  occ. eigenvalues --   -0.87023  -0.82146  -0.74923  -0.69279  -0.63831
 Alpha  occ. eigenvalues --   -0.63384  -0.61889  -0.56115  -0.54874  -0.53536
 Alpha  occ. eigenvalues --   -0.51801  -0.51283  -0.50847  -0.49392  -0.49100
 Alpha  occ. eigenvalues --   -0.47499  -0.46419  -0.43689  -0.43081  -0.41361
 Alpha  occ. eigenvalues --   -0.39529  -0.37339  -0.25413  -0.25220  -0.24103
 Alpha virt. eigenvalues --   -0.02945  -0.00644  -0.00445   0.00976   0.01208
 Alpha virt. eigenvalues --    0.02603   0.03028   0.03559   0.03774   0.04702
 Alpha virt. eigenvalues --    0.06331   0.06726   0.06973   0.07155   0.07661
 Alpha virt. eigenvalues --    0.08089   0.08819   0.10015   0.10160   0.10812
 Alpha virt. eigenvalues --    0.11085   0.11605   0.11844   0.12471   0.13016
 Alpha virt. eigenvalues --    0.13413   0.13578   0.13794   0.14213   0.14799
 Alpha virt. eigenvalues --    0.15794   0.16165   0.16480   0.17133   0.17378
 Alpha virt. eigenvalues --    0.17791   0.18058   0.18503   0.19098   0.20275
 Alpha virt. eigenvalues --    0.20563   0.20825   0.20948   0.21538   0.21862
 Alpha virt. eigenvalues --    0.22498   0.23297   0.23557   0.23999   0.24527
 Alpha virt. eigenvalues --    0.24975   0.25732   0.26077   0.26532   0.26662
 Alpha virt. eigenvalues --    0.27234   0.27845   0.28297   0.28791   0.29324
 Alpha virt. eigenvalues --    0.30161   0.30845   0.31290   0.31744   0.32731
[...]
 NBsUse=   161 1.00D-06 EigRej= -1.00D+00 NBFU=   161
 Precomputing XC quadrature grid using
 IXCGrd= 4 IRadAn=           5 IRanWt=          -1 IRanGd=           0 AccXCQ= 0.00D+00.
 Generated NRdTot=       0 NPtTot=           0 NUsed=           0 NTot=          32
 NSgBfM=   171   171   171   171   171 MxSgAt=     8 MxSgA2=     8.
 Leave Link  302 at Wed May 18 15:50:41 2022, MaxMem=   671088640 cpu:               1.2 elap:               0.1
 (Enter /data0/hywu0/study/g16/l303.exe)
 DipDrv:  MaxL=1.
 Leave Link  303 at Wed May 18 15:50:41 2022, MaxMem=   671088640 cpu:               0.2 elap:               0.0
 (Enter /data0/hywu0/study/g16/l401.exe)
 ExpMin= 3.48D-02 ExpMax= 7.75D+04 ExpMxC= 2.65D+03 IAcc=3 IRadAn=         5 AccDes= 0.00D+00
 Harris functional with IExCor= 1009 and IRadAn=       5 diagonalized for initial guess.
 HarFok:  IExCor= 1009 AccDes= 0.00D+00 IRadAn=         5 IDoV= 1 UseB2=F ITyADJ=14
 ICtDFT=  3500011 ScaDFX=  1.000000  1.000000  1.000000  1.000000
 FoFCou: FMM=F IPFlag=           0 FMFlag=      100000 FMFlg1=           0
         NFxFlg=           0 DoJE=T BraDBF=F KetDBF=T FulRan=T
         wScrn=  0.000000 ICntrl=       500 IOpCl=  0 I1Cent=   200000004 NGrid=           0
         NMat0=    1 NMatS0=      1 NMatT0=    0 NMatD0=    1 NMtDS0=    0 NMtDT0=    0
 Symmetry not used in FoFCou.
 Harris En= -643.936677622808    
 JPrj=0 DoOrth=F DoCkMO=F.
 Leave Link  401 at Wed May 18 15:50:41 2022, MaxMem=   671088640 cpu:               4.3 elap:               0.4
 (Enter /data0/hywu0/study/g16/l502.exe)
 Keep R1 ints in memory in canonical form, NReq=95011571.
 FoFCou: FMM=F IPFlag=           0 FMFlag=           0 FMFlg1=           0
         NFxFlg=           0 DoJE=F BraDBF=F KetDBF=F FulRan=T
         wScrn=  0.000000 ICntrl=       600 IOpCl=  0 I1Cent=           0 NGrid=           0
         NMat0=    1 NMatS0=  13041 NMatT0=    0 NMatD0=    1 NMtDS0=    0 NMtDT0=    0
 Symmetry not used in FoFCou.
 Two-electron integral symmetry not used.
 Closed shell SCF:
 Using DIIS extrapolation, IDIIS=  1040.
 NGot=   671088640 LenX=   585986037 LenY=   585956355
 Requested convergence on RMS density matrix=1.00D-08 within 128 cycles.
 Requested convergence on MAX density matrix=1.00D-06.
 Requested convergence on             energy=1.00D-06.
 No special actions if energy rises.

 Cycle   1  Pass 1  IDiag  1:
 E= -643.838100951902    
 DIIS: error= 3.43D-02 at cycle   1 NSaved=   1.
 NSaved= 1 IEnMin= 1 EnMin= -643.838100951902     IErMin= 1 ErrMin= 3.43D-02
 ErrMax= 3.43D-02  0.00D+00 EMaxC= 1.00D-01 BMatC= 5.14D-01 BMatP= 5.14D-01
 IDIUse=3 WtCom= 6.57D-01 WtEn= 3.43D-01
 Coeff-Com:  0.100D+01
 Coeff-En:   0.100D+01
 Coeff:      0.100D+01
 Gap=     0.251 Goal=   None    Shift=    0.000
 GapD=    0.251 DampG=1.000 DampE=0.500 DampFc=0.5000 IDamp=-1.
 Damping current iteration by 5.00D-01
 RMSDP=8.35D-03 MaxDP=2.02D-01              OVMax= 2.75D-01

 Cycle   2  Pass 1  IDiag  1:
 E= -643.954685820648     Delta-E=       -0.116584868745 Rises=F Damp=T
 DIIS: error= 9.79D-03 at cycle   2 NSaved=   2.
 NSaved= 2 IEnMin= 2 EnMin= -643.954685820648     IErMin= 2 ErrMin= 9.79D-03
 ErrMax= 9.79D-03  0.00D+00 EMaxC= 1.00D-01 BMatC= 2.84D-02 BMatP= 5.14D-01
 IDIUse=3 WtCom= 9.02D-01 WtEn= 9.79D-02
 Coeff-Com:  0.797D-01 0.920D+00
 Coeff-En:   0.218D+00 0.782D+00
 Coeff:      0.933D-01 0.907D+00
 Gap=     0.337 Goal=   None    Shift=    0.000
 RMSDP=1.95D-03 MaxDP=6.83D-02 DE=-1.17D-01 OVMax= 1.87D-01

 Cycle   3  Pass 1  IDiag  1:
 E= -644.127759750679     Delta-E=       -0.173073930031 Rises=F Damp=F
 DIIS: error= 7.15D-03 at cycle   3 NSaved=   3.
 NSaved= 3 IEnMin= 3 EnMin= -644.127759750679     IErMin= 3 ErrMin= 7.15D-03
 ErrMax= 7.15D-03  0.00D+00 EMaxC= 1.00D-01 BMatC= 1.12D-02 BMatP= 2.84D-02
 IDIUse=3 WtCom= 9.28D-01 WtEn= 7.15D-02
 Coeff-Com: -0.122D-01 0.347D+00 0.666D+00
 Coeff-En:   0.000D+00 0.000D+00 0.100D+01
 Coeff:     -0.114D-01 0.322D+00 0.689D+00
 Gap=     0.330 Goal=   None    Shift=    0.000
 RMSDP=7.01D-04 MaxDP=1.63D-02 DE=-1.73D-01 OVMax= 3.57D-02

 Cycle   4  Pass 1  IDiag  1:
 E= -644.133058750452     Delta-E=       -0.005298999772 Rises=F Damp=F
 DIIS: error= 3.66D-03 at cycle   4 NSaved=   4.
 NSaved= 4 IEnMin= 4 EnMin= -644.133058750452     IErMin= 4 ErrMin= 3.66D-03
 ErrMax= 3.66D-03  0.00D+00 EMaxC= 1.00D-01 BMatC= 3.88D-03 BMatP= 1.12D-02
 IDIUse=3 WtCom= 9.63D-01 WtEn= 3.66D-02
 Coeff-Com: -0.215D-01 0.470D-01 0.392D+00 0.582D+00
 Coeff-En:   0.000D+00 0.000D+00 0.253D+00 0.747D+00
 Coeff:     -0.207D-01 0.453D-01 0.387D+00 0.588D+00
 Gap=     0.332 Goal=   None    Shift=    0.000
 RMSDP=2.63D-04 MaxDP=6.47D-03 DE=-5.30D-03 OVMax= 1.13D-02

 Cycle   5  Pass 1  IDiag  1:
 E= -644.135603867481     Delta-E=       -0.002545117029 Rises=F Damp=F
 DIIS: error= 2.40D-04 at cycle   5 NSaved=   5.
 NSaved= 5 IEnMin= 5 EnMin= -644.135603867481     IErMin= 5 ErrMin= 2.40D-04
 ErrMax= 2.40D-04  0.00D+00 EMaxC= 1.00D-01 BMatC= 1.53D-05 BMatP= 3.88D-03
 IDIUse=3 WtCom= 9.98D-01 WtEn= 2.40D-03
 Coeff-Com: -0.246D-02-0.341D-03 0.531D-01 0.114D+00 0.835D+00
 Coeff-En:   0.000D+00 0.000D+00 0.000D+00 0.000D+00 0.100D+01
 Coeff:     -0.245D-02-0.340D-03 0.530D-01 0.114D+00 0.836D+00
 Gap=     0.331 Goal=   None    Shift=    0.000
 RMSDP=2.46D-05 MaxDP=6.09D-04 DE=-2.55D-03 OVMax= 6.84D-04

 Cycle   6  Pass 1  IDiag  1:
 E= -644.135613481052     Delta-E=       -0.000009613571 Rises=F Damp=F
 DIIS: error= 5.68D-05 at cycle   6 NSaved=   6.
 NSaved= 6 IEnMin= 6 EnMin= -644.135613481052     IErMin= 6 ErrMin= 5.68D-05
 ErrMax= 5.68D-05  0.00D+00 EMaxC= 1.00D-01 BMatC= 1.38D-06 BMatP= 1.53D-05
 IDIUse=1 WtCom= 1.00D+00 WtEn= 0.00D+00
 Coeff-Com:  0.275D-04-0.154D-02 0.961D-03 0.928D-02 0.227D+00 0.764D+00
 Coeff:      0.275D-04-0.154D-02 0.961D-03 0.928D-02 0.227D+00 0.764D+00
 Gap=     0.331 Goal=   None    Shift=    0.000
 RMSDP=1.12D-05 MaxDP=2.00D-04 DE=-9.61D-06 OVMax= 2.80D-04

 Cycle   7  Pass 1  IDiag  1:
 E= -644.135614308785     Delta-E=       -0.000000827733 Rises=F Damp=F
 DIIS: error= 4.36D-05 at cycle   7 NSaved=   7.
 NSaved= 7 IEnMin= 7 EnMin= -644.135614308785     IErMin= 7 ErrMin= 4.36D-05
 ErrMax= 4.36D-05  0.00D+00 EMaxC= 1.00D-01 BMatC= 4.75D-07 BMatP= 1.38D-06
 IDIUse=1 WtCom= 1.00D+00 WtEn= 0.00D+00
 Coeff-Com:  0.384D-03-0.648D-03-0.829D-02-0.141D-01-0.174D-01 0.382D+00
 Coeff-Com:  0.658D+00
 Coeff:      0.384D-03-0.648D-03-0.829D-02-0.141D-01-0.174D-01 0.382D+00
 Coeff:      0.658D+00
 Gap=     0.331 Goal=   None    Shift=    0.000
 RMSDP=4.08D-06 MaxDP=9.58D-05 DE=-8.28D-07 OVMax= 1.30D-04

 Cycle   8  Pass 1  IDiag  1:
 E= -644.135614627298     Delta-E=       -0.000000318513 Rises=F Damp=F
 DIIS: error= 1.04D-05 at cycle   8 NSaved=   8.
 NSaved= 8 IEnMin= 8 EnMin= -644.135614627298     IErMin= 8 ErrMin= 1.04D-05
 ErrMax= 1.04D-05  0.00D+00 EMaxC= 1.00D-01 BMatC= 2.75D-08 BMatP= 4.75D-07
 IDIUse=1 WtCom= 1.00D+00 WtEn= 0.00D+00
 Coeff-Com:  0.135D-03-0.173D-03-0.341D-02-0.577D-02-0.144D-01 0.111D+00
 Coeff-Com:  0.274D+00 0.638D+00
 Coeff:      0.135D-03-0.173D-03-0.341D-02-0.577D-02-0.144D-01 0.111D+00
 Coeff:      0.274D+00 0.638D+00
 Gap=     0.331 Goal=   None    Shift=    0.000
 RMSDP=8.67D-07 MaxDP=2.40D-05 DE=-3.19D-07 OVMax= 2.79D-05

 Cycle   9  Pass 1  IDiag  1:
 E= -644.135614648463     Delta-E=       -0.000000021165 Rises=F Damp=F
 DIIS: error= 1.59D-06 at cycle   9 NSaved=   9.
 NSaved= 9 IEnMin= 9 EnMin= -644.135614648463     IErMin= 9 ErrMin= 1.59D-06
 ErrMax= 1.59D-06  0.00D+00 EMaxC= 1.00D-01 BMatC= 8.94D-10 BMatP= 2.75D-08
 IDIUse=1 WtCom= 1.00D+00 WtEn= 0.00D+00
 Coeff-Com: -0.274D-04 0.518D-04 0.231D-03 0.520D-03-0.121D-02-0.218D-01
 Coeff-Com: -0.231D-01 0.910D-01 0.954D+00
 Coeff:     -0.274D-04 0.518D-04 0.231D-03 0.520D-03-0.121D-02-0.218D-01
 Coeff:     -0.231D-01 0.910D-01 0.954D+00
 Gap=     0.331 Goal=   None    Shift=    0.000
 RMSDP=3.25D-07 MaxDP=9.81D-06 DE=-2.12D-08 OVMax= 7.88D-06

 Cycle  10  Pass 1  IDiag  1:
 E= -644.135614649485     Delta-E=       -0.000000001022 Rises=F Damp=F
 DIIS: error= 2.78D-07 at cycle  10 NSaved=  10.
 NSaved=10 IEnMin=10 EnMin= -644.135614649485     IErMin=10 ErrMin= 2.78D-07
 ErrMax= 2.78D-07  0.00D+00 EMaxC= 1.00D-01 BMatC= 1.93D-11 BMatP= 8.94D-10
 IDIUse=1 WtCom= 1.00D+00 WtEn= 0.00D+00
 Coeff-Com: -0.346D-05 0.553D-05 0.117D-03 0.195D-03 0.649D-03-0.472D-02
 Coeff-Com: -0.106D-01-0.169D-01 0.247D-01 0.101D+01
 Coeff:     -0.346D-05 0.553D-05 0.117D-03 0.195D-03 0.649D-03-0.472D-02
 Coeff:     -0.106D-01-0.169D-01 0.247D-01 0.101D+01
 Gap=     0.331 Goal=   None    Shift=    0.000
 RMSDP=6.67D-08 MaxDP=1.21D-06 DE=-1.02D-09 OVMax= 2.06D-06

 Cycle  11  Pass 1  IDiag  1:
 E= -644.135614649528     Delta-E=       -0.000000000043 Rises=F Damp=F
 DIIS: error= 1.37D-07 at cycle  11 NSaved=  11.
 NSaved=11 IEnMin=11 EnMin= -644.135614649528     IErMin=11 ErrMin= 1.37D-07
 ErrMax= 1.37D-07  0.00D+00 EMaxC= 1.00D-01 BMatC= 4.00D-12 BMatP= 1.93D-11
 IDIUse=1 WtCom= 1.00D+00 WtEn= 0.00D+00
 Coeff-Com:  0.671D-06-0.151D-05 0.244D-04 0.302D-04 0.239D-03-0.562D-03
 Coeff-Com: -0.218D-02-0.925D-02-0.474D-01 0.322D+00 0.737D+00
 Coeff:      0.671D-06-0.151D-05 0.244D-04 0.302D-04 0.239D-03-0.562D-03
 Coeff:     -0.218D-02-0.925D-02-0.474D-01 0.322D+00 0.737D+00
 Gap=     0.331 Goal=   None    Shift=    0.000
 RMSDP=1.94D-08 MaxDP=3.35D-07 DE=-4.25D-11 OVMax= 5.72D-07

 Cycle  12  Pass 1  IDiag  1:
 E= -644.135614649527     Delta-E=        0.000000000001 Rises=F Damp=F
 DIIS: error= 6.49D-08 at cycle  12 NSaved=  12.
 NSaved=12 IEnMin=11 EnMin= -644.135614649528     IErMin=12 ErrMin= 6.49D-08
 ErrMax= 6.49D-08  0.00D+00 EMaxC= 1.00D-01 BMatC= 1.08D-12 BMatP= 4.00D-12
 IDIUse=1 WtCom= 1.00D+00 WtEn= 0.00D+00
 Coeff-Com:  0.761D-06-0.146D-05-0.657D-06-0.669D-05 0.407D-04 0.247D-03
 Coeff-Com:  0.158D-03-0.252D-02-0.275D-01 0.416D-01 0.374D+00 0.614D+00
 Coeff:      0.761D-06-0.146D-05-0.657D-06-0.669D-05 0.407D-04 0.247D-03
 Coeff:      0.158D-03-0.252D-02-0.275D-01 0.416D-01 0.374D+00 0.614D+00
 Gap=     0.331 Goal=   None    Shift=    0.000
 RMSDP=5.35D-09 MaxDP=1.52D-07 DE= 1.48D-12 OVMax= 2.27D-07

 SCF Done:  E(RM062X) =  -644.135614650     A.U. after   12 cycles
            NFock= 12  Conv=0.53D-08     -V/T= 2.0025
 KE= 6.425031730783D+02 PE=-2.086730273447D+03 EE= 5.205160786556D+02
 Leave Link  502 at Wed May 18 15:50:53 2022, MaxMem=   671088640 cpu:             106.0 elap:              12.0
 (Enter /data0/hywu0/study/g16/l601.exe)
 Copying SCF densities to generalized density rwf, IOpCl= 0 IROHF=0.

 **********************************************************************

            Population analysis using the SCF density.

 **********************************************************************

 Alpha  occ. eigenvalues --  -78.16980 -19.69843 -19.69769 -19.66690 -19.58671
 Alpha  occ. eigenvalues --   -6.97768  -5.09696  -5.09642  -5.09448  -1.24564
 Alpha  occ. eigenvalues --   -1.17745  -1.15677  -1.09279  -0.72459  -0.66520
 Alpha  occ. eigenvalues --   -0.64221  -0.57627  -0.54761  -0.50868  -0.49451
 Alpha  occ. eigenvalues --   -0.46540  -0.46137  -0.43490  -0.38988  -0.37643
 Alpha virt. eigenvalues --   -0.04536   0.01443   0.03192   0.04332   0.07582
 Alpha virt. eigenvalues --    0.07903   0.12275   0.14626   0.15929   0.16848
 Alpha virt. eigenvalues --    0.17194   0.17786   0.18400   0.20890   0.21323
 Alpha virt. eigenvalues --    0.22216   0.23197   0.25450   0.25784   0.26912
 Alpha virt. eigenvalues --    0.27773   0.29570   0.30366   0.31230   0.31685
 Alpha virt. eigenvalues --    0.34679   0.36077   0.36630   0.39712   0.44091
 Alpha virt. eigenvalues --    0.45530   0.46958   0.52660   0.54885   0.57982
 Alpha virt. eigenvalues --    0.73184   0.75003   0.77192   0.86827   0.96015
 Alpha virt. eigenvalues --    1.00385   1.02784   1.05637   1.06367   1.11006
 Alpha virt. eigenvalues --    1.12323   1.16235   1.18367   1.19745   1.20935
 Alpha virt. eigenvalues --    1.22189   1.22677   1.25762   1.26636   1.29628
 Alpha virt. eigenvalues --    1.36039   1.41966   1.44214   1.45531   1.49933
 Alpha virt. eigenvalues --    1.52529   1.57203   1.58653   1.62533   1.63270
 Alpha virt. eigenvalues --    1.65863   1.68864   1.72851   1.74936   1.79028
 Alpha virt. eigenvalues --    1.82408   1.83463   1.86084   1.90812   1.96529
 Alpha virt. eigenvalues --    1.99052   2.04154   2.06804   2.09853   2.13164
 Alpha virt. eigenvalues --    2.19509   2.23396   2.27255   2.32830   2.47331
 Alpha virt. eigenvalues --    2.49069   2.56741   2.59740   2.63745   2.68819
 Alpha virt. eigenvalues --    2.73208   2.77595   2.82705   2.90624   2.96949
 Alpha virt. eigenvalues --    5.00869   5.02850   5.05724   5.06581   5.12032
 Alpha virt. eigenvalues --    5.13167   5.19536   5.23305   5.31085   5.42054
 Alpha virt. eigenvalues --    5.45301   5.59112   6.71842   6.73516   6.74347
 Alpha virt. eigenvalues --    6.77405   6.77920   6.79905   6.81711   6.86551
 Alpha virt. eigenvalues --    6.88471   6.92278   6.94968   6.98059   6.99692
 Alpha virt. eigenvalues --    7.01303   7.11085   7.22239   7.24945   7.26520
 Alpha virt. eigenvalues --    7.34916   7.39984   7.63431  14.19911  14.25557
 Alpha virt. eigenvalues --   14.35702  49.97703  49.98438  50.01396  50.09792
 Alpha virt. eigenvalues --  163.84199
          Condensed to atoms (all electrons):
              26         27         28         29         30         31
    26  P   12.498593   0.563470   0.171085   0.044469   0.240881   0.000631
    27  O    0.563470   8.149429  -0.039038   0.009393  -0.030829  -0.015077
    28  O    0.171085  -0.039038   8.118457   0.208689   0.039452  -0.007267
    29  H    0.044469   0.009393   0.208689   0.469100  -0.018866   0.000048
    30  O    0.240881  -0.030829   0.039452  -0.018866   8.084904   0.261979
    31  H    0.000631  -0.015077  -0.007267   0.000048   0.261979   0.442176
    32  O    0.177258  -0.038310   0.041424  -0.012966   0.007886   0.001772
    33  H    0.046265   0.005655  -0.011554  -0.006222  -0.016062   0.001468
              32         33
    26  P    0.177258   0.046265
    27  O   -0.038310   0.005655
    28  O    0.041424  -0.011554
    29  H   -0.012966  -0.006222
    30  O    0.007886  -0.016062
    31  H    0.001772   0.001468
    32  O    8.100365   0.209762
    33  H    0.209762   0.466184
 Mulliken charges:
               1
     1  C    0.000000
     2  H    0.000000
     3  H    0.000000
     4  H    0.000000
     5  C    0.000000
     6  H    0.000000
     7  H    0.000000
     8  H    0.000000
     9  C    0.000000
    10  H    0.000000
    11  H    0.000000
    12  H    0.000000
    13  C    0.000000
    14  H    0.000000
    15  H    0.000000
    16  C    0.000000
    17  H    0.000000
    18  H    0.000000
    19  C    0.000000
    20  H    0.000000
    21  H    0.000000
    22  N    0.000000
    23  C    0.000000
    24  O    0.000000
    25  O    0.000000
    26  P    1.257349
    27  O   -0.604694
    28  O   -0.521247
    29  H    0.306355
    30  O   -0.569345
    31  H    0.314270
    32  O   -0.487191
    33  H    0.304503
 Sum of Mulliken charges =  -0.00000
 Mulliken charges with hydrogens summed into heavy atoms:
               1
     1  C    0.000000
     5  C    0.000000
     9  C    0.000000
    13  C    0.000000
    16  C    0.000000
    19  C    0.000000
    22  N    0.000000
    23  C    0.000000
    24  O    0.000000
    25  O    0.000000
    26  P    1.257349
    27  O   -0.604694
    28  O   -0.214892
    30  O   -0.255075
    32  O   -0.182689
         Mulliken charges condensed to fragments:
      1      0.000000
      2     -0.000000
 Electronic spatial extent (au):  <R**2>=          60274.0875
 Charge=             -0.0000 electrons
 Dipole moment (field-independent basis, Debye):
    X=             -1.2209    Y=              5.5885    Z=              1.6594  Tot=              5.9561
 Quadrupole moment (field-independent basis, Debye-Ang):
   XX=            -39.9757   YY=             77.8194   ZZ=             10.9055
   XY=              9.3514   XZ=            -13.5751   YZ=            101.4801
 Traceless Quadrupole moment (field-independent basis, Debye-Ang):
   XX=            -56.2255   YY=             61.5696   ZZ=             -5.3442
   XY=              9.3514   XZ=            -13.5751   YZ=            101.4801
 Octapole moment (field-independent basis, Debye-Ang**2):
  XXX=           -424.9481  YYY=            649.1446  ZZZ=           -585.7088  XYY=            161.6306
  XXY=           -310.1789  XXZ=           -579.4393  XZZ=           -292.4063  YZZ=           1391.3410
  YYZ=           1375.5063  XYZ=            189.5522
 Hexadecapole moment (field-independent basis, Debye-Ang**3):
 XXXX=          -3401.7227 YYYY=           1461.7922 ZZZZ=         -27654.4260 XXXY=          -3849.1267
 XXXZ=          -6260.6550 YYYX=            781.7792 YYYZ=          12363.3123 ZZZX=          -7939.0405
 ZZZY=          13424.3797 XXYY=          -2882.0873 XXZZ=          -9100.2998 YYZZ=          19673.1002
 XXYZ=          -4460.6008 YYXZ=           3022.5526 ZZXY=           1955.5399
 N-N= 2.795754070636D+02 E-N=-2.086730278134D+03  KE= 6.425031730783D+02
 No NMR shielding tensors so no spin-rotation constants.
 Leave Link  601 at Wed May 18 15:50:53 2022, MaxMem=   671088640 cpu:               0.7 elap:               0.1
 (Enter /data0/hywu0/study/g16/l122.exe)
 CPIOFr:  IOpCl= 0 IRwI=-1 IRwCP=  731 ICalc=  4 LCPTot=      418338 Len1MO=     1096859 IndFrg=     5902633
 Restoring MOs from calculation   1 to rwf.
 CPIOFr:  IOpCl= 0 IRwI=-2 IRwCP=  731 ICalc=  0 LCPTot=      418338 Len1MO=     1096859 IndFrg=     1515197
 Counterpoise corrected energy =   -1125.079867621593
                   BSSE energy =       0.002685134296
              sum of fragments =   -1124.989746015731
           complexation energy =     -58.24 kcal/mole (raw)
           complexation energy =     -56.55 kcal/mole (corrected)
 Leave Link  122 at Wed May 18 15:50:53 2022, MaxMem=   671088640 cpu:               0.2 elap:               0.0
 (Enter /data0/hywu0/study/g16/l9999.exe)
 1\1\GINC-LOCALHOST\SP\RM062X\6-311+G(2d,p)\C7H18N1O6P1\HYWU0\18-May-20
 22\0\\#p M062X/6-311+G(2d,p) nosymm em=GD3 counterpoise=2\\Title Card 
 Required\\0,1\C,0,4.363933,12.693059,10.941306\H,0,4.115753,12.155399,
 10.013654\H,0,5.254536,13.312712,10.767014\H,0,4.63474,11.914049,11.70
 1212\C,0,2.834748,14.523762,10.384041\H,0,2.584503,14.037724,9.426204\
 H,0,1.954724,15.11396,10.699222\H,0,3.662426,15.229358,10.202565\C,0,2
 .042072,12.589536,11.660985\H,0,1.209412,13.089316,12.196094\H,0,1.671
 422,12.158998,10.723199\H,0,2.33511,11.751606,12.338946\C,0,3.625512,1
 4.22462,12.709333\H,0,4.525062,14.835524,12.493978\H,0,3.950674,13.428
 699,13.438209\C,0,2.522274,15.091451,13.334523\H,0,1.513488,14.77821,1
 2.989575\H,0,2.639091,16.148773,13.03829\C,0,2.548754,14.962947,14.859
 054\H,0,1.696746,15.49151,15.320014\H,0,3.460591,15.406291,15.294244\N
 ,0,3.201397,13.513144,11.43134\C,0,2.462764,13.476101,15.26211\O,0,1.7
 79757,12.744945,14.506368\O,0,3.117492,13.115089,16.243656\P,0,4.10856
 2,10.081966,14.648549\O,0,4.653213,8.746464,14.443596\O,0,4.30432,10.6
 44847,16.10751\H,0,3.808407,11.584592,16.204143\O,0,4.830808,11.209544
 ,13.704795\H,0,5.812062,11.234315,13.919887\O,0,2.613501,10.25449,14.1
 93563\H,0,2.252144,11.247021,14.452842\\Version=ES64L-G16RevA.03\HF=-6
 44.1356146\RMSD=5.350e-09\Dipole=0.0573704,4.6296465,-4.9623244\Quadru
 pole=17.6988509,217.1091257,-234.8079766,34.6169282,-30.373998,1.04822
 91\PG=C01 [X(C7H18N1O6P1)]\\@


 THE THINKER DIES, BUT HIS THOUGHTS ARE BEYOND THE 
 REACH OF DESTRUCTION.  MEN ARE MORTAL; BUT IDEAS 
 ARE IMMORTAL.
                              -- WALTER LIPPMANN
 Job cpu time:       0 days  2 hours 54 minutes 31.0 seconds.
 Elapsed time:       0 days  0 hours 17 minutes 32.3 seconds.
 File lengths (MBytes):  RWF=    206 Int=      0 D2E=      0 Chk=     61 Scr=      1
 Normal termination of Gaussian 16 at Wed May 18 15:50:54 2022.
