 Entering Gaussian System, Link 0=g16
 Initial command:
 /data0/home/software/g16/l1.exe "/data0/home/software/g16/scratch/Gau-295867.inp" -scrdir="/data0/home/software/g16/scratch/"
 Default is to use a total of  22 processors:
                               22 via shared-memory
                                1 via Linda
 Entering Link 1 = /data0/home/software/g16/l1.exe PID=    295868.
  
 Copyright (c) 1988,1990,1992,1993,1995,1998,2003,2009,2016,
            Gaussian, Inc.  All Rights Reserved.
  
 This is part of the Gaussian(R) 16 program.  It is based on
 the Gaussian(R) 09 system (copyright 2009, Gaussian, Inc.),
 the Gaussian(R) 03 system (copyright 2003, Gaussian, Inc.),
 the Gaussian(R) 98 system (copyright 1998, Gaussian, Inc.),
 the Gaussian(R) 94 system (copyright 1995, Gaussian, Inc.),
 the Gaussian 92(TM) system (copyright 1992, Gaussian, Inc.),
 the Gaussian 90(TM) system (copyright 1990, Gaussian, Inc.),
 the Gaussian 88(TM) system (copyright 1988, Gaussian, Inc.),
 the Gaussian 86(TM) system (copyright 1986, Carnegie Mellon
 University), and the Gaussian 82(TM) system (copyright 1983,
 Carnegie Mellon University). Gaussian is a federally registered
 trademark of Gaussian, Inc.
  
 This software contains proprietary and confidential information,
 including trade secrets, belonging to Gaussian, Inc.
  
 This software is provided under written license and may be
 used, copied, transmitted, or stored only in accord with that
 written license.
  
 The following legend is applicable only to US Government
 contracts under FAR:
  
                    RESTRICTED RIGHTS LEGEND
  
 Use, reproduction and disclosure by the US Government is
 subject to restrictions as set forth in subparagraphs (a)
 and (c) of the Commercial Computer Software - Restricted
 Rights clause in FAR 52.227-19.
  
 Gaussian, Inc.
 340 Quinnipiac St., Bldg. 40, Wallingford CT 06492
  
  
 ---------------------------------------------------------------
 Warning -- This program may not be used in any manner that
 competes with the business of Gaussian, Inc. or will provide
 assistance to any competitor of Gaussian, Inc.  The licensee
 of this program is prohibited from giving any competitor of
 Gaussian, Inc. access to this program.  By using this program,
 the user acknowledges that Gaussian, Inc. is engaged in the
 business of creating and licensing software in the field of
 computational chemistry and represents and warrants to the
 licensee that it is not a competitor of Gaussian, Inc. and that
 it will not use this program in any manner prohibited above.
 ---------------------------------------------------------------
  

 Cite this work as:
 Gaussian 16, Revision A.03,
 M. J. Frisch, G. W. Trucks, H. B. Schlegel, G. E. Scuseria, 
 M. A. Robb, J. R. Cheeseman, G. Scalmani, V. Barone, 
 G. A. Petersson, H. Nakatsuji, X. Li, M. Caricato, A. V. Marenich, 
 J. Bloino, B. G. Janesko, R. Gomperts, B. Mennucci, H. P. Hratchian, 
 J. V. Ortiz, A. F. Izmaylov, J. L. Sonnenberg, D. Williams-Young, 
 F. Ding, F. Lipparini, F. Egidi, J. Goings, B. Peng, A. Petrone, 
 T. Henderson, D. Ranasinghe, V. G. Zakrzewski, J. Gao, N. Rega, 
 G. Zheng, W. Liang, M. Hada, M. Ehara, K. Toyota, R. Fukuda, 
 J. Hasegawa, M. Ishida, T. Nakajima, Y. Honda, O. Kitao, H. Nakai, 
 T. Vreven, K. Throssell, J. A. Montgomery, Jr., J. E. Peralta, 
 F. Ogliaro, M. J. Bearpark, J. J. Heyd, E. N. Brothers, K. N. Kudin, 
 V. N. Staroverov, T. A. Keith, R. Kobayashi, J. Normand, 
 K. Raghavachari, A. P. Rendell, J. C. Burant, S. S. Iyengar, 
 J. Tomasi, M. Cossi, J. M. Millam, M. Klene, C. Adamo, R. Cammi, 
 J. W. Ochterski, R. L. Martin, K. Morokuma, O. Farkas, 
 J. B. Foresman, and D. J. Fox, Gaussian, Inc., Wallingford CT, 2016.
 
 ******************************************
 Gaussian 16:  ES64L-G16RevA.03 25-Dec-2016
                19-Feb-2023 
 ******************************************
 %nproc=24
 Will use up to   24 processors via shared memory.
 %mem=50GB
 ---------------------------------------------------
 #p M062X/6-311+G(2d,p) nosymm em=GD3 counterpoise=3
 ---------------------------------------------------
 1/38=1,62=3,172=1/1;
 2/12=2,15=1,17=6,18=5,40=1/2;
 1/38=1,53=2,62=3,63=1/22;
 3/5=4,6=6,7=112,11=2,25=1,30=1,74=-55,124=31/1,2,3;
 4//1;
 5/5=2,38=5/2;
 6/7=2,8=2,9=2,10=2,28=1/1;
 1/53=2,62=3,63=1/22;
 3/5=7,6=11,7=112,11=2,25=1,30=1,74=-55,82=7,124=31/1,2,3;
 4//1;
 5/5=2,38=5/2;
 6/7=2,8=2,9=2,10=2,28=1/1;
 1/53=2,62=3,63=1/22(-4);
 99/5=1,9=1/99;
 Leave Link    1 at Sun Feb 19 13:30:18 2023, MaxMem=  6710886400 cpu:               0.8 elap:               0.0
 (Enter /data0/home/software/g16/l101.exe)
 -------------------
 Title Card Required
 -------------------
 Symbolic Z-matrix:
 Charge =  0 Multiplicity = 1 in supermolecule
 Charge =  0 Multiplicity = 1 in fragment      1.
 Charge =  0 Multiplicity = 1 in fragment      2.
 Charge =  0 Multiplicity = 1 in fragment      3.
 C                     10.63575   8.30832   11.42899    
 C                     11.64881   9.26019   11.41839    
 C                     9.69295   10.32786   11.74135    
 N                     9.43663   8.98832   11.63256    
 H                     10.68691   7.2397    11.27208    
 H                     12.70019   9.13816   11.24727    
 H                     8.94435   11.11303   11.86216    
 C                     8.10557   8.40914   11.62411    
 H                     8.13279   7.34664   11.29553    
 H                     7.63554   8.46868   12.61819    
 H                     7.45182   8.93938   10.8854    
 N                     11.04925   10.50596   11.62386    
 C                     11.72191   11.8046   11.5446    
 H                     12.44543   11.87392   12.38983    
 H                     10.96277   12.61504   11.68989    
 C                     12.46014   12.01639   10.20199    
 H                     13.32301   12.69012   10.38407    
 H                     12.90531   11.05476   9.85635    
 C                     11.58933   12.60847   9.09627    
 H                     12.18212   12.75152   8.17453    
 H                     11.21703   13.61072   9.37109    
 S                     10.18384   11.53271   8.74442    
 O                     9.58356   11.85543   7.45055    
 O                     10.74559   10.16272   8.85674    
 O                     9.264     11.83812   9.89813    
 O                     7.11141   10.24222   7.38556    
 H                     7.89381   10.78126   7.16761    
 H                     6.85186   10.55493   8.26357    
 O                     6.71101   11.18254   10.14418    
 H                     7.66716   11.44222   10.05576    
 H                     6.23457   12.00154   10.09009    
 
 ITRead=  0  0  0  0  0  0  0  0  0  0  0  0  0  0  0  0  0  0  0  0
 ITRead=  0  0  0  0  0  0  0  0  0  0  0
 MicOpt= -1 -1 -1 -1 -1 -1 -1 -1 -1 -1 -1 -1 -1 -1 -1 -1 -1 -1 -1 -1
 MicOpt= -1 -1 -1 -1 -1 -1 -1 -1 -1 -1 -1
 NAtoms=     31 NQM=       31 NQMF=       0 NMMI=      0 NMMIF=      0
                NMic=       0 NMicF=      0.
                    Isotopes and Nuclear Properties:
 (Nuclear quadrupole moments (NQMom) in fm**2, nuclear magnetic moments (NMagM)
  in nuclear magnetons)

  Atom         1           2           3           4           5           6           7           8           9          10
 IAtWgt=          12          12          12          14           1           1           1          12           1           1
 AtmWgt=  12.0000000  12.0000000  12.0000000  14.0030740   1.0078250   1.0078250   1.0078250  12.0000000   1.0078250   1.0078250
 NucSpn=           0           0           0           2           1           1           1           0           1           1
 AtZEff=  -0.0000000  -0.0000000  -0.0000000  -0.0000000  -0.0000000  -0.0000000  -0.0000000  -0.0000000  -0.0000000  -0.0000000
 NQMom=    0.0000000   0.0000000   0.0000000   2.0440000   0.0000000   0.0000000   0.0000000   0.0000000   0.0000000   0.0000000
 NMagM=    0.0000000   0.0000000   0.0000000   0.4037610   2.7928460   2.7928460   2.7928460   0.0000000   2.7928460   2.7928460
 AtZNuc=   6.0000000   6.0000000   6.0000000   7.0000000   1.0000000   1.0000000   1.0000000   6.0000000   1.0000000   1.0000000

  Atom        11          12          13          14          15          16          17          18          19          20
 IAtWgt=           1          14          12           1           1          12           1           1          12           1
 AtmWgt=   1.0078250  14.0030740  12.0000000   1.0078250   1.0078250  12.0000000   1.0078250   1.0078250  12.0000000   1.0078250
 NucSpn=           1           2           0           1           1           0           1           1           0           1
 AtZEff=  -0.0000000  -0.0000000  -0.0000000  -0.0000000  -0.0000000  -0.0000000  -0.0000000  -0.0000000  -0.0000000  -0.0000000
 NQMom=    0.0000000   2.0440000   0.0000000   0.0000000   0.0000000   0.0000000   0.0000000   0.0000000   0.0000000   0.0000000
 NMagM=    2.7928460   0.4037610   0.0000000   2.7928460   2.7928460   0.0000000   2.7928460   2.7928460   0.0000000   2.7928460
 AtZNuc=   1.0000000   7.0000000   6.0000000   1.0000000   1.0000000   6.0000000   1.0000000   1.0000000   6.0000000   1.0000000

  Atom        21          22          23          24          25          26          27          28          29          30
 IAtWgt=           1          32          16          16          16          16           1           1          16           1
 AtmWgt=   1.0078250  31.9720718  15.9949146  15.9949146  15.9949146  15.9949146   1.0078250   1.0078250  15.9949146   1.0078250
 NucSpn=           1           0           0           0           0           0           1           1           0           1
 AtZEff=  -0.0000000  -0.0000000  -0.0000000  -0.0000000  -0.0000000  -0.0000000  -0.0000000  -0.0000000  -0.0000000  -0.0000000
 NQMom=    0.0000000   0.0000000   0.0000000   0.0000000   0.0000000   0.0000000   0.0000000   0.0000000   0.0000000   0.0000000
 NMagM=    2.7928460   0.0000000   0.0000000   0.0000000   0.0000000   0.0000000   2.7928460   2.7928460   0.0000000   2.7928460
 AtZNuc=   1.0000000  16.0000000   8.0000000   8.0000000   8.0000000   8.0000000   1.0000000   1.0000000   8.0000000   1.0000000

  Atom        31
 IAtWgt=           1
 AtmWgt=   1.0078250
 NucSpn=           1
 AtZEff=  -0.0000000
 NQMom=    0.0000000
 NMagM=    2.7928460
 AtZNuc=   1.0000000
 Leave Link  101 at Sun Feb 19 13:30:19 2023, MaxMem=  6710886400 cpu:               2.2 elap:               0.1
 (Enter /data0/home/software/g16/l202.exe)
                          Input orientation:                          
 ---------------------------------------------------------------------
 Center     Atomic      Atomic             Coordinates (Angstroms)
 Number     Number       Type             X           Y           Z
 ---------------------------------------------------------------------
      1          6           0       10.635749    8.308323   11.428991
      2          6           0       11.648809    9.260190   11.418389
      3          6           0        9.692951   10.327859   11.741352
      4          7           0        9.436633    8.988320   11.632562
      5          1           0       10.686906    7.239698   11.272076
      6          1           0       12.700190    9.138157   11.247265
      7          1           0        8.944350   11.113031   11.862163
      8          6           0        8.105570    8.409136   11.624112
      9          1           0        8.132789    7.346635   11.295528
     10          1           0        7.635536    8.468678   12.618194
     11          1           0        7.451821    8.939376   10.885395
     12          7           0       11.049246   10.505961   11.623857
     13          6           0       11.721913   11.804598   11.544596
     14          1           0       12.445425   11.873919   12.389833
     15          1           0       10.962768   12.615042   11.689885
     16          6           0       12.460140   12.016393   10.201987
     17          1           0       13.323012   12.690122   10.384073
     18          1           0       12.905313   11.054755    9.856351
     19          6           0       11.589332   12.608470    9.096266
     20          1           0       12.182124   12.751518    8.174532
     21          1           0       11.217033   13.610724    9.371088
     22         16           0       10.183836   11.532708    8.744422
     23          8           0        9.583560   11.855427    7.450546
     24          8           0       10.745595   10.162721    8.856735
     25          8           0        9.264002   11.838116    9.898127
     26          8           0        7.111406   10.242216    7.385558
     27          1           0        7.893805   10.781262    7.167611
     28          1           0        6.851857   10.554925    8.263571
     29          8           0        6.711013   11.182545   10.144183
     30          1           0        7.667157   11.442221   10.055757
     31          1           0        6.234570   12.001537   10.090090
 ---------------------------------------------------------------------
                    Distance matrix (angstroms):
                    1          2          3          4          5
     1  C    0.000000
     2  C    1.390127   0.000000
     3  C    2.250547   2.251578   0.000000
     4  N    1.393455   2.239086   1.368174   0.000000
     5  H    1.081295   2.242555   3.277942   2.179636   0.000000
     6  H    2.232390   1.072184   3.271544   3.289637   2.767323
     7  H    3.303764   3.308180   1.091556   2.193047   4.288055
     8  C    2.539693   3.649816   2.492995   1.451638   2.855663
     9  H    2.684672   4.004895   3.394195   2.123377   2.556462
    10  H    3.231284   4.262908   2.908326   2.117888   3.554333
    11  H    3.291067   4.242843   2.771861   2.121352   3.674806
    12  N    2.244675   1.397726   1.372975   2.214459   3.305074
    13  C    3.662930   2.548585   2.517173   3.627901   4.688691
    14  H    4.112374   2.899979   3.222878   4.237095   5.081119
    15  H    4.326989   3.435025   2.616542   3.935160   5.398610
    16  C    4.310884   3.120024   3.588611   4.511914   5.206368
    17  H    5.245322   3.954390   4.538704   5.510536   6.119210
    18  H    3.894484   2.690581   3.794849   4.410989   4.634681
    19  C    4.984194   4.075141   3.974157   4.916543   5.862784
    20  H    5.720556   4.795457   4.979188   5.801496   6.496970
    21  H    5.717369   4.827527   4.326451   5.445246   6.669690
    22  S    4.219928   3.802707   3.267142   3.920915   5.007200
    23  O    5.432962   5.171488   4.555924   5.072588   6.093145
    24  O    3.172910   2.862242   3.075117   3.286003   3.792279
    25  O    4.084688   3.826775   2.421229   3.340569   5.005781
    26  O    5.701779   6.149482   5.064055   5.001598   6.074894
    27  H    5.638532   5.872208   4.935748   5.052796   6.098420
    28  H    5.420788   5.885573   4.496480   4.526082   5.894865
    29  O    5.031445   5.449851   3.489039   3.802486   5.711910
    30  H    4.529859   4.740420   2.861271   3.411596   5.315968
    31  H    5.899395   6.212354   4.181897   4.659603   6.625368
                    6          7          8          9         10
     6  H    0.000000
     7  H    4.287722   0.000000
     8  C    4.667335   2.840998   0.000000
     9  H    4.906428   3.894284   1.112482   0.000000
    10  H    5.289458   3.045846   1.101216   1.804352   0.000000
    11  H    5.264584   2.811849   1.119931   1.780098   1.804965
    12  N    2.176769   2.203613   3.614126   4.312176   4.097883
    13  C    2.855755   2.879925   4.961192   5.728637   5.383257
    14  H    2.975695   3.621452   5.605835   6.347648   5.897698
    15  H    3.911940   2.521850   5.085032   5.993364   5.396718
    16  C    3.071559   3.991620   5.830697   6.459755   6.457642
    17  H    3.708027   4.883098   6.861941   7.504800   7.426929
    18  H    2.376987   4.440260   5.758629   6.212759   6.487382
    19  C    4.231297   4.108826   6.013402   6.668684   6.721187
    20  H    4.771421   5.173630   6.882890   7.439791   7.665528
    21  H    5.071849   4.196309   6.466362   7.242571   7.057723
    22  S    4.281371   3.381237   4.729536   5.313957   5.557717
    23  O    5.613556   4.519082   5.610707   6.100642   6.478383
    24  O    3.253430   3.630450   4.207513   4.550253   5.166316
    25  O    4.573548   2.117868   4.009849   4.837951   4.626422
    26  O    6.882313   4.915078   4.723757   4.971466   5.549831
    27  H    6.514960   4.822088   5.052942   5.375265   5.926517
    28  H    6.716596   4.199985   4.179646   4.596376   4.891761
    29  O    6.423905   2.818525   3.439008   4.249853   3.786892
    30  H    5.662139   2.236670   3.442608   4.304378   3.925435
    31  H    7.165350   3.357468   4.331190   5.169568   4.564549
                   11         12         13         14         15
    11  H    0.000000
    12  N    3.992616   0.000000
    13  C    5.184374   1.464657   0.000000
    14  H    5.984226   2.099368   1.114765   0.000000
    15  H    5.146307   2.111886   1.119924   1.799295   0.000000
    16  C    5.917630   2.508733   1.546750   2.192529   2.194161
    17  H    6.985006   3.387866   2.166676   2.336540   2.698432
    18  H    5.939220   2.621114   2.193826   2.702047   3.093513
    19  C    5.812248   3.331809   2.580331   3.481385   2.668236
    20  H    6.652591   4.268932   3.530692   4.313730   3.723327
    21  H    6.188008   3.839619   2.870737   3.693001   2.536307
    22  S    4.332787   3.177151   3.206334   4.303514   3.233254
    23  O    4.984561   4.624480   4.619132   5.708517   4.522303
    24  O    4.057214   2.804814   3.297507   4.277897   3.753369
    25  O    3.558285   2.817779   2.958599   4.041204   2.588400
    26  O    3.749951   5.791315   6.402766   7.493796   6.244239
    27  H    4.172507   5.467241   5.904204   7.013041   5.764742
    28  H    3.137502   5.376987   6.003687   7.074870   5.734396
    29  O    2.475883   4.633300   5.239964   6.197130   4.745383
    30  H    2.645544   3.843702   4.334629   5.335365   3.860950
    31  H    3.389844   5.269753   5.680256   6.624185   5.029074
                   16         17         18         19         20
    16  C    0.000000
    17  H    1.109781   0.000000
    18  H    1.114626   1.768442   0.000000
    19  C    1.526919   2.161194   2.173377   0.000000
    20  H    2.174460   2.487462   2.496101   1.105196   0.000000
    21  H    2.185772   2.511731   3.101410   1.103923   1.761074
    22  S    2.745907   3.725921   2.978466   1.804571   2.409030
    23  O    3.983849   4.825536   4.178877   2.701590   2.842476
    24  O    2.861026   3.919642   2.541523   2.598260   3.038237
    25  O    3.215496   4.175838   3.724855   2.577515   3.510060
    26  O    6.299915   7.318974   6.350937   5.345793   5.712378
    27  H    5.620000   6.592849   5.693798   4.551408   4.825503
    28  H    6.111152   7.136627   6.279419   5.230114   5.765821
    29  O    5.809570   6.785932   6.202300   5.189353   6.022811
    30  H    4.829466   5.801185   5.256251   4.202882   5.063417
    31  H    6.226593   7.127874   6.741650   5.479921   6.293269
                   21         22         23         24         25
    21  H    0.000000
    22  S    2.403821   0.000000
    23  O    3.072098   1.462393   0.000000
    24  O    3.517888   1.484942   2.488563   0.000000
    25  O    2.689654   1.506786   2.468414   2.467096   0.000000
    26  O    5.669687   3.598848   2.952663   3.921481   3.673359
    27  H    4.889275   2.880147   2.022166   3.371712   3.232661
    28  H    5.442358   3.505619   3.132813   3.958139   3.183834
    29  O    5.176673   3.760644   3.994994   4.356078   2.647276
    30  H    4.215779   2.839271   3.260439   3.542817   1.652723
    31  H    5.285015   4.198491   4.266647   5.025112   3.039904
                   26         27         28         29         30
    26  O    0.000000
    27  H    0.974792   0.000000
    28  H    0.967502   1.529056   0.000000
    29  O    2.941861   3.228003   1.987573   0.000000
    30  H    2.979737   2.971468   2.159615   0.994717   0.000000
    31  H    3.343433   3.575334   2.410374   0.949037   1.538284
                   31
    31  H    0.000000
 Symmetry turned off by external request.
 Stoichiometry    C7H16N2O5S
 Framework group  C1[X(C7H16N2O5S)]
 Deg. of freedom    87
 Full point group                 C1      NOp   1
 Rotational constants (GHZ):           0.5896105           0.5325476           0.3500379
 Leave Link  202 at Sun Feb 19 13:30:19 2023, MaxMem=  6710886400 cpu:               0.1 elap:               0.0
 (Enter /data0/home/software/g16/l122.exe)
 Counterpoise: doing full-system calculation.
 Leave Link  122 at Sun Feb 19 13:30:19 2023, MaxMem=  6710886400 cpu:               0.1 elap:               0.0
 (Enter /data0/home/software/g16/l301.exe)
 Standard basis: 6-311+G(2d,p) (5D, 7F)
 Ernie: Thresh=  0.10000D-02 Tol=  0.10000D-05 Strict=F.
   509 basis functions,   772 primitive gaussians,   539 cartesian basis functions
    64 alpha electrons       64 beta electrons
       nuclear repulsion energy      1346.4084307053 Hartrees.
 IExCor= 4336 DFT=T Ex+Corr=M062X ExCW=0 ScaHFX=  0.540000
 ScaDFX=  1.000000  1.000000  1.000000  1.000000 ScalE2=  1.000000  1.000000
 IRadAn=      5 IRanWt=     -1 IRanGd=            0 ICorTp=0 IEmpDi=131
 NAtoms=   31 NActive=   31 NUniq=   31 SFac= 1.00D+00 NAtFMM=   60 NAOKFM=F Big=F
 Integral buffers will be    131072 words long.
 Raffenetti 2 integral format.
 Two-electron integral symmetry is turned off.
 R6Disp:  Grimme-D3 Dispersion energy=       -0.0020061564 Hartrees.
 Nuclear repulsion after empirical dispersion term =     1346.4064245489 Hartrees.
 Leave Link  301 at Sun Feb 19 13:30:19 2023, MaxMem=  6710886400 cpu:               1.1 elap:               0.1
 (Enter /data0/home/software/g16/l302.exe)
 NPDir=0 NMtPBC=     1 NCelOv=     1 NCel=       1 NClECP=     1 NCelD=      1
         NCelK=      1 NCelE2=     1 NClLst=     1 CellRange=     0.0.
 One-electron integrals computed using PRISM.
 NBasis=   509 RedAO= T EigKep=  1.26D-05  NBF=   509
 NBsUse=   509 1.00D-06 EigRej= -1.00D+00 NBFU=   509
 Precomputing XC quadrature grid using
 IXCGrd= 4 IRadAn=           5 IRanWt=          -1 IRanGd=           0 AccXCQ= 0.00D+00.
 Generated NRdTot=       0 NPtTot=           0 NUsed=           0 NTot=          32
 NSgBfM=   539   539   539   539   539 MxSgAt=    31 MxSgA2=    31.
 Leave Link  302 at Sun Feb 19 13:30:19 2023, MaxMem=  6710886400 cpu:              11.9 elap:               0.5
 (Enter /data0/home/software/g16/l303.exe)
 DipDrv:  MaxL=1.
 Leave Link  303 at Sun Feb 19 13:30:19 2023, MaxMem=  6710886400 cpu:               1.2 elap:               0.1
 (Enter /data0/home/software/g16/l401.exe)
 ExpMin= 4.05D-02 ExpMax= 9.34D+04 ExpMxC= 3.17D+03 IAcc=3 IRadAn=         5 AccDes= 0.00D+00
 Harris functional with IExCor= 1009 and IRadAn=       5 diagonalized for initial guess.
 HarFok:  IExCor= 1009 AccDes= 0.00D+00 IRadAn=         5 IDoV= 1 UseB2=F ITyADJ=14
 ICtDFT=  3500011 ScaDFX=  1.000000  1.000000  1.000000  1.000000
 FoFCou: FMM=F IPFlag=           0 FMFlag=      100000 FMFlg1=           0
         NFxFlg=           0 DoJE=T BraDBF=F KetDBF=T FulRan=T
         wScrn=  0.000000 ICntrl=       500 IOpCl=  0 I1Cent=   200000004 NGrid=           0
         NMat0=    1 NMatS0=      1 NMatT0=    0 NMatD0=    1 NMtDS0=    0 NMtDT0=    0
 Symmetry not used in FoFCou.
 Harris En= -1159.64293214167    
 JPrj=0 DoOrth=F DoCkMO=F.
 Leave Link  401 at Sun Feb 19 13:30:21 2023, MaxMem=  6710886400 cpu:              46.1 elap:               2.0
 (Enter /data0/home/software/g16/l502.exe)
 Two-electron integral symmetry not used.
 Closed shell SCF:
 Using DIIS extrapolation, IDIIS=  1040.
 NGot=  6710886400 LenX=  6710288594 LenY=  6709997534
 Requested convergence on RMS density matrix=1.00D-08 within 128 cycles.
 Requested convergence on MAX density matrix=1.00D-06.
 Requested convergence on             energy=1.00D-06.
 No special actions if energy rises.
 Fock matrices will be formed incrementally for  20 cycles.

 Cycle   1  Pass 1  IDiag  1:
 FoFJK:  IHMeth= 1 ICntrl=       0 DoSepK=F KAlg= 0 I1Cent=           0 FoldK=F
 IRaf= 880000000 NMat=       1 IRICut=       1 DoRegI=T DoRafI=F ISym2E= 0 IDoP0=0 IntGTp=1.
 FoFCou: FMM=F IPFlag=           0 FMFlag=      100000 FMFlg1=           0
         NFxFlg=           0 DoJE=F BraDBF=F KetDBF=F FulRan=T
         wScrn=  0.000000 ICntrl=         0 IOpCl=  0 I1Cent=           0 NGrid=           0
         NMat0=    1 NMatS0=      1 NMatT0=    0 NMatD0=    1 NMtDS0=    0 NMtDT0=    0
 Symmetry not used in FoFCou.
 E= -1159.53416787010    
 DIIS: error= 2.96D-02 at cycle   1 NSaved=   1.
 NSaved= 1 IEnMin= 1 EnMin= -1159.53416787010     IErMin= 1 ErrMin= 2.96D-02
 ErrMax= 2.96D-02  0.00D+00 EMaxC= 1.00D-01 BMatC= 9.23D-01 BMatP= 9.23D-01
 IDIUse=3 WtCom= 7.04D-01 WtEn= 2.96D-01
 Coeff-Com:  0.100D+01
 Coeff-En:   0.100D+01
 Coeff:      0.100D+01
 Gap=     0.279 Goal=   None    Shift=    0.000
 GapD=    0.279 DampG=1.000 DampE=0.500 DampFc=0.5000 IDamp=-1.
 Damping current iteration by 5.00D-01
 RMSDP=6.64D-03 MaxDP=7.98D-01              OVMax= 1.88D-01

 Cycle   2  Pass 1  IDiag  1:
 RMSU=  3.25D-03    CP:  1.06D+00
 E= -1159.77982046725     Delta-E=       -0.245652597147 Rises=F Damp=T
 DIIS: error= 5.64D-03 at cycle   2 NSaved=   2.
 NSaved= 2 IEnMin= 2 EnMin= -1159.77982046725     IErMin= 2 ErrMin= 5.64D-03
 ErrMax= 5.64D-03  0.00D+00 EMaxC= 1.00D-01 BMatC= 5.81D-02 BMatP= 9.23D-01
 IDIUse=3 WtCom= 9.44D-01 WtEn= 5.64D-02
 Coeff-Com:  0.349D-01 0.965D+00
 Coeff-En:   0.121D+00 0.879D+00
 Coeff:      0.398D-01 0.960D+00
 Gap=     0.301 Goal=   None    Shift=    0.000
 RMSDP=2.49D-03 MaxDP=3.99D-01 DE=-2.46D-01 OVMax= 1.14D-01

 Cycle   3  Pass 1  IDiag  1:
 RMSU=  1.80D-03    CP:  9.51D-01  6.35D-01
 E= -1160.08088835354     Delta-E=       -0.301067886286 Rises=F Damp=F
 DIIS: error= 3.31D-03 at cycle   3 NSaved=   3.
 NSaved= 3 IEnMin= 3 EnMin= -1160.08088835354     IErMin= 3 ErrMin= 3.31D-03
 ErrMax= 3.31D-03  0.00D+00 EMaxC= 1.00D-01 BMatC= 1.99D-02 BMatP= 5.81D-02
 IDIUse=3 WtCom= 9.67D-01 WtEn= 3.31D-02
 Coeff-Com: -0.519D-01 0.331D+00 0.721D+00
 Coeff-En:   0.000D+00 0.000D+00 0.100D+01
 Coeff:     -0.502D-01 0.320D+00 0.731D+00
 Gap=     0.288 Goal=   None    Shift=    0.000
 RMSDP=5.62D-04 MaxDP=5.66D-02 DE=-3.01D-01 OVMax= 3.56D-02

 Cycle   4  Pass 1  IDiag  1:
 RMSU=  4.84D-04    CP:  9.52D-01  7.22D-01  9.68D-01
 E= -1160.09215613150     Delta-E=       -0.011267777958 Rises=F Damp=F
 DIIS: error= 1.88D-03 at cycle   4 NSaved=   4.
 NSaved= 4 IEnMin= 4 EnMin= -1160.09215613150     IErMin= 4 ErrMin= 1.88D-03
 ErrMax= 1.88D-03  0.00D+00 EMaxC= 1.00D-01 BMatC= 5.08D-03 BMatP= 1.99D-02
 IDIUse=3 WtCom= 9.81D-01 WtEn= 1.88D-02
 Coeff-Com: -0.288D-01 0.855D-01 0.388D+00 0.555D+00
 Coeff-En:   0.000D+00 0.000D+00 0.185D+00 0.815D+00
 Coeff:     -0.282D-01 0.839D-01 0.384D+00 0.560D+00
 Gap=     0.286 Goal=   None    Shift=    0.000
 RMSDP=2.27D-04 MaxDP=1.89D-02 DE=-1.13D-02 OVMax= 1.13D-02

 Cycle   5  Pass 1  IDiag  1:
 RMSU=  1.37D-04    CP:  9.52D-01  7.06D-01  9.89D-01  6.51D-01
 E= -1160.09605894152     Delta-E=       -0.003902810024 Rises=F Damp=F
 DIIS: error= 4.21D-04 at cycle   5 NSaved=   5.
 NSaved= 5 IEnMin= 5 EnMin= -1160.09605894152     IErMin= 5 ErrMin= 4.21D-04
 ErrMax= 4.21D-04  0.00D+00 EMaxC= 1.00D-01 BMatC= 2.59D-04 BMatP= 5.08D-03
 IDIUse=3 WtCom= 9.96D-01 WtEn= 4.21D-03
 Coeff-Com: -0.978D-02 0.203D-01 0.136D+00 0.266D+00 0.587D+00
 Coeff-En:   0.000D+00 0.000D+00 0.000D+00 0.000D+00 0.100D+01
 Coeff:     -0.974D-02 0.202D-01 0.136D+00 0.265D+00 0.588D+00
 Gap=     0.284 Goal=   None    Shift=    0.000
 RMSDP=5.95D-05 MaxDP=5.83D-03 DE=-3.90D-03 OVMax= 2.97D-03

 Cycle   6  Pass 1  IDiag  1:
 RMSU=  3.34D-05    CP:  9.50D-01  7.04D-01  9.93D-01  7.01D-01  7.15D-01
 E= -1160.09623411418     Delta-E=       -0.000175172658 Rises=F Damp=F
 DIIS: error= 1.36D-04 at cycle   6 NSaved=   6.
 NSaved= 6 IEnMin= 6 EnMin= -1160.09623411418     IErMin= 6 ErrMin= 1.36D-04
 ErrMax= 1.36D-04  0.00D+00 EMaxC= 1.00D-01 BMatC= 2.27D-05 BMatP= 2.59D-04
 IDIUse=3 WtCom= 9.99D-01 WtEn= 1.36D-03
 Coeff-Com: -0.188D-02 0.179D-02 0.270D-01 0.731D-01 0.279D+00 0.621D+00
 Coeff-En:   0.000D+00 0.000D+00 0.000D+00 0.000D+00 0.000D+00 0.100D+01
 Coeff:     -0.187D-02 0.179D-02 0.269D-01 0.730D-01 0.278D+00 0.622D+00
 Gap=     0.284 Goal=   None    Shift=    0.000
 RMSDP=2.30D-05 MaxDP=1.96D-03 DE=-1.75D-04 OVMax= 8.25D-04

 Cycle   7  Pass 1  IDiag  1:
 RMSU=  1.84D-05    CP:  9.50D-01  7.01D-01  9.96D-01  7.11D-01  7.19D-01
                    CP:  8.53D-01
 E= -1160.09625187423     Delta-E=       -0.000017760053 Rises=F Damp=F
 DIIS: error= 3.34D-05 at cycle   7 NSaved=   7.
 NSaved= 7 IEnMin= 7 EnMin= -1160.09625187423     IErMin= 7 ErrMin= 3.34D-05
 ErrMax= 3.34D-05  0.00D+00 EMaxC= 1.00D-01 BMatC= 1.71D-06 BMatP= 2.27D-05
 IDIUse=1 WtCom= 1.00D+00 WtEn= 0.00D+00
 Coeff-Com:  0.321D-03-0.146D-02-0.446D-02 0.134D-02 0.502D-01 0.244D+00
 Coeff-Com:  0.710D+00
 Coeff:      0.321D-03-0.146D-02-0.446D-02 0.134D-02 0.502D-01 0.244D+00
 Coeff:      0.710D+00
 Gap=     0.284 Goal=   None    Shift=    0.000
 RMSDP=5.26D-06 MaxDP=3.17D-04 DE=-1.78D-05 OVMax= 2.34D-04

 Cycle   8  Pass 1  IDiag  1:
 RMSU=  4.04D-06    CP:  9.50D-01  7.01D-01  9.96D-01  7.13D-01  7.35D-01
                    CP:  8.94D-01  9.13D-01
 E= -1160.09625330622     Delta-E=       -0.000001431991 Rises=F Damp=F
 DIIS: error= 1.49D-05 at cycle   8 NSaved=   8.
 NSaved= 8 IEnMin= 8 EnMin= -1160.09625330622     IErMin= 8 ErrMin= 1.49D-05
 ErrMax= 1.49D-05  0.00D+00 EMaxC= 1.00D-01 BMatC= 2.03D-07 BMatP= 1.71D-06
 IDIUse=1 WtCom= 1.00D+00 WtEn= 0.00D+00
 Coeff-Com:  0.353D-03-0.738D-03-0.560D-02-0.941D-02-0.194D-01 0.641D-02
 Coeff-Com:  0.268D+00 0.761D+00
 Coeff:      0.353D-03-0.738D-03-0.560D-02-0.941D-02-0.194D-01 0.641D-02
 Coeff:      0.268D+00 0.761D+00
 Gap=     0.284 Goal=   None    Shift=    0.000
 RMSDP=3.36D-06 MaxDP=2.66D-04 DE=-1.43D-06 OVMax= 1.35D-04

 Cycle   9  Pass 1  IDiag  1:
 RMSU=  1.96D-06    CP:  9.50D-01  7.00D-01  9.96D-01  7.14D-01  7.41D-01
                    CP:  9.29D-01  9.56D-01  9.03D-01
 E= -1160.09625349848     Delta-E=       -0.000000192259 Rises=F Damp=F
 DIIS: error= 4.62D-06 at cycle   9 NSaved=   9.
 NSaved= 9 IEnMin= 9 EnMin= -1160.09625349848     IErMin= 9 ErrMin= 4.62D-06
 ErrMax= 4.62D-06  0.00D+00 EMaxC= 1.00D-01 BMatC= 2.05D-08 BMatP= 2.03D-07
 IDIUse=1 WtCom= 1.00D+00 WtEn= 0.00D+00
 Coeff-Com:  0.101D-03-0.159D-03-0.185D-02-0.364D-02-0.111D-01-0.149D-01
 Coeff-Com:  0.457D-01 0.300D+00 0.686D+00
 Coeff:      0.101D-03-0.159D-03-0.185D-02-0.364D-02-0.111D-01-0.149D-01
 Coeff:      0.457D-01 0.300D+00 0.686D+00
 Gap=     0.284 Goal=   None    Shift=    0.000
 RMSDP=7.09D-07 MaxDP=8.20D-05 DE=-1.92D-07 OVMax= 3.92D-05

 Cycle  10  Pass 1  IDiag  1:
 RMSU=  4.27D-07    CP:  9.50D-01  7.00D-01  9.96D-01  7.14D-01  7.40D-01
                    CP:  9.30D-01  9.77D-01  9.59D-01  9.22D-01
 E= -1160.09625351825     Delta-E=       -0.000000019771 Rises=F Damp=F
 DIIS: error= 8.94D-07 at cycle  10 NSaved=  10.
 NSaved=10 IEnMin=10 EnMin= -1160.09625351825     IErMin=10 ErrMin= 8.94D-07
 ErrMax= 8.94D-07  0.00D+00 EMaxC= 1.00D-01 BMatC= 1.32D-09 BMatP= 2.05D-08
 IDIUse=1 WtCom= 1.00D+00 WtEn= 0.00D+00
 Coeff-Com: -0.123D-04 0.373D-04 0.822D-04-0.355D-04-0.130D-02-0.518D-02
 Coeff-Com: -0.191D-01 0.221D-02 0.166D+00 0.858D+00
 Coeff:     -0.123D-04 0.373D-04 0.822D-04-0.355D-04-0.130D-02-0.518D-02
 Coeff:     -0.191D-01 0.221D-02 0.166D+00 0.858D+00
 Gap=     0.284 Goal=   None    Shift=    0.000
 RMSDP=2.61D-07 MaxDP=2.60D-05 DE=-1.98D-08 OVMax= 2.23D-05

 Cycle  11  Pass 1  IDiag  1:
 RMSU=  1.45D-07    CP:  9.50D-01  7.00D-01  9.96D-01  7.14D-01  7.40D-01
                    CP:  9.31D-01  9.79D-01  9.77D-01  9.86D-01  1.17D+00
 E= -1160.09625352040     Delta-E=       -0.000000002152 Rises=F Damp=F
 DIIS: error= 5.47D-07 at cycle  11 NSaved=  11.
 NSaved=11 IEnMin=11 EnMin= -1160.09625352040     IErMin=11 ErrMin= 5.47D-07
 ErrMax= 5.47D-07  0.00D+00 EMaxC= 1.00D-01 BMatC= 3.38D-10 BMatP= 1.32D-09
 IDIUse=1 WtCom= 1.00D+00 WtEn= 0.00D+00
 Coeff-Com: -0.154D-04 0.322D-04 0.235D-03 0.386D-03 0.671D-03-0.192D-03
 Coeff-Com: -0.130D-01-0.327D-01-0.194D-01 0.363D+00 0.701D+00
 Coeff:     -0.154D-04 0.322D-04 0.235D-03 0.386D-03 0.671D-03-0.192D-03
 Coeff:     -0.130D-01-0.327D-01-0.194D-01 0.363D+00 0.701D+00
 Gap=     0.284 Goal=   None    Shift=    0.000
 RMSDP=7.77D-08 MaxDP=3.66D-06 DE=-2.15D-09 OVMax= 7.45D-06

 Cycle  12  Pass 1  IDiag  1:
 RMSU=  5.21D-08    CP:  9.50D-01  7.00D-01  9.96D-01  7.14D-01  7.40D-01
                    CP:  9.32D-01  9.79D-01  9.80D-01  1.00D+00  1.25D+00
                    CP:  9.56D-01
 E= -1160.09625352074     Delta-E=       -0.000000000332 Rises=F Damp=F
 DIIS: error= 2.45D-07 at cycle  12 NSaved=  12.
 NSaved=12 IEnMin=12 EnMin= -1160.09625352074     IErMin=12 ErrMin= 2.45D-07
 ErrMax= 2.45D-07  0.00D+00 EMaxC= 1.00D-01 BMatC= 5.53D-11 BMatP= 3.38D-10
 IDIUse=1 WtCom= 1.00D+00 WtEn= 0.00D+00
 Coeff-Com: -0.505D-05 0.947D-05 0.975D-04 0.181D-03 0.450D-03 0.609D-03
 Coeff-Com: -0.361D-02-0.146D-01-0.303D-01 0.691D-01 0.335D+00 0.643D+00
 Coeff:     -0.505D-05 0.947D-05 0.975D-04 0.181D-03 0.450D-03 0.609D-03
 Coeff:     -0.361D-02-0.146D-01-0.303D-01 0.691D-01 0.335D+00 0.643D+00
 Gap=     0.284 Goal=   None    Shift=    0.000
 RMSDP=3.17D-08 MaxDP=1.84D-06 DE=-3.32D-10 OVMax= 2.84D-06

 Cycle  13  Pass 1  IDiag  1:
 RMSU=  2.33D-08    CP:  9.50D-01  7.00D-01  9.96D-01  7.14D-01  7.40D-01
                    CP:  9.32D-01  9.78D-01  9.80D-01  1.01D+00  1.26D+00
                    CP:  1.04D+00  9.13D-01
 E= -1160.09625352076     Delta-E=       -0.000000000025 Rises=F Damp=F
 DIIS: error= 6.21D-08 at cycle  13 NSaved=  13.
 NSaved=13 IEnMin=13 EnMin= -1160.09625352076     IErMin=13 ErrMin= 6.21D-08
 ErrMax= 6.21D-08  0.00D+00 EMaxC= 1.00D-01 BMatC= 8.52D-12 BMatP= 5.53D-11
 IDIUse=1 WtCom= 1.00D+00 WtEn= 0.00D+00
 Coeff-Com:  0.684D-06-0.172D-05 0.138D-05 0.925D-05 0.576D-04 0.273D-03
 Coeff-Com:  0.540D-03-0.396D-03-0.932D-02-0.342D-01 0.180D-01 0.304D+00
 Coeff-Com:  0.721D+00
 Coeff:      0.684D-06-0.172D-05 0.138D-05 0.925D-05 0.576D-04 0.273D-03
 Coeff:      0.540D-03-0.396D-03-0.932D-02-0.342D-01 0.180D-01 0.304D+00
 Coeff:      0.721D+00
 Gap=     0.284 Goal=   None    Shift=    0.000
 RMSDP=1.26D-08 MaxDP=1.38D-06 DE=-2.46D-11 OVMax= 1.24D-06

 Cycle  14  Pass 1  IDiag  1:
 RMSU=  7.91D-09    CP:  9.50D-01  7.00D-01  9.96D-01  7.14D-01  7.40D-01
                    CP:  9.32D-01  9.78D-01  9.81D-01  1.00D+00  1.27D+00
                    CP:  1.06D+00  1.03D+00  9.07D-01
 E= -1160.09625352074     Delta-E=        0.000000000017 Rises=F Damp=F
 DIIS: error= 2.17D-08 at cycle  14 NSaved=  14.
 NSaved=14 IEnMin=13 EnMin= -1160.09625352076     IErMin=14 ErrMin= 2.17D-08
 ErrMax= 2.17D-08  0.00D+00 EMaxC= 1.00D-01 BMatC= 7.05D-13 BMatP= 8.52D-12
 IDIUse=1 WtCom= 1.00D+00 WtEn= 0.00D+00
 Coeff-Com:  0.833D-06-0.176D-05-0.919D-05-0.139D-04-0.207D-04 0.597D-04
 Coeff-Com:  0.598D-03 0.137D-02-0.112D-02-0.232D-01-0.314D-01 0.626D-01
 Coeff-Com:  0.289D+00 0.702D+00
 Coeff:      0.833D-06-0.176D-05-0.919D-05-0.139D-04-0.207D-04 0.597D-04
 Coeff:      0.598D-03 0.137D-02-0.112D-02-0.232D-01-0.314D-01 0.626D-01
 Coeff:      0.289D+00 0.702D+00
 Gap=     0.284 Goal=   None    Shift=    0.000
 RMSDP=4.45D-09 MaxDP=2.94D-07 DE= 1.73D-11 OVMax= 3.55D-07

 SCF Done:  E(RM062X) =  -1160.09625352     A.U. after   14 cycles
            NFock= 14  Conv=0.45D-08     -V/T= 2.0034
 KE= 1.156198336164D+03 PE=-5.423737249400D+03 EE= 1.761036235167D+03
 Leave Link  502 at Sun Feb 19 13:31:59 2023, MaxMem=  6710886400 cpu:            2343.2 elap:              98.0
 (Enter /data0/home/software/g16/l601.exe)
 Copying SCF densities to generalized density rwf, IOpCl= 0 IROHF=0.

 **********************************************************************

            Population analysis using the SCF density.

 **********************************************************************

 Alpha  occ. eigenvalues --  -90.07368 -19.60023 -19.58725 -19.57959 -19.57273
 Alpha  occ. eigenvalues --  -19.54428 -14.87128 -14.86698 -10.67793 -10.62897
 Alpha  occ. eigenvalues --  -10.62686 -10.62602 -10.61379 -10.57840 -10.56815
 Alpha  occ. eigenvalues --   -8.40829  -6.33125  -6.33056  -6.33050  -1.21847
 Alpha  occ. eigenvalues --   -1.19592  -1.11360  -1.08827  -1.08061  -1.07265
 Alpha  occ. eigenvalues --   -1.05160  -0.93555  -0.90597  -0.86738  -0.82114
 Alpha  occ. eigenvalues --   -0.76214  -0.73164  -0.71319  -0.66719  -0.64768
 Alpha  occ. eigenvalues --   -0.60680  -0.59809  -0.58253  -0.57523  -0.57092
 Alpha  occ. eigenvalues --   -0.56302  -0.54987  -0.54355  -0.53398  -0.52664
 Alpha  occ. eigenvalues --   -0.52042  -0.50871  -0.49490  -0.49166  -0.47245
 Alpha  occ. eigenvalues --   -0.46161  -0.44835  -0.43557  -0.41784  -0.39789
 Alpha  occ. eigenvalues --   -0.39502  -0.38598  -0.37384  -0.35927  -0.34821
 Alpha  occ. eigenvalues --   -0.34203  -0.33966  -0.32274  -0.30844
 Alpha virt. eigenvalues --   -0.02464  -0.00446  -0.00050   0.00722   0.01359
 Alpha virt. eigenvalues --    0.01798   0.02339   0.02676   0.03429   0.04553
 Alpha virt. eigenvalues --    0.05145   0.05675   0.05952   0.06523   0.07353
 Alpha virt. eigenvalues --    0.07525   0.08677   0.09149   0.09422   0.09965
 Alpha virt. eigenvalues --    0.10294   0.10979   0.11574   0.11724   0.12507
 Alpha virt. eigenvalues --    0.12978   0.13845   0.14183   0.14735   0.14932
 Alpha virt. eigenvalues --    0.15732   0.15915   0.16189   0.16495   0.17096
 Alpha virt. eigenvalues --    0.17185   0.17499   0.17966   0.18273   0.18446
 Alpha virt. eigenvalues --    0.19330   0.19788   0.19918   0.20312   0.20706
 Alpha virt. eigenvalues --    0.21230   0.21451   0.21940   0.22358   0.23167
 Alpha virt. eigenvalues --    0.23518   0.23949   0.24580   0.25144   0.25398
 Alpha virt. eigenvalues --    0.26205   0.26365   0.27001   0.27628   0.27759
 Alpha virt. eigenvalues --    0.28111   0.28685   0.29596   0.29648   0.30347
 Alpha virt. eigenvalues --    0.30902   0.31253   0.31663   0.32609   0.33430
 Alpha virt. eigenvalues --    0.34223   0.34427   0.35089   0.35694   0.36376
 Alpha virt. eigenvalues --    0.37190   0.37963   0.38241   0.38450   0.39945
 Alpha virt. eigenvalues --    0.40173   0.40566   0.41111   0.41933   0.42451
 Alpha virt. eigenvalues --    0.43377   0.44064   0.44593   0.44990   0.45501
 Alpha virt. eigenvalues --    0.46410   0.46750   0.48351   0.48605   0.49608
 Alpha virt. eigenvalues --    0.50216   0.50589   0.51707   0.52305   0.53193
 Alpha virt. eigenvalues --    0.53530   0.55445   0.56514   0.56715   0.58147
 Alpha virt. eigenvalues --    0.58985   0.59498   0.60444   0.60658   0.61671
 Alpha virt. eigenvalues --    0.62490   0.63320   0.63749   0.64361   0.65642
 Alpha virt. eigenvalues --    0.65807   0.66295   0.66826   0.67528   0.68380
 Alpha virt. eigenvalues --    0.69039   0.69728   0.69834   0.70347   0.71275
 Alpha virt. eigenvalues --    0.72617   0.73158   0.74037   0.74621   0.75359
 Alpha virt. eigenvalues --    0.76202   0.76883   0.78337   0.78732   0.80769
 Alpha virt. eigenvalues --    0.82270   0.83398   0.83783   0.85269   0.87740
 Alpha virt. eigenvalues --    0.88434   0.89790   0.89996   0.90873   0.91213
 Alpha virt. eigenvalues --    0.92557   0.92908   0.94352   0.95282   0.96609
 Alpha virt. eigenvalues --    0.97886   0.98311   1.00596   1.02667   1.03741
 Alpha virt. eigenvalues --    1.04728   1.06724   1.07801   1.08514   1.09468
 Alpha virt. eigenvalues --    1.11747   1.12827   1.15019   1.15350   1.16041
 Alpha virt. eigenvalues --    1.16538   1.17236   1.18655   1.18780   1.20126
 Alpha virt. eigenvalues --    1.21340   1.22196   1.22911   1.23227   1.24000
 Alpha virt. eigenvalues --    1.24837   1.25023   1.25477   1.25882   1.27405
 Alpha virt. eigenvalues --    1.28045   1.29232   1.29811   1.30399   1.31274
 Alpha virt. eigenvalues --    1.32045   1.32244   1.33629   1.34693   1.35003
 Alpha virt. eigenvalues --    1.36042   1.36947   1.37388   1.38490   1.39863
 Alpha virt. eigenvalues --    1.41491   1.41888   1.42223   1.42598   1.44353
 Alpha virt. eigenvalues --    1.44599   1.45028   1.46094   1.47160   1.47733
 Alpha virt. eigenvalues --    1.48278   1.50471   1.51091   1.51916   1.53185
 Alpha virt. eigenvalues --    1.55327   1.56154   1.57251   1.59415   1.59927
 Alpha virt. eigenvalues --    1.61603   1.63221   1.65242   1.66484   1.67068
 Alpha virt. eigenvalues --    1.69235   1.72119   1.73443   1.73861   1.75658
 Alpha virt. eigenvalues --    1.76715   1.77489   1.78447   1.79143   1.80137
 Alpha virt. eigenvalues --    1.81971   1.82927   1.84069   1.85697   1.86401
 Alpha virt. eigenvalues --    1.87956   1.88182   1.89893   1.90059   1.93414
 Alpha virt. eigenvalues --    1.94156   1.96250   1.97139   1.98085   1.99510
 Alpha virt. eigenvalues --    2.01154   2.02860   2.03345   2.05108   2.05572
 Alpha virt. eigenvalues --    2.07295   2.08951   2.09939   2.10177   2.11968
 Alpha virt. eigenvalues --    2.14305   2.15989   2.17475   2.19946   2.21146
 Alpha virt. eigenvalues --    2.22076   2.22354   2.23000   2.24780   2.25437
 Alpha virt. eigenvalues --    2.25721   2.26804   2.28223   2.31390   2.32776
 Alpha virt. eigenvalues --    2.33077   2.34075   2.34769   2.36627   2.37217
 Alpha virt. eigenvalues --    2.38712   2.41010   2.42673   2.43197   2.45100
 Alpha virt. eigenvalues --    2.46322   2.48314   2.49434   2.53070   2.54287
 Alpha virt. eigenvalues --    2.54895   2.57167   2.66138   2.67000   2.69289
 Alpha virt. eigenvalues --    2.70286   2.70992   2.71960   2.74479   2.74798
 Alpha virt. eigenvalues --    2.77204   2.78405   2.80556   2.81780   2.84546
 Alpha virt. eigenvalues --    2.84972   2.85706   2.89218   2.90014   2.92704
 Alpha virt. eigenvalues --    2.93177   2.95385   2.97072   2.98572   3.00037
 Alpha virt. eigenvalues --    3.00234   3.01217   3.02897   3.06097   3.07652
 Alpha virt. eigenvalues --    3.09284   3.13439   3.16581   3.19699   3.20516
 Alpha virt. eigenvalues --    3.22742   3.23373   3.27794   3.28962   3.30967
 Alpha virt. eigenvalues --    3.31599   3.33032   3.35349   3.37343   3.38641
 Alpha virt. eigenvalues --    3.40758   3.44284   3.46178   3.46782   3.48019
 Alpha virt. eigenvalues --    3.49607   3.50482   3.51275   3.53788   3.54276
 Alpha virt. eigenvalues --    3.56501   3.57879   3.58853   3.61219   3.62171
 Alpha virt. eigenvalues --    3.62966   3.63604   3.64930   3.66602   3.67994
 Alpha virt. eigenvalues --    3.69602   3.70763   3.72043   3.80467   3.83282
 Alpha virt. eigenvalues --    3.85141   3.88757   3.90247   3.92080   3.96387
 Alpha virt. eigenvalues --    4.00757   4.02896   4.05396   4.14304   4.14996
 Alpha virt. eigenvalues --    4.16076   4.18128   4.20609   4.23468   4.36889
 Alpha virt. eigenvalues --    4.48267   4.52397   4.96120   4.99992   5.03139
 Alpha virt. eigenvalues --    5.06177   5.08808   5.11320   5.15119   5.18174
 Alpha virt. eigenvalues --    5.19085   5.19416   5.21684   5.24632   5.29699
 Alpha virt. eigenvalues --    5.31557   5.32533   5.36645   5.39302   5.43704
 Alpha virt. eigenvalues --    5.44827   5.47324   5.53530   5.55297   5.56871
 Alpha virt. eigenvalues --    5.61587   5.63136   5.63899   5.83972   6.00651
 Alpha virt. eigenvalues --    6.04198   6.81129   6.81274   6.82850   6.84670
 Alpha virt. eigenvalues --    6.85035   6.87923   6.88473   6.89018   6.91452
 Alpha virt. eigenvalues --    6.92622   6.93218   6.95083   6.97276   6.99775
 Alpha virt. eigenvalues --    7.00489   7.03123   7.05598   7.11247   7.19124
 Alpha virt. eigenvalues --    7.19987   7.24361   7.28605   7.33941   7.42216
 Alpha virt. eigenvalues --    7.43977   8.61781  17.76784  17.79674  17.87687
 Alpha virt. eigenvalues --   23.91021  23.95401  23.99716  24.03270  24.03881
 Alpha virt. eigenvalues --   24.10095  24.15968  35.59904  35.68041  50.07079
 Alpha virt. eigenvalues --   50.09263  50.10823  50.13028  50.20912 189.92169
          Condensed to atoms (all electrons):
               1          2          3          4          5          6
     1  C    5.899903   0.057772  -0.885167   0.549268   0.380256  -0.023606
     2  C    0.057772   5.947001  -0.204307  -0.078373  -0.001348   0.390881
     3  C   -0.885167  -0.204307   8.227491  -0.347712   0.017511   0.006809
     4  N    0.549268  -0.078373  -0.347712   6.353569  -0.044122   0.009855
     5  H    0.380256  -0.001348   0.017511  -0.044122   0.479735  -0.001284
     6  H   -0.023606   0.390881   0.006809   0.009855  -0.001284   0.478595
     7  H    0.023248   0.003347   0.325753  -0.010920  -0.000056  -0.000035
     8  C   -0.034890   0.012960  -0.295399   0.195522  -0.000844  -0.001003
     9  H   -0.009937   0.029458   0.022543  -0.064330   0.002467  -0.000027
    10  H    0.001549  -0.008907  -0.011947  -0.054016   0.000231   0.000010
    11  H   -0.011019   0.000007   0.006536  -0.020420  -0.000002   0.000013
    12  N    0.025045   0.259270   0.123846   0.040856   0.008606  -0.032174
    13  C    0.050672  -0.118315  -0.348286   0.033889  -0.000024   0.015352
    14  H    0.010629  -0.015964  -0.007339  -0.000914  -0.000013   0.000453
    15  H   -0.001693  -0.002730  -0.012583   0.006043   0.000012  -0.000125
    16  C    0.013179  -0.231192   0.305961  -0.067001   0.000356  -0.000998
    17  H    0.001122   0.007494  -0.005915   0.000039  -0.000001  -0.000322
    18  H   -0.005106   0.008886  -0.009547   0.000749   0.000019  -0.000020
    19  C   -0.103178   0.225378   0.127942   0.015799   0.000292  -0.002551
    20  H    0.000612   0.001029   0.000355   0.000077  -0.000001   0.000006
    21  H    0.000143  -0.002612  -0.000938  -0.000176   0.000000   0.000008
    22  S    0.095120  -0.103196  -0.204596  -0.020521   0.000586   0.001622
    23  O   -0.002980   0.021586  -0.050087   0.004751  -0.000015  -0.000027
    24  O    0.013578   0.015356  -0.077978   0.020114  -0.000626  -0.003678
    25  O    0.043346  -0.020113  -0.288237   0.086133  -0.000018  -0.000010
    26  O    0.001970  -0.004638  -0.010080  -0.000709   0.000000   0.000004
    27  H   -0.001161   0.000383   0.006928  -0.001406   0.000001  -0.000001
    28  H   -0.001175  -0.001683   0.024143  -0.007701   0.000003  -0.000000
    29  O    0.006064   0.005380  -0.065942   0.015475   0.000007   0.000000
    30  H   -0.004027  -0.009751   0.095153  -0.035271   0.000003   0.000004
    31  H   -0.001540  -0.000255   0.012929  -0.005781   0.000001  -0.000000
               7          8          9         10         11         12
     1  C    0.023248  -0.034890  -0.009937   0.001549  -0.011019   0.025045
     2  C    0.003347   0.012960   0.029458  -0.008907   0.000007   0.259270
     3  C    0.325753  -0.295399   0.022543  -0.011947   0.006536   0.123846
     4  N   -0.010920   0.195522  -0.064330  -0.054016  -0.020420   0.040856
     5  H   -0.000056  -0.000844   0.002467   0.000231  -0.000002   0.008606
     6  H   -0.000035  -0.001003  -0.000027   0.000010   0.000013  -0.032174
     7  H    0.429895   0.011386  -0.000097   0.000750   0.000313  -0.021780
     8  C    0.011386   5.350954   0.390009   0.443341   0.384133   0.006253
     9  H   -0.000097   0.390009   0.501152  -0.020441  -0.017485  -0.003695
    10  H    0.000750   0.443341  -0.020441   0.497762  -0.025250  -0.003533
    11  H    0.000313   0.384133  -0.017485  -0.025250   0.398292   0.006183
    12  N   -0.021780   0.006253  -0.003695  -0.003533   0.006183   6.249455
    13  C    0.001682  -0.000998   0.000794  -0.001381   0.001276   0.113670
    14  H    0.000526   0.000217  -0.000002  -0.000009   0.000003  -0.052372
    15  H    0.003412   0.001139   0.000000   0.000002   0.000002  -0.050643
    16  C   -0.006287  -0.011384   0.000118   0.000388  -0.000258   0.050767
    17  H    0.000015   0.000046  -0.000000  -0.000000   0.000000  -0.002038
    18  H    0.000164  -0.000132   0.000000  -0.000000   0.000002  -0.005103
    19  C   -0.005198  -0.000460  -0.000026  -0.000136  -0.000344   0.005124
    20  H   -0.000004   0.000031  -0.000000   0.000000  -0.000001   0.001517
    21  H    0.000108  -0.000020   0.000000   0.000000  -0.000001  -0.002902
    22  S    0.013278   0.012677  -0.001053   0.000912  -0.000584  -0.024565
    23  O    0.000632   0.003369  -0.000006   0.000002   0.000067  -0.013827
    24  O    0.002402   0.000361  -0.000043  -0.000184   0.000214   0.009907
    25  O   -0.013031  -0.001820   0.000110  -0.000703   0.002950   0.011411
    26  O    0.000261   0.005698  -0.000030  -0.000014  -0.000730   0.000388
    27  H   -0.000070  -0.000499  -0.000001   0.000004  -0.000148   0.000063
    28  H   -0.000200  -0.004410   0.000030   0.000068   0.000856  -0.000352
    29  O    0.001670  -0.008718   0.000372  -0.000252   0.008487   0.004537
    30  H    0.001619  -0.010051  -0.000050   0.000553  -0.001110   0.002461
    31  H   -0.000623   0.001444  -0.000019   0.000005   0.000030   0.000373
              13         14         15         16         17         18
     1  C    0.050672   0.010629  -0.001693   0.013179   0.001122  -0.005106
     2  C   -0.118315  -0.015964  -0.002730  -0.231192   0.007494   0.008886
     3  C   -0.348286  -0.007339  -0.012583   0.305961  -0.005915  -0.009547
     4  N    0.033889  -0.000914   0.006043  -0.067001   0.000039   0.000749
     5  H   -0.000024  -0.000013   0.000012   0.000356  -0.000001   0.000019
     6  H    0.015352   0.000453  -0.000125  -0.000998  -0.000322  -0.000020
     7  H    0.001682   0.000526   0.003412  -0.006287   0.000015   0.000164
     8  C   -0.000998   0.000217   0.001139  -0.011384   0.000046  -0.000132
     9  H    0.000794  -0.000002   0.000000   0.000118  -0.000000   0.000000
    10  H   -0.001381  -0.000009   0.000002   0.000388  -0.000000  -0.000000
    11  H    0.001276   0.000003   0.000002  -0.000258   0.000000   0.000002
    12  N    0.113670  -0.052372  -0.050643   0.050767  -0.002038  -0.005103
    13  C    6.346631   0.442565   0.453006  -0.609304  -0.019857  -0.038984
    14  H    0.442565   0.512822  -0.021508  -0.060301  -0.006540  -0.000118
    15  H    0.453006  -0.021508   0.453145  -0.035966   0.000334   0.003788
    16  C   -0.609304  -0.060301  -0.035966   6.999896   0.369902   0.452359
    17  H   -0.019857  -0.006540   0.000334   0.369902   0.527515  -0.028444
    18  H   -0.038984  -0.000118   0.003788   0.452359  -0.028444   0.483545
    19  C   -0.035314   0.006622  -0.014918  -0.828349  -0.004092  -0.047386
    20  H    0.017649  -0.000082  -0.000136  -0.076086  -0.004242  -0.004978
    21  H   -0.013028  -0.000100   0.002777  -0.023507  -0.005990   0.005114
    22  S   -0.015176   0.005322   0.009728   0.109482   0.002089   0.009020
    23  O    0.013096  -0.000045  -0.000191  -0.079766   0.000063   0.000110
    24  O    0.049754   0.001060   0.001037  -0.061767   0.001304  -0.004398
    25  O    0.075042   0.001933   0.002875  -0.012514   0.000217   0.002424
    26  O    0.003370   0.000000   0.000010  -0.000989  -0.000000   0.000020
    27  H   -0.000996  -0.000000  -0.000007  -0.000015   0.000000  -0.000011
    28  H   -0.001245  -0.000000  -0.000007   0.001480   0.000000  -0.000004
    29  O    0.014986   0.000027   0.000446  -0.014542  -0.000003   0.000053
    30  H   -0.018686  -0.000018  -0.000539   0.012414   0.000018  -0.000105
    31  H   -0.003463   0.000000   0.000006   0.003197  -0.000000  -0.000002
              19         20         21         22         23         24
     1  C   -0.103178   0.000612   0.000143   0.095120  -0.002980   0.013578
     2  C    0.225378   0.001029  -0.002612  -0.103196   0.021586   0.015356
     3  C    0.127942   0.000355  -0.000938  -0.204596  -0.050087  -0.077978
     4  N    0.015799   0.000077  -0.000176  -0.020521   0.004751   0.020114
     5  H    0.000292  -0.000001   0.000000   0.000586  -0.000015  -0.000626
     6  H   -0.002551   0.000006   0.000008   0.001622  -0.000027  -0.003678
     7  H   -0.005198  -0.000004   0.000108   0.013278   0.000632   0.002402
     8  C   -0.000460   0.000031  -0.000020   0.012677   0.003369   0.000361
     9  H   -0.000026  -0.000000   0.000000  -0.001053  -0.000006  -0.000043
    10  H   -0.000136   0.000000   0.000000   0.000912   0.000002  -0.000184
    11  H   -0.000344  -0.000001  -0.000001  -0.000584   0.000067   0.000214
    12  N    0.005124   0.001517  -0.002902  -0.024565  -0.013827   0.009907
    13  C   -0.035314   0.017649  -0.013028  -0.015176   0.013096   0.049754
    14  H    0.006622  -0.000082  -0.000100   0.005322  -0.000045   0.001060
    15  H   -0.014918  -0.000136   0.002777   0.009728  -0.000191   0.001037
    16  C   -0.828349  -0.076086  -0.023507   0.109482  -0.079766  -0.061767
    17  H   -0.004092  -0.004242  -0.005990   0.002089   0.000063   0.001304
    18  H   -0.047386  -0.004978   0.005114   0.009020   0.000110  -0.004398
    19  C    7.063193   0.453907   0.424680  -0.444654  -0.078543  -0.141424
    20  H    0.453907   0.465878  -0.027057  -0.054066   0.014422   0.003182
    21  H    0.424680  -0.027057   0.461355  -0.034495   0.004040  -0.003285
    22  S   -0.444654  -0.054066  -0.034495  14.435416   0.487262   0.383591
    23  O   -0.078543   0.014422   0.004040   0.487262   8.240219  -0.035371
    24  O   -0.141424   0.003182  -0.003285   0.383591  -0.035371   8.467993
    25  O   -0.142726  -0.001942   0.010370   0.149994  -0.085328  -0.013101
    26  O   -0.007922   0.000027   0.000024   0.013384  -0.019254  -0.008925
    27  H    0.007741   0.000003  -0.000017   0.020967   0.020592  -0.002988
    28  H   -0.000717  -0.000004   0.000011   0.016162   0.001694  -0.004671
    29  O   -0.002263   0.000027   0.000046  -0.059475   0.003476   0.003951
    30  H   -0.001330   0.000034  -0.000181   0.081937   0.002938  -0.009091
    31  H   -0.000180  -0.000000   0.000035   0.011104  -0.001580  -0.000337
              25         26         27         28         29         30
     1  C    0.043346   0.001970  -0.001161  -0.001175   0.006064  -0.004027
     2  C   -0.020113  -0.004638   0.000383  -0.001683   0.005380  -0.009751
     3  C   -0.288237  -0.010080   0.006928   0.024143  -0.065942   0.095153
     4  N    0.086133  -0.000709  -0.001406  -0.007701   0.015475  -0.035271
     5  H   -0.000018   0.000000   0.000001   0.000003   0.000007   0.000003
     6  H   -0.000010   0.000004  -0.000001  -0.000000   0.000000   0.000004
     7  H   -0.013031   0.000261  -0.000070  -0.000200   0.001670   0.001619
     8  C   -0.001820   0.005698  -0.000499  -0.004410  -0.008718  -0.010051
     9  H    0.000110  -0.000030  -0.000001   0.000030   0.000372  -0.000050
    10  H   -0.000703  -0.000014   0.000004   0.000068  -0.000252   0.000553
    11  H    0.002950  -0.000730  -0.000148   0.000856   0.008487  -0.001110
    12  N    0.011411   0.000388   0.000063  -0.000352   0.004537   0.002461
    13  C    0.075042   0.003370  -0.000996  -0.001245   0.014986  -0.018686
    14  H    0.001933   0.000000  -0.000000  -0.000000   0.000027  -0.000018
    15  H    0.002875   0.000010  -0.000007  -0.000007   0.000446  -0.000539
    16  C   -0.012514  -0.000989  -0.000015   0.001480  -0.014542   0.012414
    17  H    0.000217  -0.000000   0.000000   0.000000  -0.000003   0.000018
    18  H    0.002424   0.000020  -0.000011  -0.000004   0.000053  -0.000105
    19  C   -0.142726  -0.007922   0.007741  -0.000717  -0.002263  -0.001330
    20  H   -0.001942   0.000027   0.000003  -0.000004   0.000027   0.000034
    21  H    0.010370   0.000024  -0.000017   0.000011   0.000046  -0.000181
    22  S    0.149994   0.013384   0.020967   0.016162  -0.059475   0.081937
    23  O   -0.085328  -0.019254   0.020592   0.001694   0.003476   0.002938
    24  O   -0.013101  -0.008925  -0.002988  -0.004671   0.003951  -0.009091
    25  O    8.996803   0.009502  -0.001419  -0.005829   0.033333  -0.017976
    26  O    0.009502   7.997193   0.320946   0.291410   0.037642  -0.015874
    27  H   -0.001419   0.320946   0.353027  -0.023007  -0.005219   0.005864
    28  H   -0.005829   0.291410  -0.023007   0.396521  -0.035765   0.018460
    29  O    0.033333   0.037642  -0.005219  -0.035765   8.341241   0.162212
    30  H   -0.017976  -0.015874   0.005864   0.018460   0.162212   0.383198
    31  H   -0.003256  -0.013608   0.001108   0.005370   0.233438   0.002721
              31
     1  C   -0.001540
     2  C   -0.000255
     3  C    0.012929
     4  N   -0.005781
     5  H    0.000001
     6  H   -0.000000
     7  H   -0.000623
     8  C    0.001444
     9  H   -0.000019
    10  H    0.000005
    11  H    0.000030
    12  N    0.000373
    13  C   -0.003463
    14  H    0.000000
    15  H    0.000006
    16  C    0.003197
    17  H   -0.000000
    18  H   -0.000002
    19  C   -0.000180
    20  H   -0.000000
    21  H    0.000035
    22  S    0.011104
    23  O   -0.001580
    24  O   -0.000337
    25  O   -0.003256
    26  O   -0.013608
    27  H    0.001108
    28  H    0.005370
    29  O    0.233438
    30  H    0.002721
    31  H    0.461823
 Mulliken charges:
               1
     1  C   -0.087998
     2  C   -0.182806
     3  C   -0.477841
     4  N    0.427233
     5  H    0.158268
     6  H    0.162251
     7  H    0.237841
     8  C   -0.448912
     9  H    0.170187
    10  H    0.181196
    11  H    0.267988
    12  N    0.293250
    13  C   -0.408375
    14  H    0.183148
    15  H    0.203284
    16  C   -0.199275
    17  H    0.167284
    18  H    0.178084
    19  C   -0.468970
    20  H    0.209840
    21  H    0.205598
    22  S    1.102727
    23  O   -0.451299
    24  O   -0.605938
    25  O   -0.818421
    26  O   -0.599079
    27  H    0.299335
    28  H    0.330562
    29  O   -0.680691
    30  H    0.354470
    31  H    0.297061
 Sum of Mulliken charges =  -0.00000
 Mulliken charges with hydrogens summed into heavy atoms:
               1
     1  C    0.070270
     2  C   -0.020556
     3  C   -0.240000
     4  N    0.427233
     8  C    0.170459
    12  N    0.293250
    13  C   -0.021944
    16  C    0.146093
    19  C   -0.053532
    22  S    1.102727
    23  O   -0.451299
    24  O   -0.605938
    25  O   -0.818421
    26  O    0.030819
    29  O   -0.029160
         Mulliken charges condensed to fragments:
      1     -0.001659
      2      0.030819
      3     -0.029160
 Electronic spatial extent (au):  <R**2>=         146206.5692
 Charge=              0.0000 electrons
 Dipole moment (field-independent basis, Debye):
    X=              5.8004    Y=             -0.3887    Z=             10.8351  Tot=             12.2961
 Quadrupole moment (field-independent basis, Debye-Ang):
   XX=             20.2330   YY=            -90.5966   ZZ=            105.0833
   XY=             59.8039   XZ=            154.1471   YZ=            105.6769
 Traceless Quadrupole moment (field-independent basis, Debye-Ang):
   XX=              8.6598   YY=           -102.1698   ZZ=             93.5100
   XY=             59.8039   XZ=            154.1471   YZ=            105.6769
 Octapole moment (field-independent basis, Debye-Ang**2):
  XXX=          -1068.1618  YYY=          -2804.9637  ZZZ=            -62.8208  XYY=           -204.6779
  XXY=            233.8560  XXZ=           1082.2388  XZZ=           1424.4993  YZZ=            962.9723
  YYZ=            216.9873  XYZ=           1575.5159
 Hexadecapole moment (field-independent basis, Debye-Ang**3):
 XXXX=         -33443.8988 YYYY=         -60754.0361 ZZZZ=         -23823.8019 XXXY=         -10871.1604
 XXXZ=          -2564.0527 YYYX=         -20456.4012 YYYZ=         -16117.3679 ZZZX=           2344.4609
 ZZZY=          -2523.6984 XXYY=          -5906.4778 XXZZ=           8579.8774 YYZZ=            269.3203
 XXYZ=          11407.5130 YYXZ=           7965.2629 ZZXY=          13990.7007
 N-N= 1.346406424549D+03 E-N=-5.423737251176D+03  KE= 1.156198336164D+03
 No NMR shielding tensors so no spin-rotation constants.
 Leave Link  601 at Sun Feb 19 13:31:59 2023, MaxMem=  6710886400 cpu:               3.4 elap:               0.2
 (Enter /data0/home/software/g16/l122.exe)
 CPIOFr:  IOpCl= 0 IRwI=-1 IRwCP=  731 ICalc= -1 LCPTot=      398861 Len1MO=     1046995 IndFrg=      398861
 CPIOFr:  IOpCl= 0 IRwI=-1 IRwCP=  731 ICalc=  0 LCPTot=      398861 Len1MO=     1046995 IndFrg=     1445856
 Counterpoise: doing calculation for fragment   1 using the basis set of the full-system, NewBq=T
 Leave Link  122 at Sun Feb 19 13:31:59 2023, MaxMem=  6710886400 cpu:               0.4 elap:               0.0
 (Enter /data0/home/software/g16/l301.exe)
 Basis read from rwf:  (5D, 7F)
 No pseudopotential information found on rwf file.
   509 basis functions,   772 primitive gaussians,   539 cartesian basis functions
    54 alpha electrons       54 beta electrons
       nuclear repulsion energy      1042.4021704026 Hartrees.
 IExCor= 4336 DFT=T Ex+Corr=M062X ExCW=0 ScaHFX=  0.540000
 ScaDFX=  1.000000  1.000000  1.000000  1.000000 ScalE2=  1.000000  1.000000
 IRadAn=      5 IRanWt=     -1 IRanGd=            0 ICorTp=0 IEmpDi=131
 NAtoms=   31 NActive=   31 NUniq=   31 SFac= 1.00D+00 NAtFMM=   60 NAOKFM=F Big=F
 Integral buffers will be    131072 words long.
 Raffenetti 2 integral format.
 Two-electron integral symmetry is turned off.
 R6Disp:  Grimme-D3 Dispersion energy=       -0.0011950363 Hartrees.
 Nuclear repulsion after empirical dispersion term =     1042.4009753663 Hartrees.
 No density basis found on file   718.
 Leave Link  301 at Sun Feb 19 13:32:00 2023, MaxMem=  6710886400 cpu:               1.3 elap:               0.1
 (Enter /data0/home/software/g16/l302.exe)
 NPDir=0 NMtPBC=     1 NCelOv=     1 NCel=       1 NClECP=     1 NCelD=      1
         NCelK=      1 NCelE2=     1 NClLst=     1 CellRange=     0.0.
 One-electron integrals computed using PRISM.
 NBasis=   509 RedAO= T EigKep=  1.26D-05  NBF=   509
 NBsUse=   509 1.00D-06 EigRej= -1.00D+00 NBFU=   509
 Precomputing XC quadrature grid using
 IXCGrd= 4 IRadAn=           5 IRanWt=          -1 IRanGd=           0 AccXCQ= 0.00D+00.
 Generated NRdTot=       0 NPtTot=           0 NUsed=           0 NTot=          32
 NSgBfM=   539   539   539   539   539 MxSgAt=    31 MxSgA2=    31.
 Leave Link  302 at Sun Feb 19 13:32:00 2023, MaxMem=  6710886400 cpu:              12.0 elap:               0.5
 (Enter /data0/home/software/g16/l303.exe)
 DipDrv:  MaxL=1.
 Leave Link  303 at Sun Feb 19 13:32:00 2023, MaxMem=  6710886400 cpu:               1.2 elap:               0.1
 (Enter /data0/home/software/g16/l401.exe)
 ExpMin= 4.05D-02 ExpMax= 9.34D+04 ExpMxC= 3.17D+03 IAcc=3 IRadAn=         5 AccDes= 0.00D+00
 Harris functional with IExCor= 1009 and IRadAn=       5 diagonalized for initial guess.
 HarFok:  IExCor= 1009 AccDes= 0.00D+00 IRadAn=         5 IDoV= 1 UseB2=F ITyADJ=14
 ICtDFT=  3500011 ScaDFX=  1.000000  1.000000  1.000000  1.000000
 FoFCou: FMM=F IPFlag=           0 FMFlag=      100000 FMFlg1=           0
         NFxFlg=           0 DoJE=T BraDBF=F KetDBF=T FulRan=T
         wScrn=  0.000000 ICntrl=       500 IOpCl=  0 I1Cent=   200000004 NGrid=           0
         NMat0=    1 NMatS0=      1 NMatT0=    0 NMatD0=    1 NMtDS0=    0 NMtDT0=    0
 Symmetry not used in FoFCou.
 Harris En= -1006.80450239336    
 JPrj=0 DoOrth=F DoCkMO=F.
 Leave Link  401 at Sun Feb 19 13:32:02 2023, MaxMem=  6710886400 cpu:              48.8 elap:               2.1
 (Enter /data0/home/software/g16/l502.exe)
 Two-electron integral symmetry not used.
 Closed shell SCF:
 Using DIIS extrapolation, IDIIS=  1040.
 NGot=  6710886400 LenX=  6710288594 LenY=  6709997534
 Requested convergence on RMS density matrix=1.00D-08 within 128 cycles.
 Requested convergence on MAX density matrix=1.00D-06.
 Requested convergence on             energy=1.00D-06.
 No special actions if energy rises.
 Fock matrices will be formed incrementally for  20 cycles.

 Cycle   1  Pass 1  IDiag  1:
 FoFJK:  IHMeth= 1 ICntrl=       0 DoSepK=F KAlg= 0 I1Cent=           0 FoldK=F
 IRaf= 880000000 NMat=       1 IRICut=       1 DoRegI=T DoRafI=F ISym2E= 0 IDoP0=0 IntGTp=1.
 FoFCou: FMM=F IPFlag=           0 FMFlag=      100000 FMFlg1=           0
         NFxFlg=           0 DoJE=F BraDBF=F KetDBF=F FulRan=T
         wScrn=  0.000000 ICntrl=         0 IOpCl=  0 I1Cent=           0 NGrid=           0
         NMat0=    1 NMatS0=      1 NMatT0=    0 NMatD0=    1 NMtDS0=    0 NMtDT0=    0
 Symmetry not used in FoFCou.
 E= -1006.77434132292    
 DIIS: error= 1.68D-02 at cycle   1 NSaved=   1.
 NSaved= 1 IEnMin= 1 EnMin= -1006.77434132292     IErMin= 1 ErrMin= 1.68D-02
 ErrMax= 1.68D-02  0.00D+00 EMaxC= 1.00D-01 BMatC= 7.15D-01 BMatP= 7.15D-01
 IDIUse=3 WtCom= 8.32D-01 WtEn= 1.68D-01
 Coeff-Com:  0.100D+01
 Coeff-En:   0.100D+01
 Coeff:      0.100D+01
 Gap=     0.276 Goal=   None    Shift=    0.000
 GapD=    0.276 DampG=1.000 DampE=0.500 DampFc=0.5000 IDamp=-1.
 Damping current iteration by 5.00D-01
 RMSDP=4.59D-03 MaxDP=5.74D-01              OVMax= 1.84D-01

 Cycle   2  Pass 1  IDiag  1:
 RMSU=  2.29D-03    CP:  1.01D+00
 E= -1006.96675133932     Delta-E=       -0.192410016400 Rises=F Damp=T
 DIIS: error= 5.62D-03 at cycle   2 NSaved=   2.
 NSaved= 2 IEnMin= 2 EnMin= -1006.96675133932     IErMin= 2 ErrMin= 5.62D-03
 ErrMax= 5.62D-03  0.00D+00 EMaxC= 1.00D-01 BMatC= 5.02D-02 BMatP= 7.15D-01
 IDIUse=3 WtCom= 9.44D-01 WtEn= 5.62D-02
 Coeff-Com:  0.332D-01 0.967D+00
 Coeff-En:   0.116D+00 0.884D+00
 Coeff:      0.378D-01 0.962D+00
 Gap=     0.266 Goal=   None    Shift=    0.000
 RMSDP=1.91D-03 MaxDP=3.61D-01 DE=-1.92D-01 OVMax= 1.20D-01

 Cycle   3  Pass 1  IDiag  1:
 RMSU=  1.60D-03    CP:  9.21D-01  7.70D-01
 E= -1007.20107787780     Delta-E=       -0.234326538479 Rises=F Damp=F
 DIIS: error= 3.38D-03 at cycle   3 NSaved=   3.
 NSaved= 3 IEnMin= 3 EnMin= -1007.20107787780     IErMin= 3 ErrMin= 3.38D-03
 ErrMax= 3.38D-03  0.00D+00 EMaxC= 1.00D-01 BMatC= 1.85D-02 BMatP= 5.02D-02
 IDIUse=3 WtCom= 9.66D-01 WtEn= 3.38D-02
 Coeff-Com: -0.623D-01 0.347D+00 0.715D+00
 Coeff-En:   0.000D+00 0.000D+00 0.100D+01
 Coeff:     -0.602D-01 0.336D+00 0.725D+00
 Gap=     0.262 Goal=   None    Shift=    0.000
 RMSDP=4.66D-04 MaxDP=2.92D-02 DE=-2.34D-01 OVMax= 2.80D-02

 Cycle   4  Pass 1  IDiag  1:
 RMSU=  4.13D-04    CP:  9.20D-01  8.60D-01  9.62D-01
 E= -1007.21268695634     Delta-E=       -0.011609078549 Rises=F Damp=F
 DIIS: error= 1.90D-03 at cycle   4 NSaved=   4.
 NSaved= 4 IEnMin= 4 EnMin= -1007.21268695634     IErMin= 4 ErrMin= 1.90D-03
 ErrMax= 1.90D-03  0.00D+00 EMaxC= 1.00D-01 BMatC= 2.66D-03 BMatP= 1.85D-02
 IDIUse=3 WtCom= 9.81D-01 WtEn= 1.90D-02
 Coeff-Com: -0.282D-01 0.786D-01 0.337D+00 0.613D+00
 Coeff-En:   0.000D+00 0.000D+00 0.848D-01 0.915D+00
 Coeff:     -0.277D-01 0.771D-01 0.332D+00 0.619D+00
 Gap=     0.260 Goal=   None    Shift=    0.000
 RMSDP=1.71D-04 MaxDP=1.02D-02 DE=-1.16D-02 OVMax= 1.17D-02

 Cycle   5  Pass 1  IDiag  1:
 RMSU=  1.14D-04    CP:  9.19D-01  8.48D-01  9.80D-01  7.09D-01
 E= -1007.21508478984     Delta-E=       -0.002397833498 Rises=F Damp=F
 DIIS: error= 2.75D-04 at cycle   5 NSaved=   5.
 NSaved= 5 IEnMin= 5 EnMin= -1007.21508478984     IErMin= 5 ErrMin= 2.75D-04
 ErrMax= 2.75D-04  0.00D+00 EMaxC= 1.00D-01 BMatC= 8.09D-05 BMatP= 2.66D-03
 IDIUse=3 WtCom= 9.97D-01 WtEn= 2.75D-03
 Coeff-Com: -0.676D-02 0.123D-01 0.835D-01 0.226D+00 0.685D+00
 Coeff-En:   0.000D+00 0.000D+00 0.000D+00 0.000D+00 0.100D+01
 Coeff:     -0.674D-02 0.123D-01 0.833D-01 0.225D+00 0.686D+00
 Gap=     0.260 Goal=   None    Shift=    0.000
 RMSDP=5.47D-05 MaxDP=4.14D-03 DE=-2.40D-03 OVMax= 1.99D-03

 Cycle   6  Pass 1  IDiag  1:
 RMSU=  3.12D-05    CP:  9.19D-01  8.50D-01  9.84D-01  7.75D-01  7.04D-01
 E= -1007.21515116316     Delta-E=       -0.000066373315 Rises=F Damp=F
 DIIS: error= 8.91D-05 at cycle   6 NSaved=   6.
 NSaved= 6 IEnMin= 6 EnMin= -1007.21515116316     IErMin= 6 ErrMin= 8.91D-05
 ErrMax= 8.91D-05  0.00D+00 EMaxC= 1.00D-01 BMatC= 1.11D-05 BMatP= 8.09D-05
 IDIUse=1 WtCom= 1.00D+00 WtEn= 0.00D+00
 Coeff-Com: -0.116D-02 0.436D-03 0.153D-01 0.644D-01 0.326D+00 0.595D+00
 Coeff:     -0.116D-02 0.436D-03 0.153D-01 0.644D-01 0.326D+00 0.595D+00
 Gap=     0.260 Goal=   None    Shift=    0.000
 RMSDP=1.10D-05 MaxDP=1.26D-03 DE=-6.64D-05 OVMax= 8.91D-04

 Cycle   7  Pass 1  IDiag  1:
 RMSU=  8.87D-06    CP:  9.18D-01  8.49D-01  9.86D-01  7.78D-01  7.34D-01
                    CP:  9.36D-01
 E= -1007.21516012920     Delta-E=       -0.000008966043 Rises=F Damp=F
 DIIS: error= 3.42D-05 at cycle   7 NSaved=   7.
 NSaved= 7 IEnMin= 7 EnMin= -1007.21516012920     IErMin= 7 ErrMin= 3.42D-05
 ErrMax= 3.42D-05  0.00D+00 EMaxC= 1.00D-01 BMatC= 1.67D-06 BMatP= 1.11D-05
 IDIUse=1 WtCom= 1.00D+00 WtEn= 0.00D+00
 Coeff-Com:  0.510D-03-0.178D-02-0.632D-02-0.374D-02 0.555D-01 0.296D+00
 Coeff-Com:  0.660D+00
 Coeff:      0.510D-03-0.178D-02-0.632D-02-0.374D-02 0.555D-01 0.296D+00
 Coeff:      0.660D+00
 Gap=     0.261 Goal=   None    Shift=    0.000
 RMSDP=4.16D-06 MaxDP=2.82D-04 DE=-8.97D-06 OVMax= 3.25D-04

 Cycle   8  Pass 1  IDiag  1:
 RMSU=  3.33D-06    CP:  9.18D-01  8.48D-01  9.86D-01  7.80D-01  7.49D-01
                    CP:  9.72D-01  9.40D-01
 E= -1007.21516159773     Delta-E=       -0.000001468528 Rises=F Damp=F
 DIIS: error= 1.28D-05 at cycle   8 NSaved=   8.
 NSaved= 8 IEnMin= 8 EnMin= -1007.21516159773     IErMin= 8 ErrMin= 1.28D-05
 ErrMax= 1.28D-05  0.00D+00 EMaxC= 1.00D-01 BMatC= 1.45D-07 BMatP= 1.67D-06
 IDIUse=1 WtCom= 1.00D+00 WtEn= 0.00D+00
 Coeff-Com:  0.338D-03-0.699D-03-0.482D-02-0.104D-01-0.237D-01 0.313D-01
 Coeff-Com:  0.259D+00 0.749D+00
 Coeff:      0.338D-03-0.699D-03-0.482D-02-0.104D-01-0.237D-01 0.313D-01
 Coeff:      0.259D+00 0.749D+00
 Gap=     0.261 Goal=   None    Shift=    0.000
 RMSDP=1.78D-06 MaxDP=8.55D-05 DE=-1.47D-06 OVMax= 1.93D-04

 Cycle   9  Pass 1  IDiag  1:
 RMSU=  1.37D-06    CP:  9.18D-01  8.48D-01  9.86D-01  7.81D-01  7.57D-01
                    CP:  9.89D-01  9.73D-01  9.90D-01
 E= -1007.21516176196     Delta-E=       -0.000000164235 Rises=F Damp=F
 DIIS: error= 4.18D-06 at cycle   9 NSaved=   9.
 NSaved= 9 IEnMin= 9 EnMin= -1007.21516176196     IErMin= 9 ErrMin= 4.18D-06
 ErrMax= 4.18D-06  0.00D+00 EMaxC= 1.00D-01 BMatC= 1.48D-08 BMatP= 1.45D-07
 IDIUse=1 WtCom= 1.00D+00 WtEn= 0.00D+00
 Coeff-Com:  0.936D-04-0.145D-03-0.156D-02-0.408D-02-0.138D-01-0.906D-02
 Coeff-Com:  0.529D-01 0.299D+00 0.677D+00
 Coeff:      0.936D-04-0.145D-03-0.156D-02-0.408D-02-0.138D-01-0.906D-02
 Coeff:      0.529D-01 0.299D+00 0.677D+00
 Gap=     0.261 Goal=   None    Shift=    0.000
 RMSDP=6.25D-07 MaxDP=7.56D-05 DE=-1.64D-07 OVMax= 4.58D-05

 Cycle  10  Pass 1  IDiag  1:
 RMSU=  4.03D-07    CP:  9.18D-01  8.48D-01  9.86D-01  7.81D-01  7.55D-01
                    CP:  9.93D-01  9.97D-01  1.05D+00  9.24D-01
 E= -1007.21516177778     Delta-E=       -0.000000015820 Rises=F Damp=F
 DIIS: error= 1.23D-06 at cycle  10 NSaved=  10.
 NSaved=10 IEnMin=10 EnMin= -1007.21516177778     IErMin=10 ErrMin= 1.23D-06
 ErrMax= 1.23D-06  0.00D+00 EMaxC= 1.00D-01 BMatC= 1.91D-09 BMatP= 1.48D-08
 IDIUse=1 WtCom= 1.00D+00 WtEn= 0.00D+00
 Coeff-Com: -0.134D-04 0.430D-04 0.616D-04-0.165D-03-0.236D-02-0.835D-02
 Coeff-Com: -0.159D-01 0.130D-01 0.266D+00 0.747D+00
 Coeff:     -0.134D-04 0.430D-04 0.616D-04-0.165D-03-0.236D-02-0.835D-02
 Coeff:     -0.159D-01 0.130D-01 0.266D+00 0.747D+00
 Gap=     0.261 Goal=   None    Shift=    0.000
 RMSDP=2.09D-07 MaxDP=1.49D-05 DE=-1.58D-08 OVMax= 2.95D-05

 Cycle  11  Pass 1  IDiag  1:
 RMSU=  1.39D-07    CP:  9.18D-01  8.48D-01  9.86D-01  7.81D-01  7.56D-01
                    CP:  9.92D-01  9.99D-01  1.07D+00  1.01D+00  1.09D+00
 E= -1007.21516178016     Delta-E=       -0.000000002379 Rises=F Damp=F
 DIIS: error= 3.69D-07 at cycle  11 NSaved=  11.
 NSaved=11 IEnMin=11 EnMin= -1007.21516178016     IErMin=11 ErrMin= 3.69D-07
 ErrMax= 3.69D-07  0.00D+00 EMaxC= 1.00D-01 BMatC= 3.08D-10 BMatP= 1.91D-09
 IDIUse=1 WtCom= 1.00D+00 WtEn= 0.00D+00
 Coeff-Com: -0.167D-04 0.355D-04 0.227D-03 0.459D-03 0.902D-03-0.193D-02
 Coeff-Com: -0.133D-01-0.360D-01 0.861D-02 0.320D+00 0.721D+00
 Coeff:     -0.167D-04 0.355D-04 0.227D-03 0.459D-03 0.902D-03-0.193D-02
 Coeff:     -0.133D-01-0.360D-01 0.861D-02 0.320D+00 0.721D+00
 Gap=     0.261 Goal=   None    Shift=    0.000
 RMSDP=9.01D-08 MaxDP=6.52D-06 DE=-2.38D-09 OVMax= 6.24D-06

 Cycle  12  Pass 1  IDiag  1:
 RMSU=  5.33D-08    CP:  9.18D-01  8.48D-01  9.86D-01  7.81D-01  7.56D-01
                    CP:  9.92D-01  1.00D+00  1.08D+00  1.03D+00  1.17D+00
                    CP:  9.21D-01
 E= -1007.21516178050     Delta-E=       -0.000000000335 Rises=F Damp=F
 DIIS: error= 1.63D-07 at cycle  12 NSaved=  12.
 NSaved=12 IEnMin=12 EnMin= -1007.21516178050     IErMin=12 ErrMin= 1.63D-07
 ErrMax= 1.63D-07  0.00D+00 EMaxC= 1.00D-01 BMatC= 3.74D-11 BMatP= 3.08D-10
 IDIUse=1 WtCom= 1.00D+00 WtEn= 0.00D+00
 Coeff-Com: -0.581D-05 0.117D-04 0.959D-04 0.213D-03 0.588D-03-0.160D-03
 Coeff-Com: -0.451D-02-0.166D-01-0.212D-01 0.802D-01 0.328D+00 0.633D+00
 Coeff:     -0.581D-05 0.117D-04 0.959D-04 0.213D-03 0.588D-03-0.160D-03
 Coeff:     -0.451D-02-0.166D-01-0.212D-01 0.802D-01 0.328D+00 0.633D+00
 Gap=     0.261 Goal=   None    Shift=    0.000
 RMSDP=2.35D-08 MaxDP=1.99D-06 DE=-3.35D-10 OVMax= 1.76D-06

 Cycle  13  Pass 1  IDiag  1:
 RMSU=  1.78D-08    CP:  9.18D-01  8.48D-01  9.86D-01  7.81D-01  7.56D-01
                    CP:  9.91D-01  1.00D+00  1.08D+00  1.03D+00  1.19D+00
                    CP:  1.01D+00  9.22D-01
 E= -1007.21516178044     Delta-E=        0.000000000063 Rises=F Damp=F
 DIIS: error= 6.23D-08 at cycle  13 NSaved=  13.
 NSaved=13 IEnMin=12 EnMin= -1007.21516178050     IErMin=13 ErrMin= 6.23D-08
 ErrMax= 6.23D-08  0.00D+00 EMaxC= 1.00D-01 BMatC= 6.36D-12 BMatP= 3.74D-11
 IDIUse=1 WtCom= 1.00D+00 WtEn= 0.00D+00
 Coeff-Com:  0.439D-06-0.116D-05 0.526D-05 0.163D-04 0.117D-03 0.238D-03
 Coeff-Com:  0.212D-03-0.116D-02-0.122D-01-0.179D-01 0.278D-01 0.313D+00
 Coeff-Com:  0.690D+00
 Coeff:      0.439D-06-0.116D-05 0.526D-05 0.163D-04 0.117D-03 0.238D-03
 Coeff:      0.212D-03-0.116D-02-0.122D-01-0.179D-01 0.278D-01 0.313D+00
 Coeff:      0.690D+00
 Gap=     0.261 Goal=   None    Shift=    0.000
 RMSDP=1.11D-08 MaxDP=1.51D-06 DE= 6.28D-11 OVMax= 1.33D-06

 Cycle  14  Pass 1  IDiag  1:
 RMSU=  6.92D-09    CP:  9.18D-01  8.48D-01  9.86D-01  7.81D-01  7.56D-01
                    CP:  9.91D-01  1.00D+00  1.08D+00  1.03D+00  1.19D+00
                    CP:  1.02D+00  1.03D+00  9.07D-01
 E= -1007.21516178054     Delta-E=       -0.000000000102 Rises=F Damp=F
 DIIS: error= 1.56D-08 at cycle  14 NSaved=  14.
 NSaved=14 IEnMin=14 EnMin= -1007.21516178054     IErMin=14 ErrMin= 1.56D-08
 ErrMax= 1.56D-08  0.00D+00 EMaxC= 1.00D-01 BMatC= 3.78D-13 BMatP= 6.36D-12
 IDIUse=1 WtCom= 1.00D+00 WtEn= 0.00D+00
 Coeff-Com:  0.694D-06-0.152D-05-0.638D-05-0.125D-04-0.844D-05 0.942D-04
 Coeff-Com:  0.481D-03 0.113D-02-0.278D-02-0.143D-01-0.236D-01 0.404D-01
 Coeff-Com:  0.235D+00 0.764D+00
 Coeff:      0.694D-06-0.152D-05-0.638D-05-0.125D-04-0.844D-05 0.942D-04
 Coeff:      0.481D-03 0.113D-02-0.278D-02-0.143D-01-0.236D-01 0.404D-01
 Coeff:      0.235D+00 0.764D+00
 Gap=     0.261 Goal=   None    Shift=    0.000
 RMSDP=3.40D-09 MaxDP=1.65D-07 DE=-1.02D-10 OVMax= 2.53D-07

 SCF Done:  E(RM062X) =  -1007.21516178     A.U. after   14 cycles
            NFock= 14  Conv=0.34D-08     -V/T= 2.0035
 KE= 1.003721951939D+03 PE=-4.454827160314D+03 EE= 1.401489071229D+03
 Leave Link  502 at Sun Feb 19 13:33:40 2023, MaxMem=  6710886400 cpu:            2331.8 elap:              97.5
 (Enter /data0/home/software/g16/l601.exe)
 Copying SCF densities to generalized density rwf, IOpCl= 0 IROHF=0.

 **********************************************************************

            Population analysis using the SCF density.

 **********************************************************************

 Alpha  occ. eigenvalues --  -90.04227 -19.54878 -19.54857 -19.54703 -14.86590
 Alpha  occ. eigenvalues --  -14.85793 -10.67144 -10.62271 -10.62057 -10.61932
 Alpha  occ. eigenvalues --  -10.61624 -10.56296 -10.54571  -8.37666  -6.29938
 Alpha  occ. eigenvalues --   -6.29919  -6.29895  -1.19232  -1.18190  -1.08018
 Alpha  occ. eigenvalues --   -1.04727  -1.04069  -0.92527  -0.89581  -0.86082
 Alpha  occ. eigenvalues --   -0.81085  -0.74965  -0.72266  -0.70202  -0.65561
 Alpha  occ. eigenvalues --   -0.61962  -0.59830  -0.57869  -0.56707  -0.56619
 Alpha  occ. eigenvalues --   -0.55310  -0.53543  -0.52737  -0.50825  -0.50314
 Alpha  occ. eigenvalues --   -0.49524  -0.48580  -0.47331  -0.45752  -0.43777
 Alpha  occ. eigenvalues --   -0.41795  -0.38248  -0.36793  -0.36305  -0.33052
 Alpha  occ. eigenvalues --   -0.32388  -0.32028  -0.31361  -0.27930
 Alpha virt. eigenvalues --   -0.01877  -0.00348   0.00230   0.01292   0.01613
 Alpha virt. eigenvalues --    0.02396   0.02601   0.02854   0.03748   0.04835
 Alpha virt. eigenvalues --    0.05373   0.05768   0.06308   0.06577   0.07603
 Alpha virt. eigenvalues --    0.08075   0.09123   0.09399   0.10152   0.10562
 Alpha virt. eigenvalues --    0.10924   0.11359   0.11989   0.12501   0.12593
 Alpha virt. eigenvalues --    0.13202   0.14583   0.14917   0.15050   0.15354
 Alpha virt. eigenvalues --    0.15922   0.16611   0.16689   0.17109   0.17684
 Alpha virt. eigenvalues --    0.17998   0.18322   0.18615   0.18881   0.19101
 Alpha virt. eigenvalues --    0.19776   0.20099   0.20810   0.20963   0.21158
 Alpha virt. eigenvalues --    0.22118   0.22584   0.22705   0.23569   0.23694
 Alpha virt. eigenvalues --    0.24209   0.24608   0.25127   0.25742   0.25906
 Alpha virt. eigenvalues --    0.26568   0.26840   0.27149   0.28002   0.28277
 Alpha virt. eigenvalues --    0.29624   0.29749   0.30178   0.30910   0.31286
 Alpha virt. eigenvalues --    0.32317   0.32677   0.33226   0.34081   0.35125
 Alpha virt. eigenvalues --    0.35553   0.36605   0.37289   0.37540   0.37970
 Alpha virt. eigenvalues --    0.38905   0.39393   0.39809   0.40802   0.40866
 Alpha virt. eigenvalues --    0.41694   0.42312   0.43015   0.43389   0.43639
 Alpha virt. eigenvalues --    0.45153   0.45428   0.45831   0.46178   0.47296
 Alpha virt. eigenvalues --    0.47321   0.48079   0.48859   0.50129   0.50217
 Alpha virt. eigenvalues --    0.50950   0.51640   0.52424   0.53276   0.53416
 Alpha virt. eigenvalues --    0.56070   0.56754   0.58299   0.58637   0.58966
 Alpha virt. eigenvalues --    0.59793   0.61429   0.61718   0.62465   0.63396
 Alpha virt. eigenvalues --    0.63990   0.65084   0.65470   0.66200   0.66692
 Alpha virt. eigenvalues --    0.67925   0.68310   0.68338   0.69067   0.69965
 Alpha virt. eigenvalues --    0.70448   0.70885   0.72142   0.73425   0.74977
 Alpha virt. eigenvalues --    0.75245   0.75705   0.76822   0.77013   0.77285
 Alpha virt. eigenvalues --    0.79265   0.79625   0.80042   0.81169   0.82704
 Alpha virt. eigenvalues --    0.83001   0.83819   0.84921   0.85738   0.86250
 Alpha virt. eigenvalues --    0.88971   0.89358   0.90487   0.91297   0.91879
 Alpha virt. eigenvalues --    0.92434   0.93654   0.94042   0.94240   0.95280
 Alpha virt. eigenvalues --    0.96448   0.97840   0.98439   1.00079   1.00947
 Alpha virt. eigenvalues --    1.01945   1.02332   1.03282   1.04384   1.05437
 Alpha virt. eigenvalues --    1.06497   1.07875   1.09228   1.10232   1.11612
 Alpha virt. eigenvalues --    1.13961   1.14904   1.16265   1.17724   1.19343
 Alpha virt. eigenvalues --    1.19639   1.20745   1.21834   1.22950   1.23987
 Alpha virt. eigenvalues --    1.24419   1.25597   1.26217   1.26958   1.27580
 Alpha virt. eigenvalues --    1.27865   1.29994   1.31431   1.31885   1.33138
[...]
    15  H    0.000000
    16  C    0.000000
    17  H    0.000000
    18  H    0.000000
    19  C    0.000000
    20  H    0.000000
    21  H    0.000000
    22  S    0.000000
    23  O    0.000000
    24  O    0.000000
    25  O    0.000000
    26  O   -0.556693
    27  H    0.278889
    28  H    0.277804
    29  O    0.000000
    30  H    0.000000
    31  H    0.000000
 Sum of Mulliken charges =  -0.00000
 Mulliken charges with hydrogens summed into heavy atoms:
               1
     1  C    0.000000
     2  C    0.000000
     3  C    0.000000
     4  N    0.000000
     8  C    0.000000
    12  N    0.000000
    13  C    0.000000
    16  C    0.000000
    19  C    0.000000
    22  S    0.000000
    23  O    0.000000
    24  O    0.000000
    25  O    0.000000
    26  O   -0.000000
    29  O    0.000000
         Mulliken charges condensed to fragments:
      1      0.000000
      2     -0.000000
      3      0.000000
 Electronic spatial extent (au):  <R**2>=           7598.1177
 Charge=             -0.0000 electrons
 Dipole moment (field-independent basis, Debye):
    X=              0.9247    Y=              1.5107    Z=              1.1744  Tot=              2.1252
 Quadrupole moment (field-independent basis, Debye-Ang):
   XX=              7.3199   YY=             24.2266   ZZ=             11.9041
   XY=             21.1380   XZ=             13.9957   YZ=             23.5746
 Traceless Quadrupole moment (field-independent basis, Debye-Ang):
   XX=             -7.1636   YY=              9.7431   ZZ=             -2.5795
   XY=             21.1380   XZ=             13.9957   YZ=             23.5746
 Octapole moment (field-independent basis, Debye-Ang**2):
  XXX=             16.1083  YYY=            268.2153  ZZZ=             72.0765  XYY=            288.3834
  XXY=            164.8446  XXZ=             96.1473  XZZ=            117.0136  YZZ=            210.2380
  YYZ=            309.8430  XYZ=            231.9391
 Hexadecapole moment (field-independent basis, Debye-Ang**3):
 XXXX=           -439.5260 YYYY=           2224.9566 ZZZZ=            119.2774 XXXY=            856.0560
 XXXZ=            351.7945 YYYX=           3197.0187 YYYZ=           3357.3710 ZZZX=            678.1015
 ZZZY=           1414.4959 XXYY=           2269.3944 XXZZ=            735.1439 YYZZ=           2685.2542
 XXYZ=           1663.1971 YYXZ=           2929.4340 ZZXY=           1871.7212
 N-N= 9.064591854450D+00 E-N=-1.989741139020D+02  KE= 7.618094921219D+01
 No NMR shielding tensors so no spin-rotation constants.
 Leave Link  601 at Sun Feb 19 13:36:42 2023, MaxMem=  6710886400 cpu:               1.8 elap:               0.1
 (Enter /data0/home/software/g16/l122.exe)
 CPIOFr:  IOpCl= 0 IRwI=-1 IRwCP=  731 ICalc=  5 LCPTot=      398861 Len1MO=     1046995 IndFrg=     6680831
 Counterpoise: doing calculation for fragment   3 using the basis set of the fragment.
 Leave Link  122 at Sun Feb 19 13:36:42 2023, MaxMem=  6710886400 cpu:               0.2 elap:               0.0
 (Enter /data0/home/software/g16/l301.exe)
 Basis read from rwf:  (5D, 7F)
 No pseudopotential information found on rwf file.
    39 basis functions,    58 primitive gaussians,    41 cartesian basis functions
     5 alpha electrons        5 beta electrons
       nuclear repulsion energy         9.0606552722 Hartrees.
 IExCor= 4336 DFT=T Ex+Corr=M062X ExCW=0 ScaHFX=  0.540000
 ScaDFX=  1.000000  1.000000  1.000000  1.000000 ScalE2=  1.000000  1.000000
 IRadAn=      5 IRanWt=     -1 IRanGd=            0 ICorTp=0 IEmpDi=131
 NAtoms=   31 NActive=    3 NUniq=    3 SFac= 1.00D+00 NAtFMM=   60 NAOKFM=F Big=F
 Integral buffers will be    131072 words long.
 Raffenetti 2 integral format.
 Two-electron integral symmetry is turned off.
 R6Disp:  Grimme-D3 Dispersion energy=       -0.0000000082 Hartrees.
 Nuclear repulsion after empirical dispersion term =        9.0606552640 Hartrees.
 No density basis found on file   718.
 Leave Link  301 at Sun Feb 19 13:36:42 2023, MaxMem=  6710886400 cpu:               1.3 elap:               0.1
 (Enter /data0/home/software/g16/l302.exe)
 NPDir=0 NMtPBC=     1 NCelOv=     1 NCel=       1 NClECP=     1 NCelD=      1
         NCelK=      1 NCelE2=     1 NClLst=     1 CellRange=     0.0.
 One-electron integrals computed using PRISM.
 NBasis=    39 RedAO= T EigKep=  3.11D-03  NBF=    39
 NBsUse=    39 1.00D-06 EigRej= -1.00D+00 NBFU=    39
 Precomputing XC quadrature grid using
 IXCGrd= 4 IRadAn=           5 IRanWt=          -1 IRanGd=           0 AccXCQ= 0.00D+00.
 Generated NRdTot=       0 NPtTot=           0 NUsed=           0 NTot=          32
 NSgBfM=    41    41    41    41    41 MxSgAt=     3 MxSgA2=     3.
 Leave Link  302 at Sun Feb 19 13:36:42 2023, MaxMem=  6710886400 cpu:               2.3 elap:               0.1
 (Enter /data0/home/software/g16/l303.exe)
 DipDrv:  MaxL=1.
 Leave Link  303 at Sun Feb 19 13:36:42 2023, MaxMem=  6710886400 cpu:               0.4 elap:               0.0
 (Enter /data0/home/software/g16/l401.exe)
 ExpMin= 8.45D-02 ExpMax= 8.59D+03 ExpMxC= 1.30D+03 IAcc=3 IRadAn=         5 AccDes= 0.00D+00
 Harris functional with IExCor= 1009 and IRadAn=       5 diagonalized for initial guess.
 HarFok:  IExCor= 1009 AccDes= 0.00D+00 IRadAn=         5 IDoV= 1 UseB2=F ITyADJ=14
 ICtDFT=  3500011 ScaDFX=  1.000000  1.000000  1.000000  1.000000
 FoFCou: FMM=F IPFlag=           0 FMFlag=      100000 FMFlg1=           0
         NFxFlg=           0 DoJE=T BraDBF=F KetDBF=T FulRan=T
         wScrn=  0.000000 ICntrl=       500 IOpCl=  0 I1Cent=   200000004 NGrid=           0
         NMat0=    1 NMatS0=      1 NMatT0=    0 NMatD0=    1 NMtDS0=    0 NMtDT0=    0
 Symmetry not used in FoFCou.
 Harris En= -76.4155305986141    
 JPrj=0 DoOrth=F DoCkMO=F.
 Leave Link  401 at Sun Feb 19 13:36:42 2023, MaxMem=  6710886400 cpu:               2.9 elap:               0.1
 (Enter /data0/home/software/g16/l502.exe)
 Keep R1 ints in memory in canonical form, NReq=21042276.
 FoFCou: FMM=F IPFlag=           0 FMFlag=           0 FMFlg1=           0
         NFxFlg=           0 DoJE=F BraDBF=F KetDBF=F FulRan=T
         wScrn=  0.000000 ICntrl=       600 IOpCl=  0 I1Cent=           0 NGrid=           0
         NMat0=    1 NMatS0=    780 NMatT0=    0 NMatD0=    1 NMtDS0=    0 NMtDT0=    0
 Symmetry not used in FoFCou.
 Two-electron integral symmetry not used.
 Closed shell SCF:
 Using DIIS extrapolation, IDIIS=  1040.
 NGot=  6710886400 LenX=  6710576126 LenY=  6710574004
 Requested convergence on RMS density matrix=1.00D-08 within 128 cycles.
 Requested convergence on MAX density matrix=1.00D-06.
 Requested convergence on             energy=1.00D-06.
 No special actions if energy rises.
 Integral accuracy reduced to 1.0D-05 until final iterations.

 Cycle   1  Pass 0  IDiag  1:
 E= -76.3454980853925    
 DIIS: error= 6.99D-02 at cycle   1 NSaved=   1.
 NSaved= 1 IEnMin= 1 EnMin= -76.3454980853925     IErMin= 1 ErrMin= 6.99D-02
 ErrMax= 6.99D-02  0.00D+00 EMaxC= 1.00D-01 BMatC= 1.20D-01 BMatP= 1.20D-01
 IDIUse=3 WtCom= 3.01D-01 WtEn= 6.99D-01
 Coeff-Com:  0.100D+01
 Coeff-En:   0.100D+01
 Coeff:      0.100D+01
 Gap=     0.323 Goal=   None    Shift=    0.000
 GapD=    0.323 DampG=1.000 DampE=0.500 DampFc=0.5000 IDamp=-1.
 Damping current iteration by 5.00D-01
 RMSDP=7.90D-03 MaxDP=1.01D-01              OVMax= 1.68D-01

 Cycle   2  Pass 0  IDiag  1:
 E= -76.3767225024561     Delta-E=       -0.031224417064 Rises=F Damp=T
 DIIS: error= 1.10D-02 at cycle   2 NSaved=   2.
 NSaved= 2 IEnMin= 2 EnMin= -76.3767225024561     IErMin= 2 ErrMin= 1.10D-02
 ErrMax= 1.10D-02  0.00D+00 EMaxC= 1.00D-01 BMatC= 4.91D-03 BMatP= 1.20D-01
 IDIUse=3 WtCom= 8.90D-01 WtEn= 1.10D-01
 Coeff-Com:  0.846D-01 0.915D+00
 Coeff-En:   0.191D+00 0.809D+00
 Coeff:      0.963D-01 0.904D+00
 Gap=     0.456 Goal=   None    Shift=    0.000
 RMSDP=9.53D-04 MaxDP=1.42D-02 DE=-3.12D-02 OVMax= 1.01D-01

 Cycle   3  Pass 0  IDiag  1:
 E= -76.4207377253594     Delta-E=       -0.044015222903 Rises=F Damp=F
 DIIS: error= 2.22D-03 at cycle   3 NSaved=   3.
 NSaved= 3 IEnMin= 3 EnMin= -76.4207377253594     IErMin= 3 ErrMin= 2.22D-03
 ErrMax= 2.22D-03  0.00D+00 EMaxC= 1.00D-01 BMatC= 9.57D-05 BMatP= 4.91D-03
 IDIUse=3 WtCom= 9.78D-01 WtEn= 2.22D-02
 Coeff-Com: -0.202D-01 0.414D-01 0.979D+00
 Coeff-En:   0.000D+00 0.000D+00 0.100D+01
 Coeff:     -0.198D-01 0.405D-01 0.979D+00
 Gap=     0.460 Goal=   None    Shift=    0.000
 RMSDP=1.17D-04 MaxDP=1.11D-03 DE=-4.40D-02 OVMax= 3.39D-03

 Cycle   4  Pass 0  IDiag  1:
 E= -76.4208190950276     Delta-E=       -0.000081369668 Rises=F Damp=F
 DIIS: error= 4.23D-04 at cycle   4 NSaved=   4.
 NSaved= 4 IEnMin= 4 EnMin= -76.4208190950276     IErMin= 4 ErrMin= 4.23D-04
 ErrMax= 4.23D-04  0.00D+00 EMaxC= 1.00D-01 BMatC= 3.47D-06 BMatP= 9.57D-05
 IDIUse=3 WtCom= 9.96D-01 WtEn= 4.23D-03
 Coeff-Com: -0.207D-02-0.207D-02 0.166D+00 0.838D+00
 Coeff-En:   0.000D+00 0.000D+00 0.000D+00 0.100D+01
 Coeff:     -0.206D-02-0.206D-02 0.165D+00 0.839D+00
 Gap=     0.461 Goal=   None    Shift=    0.000
 RMSDP=2.25D-05 MaxDP=3.57D-04 DE=-8.14D-05 OVMax= 5.46D-04

 Cycle   5  Pass 0  IDiag  1:
 E= -76.4208212383724     Delta-E=       -0.000002143345 Rises=F Damp=F
 DIIS: error= 9.23D-05 at cycle   5 NSaved=   5.
 NSaved= 5 IEnMin= 5 EnMin= -76.4208212383724     IErMin= 5 ErrMin= 9.23D-05
 ErrMax= 9.23D-05  0.00D+00 EMaxC= 1.00D-01 BMatC= 8.84D-08 BMatP= 3.47D-06
 IDIUse=1 WtCom= 1.00D+00 WtEn= 0.00D+00
 Coeff-Com:  0.121D-02-0.185D-02-0.371D-01-0.713D-01 0.111D+01
 Coeff:      0.121D-02-0.185D-02-0.371D-01-0.713D-01 0.111D+01
 Gap=     0.461 Goal=   None    Shift=    0.000
 RMSDP=9.25D-06 MaxDP=1.05D-04 DE=-2.14D-06 OVMax= 2.10D-04

 Initial convergence to 1.0D-05 achieved.  Increase integral accuracy.
 Cycle   6  Pass 1  IDiag  1:
 E= -76.4208230803575     Delta-E=       -0.000001841985 Rises=F Damp=F
 DIIS: error= 2.47D-05 at cycle   1 NSaved=   1.
 NSaved= 1 IEnMin= 1 EnMin= -76.4208230803575     IErMin= 1 ErrMin= 2.47D-05
 ErrMax= 2.47D-05  0.00D+00 EMaxC= 1.00D-01 BMatC= 2.24D-08 BMatP= 2.24D-08
 IDIUse=1 WtCom= 1.00D+00 WtEn= 0.00D+00
 Coeff-Com:  0.100D+01
 Coeff:      0.100D+01
 Gap=     0.461 Goal=   None    Shift=    0.000
 RMSDP=9.25D-06 MaxDP=1.05D-04 DE=-1.84D-06 OVMax= 5.63D-05

 Cycle   7  Pass 1  IDiag  1:
 E= -76.4208230989485     Delta-E=       -0.000000018591 Rises=F Damp=F
 DIIS: error= 1.06D-05 at cycle   2 NSaved=   2.
 NSaved= 2 IEnMin= 2 EnMin= -76.4208230989485     IErMin= 2 ErrMin= 1.06D-05
 ErrMax= 1.06D-05  0.00D+00 EMaxC= 1.00D-01 BMatC= 1.65D-09 BMatP= 2.24D-08
 IDIUse=1 WtCom= 1.00D+00 WtEn= 0.00D+00
 Coeff-Com:  0.544D-01 0.946D+00
 Coeff:      0.544D-01 0.946D+00
 Gap=     0.461 Goal=   None    Shift=    0.000
 RMSDP=8.58D-07 MaxDP=1.34D-05 DE=-1.86D-08 OVMax= 2.34D-05

 Cycle   8  Pass 1  IDiag  1:
 E= -76.4208230992774     Delta-E=       -0.000000000329 Rises=F Damp=F
 DIIS: error= 7.78D-06 at cycle   3 NSaved=   3.
 NSaved= 3 IEnMin= 3 EnMin= -76.4208230992774     IErMin= 3 ErrMin= 7.78D-06
 ErrMax= 7.78D-06  0.00D+00 EMaxC= 1.00D-01 BMatC= 1.61D-09 BMatP= 1.65D-09
 IDIUse=1 WtCom= 1.00D+00 WtEn= 0.00D+00
 Coeff-Com: -0.447D-01 0.510D+00 0.535D+00
 Coeff:     -0.447D-01 0.510D+00 0.535D+00
 Gap=     0.461 Goal=   None    Shift=    0.000
 RMSDP=4.53D-07 MaxDP=6.12D-06 DE=-3.29D-10 OVMax= 1.10D-05

 Cycle   9  Pass 1  IDiag  1:
 E= -76.4208231003424     Delta-E=       -0.000000001065 Rises=F Damp=F
 DIIS: error= 8.40D-07 at cycle   4 NSaved=   4.
 NSaved= 4 IEnMin= 4 EnMin= -76.4208231003424     IErMin= 4 ErrMin= 8.40D-07
 ErrMax= 8.40D-07  0.00D+00 EMaxC= 1.00D-01 BMatC= 7.48D-12 BMatP= 1.61D-09
 IDIUse=1 WtCom= 1.00D+00 WtEn= 0.00D+00
 Coeff-Com: -0.374D-02-0.115D-01 0.255D-01 0.990D+00
 Coeff:     -0.374D-02-0.115D-01 0.255D-01 0.990D+00
 Gap=     0.461 Goal=   None    Shift=    0.000
 RMSDP=8.33D-08 MaxDP=6.54D-07 DE=-1.06D-09 OVMax= 1.82D-06

 Cycle  10  Pass 1  IDiag  1:
 E= -76.4208231003544     Delta-E=       -0.000000000012 Rises=F Damp=F
 DIIS: error= 1.32D-07 at cycle   5 NSaved=   5.
 NSaved= 5 IEnMin= 5 EnMin= -76.4208231003544     IErMin= 5 ErrMin= 1.32D-07
 ErrMax= 1.32D-07  0.00D+00 EMaxC= 1.00D-01 BMatC= 4.54D-13 BMatP= 7.48D-12
 IDIUse=1 WtCom= 1.00D+00 WtEn= 0.00D+00
 Coeff-Com:  0.319D-02-0.416D-01-0.379D-01 0.729D-01 0.100D+01
 Coeff:      0.319D-02-0.416D-01-0.379D-01 0.729D-01 0.100D+01
 Gap=     0.461 Goal=   None    Shift=    0.000
 RMSDP=2.82D-08 MaxDP=2.51D-07 DE=-1.21D-11 OVMax= 6.92D-07

 Cycle  11  Pass 1  IDiag  1:
 E= -76.4208231003555     Delta-E=       -0.000000000001 Rises=F Damp=F
 DIIS: error= 1.17D-08 at cycle   6 NSaved=   6.
 NSaved= 6 IEnMin= 6 EnMin= -76.4208231003555     IErMin= 6 ErrMin= 1.17D-08
 ErrMax= 1.17D-08  0.00D+00 EMaxC= 1.00D-01 BMatC= 3.76D-15 BMatP= 4.54D-13
 IDIUse=1 WtCom= 1.00D+00 WtEn= 0.00D+00
 Coeff-Com:  0.151D-04 0.675D-03 0.455D-03-0.144D-01-0.697D-01 0.108D+01
 Coeff:      0.151D-04 0.675D-03 0.455D-03-0.144D-01-0.697D-01 0.108D+01
 Gap=     0.461 Goal=   None    Shift=    0.000
 RMSDP=3.92D-09 MaxDP=3.18D-08 DE=-1.07D-12 OVMax= 8.17D-08

 SCF Done:  E(RM062X) =  -76.4208231004     A.U. after   11 cycles
            NFock= 11  Conv=0.39D-08     -V/T= 2.0032
 KE= 7.618020258727D+01 PE=-1.989665841417D+02 EE= 3.730490319011D+01
 Leave Link  502 at Sun Feb 19 13:36:43 2023, MaxMem=  6710886400 cpu:               8.8 elap:               0.4
 (Enter /data0/home/software/g16/l601.exe)
 Copying SCF densities to generalized density rwf, IOpCl= 0 IROHF=0.

 **********************************************************************

            Population analysis using the SCF density.

 **********************************************************************

 Alpha  occ. eigenvalues --  -19.62652  -1.13136  -0.60618  -0.47364  -0.39935
 Alpha virt. eigenvalues --    0.06139   0.13245   0.17408   0.17955   0.18952
 Alpha virt. eigenvalues --    0.23287   0.50005   0.53889   0.97839   1.00484
 Alpha virt. eigenvalues --    1.06018   1.18783   1.19712   1.32478   1.34106
 Alpha virt. eigenvalues --    1.69019   1.73593   1.75766   2.06153   2.10066
 Alpha virt. eigenvalues --    2.34925   2.41835   2.54139   2.87209   3.01188
 Alpha virt. eigenvalues --    5.05662   5.46526   5.91310   6.78236   6.80321
 Alpha virt. eigenvalues --    6.87083   6.91345   7.09949  49.95524
          Condensed to atoms (all electrons):
              29         30         31
    29  O    7.920415   0.315621   0.323310
    30  H    0.315621   0.425406  -0.024145
    31  H    0.323310  -0.024145   0.424607
 Mulliken charges:
               1
     1  C    0.000000
     2  C    0.000000
     3  C    0.000000
     4  N    0.000000
     5  H    0.000000
     6  H    0.000000
     7  H    0.000000
     8  C    0.000000
     9  H    0.000000
    10  H    0.000000
    11  H    0.000000
    12  N    0.000000
    13  C    0.000000
    14  H    0.000000
    15  H    0.000000
    16  C    0.000000
    17  H    0.000000
    18  H    0.000000
    19  C    0.000000
    20  H    0.000000
    21  H    0.000000
    22  S    0.000000
    23  O    0.000000
    24  O    0.000000
    25  O    0.000000
    26  O    0.000000
    27  H    0.000000
    28  H    0.000000
    29  O   -0.559346
    30  H    0.283118
    31  H    0.276229
 Sum of Mulliken charges =  -0.00000
 Mulliken charges with hydrogens summed into heavy atoms:
               1
     1  C    0.000000
     2  C    0.000000
     3  C    0.000000
     4  N    0.000000
     8  C    0.000000
    12  N    0.000000
    13  C    0.000000
    16  C    0.000000
    19  C    0.000000
    22  S    0.000000
    23  O    0.000000
    24  O    0.000000
    25  O    0.000000
    26  O    0.000000
    29  O   -0.000000
         Mulliken charges condensed to fragments:
      1      0.000000
      2      0.000000
      3     -0.000000
 Electronic spatial extent (au):  <R**2>=           9831.1170
 Charge=              0.0000 electrons
 Dipole moment (field-independent basis, Debye):
    X=              0.8282    Y=              1.9292    Z=             -0.2530  Tot=              2.1146
 Quadrupole moment (field-independent basis, Debye-Ang):
   XX=              6.5867   YY=             37.4099   ZZ=            -12.8568
   XY=             21.7109   XZ=              6.5473   YZ=             16.5641
 Traceless Quadrupole moment (field-independent basis, Debye-Ang):
   XX=             -3.7933   YY=             27.0300   ZZ=            -23.2367
   XY=             21.7109   XZ=              6.5473   YZ=             16.5641
 Octapole moment (field-independent basis, Debye-Ang**2):
  XXX=             21.5782  YYY=            531.0429  ZZZ=           -312.9758  XYY=            342.7393
  XXY=            154.2703  XXZ=             53.2003  XZZ=             -4.4537  YZZ=             50.7058
  YYZ=            343.8840  XYZ=            198.3219
 Hexadecapole moment (field-independent basis, Debye-Ang**3):
 XXXX=           -205.4835 YYYY=           6468.9747 ZZZZ=          -5825.0166 XXXY=            765.4990
 XXXZ=            118.6339 YYYX=           4509.0469 YYYZ=           4966.1976 ZZZX=          -1290.9516
 ZZZY=          -1554.4636 XXYY=           2355.7421 XXZZ=             48.0202 YYZZ=           2148.5444
 XXYZ=           1404.6513 YYXZ=           3218.3486 ZZXY=           1204.1776
 N-N= 9.060655263986D+00 E-N=-1.989665842051D+02  KE= 7.618020258727D+01
 No NMR shielding tensors so no spin-rotation constants.
 Leave Link  601 at Sun Feb 19 13:36:43 2023, MaxMem=  6710886400 cpu:               1.7 elap:               0.1
 (Enter /data0/home/software/g16/l122.exe)
 CPIOFr:  IOpCl= 0 IRwI=-1 IRwCP=  731 ICalc=  6 LCPTot=      398861 Len1MO=     1046995 IndFrg=     7727826
 Restoring MOs from calculation   1 to rwf.
 CPIOFr:  IOpCl= 0 IRwI=-2 IRwCP=  731 ICalc=  0 LCPTot=      398861 Len1MO=     1046995 IndFrg=     1445856
 Counterpoise corrected energy =   -1160.093285676911
                   BSSE energy =       0.002967843831
              sum of fragments =   -1160.057069095300
           complexation energy =     -24.59 kcal/mole (raw)
           complexation energy =     -22.73 kcal/mole (corrected)
 Leave Link  122 at Sun Feb 19 13:36:43 2023, MaxMem=  6710886400 cpu:               0.4 elap:               0.0
 (Enter /data0/home/software/g16/l9999.exe)
 1\1\GINC-LOCALHOST\SP\RM062X\6-311+G(2d,p)\C7H16N2O5S1\WUHANYU\19-Feb-
 2023\0\\#p M062X/6-311+G(2d,p) nosymm em=GD3 counterpoise=3\\Title Car
 d Required\\0,1\C,0,10.635749,8.308323,11.428991\C,0,11.648809,9.26019
 ,11.418389\C,0,9.692951,10.327859,11.741352\N,0,9.436633,8.98832,11.63
 2562\H,0,10.686906,7.239698,11.272076\H,0,12.70019,9.138157,11.247265\
 H,0,8.94435,11.113031,11.862163\C,0,8.10557,8.409136,11.624112\H,0,8.1
 32789,7.346635,11.295528\H,0,7.635536,8.468678,12.618194\H,0,7.451821,
 8.939376,10.885395\N,0,11.049246,10.505961,11.623857\C,0,11.721913,11.
 804598,11.544596\H,0,12.445425,11.873919,12.389833\H,0,10.962768,12.61
 5042,11.689885\C,0,12.46014,12.016393,10.201987\H,0,13.323012,12.69012
 2,10.384073\H,0,12.905313,11.054755,9.856351\C,0,11.589332,12.60847,9.
 096266\H,0,12.182124,12.751518,8.174532\H,0,11.217033,13.610724,9.3710
 88\S,0,10.183836,11.532708,8.744422\O,0,9.58356,11.855427,7.450546\O,0
 ,10.745595,10.162721,8.856735\O,0,9.264002,11.838116,9.898127\O,0,7.11
 1406,10.242216,7.385558\H,0,7.893805,10.781262,7.167611\H,0,6.851857,1
 0.554925,8.263571\O,0,6.711013,11.182545,10.144183\H,0,7.667157,11.442
 221,10.055757\H,0,6.23457,12.001537,10.09009\\Version=ES64L-G16RevA.03
 \HF=-76.4208231\RMSD=3.921e-09\Dipole=2.3275732,-0.083345,4.289895\Qua
 drupole=6.0899994,-74.7392082,68.6492088,46.3507258,115.7568319,80.261
 4798\PG=C01 [X(C7H16N2O5S1)]\\@


 It takes a long time to grow an old friend.
                            -- John Leonard
 Job cpu time:       0 days  2 hours 32 minutes 41.9 seconds.
 Elapsed time:       0 days  0 hours  6 minutes 24.1 seconds.
 File lengths (MBytes):  RWF=    217 Int=      0 D2E=      0 Chk=     74 Scr=      1
 Normal termination of Gaussian 16 at Sun Feb 19 13:36:43 2023.
