          46
 G =       -0.822673 Gcorr = 0.266007 a.u. Nimag =   0 Frame:     1 Step:     1 Geom:     1
C           3.63254800      7.79808800     10.86228900
H           3.52031500      7.52889200      9.79101000
H           2.65011800      7.71593200     11.34386500
H           4.30676300      7.03565100     11.31827700
C           5.50827800      9.24626900     10.21972400
H           5.26074300      9.35641800      9.13761200
H           6.01855500      8.24314400     10.29930900
C           4.42543900      9.46057300     12.46762500
H           5.28771700      8.86853700     12.86578700
H           4.64723600     10.52161400     12.64967400
H           3.54681400      9.17549500     13.06541100
C           3.23272600     10.17514800     10.45773300
H           2.29104800     10.17579000     11.02582100
H           3.65227300     11.19273800     10.46654400
H           2.98297300      9.92864800      9.39915700
C           6.46128100     10.36019600     10.66399300
H           6.87785000     10.14168000     11.67573100
H           5.92739500     11.32495800     10.75373400
C           7.60310900     10.50689600      9.66257200
H           8.17358100     11.43137300      9.86598300
H           7.22608300     10.61541600      8.63099400
N           4.21158100      9.17901800     11.01030400
S           8.76691600      9.11398600      9.71276700
O           9.26624800      9.05866200     11.09799900
O           7.90880600      7.92453400      9.38352700
O           9.74872100      9.42723100      8.66235500
P           7.43716800      6.35360900     12.47321700
O           6.14659500      7.05600300     12.50181200
O           8.68307400      7.15261000     13.02696700
H           8.95528200      7.90296200     12.32438500
O           7.37407500      5.08233700     13.43377500
H           8.30148400      4.62897300     13.39997700
O           7.83835500      5.73148500     11.07351800
H           7.85413800      6.50935000     10.35074200
O           3.39257100      8.50823500      7.83903100
H           4.31481200      8.17872800      7.70392500
H           2.94579300      8.30712400      7.02358400
O           5.92557400      7.60239300      7.51292200
H           6.62992300      7.60045300      8.19802100
H           6.39387400      7.84064200      6.69837300
O           9.98904500      8.71212600      6.06872500
H           9.94102200      8.85240100      7.05118200
H          10.43808500      9.49051900      5.75648200
O           7.41473000      8.29698300      5.25364400
H           7.53404800      7.52062100      4.71285300
H           8.32524700      8.50558000      5.56708600
          46
 G =       -0.819283 Gcorr = 0.268281 a.u. Nimag =   0 Frame:     2 Step:     2 Geom:     2
C           3.40666400      7.79189000     10.16695800
H           3.33137500      7.92981400      9.06620500
H           2.39885300      7.61196300     10.56254200
H           4.02234100      6.88131000     10.32700200
C           5.45396300      9.12121100     10.23795700
H           5.35743700      9.33956800      9.14831200
H           5.94082200      8.10635800     10.30572900
C           4.07891200      8.75801700     12.30034300
H           4.41044700      7.71741000     12.53657500
H           4.80775100      9.41634200     12.80683700
H           3.08978100      8.90325500     12.75263600
C           3.24487700     10.20954300     10.50894500
H           2.19756800     10.09492500     10.82713900
H           3.66511700     11.09944900     11.00438400
H           3.23882600     10.40684900      9.41465100
C           6.34212900     10.17692500     10.90430000
H           6.73210400      9.80531600     11.88188600
H           5.76770900     11.09200900     11.14096000
C           7.50820900     10.54258800      9.98910000
H           8.09061600     11.37055200     10.43544100
H           7.14854500     10.92727400      9.01877500
N           4.05521900      8.98569500     10.81875100
S           8.66273300      9.17654200      9.67088900
O           9.42350500      8.97963000     10.91588000
O           7.77215300      8.00381100      9.36315500
O           9.42948700      9.62119900      8.49505900
P           7.53906300      6.51572500     12.54519600
O           6.45223400      7.47231600     12.78639900
O           9.01227600      7.01135100     12.82256200
H           9.23516600      7.80153700     12.14122600
O           7.38730500      5.25889700     13.51540100
H           8.17942100      4.62581300     13.32172400
O           7.52178800      5.84745100     11.10470300
H           7.65251100      6.60242000     10.37648500
O           3.74438200      9.24957100      7.36930100
H           4.50219000      8.61367100      7.39938300
H           3.48772400      9.28246100      6.45530700
O           5.75069100      7.46217700      7.57538200
H           6.48621200      7.58531800      8.22127100
H           6.22354300      7.35706300      6.73259800
O           9.54153100      8.84555700      5.89811400
H           9.46419100      9.20196100      6.82219500
H          10.34822900      8.34025000      5.92450900
O           7.29044100      7.45711800      5.22577000
H           7.03994400      7.93679700      4.44439700
H           8.12402700      7.89311600      5.51768400
          46
 G =       -0.811240 Gcorr = 0.276292 a.u. Nimag =   0 Frame:     3 Step:     3 Geom:     3
C           3.50078100      7.90974000     11.01080200
H           3.41117900      7.42740700     10.01688600
H           2.49339900      8.00680000     11.43698000
H           4.08325600      7.21026200     11.64998400
C           5.50974100      9.04986000     10.17317100
H           5.29413800      8.85415200      9.09379900
H           5.97312000      8.10330400     10.55779900
C           4.40520800      9.78597700     12.28571900
H           5.18646400      9.19833700     12.82161500
H           4.74505400     10.83274500     12.26224900
H           3.48541000      9.73228500     12.88759500
C           3.30963000     10.18152400     10.13058800
H           2.35545200     10.36302400     10.64603800
H           3.80812500     11.14847600      9.95806200
H           3.07169900      9.75534600      9.12651500
C           6.48530200     10.22214400     10.32240200
H           6.93623600     10.22485700     11.34339000
H           5.96180100     11.19085800     10.21279600
C           7.59098400     10.13595800      9.27522400
H           8.16116500     11.08170000      9.24244400
H           7.17548400     10.01711200      8.25512300
N           4.18958200      9.24375900     10.90321900
S           8.76333500      8.78387000      9.58459700
O           9.14201800      8.89260100     11.00578100
O           7.94550400      7.55560300      9.31257800
O           9.83904100      9.01130200      8.60449400
P           7.45247400      6.25896500     12.61172400
O           6.21466600      7.03569200     12.73602000
O           8.79831800      6.99917900     12.98280100
H           8.97250700      7.77343100     12.27406800
O           7.42509600      5.03745600     13.63811000
H           8.31155000      4.52126400     13.52164100
O           7.66661200      5.53269100     11.21865800
H           7.76953400      6.25537800     10.45449400
O           3.35973700      8.17436100      7.73814100
H           4.30292400      7.91608000      7.61066600
H           2.91609500      7.85334600      6.96044900
O           5.98290300      7.53374300      7.39429500
H           6.66756400      7.34790800      8.08029200
H           6.42153000      8.14238000      6.78427000
O           9.94228100      8.98956500      5.93430400
H           9.97325600      8.83392700      6.91898000
H          10.51604300      9.74051300      5.81649700
O           7.27244800      9.42069300      5.75673200
H           7.09336200      9.22001700      4.84333900
H           8.24800200      9.28442500      5.84468700
          46
 G =       -0.821625 Gcorr = 0.268134 a.u. Nimag =   0 Frame:     4 Step:     4 Geom:     4
C           3.58911100      7.99013900     10.81262500
H           3.45138500      7.61100500      9.77771800
H           2.60781200      8.02488600     11.30180500
H           4.21309300      7.23665000     11.34814900
C           5.55941400      9.23827500     10.02885100
H           5.32176500      9.23059500      8.93886700
H           6.01623600      8.22843100     10.23325000
C           4.48685400      9.76482300     12.22915900
H           5.31589400      9.17275800     12.69392700
H           4.76500100     10.82597300     12.29614600
H           3.59530300      9.59258400     12.85030100
C           3.34601300     10.32550800     10.14041100
H           2.40535300     10.44920800     10.69764200
H           3.83017400     11.31001800     10.04230600
H           3.08475900      9.98171200      9.11575400
C           6.56411800     10.35054900     10.34889700
H           6.93049600     10.26107200     11.39903800
H           6.08695500     11.34585700     10.27165300
C           7.74910300     10.28574400      9.39067400
H           8.35556300     11.20658000      9.46620200
H           7.41505600     10.25023700      8.33543700
N           4.25811800      9.33670600     10.80982600
S           8.83058000      8.86812100      9.71229700
O           9.18567600      8.94210200     11.14196100
O           7.94450600      7.68724400      9.42075800
O           9.93732300      9.01846100      8.75407700
P           7.21311500      6.44613000     12.63298100
O           5.97874700      7.24081800     12.55873900
O           8.50029400      7.19393300     13.16016500
H           8.81288400      7.89995200     12.42502800
O           7.02526900      5.26563300     13.68870900
H           7.91491800      4.74200900     13.72092400
O           7.60291800      5.67976200     11.30286800
H           7.72488000      6.38980900     10.52315400
O           3.53259000      8.05708000      7.74436900
H           4.48425600      7.81325000      7.61617400
H           3.08086900      7.63594100      7.02141200
O           6.12739900      7.44882900      7.36988400
H           6.76329000      7.36437800      8.11887600
H           6.52354300      8.13146700      6.81163000
O           9.97971300      9.04750000      6.06999000
H          10.08328200      9.13808200      7.05684500
H          10.21794500      8.13750800      5.91169900
O           7.32707700      9.56172600      5.95148400
H           7.15077000      9.70610000      5.02941000
H           8.30058600      9.39487300      5.99795700
          46
 G =       -0.817330 Gcorr = 0.271712 a.u. Nimag =   0 Frame:     5 Step:     5 Geom:     5
C           3.55565100      8.05244100     10.78979300
H           3.50909500      7.64277800      9.76221500
H           2.52941500      8.14671300     11.16920500
H           4.08410500      7.29408500     11.40791900
C           5.60900800      9.21791400     10.09276100
H           5.41637200      9.22643700      8.99393300
H           6.01117300      8.18920100     10.31221000
C           4.46626900      9.78649300     12.24605300
H           5.24000400      9.15264800     12.74528200
H           4.80159900     10.83087200     12.32647600
H           3.53719600      9.67080200     12.82380300
C           3.44025500     10.39655100     10.10979200
H           2.48465300     10.56697100     10.62603300
H           3.97284400     11.35678200     10.02364800
H           3.20622900     10.05940700      9.07203500
C           6.64933500     10.28216900     10.46006900
H           7.03006900     10.11380200     11.49580300
H           6.19987400     11.29314000     10.45499100
C           7.81493200     10.24986000      9.47612600
H           8.46663400     11.12988900      9.62404200
H           7.46292700     10.32643200      8.42873800
N           4.27972300      9.37166900     10.81664300
S           8.83036600      8.75839100      9.64336300
O           9.28219200      8.72669300     11.04653300
O           7.85619200      7.65199300      9.34126900
O           9.88418600      8.90566900      8.62699800
P           7.24517200      6.34636700     12.58746200
O           6.11660700      7.28070500     12.67927700
O           8.66541100      6.89608000     13.00161900
H           8.95878300      7.64275900     12.29706400
O           7.01904900      5.13114400     13.59589000
H           7.83589400      4.50579800     13.50723000
O           7.39527700      5.61581100     11.18769500
H           7.57123900      6.33893900     10.43557600
O           3.53567500      8.57875000      7.55600000
H           4.44290100      8.19644800      7.45891200
H           3.09961100      8.37022100      6.73756300
O           6.04325000      7.61604700      7.25256700
H           6.66584100      7.45696100      8.00103700
H           6.48166900      8.30975400      6.73954800
O           9.93436300      9.17711900      5.96145000
H          10.04130300      9.17451900      6.95225600
H          10.13325700      8.27509700      5.72274200
O           7.30411100      9.78577800      5.98616000
H           7.10796200     10.02861200      5.08927500
H           8.27233000      9.58331100      5.98496400
          46
 G =       -0.809063 Gcorr = 0.251700 a.u. Nimag =   0 Frame:     6 Step:     6 Geom:     6
C           3.49815700      8.06504700     10.85076300
H           3.28154600      7.77329300      9.79947100
H           2.54971900      8.11522700     11.39975100
H           4.11442100      7.24882200     11.30850700
C           5.55711300      9.19717500     10.12243000
H           5.30862200      9.01439400      9.04255900
H           6.03384100      8.23146100     10.47601600
C           4.52951600      9.71844900     12.34680800
H           5.19231400      8.92830300     12.80269000
H           5.04264800     10.68253500     12.45976100
H           3.60715600      9.73782000     12.94457300
C           3.41747100     10.45713000     10.25978200
H           2.46610500     10.60705600     10.79092500
H           3.95278600     11.41853700     10.22347000
H           3.17099000     10.17472600      9.20593500
C           6.55322300     10.35228700     10.25793300
H           6.97013800     10.38355400     11.29129500
H           6.05062000     11.32804900     10.09481500
C           7.69192900     10.21090100      9.25636000
H           8.32056500     11.12452100      9.26982500
H           7.30165300     10.19432200      8.20602300
N           4.25702800      9.37611200     10.90149500
S           8.67773200      8.77707200      9.56745100
O           9.08778800      8.81038800     10.98959900
O           7.74756600      7.58713900      9.34629300
O           9.76410800      8.78606100      8.57476600
P           7.20721200      6.37140800     12.39123400
O           5.96776600      7.18757000     12.26008900
O           8.51493100      7.13618300     12.96557700
H           8.97584400      7.84748000     12.33475500
O           7.05650300      5.14419500     13.46386400
H           7.88413000      4.61477600     13.63694700
O           7.69938400      5.62308800     11.04733500
H           7.76570900      6.21775700     10.15614900
O           3.51926400      8.58798900      7.86864100
H           4.48177000      8.30017700      7.73980600
H           3.05640000      8.23786100      7.11556800
O           5.94034500      7.63373900      7.33603300
H           6.53405900      7.30315900      8.05622100
H           6.50940500      8.22291300      6.78787900
O          10.07396000      8.65674100      6.22529600
H          10.47230300      9.33698600      6.81410200
H          10.01435400      7.88142200      6.83283600
O           7.59127300      9.48839300      6.25447000
H           7.42262900      9.73705900      5.35439700
H           8.55801600      9.13073900      6.25952100
          46
 G =       -0.821604 Gcorr = 0.268155 a.u. Nimag =   0 Frame:     7 Step:     7 Geom:     7
C           3.60595000      8.07516200     10.76987500
H           3.43839600      7.75474900      9.71963500
H           2.63413200      8.12131800     11.27672100
H           4.20889300      7.27268500     11.25604500
C           5.61016300      9.28772700     10.01671900
H           5.35598900      9.34490900      8.93195800
H           6.03120500      8.25235200     10.16179400
C           4.59165300      9.74042800     12.25882800
H           5.40442100      9.09491400     12.67889800
H           4.91105900     10.78567100     12.37466400
H           3.70356100      9.57011200     12.88542400
C           3.44155800     10.44931200     10.22076700
H           2.51537300     10.58013100     10.80017000
H           3.96166600     11.41855700     10.16311500
H           3.15089400     10.16767100      9.18509500
C           6.66124200     10.34382500     10.37579000
H           7.04011000     10.18647100     11.41345800
H           6.22112400     11.35885200     10.35795400
C           7.82803700     10.28489300      9.39509400
H           8.47026400     11.17727100      9.50737300
H           7.47673400     10.31677800      8.34536900
N           4.32546400      9.39435200     10.82370500
S           8.85931700      8.81302400      9.62493500
O           9.23949600      8.80011200     11.05000100
O           7.92408300      7.68282800      9.28948000
O           9.95576200      8.97077800      8.65616000
P           7.19645000      6.30619400     12.44674100
O           5.99247700      7.14937400     12.43403300
O           8.51935900      6.97715600     12.98878600
H           8.84785700      7.70704100     12.28468800
O           6.97969900      5.08103800     13.44447200
H           7.84875300      4.52304100     13.43415100
O           7.53648700      5.59497600     11.07301600
H           7.67253800      6.33900400     10.32810500
O           3.50539900      8.30094700      7.71039600
H           4.44523600      8.02923000      7.55356200
H           3.02718900      7.93473200      6.97469600
O           6.06888300      7.61820500      7.25979600
H           6.71225700      7.47171800      7.99259600
H           6.48217700      8.31375300      6.73055800
O           9.96084000      9.14433600      5.97760000
H          10.08089500      9.17730100      6.96623400
H          10.16599700      8.23712100      5.76644900
O           7.32648200      9.75598500      5.93168200
H           7.14076500      9.95179600      5.02098600
H           8.29372600      9.55218900      5.95245000
          46
 G =       -0.809062 Gcorr = 0.251701 a.u. Nimag =   0 Frame:     8 Step:     8 Geom:     8
C           3.51666000      8.06445700     10.79695200
H           3.31423000      7.76835500      9.74406300
H           2.56255500      8.10122900     11.33710500
H           4.14055100      7.25788700     11.26149300
C           5.56560300      9.22593900     10.08672200
H           5.33016600      9.03838900      9.00473000
H           6.05302800      8.26774100     10.44597500
C           4.50914900      9.73476800     12.30049200
H           5.17867800      8.95478600     12.76396100
H           5.00760000     10.70613300     12.41699700
H           3.58080400      9.74207300     12.88915800
C           3.40642900     10.45435700     10.20191300
H           2.44798100     10.59099400     10.72382500
H           3.92792200     11.42346100     10.16926500
H           3.17410100     10.16698600      9.14619600
C           6.54333500     10.39569700     10.23038200
H           6.95003200     10.43397800     11.26758200
H           6.02805100     11.36385000     10.06159500
C           7.69330900     10.27014100      9.23965100
H           8.30799900     11.19313100      9.25760700
H           7.31319200     10.24626700      8.18576500
N           4.25562900      9.38662400     10.85311100
S           8.69761500      8.85173500      9.56210100
O           9.09276200      8.89197100     10.98806300
O           7.78763400      7.64760000      9.33260700
O           9.79340100      8.87623500      8.58009700
P           7.23522400      6.42842900     12.37554700
O           5.98473000      7.22521600     12.23086800
O           8.52445200      7.21426600     12.96387900
H           8.98241500      7.92999800     12.33715800
O           7.09235500      5.19981000     13.44759100
H           7.92584000      4.68230400     13.62850700
O           7.75363400      5.68774300     11.03766200
H           7.81900800      6.28319100     10.14595000
O           3.55808800      8.58406400      7.81475400
H           4.52582600      8.31002900      7.69566500
H           3.10764000      8.22629600      7.05774400
O           5.99756900      7.66404100      7.30656600
H           6.58935000      7.34355900      8.03294000
H           6.56294100      8.26081300      6.76282900
O          10.12427200      8.74242800      6.23333600
H          10.50800500      9.43070700      6.82248100
H          10.07014600      7.96900600      6.84347700
O           7.63076200      9.54140200      6.23778900
H           7.46722700      9.78564700      5.33544200
H           8.60210600      9.19628700      6.25243200
          46
 G =       -0.807171 Gcorr = 0.252213 a.u. Nimag =   0 Frame:     9 Step:     9 Geom:     9
C           3.48076400      8.04206300     10.68038700
H           3.29908100      7.89499200      9.59306100
H           2.51902800      7.99323100     11.20575200
H           4.10763100      7.18363300     11.03540000
C           5.50598200      9.32350000     10.13786000
H           5.24604900      9.34611500      9.04500400
H           5.99385900      8.31827900     10.31199500
C           4.46388900      9.48320500     12.41379400
H           5.15060100      8.65529000     12.75181100
H           4.94704900     10.43527400     12.67078900
H           3.54068500      9.38625800     13.00284400
C           3.33780900     10.49056700     10.44820200
H           2.37698100     10.53155300     10.98229000
H           3.84269600     11.46207800     10.56532400
H           3.11398300     10.36122500      9.36089200
C           6.49939900     10.44255500     10.46450500
H           6.93409800     10.29437900     11.48056300
H           5.99482300     11.42981200     10.48125200
C           7.61648000     10.47194600      9.42639300
H           8.19383600     11.41381800      9.51496700
H           7.18473600     10.51775300      8.39475800
N           4.20439800      9.34996200     10.93311200
S           8.68170500      9.06836600      9.57014800
O           8.98756900      8.87737500     11.00311900
O           7.84645100      7.87232100      9.08088100
O           9.81907800      9.28491400      8.67033600
P           7.21876300      6.22933900     11.98513000
O           5.96899100      7.03897900     11.94608100
O           8.49866700      6.90824300     12.71400700
H           8.95145400      7.72153000     12.22785600
O           7.06308600      4.84597100     12.84423700
H           7.89534600      4.30644500     12.95566300
O           7.75777800      5.71638000     10.55243600
H           7.82000800      6.44475000      9.76580200
O           3.54012100      8.95050500      7.75534700
H           4.49458900      8.85740300      7.44596300
H           3.00692300      8.78746800      6.98699100
O           6.16552600      8.84380900      7.21655600
H           6.61729100      8.18432900      7.82211400
H           6.54733200      8.61374500      6.33521300
O          10.37782300      8.64994000      6.39977200
H          10.13162100      9.53459100      6.72232500
H          10.72617100      8.21974100      7.20319400
O           7.99548900      7.47277600      6.33257400
H           8.16891400      7.17605900      7.24341600
H           8.85545400      7.86755000      6.02990200
          46
 G =       -0.807167 Gcorr = 0.252218 a.u. Nimag =   0 Frame:    10 Step:    10 Geom:    10
C           3.40818100      8.17622500     10.63112100
H           3.20263700      8.04346800      9.54621400
H           2.45425000      8.16090100     11.17253400
H           4.00733600      7.29198600     10.97030600
C           5.47172700      9.38263100     10.06146900
H           5.19427900      9.42376600      8.97346000
H           5.92306500      8.35801300     10.22011700
C           4.47520900      9.56695100     12.35604800
H           5.13569400      8.71143800     12.67731500
H           4.99804200     10.49845600     12.61059400
H           3.55912300      9.50057400     12.96030000
C           3.35568300     10.62981200     10.41620600
H           2.40653600     10.70427600     10.96730600
H           3.89962200     11.58039700     10.53018900
H           3.10830800     10.51615900      9.33232900
C           6.51341600     10.45978500     10.37855000
H           6.95920100     10.28726800     11.38596100
H           6.04809400     11.46572500     10.41076700
C           7.61300300     10.45345100      9.32150200
H           8.22707800     11.37225800      9.40540500
H           7.16588600     10.52202000      8.29773800
N           4.18584700      9.45359000     10.87927600
S           8.62659000      9.00976700      9.43912300
O           8.95063800      8.80014900     10.86577400
O           7.73870300      7.84873600      8.95919400
O           9.75534200      9.18829100      8.52035500
P           7.09418300      6.21362600     11.86201900
O           5.87589300      7.07067100     11.84819700
O           8.41154700      6.83988300     12.57027500
H           8.88539400      7.63941800     12.07964800
O           6.89993400      4.83268500     12.71710900
H           7.71083500      4.25754800     12.80571900
O           7.58828100      5.68703000     10.41782300
H           7.66807100      6.41657200      9.63454700
O           3.45390100      9.10030400      7.71125800
H           4.39790200      8.97011700      7.38447400
H           2.90100500      8.96652100      6.95114500
O           6.06438300      8.89413600      7.12933100
H           6.50037200      8.21318800      7.72224300
H           6.42407100      8.65865000      6.24043300
O          10.25635500      8.54976900      6.23805600
H          10.04850800      9.44080300      6.56986300
H          10.60081500      8.10143100      7.03301900
O           7.82943400      7.46602100      6.20464000
H           8.00607400      7.15673200      7.11089100
H           8.69955900      7.82881600      5.89018300
          46
 G =       -0.821255 Gcorr = 0.268010 a.u. Nimag =   0 Frame:    11 Step:    11 Geom:    11
C           3.56510500      8.20398800     10.80446700
H           3.39039900      7.84281300      9.76864600
H           2.59411300      8.30382400     11.30506100
H           4.14077800      7.40527700     11.32863400
C           5.60901800      9.31472300     10.00600100
H           5.35817000      9.33162700      8.91912500
H           5.99592100      8.27375900     10.20014700
C           4.59960000      9.90455800     12.22040500
H           5.39214700      9.25558600     12.67310300
H           4.94969400     10.94403200     12.28900300
H           3.70572300      9.78906700     12.85127000
C           3.47894100     10.55425500     10.14682600
H           2.55585700     10.74153800     10.71558900
H           4.03011100     11.50260600     10.04672000
H           3.18221700     10.23416800      9.12407600
C           6.69430000     10.35086800     10.31704600
H           7.06281900     10.23565500     11.36384100
H           6.29036400     11.37823100     10.24350700
C           7.86187900     10.19813000      9.34718900
H           8.52883800     11.07642800      9.40779800
H           7.51501700     10.17222800      8.29574700
N           4.32667100      9.50061600     10.80201700
S           8.85054800      8.71260300      9.67304000
O           9.21994600      8.77395300     11.09956500
O           7.88560600      7.59407300      9.39470300
O           9.95872300      8.79472100      8.70728700
P           7.08856700      6.41229800     12.60363800
O           5.90917000      7.28644300     12.52750600
O           8.42238100      7.07777700     13.12638800
H           8.77944300      7.75836700     12.38870100
O           6.82584000      5.25310400     13.66703900
H           7.67844600      4.67112000     13.69931400
O           7.42621600      5.61496700     11.27809400
H           7.58865000      6.31228100     10.49339700
O           3.49170300      8.29725000      7.72784100
H           4.42911900      8.01108100      7.58990400
H           3.01480700      7.90117600      7.00661800
O           6.06097700      7.56483100      7.33979400
H           6.68978400      7.39425000      8.07921900
H           6.53213700      8.19534200      6.77848100
O          10.07968700      8.80512300      6.03417000
H          10.08765500      8.63077200      7.01560000
H          10.73290700      9.49033200      5.93073700
O           7.46463900      9.50373300      5.85182100
H           7.27465400      9.38400900      4.92655700
H           8.42072400      9.26643100      5.93438900
          46
 G =       -0.822357 Gcorr = 0.265425 a.u. Nimag =   0 Frame:    12 Step:    12 Geom:    12
C           3.53175200      8.13605500     10.75820700
H           3.39306100      7.88669000      9.68540100
H           2.54556300      8.15623100     11.23879200
H           4.11841000      7.30225300     11.21022000
C           5.55311400      9.38482600     10.12823200
H           5.31871100      9.54379600      9.04696600
H           5.95338600      8.33320900     10.18946800
C           4.49013100      9.69791000     12.37478200
H           5.28708700      9.01932000     12.77180800
H           4.81704900     10.73033000     12.56272000
H           3.58579800      9.49865900     12.96896600
C           3.38597900     10.54080500     10.36233900
H           2.45128400     10.64377700     10.93296400
H           3.91253500     11.50759700     10.36814800
H           3.10910500     10.31926100      9.30558500
C           6.62143300     10.38199700     10.58840200