 Entering Gaussian System, Link 0=g16
 Initial command:
 /data0/home/software/g16/l1.exe "/data0/home/software/g16/scratch/Gau-274949.inp" -scrdir="/data0/home/software/g16/scratch/"
 Default is to use a total of  22 processors:
                               22 via shared-memory
                                1 via Linda
 Entering Link 1 = /data0/home/software/g16/l1.exe PID=    274950.
  
 Copyright (c) 1988,1990,1992,1993,1995,1998,2003,2009,2016,
            Gaussian, Inc.  All Rights Reserved.
  
 This is part of the Gaussian(R) 16 program.  It is based on
 the Gaussian(R) 09 system (copyright 2009, Gaussian, Inc.),
 the Gaussian(R) 03 system (copyright 2003, Gaussian, Inc.),
 the Gaussian(R) 98 system (copyright 1998, Gaussian, Inc.),
 the Gaussian(R) 94 system (copyright 1995, Gaussian, Inc.),
 the Gaussian 92(TM) system (copyright 1992, Gaussian, Inc.),
 the Gaussian 90(TM) system (copyright 1990, Gaussian, Inc.),
 the Gaussian 88(TM) system (copyright 1988, Gaussian, Inc.),
 the Gaussian 86(TM) system (copyright 1986, Carnegie Mellon
 University), and the Gaussian 82(TM) system (copyright 1983,
 Carnegie Mellon University). Gaussian is a federally registered
 trademark of Gaussian, Inc.
  
 This software contains proprietary and confidential information,
 including trade secrets, belonging to Gaussian, Inc.
  
 This software is provided under written license and may be
 used, copied, transmitted, or stored only in accord with that
 written license.
  
 The following legend is applicable only to US Government
 contracts under FAR:
  
                    RESTRICTED RIGHTS LEGEND
  
 Use, reproduction and disclosure by the US Government is
 subject to restrictions as set forth in subparagraphs (a)
 and (c) of the Commercial Computer Software - Restricted
 Rights clause in FAR 52.227-19.
  
 Gaussian, Inc.
 340 Quinnipiac St., Bldg. 40, Wallingford CT 06492
  
  
 ---------------------------------------------------------------
 Warning -- This program may not be used in any manner that
 competes with the business of Gaussian, Inc. or will provide
 assistance to any competitor of Gaussian, Inc.  The licensee
 of this program is prohibited from giving any competitor of
 Gaussian, Inc. access to this program.  By using this program,
 the user acknowledges that Gaussian, Inc. is engaged in the
 business of creating and licensing software in the field of
 computational chemistry and represents and warrants to the
 licensee that it is not a competitor of Gaussian, Inc. and that
 it will not use this program in any manner prohibited above.
 ---------------------------------------------------------------
  

 Cite this work as:
 Gaussian 16, Revision A.03,
 M. J. Frisch, G. W. Trucks, H. B. Schlegel, G. E. Scuseria, 
 M. A. Robb, J. R. Cheeseman, G. Scalmani, V. Barone, 
 G. A. Petersson, H. Nakatsuji, X. Li, M. Caricato, A. V. Marenich, 
 J. Bloino, B. G. Janesko, R. Gomperts, B. Mennucci, H. P. Hratchian, 
 J. V. Ortiz, A. F. Izmaylov, J. L. Sonnenberg, D. Williams-Young, 
 F. Ding, F. Lipparini, F. Egidi, J. Goings, B. Peng, A. Petrone, 
 T. Henderson, D. Ranasinghe, V. G. Zakrzewski, J. Gao, N. Rega, 
 G. Zheng, W. Liang, M. Hada, M. Ehara, K. Toyota, R. Fukuda, 
 J. Hasegawa, M. Ishida, T. Nakajima, Y. Honda, O. Kitao, H. Nakai, 
 T. Vreven, K. Throssell, J. A. Montgomery, Jr., J. E. Peralta, 
 F. Ogliaro, M. J. Bearpark, J. J. Heyd, E. N. Brothers, K. N. Kudin, 
 V. N. Staroverov, T. A. Keith, R. Kobayashi, J. Normand, 
 K. Raghavachari, A. P. Rendell, J. C. Burant, S. S. Iyengar, 
 J. Tomasi, M. Cossi, J. M. Millam, M. Klene, C. Adamo, R. Cammi, 
 J. W. Ochterski, R. L. Martin, K. Morokuma, O. Farkas, 
 J. B. Foresman, and D. J. Fox, Gaussian, Inc., Wallingford CT, 2016.
 
 ******************************************
 Gaussian 16:  ES64L-G16RevA.03 25-Dec-2016
                19-Feb-2023 
 ******************************************
 %nproc=24
 Will use up to   24 processors via shared memory.
 %mem=50GB
 ---------------------------------------------------
 #p M062X/6-311+G(2d,p) nosymm em=GD3 counterpoise=3
 ---------------------------------------------------
 1/38=1,62=3,172=1/1;
 2/12=2,15=1,17=6,18=5,40=1/2;
 1/38=1,53=2,62=3,63=1/22;
 3/5=4,6=6,7=112,11=2,25=1,30=1,74=-55,124=31/1,2,3;
 4//1;
 5/5=2,38=5/2;
 6/7=2,8=2,9=2,10=2,28=1/1;
 1/53=2,62=3,63=1/22;
 3/5=7,6=11,7=112,11=2,25=1,30=1,74=-55,82=7,124=31/1,2,3;
 4//1;
 5/5=2,38=5/2;
 6/7=2,8=2,9=2,10=2,28=1/1;
 1/53=2,62=3,63=1/22(-4);
 99/5=1,9=1/99;
 Leave Link    1 at Sun Feb 19 11:52:52 2023, MaxMem=  6710886400 cpu:               0.7 elap:               0.0
 (Enter /data0/home/software/g16/l101.exe)
 -------------------
 Title Card Required
 -------------------
 Symbolic Z-matrix:
 Charge =  0 Multiplicity = 1 in supermolecule
 Charge =  0 Multiplicity = 1 in fragment      1.
 Charge =  0 Multiplicity = 1 in fragment      2.
 Charge =  0 Multiplicity = 1 in fragment      3.
 P                     8.59552   15.97871   4.52291    
 O                     7.46624   16.83589   4.14443    
 O                     8.88148   16.08257   6.08445    
 H                     9.70111   15.49494   6.29624    
 O                     8.45093   14.4355   4.19967    
 H                     7.43064   14.16051   4.2746     
 O                     10.02143   16.31472   3.90728    
 H                     9.92641   16.40717   2.86963    
 O                     9.64811   16.75065   1.10574    
 H                     8.99144   17.46704   1.20731    
 H                     9.15298   16.02305   0.73098    
 O                     7.6833    18.5973   1.7891     
 H                     7.44113   18.04443   2.55279    
 H                     8.10762   19.36038   2.18212    
 
 ITRead=  0  0  0  0  0  0  0  0  0  0  0  0  0  0
 MicOpt= -1 -1 -1 -1 -1 -1 -1 -1 -1 -1 -1 -1 -1 -1
 NAtoms=     14 NQM=       14 NQMF=       0 NMMI=      0 NMMIF=      0
                NMic=       0 NMicF=      0.
                    Isotopes and Nuclear Properties:
 (Nuclear quadrupole moments (NQMom) in fm**2, nuclear magnetic moments (NMagM)
  in nuclear magnetons)

  Atom         1           2           3           4           5           6           7           8           9          10
 IAtWgt=          31          16          16           1          16           1          16           1          16           1
 AtmWgt=  30.9737634  15.9949146  15.9949146   1.0078250  15.9949146   1.0078250  15.9949146   1.0078250  15.9949146   1.0078250
 NucSpn=           1           0           0           1           0           1           0           1           0           1
 AtZEff=  -0.0000000  -0.0000000  -0.0000000  -0.0000000  -0.0000000  -0.0000000  -0.0000000  -0.0000000  -0.0000000  -0.0000000
 NQMom=    0.0000000   0.0000000   0.0000000   0.0000000   0.0000000   0.0000000   0.0000000   0.0000000   0.0000000   0.0000000
 NMagM=    1.1316000   0.0000000   0.0000000   2.7928460   0.0000000   2.7928460   0.0000000   2.7928460   0.0000000   2.7928460
 AtZNuc=  15.0000000   8.0000000   8.0000000   1.0000000   8.0000000   1.0000000   8.0000000   1.0000000   8.0000000   1.0000000

  Atom        11          12          13          14
 IAtWgt=           1          16           1           1
 AtmWgt=   1.0078250  15.9949146   1.0078250   1.0078250
 NucSpn=           1           0           1           1
 AtZEff=  -0.0000000  -0.0000000  -0.0000000  -0.0000000
 NQMom=    0.0000000   0.0000000   0.0000000   0.0000000
 NMagM=    2.7928460   0.0000000   2.7928460   2.7928460
 AtZNuc=   1.0000000   8.0000000   1.0000000   1.0000000
 Leave Link  101 at Sun Feb 19 11:52:52 2023, MaxMem=  6710886400 cpu:               2.0 elap:               0.1
 (Enter /data0/home/software/g16/l202.exe)
                          Input orientation:                          
 ---------------------------------------------------------------------
 Center     Atomic      Atomic             Coordinates (Angstroms)
 Number     Number       Type             X           Y           Z
 ---------------------------------------------------------------------
      1         15           0        8.595521   15.978707    4.522913
      2          8           0        7.466244   16.835888    4.144430
      3          8           0        8.881480   16.082574    6.084449
      4          1           0        9.701112   15.494940    6.296244
      5          8           0        8.450927   14.435502    4.199672
      6          1           0        7.430636   14.160514    4.274597
      7          8           0       10.021433   16.314721    3.907277
      8          1           0        9.926409   16.407170    2.869625
      9          8           0        9.648108   16.750654    1.105737
     10          1           0        8.991440   17.467037    1.207307
     11          1           0        9.152977   16.023055    0.730977
     12          8           0        7.683302   18.597301    1.789101
     13          1           0        7.441129   18.044428    2.552790
     14          1           0        8.107622   19.360382    2.182124
 ---------------------------------------------------------------------
                    Distance matrix (angstroms):
                    1          2          3          4          5
     1  P    0.000000
     2  O    1.467404   0.000000
     3  O    1.590898   2.516754   0.000000
     4  H    2.145009   3.379805   1.030518   0.000000
     5  O    1.583311   2.595093   2.539804   2.661012   0.000000
     6  H    2.173579   2.678775   3.012445   3.320062   1.059352
     7  O    1.589068   2.618558   2.468494   2.545940   2.466465
     8  H    2.165226   2.803808   3.395929   3.553117   2.798847
     9  O    3.657996   3.741851   5.081498   5.340505   4.045442
    10  H    3.655834   3.369164   5.071030   5.503642   4.293787
    11  H    3.832950   3.893254   5.360682   5.617077   3.878794
    12  O    3.893958   2.949113   5.119521   5.831856   4.870387
    13  H    3.079157   1.998629   4.289067   5.061705   4.093441
    14  H    4.141626   3.261147   5.154709   5.865734   5.333179
                    6          7          8          9         10
     6  H    0.000000
     7  O    3.389360   0.000000
     8  H    3.640095   1.046087   0.000000
     9  O    4.654856   2.859726   1.818443   0.000000
    10  H    4.772575   3.111038   2.181923   0.977105   0.000000
    11  H    4.358068   3.305778   2.306416   0.956556   1.529074
    12  O    5.091818   3.894059   3.315982   2.781646   1.824063
    13  H    4.248472   3.388877   2.992927   2.939144   2.132409
    14  H    5.645829   3.989345   3.535832   3.215958   2.305679
                   11         12         13         14
    11  H    0.000000
    12  O    3.147430   0.000000
    13  H    3.214868   0.973415   0.000000
    14  H    3.786337   0.957500   1.520967   0.000000
 Symmetry turned off by external request.
 Stoichiometry    H7O6P
 Framework group  C1[X(H7O6P)]
 Deg. of freedom    36
 Full point group                 C1      NOp   1
 Rotational constants (GHZ):           2.7362078           1.1307331           0.9806013
 Leave Link  202 at Sun Feb 19 11:52:52 2023, MaxMem=  6710886400 cpu:               0.1 elap:               0.0
 (Enter /data0/home/software/g16/l122.exe)
 Counterpoise: doing full-system calculation.
 Leave Link  122 at Sun Feb 19 11:52:52 2023, MaxMem=  6710886400 cpu:               0.0 elap:               0.0
 (Enter /data0/home/software/g16/l301.exe)
 Standard basis: 6-311+G(2d,p) (5D, 7F)
 Ernie: Thresh=  0.10000D-02 Tol=  0.10000D-05 Strict=F.
   239 basis functions,   364 primitive gaussians,   253 cartesian basis functions
    35 alpha electrons       35 beta electrons
       nuclear repulsion energy       456.3530662323 Hartrees.
 IExCor= 4336 DFT=T Ex+Corr=M062X ExCW=0 ScaHFX=  0.540000
 ScaDFX=  1.000000  1.000000  1.000000  1.000000 ScalE2=  1.000000  1.000000
 IRadAn=      5 IRanWt=     -1 IRanGd=            0 ICorTp=0 IEmpDi=131
 NAtoms=   14 NActive=   14 NUniq=   14 SFac= 1.00D+00 NAtFMM=   60 NAOKFM=F Big=F
 Integral buffers will be    131072 words long.
 Raffenetti 2 integral format.
 Two-electron integral symmetry is turned off.
 R6Disp:  Grimme-D3 Dispersion energy=       -0.0003451877 Hartrees.
 Nuclear repulsion after empirical dispersion term =      456.3527210446 Hartrees.
 Leave Link  301 at Sun Feb 19 11:52:52 2023, MaxMem=  6710886400 cpu:               1.1 elap:               0.1
 (Enter /data0/home/software/g16/l302.exe)
 NPDir=0 NMtPBC=     1 NCelOv=     1 NCel=       1 NClECP=     1 NCelD=      1
         NCelK=      1 NCelE2=     1 NClLst=     1 CellRange=     0.0.
 One-electron integrals computed using PRISM.
 NBasis=   239 RedAO= T EigKep=  3.49D-04  NBF=   239
 NBsUse=   239 1.00D-06 EigRej= -1.00D+00 NBFU=   239
 Precomputing XC quadrature grid using
 IXCGrd= 4 IRadAn=           5 IRanWt=          -1 IRanGd=           0 AccXCQ= 0.00D+00.
 Generated NRdTot=       0 NPtTot=           0 NUsed=           0 NTot=          32
 NSgBfM=   253   253   253   253   253 MxSgAt=    14 MxSgA2=    14.
 Leave Link  302 at Sun Feb 19 11:52:53 2023, MaxMem=  6710886400 cpu:               3.6 elap:               0.2
 (Enter /data0/home/software/g16/l303.exe)
 DipDrv:  MaxL=1.
 Leave Link  303 at Sun Feb 19 11:52:53 2023, MaxMem=  6710886400 cpu:               0.6 elap:               0.0
 (Enter /data0/home/software/g16/l401.exe)
 ExpMin= 3.48D-02 ExpMax= 7.75D+04 ExpMxC= 2.65D+03 IAcc=3 IRadAn=         5 AccDes= 0.00D+00
 Harris functional with IExCor= 1009 and IRadAn=       5 diagonalized for initial guess.
 HarFok:  IExCor= 1009 AccDes= 0.00D+00 IRadAn=         5 IDoV= 1 UseB2=F ITyADJ=14
 ICtDFT=  3500011 ScaDFX=  1.000000  1.000000  1.000000  1.000000
 FoFCou: FMM=F IPFlag=           0 FMFlag=      100000 FMFlg1=           0
         NFxFlg=           0 DoJE=T BraDBF=F KetDBF=T FulRan=T
         wScrn=  0.000000 ICntrl=       500 IOpCl=  0 I1Cent=   200000004 NGrid=           0
         NMat0=    1 NMatS0=      1 NMatT0=    0 NMatD0=    1 NMtDS0=    0 NMtDT0=    0
 Symmetry not used in FoFCou.
 Harris En= -796.783503808665    
 JPrj=0 DoOrth=F DoCkMO=F.
 Leave Link  401 at Sun Feb 19 11:52:53 2023, MaxMem=  6710886400 cpu:              10.7 elap:               0.5
 (Enter /data0/home/software/g16/l502.exe)
 Two-electron integral symmetry not used.
 Closed shell SCF:
 Using DIIS extrapolation, IDIIS=  1040.
 NGot=  6710886400 LenX=  6710750439 LenY=  6710685989
 Requested convergence on RMS density matrix=1.00D-08 within 128 cycles.
 Requested convergence on MAX density matrix=1.00D-06.
 Requested convergence on             energy=1.00D-06.
 No special actions if energy rises.
 Fock matrices will be formed incrementally for  20 cycles.

 Cycle   1  Pass 1  IDiag  1:
 FoFJK:  IHMeth= 1 ICntrl=       0 DoSepK=F KAlg= 0 I1Cent=           0 FoldK=F
 IRaf= 930000000 NMat=       1 IRICut=       1 DoRegI=T DoRafI=F ISym2E= 0 IDoP0=0 IntGTp=1.
 FoFCou: FMM=F IPFlag=           0 FMFlag=      100000 FMFlg1=           0
         NFxFlg=           0 DoJE=F BraDBF=F KetDBF=F FulRan=T
         wScrn=  0.000000 ICntrl=         0 IOpCl=  0 I1Cent=           0 NGrid=           0
         NMat0=    1 NMatS0=      1 NMatT0=    0 NMatD0=    1 NMtDS0=    0 NMtDT0=    0
 Symmetry not used in FoFCou.
 E= -796.649846713869    
 DIIS: error= 3.93D-02 at cycle   1 NSaved=   1.
 NSaved= 1 IEnMin= 1 EnMin= -796.649846713869     IErMin= 1 ErrMin= 3.93D-02
 ErrMax= 3.93D-02  0.00D+00 EMaxC= 1.00D-01 BMatC= 6.96D-01 BMatP= 6.96D-01
 IDIUse=3 WtCom= 6.07D-01 WtEn= 3.93D-01
 Coeff-Com:  0.100D+01
 Coeff-En:   0.100D+01
 Coeff:      0.100D+01
 Gap=     0.324 Goal=   None    Shift=    0.000
 GapD=    0.324 DampG=1.000 DampE=0.500 DampFc=0.5000 IDamp=-1.
 Damping current iteration by 5.00D-01
 RMSDP=5.28D-03 MaxDP=1.42D-01              OVMax= 2.11D-01

 Cycle   2  Pass 1  IDiag  1:
 RMSU=  2.64D-03    CP:  1.00D+00
 E= -796.820756577768     Delta-E=       -0.170909863899 Rises=F Damp=T
 DIIS: error= 7.98D-03 at cycle   2 NSaved=   2.
 NSaved= 2 IEnMin= 2 EnMin= -796.820756577768     IErMin= 2 ErrMin= 7.98D-03
 ErrMax= 7.98D-03  0.00D+00 EMaxC= 1.00D-01 BMatC= 2.99D-02 BMatP= 6.96D-01
 IDIUse=3 WtCom= 9.20D-01 WtEn= 7.98D-02
 Coeff-Com:  0.427D-01 0.957D+00
 Coeff-En:   0.145D+00 0.855D+00
 Coeff:      0.509D-01 0.949D+00
 Gap=     0.380 Goal=   None    Shift=    0.000
 RMSDP=1.03D-03 MaxDP=3.95D-02 DE=-1.71D-01 OVMax= 1.10D-01

 Cycle   3  Pass 1  IDiag  1:
 RMSU=  8.38D-04    CP:  9.95D-01  7.79D-01
 E= -797.035364084084     Delta-E=       -0.214607506316 Rises=F Damp=F
 DIIS: error= 3.42D-03 at cycle   3 NSaved=   3.
 NSaved= 3 IEnMin= 3 EnMin= -797.035364084084     IErMin= 3 ErrMin= 3.42D-03
 ErrMax= 3.42D-03  0.00D+00 EMaxC= 1.00D-01 BMatC= 6.61D-03 BMatP= 2.99D-02
 IDIUse=3 WtCom= 9.66D-01 WtEn= 3.42D-02
 Coeff-Com: -0.275D-01 0.246D+00 0.781D+00
 Coeff-En:   0.000D+00 0.000D+00 0.100D+01
 Coeff:     -0.265D-01 0.238D+00 0.789D+00
 Gap=     0.371 Goal=   None    Shift=    0.000
 RMSDP=4.03D-04 MaxDP=1.46D-02 DE=-2.15D-01 OVMax= 3.10D-02

 Cycle   4  Pass 1  IDiag  1:
 RMSU=  3.61D-04    CP:  9.95D-01  8.33D-01  8.74D-01
 E= -797.037263408293     Delta-E=       -0.001899324209 Rises=F Damp=F
 DIIS: error= 3.13D-03 at cycle   4 NSaved=   4.
 NSaved= 4 IEnMin= 4 EnMin= -797.037263408293     IErMin= 4 ErrMin= 3.13D-03
 ErrMax= 3.13D-03  0.00D+00 EMaxC= 1.00D-01 BMatC= 4.06D-03 BMatP= 6.61D-03
 IDIUse=3 WtCom= 9.69D-01 WtEn= 3.13D-02
 Coeff-Com: -0.208D-01 0.458D-01 0.471D+00 0.504D+00
 Coeff-En:   0.000D+00 0.000D+00 0.379D+00 0.621D+00
 Coeff:     -0.201D-01 0.444D-01 0.468D+00 0.507D+00
 Gap=     0.377 Goal=   None    Shift=    0.000
 RMSDP=1.90D-04 MaxDP=7.11D-03 DE=-1.90D-03 OVMax= 1.25D-02

 Cycle   5  Pass 1  IDiag  1:
 RMSU=  5.01D-05    CP:  9.94D-01  8.21D-01  9.66D-01  5.49D-01
 E= -797.039984696058     Delta-E=       -0.002721287765 Rises=F Damp=F
 DIIS: error= 1.69D-04 at cycle   5 NSaved=   5.
 NSaved= 5 IEnMin= 5 EnMin= -797.039984696058     IErMin= 5 ErrMin= 1.69D-04
 ErrMax= 1.69D-04  0.00D+00 EMaxC= 1.00D-01 BMatC= 1.84D-05 BMatP= 4.06D-03
 IDIUse=3 WtCom= 9.98D-01 WtEn= 1.69D-03
 Coeff-Com: -0.305D-02 0.287D-02 0.885D-01 0.125D+00 0.786D+00
 Coeff-En:   0.000D+00 0.000D+00 0.000D+00 0.000D+00 0.100D+01
 Coeff:     -0.305D-02 0.286D-02 0.883D-01 0.125D+00 0.787D+00
 Gap=     0.375 Goal=   None    Shift=    0.000
 RMSDP=1.94D-05 MaxDP=9.93D-04 DE=-2.72D-03 OVMax= 7.59D-04

 Cycle   6  Pass 1  IDiag  1:
 RMSU=  1.60D-05    CP:  9.94D-01  8.19D-01  9.69D-01  5.69D-01  8.98D-01
 E= -797.039997555722     Delta-E=       -0.000012859664 Rises=F Damp=F
 DIIS: error= 5.28D-05 at cycle   6 NSaved=   6.
 NSaved= 6 IEnMin= 6 EnMin= -797.039997555722     IErMin= 6 ErrMin= 5.28D-05
 ErrMax= 5.28D-05  0.00D+00 EMaxC= 1.00D-01 BMatC= 1.41D-06 BMatP= 1.84D-05
 IDIUse=1 WtCom= 1.00D+00 WtEn= 0.00D+00
 Coeff-Com: -0.869D-04-0.980D-03 0.714D-02 0.164D-01 0.236D+00 0.742D+00
 Coeff:     -0.869D-04-0.980D-03 0.714D-02 0.164D-01 0.236D+00 0.742D+00
 Gap=     0.375 Goal=   None    Shift=    0.000
 RMSDP=6.57D-06 MaxDP=2.55D-04 DE=-1.29D-05 OVMax= 1.96D-04

 Cycle   7  Pass 1  IDiag  1:
 RMSU=  3.27D-06    CP:  9.94D-01  8.18D-01  9.70D-01  5.71D-01  9.91D-01
                    CP:  8.98D-01
 E= -797.039998650726     Delta-E=       -0.000001095004 Rises=F Damp=F
 DIIS: error= 1.98D-05 at cycle   7 NSaved=   7.
 NSaved= 7 IEnMin= 7 EnMin= -797.039998650726     IErMin= 7 ErrMin= 1.98D-05
 ErrMax= 1.98D-05  0.00D+00 EMaxC= 1.00D-01 BMatC= 1.40D-07 BMatP= 1.41D-06
 IDIUse=1 WtCom= 1.00D+00 WtEn= 0.00D+00
 Coeff-Com:  0.339D-03-0.606D-03-0.909D-02-0.105D-01-0.169D-01 0.204D+00
 Coeff-Com:  0.832D+00
 Coeff:      0.339D-03-0.606D-03-0.909D-02-0.105D-01-0.169D-01 0.204D+00
 Coeff:      0.832D+00
 Gap=     0.375 Goal=   None    Shift=    0.000
 RMSDP=2.20D-06 MaxDP=7.79D-05 DE=-1.10D-06 OVMax= 8.94D-05

 Cycle   8  Pass 1  IDiag  1:
 RMSU=  1.56D-06    CP:  9.94D-01  8.18D-01  9.70D-01  5.72D-01  1.00D+00
                    CP:  9.69D-01  9.82D-01
 E= -797.039998749940     Delta-E=       -0.000000099214 Rises=F Damp=F
 DIIS: error= 9.95D-06 at cycle   8 NSaved=   8.
 NSaved= 8 IEnMin= 8 EnMin= -797.039998749940     IErMin= 8 ErrMin= 9.95D-06
 ErrMax= 9.95D-06  0.00D+00 EMaxC= 1.00D-01 BMatC= 3.88D-08 BMatP= 1.40D-07
 IDIUse=1 WtCom= 1.00D+00 WtEn= 0.00D+00
 Coeff-Com:  0.163D-03-0.230D-03-0.485D-02-0.596D-02-0.195D-01 0.551D-01
 Coeff-Com:  0.418D+00 0.557D+00
 Coeff:      0.163D-03-0.230D-03-0.485D-02-0.596D-02-0.195D-01 0.551D-01
 Coeff:      0.418D+00 0.557D+00
 Gap=     0.375 Goal=   None    Shift=    0.000
 RMSDP=6.64D-07 MaxDP=2.24D-05 DE=-9.92D-08 OVMax= 2.83D-05

 Cycle   9  Pass 1  IDiag  1:
 RMSU=  4.23D-07    CP:  9.94D-01  8.18D-01  9.70D-01  5.72D-01  1.01D+00
                    CP:  9.76D-01  1.09D+00  8.15D-01
 E= -797.039998776766     Delta-E=       -0.000000026826 Rises=F Damp=F
 DIIS: error= 1.29D-06 at cycle   9 NSaved=   9.
 NSaved= 9 IEnMin= 9 EnMin= -797.039998776766     IErMin= 9 ErrMin= 1.29D-06
 ErrMax= 1.29D-06  0.00D+00 EMaxC= 1.00D-01 BMatC= 8.46D-10 BMatP= 3.88D-08
 IDIUse=1 WtCom= 1.00D+00 WtEn= 0.00D+00
 Coeff-Com: -0.305D-04 0.528D-04 0.535D-03 0.626D-03-0.436D-04-0.187D-01
 Coeff-Com: -0.541D-01 0.563D-01 0.102D+01
 Coeff:     -0.305D-04 0.528D-04 0.535D-03 0.626D-03-0.436D-04-0.187D-01
 Coeff:     -0.541D-01 0.563D-01 0.102D+01
 Gap=     0.375 Goal=   None    Shift=    0.000
 RMSDP=2.43D-07 MaxDP=5.28D-06 DE=-2.68D-08 OVMax= 8.00D-06

 Cycle  10  Pass 1  IDiag  1:
 RMSU=  1.09D-07    CP:  9.94D-01  8.17D-01  9.70D-01  5.72D-01  1.01D+00
                    CP:  9.77D-01  1.12D+00  9.27D-01  1.08D+00
 E= -797.039998777829     Delta-E=       -0.000000001063 Rises=F Damp=F
 DIIS: error= 7.27D-07 at cycle  10 NSaved=  10.
 NSaved=10 IEnMin=10 EnMin= -797.039998777829     IErMin=10 ErrMin= 7.27D-07
 ErrMax= 7.27D-07  0.00D+00 EMaxC= 1.00D-01 BMatC= 1.39D-10 BMatP= 8.46D-10
 IDIUse=1 WtCom= 1.00D+00 WtEn= 0.00D+00
 Coeff-Com: -0.179D-04 0.301D-04 0.396D-03 0.461D-03 0.534D-03-0.102D-01
 Coeff-Com: -0.397D-01 0.649D-03 0.433D+00 0.615D+00
 Coeff:     -0.179D-04 0.301D-04 0.396D-03 0.461D-03 0.534D-03-0.102D-01
 Coeff:     -0.397D-01 0.649D-03 0.433D+00 0.615D+00
 Gap=     0.375 Goal=   None    Shift=    0.000
 RMSDP=5.35D-08 MaxDP=2.19D-06 DE=-1.06D-09 OVMax= 2.72D-06

 Cycle  11  Pass 1  IDiag  1:
 RMSU=  3.71D-08    CP:  9.94D-01  8.17D-01  9.70D-01  5.72D-01  1.01D+00
                    CP:  9.78D-01  1.12D+00  9.39D-01  1.15D+00  9.29D-01
 E= -797.039998777950     Delta-E=       -0.000000000121 Rises=F Damp=F
 DIIS: error= 2.22D-07 at cycle  11 NSaved=  11.
 NSaved=11 IEnMin=11 EnMin= -797.039998777950     IErMin=11 ErrMin= 2.22D-07
 ErrMax= 2.22D-07  0.00D+00 EMaxC= 1.00D-01 BMatC= 1.44D-11 BMatP= 1.39D-10
 IDIUse=1 WtCom= 1.00D+00 WtEn= 0.00D+00
 Coeff-Com:  0.191D-06-0.363D-06 0.425D-04 0.462D-04 0.255D-03 0.186D-04
 Coeff-Com: -0.464D-02-0.121D-01-0.407D-01 0.215D+00 0.842D+00
 Coeff:      0.191D-06-0.363D-06 0.425D-04 0.462D-04 0.255D-03 0.186D-04
 Coeff:     -0.464D-02-0.121D-01-0.407D-01 0.215D+00 0.842D+00
 Gap=     0.375 Goal=   None    Shift=    0.000
 RMSDP=1.97D-08 MaxDP=5.51D-07 DE=-1.21D-10 OVMax= 8.91D-07

 Cycle  12  Pass 1  IDiag  1:
 RMSU=  1.06D-08    CP:  9.94D-01  8.17D-01  9.70D-01  5.72D-01  1.01D+00
                    CP:  9.78D-01  1.12D+00  9.43D-01  1.17D+00  1.04D+00
                    CP:  9.93D-01
 E= -797.039998777948     Delta-E=        0.000000000002 Rises=F Damp=F
 DIIS: error= 3.19D-08 at cycle  12 NSaved=  12.
 NSaved=12 IEnMin=11 EnMin= -797.039998777950     IErMin=12 ErrMin= 3.19D-08
 ErrMax= 3.19D-08  0.00D+00 EMaxC= 1.00D-01 BMatC= 3.13D-13 BMatP= 1.44D-11
 IDIUse=1 WtCom= 1.00D+00 WtEn= 0.00D+00
 Coeff-Com:  0.101D-05-0.169D-05-0.118D-04-0.149D-04 0.135D-04 0.517D-03
 Coeff-Com:  0.147D-02-0.159D-02-0.297D-01 0.255D-02 0.133D+00 0.894D+00
 Coeff:      0.101D-05-0.169D-05-0.118D-04-0.149D-04 0.135D-04 0.517D-03
 Coeff:      0.147D-02-0.159D-02-0.297D-01 0.255D-02 0.133D+00 0.894D+00
 Gap=     0.375 Goal=   None    Shift=    0.000
 RMSDP=4.29D-09 MaxDP=9.32D-08 DE= 2.27D-12 OVMax= 1.77D-07

 SCF Done:  E(RM062X) =  -797.039998778     A.U. after   12 cycles
            NFock= 12  Conv=0.43D-08     -V/T= 2.0026
 KE= 7.949677958559D+02 PE=-2.801927577523D+03 EE= 7.535670618448D+02
 Leave Link  502 at Sun Feb 19 11:53:06 2023, MaxMem=  6710886400 cpu:             297.3 elap:              12.5
 (Enter /data0/home/software/g16/l601.exe)
 Copying SCF densities to generalized density rwf, IOpCl= 0 IROHF=0.

 **********************************************************************

            Population analysis using the SCF density.

 **********************************************************************

 Alpha  occ. eigenvalues --  -78.17147 -19.68941 -19.67591 -19.65964 -19.63865
 Alpha  occ. eigenvalues --  -19.63267 -19.60316  -6.97892  -5.09793  -5.09764
 Alpha  occ. eigenvalues --   -5.09633  -1.23986  -1.16792  -1.15755  -1.14869
 Alpha  occ. eigenvalues --   -1.13943  -1.10542  -0.72430  -0.65516  -0.62961
 Alpha  occ. eigenvalues --   -0.62542  -0.61483  -0.56552  -0.55365  -0.51780
 Alpha  occ. eigenvalues --   -0.50338  -0.48817  -0.47673  -0.47497  -0.45894
 Alpha  occ. eigenvalues --   -0.43022  -0.41912  -0.40902  -0.39987  -0.39223
 Alpha virt. eigenvalues --   -0.01701   0.01291   0.02081   0.03692   0.08016
 Alpha virt. eigenvalues --    0.09676   0.10817   0.11576   0.13519   0.14092
 Alpha virt. eigenvalues --    0.14993   0.15720   0.16225   0.16585   0.16722
 Alpha virt. eigenvalues --    0.17637   0.19230   0.19421   0.20878   0.21428
 Alpha virt. eigenvalues --    0.22254   0.22939   0.23624   0.24837   0.25810
 Alpha virt. eigenvalues --    0.26082   0.26983   0.27727   0.28964   0.29292
 Alpha virt. eigenvalues --    0.29973   0.31169   0.32017   0.34429   0.35166
 Alpha virt. eigenvalues --    0.35856   0.37026   0.38727   0.42091   0.43179
 Alpha virt. eigenvalues --    0.43708   0.47954   0.49255   0.50543   0.54205
 Alpha virt. eigenvalues --    0.54874   0.56064   0.58036   0.61751   0.65153
 Alpha virt. eigenvalues --    0.66843   0.75763   0.77770   0.78349   0.85346
 Alpha virt. eigenvalues --    0.96719   0.98612   1.00003   1.01190   1.02301
 Alpha virt. eigenvalues --    1.03885   1.05217   1.07425   1.10742   1.10902
 Alpha virt. eigenvalues --    1.11373   1.12983   1.14126   1.16013   1.17210
 Alpha virt. eigenvalues --    1.18113   1.19324   1.20276   1.21603   1.22427
 Alpha virt. eigenvalues --    1.23570   1.24485   1.27016   1.27803   1.30891
 Alpha virt. eigenvalues --    1.34649   1.35952   1.37097   1.39306   1.43237
 Alpha virt. eigenvalues --    1.44216   1.45818   1.47459   1.49159   1.55505
 Alpha virt. eigenvalues --    1.56453   1.58879   1.60785   1.62791   1.65030
 Alpha virt. eigenvalues --    1.65971   1.68039   1.70767   1.73298   1.73772
 Alpha virt. eigenvalues --    1.75283   1.77947   1.79554   1.83636   1.84271
 Alpha virt. eigenvalues --    1.87745   1.88597   1.94895   1.97521   1.99604
 Alpha virt. eigenvalues --    2.02758   2.02799   2.05713   2.09255   2.10171
 Alpha virt. eigenvalues --    2.11807   2.14836   2.15998   2.18733   2.23216
 Alpha virt. eigenvalues --    2.24030   2.29301   2.34829   2.38020   2.41590
 Alpha virt. eigenvalues --    2.44369   2.48752   2.51580   2.54439   2.59346
 Alpha virt. eigenvalues --    2.59726   2.61946   2.63167   2.64498   2.67012
 Alpha virt. eigenvalues --    2.74538   2.77084   2.83194   2.84209   2.88969
 Alpha virt. eigenvalues --    2.94311   2.98181   3.02432   3.09868   3.11842
 Alpha virt. eigenvalues --    5.03620   5.07513   5.07947   5.09294   5.10744
 Alpha virt. eigenvalues --    5.12337   5.15097   5.15527   5.22193   5.25900
 Alpha virt. eigenvalues --    5.35410   5.46774   5.52732   5.52973   5.53908
 Alpha virt. eigenvalues --    5.59305   5.93830   5.95437   6.72504   6.74826
 Alpha virt. eigenvalues --    6.76720   6.77235   6.78010   6.78692   6.79450
 Alpha virt. eigenvalues --    6.80053   6.80497   6.81485   6.83806   6.86315
 Alpha virt. eigenvalues --    6.89545   6.90880   6.91295   6.93295   6.96391
 Alpha virt. eigenvalues --    6.96556   6.98482   7.00418   7.03280   7.05417
 Alpha virt. eigenvalues --    7.11977   7.12899   7.15834   7.22176   7.26645
 Alpha virt. eigenvalues --    7.29714   7.34574   7.40335   7.65069  14.23712
 Alpha virt. eigenvalues --   14.24839  14.35524  49.98224  50.00073  50.01726
 Alpha virt. eigenvalues --   50.02487  50.04566  50.08616 163.87643
          Condensed to atoms (all electrons):
               1          2          3          4          5          6
     1  P   12.483762   0.486427   0.188615   0.031043   0.283511   0.012960
     2  O    0.486427   8.261057   0.007178  -0.001512  -0.012688  -0.019846
     3  O    0.188615   0.007178   8.059645   0.235293  -0.005015  -0.006485
     4  H    0.031043  -0.001512   0.235293   0.439850  -0.009395   0.000890
     5  O    0.283511  -0.012688  -0.005015  -0.009395   8.013245   0.254689
     6  H    0.012960  -0.019846  -0.006485   0.000890   0.254689   0.416945
     7  O    0.292926  -0.060533  -0.011170  -0.011118   0.009392   0.005229
     8  H   -0.009880  -0.008385  -0.001524   0.001691   0.001048   0.001296
     9  O    0.041598  -0.009049   0.004286  -0.000068  -0.015516   0.000238
    10  H   -0.002343   0.000197  -0.000460  -0.000001   0.001264  -0.000023
    11  H   -0.001923  -0.001276  -0.000187   0.000004   0.001772  -0.000087
    12  O   -0.010086  -0.005723  -0.000704   0.000059  -0.001969   0.000220
    13  H   -0.001070   0.048113   0.001285  -0.000087   0.000200  -0.000273
    14  H    0.001124  -0.001143  -0.000018  -0.000006   0.000084  -0.000005
               7          8          9         10         11         12
     1  P    0.292926  -0.009880   0.041598  -0.002343  -0.001923  -0.010086
     2  O   -0.060533  -0.008385  -0.009049   0.000197  -0.001276  -0.005723
     3  O   -0.011170  -0.001524   0.004286  -0.000460  -0.000187  -0.000704
     4  H   -0.011118   0.001691  -0.000068  -0.000001   0.000004   0.000059
     5  O    0.009392   0.001048  -0.015516   0.001264   0.001772  -0.001969
     6  H    0.005229   0.001296   0.000238  -0.000023  -0.000087   0.000220
     7  O    8.141355   0.252113   0.021752  -0.008419  -0.003692   0.008666
     8  H    0.252113   0.338302  -0.033532   0.010435   0.004735   0.000337
     9  O    0.021752  -0.033532   8.058017   0.288326   0.312173   0.008596
    10  H   -0.008419   0.010435   0.288326   0.334772  -0.011046  -0.030682
    11  H   -0.003692   0.004735   0.312173  -0.011046   0.416415  -0.000876
    12  O    0.008666   0.000337   0.008596  -0.030682  -0.000876   8.098173
    13  H   -0.002177  -0.001489  -0.000557   0.005905   0.000038   0.280326
    14  H   -0.001439   0.000115  -0.005441   0.007740   0.000752   0.307993
              13         14
     1  P   -0.001070   0.001124
     2  O    0.048113  -0.001143
     3  O    0.001285  -0.000018
     4  H   -0.000087  -0.000006
     5  O    0.000200   0.000084
     6  H   -0.000273  -0.000005
     7  O   -0.002177  -0.001439
     8  H   -0.001489   0.000115
     9  O   -0.000557  -0.005441
    10  H    0.005905   0.007740
    11  H    0.000038   0.000752
    12  O    0.280326   0.307993
    13  H    0.328143  -0.016244
    14  H   -0.016244   0.415374
 Mulliken charges:
               1
     1  P    1.203336
     2  O   -0.682818
     3  O   -0.470740
     4  H    0.313357
     5  O   -0.520623
     6  H    0.334252
     7  O   -0.632887
     8  H    0.444739
     9  O   -0.670822
    10  H    0.404335
    11  H    0.283200
    12  O   -0.654330
    13  H    0.357888
    14  H    0.291113
 Sum of Mulliken charges =  -0.00000
 Mulliken charges with hydrogens summed into heavy atoms:
               1
     1  P    1.203336
     2  O   -0.682818
     3  O   -0.157382
     5  O   -0.186372
     7  O   -0.188148
     9  O    0.016713
    12  O   -0.005329
         Mulliken charges condensed to fragments:
      1     -0.011384
      2      0.016713
      3     -0.005329
 Electronic spatial extent (au):  <R**2>=          90784.0663
 Charge=              0.0000 electrons
 Dipole moment (field-independent basis, Debye):
    X=             -0.0365    Y=             -2.5278    Z=              0.5683  Tot=              2.5912
 Quadrupole moment (field-independent basis, Debye-Ang):
   XX=            -53.7168   YY=           -124.3211   ZZ=            -45.2421
   XY=            -17.5075   XZ=              8.5866   YZ=             -0.9971
 Traceless Quadrupole moment (field-independent basis, Debye-Ang):
   XX=             20.7099   YY=            -49.8945   ZZ=             29.1846
   XY=            -17.5075   XZ=              8.5866   YZ=             -0.9971
 Octapole moment (field-independent basis, Debye-Ang**2):
  XXX=          -1390.6942  YYY=          -4062.1556  ZZZ=           -517.5953  XYY=           -928.2180
  XXY=           -999.9767  XXZ=            -76.0382  XZZ=           -356.6895  YZZ=           -809.2799
  YYZ=           -336.5097  XYZ=             64.6216
 Hexadecapole moment (field-independent basis, Debye-Ang**3):
 XXXX=         -24358.6093 YYYY=        -110788.7708 ZZZZ=          -4568.5808 XXXY=         -23684.4869
 XXXZ=          -3533.4739 YYYX=         -31504.4715 YYYZ=         -13067.8033 ZZZX=          -4189.9324
 ZZZY=          -8766.5105 XXYY=         -21651.2337 XXZZ=          -3585.4901 YYZZ=         -15118.9034
 XXYZ=          -1800.7814 YYXZ=          -1530.3031 ZZXY=          -6392.4557
 N-N= 4.563527210446D+02 E-N=-2.801927580568D+03  KE= 7.949677958559D+02
 No NMR shielding tensors so no spin-rotation constants.
 Leave Link  601 at Sun Feb 19 11:53:06 2023, MaxMem=  6710886400 cpu:               2.2 elap:               0.1
 (Enter /data0/home/software/g16/l122.exe)
 CPIOFr:  IOpCl= 0 IRwI=-1 IRwCP=  731 ICalc= -1 LCPTot=       89292 Len1MO=      233639 IndFrg=       89292
 CPIOFr:  IOpCl= 0 IRwI=-1 IRwCP=  731 ICalc=  0 LCPTot=       89292 Len1MO=      233639 IndFrg=      322931
 Counterpoise: doing calculation for fragment   1 using the basis set of the full-system, NewBq=T
 Leave Link  122 at Sun Feb 19 11:53:06 2023, MaxMem=  6710886400 cpu:               0.1 elap:               0.0
 (Enter /data0/home/software/g16/l301.exe)
 Basis read from rwf:  (5D, 7F)
 No pseudopotential information found on rwf file.
   239 basis functions,   364 primitive gaussians,   253 cartesian basis functions
    25 alpha electrons       25 beta electrons
       nuclear repulsion energy       280.1176298066 Hartrees.
 IExCor= 4336 DFT=T Ex+Corr=M062X ExCW=0 ScaHFX=  0.540000
 ScaDFX=  1.000000  1.000000  1.000000  1.000000 ScalE2=  1.000000  1.000000
 IRadAn=      5 IRanWt=     -1 IRanGd=            0 ICorTp=0 IEmpDi=131
 NAtoms=   14 NActive=   14 NUniq=   14 SFac= 1.00D+00 NAtFMM=   60 NAOKFM=F Big=F
 Integral buffers will be    131072 words long.
 Raffenetti 2 integral format.
 Two-electron integral symmetry is turned off.
 R6Disp:  Grimme-D3 Dispersion energy=       -0.0000467621 Hartrees.
 Nuclear repulsion after empirical dispersion term =      280.1175830445 Hartrees.
 No density basis found on file   718.
 Leave Link  301 at Sun Feb 19 11:53:06 2023, MaxMem=  6710886400 cpu:               1.2 elap:               0.1
 (Enter /data0/home/software/g16/l302.exe)
 NPDir=0 NMtPBC=     1 NCelOv=     1 NCel=       1 NClECP=     1 NCelD=      1
         NCelK=      1 NCelE2=     1 NClLst=     1 CellRange=     0.0.
 One-electron integrals computed using PRISM.
 NBasis=   239 RedAO= T EigKep=  3.49D-04  NBF=   239
 NBsUse=   239 1.00D-06 EigRej= -1.00D+00 NBFU=   239
 Precomputing XC quadrature grid using
 IXCGrd= 4 IRadAn=           5 IRanWt=          -1 IRanGd=           0 AccXCQ= 0.00D+00.
 Generated NRdTot=       0 NPtTot=           0 NUsed=           0 NTot=          32
 NSgBfM=   253   253   253   253   253 MxSgAt=    14 MxSgA2=    14.
 Leave Link  302 at Sun Feb 19 11:53:06 2023, MaxMem=  6710886400 cpu:               3.8 elap:               0.2
 (Enter /data0/home/software/g16/l303.exe)
 DipDrv:  MaxL=1.
 Leave Link  303 at Sun Feb 19 11:53:06 2023, MaxMem=  6710886400 cpu:               0.6 elap:               0.0
 (Enter /data0/home/software/g16/l401.exe)
 ExpMin= 3.48D-02 ExpMax= 7.75D+04 ExpMxC= 2.65D+03 IAcc=3 IRadAn=         5 AccDes= 0.00D+00
 Harris functional with IExCor= 1009 and IRadAn=       5 diagonalized for initial guess.
 HarFok:  IExCor= 1009 AccDes= 0.00D+00 IRadAn=         5 IDoV= 1 UseB2=F ITyADJ=14
 ICtDFT=  3500011 ScaDFX=  1.000000  1.000000  1.000000  1.000000
 FoFCou: FMM=F IPFlag=           0 FMFlag=      100000 FMFlg1=           0
         NFxFlg=           0 DoJE=T BraDBF=F KetDBF=T FulRan=T
         wScrn=  0.000000 ICntrl=       500 IOpCl=  0 I1Cent=   200000004 NGrid=           0
         NMat0=    1 NMatS0=      1 NMatT0=    0 NMatD0=    1 NMtDS0=    0 NMtDT0=    0
 Symmetry not used in FoFCou.
 Harris En= -643.943089469107    
 JPrj=0 DoOrth=F DoCkMO=F.
 Leave Link  401 at Sun Feb 19 11:53:06 2023, MaxMem=  6710886400 cpu:              10.4 elap:               0.5
 (Enter /data0/home/software/g16/l502.exe)
 Two-electron integral symmetry not used.
 Closed shell SCF:
 Using DIIS extrapolation, IDIIS=  1040.
 NGot=  6710886400 LenX=  6710750439 LenY=  6710685989
 Requested convergence on RMS density matrix=1.00D-08 within 128 cycles.
 Requested convergence on MAX density matrix=1.00D-06.
 Requested convergence on             energy=1.00D-06.
 No special actions if energy rises.
 Fock matrices will be formed incrementally for  20 cycles.

 Cycle   1  Pass 1  IDiag  1:
 FoFJK:  IHMeth= 1 ICntrl=       0 DoSepK=F KAlg= 0 I1Cent=           0 FoldK=F
 IRaf= 930000000 NMat=       1 IRICut=       1 DoRegI=T DoRafI=F ISym2E= 0 IDoP0=0 IntGTp=1.
 FoFCou: FMM=F IPFlag=           0 FMFlag=      100000 FMFlg1=           0
         NFxFlg=           0 DoJE=F BraDBF=F KetDBF=F FulRan=T
         wScrn=  0.000000 ICntrl=         0 IOpCl=  0 I1Cent=           0 NGrid=           0
         NMat0=    1 NMatS0=      1 NMatT0=    0 NMatD0=    1 NMtDS0=    0 NMtDT0=    0
 Symmetry not used in FoFCou.
 E= -643.868897260285    
 DIIS: error= 3.77D-02 at cycle   1 NSaved=   1.
 NSaved= 1 IEnMin= 1 EnMin= -643.868897260285     IErMin= 1 ErrMin= 3.77D-02
 ErrMax= 3.77D-02  0.00D+00 EMaxC= 1.00D-01 BMatC= 5.02D-01 BMatP= 5.02D-01
 IDIUse=3 WtCom= 6.23D-01 WtEn= 3.77D-01
 Coeff-Com:  0.100D+01
 Coeff-En:   0.100D+01
 Coeff:      0.100D+01
 Gap=     0.308 Goal=   None    Shift=    0.000
 GapD=    0.308 DampG=1.000 DampE=0.500 DampFc=0.5000 IDamp=-1.
 Damping current iteration by 5.00D-01
 RMSDP=4.71D-03 MaxDP=1.48D-01              OVMax= 2.49D-01

 Cycle   2  Pass 1  IDiag  1:
 RMSU=  2.36D-03    CP:  1.00D+00
 E= -643.984975729670     Delta-E=       -0.116078469385 Rises=F Damp=T
 DIIS: error= 8.04D-03 at cycle   2 NSaved=   2.
 NSaved= 2 IEnMin= 2 EnMin= -643.984975729670     IErMin= 2 ErrMin= 8.04D-03
 ErrMax= 8.04D-03  0.00D+00 EMaxC= 1.00D-01 BMatC= 2.62D-02 BMatP= 5.02D-01
 IDIUse=3 WtCom= 9.20D-01 WtEn= 8.04D-02
 Coeff-Com:  0.663D-01 0.934D+00
 Coeff-En:   0.194D+00 0.806D+00
 Coeff:      0.766D-01 0.923D+00
 Gap=     0.364 Goal=   None    Shift=    0.000
 RMSDP=1.08D-03 MaxDP=4.64D-02 DE=-1.16D-01 OVMax= 1.56D-01

 Cycle   3  Pass 1  IDiag  1:
 RMSU=  8.04D-04    CP:  9.92D-01  6.94D-01
 E= -644.145519136389     Delta-E=       -0.160543406719 Rises=F Damp=F
 DIIS: error= 4.59D-03 at cycle   3 NSaved=   3.
 NSaved= 3 IEnMin= 3 EnMin= -644.145519136389     IErMin= 3 ErrMin= 4.59D-03
 ErrMax= 4.59D-03  0.00D+00 EMaxC= 1.00D-01 BMatC= 9.62D-03 BMatP= 2.62D-02
 IDIUse=3 WtCom= 9.54D-01 WtEn= 4.59D-02
 Coeff-Com: -0.182D-01 0.335D+00 0.684D+00
 Coeff-En:   0.000D+00 0.000D+00 0.100D+01
 Coeff:     -0.174D-01 0.319D+00 0.698D+00
 Gap=     0.353 Goal=   None    Shift=    0.000
 RMSDP=4.40D-04 MaxDP=1.49D-02 DE=-1.61D-01 OVMax= 3.37D-02

 Cycle   4  Pass 1  IDiag  1:
 RMSU=  3.74D-04    CP:  9.92D-01  7.79D-01  8.54D-01
 E= -644.149825983848     Delta-E=       -0.004306847459 Rises=F Damp=F
 DIIS: error= 3.00D-03 at cycle   4 NSaved=   4.
 NSaved= 4 IEnMin= 4 EnMin= -644.149825983848     IErMin= 4 ErrMin= 3.00D-03
 ErrMax= 3.00D-03  0.00D+00 EMaxC= 1.00D-01 BMatC= 3.69D-03 BMatP= 9.62D-03
 IDIUse=3 WtCom= 9.70D-01 WtEn= 3.00D-02
 Coeff-Com: -0.220D-01 0.507D-01 0.406D+00 0.566D+00
 Coeff-En:   0.000D+00 0.000D+00 0.277D+00 0.723D+00
 Coeff:     -0.213D-01 0.492D-01 0.402D+00 0.570D+00
 Gap=     0.360 Goal=   None    Shift=    0.000
 RMSDP=1.74D-04 MaxDP=6.03D-03 DE=-4.31D-03 OVMax= 1.11D-02

 Cycle   5  Pass 1  IDiag  1:
 RMSU=  4.90D-05    CP:  9.91D-01  7.56D-01  9.49D-01  6.31D-01
 E= -644.152272587814     Delta-E=       -0.002446603966 Rises=F Damp=F
 DIIS: error= 1.73D-04 at cycle   5 NSaved=   5.
 NSaved= 5 IEnMin= 5 EnMin= -644.152272587814     IErMin= 5 ErrMin= 1.73D-04
 ErrMax= 1.73D-04  0.00D+00 EMaxC= 1.00D-01 BMatC= 1.47D-05 BMatP= 3.69D-03
 IDIUse=3 WtCom= 9.98D-01 WtEn= 1.73D-03
 Coeff-Com: -0.276D-02 0.128D-02 0.627D-01 0.122D+00 0.817D+00
 Coeff-En:   0.000D+00 0.000D+00 0.000D+00 0.000D+00 0.100D+01
 Coeff:     -0.275D-02 0.128D-02 0.626D-01 0.121D+00 0.818D+00
 Gap=     0.359 Goal=   None    Shift=    0.000
 RMSDP=1.67D-05 MaxDP=8.67D-04 DE=-2.45D-03 OVMax= 7.42D-04

 Cycle   6  Pass 1  IDiag  1:
 RMSU=  1.35D-05    CP:  9.91D-01  7.54D-01  9.53D-01  6.50D-01  9.92D-01
 E= -644.152282647124     Delta-E=       -0.000010059309 Rises=F Damp=F
 DIIS: error= 4.22D-05 at cycle   6 NSaved=   6.
 NSaved= 6 IEnMin= 6 EnMin= -644.152282647124     IErMin= 6 ErrMin= 4.22D-05
 ErrMax= 4.22D-05  0.00D+00 EMaxC= 1.00D-01 BMatC= 1.05D-06 BMatP= 1.47D-05
 IDIUse=1 WtCom= 1.00D+00 WtEn= 0.00D+00
 Coeff-Com: -0.136D-04-0.135D-02 0.255D-02 0.115D-01 0.214D+00 0.774D+00
 Coeff:     -0.136D-04-0.135D-02 0.255D-02 0.115D-01 0.214D+00 0.774D+00
 Gap=     0.359 Goal=   None    Shift=    0.000
 RMSDP=6.65D-06 MaxDP=2.39D-04 DE=-1.01D-05 OVMax= 2.09D-04

 Cycle   7  Pass 1  IDiag  1:
 RMSU=  3.08D-06    CP:  9.91D-01  7.53D-01  9.54D-01  6.53D-01  1.09D+00
                    CP:  9.06D-01
 E= -644.152283436468     Delta-E=       -0.000000789344 Rises=F Damp=F
 DIIS: error= 1.65D-05 at cycle   7 NSaved=   7.
 NSaved= 7 IEnMin= 7 EnMin= -644.152283436468     IErMin= 7 ErrMin= 1.65D-05
 ErrMax= 1.65D-05  0.00D+00 EMaxC= 1.00D-01 BMatC= 1.71D-07 BMatP= 1.05D-06
 IDIUse=1 WtCom= 1.00D+00 WtEn= 0.00D+00
 Coeff-Com:  0.369D-03-0.646D-03-0.794D-02-0.124D-01-0.226D-01 0.272D+00
 Coeff-Com:  0.771D+00
 Coeff:      0.369D-03-0.646D-03-0.794D-02-0.124D-01-0.226D-01 0.272D+00
 Coeff:      0.771D+00
 Gap=     0.359 Goal=   None    Shift=    0.000
 RMSDP=2.00D-06 MaxDP=6.12D-05 DE=-7.89D-07 OVMax= 8.20D-05

 Cycle   8  Pass 1  IDiag  1:
 RMSU=  1.36D-06    CP:  9.91D-01  7.52D-01  9.55D-01  6.54D-01  1.10D+00
                    CP:  9.83D-01  9.74D-01
 E= -644.152283552247     Delta-E=       -0.000000115779 Rises=F Damp=F
 DIIS: error= 8.20D-06 at cycle   8 NSaved=   8.
 NSaved= 8 IEnMin= 8 EnMin= -644.152283552247     IErMin= 8 ErrMin= 8.20D-06
 ErrMax= 8.20D-06  0.00D+00 EMaxC= 1.00D-01 BMatC= 3.33D-08 BMatP= 1.71D-07
 IDIUse=1 WtCom= 1.00D+00 WtEn= 0.00D+00
 Coeff-Com:  0.166D-03-0.227D-03-0.392D-02-0.628D-02-0.191D-01 0.869D-01
 Coeff-Com:  0.385D+00 0.558D+00
 Coeff:      0.166D-03-0.227D-03-0.392D-02-0.628D-02-0.191D-01 0.869D-01
 Coeff:      0.385D+00 0.558D+00
 Gap=     0.359 Goal=   None    Shift=    0.000
 RMSDP=5.57D-07 MaxDP=2.37D-05 DE=-1.16D-07 OVMax= 3.09D-05

 Cycle   9  Pass 1  IDiag  1:
 RMSU=  3.57D-07    CP:  9.91D-01  7.52D-01  9.55D-01  6.54D-01  1.10D+00
                    CP:  9.89D-01  1.07D+00  7.92D-01
 E= -644.152283575158     Delta-E=       -0.000000022912 Rises=F Damp=F
 DIIS: error= 1.14D-06 at cycle   9 NSaved=   9.
 NSaved= 9 IEnMin= 9 EnMin= -644.152283575158     IErMin= 9 ErrMin= 1.14D-06
 ErrMax= 1.14D-06  0.00D+00 EMaxC= 1.00D-01 BMatC= 6.49D-10 BMatP= 3.33D-08
 IDIUse=1 WtCom= 1.00D+00 WtEn= 0.00D+00
 Coeff-Com: -0.267D-04 0.492D-04 0.307D-03 0.595D-03-0.165D-03-0.195D-01
 Coeff-Com: -0.352D-01 0.623D-01 0.992D+00
 Coeff:     -0.267D-04 0.492D-04 0.307D-03 0.595D-03-0.165D-03-0.195D-01
 Coeff:     -0.352D-01 0.623D-01 0.992D+00
 Gap=     0.359 Goal=   None    Shift=    0.000
 RMSDP=2.03D-07 MaxDP=7.12D-06 DE=-2.29D-08 OVMax= 7.95D-06

 Cycle  10  Pass 1  IDiag  1:
 RMSU=  8.83D-08    CP:  9.91D-01  7.52D-01  9.55D-01  6.54D-01  1.10D+00
                    CP:  9.89D-01  1.10D+00  8.80D-01  1.10D+00
 E= -644.152283575960     Delta-E=       -0.000000000802 Rises=F Damp=F
 DIIS: error= 1.32D-07 at cycle  10 NSaved=  10.
 NSaved=10 IEnMin=10 EnMin= -644.152283575960     IErMin=10 ErrMin= 1.32D-07
 ErrMax= 1.32D-07  0.00D+00 EMaxC= 1.00D-01 BMatC= 1.06D-11 BMatP= 6.49D-10
 IDIUse=1 WtCom= 1.00D+00 WtEn= 0.00D+00
 Coeff-Com: -0.291D-05 0.462D-05 0.962D-04 0.148D-03 0.508D-03-0.283D-02
 Coeff-Com: -0.123D-01-0.174D-01 0.631D-02 0.103D+01
 Coeff:     -0.291D-05 0.462D-05 0.962D-04 0.148D-03 0.508D-03-0.283D-02
 Coeff:     -0.123D-01-0.174D-01 0.631D-02 0.103D+01
 Gap=     0.359 Goal=   None    Shift=    0.000
 RMSDP=3.88D-08 MaxDP=1.00D-06 DE=-8.02D-10 OVMax= 1.87D-06

 Cycle  11  Pass 1  IDiag  1:
 RMSU=  2.12D-08    CP:  9.91D-01  7.52D-01  9.55D-01  6.54D-01  1.10D+00
                    CP:  9.89D-01  1.10D+00  8.90D-01  1.16D+00  1.14D+00
 E= -644.152283575985     Delta-E=       -0.000000000025 Rises=F Damp=F
 DIIS: error= 5.17D-08 at cycle  11 NSaved=  11.
 NSaved=11 IEnMin=11 EnMin= -644.152283575985     IErMin=11 ErrMin= 5.17D-08
 ErrMax= 5.17D-08  0.00D+00 EMaxC= 1.00D-01 BMatC= 1.41D-12 BMatP= 1.06D-11
 IDIUse=1 WtCom= 1.00D+00 WtEn= 0.00D+00
 Coeff-Com:  0.711D-06-0.137D-05 0.902D-05 0.782D-05 0.116D-03 0.142D-03
 Coeff-Com: -0.972D-03-0.595D-02-0.433D-01 0.231D+00 0.819D+00
 Coeff:      0.711D-06-0.137D-05 0.902D-05 0.782D-05 0.116D-03 0.142D-03
 Coeff:     -0.972D-03-0.595D-02-0.433D-01 0.231D+00 0.819D+00
 Gap=     0.359 Goal=   None    Shift=    0.000
 RMSDP=8.63D-09 MaxDP=2.51D-07 DE=-2.48D-11 OVMax= 3.60D-07

 SCF Done:  E(RM062X) =  -644.152283576     A.U. after   11 cycles
            NFock= 11  Conv=0.86D-08     -V/T= 2.0025
 KE= 6.425208850437D+02 PE=-2.087958555669D+03 EE= 5.211678040051D+02
 Leave Link  502 at Sun Feb 19 11:53:18 2023, MaxMem=  6710886400 cpu:             265.5 elap:              11.1
 (Enter /data0/home/software/g16/l601.exe)
 Copying SCF densities to generalized density rwf, IOpCl= 0 IROHF=0.

 **********************************************************************

            Population analysis using the SCF density.

 **********************************************************************

 Alpha  occ. eigenvalues --  -78.16777 -19.68688 -19.68488 -19.67638 -19.58799
 Alpha  occ. eigenvalues --   -6.97555  -5.09454  -5.09439  -5.09261  -1.24274
 Alpha  occ. eigenvalues --   -1.16875  -1.16428  -1.09036  -0.72856  -0.65348
 Alpha  occ. eigenvalues --   -0.63707  -0.56464  -0.55367  -0.51448  -0.48290
 Alpha  occ. eigenvalues --   -0.47627  -0.45936  -0.43316  -0.38509  -0.37981
 Alpha virt. eigenvalues --   -0.02056   0.00958   0.01688   0.04520   0.07503
 Alpha virt. eigenvalues --    0.08228   0.09886   0.11360   0.12755   0.13264
 Alpha virt. eigenvalues --    0.15251   0.15477   0.16199   0.16755   0.17858
 Alpha virt. eigenvalues --    0.19028   0.19423   0.20431   0.21099   0.22135
 Alpha virt. eigenvalues --    0.23238   0.24451   0.25728   0.26287   0.27105
 Alpha virt. eigenvalues --    0.27896   0.28518   0.29172   0.29922   0.30129
 Alpha virt. eigenvalues --    0.31809   0.33112   0.34395   0.35672   0.36770
 Alpha virt. eigenvalues --    0.37444   0.38788   0.40169   0.41248   0.43946
 Alpha virt. eigenvalues --    0.45017   0.48158   0.49832   0.50893   0.55334
 Alpha virt. eigenvalues --    0.57216   0.63547   0.66691   0.69247   0.72889
 Alpha virt. eigenvalues --    0.74371   0.76533   0.77486   0.77901   0.79443
 Alpha virt. eigenvalues --    0.80481   0.86543   0.87656   0.90676   0.96744
 Alpha virt. eigenvalues --    0.97788   0.98289   1.02373   1.03016   1.05785
 Alpha virt. eigenvalues --    1.08916   1.11772   1.13398   1.14718   1.16071
 Alpha virt. eigenvalues --    1.18549   1.20384   1.21203   1.22045   1.24424
 Alpha virt. eigenvalues --    1.25834   1.28061   1.34168   1.34926   1.40659
 Alpha virt. eigenvalues --    1.43187   1.46434   1.47927   1.54047   1.55016
 Alpha virt. eigenvalues --    1.57024   1.61271   1.64137   1.64869   1.67108
 Alpha virt. eigenvalues --    1.68585   1.70779   1.73285   1.75866   1.76699
 Alpha virt. eigenvalues --    1.81026   1.83432   1.84886   1.85503   1.87097
 Alpha virt. eigenvalues --    1.90612   1.93311   1.97679   2.00212   2.02077
 Alpha virt. eigenvalues --    2.03893   2.06785   2.07848   2.10428   2.14925
 Alpha virt. eigenvalues --    2.16903   2.20450   2.21689   2.23004   2.26323
 Alpha virt. eigenvalues --    2.28148   2.34226   2.40966   2.43557   2.47771
 Alpha virt. eigenvalues --    2.48417   2.49533   2.52591   2.54220   2.59157
 Alpha virt. eigenvalues --    2.60215   2.60516   2.62011   2.62636   2.64924
 Alpha virt. eigenvalues --    2.65454   2.67451   2.72412   2.75105   2.76795
 Alpha virt. eigenvalues --    2.80012   2.82945   2.85790   2.88620   2.95005
 Alpha virt. eigenvalues --    2.95865   2.98835   3.00783   3.09079   3.12732
 Alpha virt. eigenvalues --    3.52217   3.56132   3.65830   3.69343   4.53143
 Alpha virt. eigenvalues --    4.60918   5.03731   5.06652   5.08001   5.08743
 Alpha virt. eigenvalues --    5.09587   5.11139   5.12977   5.15515   5.22884
 Alpha virt. eigenvalues --    5.28530   5.38889   5.46999   5.53641   5.59199
 Alpha virt. eigenvalues --    6.72461   6.75153   6.77563   6.78117   6.79057
 Alpha virt. eigenvalues --    6.80129   6.81391   6.87047   6.89726   6.96181
 Alpha virt. eigenvalues --    6.97274   6.98640   7.01307   7.04849   7.11487
 Alpha virt. eigenvalues --    7.22329   7.26334   7.29703   7.33774   7.41392
 Alpha virt. eigenvalues --    7.65182   9.79913   9.81750   9.86291   9.90051
 Alpha virt. eigenvalues --    9.94213   9.94714   9.99930  10.02240  10.17985
 Alpha virt. eigenvalues --   10.19905  12.92871  12.99764  13.27563  13.36011
 Alpha virt. eigenvalues --   13.74262  13.84232  14.24073  14.25207  14.35931
 Alpha virt. eigenvalues --   17.72492  17.83866  50.00190  50.01051  50.02117
 Alpha virt. eigenvalues --   50.09894 136.66123 137.50045 163.88010
          Condensed to atoms (all electrons):
               1          2          3          4          5          6
     1  P   12.489829   0.522677   0.192300   0.035714   0.291467   0.006372
     2  O    0.522677   8.169253   0.002570   0.000959  -0.017478  -0.018385
     3  O    0.192300   0.002570   8.025408   0.231548   0.017544  -0.005618
     4  H    0.035714   0.000959   0.231548   0.447457  -0.012098   0.000970
     5  O    0.291467  -0.017478   0.017544  -0.012098   7.994221   0.262250
     6  H    0.006372  -0.018385  -0.005618   0.000970   0.262250   0.407627
     7  O    0.258876  -0.044817  -0.001780  -0.013384   0.012784   0.004913
     8  H   -0.009643  -0.009849   0.002092   0.001643  -0.006166   0.001356
     9  O    0.004378   0.001887   0.000082  -0.000032   0.000570  -0.000176
    10  H   -0.000934  -0.001372  -0.000053  -0.000004  -0.000417   0.000045
    11  H   -0.002167  -0.000619  -0.000008   0.000003  -0.000074   0.000008
    12  O    0.001922   0.007516   0.000021   0.000027   0.000018   0.000065
    13  H   -0.002846   0.002229   0.000081  -0.000025   0.000299  -0.000182
    14  H   -0.000181  -0.001527  -0.000008  -0.000004  -0.000052   0.000002
               7          8          9         10         11         12
     1  P    0.258876  -0.009643   0.004378  -0.000934  -0.002167   0.001922
     2  O   -0.044817  -0.009849   0.001887  -0.001372  -0.000619   0.007516
     3  O   -0.001780   0.002092   0.000082  -0.000053  -0.000008   0.000021
     4  H   -0.013384   0.001643  -0.000032  -0.000004   0.000003   0.000027
     5  O    0.012784  -0.006166   0.000570  -0.000417  -0.000074   0.000018
     6  H    0.004913   0.001356  -0.000176   0.000045   0.000008   0.000065
     7  O    8.073471   0.289102   0.020762  -0.004609  -0.001911   0.002227
     8  H    0.289102   0.330957   0.008615   0.000111  -0.000627  -0.000289
     9  O    0.020762   0.008615   0.023215  -0.008840  -0.007043   0.002540
    10  H   -0.004609   0.000111  -0.008840   0.006456   0.001470  -0.004110
    11  H   -0.001911  -0.000627  -0.007043   0.001470   0.003871   0.000118
    12  O    0.002227  -0.000289   0.002540  -0.004110   0.000118   0.015112
    13  H    0.000159  -0.000243   0.000035   0.000894  -0.000207  -0.006298
    14  H   -0.000783  -0.000050  -0.000744   0.001291  -0.000037  -0.006081
              13         14
     1  P   -0.002846  -0.000181
     2  O    0.002229  -0.001527
     3  O    0.000081  -0.000008
     4  H   -0.000025  -0.000004
     5  O    0.000299  -0.000052
     6  H   -0.000182   0.000002
     7  O    0.000159  -0.000783
     8  H   -0.000243  -0.000050
     9  O    0.000035  -0.000744
    10  H    0.000894   0.001291
    11  H   -0.000207  -0.000037
    12  O   -0.006298  -0.006081
    13  H    0.004825   0.001574
    14  H    0.001574   0.003670
 Mulliken charges:
               1
     1  P    1.212236
     2  O   -0.613045
     3  O   -0.464178
     4  H    0.307226
     5  O   -0.542868
     6  H    0.340754
     7  O   -0.595010
     8  H    0.392990
     9  O   -0.045249
    10  H    0.010071
    11  H    0.007223
    12  O   -0.012787
    13  H   -0.000294
    14  H    0.002932
 Sum of Mulliken charges =  -0.00000
 Mulliken charges with hydrogens summed into heavy atoms:
               1
     1  P    1.212236
     2  O   -0.613045
     3  O   -0.156952
     5  O   -0.202114
     7  O   -0.202020
     9  O   -0.027955
    12  O   -0.010149
         Mulliken charges condensed to fragments:
      1      0.038104
      2     -0.027955
      3     -0.010149
 Electronic spatial extent (au):  <R**2>=          62804.7192
 Charge=             -0.0000 electrons
 Dipole moment (field-independent basis, Debye):
    X=              1.7950    Y=             -3.0927    Z=             -0.5927  Tot=              3.6246
 Quadrupole moment (field-independent basis, Debye-Ang):
   XX=             -4.2945   YY=           -135.1934   ZZ=            -36.4174
   XY=              7.3045   XZ=              2.7279   YZ=            -25.8509
 Traceless Quadrupole moment (field-independent basis, Debye-Ang):
   XX=             54.3406   YY=            -76.5583   ZZ=             22.2177
   XY=              7.3045   XZ=              2.7279   YZ=            -25.8509
 Octapole moment (field-independent basis, Debye-Ang**2):
  XXX=           -516.9871  YYY=          -4109.5798  ZZZ=           -469.3939  XYY=           -545.2239
  XXY=           -215.6869  XXZ=            -66.9702  XZZ=           -269.2357  YZZ=           -665.9148
  YYZ=           -838.8372  XYZ=            -79.2827
 Hexadecapole moment (field-independent basis, Debye-Ang**3):
 XXXX=         -11478.9206 YYYY=        -106178.5755 ZZZZ=          -4376.0541 XXXY=          -9268.8144
 XXXZ=          -2745.7929 YYYX=         -24370.7746 YYYZ=         -22817.9313 ZZZX=          -3758.7010
 ZZZY=          -7932.6642 XXYY=          -8662.0601 XXZZ=          -2682.3329 YYZZ=         -12774.4473
 XXYZ=          -2010.9818 YYXZ=          -4674.3901 ZZXY=          -4968.4723
 N-N= 2.801175830445D+02 E-N=-2.087958559004D+03  KE= 6.425208850437D+02
 No NMR shielding tensors so no spin-rotation constants.
 Leave Link  601 at Sun Feb 19 11:53:18 2023, MaxMem=  6710886400 cpu:               2.1 elap:               0.1
 (Enter /data0/home/software/g16/l122.exe)
 CPIOFr:  IOpCl= 0 IRwI=-1 IRwCP=  731 ICalc=  1 LCPTot=       89292 Len1MO=      233639 IndFrg=      556570
 Counterpoise: doing calculation for fragment   2 using the basis set of the full-system, NewBq=T
 Leave Link  122 at Sun Feb 19 11:53:18 2023, MaxMem=  6710886400 cpu:               0.1 elap:               0.0
 (Enter /data0/home/software/g16/l301.exe)
 Basis read from rwf:  (5D, 7F)
 No pseudopotential information found on rwf file.
   239 basis functions,   364 primitive gaussians,   253 cartesian basis functions
     5 alpha electrons        5 beta electrons
       nuclear repulsion energy         9.1043758336 Hartrees.
 IExCor= 4336 DFT=T Ex+Corr=M062X ExCW=0 ScaHFX=  0.540000
 ScaDFX=  1.000000  1.000000  1.000000  1.000000 ScalE2=  1.000000  1.000000
 IRadAn=      5 IRanWt=     -1 IRanGd=            0 ICorTp=0 IEmpDi=131
 NAtoms=   14 NActive=   14 NUniq=   14 SFac= 1.00D+00 NAtFMM=   60 NAOKFM=F Big=F
 Integral buffers will be    131072 words long.
 Raffenetti 2 integral format.
 Two-electron integral symmetry is turned off.
 R6Disp:  Grimme-D3 Dispersion energy=       -0.0000000078 Hartrees.
 Nuclear repulsion after empirical dispersion term =        9.1043758258 Hartrees.
 No density basis found on file   718.
 Leave Link  301 at Sun Feb 19 11:53:18 2023, MaxMem=  6710886400 cpu:               1.3 elap:               0.1
 (Enter /data0/home/software/g16/l302.exe)
 NPDir=0 NMtPBC=     1 NCelOv=     1 NCel=       1 NClECP=     1 NCelD=      1
         NCelK=      1 NCelE2=     1 NClLst=     1 CellRange=     0.0.
 One-electron integrals computed using PRISM.
 NBasis=   239 RedAO= T EigKep=  3.49D-04  NBF=   239
 NBsUse=   239 1.00D-06 EigRej= -1.00D+00 NBFU=   239
 Precomputing XC quadrature grid using
 IXCGrd= 4 IRadAn=           5 IRanWt=          -1 IRanGd=           0 AccXCQ= 0.00D+00.
 Generated NRdTot=       0 NPtTot=           0 NUsed=           0 NTot=          32
 NSgBfM=   253   253   253   253   253 MxSgAt=    14 MxSgA2=    14.
 Leave Link  302 at Sun Feb 19 11:53:18 2023, MaxMem=  6710886400 cpu:               3.8 elap:               0.2
 (Enter /data0/home/software/g16/l303.exe)
 DipDrv:  MaxL=1.
 Leave Link  303 at Sun Feb 19 11:53:18 2023, MaxMem=  6710886400 cpu:               0.6 elap:               0.0
 (Enter /data0/home/software/g16/l401.exe)
 ExpMin= 3.48D-02 ExpMax= 7.75D+04 ExpMxC= 2.65D+03 IAcc=3 IRadAn=         5 AccDes= 0.00D+00
 Harris functional with IExCor= 1009 and IRadAn=       5 diagonalized for initial guess.
 HarFok:  IExCor= 1009 AccDes= 0.00D+00 IRadAn=         5 IDoV= 1 UseB2=F ITyADJ=14
 ICtDFT=  3500011 ScaDFX=  1.000000  1.000000  1.000000  1.000000
 FoFCou: FMM=F IPFlag=           0 FMFlag=      100000 FMFlg1=           0
         NFxFlg=           0 DoJE=T BraDBF=F KetDBF=T FulRan=T
         wScrn=  0.000000 ICntrl=       500 IOpCl=  0 I1Cent=   200000004 NGrid=           0
         NMat0=    1 NMatS0=      1 NMatT0=    0 NMatD0=    1 NMtDS0=    0 NMtDT0=    0
 Symmetry not used in FoFCou.
 Harris En= -76.4174280711262    
 JPrj=0 DoOrth=F DoCkMO=F.
 Leave Link  401 at Sun Feb 19 11:53:18 2023, MaxMem=  6710886400 cpu:              10.2 elap:               0.5
 (Enter /data0/home/software/g16/l502.exe)
 Two-electron integral symmetry not used.
 Closed shell SCF:
 Using DIIS extrapolation, IDIIS=  1040.
 NGot=  6710886400 LenX=  6710750439 LenY=  6710685989
 Requested convergence on RMS density matrix=1.00D-08 within 128 cycles.
 Requested convergence on MAX density matrix=1.00D-06.
 Requested convergence on             energy=1.00D-06.
 No special actions if energy rises.
 Fock matrices will be formed incrementally for  20 cycles.

 Cycle   1  Pass 1  IDiag  1:
 FoFJK:  IHMeth= 1 ICntrl=       0 DoSepK=F KAlg= 0 I1Cent=           0 FoldK=F
 IRaf= 930000000 NMat=       1 IRICut=       1 DoRegI=T DoRafI=F ISym2E= 0 IDoP0=0 IntGTp=1.
 FoFCou: FMM=F IPFlag=           0 FMFlag=      100000 FMFlg1=           0
         NFxFlg=           0 DoJE=F BraDBF=F KetDBF=F FulRan=T
         wScrn=  0.000000 ICntrl=         0 IOpCl=  0 I1Cent=           0 NGrid=           0
         NMat0=    1 NMatS0=      1 NMatT0=    0 NMatD0=    1 NMtDS0=    0 NMtDT0=    0
 Symmetry not used in FoFCou.
 E= -76.3475613732228    
 DIIS: error= 2.56D-02 at cycle   1 NSaved=   1.
 NSaved= 1 IEnMin= 1 EnMin= -76.3475613732228     IErMin= 1 ErrMin= 2.56D-02
 ErrMax= 2.56D-02  0.00D+00 EMaxC= 1.00D-01 BMatC= 1.20D-01 BMatP= 1.20D-01
 IDIUse=3 WtCom= 7.44D-01 WtEn= 2.56D-01
 Coeff-Com:  0.100D+01
 Coeff-En:   0.100D+01
 Coeff:      0.100D+01
 Gap=     0.272 Goal=   None    Shift=    0.000
 GapD=    0.272 DampG=1.000 DampE=0.500 DampFc=0.5000 IDamp=-1.
 Damping current iteration by 5.00D-01
 RMSDP=2.74D-03 MaxDP=1.14D-01              OVMax= 1.72D-01

 Cycle   2  Pass 1  IDiag  1:
 RMSU=  1.37D-03    CP:  1.00D+00
 E= -76.3785935734086     Delta-E=       -0.031032200186 Rises=F Damp=T
 DIIS: error= 4.46D-03 at cycle   2 NSaved=   2.
 NSaved= 2 IEnMin= 2 EnMin= -76.3785935734086     IErMin= 2 ErrMin= 4.46D-03
 ErrMax= 4.46D-03  0.00D+00 EMaxC= 1.00D-01 BMatC= 5.00D-03 BMatP= 1.20D-01
 IDIUse=3 WtCom= 9.55D-01 WtEn= 4.46D-02
 Coeff-Com:  0.865D-01 0.914D+00
 Coeff-En:   0.196D+00 0.804D+00
 Coeff:      0.914D-01 0.909D+00
 Gap=     0.399 Goal=   None    Shift=    0.000
 RMSDP=4.11D-04 MaxDP=2.40D-02 DE=-3.10D-02 OVMax= 1.04D-01

 Cycle   3  Pass 1  IDiag  1:
 RMSU=  2.89D-04    CP:  1.01D+00  7.86D-01
 E= -76.4228444624962     Delta-E=       -0.044250889088 Rises=F Damp=F
 DIIS: error= 9.83D-04 at cycle   3 NSaved=   3.
 NSaved= 3 IEnMin= 3 EnMin= -76.4228444624962     IErMin= 3 ErrMin= 9.83D-04
 ErrMax= 9.83D-04  0.00D+00 EMaxC= 1.00D-01 BMatC= 1.63D-04 BMatP= 5.00D-03
 IDIUse=3 WtCom= 9.90D-01 WtEn= 9.83D-03
 Coeff-Com: -0.288D-01 0.528D-01 0.976D+00
 Coeff-En:   0.000D+00 0.000D+00 0.100D+01
 Coeff:     -0.286D-01 0.523D-01 0.976D+00
 Gap=     0.401 Goal=   None    Shift=    0.000
 RMSDP=3.63D-05 MaxDP=1.33D-03 DE=-4.43D-02 OVMax= 3.98D-03

 Cycle   4  Pass 1  IDiag  1:
 RMSU=  2.96D-05    CP:  1.00D+00  7.92D-01  1.06D+00
 E= -76.4229726887436     Delta-E=       -0.000128226247 Rises=F Damp=F
 DIIS: error= 1.37D-04 at cycle   4 NSaved=   4.
 NSaved= 4 IEnMin= 4 EnMin= -76.4229726887436     IErMin= 4 ErrMin= 1.37D-04
 ErrMax= 1.37D-04  0.00D+00 EMaxC= 1.00D-01 BMatC= 2.63D-06 BMatP= 1.63D-04
 IDIUse=3 WtCom= 9.99D-01 WtEn= 1.37D-03
 Coeff-Com: -0.309D-02 0.705D-03 0.143D+00 0.859D+00
 Coeff-En:   0.000D+00 0.000D+00 0.000D+00 0.100D+01
 Coeff:     -0.309D-02 0.704D-03 0.143D+00 0.860D+00
 Gap=     0.402 Goal=   None    Shift=    0.000
 RMSDP=8.40D-06 MaxDP=4.41D-04 DE=-1.28D-04 OVMax= 5.15D-04

 Cycle   5  Pass 1  IDiag  1:
 RMSU=  4.60D-06    CP:  1.00D+00  7.88D-01  1.06D+00  1.07D+00
 E= -76.4229743842729     Delta-E=       -0.000001695529 Rises=F Damp=F
 DIIS: error= 2.03D-05 at cycle   5 NSaved=   5.
 NSaved= 5 IEnMin= 5 EnMin= -76.4229743842729     IErMin= 5 ErrMin= 2.03D-05
 ErrMax= 2.03D-05  0.00D+00 EMaxC= 1.00D-01 BMatC= 7.21D-08 BMatP= 2.63D-06
 IDIUse=1 WtCom= 1.00D+00 WtEn= 0.00D+00
 Coeff-Com:  0.148D-02-0.231D-02-0.365D-01-0.455D-01 0.108D+01
 Coeff:      0.148D-02-0.231D-02-0.365D-01-0.455D-01 0.108D+01
 Gap=     0.402 Goal=   None    Shift=    0.000
 RMSDP=6.32D-06 MaxDP=3.45D-04 DE=-1.70D-06 OVMax= 2.09D-04

 Cycle   6  Pass 1  IDiag  1:
 RMSU=  1.26D-06    CP:  1.00D+00  7.84D-01  1.07D+00  1.15D+00  1.40D+00
 E= -76.4229745146500     Delta-E=       -0.000000130377 Rises=F Damp=F
 DIIS: error= 2.56D-06 at cycle   6 NSaved=   6.
 NSaved= 6 IEnMin= 6 EnMin= -76.4229745146500     IErMin= 6 ErrMin= 2.56D-06
 ErrMax= 2.56D-06  0.00D+00 EMaxC= 1.00D-01 BMatC= 1.78D-09 BMatP= 7.21D-08
 IDIUse=1 WtCom= 1.00D+00 WtEn= 0.00D+00
 Coeff-Com: -0.275D-03 0.390D-03 0.371D-02-0.793D-02-0.156D+00 0.116D+01
 Coeff:     -0.275D-03 0.390D-03 0.371D-02-0.793D-02-0.156D+00 0.116D+01
 Gap=     0.402 Goal=   None    Shift=    0.000
 RMSDP=9.04D-07 MaxDP=5.21D-05 DE=-1.30D-07 OVMax= 3.93D-05

 Cycle   7  Pass 1  IDiag  1:
 RMSU=  1.33D-07    CP:  1.00D+00  7.83D-01  1.07D+00  1.16D+00  1.49D+00
                    CP:  1.23D+00
 E= -76.4229745182714     Delta-E=       -0.000000003621 Rises=F Damp=F
 DIIS: error= 3.19D-07 at cycle   7 NSaved=   7.
 NSaved= 7 IEnMin= 7 EnMin= -76.4229745182714     IErMin= 7 ErrMin= 3.19D-07
 ErrMax= 3.19D-07  0.00D+00 EMaxC= 1.00D-01 BMatC= 2.43D-11 BMatP= 1.78D-09
 IDIUse=1 WtCom= 1.00D+00 WtEn= 0.00D+00
 Coeff-Com:  0.139D-04-0.176D-05-0.972D-04 0.175D-02-0.553D-02-0.910D-01
 Coeff-Com:  0.109D+01
 Coeff:      0.139D-04-0.176D-05-0.972D-04 0.175D-02-0.553D-02-0.910D-01
 Coeff:      0.109D+01
 Gap=     0.402 Goal=   None    Shift=    0.000
 RMSDP=1.18D-07 MaxDP=7.05D-06 DE=-3.62D-09 OVMax= 5.11D-06

 Cycle   8  Pass 1  IDiag  1:
 RMSU=  2.07D-08    CP:  1.00D+00  7.83D-01  1.07D+00  1.16D+00  1.49D+00
                    CP:  1.26D+00  1.17D+00
 E= -76.4229745183257     Delta-E=       -0.000000000054 Rises=F Damp=F
 DIIS: error= 8.28D-08 at cycle   8 NSaved=   8.
 NSaved= 8 IEnMin= 8 EnMin= -76.4229745183257     IErMin= 8 ErrMin= 8.28D-08
 ErrMax= 8.28D-08  0.00D+00 EMaxC= 1.00D-01 BMatC= 1.38D-12 BMatP= 2.43D-11
 IDIUse=1 WtCom= 1.00D+00 WtEn= 0.00D+00
 Coeff-Com:  0.119D-04-0.146D-04-0.125D-03 0.613D-03 0.418D-02-0.506D-01
 Coeff-Com:  0.156D+00 0.890D+00
 Coeff:      0.119D-04-0.146D-04-0.125D-03 0.613D-03 0.418D-02-0.506D-01
 Coeff:      0.156D+00 0.890D+00
 Gap=     0.402 Goal=   None    Shift=    0.000
 RMSDP=8.82D-09 MaxDP=5.16D-07 DE=-5.44D-11 OVMax= 6.46D-07

 SCF Done:  E(RM062X) =  -76.4229745183     A.U. after    8 cycles
            NFock=  8  Conv=0.88D-08     -V/T= 2.0031
 KE= 7.618601600954D+01 PE=-1.990499326146D+02 EE= 3.733656626100D+01
 Leave Link  502 at Sun Feb 19 11:53:26 2023, MaxMem=  6710886400 cpu:             183.4 elap:               7.7
 (Enter /data0/home/software/g16/l601.exe)
 Copying SCF densities to generalized density rwf, IOpCl= 0 IROHF=0.

 **********************************************************************

            Population analysis using the SCF density.

 **********************************************************************

 Alpha  occ. eigenvalues --  -19.62675  -1.13326  -0.60808  -0.47509  -0.40024
 Alpha virt. eigenvalues --    0.00146   0.03831   0.04463   0.05292   0.08617
 Alpha virt. eigenvalues --    0.10622   0.12543   0.13107   0.14943   0.15755
 Alpha virt. eigenvalues --    0.16816   0.18317   0.18656   0.19542   0.20606
 Alpha virt. eigenvalues --    0.21120   0.22145   0.22682   0.23296   0.24787
 Alpha virt. eigenvalues --    0.26458   0.28317   0.28966   0.29502   0.30458
 Alpha virt. eigenvalues --    0.31285   0.33468   0.34846   0.36161   0.37598
 Alpha virt. eigenvalues --    0.37756   0.38151   0.38771   0.40161   0.42109
 Alpha virt. eigenvalues --    0.44326   0.46935   0.48403   0.50456   0.56364
 Alpha virt. eigenvalues --    0.60388   0.61799   0.68547   0.70977   0.71804
 Alpha virt. eigenvalues --    0.73019   0.73436   0.74640   0.77298   0.78654
 Alpha virt. eigenvalues --    0.79006   0.80081   0.83529   0.84871   0.86336
 Alpha virt. eigenvalues --    0.87630   0.89924   0.93842   0.97314   0.98438
 Alpha virt. eigenvalues --    0.99028   1.03052   1.05391   1.07595   1.08059
 Alpha virt. eigenvalues --    1.08754   1.11311   1.13724   1.15645   1.16889
 Alpha virt. eigenvalues --    1.18972   1.23717   1.24351   1.26969   1.27776
 Alpha virt. eigenvalues --    1.30818   1.33011   1.43889   1.46532   1.48022
 Alpha virt. eigenvalues --    1.54273   1.66261   1.68536   1.74235   1.77036
 Alpha virt. eigenvalues --    1.78395   1.82866   1.89453   1.94526   1.94675
 Alpha virt. eigenvalues --    2.00952   2.03264   2.06893   2.08824   2.11234
 Alpha virt. eigenvalues --    2.17270   2.18872   2.22918   2.23486   2.30132
 Alpha virt. eigenvalues --    2.31281   2.33774   2.36077   2.38599   2.41677
 Alpha virt. eigenvalues --    2.42896   2.45453   2.45836   2.48601   2.50927
 Alpha virt. eigenvalues --    2.53890   2.54487   2.57296   2.57920   2.60222
 Alpha virt. eigenvalues --    2.61991   2.63222   2.63764   2.65069   2.67177
 Alpha virt. eigenvalues --    2.69308   2.71239   2.72373   2.74021   2.75580
 Alpha virt. eigenvalues --    2.80898   2.82560   2.85701   2.86995   2.89837
 Alpha virt. eigenvalues --    2.91932   2.92168   2.93603   2.96031   2.99389
 Alpha virt. eigenvalues --    3.00743   3.04328   3.06377   3.06959   3.08155
 Alpha virt. eigenvalues --    3.12375   3.17398   3.19995   3.23850   3.25411
 Alpha virt. eigenvalues --    3.28063   3.31355   3.34660   3.40472   3.47703
 Alpha virt. eigenvalues --    3.52448   3.64222   3.71919   3.79043   3.82135
 Alpha virt. eigenvalues --    4.43486   4.45138   4.48998   4.56128   4.57486
 Alpha virt. eigenvalues --    4.63346   4.73899   4.89438   4.93254   4.96727
 Alpha virt. eigenvalues --    5.09463   5.16697   5.55423   5.97450   6.81982
 Alpha virt. eigenvalues --    6.83111   6.92197   7.00239   7.13628   9.75982
 Alpha virt. eigenvalues --    9.77180   9.79401   9.86583   9.87388   9.89092
 Alpha virt. eigenvalues --    9.93046   9.97306   9.99655  10.02109  10.08853
 Alpha virt. eigenvalues --   10.12859  10.16017  10.19493  10.21198  10.24345
 Alpha virt. eigenvalues --   10.27281  10.30770  10.35283  10.38640  10.41106
 Alpha virt. eigenvalues --   10.46422  10.47875  10.55940  10.60696  10.66783
 Alpha virt. eigenvalues --   10.74456  10.85525  12.84901  12.87053  12.97419
 Alpha virt. eigenvalues --   13.20069  13.20708  13.28910  13.30603  13.34653
 Alpha virt. eigenvalues --   13.40711  13.47696  13.57716  13.64666  13.68857
 Alpha virt. eigenvalues --   13.79738  13.94267  14.08989  17.64305  17.74194
 Alpha virt. eigenvalues --   18.17876  18.39680  18.52443  50.02282  52.40303
 Alpha virt. eigenvalues --   52.44194  52.52434  69.99684 135.43913 137.04384
 Alpha virt. eigenvalues --  138.53891 139.50215 139.74268 481.02695
          Condensed to atoms (all electrons):
               1          2          3          4          5          6
     1  P    0.032648  -0.004443  -0.017594   0.000048  -0.005497   0.000069
     2  O   -0.004443   0.005843  -0.004771  -0.000026   0.004579  -0.000055
     3  O   -0.017594  -0.004771   0.029229  -0.000077  -0.010022   0.000125
     4  H    0.000048  -0.000026  -0.000077   0.000018  -0.000006   0.000002
     5  O   -0.005497   0.004579  -0.010022  -0.000006   0.011974  -0.000193
     6  H    0.000069  -0.000055   0.000125   0.000002  -0.000193   0.000048
     7  O   -0.004398  -0.005071   0.007532   0.000102  -0.006481  -0.000024
     8  H    0.003722   0.004346  -0.004481  -0.000074   0.005313   0.000049
     9  O    0.014485  -0.006725   0.002869   0.000029  -0.007882  -0.000073
    10  H   -0.003057   0.002552  -0.000298  -0.000002   0.000735   0.000008
    11  H    0.000320   0.000413  -0.000078  -0.000002   0.000644  -0.000012
    12  O    0.000163  -0.001099   0.000446   0.000002  -0.000357  -0.000002
    13  H    0.000632  -0.000409   0.000096  -0.000001  -0.000045   0.000001
    14  H   -0.000465   0.000620  -0.000148  -0.000000   0.000085  -0.000001
               7          8          9         10         11         12
     1  P   -0.004398   0.003722   0.014485  -0.003057   0.000320   0.000163
     2  O   -0.005071   0.004346  -0.006725   0.002552   0.000413  -0.001099
     3  O    0.007532  -0.004481   0.002869  -0.000298  -0.000078   0.000446
     4  H    0.000102  -0.000074   0.000029  -0.000002  -0.000002   0.000002
     5  O   -0.006481   0.005313  -0.007882   0.000735   0.000644  -0.000357
     6  H   -0.000024   0.000049  -0.000073   0.000008  -0.000012  -0.000002
     7  O    0.051595  -0.064850   0.081209  -0.010063  -0.005290   0.002883
     8  H   -0.064850   0.091903  -0.143476   0.018800   0.010069  -0.004143
     9  O    0.081209  -0.143476   7.990840   0.320288   0.325598   0.026413
    10  H   -0.010063   0.018800   0.320288   0.358890  -0.019224   0.003469
    11  H   -0.005290   0.010069   0.325598  -0.019224   0.428740  -0.003727
    12  O    0.002883  -0.004143   0.026413   0.003469  -0.003727   0.009328
    13  H   -0.000636   0.000932  -0.005442  -0.001683   0.000996  -0.002086
    14  H   -0.000312   0.000289  -0.001172   0.000421   0.000478  -0.003565
              13         14
     1  P    0.000632  -0.000465
     2  O   -0.000409   0.000620
     3  O    0.000096  -0.000148
     4  H   -0.000001  -0.000000
     5  O   -0.000045   0.000085
     6  H    0.000001  -0.000001
     7  O   -0.000636  -0.000312
     8  H    0.000932   0.000289
     9  O   -0.005442  -0.001172
    10  H   -0.001683   0.000421
    11  H    0.000996   0.000478
    12  O   -0.002086  -0.003565
    13  H    0.001130   0.000283
    14  H    0.000283   0.002651
 Mulliken charges:
               1
     1  P   -0.016635
     2  O    0.004245
     3  O   -0.002829
     4  H   -0.000014
     5  O    0.007153
     6  H    0.000057
     7  O   -0.046196
     8  H    0.081601
     9  O   -0.596960
    10  H    0.329164
    11  H    0.261075
    12  O   -0.027726
    13  H    0.006231
    14  H    0.000835
 Sum of Mulliken charges =  -0.00000
 Mulliken charges with hydrogens summed into heavy atoms:
               1
     1  P   -0.016635
     2  O    0.004245
     3  O   -0.002843
     5  O    0.007209
     7  O    0.035404
     9  O   -0.006722
    12  O   -0.020659
         Mulliken charges condensed to fragments:
      1      0.027381
      2     -0.006722
      3     -0.020659
 Electronic spatial extent (au):  <R**2>=          13354.3801
 Charge=             -0.0000 electrons
 Dipole moment (field-independent basis, Debye):
    X=             -1.9508    Y=             -0.0294    Z=             -0.4595  Tot=              2.0044
 Quadrupole moment (field-independent basis, Debye-Ang):
   XX=            -43.6428   YY=             -5.7351   ZZ=             -8.3198
   XY=            -33.2567   XZ=             -6.2418   YZ=             -6.7303
 Traceless Quadrupole moment (field-independent basis, Debye-Ang):
   XX=            -24.4102   YY=             13.4975   ZZ=             10.9128
   XY=            -33.2567   XZ=             -6.2418   YZ=             -6.7303
 Octapole moment (field-independent basis, Debye-Ang**2):
  XXX=           -717.4700  YYY=           -263.5008  ZZZ=            -25.6306  XYY=           -613.2806
  XXY=           -739.2333  XXZ=            -84.3072  XZZ=            -81.4332  YZZ=           -137.4067
  YYZ=           -102.0046  XYZ=            -95.9611
 Hexadecapole moment (field-independent basis, Debye-Ang**3):
 XXXX=         -10329.5446 YYYY=          -8559.5746 ZZZZ=            -62.2828 XXXY=         -12119.6641
 XXXZ=          -1108.6844 YYYX=         -11993.6409 YYYZ=          -1619.8346 ZZZX=           -247.0779
 ZZZY=           -426.4658 XXYY=         -12976.6351 XXZZ=           -806.7904 YYZZ=          -2277.5771
 XXYZ=          -1335.8188 YYXZ=          -1516.6401 ZZXY=          -1346.3047
 N-N= 9.104375825765D+00 E-N=-1.990499347757D+02  KE= 7.618601600954D+01
 No NMR shielding tensors so no spin-rotation constants.
 Leave Link  601 at Sun Feb 19 11:53:26 2023, MaxMem=  6710886400 cpu:               2.1 elap:               0.1
 (Enter /data0/home/software/g16/l122.exe)
 CPIOFr:  IOpCl= 0 IRwI=-1 IRwCP=  731 ICalc=  2 LCPTot=       89292 Len1MO=      233639 IndFrg=      790209
 Counterpoise: doing calculation for fragment   3 using the basis set of the full-system, NewBq=T
 Leave Link  122 at Sun Feb 19 11:53:26 2023, MaxMem=  6710886400 cpu:               0.1 elap:               0.0
 (Enter /data0/home/software/g16/l301.exe)
 Basis read from rwf:  (5D, 7F)
 No pseudopotential information found on rwf file.
   239 basis functions,   364 primitive gaussians,   253 cartesian basis functions
     5 alpha electrons        5 beta electrons
       nuclear repulsion energy         9.1182791136 Hartrees.
 IExCor= 4336 DFT=T Ex+Corr=M062X ExCW=0 ScaHFX=  0.540000
 ScaDFX=  1.000000  1.000000  1.000000  1.000000 ScalE2=  1.000000  1.000000
 IRadAn=      5 IRanWt=     -1 IRanGd=            0 ICorTp=0 IEmpDi=131
 NAtoms=   14 NActive=   14 NUniq=   14 SFac= 1.00D+00 NAtFMM=   60 NAOKFM=F Big=F
 Integral buffers will be    131072 words long.
 Raffenetti 2 integral format.
 Two-electron integral symmetry is turned off.
 R6Disp:  Grimme-D3 Dispersion energy=       -0.0000000075 Hartrees.
 Nuclear repulsion after empirical dispersion term =        9.1182791061 Hartrees.
 No density basis found on file   718.
 Leave Link  301 at Sun Feb 19 11:53:26 2023, MaxMem=  6710886400 cpu:               1.3 elap:               0.1
 (Enter /data0/home/software/g16/l302.exe)
 NPDir=0 NMtPBC=     1 NCelOv=     1 NCel=       1 NClECP=     1 NCelD=      1
         NCelK=      1 NCelE2=     1 NClLst=     1 CellRange=     0.0.
 One-electron integrals computed using PRISM.
 NBasis=   239 RedAO= T EigKep=  3.49D-04  NBF=   239
 NBsUse=   239 1.00D-06 EigRej= -1.00D+00 NBFU=   239
 Precomputing XC quadrature grid using
 IXCGrd= 4 IRadAn=           5 IRanWt=          -1 IRanGd=           0 AccXCQ= 0.00D+00.
 Generated NRdTot=       0 NPtTot=           0 NUsed=           0 NTot=          32
 NSgBfM=   253   253   253   253   253 MxSgAt=    14 MxSgA2=    14.
 Leave Link  302 at Sun Feb 19 11:53:27 2023, MaxMem=  6710886400 cpu:               3.8 elap:               0.2
 (Enter /data0/home/software/g16/l303.exe)
 DipDrv:  MaxL=1.
 Leave Link  303 at Sun Feb 19 11:53:27 2023, MaxMem=  6710886400 cpu:               0.6 elap:               0.0
 (Enter /data0/home/software/g16/l401.exe)
 ExpMin= 3.48D-02 ExpMax= 7.75D+04 ExpMxC= 2.65D+03 IAcc=3 IRadAn=         5 AccDes= 0.00D+00
 Harris functional with IExCor= 1009 and IRadAn=       5 diagonalized for initial guess.
 HarFok:  IExCor= 1009 AccDes= 0.00D+00 IRadAn=         5 IDoV= 1 UseB2=F ITyADJ=14
 ICtDFT=  3500011 ScaDFX=  1.000000  1.000000  1.000000  1.000000
 FoFCou: FMM=F IPFlag=           0 FMFlag=      100000 FMFlg1=           0
         NFxFlg=           0 DoJE=T BraDBF=F KetDBF=T FulRan=T
         wScrn=  0.000000 ICntrl=       500 IOpCl=  0 I1Cent=   200000004 NGrid=           0
         NMat0=    1 NMatS0=      1 NMatT0=    0 NMatD0=    1 NMtDS0=    0 NMtDT0=    0
 Symmetry not used in FoFCou.
 Harris En= -76.4174443698273    
 JPrj=0 DoOrth=F DoCkMO=F.
 Leave Link  401 at Sun Feb 19 11:53:27 2023, MaxMem=  6710886400 cpu:               9.7 elap:               0.4
 (Enter /data0/home/software/g16/l502.exe)
 Two-electron integral symmetry not used.
 Closed shell SCF:
 Using DIIS extrapolation, IDIIS=  1040.
 NGot=  6710886400 LenX=  6710750439 LenY=  6710685989
 Requested convergence on RMS density matrix=1.00D-08 within 128 cycles.
 Requested convergence on MAX density matrix=1.00D-06.
 Requested convergence on             energy=1.00D-06.
 No special actions if energy rises.
 Fock matrices will be formed incrementally for  20 cycles.

 Cycle   1  Pass 1  IDiag  1:
 FoFJK:  IHMeth= 1 ICntrl=       0 DoSepK=F KAlg= 0 I1Cent=           0 FoldK=F
 IRaf= 930000000 NMat=       1 IRICut=       1 DoRegI=T DoRafI=F ISym2E= 0 IDoP0=0 IntGTp=1.
 FoFCou: FMM=F IPFlag=           0 FMFlag=      100000 FMFlg1=           0
         NFxFlg=           0 DoJE=F BraDBF=F KetDBF=F FulRan=T
         wScrn=  0.000000 ICntrl=         0 IOpCl=  0 I1Cent=           0 NGrid=           0
         NMat0=    1 NMatS0=      1 NMatT0=    0 NMatD0=    1 NMtDS0=    0 NMtDT0=    0
 Symmetry not used in FoFCou.
 E= -76.3474584986897    
 DIIS: error= 3.05D-02 at cycle   1 NSaved=   1.
 NSaved= 1 IEnMin= 1 EnMin= -76.3474584986897     IErMin= 1 ErrMin= 3.05D-02
 ErrMax= 3.05D-02  0.00D+00 EMaxC= 1.00D-01 BMatC= 1.21D-01 BMatP= 1.21D-01
 IDIUse=3 WtCom= 6.95D-01 WtEn= 3.05D-01
 Coeff-Com:  0.100D+01
 Coeff-En:   0.100D+01
 Coeff:      0.100D+01
 Gap=     0.269 Goal=   None    Shift=    0.000
 GapD=    0.269 DampG=1.000 DampE=0.500 DampFc=0.5000 IDamp=-1.
 Damping current iteration by 5.00D-01
 RMSDP=2.66D-03 MaxDP=1.22D-01              OVMax= 1.72D-01

 Cycle   2  Pass 1  IDiag  1:
 RMSU=  1.33D-03    CP:  9.99D-01
 E= -76.3785823865701     Delta-E=       -0.031123887880 Rises=F Damp=T
 DIIS: error= 4.16D-03 at cycle   2 NSaved=   2.
 NSaved= 2 IEnMin= 2 EnMin= -76.3785823865701     IErMin= 2 ErrMin= 4.16D-03
[...]
 (Enter /data0/home/software/g16/l601.exe)
 Copying SCF densities to generalized density rwf, IOpCl= 0 IROHF=0.

 **********************************************************************

            Population analysis using the SCF density.

 **********************************************************************

 Alpha  occ. eigenvalues --  -19.62587  -1.13334  -0.60816  -0.47450  -0.39978
 Alpha virt. eigenvalues --    0.06276   0.13324   0.17393   0.17948   0.18940
 Alpha virt. eigenvalues --    0.23261   0.51099   0.53479   0.97881   1.00233
 Alpha virt. eigenvalues --    1.06039   1.18693   1.19865   1.32489   1.33871
 Alpha virt. eigenvalues --    1.69537   1.74081   1.75789   2.07617   2.09396
 Alpha virt. eigenvalues --    2.35321   2.42109   2.54357   2.88439   3.01170
 Alpha virt. eigenvalues --    5.05684   5.47735   5.92746   6.78254   6.80286
 Alpha virt. eigenvalues --    6.87075   6.91475   7.09575  49.95856
          Condensed to atoms (all electrons):
               9         10         11
     9  O    7.915705   0.319178   0.322645
    10  H    0.319178   0.424966  -0.024466
    11  H    0.322645  -0.024466   0.424614
 Mulliken charges:
               1
     1  P    0.000000
     2  O    0.000000
     3  O    0.000000
     4  H    0.000000
     5  O    0.000000
     6  H    0.000000
     7  O    0.000000
     8  H    0.000000
     9  O   -0.557529
    10  H    0.280322
    11  H    0.277207
    12  O    0.000000
    13  H    0.000000
    14  H    0.000000
 Sum of Mulliken charges =   0.00000
 Mulliken charges with hydrogens summed into heavy atoms:
               1
     1  P    0.000000
     2  O    0.000000
     3  O    0.000000
     5  O    0.000000
     7  O    0.000000
     9  O    0.000000
    12  O    0.000000
         Mulliken charges condensed to fragments:
      1      0.000000
      2      0.000000
      3      0.000000
 Electronic spatial extent (au):  <R**2>=          13355.9159
 Charge=              0.0000 electrons
 Dipole moment (field-independent basis, Debye):
    X=             -2.0536    Y=             -0.0316    Z=             -0.4912  Tot=              2.1117
 Quadrupole moment (field-independent basis, Debye-Ang):
   XX=            -45.5731   YY=             -5.7922   ZZ=             -8.3980
   XY=            -35.0053   XZ=             -6.6982   YZ=             -7.2627
 Traceless Quadrupole moment (field-independent basis, Debye-Ang):
   XX=            -25.6520   YY=             14.1289   ZZ=             11.5231
   XY=            -35.0053   XZ=             -6.6982   YZ=             -7.2627
 Octapole moment (field-independent basis, Debye-Ang**2):
  XXX=           -744.9089  YYY=           -264.5147  ZZZ=            -25.8167  XYY=           -642.9217
  XXY=           -771.8861  XXZ=            -90.0805  XZZ=            -82.4975  YZZ=           -138.7007
  YYZ=           -110.9056  XYZ=           -103.5960
 Hexadecapole moment (field-independent basis, Debye-Ang**3):
 XXXX=         -10679.2725 YYYY=          -8572.8862 ZZZZ=            -62.5352 XXXY=         -12583.0563
 XXXZ=          -1177.2093 YYYX=         -12494.4843 YYYZ=          -1768.1237 ZZZX=           -249.5710
 ZZZY=           -429.5243 XXYY=         -13528.5569 XXZZ=           -819.8579 YYZZ=          -2298.8684
 XXYZ=          -1432.2673 YYXZ=          -1644.1465 ZZXY=          -1363.9348
 N-N= 9.104375825765D+00 E-N=-1.990606916769D+02  KE= 7.619580536726D+01
 No NMR shielding tensors so no spin-rotation constants.
 Leave Link  601 at Sun Feb 19 11:53:42 2023, MaxMem=  6710886400 cpu:               1.7 elap:               0.1
 (Enter /data0/home/software/g16/l122.exe)
 CPIOFr:  IOpCl= 0 IRwI=-1 IRwCP=  731 ICalc=  5 LCPTot=       89292 Len1MO=      233639 IndFrg=     1491126
 Counterpoise: doing calculation for fragment   3 using the basis set of the fragment.
 Leave Link  122 at Sun Feb 19 11:53:42 2023, MaxMem=  6710886400 cpu:               0.1 elap:               0.0
 (Enter /data0/home/software/g16/l301.exe)
 Basis read from rwf:  (5D, 7F)
 No pseudopotential information found on rwf file.
    39 basis functions,    58 primitive gaussians,    41 cartesian basis functions
     5 alpha electrons        5 beta electrons
       nuclear repulsion energy         9.1182791136 Hartrees.
 IExCor= 4336 DFT=T Ex+Corr=M062X ExCW=0 ScaHFX=  0.540000
 ScaDFX=  1.000000  1.000000  1.000000  1.000000 ScalE2=  1.000000  1.000000
 IRadAn=      5 IRanWt=     -1 IRanGd=            0 ICorTp=0 IEmpDi=131
 NAtoms=   14 NActive=    3 NUniq=    3 SFac= 1.00D+00 NAtFMM=   60 NAOKFM=F Big=F
 Integral buffers will be    131072 words long.
 Raffenetti 2 integral format.
 Two-electron integral symmetry is turned off.
 R6Disp:  Grimme-D3 Dispersion energy=       -0.0000000075 Hartrees.
 Nuclear repulsion after empirical dispersion term =        9.1182791061 Hartrees.
 No density basis found on file   718.
 Leave Link  301 at Sun Feb 19 11:53:42 2023, MaxMem=  6710886400 cpu:               1.3 elap:               0.1
 (Enter /data0/home/software/g16/l302.exe)
 NPDir=0 NMtPBC=     1 NCelOv=     1 NCel=       1 NClECP=     1 NCelD=      1
         NCelK=      1 NCelE2=     1 NClLst=     1 CellRange=     0.0.
 One-electron integrals computed using PRISM.
 NBasis=    39 RedAO= T EigKep=  3.01D-03  NBF=    39
 NBsUse=    39 1.00D-06 EigRej= -1.00D+00 NBFU=    39
 Precomputing XC quadrature grid using
 IXCGrd= 4 IRadAn=           5 IRanWt=          -1 IRanGd=           0 AccXCQ= 0.00D+00.
 Generated NRdTot=       0 NPtTot=           0 NUsed=           0 NTot=          32
 NSgBfM=    41    41    41    41    41 MxSgAt=     3 MxSgA2=     3.
 Leave Link  302 at Sun Feb 19 11:53:42 2023, MaxMem=  6710886400 cpu:               2.3 elap:               0.1
 (Enter /data0/home/software/g16/l303.exe)
 DipDrv:  MaxL=1.
 Leave Link  303 at Sun Feb 19 11:53:42 2023, MaxMem=  6710886400 cpu:               0.4 elap:               0.0
 (Enter /data0/home/software/g16/l401.exe)
 ExpMin= 8.45D-02 ExpMax= 8.59D+03 ExpMxC= 1.30D+03 IAcc=3 IRadAn=         5 AccDes= 0.00D+00
 Harris functional with IExCor= 1009 and IRadAn=       5 diagonalized for initial guess.
 HarFok:  IExCor= 1009 AccDes= 0.00D+00 IRadAn=         5 IDoV= 1 UseB2=F ITyADJ=14
 ICtDFT=  3500011 ScaDFX=  1.000000  1.000000  1.000000  1.000000
 FoFCou: FMM=F IPFlag=           0 FMFlag=      100000 FMFlg1=           0
         NFxFlg=           0 DoJE=T BraDBF=F KetDBF=T FulRan=T
         wScrn=  0.000000 ICntrl=       500 IOpCl=  0 I1Cent=   200000004 NGrid=           0
         NMat0=    1 NMatS0=      1 NMatT0=    0 NMatD0=    1 NMtDS0=    0 NMtDT0=    0
 Symmetry not used in FoFCou.
 Harris En= -76.4166722271278    
 JPrj=0 DoOrth=F DoCkMO=F.
 Leave Link  401 at Sun Feb 19 11:53:42 2023, MaxMem=  6710886400 cpu:               2.9 elap:               0.1
 (Enter /data0/home/software/g16/l502.exe)
 Keep R1 ints in memory in canonical form, NReq=21037771.
 FoFCou: FMM=F IPFlag=           0 FMFlag=           0 FMFlg1=           0
         NFxFlg=           0 DoJE=F BraDBF=F KetDBF=F FulRan=T
         wScrn=  0.000000 ICntrl=       600 IOpCl=  0 I1Cent=           0 NGrid=           0
         NMat0=    1 NMatS0=    780 NMatT0=    0 NMatD0=    1 NMtDS0=    0 NMtDT0=    0
 Symmetry not used in FoFCou.
 Two-electron integral symmetry not used.
 Closed shell SCF:
 Using DIIS extrapolation, IDIIS=  1040.
 NGot=  6710886400 LenX=  6710576653 LenY=  6710574531
 Requested convergence on RMS density matrix=1.00D-08 within 128 cycles.
 Requested convergence on MAX density matrix=1.00D-06.
 Requested convergence on             energy=1.00D-06.
 No special actions if energy rises.
 Integral accuracy reduced to 1.0D-05 until final iterations.

 Cycle   1  Pass 0  IDiag  1:
 E= -76.3462908523769    
 DIIS: error= 7.03D-02 at cycle   1 NSaved=   1.
 NSaved= 1 IEnMin= 1 EnMin= -76.3462908523769     IErMin= 1 ErrMin= 7.03D-02
 ErrMax= 7.03D-02  0.00D+00 EMaxC= 1.00D-01 BMatC= 1.21D-01 BMatP= 1.21D-01
 IDIUse=3 WtCom= 2.97D-01 WtEn= 7.03D-01
 Coeff-Com:  0.100D+01
 Coeff-En:   0.100D+01
 Coeff:      0.100D+01
 Gap=     0.325 Goal=   None    Shift=    0.000
 GapD=    0.325 DampG=1.000 DampE=0.500 DampFc=0.5000 IDamp=-1.
 Damping current iteration by 5.00D-01
 RMSDP=7.92D-03 MaxDP=1.01D-01              OVMax= 1.68D-01

 Cycle   2  Pass 0  IDiag  1:
 E= -76.3778266551905     Delta-E=       -0.031535802814 Rises=F Damp=T
 DIIS: error= 1.15D-02 at cycle   2 NSaved=   2.
 NSaved= 2 IEnMin= 2 EnMin= -76.3778266551905     IErMin= 2 ErrMin= 1.15D-02
 ErrMax= 1.15D-02  0.00D+00 EMaxC= 1.00D-01 BMatC= 4.81D-03 BMatP= 1.21D-01
 IDIUse=3 WtCom= 8.85D-01 WtEn= 1.15D-01
 Coeff-Com:  0.815D-01 0.918D+00
 Coeff-En:   0.186D+00 0.814D+00
 Coeff:      0.935D-01 0.906D+00
 Gap=     0.458 Goal=   None    Shift=    0.000
 RMSDP=9.39D-04 MaxDP=1.39D-02 DE=-3.15D-02 OVMax= 1.00D-01

 Cycle   3  Pass 0  IDiag  1:
 E= -76.4217672871459     Delta-E=       -0.043940631955 Rises=F Damp=F
 DIIS: error= 2.16D-03 at cycle   3 NSaved=   3.
 NSaved= 3 IEnMin= 3 EnMin= -76.4217672871459     IErMin= 3 ErrMin= 2.16D-03
 ErrMax= 2.16D-03  0.00D+00 EMaxC= 1.00D-01 BMatC= 9.04D-05 BMatP= 4.81D-03
 IDIUse=3 WtCom= 9.78D-01 WtEn= 2.16D-02
 Coeff-Com: -0.199D-01 0.392D-01 0.981D+00
 Coeff-En:   0.000D+00 0.000D+00 0.100D+01
 Coeff:     -0.195D-01 0.384D-01 0.981D+00
 Gap=     0.462 Goal=   None    Shift=    0.000
 RMSDP=1.14D-04 MaxDP=9.82D-04 DE=-4.39D-02 OVMax= 3.30D-03

 Cycle   4  Pass 0  IDiag  1:
 E= -76.4218442993212     Delta-E=       -0.000077012175 Rises=F Damp=F
 DIIS: error= 4.10D-04 at cycle   4 NSaved=   4.
 NSaved= 4 IEnMin= 4 EnMin= -76.4218442993212     IErMin= 4 ErrMin= 4.10D-04
 ErrMax= 4.10D-04  0.00D+00 EMaxC= 1.00D-01 BMatC= 3.25D-06 BMatP= 9.04D-05
 IDIUse=3 WtCom= 9.96D-01 WtEn= 4.10D-03
 Coeff-Com: -0.187D-02-0.222D-02 0.162D+00 0.842D+00
 Coeff-En:   0.000D+00 0.000D+00 0.000D+00 0.100D+01
 Coeff:     -0.186D-02-0.221D-02 0.161D+00 0.843D+00
 Gap=     0.463 Goal=   None    Shift=    0.000
 RMSDP=2.20D-05 MaxDP=3.53D-04 DE=-7.70D-05 OVMax= 5.31D-04

 Cycle   5  Pass 0  IDiag  1:
 E= -76.4218463026535     Delta-E=       -0.000002003332 Rises=F Damp=F
 DIIS: error= 8.79D-05 at cycle   5 NSaved=   5.
 NSaved= 5 IEnMin= 5 EnMin= -76.4218463026535     IErMin= 5 ErrMin= 8.79D-05
 ErrMax= 8.79D-05  0.00D+00 EMaxC= 1.00D-01 BMatC= 8.15D-08 BMatP= 3.25D-06
 IDIUse=1 WtCom= 1.00D+00 WtEn= 0.00D+00
 Coeff-Com:  0.117D-02-0.178D-02-0.364D-01-0.638D-01 0.110D+01
 Coeff:      0.117D-02-0.178D-02-0.364D-01-0.638D-01 0.110D+01
 Gap=     0.463 Goal=   None    Shift=    0.000
 RMSDP=8.88D-06 MaxDP=1.02D-04 DE=-2.00D-06 OVMax= 1.99D-04

 Initial convergence to 1.0D-05 achieved.  Increase integral accuracy.
 Cycle   6  Pass 1  IDiag  1:
 E= -76.4218415686487     Delta-E=        0.000004734005 Rises=F Damp=F
 DIIS: error= 1.89D-05 at cycle   1 NSaved=   1.
 NSaved= 1 IEnMin= 1 EnMin= -76.4218415686487     IErMin= 1 ErrMin= 1.89D-05
 ErrMax= 1.89D-05  0.00D+00 EMaxC= 1.00D-01 BMatC= 1.75D-08 BMatP= 1.75D-08
 IDIUse=1 WtCom= 1.00D+00 WtEn= 0.00D+00
 Coeff-Com:  0.100D+01
 Coeff:      0.100D+01
 Gap=     0.463 Goal=   None    Shift=    0.000
 RMSDP=8.88D-06 MaxDP=1.02D-04 DE= 4.73D-06 OVMax= 4.58D-05

 Cycle   7  Pass 1  IDiag  1:
 E= -76.4218415839260     Delta-E=       -0.000000015277 Rises=F Damp=F
 DIIS: error= 1.21D-05 at cycle   2 NSaved=   2.
 NSaved= 2 IEnMin= 2 EnMin= -76.4218415839260     IErMin= 2 ErrMin= 1.21D-05
 ErrMax= 1.21D-05  0.00D+00 EMaxC= 1.00D-01 BMatC= 2.05D-09 BMatP= 1.75D-08
 IDIUse=1 WtCom= 1.00D+00 WtEn= 0.00D+00
 Coeff-Com:  0.106D+00 0.894D+00
 Coeff:      0.106D+00 0.894D+00
 Gap=     0.463 Goal=   None    Shift=    0.000
 RMSDP=9.90D-07 MaxDP=1.39D-05 DE=-1.53D-08 OVMax= 2.55D-05

 Cycle   8  Pass 1  IDiag  1:
 E= -76.4218415844585     Delta-E=       -0.000000000533 Rises=F Damp=F
 DIIS: error= 7.98D-06 at cycle   3 NSaved=   3.
 NSaved= 3 IEnMin= 3 EnMin= -76.4218415844585     IErMin= 3 ErrMin= 7.98D-06
 ErrMax= 7.98D-06  0.00D+00 EMaxC= 1.00D-01 BMatC= 1.69D-09 BMatP= 2.05D-09
 IDIUse=1 WtCom= 1.00D+00 WtEn= 0.00D+00
 Coeff-Com: -0.534D-01 0.487D+00 0.567D+00
 Coeff:     -0.534D-01 0.487D+00 0.567D+00
 Gap=     0.463 Goal=   None    Shift=    0.000
 RMSDP=4.78D-07 MaxDP=6.35D-06 DE=-5.33D-10 OVMax= 1.05D-05

 Cycle   9  Pass 1  IDiag  1:
 E= -76.4218415855736     Delta-E=       -0.000000001115 Rises=F Damp=F
 DIIS: error= 5.93D-07 at cycle   4 NSaved=   4.
 NSaved= 4 IEnMin= 4 EnMin= -76.4218415855736     IErMin= 4 ErrMin= 5.93D-07
 ErrMax= 5.93D-07  0.00D+00 EMaxC= 1.00D-01 BMatC= 4.75D-12 BMatP= 1.69D-09
 IDIUse=1 WtCom= 1.00D+00 WtEn= 0.00D+00
 Coeff-Com:  0.149D-02-0.609D-01-0.486D-01 0.111D+01
 Coeff:      0.149D-02-0.609D-01-0.486D-01 0.111D+01
 Gap=     0.463 Goal=   None    Shift=    0.000
 RMSDP=1.09D-07 MaxDP=6.97D-07 DE=-1.12D-09 OVMax= 2.01D-06

 Cycle  10  Pass 1  IDiag  1:
 E= -76.4218415855834     Delta-E=       -0.000000000010 Rises=F Damp=F
 DIIS: error= 7.85D-08 at cycle   5 NSaved=   5.
 NSaved= 5 IEnMin= 5 EnMin= -76.4218415855834     IErMin= 5 ErrMin= 7.85D-08
 ErrMax= 7.85D-08  0.00D+00 EMaxC= 1.00D-01 BMatC= 2.83D-13 BMatP= 4.75D-12
 IDIUse=1 WtCom= 1.00D+00 WtEn= 0.00D+00
 Coeff-Com:  0.283D-02-0.333D-01-0.346D-01 0.160D+00 0.905D+00
 Coeff:      0.283D-02-0.333D-01-0.346D-01 0.160D+00 0.905D+00
 Gap=     0.463 Goal=   None    Shift=    0.000
 RMSDP=2.74D-08 MaxDP=2.10D-07 DE=-9.81D-12 OVMax= 4.61D-07

 Cycle  11  Pass 1  IDiag  1:
 E= -76.4218415855838     Delta-E=       -0.000000000000 Rises=F Damp=F
 DIIS: error= 1.60D-08 at cycle   6 NSaved=   6.
 NSaved= 6 IEnMin= 6 EnMin= -76.4218415855838     IErMin= 6 ErrMin= 1.60D-08
 ErrMax= 1.60D-08  0.00D+00 EMaxC= 1.00D-01 BMatC= 7.41D-15 BMatP= 2.83D-13
 IDIUse=1 WtCom= 1.00D+00 WtEn= 0.00D+00
 Coeff-Com:  0.921D-04 0.429D-03 0.246D-03-0.345D-01-0.999D-02 0.104D+01
 Coeff:      0.921D-04 0.429D-03 0.246D-03-0.345D-01-0.999D-02 0.104D+01
 Gap=     0.463 Goal=   None    Shift=    0.000
 RMSDP=6.10D-09 MaxDP=4.91D-08 DE=-3.55D-13 OVMax= 1.22D-07

 SCF Done:  E(RM062X) =  -76.4218415856     A.U. after   11 cycles
            NFock= 11  Conv=0.61D-08     -V/T= 2.0029
 KE= 7.620156696229D+01 PE=-1.990897891686D+02 EE= 3.734810151462D+01
 Leave Link  502 at Sun Feb 19 11:53:42 2023, MaxMem=  6710886400 cpu:               8.8 elap:               0.4
 (Enter /data0/home/software/g16/l601.exe)
 Copying SCF densities to generalized density rwf, IOpCl= 0 IROHF=0.

 **********************************************************************

            Population analysis using the SCF density.

 **********************************************************************

 Alpha  occ. eigenvalues --  -19.62589  -1.13433  -0.60773  -0.47574  -0.40003
 Alpha virt. eigenvalues --    0.06296   0.13351   0.17396   0.17943   0.18928
 Alpha virt. eigenvalues --    0.23301   0.51214   0.53564   0.97930   1.00192
 Alpha virt. eigenvalues --    1.06031   1.18262   1.20028   1.32315   1.33813
 Alpha virt. eigenvalues --    1.70036   1.74268   1.75696   2.07849   2.09462
 Alpha virt. eigenvalues --    2.35893   2.41256   2.54635   2.88530   3.01507
 Alpha virt. eigenvalues --    5.05681   5.48463   5.92804   6.78333   6.80174
 Alpha virt. eigenvalues --    6.87197   6.91517   7.09384  49.95951
          Condensed to atoms (all electrons):
              12         13         14
    12  O    7.914691   0.318973   0.321645
    13  H    0.318973   0.426548  -0.024376
    14  H    0.321645  -0.024376   0.426278
 Mulliken charges:
               1
     1  P    0.000000
     2  O    0.000000
     3  O    0.000000
     4  H    0.000000
     5  O    0.000000
     6  H    0.000000
     7  O    0.000000
     8  H    0.000000
     9  O    0.000000
    10  H    0.000000
    11  H    0.000000
    12  O   -0.555308
    13  H    0.278855
    14  H    0.276453
 Sum of Mulliken charges =  -0.00000
 Mulliken charges with hydrogens summed into heavy atoms:
               1
     1  P    0.000000
     2  O    0.000000
     3  O    0.000000
     5  O    0.000000
     7  O    0.000000
     9  O    0.000000
    12  O   -0.000000
         Mulliken charges condensed to fragments:
      1      0.000000
      2      0.000000
      3     -0.000000
 Electronic spatial extent (au):  <R**2>=          14626.2018
 Charge=             -0.0000 electrons
 Dipole moment (field-independent basis, Debye):
    X=              0.3287    Y=              0.3828    Z=              2.0585  Tot=              2.1195
 Quadrupole moment (field-independent basis, Debye-Ang):
   XX=             -1.9978   YY=              9.0647   ZZ=              1.5952
   XY=             10.3741   XZ=             16.3329   YZ=             38.5980
 Traceless Quadrupole moment (field-independent basis, Debye-Ang):
   XX=             -4.8852   YY=              6.1773   ZZ=             -1.2922
   XY=             10.3741   XZ=             16.3329   YZ=             38.5980
 Octapole moment (field-independent basis, Debye-Ang**2):
  XXX=           -104.3621  YYY=            108.8481  ZZZ=            -11.7046  XYY=            232.6937
  XXY=              5.8532  XXZ=            116.5797  XZZ=             12.8200  YZZ=             29.0630
  YYZ=            714.8658  XYZ=            309.0010
 Hexadecapole moment (field-independent basis, Debye-Ang**3):
 XXXX=          -1910.6852 YYYY=           -871.1478 ZZZZ=            -74.4972 XXXY=          -1530.5078
 XXXZ=            728.1445 YYYX=           4335.6702 YYYZ=          13076.3981 ZZZX=            -90.1925
 ZZZY=           -222.1947 XXYY=            605.2681 XXZZ=             76.8665 YYZZ=            512.2833
 XXYZ=           2230.4933 YYXZ=           5777.1239 ZZXY=            239.9470
 N-N= 9.118279106086D+00 E-N=-1.990897892667D+02  KE= 7.620156696229D+01
 No NMR shielding tensors so no spin-rotation constants.
 Leave Link  601 at Sun Feb 19 11:53:43 2023, MaxMem=  6710886400 cpu:               1.6 elap:               0.1
 (Enter /data0/home/software/g16/l122.exe)
 CPIOFr:  IOpCl= 0 IRwI=-1 IRwCP=  731 ICalc=  6 LCPTot=       89292 Len1MO=      233639 IndFrg=     1724765
 Restoring MOs from calculation   1 to rwf.
 CPIOFr:  IOpCl= 0 IRwI=-2 IRwCP=  731 ICalc=  0 LCPTot=       89292 Len1MO=      233639 IndFrg=      322931
 Counterpoise corrected energy =    -797.037129716430
                   BSSE energy =       0.002869061518
              sum of fragments =    -796.995302222066
           complexation energy =     -28.05 kcal/mole (raw)
           complexation energy =     -26.25 kcal/mole (corrected)
 Leave Link  122 at Sun Feb 19 11:53:43 2023, MaxMem=  6710886400 cpu:               0.2 elap:               0.0
 (Enter /data0/home/software/g16/l9999.exe)
 1\1\GINC-LOCALHOST\SP\RM062X\6-311+G(2d,p)\H7O6P1\WUHANYU\19-Feb-2023\
 0\\#p M062X/6-311+G(2d,p) nosymm em=GD3 counterpoise=3\\Title Card Req
 uired\\0,1\P,0,8.595521,15.978707,4.522913\O,0,7.466244,16.835888,4.14
 443\O,0,8.88148,16.082574,6.084449\H,0,9.701112,15.49494,6.296244\O,0,
 8.450927,14.435502,4.199672\H,0,7.430636,14.160514,4.274597\O,0,10.021
 433,16.314721,3.907277\H,0,9.926409,16.40717,2.869625\O,0,9.648108,16.
 750654,1.105737\H,0,8.99144,17.467037,1.207307\H,0,9.152977,16.023055,
 0.730977\O,0,7.683302,18.597301,1.789101\H,0,7.441129,18.044428,2.5527
 9\H,0,8.107622,19.360382,2.182124\\Version=ES64L-G16RevA.03\HF=-76.421
 8416\RMSD=6.100e-09\Dipole=-0.0529894,-0.9881676,0.2421446\Quadrupole=
 14.2629939,-36.3831747,22.1201808,-14.1293499,6.5015553,-0.0372444\PG=
 C01 [X(H7O6P1)]\\@


 WERE I TO AWAIT PERFECTION, MY BOOK WOULD NEVER BE FINISHED.
                                    -- HISTORY OF CHINESE WRITING

                                       TAI T'UNG, 13TH CENTURY
 Job cpu time:       0 days  0 hours 18 minutes 57.1 seconds.
 Elapsed time:       0 days  0 hours  0 minutes 50.3 seconds.
 File lengths (MBytes):  RWF=     53 Int=      0 D2E=      0 Chk=     17 Scr=      1
 Normal termination of Gaussian 16 at Sun Feb 19 11:53:43 2023.
