 Entering Gaussian System, Link 0=g16
 Initial command:
 /data0/home/software/g16/l1.exe "/data0/home/software/g16/scratch/Gau-359103.inp" -scrdir="/data0/home/software/g16/scratch/"
 Default is to use a total of  22 processors:
                               22 via shared-memory
                                1 via Linda
 Entering Link 1 = /data0/home/software/g16/l1.exe PID=    359104.
  
 Copyright (c) 1988,1990,1992,1993,1995,1998,2003,2009,2016,
            Gaussian, Inc.  All Rights Reserved.
  
 This is part of the Gaussian(R) 16 program.  It is based on
 the Gaussian(R) 09 system (copyright 2009, Gaussian, Inc.),
 the Gaussian(R) 03 system (copyright 2003, Gaussian, Inc.),
 the Gaussian(R) 98 system (copyright 1998, Gaussian, Inc.),
 the Gaussian(R) 94 system (copyright 1995, Gaussian, Inc.),
 the Gaussian 92(TM) system (copyright 1992, Gaussian, Inc.),
 the Gaussian 90(TM) system (copyright 1990, Gaussian, Inc.),
 the Gaussian 88(TM) system (copyright 1988, Gaussian, Inc.),
 the Gaussian 86(TM) system (copyright 1986, Carnegie Mellon
 University), and the Gaussian 82(TM) system (copyright 1983,
 Carnegie Mellon University). Gaussian is a federally registered
 trademark of Gaussian, Inc.
  
 This software contains proprietary and confidential information,
 including trade secrets, belonging to Gaussian, Inc.
  
 This software is provided under written license and may be
 used, copied, transmitted, or stored only in accord with that
 written license.
  
 The following legend is applicable only to US Government
 contracts under FAR:
  
                    RESTRICTED RIGHTS LEGEND
  
 Use, reproduction and disclosure by the US Government is
 subject to restrictions as set forth in subparagraphs (a)
 and (c) of the Commercial Computer Software - Restricted
 Rights clause in FAR 52.227-19.
  
 Gaussian, Inc.
 340 Quinnipiac St., Bldg. 40, Wallingford CT 06492
  
  
 ---------------------------------------------------------------
 Warning -- This program may not be used in any manner that
 competes with the business of Gaussian, Inc. or will provide
 assistance to any competitor of Gaussian, Inc.  The licensee
 of this program is prohibited from giving any competitor of
 Gaussian, Inc. access to this program.  By using this program,
 the user acknowledges that Gaussian, Inc. is engaged in the
 business of creating and licensing software in the field of
 computational chemistry and represents and warrants to the
 licensee that it is not a competitor of Gaussian, Inc. and that
 it will not use this program in any manner prohibited above.
 ---------------------------------------------------------------
  

 Cite this work as:
 Gaussian 16, Revision A.03,
 M. J. Frisch, G. W. Trucks, H. B. Schlegel, G. E. Scuseria, 
 M. A. Robb, J. R. Cheeseman, G. Scalmani, V. Barone, 
 G. A. Petersson, H. Nakatsuji, X. Li, M. Caricato, A. V. Marenich, 
 J. Bloino, B. G. Janesko, R. Gomperts, B. Mennucci, H. P. Hratchian, 
 J. V. Ortiz, A. F. Izmaylov, J. L. Sonnenberg, D. Williams-Young, 
 F. Ding, F. Lipparini, F. Egidi, J. Goings, B. Peng, A. Petrone, 
 T. Henderson, D. Ranasinghe, V. G. Zakrzewski, J. Gao, N. Rega, 
 G. Zheng, W. Liang, M. Hada, M. Ehara, K. Toyota, R. Fukuda, 
 J. Hasegawa, M. Ishida, T. Nakajima, Y. Honda, O. Kitao, H. Nakai, 
 T. Vreven, K. Throssell, J. A. Montgomery, Jr., J. E. Peralta, 
 F. Ogliaro, M. J. Bearpark, J. J. Heyd, E. N. Brothers, K. N. Kudin, 
 V. N. Staroverov, T. A. Keith, R. Kobayashi, J. Normand, 
 K. Raghavachari, A. P. Rendell, J. C. Burant, S. S. Iyengar, 
 J. Tomasi, M. Cossi, J. M. Millam, M. Klene, C. Adamo, R. Cammi, 
 J. W. Ochterski, R. L. Martin, K. Morokuma, O. Farkas, 
 J. B. Foresman, and D. J. Fox, Gaussian, Inc., Wallingford CT, 2016.
 
 ******************************************
 Gaussian 16:  ES64L-G16RevA.03 25-Dec-2016
                20-Feb-2023 
 ******************************************
 %nproc=24
 Will use up to   24 processors via shared memory.
 %mem=50GB
 ---------------------------------------------------
 #p M062X/6-311+G(2d,p) nosymm em=GD3 counterpoise=5
 ---------------------------------------------------
 1/38=1,62=5,172=1/1;
 2/12=2,15=1,17=6,18=5,40=1/2;
 1/38=1,53=2,62=5,63=1/22;
 3/5=4,6=6,7=112,11=2,25=1,30=1,74=-55,124=31/1,2,3;
 4//1;
 5/5=2,38=5/2;
 6/7=2,8=2,9=2,10=2,28=1/1;
 1/53=2,62=5,63=1/22;
 3/5=7,6=11,7=112,11=2,25=1,30=1,74=-55,82=7,124=31/1,2,3;
 4//1;
 5/5=2,38=5/2;
 6/7=2,8=2,9=2,10=2,28=1/1;
 1/53=2,62=5,63=1/22(-4);
 99/5=1,9=1/99;
 Leave Link    1 at Mon Feb 20 01:08:57 2023, MaxMem=  6710886400 cpu:               0.6 elap:               0.0
 (Enter /data0/home/software/g16/l101.exe)
 -------------------
 Title Card Required
 -------------------
 Symbolic Z-matrix:
 Charge =  0 Multiplicity = 1 in supermolecule
 Charge =  0 Multiplicity = 1 in fragment      1.
 Charge =  0 Multiplicity = 1 in fragment      2.
 Charge =  0 Multiplicity = 1 in fragment      3.
 Charge =  0 Multiplicity = 1 in fragment      4.
 Charge =  0 Multiplicity = 1 in fragment      5.
 P                     12.74805   8.79265   8.23733    
 O                     12.56458   9.92173   9.16071    
 O                     14.17187   8.12024   8.45264    
 H                     14.24093   7.33645   7.7794     
 O                     11.72712   7.59615   8.46561    
 H                     10.82158   7.82884   7.97304    
 O                     12.70255   9.14065   6.69383    
 H                     11.73977   9.55435   6.47838    
 O                     7.45828   7.41434   8.90019    
 H                     8.15869   7.84122   8.31747    
 H                     7.38359   6.5323    8.55685    
 O                     7.60697   7.8119    11.64657    
 H                     7.05606   7.13166   12.01808    
 H                     7.56939   7.66199   10.67788    
 O                     10.21534   14.22797   9.24931    
 H                     10.69571   13.63467   8.63385    
 H                     10.2629   15.08871   8.84871    
 O                     11.50995   12.46849   7.61863    
 H                     12.16919   11.9105   8.04322    
 H                     10.99326   11.83123   7.08059    
 
 ITRead=  0  0  0  0  0  0  0  0  0  0  0  0  0  0  0  0  0  0  0  0
 MicOpt= -1 -1 -1 -1 -1 -1 -1 -1 -1 -1 -1 -1 -1 -1 -1 -1 -1 -1 -1 -1
 NAtoms=     20 NQM=       20 NQMF=       0 NMMI=      0 NMMIF=      0
                NMic=       0 NMicF=      0.
                    Isotopes and Nuclear Properties:
 (Nuclear quadrupole moments (NQMom) in fm**2, nuclear magnetic moments (NMagM)
  in nuclear magnetons)

  Atom         1           2           3           4           5           6           7           8           9          10
 IAtWgt=          31          16          16           1          16           1          16           1          16           1
 AtmWgt=  30.9737634  15.9949146  15.9949146   1.0078250  15.9949146   1.0078250  15.9949146   1.0078250  15.9949146   1.0078250
 NucSpn=           1           0           0           1           0           1           0           1           0           1
 AtZEff=  -0.0000000  -0.0000000  -0.0000000  -0.0000000  -0.0000000  -0.0000000  -0.0000000  -0.0000000  -0.0000000  -0.0000000
 NQMom=    0.0000000   0.0000000   0.0000000   0.0000000   0.0000000   0.0000000   0.0000000   0.0000000   0.0000000   0.0000000
 NMagM=    1.1316000   0.0000000   0.0000000   2.7928460   0.0000000   2.7928460   0.0000000   2.7928460   0.0000000   2.7928460
 AtZNuc=  15.0000000   8.0000000   8.0000000   1.0000000   8.0000000   1.0000000   8.0000000   1.0000000   8.0000000   1.0000000

  Atom        11          12          13          14          15          16          17          18          19          20
 IAtWgt=           1          16           1           1          16           1           1          16           1           1
 AtmWgt=   1.0078250  15.9949146   1.0078250   1.0078250  15.9949146   1.0078250   1.0078250  15.9949146   1.0078250   1.0078250
 NucSpn=           1           0           1           1           0           1           1           0           1           1
 AtZEff=  -0.0000000  -0.0000000  -0.0000000  -0.0000000  -0.0000000  -0.0000000  -0.0000000  -0.0000000  -0.0000000  -0.0000000
 NQMom=    0.0000000   0.0000000   0.0000000   0.0000000   0.0000000   0.0000000   0.0000000   0.0000000   0.0000000   0.0000000
 NMagM=    2.7928460   0.0000000   2.7928460   2.7928460   0.0000000   2.7928460   2.7928460   0.0000000   2.7928460   2.7928460
 AtZNuc=   1.0000000   8.0000000   1.0000000   1.0000000   8.0000000   1.0000000   1.0000000   8.0000000   1.0000000   1.0000000
 Leave Link  101 at Mon Feb 20 01:08:57 2023, MaxMem=  6710886400 cpu:               1.9 elap:               0.1
 (Enter /data0/home/software/g16/l202.exe)
                          Input orientation:                          
 ---------------------------------------------------------------------
 Center     Atomic      Atomic             Coordinates (Angstroms)
 Number     Number       Type             X           Y           Z
 ---------------------------------------------------------------------
      1         15           0       12.748051    8.792650    8.237331
      2          8           0       12.564578    9.921727    9.160709
      3          8           0       14.171871    8.120238    8.452644
      4          1           0       14.240930    7.336449    7.779402
      5          8           0       11.727118    7.596153    8.465613
      6          1           0       10.821583    7.828835    7.973039
      7          8           0       12.702548    9.140649    6.693832
      8          1           0       11.739772    9.554351    6.478378
      9          8           0        7.458277    7.414336    8.900192
     10          1           0        8.158694    7.841221    8.317467
     11          1           0        7.383589    6.532304    8.556848
     12          8           0        7.606974    7.811896   11.646565
     13          1           0        7.056062    7.131659   12.018078
     14          1           0        7.569385    7.661994   10.677885
     15          8           0       10.215343   14.227969    9.249310
     16          1           0       10.695707   13.634674    8.633848
     17          1           0       10.262904   15.088710    8.848714
     18          8           0       11.509952   12.468491    7.618632
     19          1           0       12.169194   11.910498    8.043222
     20          1           0       10.993259   11.831229    7.080589
 ---------------------------------------------------------------------
                    Distance matrix (angstroms):
                    1          2          3          4          5
     1  P    0.000000
     2  O    1.470069   0.000000
     3  O    1.589264   2.515971   0.000000
     4  H    2.135160   3.376659   1.035543   0.000000
     5  O    1.589346   2.567643   2.500330   2.618699   0.000000
     6  H    2.170269   2.971328   3.396964   3.460039   1.056770
     7  O    1.582897   2.591255   2.508699   2.607723   2.544826
     8  H    2.165809   2.830224   3.445216   3.587136   2.789947
     9  O    5.506437   5.694663   6.765422   6.875072   4.294755
    10  H    4.687626   4.944833   6.021164   6.126818   3.579896
    11  H    5.829984   6.220569   6.972314   6.947964   4.472845
    12  O    6.246233   5.933692   7.307125   7.693528   5.209663
    13  H    7.032189   6.803880   8.020246   8.344498   5.886810
    14  H    5.835518   5.688600   6.982443   7.281256   4.710120
    15  O    6.081234   4.906167   7.320736   8.115358   6.846943
    16  H    5.273949   4.190016   6.521162   7.277797   6.128283
    17  H    6.796331   5.665047   7.999781   8.778705   7.643893
    18  O    3.927784   3.158519   5.166110   5.815664   4.950173
    19  H    3.177063   2.315236   4.306322   5.028282   4.357455
    20  H    3.694633   3.231430   5.075191   5.589164   4.515829
                    6          7          8          9         10
     6  H    0.000000
     7  O    2.625882   0.000000
     8  H    2.460587   1.069817   0.000000
     9  O    3.513296   5.945634   5.364331   0.000000
    10  H    2.685100   4.997130   4.375064   1.006173   0.000000
    11  H    3.720434   6.210122   5.694659   0.949444   1.539920
    12  O    4.881474   7.229109   6.842976   2.778980   3.374633
    13  H    5.570237   8.016635   7.648193   3.156406   3.926041
    14  H    4.233299   6.663967   6.213614   1.798297   2.439463
    15  O    6.553267   6.212687   5.643107   7.358593   6.774119
    16  H    5.844680   5.290306   4.731296   7.017442   6.332506
    17  H    7.333806   6.780473   6.199094   8.170961   7.565449
    18  O    4.703814   3.654049   3.137708   6.603253   5.755947
    19  H    4.298948   3.126881   2.860869   6.568303   5.719994
    20  H    4.104278   3.210992   2.470650   5.942726   5.048246
                   11         12         13         14         15
    11  H    0.000000
    12  O    3.351657   0.000000
    13  H    3.527976   0.950920   0.000000
    14  H    2.410294   0.980930   1.529991   0.000000
    15  O    8.229313   7.329148   8.246499   7.221769   0.000000
    16  H    7.837073   7.247170   8.184695   7.044493   0.980582
    17  H    9.032592   8.236137   9.145675   8.109070   0.950586
    18  O    7.290092   7.289812   8.226423   6.927446   2.725965
    19  H    7.217395   7.113120   8.048658   6.793341   3.262339
    20  H    6.579336   6.962047   7.871866   6.484287   3.324585
                   16         17         18         19         20
    16  H    0.000000
    17  H    1.532223   0.000000
    18  O    1.747467   3.151790   0.000000
    19  H    2.343669   3.792597   0.962410   0.000000
    20  H    2.398659   3.777680   0.981104   1.521765   0.000000
 Symmetry turned off by external request.
 Stoichiometry    H11O8P
 Framework group  C1[X(H11O8P)]
 Deg. of freedom    54
 Full point group                 C1      NOp   1
 Rotational constants (GHZ):           0.5650445           0.4545991           0.2903614
 Leave Link  202 at Mon Feb 20 01:08:57 2023, MaxMem=  6710886400 cpu:               0.1 elap:               0.0
 (Enter /data0/home/software/g16/l122.exe)
 Counterpoise: doing full-system calculation.
 Leave Link  122 at Mon Feb 20 01:08:57 2023, MaxMem=  6710886400 cpu:               0.0 elap:               0.0
 (Enter /data0/home/software/g16/l301.exe)
 Standard basis: 6-311+G(2d,p) (5D, 7F)
 Ernie: Thresh=  0.10000D-02 Tol=  0.10000D-05 Strict=F.
   317 basis functions,   480 primitive gaussians,   335 cartesian basis functions
    45 alpha electrons       45 beta electrons
       nuclear repulsion energy       586.0677001362 Hartrees.
 IExCor= 4336 DFT=T Ex+Corr=M062X ExCW=0 ScaHFX=  0.540000
 ScaDFX=  1.000000  1.000000  1.000000  1.000000 ScalE2=  1.000000  1.000000
 IRadAn=      5 IRanWt=     -1 IRanGd=            0 ICorTp=0 IEmpDi=131
 NAtoms=   20 NActive=   20 NUniq=   20 SFac= 1.00D+00 NAtFMM=   60 NAOKFM=F Big=F
 Integral buffers will be    131072 words long.
 Raffenetti 2 integral format.
 Two-electron integral symmetry is turned off.
 R6Disp:  Grimme-D3 Dispersion energy=       -0.0006026709 Hartrees.
 Nuclear repulsion after empirical dispersion term =      586.0670974653 Hartrees.
 Leave Link  301 at Mon Feb 20 01:08:57 2023, MaxMem=  6710886400 cpu:               1.1 elap:               0.1
 (Enter /data0/home/software/g16/l302.exe)
 NPDir=0 NMtPBC=     1 NCelOv=     1 NCel=       1 NClECP=     1 NCelD=      1
         NCelK=      1 NCelE2=     1 NClLst=     1 CellRange=     0.0.
 One-electron integrals computed using PRISM.
 NBasis=   317 RedAO= T EigKep=  4.96D-04  NBF=   317
 NBsUse=   317 1.00D-06 EigRej= -1.00D+00 NBFU=   317
 Precomputing XC quadrature grid using
 IXCGrd= 4 IRadAn=           5 IRanWt=          -1 IRanGd=           0 AccXCQ= 0.00D+00.
 Generated NRdTot=       0 NPtTot=           0 NUsed=           0 NTot=          32
 NSgBfM=   318   318   318   318   318 MxSgAt=    20 MxSgA2=    20.
 Leave Link  302 at Mon Feb 20 01:08:57 2023, MaxMem=  6710886400 cpu:               5.1 elap:               0.2
 (Enter /data0/home/software/g16/l303.exe)
 DipDrv:  MaxL=1.
 Leave Link  303 at Mon Feb 20 01:08:57 2023, MaxMem=  6710886400 cpu:               0.7 elap:               0.0
 (Enter /data0/home/software/g16/l401.exe)
 ExpMin= 3.48D-02 ExpMax= 7.75D+04 ExpMxC= 2.65D+03 IAcc=3 IRadAn=         5 AccDes= 0.00D+00
 Harris functional with IExCor= 1009 and IRadAn=       5 diagonalized for initial guess.
 HarFok:  IExCor= 1009 AccDes= 0.00D+00 IRadAn=         5 IDoV= 1 UseB2=F ITyADJ=14
 ICtDFT=  3500011 ScaDFX=  1.000000  1.000000  1.000000  1.000000
 FoFCou: FMM=F IPFlag=           0 FMFlag=      100000 FMFlg1=           0
         NFxFlg=           0 DoJE=T BraDBF=F KetDBF=T FulRan=T
         wScrn=  0.000000 ICntrl=       500 IOpCl=  0 I1Cent=   200000004 NGrid=           0
         NMat0=    1 NMatS0=      1 NMatT0=    0 NMatD0=    1 NMtDS0=    0 NMtDT0=    0
 Symmetry not used in FoFCou.
 Harris En= -949.607460658842    
 JPrj=0 DoOrth=F DoCkMO=F.
 Leave Link  401 at Mon Feb 20 01:08:58 2023, MaxMem=  6710886400 cpu:              14.4 elap:               0.6
 (Enter /data0/home/software/g16/l502.exe)
 Two-electron integral symmetry not used.
 Closed shell SCF:
 Using DIIS extrapolation, IDIIS=  1040.
 NGot=  6710886400 LenX=  6710651443 LenY=  6710538777
 Requested convergence on RMS density matrix=1.00D-08 within 128 cycles.
 Requested convergence on MAX density matrix=1.00D-06.
 Requested convergence on             energy=1.00D-06.
 No special actions if energy rises.
 Fock matrices will be formed incrementally for  20 cycles.

 Cycle   1  Pass 1  IDiag  1:
 FoFJK:  IHMeth= 1 ICntrl=       0 DoSepK=F KAlg= 0 I1Cent=           0 FoldK=F
 IRaf= 760000000 NMat=       1 IRICut=       1 DoRegI=T DoRafI=F ISym2E= 0 IDoP0=0 IntGTp=1.
 FoFCou: FMM=F IPFlag=           0 FMFlag=      100000 FMFlg1=           0
         NFxFlg=           0 DoJE=F BraDBF=F KetDBF=F FulRan=T
         wScrn=  0.000000 ICntrl=         0 IOpCl=  0 I1Cent=           0 NGrid=           0
         NMat0=    1 NMatS0=      1 NMatT0=    0 NMatD0=    1 NMtDS0=    0 NMtDT0=    0
 Symmetry not used in FoFCou.
 E= -949.256650458142    
 DIIS: error= 6.25D-02 at cycle   1 NSaved=   1.
 NSaved= 1 IEnMin= 1 EnMin= -949.256650458142     IErMin= 1 ErrMin= 6.25D-02
 ErrMax= 6.25D-02  0.00D+00 EMaxC= 1.00D-01 BMatC= 9.68D-01 BMatP= 9.68D-01
 IDIUse=3 WtCom= 3.75D-01 WtEn= 6.25D-01
 Coeff-Com:  0.100D+01
 Coeff-En:   0.100D+01
 Coeff:      0.100D+01
 Gap=     0.219 Goal=   None    Shift=    0.000
 GapD=    0.219 DampG=1.000 DampE=0.500 DampFc=0.5000 IDamp=-1.
 Damping current iteration by 5.00D-01
 RMSDP=5.34D-03 MaxDP=3.03D-01              OVMax= 2.64D-01

 Cycle   2  Pass 1  IDiag  1:
 RMSU=  2.67D-03    CP:  9.96D-01
 E= -949.494412257829     Delta-E=       -0.237761799687 Rises=F Damp=T
 DIIS: error= 9.46D-03 at cycle   2 NSaved=   2.
 NSaved= 2 IEnMin= 2 EnMin= -949.494412257829     IErMin= 2 ErrMin= 9.46D-03
 ErrMax= 9.46D-03  0.00D+00 EMaxC= 1.00D-01 BMatC= 4.56D-02 BMatP= 9.68D-01
 IDIUse=3 WtCom= 9.05D-01 WtEn= 9.46D-02
 Coeff-Com:  0.735D-01 0.926D+00
 Coeff-En:   0.191D+00 0.809D+00
 Coeff:      0.847D-01 0.915D+00
 Gap=     0.276 Goal=   None    Shift=    0.000
 RMSDP=1.20D-03 MaxDP=9.55D-02 DE=-2.38D-01 OVMax= 1.69D-01

 Cycle   3  Pass 1  IDiag  1:
 RMSU=  8.19D-04    CP:  9.93D-01  6.71D-01
 E= -949.827886342308     Delta-E=       -0.333474084480 Rises=F Damp=F
 DIIS: error= 4.74D-03 at cycle   3 NSaved=   3.
 NSaved= 3 IEnMin= 3 EnMin= -949.827886342308     IErMin= 3 ErrMin= 4.74D-03
 ErrMax= 4.74D-03  0.00D+00 EMaxC= 1.00D-01 BMatC= 1.11D-02 BMatP= 4.56D-02
 IDIUse=3 WtCom= 9.53D-01 WtEn= 4.74D-02
 Coeff-Com: -0.146D-01 0.264D+00 0.750D+00
 Coeff-En:   0.000D+00 0.000D+00 0.100D+01
 Coeff:     -0.139D-01 0.252D+00 0.762D+00
 Gap=     0.279 Goal=   None    Shift=    0.000
 RMSDP=4.21D-04 MaxDP=1.83D-02 DE=-3.33D-01 OVMax= 4.15D-02

 Cycle   4  Pass 1  IDiag  1:
 RMSU=  3.55D-04    CP:  9.94D-01  7.43D-01  8.60D-01
 E= -949.831143497583     Delta-E=       -0.003257155274 Rises=F Damp=F
 DIIS: error= 3.82D-03 at cycle   4 NSaved=   4.
 NSaved= 4 IEnMin= 4 EnMin= -949.831143497583     IErMin= 4 ErrMin= 3.82D-03
 ErrMax= 3.82D-03  0.00D+00 EMaxC= 1.00D-01 BMatC= 6.84D-03 BMatP= 1.11D-02
 IDIUse=3 WtCom= 9.62D-01 WtEn= 3.82D-02
 Coeff-Com: -0.192D-01 0.376D-01 0.463D+00 0.518D+00
 Coeff-En:   0.000D+00 0.000D+00 0.380D+00 0.620D+00
 Coeff:     -0.185D-01 0.362D-01 0.460D+00 0.522D+00
 Gap=     0.278 Goal=   None    Shift=    0.000
 RMSDP=1.99D-04 MaxDP=9.14D-03 DE=-3.26D-03 OVMax= 1.70D-02

 Cycle   5  Pass 1  IDiag  1:
 RMSU=  5.36D-05    CP:  9.93D-01  7.15D-01  9.67D-01  5.73D-01
 E= -949.835754169064     Delta-E=       -0.004610671481 Rises=F Damp=F
 DIIS: error= 4.01D-04 at cycle   5 NSaved=   5.
 NSaved= 5 IEnMin= 5 EnMin= -949.835754169064     IErMin= 5 ErrMin= 4.01D-04
 ErrMax= 4.01D-04  0.00D+00 EMaxC= 1.00D-01 BMatC= 2.47D-05 BMatP= 6.84D-03
 IDIUse=3 WtCom= 9.96D-01 WtEn= 4.01D-03
 Coeff-Com: -0.226D-02-0.243D-03 0.712D-01 0.107D+00 0.824D+00
 Coeff-En:   0.000D+00 0.000D+00 0.000D+00 0.000D+00 0.100D+01
 Coeff:     -0.225D-02-0.242D-03 0.709D-01 0.107D+00 0.825D+00
 Gap=     0.280 Goal=   None    Shift=    0.000
 RMSDP=1.68D-05 MaxDP=5.56D-04 DE=-4.61D-03 OVMax= 8.63D-04

 Cycle   6  Pass 1  IDiag  1:
 RMSU=  1.21D-05    CP:  9.93D-01  7.12D-01  9.70D-01  5.95D-01  1.07D+00
 E= -949.835769307354     Delta-E=       -0.000015138290 Rises=F Damp=F
 DIIS: error= 1.16D-04 at cycle   6 NSaved=   6.
 NSaved= 6 IEnMin= 6 EnMin= -949.835769307354     IErMin= 6 ErrMin= 1.16D-04
 ErrMax= 1.16D-04  0.00D+00 EMaxC= 1.00D-01 BMatC= 3.84D-06 BMatP= 2.47D-05
 IDIUse=3 WtCom= 9.99D-01 WtEn= 1.16D-03
 Coeff-Com:  0.234D-03-0.204D-02 0.106D-02 0.108D-01 0.296D+00 0.694D+00
 Coeff-En:   0.000D+00 0.000D+00 0.000D+00 0.000D+00 0.000D+00 0.100D+01
 Coeff:      0.233D-03-0.204D-02 0.106D-02 0.108D-01 0.296D+00 0.694D+00
 Gap=     0.279 Goal=   None    Shift=    0.000
 RMSDP=8.30D-06 MaxDP=5.24D-04 DE=-1.51D-05 OVMax= 3.45D-04

 Cycle   7  Pass 1  IDiag  1:
 RMSU=  4.32D-06    CP:  9.93D-01  7.11D-01  9.72D-01  5.97D-01  1.16D+00
                    CP:  8.39D-01
 E= -949.835771816645     Delta-E=       -0.000002509291 Rises=F Damp=F
 DIIS: error= 5.42D-05 at cycle   7 NSaved=   7.
 NSaved= 7 IEnMin= 7 EnMin= -949.835771816645     IErMin= 7 ErrMin= 5.42D-05
 ErrMax= 5.42D-05  0.00D+00 EMaxC= 1.00D-01 BMatC= 6.81D-07 BMatP= 3.84D-06
 IDIUse=1 WtCom= 1.00D+00 WtEn= 0.00D+00
 Coeff-Com:  0.439D-03-0.704D-03-0.116D-01-0.136D-01-0.190D-01 0.295D+00
 Coeff-Com:  0.750D+00
 Coeff:      0.439D-03-0.704D-03-0.116D-01-0.136D-01-0.190D-01 0.295D+00
 Coeff:      0.750D+00
 Gap=     0.280 Goal=   None    Shift=    0.000
 RMSDP=3.08D-06 MaxDP=1.36D-04 DE=-2.51D-06 OVMax= 1.46D-04

 Cycle   8  Pass 1  IDiag  1:
 RMSU=  1.80D-06    CP:  9.93D-01  7.10D-01  9.72D-01  5.98D-01  1.18D+00
                    CP:  9.37D-01  8.35D-01
 E= -949.835772302424     Delta-E=       -0.000000485778 Rises=F Damp=F
 DIIS: error= 8.24D-06 at cycle   8 NSaved=   8.
 NSaved= 8 IEnMin= 8 EnMin= -949.835772302424     IErMin= 8 ErrMin= 8.24D-06
 ErrMax= 8.24D-06  0.00D+00 EMaxC= 1.00D-01 BMatC= 3.56D-08 BMatP= 6.81D-07
 IDIUse=1 WtCom= 1.00D+00 WtEn= 0.00D+00
 Coeff-Com:  0.140D-03-0.172D-03-0.435D-02-0.524D-02-0.152D-01 0.809D-01
 Coeff-Com:  0.285D+00 0.659D+00
 Coeff:      0.140D-03-0.172D-03-0.435D-02-0.524D-02-0.152D-01 0.809D-01
 Coeff:      0.285D+00 0.659D+00
 Gap=     0.280 Goal=   None    Shift=    0.000
 RMSDP=5.71D-07 MaxDP=2.97D-05 DE=-4.86D-07 OVMax= 3.89D-05

 Cycle   9  Pass 1  IDiag  1:
 RMSU=  4.13D-07    CP:  9.93D-01  7.10D-01  9.72D-01  5.98D-01  1.19D+00
                    CP:  9.51D-01  8.99D-01  8.89D-01
 E= -949.835772330691     Delta-E=       -0.000000028268 Rises=F Damp=F
 DIIS: error= 2.10D-06 at cycle   9 NSaved=   9.
 NSaved= 9 IEnMin= 9 EnMin= -949.835772330691     IErMin= 9 ErrMin= 2.10D-06
 ErrMax= 2.10D-06  0.00D+00 EMaxC= 1.00D-01 BMatC= 2.56D-09 BMatP= 3.56D-08
 IDIUse=1 WtCom= 1.00D+00 WtEn= 0.00D+00
 Coeff-Com: -0.170D-04 0.384D-04 0.293D-04 0.919D-04-0.197D-02-0.109D-01
 Coeff-Com: -0.332D-02 0.176D+00 0.840D+00
 Coeff:     -0.170D-04 0.384D-04 0.293D-04 0.919D-04-0.197D-02-0.109D-01
 Coeff:     -0.332D-02 0.176D+00 0.840D+00
 Gap=     0.280 Goal=   None    Shift=    0.000
 RMSDP=2.36D-07 MaxDP=1.19D-05 DE=-2.83D-08 OVMax= 1.54D-05

 Cycle  10  Pass 1  IDiag  1:
 RMSU=  1.19D-07    CP:  9.93D-01  7.10D-01  9.72D-01  5.98D-01  1.19D+00
                    CP:  9.52D-01  9.09D-01  9.70D-01  9.97D-01
 E= -949.835772332913     Delta-E=       -0.000000002222 Rises=F Damp=F
 DIIS: error= 1.89D-06 at cycle  10 NSaved=  10.
 NSaved=10 IEnMin=10 EnMin= -949.835772332913     IErMin=10 ErrMin= 1.89D-06
 ErrMax= 1.89D-06  0.00D+00 EMaxC= 1.00D-01 BMatC= 5.82D-10 BMatP= 2.56D-09
 IDIUse=1 WtCom= 1.00D+00 WtEn= 0.00D+00
 Coeff-Com: -0.207D-04 0.354D-04 0.381D-03 0.476D-03-0.144D-03-0.131D-01
 Coeff-Com: -0.273D-01 0.265D-01 0.404D+00 0.610D+00
 Coeff:     -0.207D-04 0.354D-04 0.381D-03 0.476D-03-0.144D-03-0.131D-01
 Coeff:     -0.273D-01 0.265D-01 0.404D+00 0.610D+00
 Gap=     0.280 Goal=   None    Shift=    0.000
 RMSDP=8.18D-08 MaxDP=4.40D-06 DE=-2.22D-09 OVMax= 4.54D-06

 Cycle  11  Pass 1  IDiag  1:
 RMSU=  4.51D-08    CP:  9.93D-01  7.10D-01  9.72D-01  5.98D-01  1.19D+00
                    CP:  9.52D-01  9.13D-01  9.87D-01  1.10D+00  9.23D-01
 E= -949.835772333347     Delta-E=       -0.000000000434 Rises=F Damp=F
 DIIS: error= 1.51D-07 at cycle  11 NSaved=  11.
 NSaved=11 IEnMin=11 EnMin= -949.835772333347     IErMin=11 ErrMin= 1.51D-07
 ErrMax= 1.51D-07  0.00D+00 EMaxC= 1.00D-01 BMatC= 1.51D-11 BMatP= 5.82D-10
 IDIUse=1 WtCom= 1.00D+00 WtEn= 0.00D+00
 Coeff-Com:  0.975D-06-0.156D-05 0.264D-04 0.292D-04 0.208D-03-0.306D-03
 Coeff-Com: -0.322D-02-0.143D-01-0.378D-01 0.802D-01 0.975D+00
 Coeff:      0.975D-06-0.156D-05 0.264D-04 0.292D-04 0.208D-03-0.306D-03
 Coeff:     -0.322D-02-0.143D-01-0.378D-01 0.802D-01 0.975D+00
 Gap=     0.280 Goal=   None    Shift=    0.000
 RMSDP=2.66D-08 MaxDP=9.56D-07 DE=-4.34D-10 OVMax= 2.32D-06

 Cycle  12  Pass 1  IDiag  1:
 RMSU=  1.25D-08    CP:  9.93D-01  7.10D-01  9.72D-01  5.98D-01  1.19D+00
                    CP:  9.52D-01  9.13D-01  9.93D-01  1.13D+00  1.04D+00
                    CP:  1.12D+00
 E= -949.835772333368     Delta-E=       -0.000000000021 Rises=F Damp=F
 DIIS: error= 7.52D-08 at cycle  12 NSaved=  12.
 NSaved=12 IEnMin=12 EnMin= -949.835772333368     IErMin=12 ErrMin= 7.52D-08
 ErrMax= 7.52D-08  0.00D+00 EMaxC= 1.00D-01 BMatC= 1.43D-12 BMatP= 1.51D-11
 IDIUse=1 WtCom= 1.00D+00 WtEn= 0.00D+00
 Coeff-Com:  0.119D-05-0.203D-05-0.652D-05-0.837D-05 0.721D-04 0.479D-03
 Coeff-Com:  0.305D-03-0.504D-02-0.284D-01-0.666D-02 0.285D+00 0.754D+00
 Coeff:      0.119D-05-0.203D-05-0.652D-05-0.837D-05 0.721D-04 0.479D-03
 Coeff:      0.305D-03-0.504D-02-0.284D-01-0.666D-02 0.285D+00 0.754D+00
 Gap=     0.280 Goal=   None    Shift=    0.000
 RMSDP=5.78D-09 MaxDP=2.26D-07 DE=-2.09D-11 OVMax= 4.38D-07

 SCF Done:  E(RM062X) =  -949.835772333     A.U. after   12 cycles
            NFock= 12  Conv=0.58D-08     -V/T= 2.0027
 KE= 9.473228845954D+02 PE=-3.422085635997D+03 EE= 9.388598816028D+02
 Leave Link  502 at Mon Feb 20 01:09:15 2023, MaxMem=  6710886400 cpu:             422.4 elap:              17.7
 (Enter /data0/home/software/g16/l601.exe)
 Copying SCF densities to generalized density rwf, IOpCl= 0 IROHF=0.

 **********************************************************************

            Population analysis using the SCF density.

 **********************************************************************

 Alpha  occ. eigenvalues --  -78.19265 -19.72304 -19.71238 -19.70253 -19.67912
 Alpha  occ. eigenvalues --  -19.64747 -19.60615 -19.58747 -19.57245  -7.00056
 Alpha  occ. eigenvalues --   -5.11978  -5.11950  -5.11716  -1.27024  -1.19833
 Alpha  occ. eigenvalues --   -1.18990  -1.18264  -1.15510  -1.10905  -1.09881
 Alpha  occ. eigenvalues --   -1.08397  -0.75064  -0.68210  -0.66013  -0.65314
 Alpha  occ. eigenvalues --   -0.62395  -0.61344  -0.58978  -0.57610  -0.55839
 Alpha  occ. eigenvalues --   -0.54285  -0.52433  -0.52200  -0.50404  -0.48453
 Alpha  occ. eigenvalues --   -0.47606  -0.47408  -0.45782  -0.43128  -0.42972
 Alpha  occ. eigenvalues --   -0.41140  -0.40369  -0.39460  -0.36608  -0.35255
 Alpha virt. eigenvalues --   -0.07290  -0.01269  -0.01014   0.03209   0.04313
 Alpha virt. eigenvalues --    0.05174   0.06979   0.07938   0.08848   0.09938
 Alpha virt. eigenvalues --    0.10479   0.11510   0.11915   0.12662   0.13864
 Alpha virt. eigenvalues --    0.15413   0.15765   0.16010   0.16311   0.16828
 Alpha virt. eigenvalues --    0.17257   0.17560   0.18420   0.19240   0.19769
 Alpha virt. eigenvalues --    0.20156   0.20654   0.20933   0.21431   0.21760
 Alpha virt. eigenvalues --    0.22504   0.23699   0.23960   0.24739   0.25462
 Alpha virt. eigenvalues --    0.25767   0.26136   0.26463   0.26717   0.27821
 Alpha virt. eigenvalues --    0.28571   0.30131   0.30708   0.32629   0.33249
 Alpha virt. eigenvalues --    0.33893   0.34317   0.35648   0.36249   0.36894
 Alpha virt. eigenvalues --    0.39281   0.40683   0.42808   0.44330   0.45103
 Alpha virt. eigenvalues --    0.47357   0.49672   0.50463   0.52703   0.53814
 Alpha virt. eigenvalues --    0.55626   0.56555   0.56797   0.57975   0.62255
 Alpha virt. eigenvalues --    0.64665   0.66199   0.72738   0.74836   0.75167
 Alpha virt. eigenvalues --    0.83973   0.93287   0.96199   0.96581   0.98373
 Alpha virt. eigenvalues --    0.98648   1.00787   1.01959   1.02555   1.02844
 Alpha virt. eigenvalues --    1.04140   1.05151   1.06725   1.08647   1.09054
 Alpha virt. eigenvalues --    1.10406   1.10811   1.11553   1.12187   1.12594
 Alpha virt. eigenvalues --    1.13007   1.14992   1.16152   1.17239   1.17668
 Alpha virt. eigenvalues --    1.18524   1.19814   1.20848   1.21613   1.24324
 Alpha virt. eigenvalues --    1.24689   1.25681   1.26143   1.26817   1.26966
 Alpha virt. eigenvalues --    1.27914   1.30833   1.31419   1.33341   1.36414
 Alpha virt. eigenvalues --    1.37606   1.38222   1.38769   1.39560   1.40808
 Alpha virt. eigenvalues --    1.43240   1.48756   1.49000   1.50711   1.51485
 Alpha virt. eigenvalues --    1.52967   1.54865   1.57926   1.60246   1.62053
 Alpha virt. eigenvalues --    1.63060   1.65244   1.66129   1.67889   1.70524
 Alpha virt. eigenvalues --    1.71339   1.71863   1.72748   1.73667   1.76149
 Alpha virt. eigenvalues --    1.77961   1.79921   1.80706   1.81263   1.82129
 Alpha virt. eigenvalues --    1.83383   1.83602   1.86040   1.89073   1.94797
 Alpha virt. eigenvalues --    1.98245   1.98536   2.00178   2.02012   2.04148
 Alpha virt. eigenvalues --    2.05787   2.07790   2.09480   2.11947   2.12100
 Alpha virt. eigenvalues --    2.12645   2.13956   2.18032   2.19362   2.20485
 Alpha virt. eigenvalues --    2.22070   2.23496   2.24189   2.33581   2.34302
 Alpha virt. eigenvalues --    2.37394   2.39883   2.42307   2.42846   2.44365
 Alpha virt. eigenvalues --    2.45972   2.51596   2.52628   2.55168   2.55910
 Alpha virt. eigenvalues --    2.56952   2.60362   2.60780   2.64019   2.64285
 Alpha virt. eigenvalues --    2.67434   2.68920   2.72503   2.80093   2.83801
 Alpha virt. eigenvalues --    2.84799   2.88918   2.89512   2.92931   2.96234
 Alpha virt. eigenvalues --    2.98103   2.99822   3.04049   3.12291   3.15820
 Alpha virt. eigenvalues --    5.00122   5.02569   5.03800   5.04758   5.05198
 Alpha virt. eigenvalues --    5.08450   5.10163   5.10548   5.11578   5.13286
 Alpha virt. eigenvalues --    5.18319   5.23762   5.32971   5.41270   5.44778
 Alpha virt. eigenvalues --    5.46917   5.49556   5.51455   5.52785   5.55821
 Alpha virt. eigenvalues --    5.84314   5.88942   5.98983   6.01442   6.69792
 Alpha virt. eigenvalues --    6.71661   6.73306   6.75114   6.75434   6.76235
 Alpha virt. eigenvalues --    6.78199   6.78451   6.79579   6.80457   6.81109
 Alpha virt. eigenvalues --    6.82737   6.82797   6.83366   6.83506   6.85567
 Alpha virt. eigenvalues --    6.85965   6.87353   6.89496   6.89603   6.90806
 Alpha virt. eigenvalues --    6.92263   6.92415   6.95358   6.95940   6.96817
 Alpha virt. eigenvalues --    6.97921   6.99525   7.00060   7.03340   7.05434
 Alpha virt. eigenvalues --    7.08537   7.09950   7.19514   7.22318   7.22833
 Alpha virt. eigenvalues --    7.23825   7.26075   7.29657   7.38406   7.62386
 Alpha virt. eigenvalues --   14.21286  14.22415  14.32008  49.92608  49.95712
 Alpha virt. eigenvalues --   49.96806  49.98102  49.99174  50.03411  50.05699
 Alpha virt. eigenvalues --   50.08413 163.84684
          Condensed to atoms (all electrons):
               1          2          3          4          5          6
     1  P   12.623399   0.512692   0.131033   0.040850   0.232271   0.014568
     2  O    0.512692   8.166432  -0.022739  -0.001587  -0.004245  -0.014560
     3  O    0.131033  -0.022739   8.124958   0.218324  -0.008187  -0.001700
     4  H    0.040850  -0.001587   0.218324   0.453914  -0.010359   0.002578
     5  O    0.232271  -0.004245  -0.008187  -0.010359   8.010783   0.230595
     6  H    0.014568  -0.014560  -0.001700   0.002578   0.230595   0.496034
     7  O    0.228657  -0.016657   0.017403  -0.015522   0.031003  -0.004992
     8  H    0.001072  -0.020458   0.001121   0.001888  -0.007867  -0.002041
     9  O    0.000677   0.000123  -0.000044   0.000004  -0.003659   0.008566
    10  H   -0.000071   0.000164   0.000034  -0.000002  -0.000303  -0.000413
    11  H   -0.000157   0.000010  -0.000001  -0.000000   0.000161  -0.000466
    12  O    0.000493  -0.000032   0.000003   0.000000  -0.000185   0.000206
    13  H   -0.000067  -0.000001   0.000000  -0.000000   0.000005  -0.000005
    14  H   -0.000017  -0.000024  -0.000001  -0.000000   0.000291  -0.000662
    15  O    0.000054   0.000123   0.000003  -0.000000   0.000003  -0.000002
    16  H   -0.000635   0.000029   0.000002   0.000000  -0.000015   0.000001
    17  H    0.000000   0.000028   0.000000   0.000000  -0.000001   0.000000
    18  O    0.001330  -0.007728   0.000435  -0.000078  -0.001376  -0.000472
    19  H   -0.001141   0.023380  -0.000462   0.000110   0.000205   0.000316
    20  H   -0.003769   0.004184   0.000137   0.000003  -0.000759  -0.000152
               7          8          9         10         11         12
     1  P    0.228657   0.001072   0.000677  -0.000071  -0.000157   0.000493
     2  O   -0.016657  -0.020458   0.000123   0.000164   0.000010  -0.000032
     3  O    0.017403   0.001121  -0.000044   0.000034  -0.000001   0.000003
     4  H   -0.015522   0.001888   0.000004  -0.000002  -0.000000   0.000000
     5  O    0.031003  -0.007867  -0.003659  -0.000303   0.000161  -0.000185
     6  H   -0.004992  -0.002041   0.008566  -0.000413  -0.000466   0.000206
     7  O    8.049199   0.253520  -0.000129  -0.000013   0.000017  -0.000005
     8  H    0.253520   0.468505   0.000043  -0.000111  -0.000003  -0.000001
     9  O   -0.000129   0.000043   8.074977   0.280147   0.309683   0.018797
    10  H   -0.000013  -0.000111   0.280147   0.440988  -0.018425  -0.000933
    11  H    0.000017  -0.000003   0.309683  -0.018425   0.413500  -0.002226
    12  O   -0.000005  -0.000001   0.018797  -0.000933  -0.002226   8.048814
    13  H    0.000000  -0.000000   0.003385   0.000565  -0.000881   0.300405
    14  H    0.000010   0.000000  -0.090969   0.011555   0.004011   0.285628
    15  O   -0.000021  -0.000009   0.000001  -0.000001  -0.000000  -0.000000
    16  H    0.000353   0.000010  -0.000001   0.000002   0.000000   0.000000
    17  H    0.000002  -0.000002   0.000000   0.000000   0.000000  -0.000000
    18  O    0.007666   0.001991  -0.000000  -0.000006  -0.000000   0.000000
    19  H    0.002650  -0.001244  -0.000000   0.000004   0.000000   0.000001
    20  H    0.004310   0.000812  -0.000006   0.000022  -0.000000   0.000001
              13         14         15         16         17         18
     1  P   -0.000067  -0.000017   0.000054  -0.000635   0.000000   0.001330
     2  O   -0.000001  -0.000024   0.000123   0.000029   0.000028  -0.007728
     3  O    0.000000  -0.000001   0.000003   0.000002   0.000000   0.000435
     4  H   -0.000000  -0.000000  -0.000000   0.000000   0.000000  -0.000078
     5  O    0.000005   0.000291   0.000003  -0.000015  -0.000001  -0.001376
     6  H   -0.000005  -0.000662  -0.000002   0.000001   0.000000  -0.000472
     7  O    0.000000   0.000010  -0.000021   0.000353   0.000002   0.007666
     8  H   -0.000000   0.000000  -0.000009   0.000010  -0.000002   0.001991
     9  O    0.003385  -0.090969   0.000001  -0.000001   0.000000  -0.000000
    10  H    0.000565   0.011555  -0.000001   0.000002   0.000000  -0.000006
    11  H   -0.000881   0.004011  -0.000000   0.000000   0.000000  -0.000000
    12  O    0.300405   0.285628  -0.000000   0.000000  -0.000000   0.000000
    13  H    0.460307  -0.023447   0.000000  -0.000000  -0.000000   0.000000
    14  H   -0.023447   0.398962  -0.000000   0.000000  -0.000000   0.000000
    15  O    0.000000  -0.000000   8.112341   0.261167   0.281821   0.024112
    16  H   -0.000000   0.000000   0.261167   0.397722  -0.013786  -0.099228
    17  H   -0.000000  -0.000000   0.281821  -0.013786   0.470909  -0.000064
    18  O    0.000000   0.000000   0.024112  -0.099228  -0.000064   8.115218
    19  H   -0.000000  -0.000000  -0.002804   0.012496   0.000656   0.287334
    20  H    0.000000  -0.000001  -0.002138   0.009361   0.000579   0.274862
              19         20
     1  P   -0.001141  -0.003769
     2  O    0.023380   0.004184
     3  O   -0.000462   0.000137
     4  H    0.000110   0.000003
     5  O    0.000205  -0.000759
     6  H    0.000316  -0.000152
     7  O    0.002650   0.004310
     8  H   -0.001244   0.000812
     9  O   -0.000000  -0.000006
    10  H    0.000004   0.000022
    11  H    0.000000  -0.000000
    12  O    0.000001   0.000001
    13  H   -0.000000   0.000000
    14  H   -0.000000  -0.000001
    15  O   -0.002804  -0.002138
    16  H    0.012496   0.009361
    17  H    0.000656   0.000579
    18  O    0.287334   0.274862
    19  H    0.366296  -0.020134
    20  H   -0.020134   0.480925
 Mulliken charges:
               1
     1  P    1.218762
     2  O   -0.619134
     3  O   -0.460320
     4  H    0.309877
     5  O   -0.468359
     6  H    0.272602
     7  O   -0.557448
     8  H    0.302776
     9  O   -0.601593
    10  H    0.286798
    11  H    0.294779
    12  O   -0.650966
    13  H    0.259733
    14  H    0.414665
    15  O   -0.674650
    16  H    0.432519
    17  H    0.259856
    18  O   -0.603995
    19  H    0.332337
    20  H    0.251763
 Sum of Mulliken charges =  -0.00000
 Mulliken charges with hydrogens summed into heavy atoms:
               1
     1  P    1.218762
     2  O   -0.619134
     3  O   -0.150443
     5  O   -0.195757
     7  O   -0.254673
     9  O   -0.020017
    12  O    0.023432
    15  O    0.017725
    18  O   -0.019895
         Mulliken charges condensed to fragments:
      1     -0.001244
      2     -0.020017
      3      0.023432
      4      0.017725
      5     -0.019895
 Electronic spatial extent (au):  <R**2>=          97087.8357
 Charge=             -0.0000 electrons
 Dipole moment (field-independent basis, Debye):
    X=             -0.6185    Y=             -7.4332    Z=             -9.3622  Tot=             11.9702
 Quadrupole moment (field-independent basis, Debye-Ang):
   XX=            -77.4962   YY=           -199.3645   ZZ=           -230.6972
   XY=            -79.0408   XZ=           -102.1846   YZ=           -156.4134
 Traceless Quadrupole moment (field-independent basis, Debye-Ang):
   XX=             91.6898   YY=            -30.1785   ZZ=            -61.5112
   XY=            -79.0408   XZ=           -102.1846   YZ=           -156.4134
 Octapole moment (field-independent basis, Debye-Ang**2):
  XXX=          -2368.5087  YYY=          -3719.1922  ZZZ=          -3915.3440  XYY=          -2118.0750
  XXY=          -1513.0256  XXZ=          -1689.7131  XZZ=          -2486.2020  YZZ=          -2815.8316
  YYZ=          -2663.4452  XYZ=          -1615.3094
 Hexadecapole moment (field-independent basis, Debye-Ang**3):
 XXXX=         -53088.6433 YYYY=         -60411.8360 ZZZZ=         -56834.0388 XXXY=         -31437.3500
 XXXZ=         -31161.8856 YYYX=         -39983.6144 YYYZ=         -42074.5886 ZZZX=         -41944.7904
 ZZZY=         -43011.4415 XXYY=         -29922.9902 XXZZ=         -32357.0554 YYZZ=         -38045.9441
 XXYZ=         -22646.6401 YYXZ=         -27571.1853 ZZXY=         -29429.7790
 N-N= 5.860670974653D+02 E-N=-3.422085637846D+03  KE= 9.473228845954D+02
 No NMR shielding tensors so no spin-rotation constants.
 Leave Link  601 at Mon Feb 20 01:09:16 2023, MaxMem=  6710886400 cpu:               2.4 elap:               0.1
 (Enter /data0/home/software/g16/l122.exe)
 CPIOFr:  IOpCl= 0 IRwI=-1 IRwCP=  731 ICalc= -1 LCPTot=      156386 Len1MO=      408861 IndFrg=      156386
 CPIOFr:  IOpCl= 0 IRwI=-1 IRwCP=  731 ICalc=  0 LCPTot=      156386 Len1MO=      408861 IndFrg=      565247
 Counterpoise: doing calculation for fragment   1 using the basis set of the full-system, NewBq=T
 Leave Link  122 at Mon Feb 20 01:09:16 2023, MaxMem=  6710886400 cpu:               0.2 elap:               0.0
 (Enter /data0/home/software/g16/l301.exe)
 Basis read from rwf:  (5D, 7F)
 No pseudopotential information found on rwf file.
   317 basis functions,   480 primitive gaussians,   335 cartesian basis functions
    25 alpha electrons       25 beta electrons
       nuclear repulsion energy       279.9239128689 Hartrees.
 IExCor= 4336 DFT=T Ex+Corr=M062X ExCW=0 ScaHFX=  0.540000
 ScaDFX=  1.000000  1.000000  1.000000  1.000000 ScalE2=  1.000000  1.000000
 IRadAn=      5 IRanWt=     -1 IRanGd=            0 ICorTp=0 IEmpDi=131
 NAtoms=   20 NActive=   20 NUniq=   20 SFac= 1.00D+00 NAtFMM=   60 NAOKFM=F Big=F
 Integral buffers will be    131072 words long.
 Raffenetti 2 integral format.
 Two-electron integral symmetry is turned off.
 R6Disp:  Grimme-D3 Dispersion energy=       -0.0000432012 Hartrees.
 Nuclear repulsion after empirical dispersion term =      279.9238696677 Hartrees.
 No density basis found on file   718.
 Leave Link  301 at Mon Feb 20 01:09:16 2023, MaxMem=  6710886400 cpu:               1.3 elap:               0.1
 (Enter /data0/home/software/g16/l302.exe)
 NPDir=0 NMtPBC=     1 NCelOv=     1 NCel=       1 NClECP=     1 NCelD=      1
         NCelK=      1 NCelE2=     1 NClLst=     1 CellRange=     0.0.
 One-electron integrals computed using PRISM.
 NBasis=   317 RedAO= T EigKep=  4.96D-04  NBF=   317
 NBsUse=   317 1.00D-06 EigRej= -1.00D+00 NBFU=   317
 Precomputing XC quadrature grid using
 IXCGrd= 4 IRadAn=           5 IRanWt=          -1 IRanGd=           0 AccXCQ= 0.00D+00.
 Generated NRdTot=       0 NPtTot=           0 NUsed=           0 NTot=          32
 NSgBfM=   318   318   318   318   318 MxSgAt=    20 MxSgA2=    20.
 Leave Link  302 at Mon Feb 20 01:09:16 2023, MaxMem=  6710886400 cpu:               5.0 elap:               0.2
 (Enter /data0/home/software/g16/l303.exe)
 DipDrv:  MaxL=1.
 Leave Link  303 at Mon Feb 20 01:09:16 2023, MaxMem=  6710886400 cpu:               0.7 elap:               0.0
 (Enter /data0/home/software/g16/l401.exe)
 ExpMin= 3.48D-02 ExpMax= 7.75D+04 ExpMxC= 2.65D+03 IAcc=3 IRadAn=         5 AccDes= 0.00D+00
 Harris functional with IExCor= 1009 and IRadAn=       5 diagonalized for initial guess.
 HarFok:  IExCor= 1009 AccDes= 0.00D+00 IRadAn=         5 IDoV= 1 UseB2=F ITyADJ=14
 ICtDFT=  3500011 ScaDFX=  1.000000  1.000000  1.000000  1.000000
 FoFCou: FMM=F IPFlag=           0 FMFlag=      100000 FMFlg1=           0
         NFxFlg=           0 DoJE=T BraDBF=F KetDBF=T FulRan=T
         wScrn=  0.000000 ICntrl=       500 IOpCl=  0 I1Cent=   200000004 NGrid=           0
         NMat0=    1 NMatS0=      1 NMatT0=    0 NMatD0=    1 NMtDS0=    0 NMtDT0=    0
 Symmetry not used in FoFCou.
 Harris En= -643.938727318834    
 JPrj=0 DoOrth=F DoCkMO=F.
 Leave Link  401 at Mon Feb 20 01:09:17 2023, MaxMem=  6710886400 cpu:              13.8 elap:               0.6
 (Enter /data0/home/software/g16/l502.exe)
 Two-electron integral symmetry not used.
 Closed shell SCF:
 Using DIIS extrapolation, IDIIS=  1040.
 NGot=  6710886400 LenX=  6710651443 LenY=  6710538777
 Requested convergence on RMS density matrix=1.00D-08 within 128 cycles.
 Requested convergence on MAX density matrix=1.00D-06.
 Requested convergence on             energy=1.00D-06.
 No special actions if energy rises.
 Fock matrices will be formed incrementally for  20 cycles.

 Cycle   1  Pass 1  IDiag  1:
 FoFJK:  IHMeth= 1 ICntrl=       0 DoSepK=F KAlg= 0 I1Cent=           0 FoldK=F
 IRaf= 760000000 NMat=       1 IRICut=       1 DoRegI=T DoRafI=F ISym2E= 0 IDoP0=0 IntGTp=1.
 FoFCou: FMM=F IPFlag=           0 FMFlag=      100000 FMFlg1=           0
         NFxFlg=           0 DoJE=F BraDBF=F KetDBF=F FulRan=T
         wScrn=  0.000000 ICntrl=         0 IOpCl=  0 I1Cent=           0 NGrid=           0
         NMat0=    1 NMatS0=      1 NMatT0=    0 NMatD0=    1 NMtDS0=    0 NMtDT0=    0
 Symmetry not used in FoFCou.
 E= -643.842229848156    
 DIIS: error= 3.66D-02 at cycle   1 NSaved=   1.
 NSaved= 1 IEnMin= 1 EnMin= -643.842229848156     IErMin= 1 ErrMin= 3.66D-02
 ErrMax= 3.66D-02  0.00D+00 EMaxC= 1.00D-01 BMatC= 5.12D-01 BMatP= 5.12D-01
 IDIUse=3 WtCom= 6.34D-01 WtEn= 3.66D-01
 Coeff-Com:  0.100D+01
 Coeff-En:   0.100D+01
 Coeff:      0.100D+01
 Gap=     0.226 Goal=   None    Shift=    0.000
 GapD=    0.226 DampG=1.000 DampE=0.500 DampFc=0.5000 IDamp=-1.
 Damping current iteration by 5.00D-01
 RMSDP=4.15D-03 MaxDP=2.19D-01              OVMax= 2.78D-01

 Cycle   2  Pass 1  IDiag  1:
 RMSU=  2.07D-03    CP:  1.01D+00
 E= -643.958682669940     Delta-E=       -0.116452821784 Rises=F Damp=T
 DIIS: error= 9.32D-03 at cycle   2 NSaved=   2.
 NSaved= 2 IEnMin= 2 EnMin= -643.958682669940     IErMin= 2 ErrMin= 9.32D-03
 ErrMax= 9.32D-03  0.00D+00 EMaxC= 1.00D-01 BMatC= 2.84D-02 BMatP= 5.12D-01
 IDIUse=3 WtCom= 9.07D-01 WtEn= 9.32D-02
 Coeff-Com:  0.790D-01 0.921D+00
 Coeff-En:   0.215D+00 0.785D+00
 Coeff:      0.917D-01 0.908D+00
 Gap=     0.333 Goal=   None    Shift=    0.000
 RMSDP=1.02D-03 MaxDP=7.60D-02 DE=-1.16D-01 OVMax= 1.84D-01

 Cycle   3  Pass 1  IDiag  1:
 RMSU=  6.75D-04    CP:  9.97D-01  6.33D-01
 E= -644.129931315209     Delta-E=       -0.171248645269 Rises=F Damp=F
 DIIS: error= 4.78D-03 at cycle   3 NSaved=   3.
 NSaved= 3 IEnMin= 3 EnMin= -644.129931315209     IErMin= 3 ErrMin= 4.78D-03
 ErrMax= 4.78D-03  0.00D+00 EMaxC= 1.00D-01 BMatC= 1.09D-02 BMatP= 2.84D-02
 IDIUse=3 WtCom= 9.52D-01 WtEn= 4.78D-02
 Coeff-Com: -0.127D-01 0.344D+00 0.669D+00
 Coeff-En:   0.000D+00 0.000D+00 0.100D+01
 Coeff:     -0.121D-01 0.327D+00 0.685D+00
 Gap=     0.323 Goal=   None    Shift=    0.000
 RMSDP=3.52D-04 MaxDP=1.52D-02 DE=-1.71D-01 OVMax= 3.56D-02

 Cycle   4  Pass 1  IDiag  1:
 RMSU=  2.98D-04    CP:  9.97D-01  7.13D-01  8.68D-01
 E= -644.135080208113     Delta-E=       -0.005148892904 Rises=F Damp=F
 DIIS: error= 3.05D-03 at cycle   4 NSaved=   4.
 NSaved= 4 IEnMin= 4 EnMin= -644.135080208113     IErMin= 4 ErrMin= 3.05D-03
 ErrMax= 3.05D-03  0.00D+00 EMaxC= 1.00D-01 BMatC= 3.83D-03 BMatP= 1.09D-02
 IDIUse=3 WtCom= 9.70D-01 WtEn= 3.05D-02
 Coeff-Com: -0.223D-01 0.499D-01 0.393D+00 0.579D+00
 Coeff-En:   0.000D+00 0.000D+00 0.256D+00 0.744D+00
 Coeff:     -0.216D-01 0.484D-01 0.389D+00 0.584D+00
 Gap=     0.328 Goal=   None    Shift=    0.000
 RMSDP=1.36D-04 MaxDP=6.02D-03 DE=-5.15D-03 OVMax= 1.09D-02

 Cycle   5  Pass 1  IDiag  1:
 RMSU=  4.25D-05    CP:  9.97D-01  6.93D-01  9.61D-01  6.48D-01
 E= -644.137607947261     Delta-E=       -0.002527739148 Rises=F Damp=F
 DIIS: error= 2.15D-04 at cycle   5 NSaved=   5.
 NSaved= 5 IEnMin= 5 EnMin= -644.137607947261     IErMin= 5 ErrMin= 2.15D-04
 ErrMax= 2.15D-04  0.00D+00 EMaxC= 1.00D-01 BMatC= 1.55D-05 BMatP= 3.83D-03
 IDIUse=3 WtCom= 9.98D-01 WtEn= 2.15D-03
 Coeff-Com: -0.270D-02 0.548D-03 0.548D-01 0.116D+00 0.831D+00
 Coeff-En:   0.000D+00 0.000D+00 0.000D+00 0.000D+00 0.100D+01
 Coeff:     -0.270D-02 0.547D-03 0.547D-01 0.116D+00 0.832D+00
 Gap=     0.327 Goal=   None    Shift=    0.000
 RMSDP=1.47D-05 MaxDP=7.22D-04 DE=-2.53D-03 OVMax= 7.81D-04

 Cycle   6  Pass 1  IDiag  1:
 RMSU=  1.02D-05    CP:  9.96D-01  6.90D-01  9.65D-01  6.72D-01  1.06D+00
 E= -644.137618206878     Delta-E=       -0.000010259617 Rises=F Damp=F
 DIIS: error= 7.80D-05 at cycle   6 NSaved=   6.
 NSaved= 6 IEnMin= 6 EnMin= -644.137618206878     IErMin= 6 ErrMin= 7.80D-05
 ErrMax= 7.80D-05  0.00D+00 EMaxC= 1.00D-01 BMatC= 1.62D-06 BMatP= 1.55D-05
 IDIUse=1 WtCom= 1.00D+00 WtEn= 0.00D+00
 Coeff-Com: -0.806D-04-0.153D-02 0.262D-02 0.136D-01 0.255D+00 0.731D+00
 Coeff:     -0.806D-04-0.153D-02 0.262D-02 0.136D-01 0.255D+00 0.731D+00
 Gap=     0.328 Goal=   None    Shift=    0.000
 RMSDP=5.71D-06 MaxDP=2.68D-04 DE=-1.03D-05 OVMax= 2.74D-04

 Cycle   7  Pass 1  IDiag  1:
 RMSU=  3.23D-06    CP:  9.97D-01  6.89D-01  9.66D-01  6.74D-01  1.15D+00
                    CP:  8.87D-01
 E= -644.137619266302     Delta-E=       -0.000001059424 Rises=F Damp=F
 DIIS: error= 4.22D-05 at cycle   7 NSaved=   7.
 NSaved= 7 IEnMin= 7 EnMin= -644.137619266302     IErMin= 7 ErrMin= 4.22D-05
 ErrMax= 4.22D-05  0.00D+00 EMaxC= 1.00D-01 BMatC= 3.88D-07 BMatP= 1.62D-06
 IDIUse=1 WtCom= 1.00D+00 WtEn= 0.00D+00
 Coeff-Com:  0.422D-03-0.722D-03-0.878D-02-0.145D-01-0.229D-01 0.328D+00
 Coeff-Com:  0.719D+00
 Coeff:      0.422D-03-0.722D-03-0.878D-02-0.145D-01-0.229D-01 0.328D+00
 Coeff:      0.719D+00
 Gap=     0.328 Goal=   None    Shift=    0.000
 RMSDP=2.37D-06 MaxDP=9.95D-05 DE=-1.06D-06 OVMax= 1.37D-04

 Cycle   8  Pass 1  IDiag  1:
 RMSU=  1.46D-06    CP:  9.97D-01  6.88D-01  9.67D-01  6.75D-01  1.17D+00
                    CP:  9.74D-01  8.17D-01
 E= -644.137619533727     Delta-E=       -0.000000267425 Rises=F Damp=F
 DIIS: error= 8.31D-06 at cycle   8 NSaved=   8.
 NSaved= 8 IEnMin= 8 EnMin= -644.137619533727     IErMin= 8 ErrMin= 8.31D-06
 ErrMax= 8.31D-06  0.00D+00 EMaxC= 1.00D-01 BMatC= 3.06D-08 BMatP= 3.88D-07
 IDIUse=1 WtCom= 1.00D+00 WtEn= 0.00D+00
 Coeff-Com:  0.159D-03-0.206D-03-0.370D-02-0.614D-02-0.173D-01 0.934D-01
 Coeff-Com:  0.303D+00 0.631D+00
 Coeff:      0.159D-03-0.206D-03-0.370D-02-0.614D-02-0.173D-01 0.934D-01
 Coeff:      0.303D+00 0.631D+00
 Gap=     0.328 Goal=   None    Shift=    0.000
 RMSDP=4.61D-07 MaxDP=2.62D-05 DE=-2.67D-07 OVMax= 3.48D-05

 Cycle   9  Pass 1  IDiag  1:
 RMSU=  2.89D-07    CP:  9.97D-01  6.88D-01  9.67D-01  6.75D-01  1.17D+00
                    CP:  9.86D-01  8.98D-01  8.73D-01
 E= -644.137619557316     Delta-E=       -0.000000023590 Rises=F Damp=F
 DIIS: error= 1.34D-06 at cycle   9 NSaved=   9.
 NSaved= 9 IEnMin= 9 EnMin= -644.137619557316     IErMin= 9 ErrMin= 1.34D-06
 ErrMax= 1.34D-06  0.00D+00 EMaxC= 1.00D-01 BMatC= 9.14D-10 BMatP= 3.06D-08
 IDIUse=1 WtCom= 1.00D+00 WtEn= 0.00D+00
 Coeff-Com: -0.286D-04 0.548D-04 0.279D-03 0.620D-03-0.692D-03-0.201D-01
 Coeff-Com: -0.303D-01 0.730D-01 0.977D+00
 Coeff:     -0.286D-04 0.548D-04 0.279D-03 0.620D-03-0.692D-03-0.201D-01
 Coeff:     -0.303D-01 0.730D-01 0.977D+00
 Gap=     0.328 Goal=   None    Shift=    0.000
 RMSDP=1.97D-07 MaxDP=9.74D-06 DE=-2.36D-08 OVMax= 1.34D-05

 Cycle  10  Pass 1  IDiag  1:
 RMSU=  8.02D-08    CP:  9.97D-01  6.88D-01  9.67D-01  6.75D-01  1.17D+00
                    CP:  9.85D-01  9.16D-01  9.53D-01  1.14D+00
 E= -644.137619558494     Delta-E=       -0.000000001178 Rises=F Damp=F
 DIIS: error= 1.56D-07 at cycle  10 NSaved=  10.
 NSaved=10 IEnMin=10 EnMin= -644.137619558494     IErMin=10 ErrMin= 1.56D-07
 ErrMax= 1.56D-07  0.00D+00 EMaxC= 1.00D-01 BMatC= 1.71D-11 BMatP= 9.14D-10
 IDIUse=1 WtCom= 1.00D+00 WtEn= 0.00D+00
 Coeff-Com: -0.319D-05 0.506D-05 0.102D-03 0.167D-03 0.519D-03-0.337D-02
 Coeff-Com: -0.115D-01-0.193D-01 0.835D-02 0.103D+01
 Coeff:     -0.319D-05 0.506D-05 0.102D-03 0.167D-03 0.519D-03-0.337D-02
 Coeff:     -0.115D-01-0.193D-01 0.835D-02 0.103D+01
 Gap=     0.328 Goal=   None    Shift=    0.000
 RMSDP=3.88D-08 MaxDP=1.39D-06 DE=-1.18D-09 OVMax= 3.44D-06

 Cycle  11  Pass 1  IDiag  1:
 RMSU=  1.85D-08    CP:  9.97D-01  6.88D-01  9.67D-01  6.75D-01  1.17D+00
                    CP:  9.85D-01  9.18D-01  9.65D-01  1.20D+00  1.17D+00
 E= -644.137619558516     Delta-E=       -0.000000000022 Rises=F Damp=F
 DIIS: error= 1.38D-07 at cycle  11 NSaved=  11.
 NSaved=11 IEnMin=11 EnMin= -644.137619558516     IErMin=11 ErrMin= 1.38D-07
 ErrMax= 1.38D-07  0.00D+00 EMaxC= 1.00D-01 BMatC= 4.70D-12 BMatP= 1.71D-11
 IDIUse=1 WtCom= 1.00D+00 WtEn= 0.00D+00
 Coeff-Com:  0.418D-06-0.104D-05 0.234D-04 0.304D-04 0.213D-03-0.316D-03
 Coeff-Com: -0.262D-02-0.978D-02-0.451D-01 0.382D+00 0.676D+00
 Coeff:      0.418D-06-0.104D-05 0.234D-04 0.304D-04 0.213D-03-0.316D-03
 Coeff:     -0.262D-02-0.978D-02-0.451D-01 0.382D+00 0.676D+00
 Gap=     0.328 Goal=   None    Shift=    0.000
 RMSDP=8.73D-09 MaxDP=3.78D-07 DE=-2.16D-11 OVMax= 6.09D-07

 SCF Done:  E(RM062X) =  -644.137619559     A.U. after   11 cycles
            NFock= 11  Conv=0.87D-08     -V/T= 2.0025
 KE= 6.424996897392D+02 PE=-2.087447774392D+03 EE= 5.208865954269D+02
 Leave Link  502 at Mon Feb 20 01:09:31 2023, MaxMem=  6710886400 cpu:             349.8 elap:              14.6
 (Enter /data0/home/software/g16/l601.exe)
 Copying SCF densities to generalized density rwf, IOpCl= 0 IROHF=0.

 **********************************************************************

            Population analysis using the SCF density.

 **********************************************************************

 Alpha  occ. eigenvalues --  -78.16851 -19.69695 -19.68931 -19.68359 -19.57905
 Alpha  occ. eigenvalues --   -6.97644  -5.09563  -5.09544  -5.09298  -1.24696
 Alpha  occ. eigenvalues --   -1.17415  -1.16956  -1.08198  -0.72756  -0.65782
 Alpha  occ. eigenvalues --   -0.63987  -0.58944  -0.53487  -0.51927  -0.50115
 Alpha  occ. eigenvalues --   -0.46464  -0.45393  -0.44995  -0.37791  -0.36761
 Alpha virt. eigenvalues --   -0.03986   0.00653   0.02071   0.04250   0.06606
 Alpha virt. eigenvalues --    0.07133   0.07733   0.09959   0.10834   0.12012
 Alpha virt. eigenvalues --    0.12264   0.13213   0.13818   0.14552   0.15620
 Alpha virt. eigenvalues --    0.16829   0.17324   0.17761   0.18059   0.18698
 Alpha virt. eigenvalues --    0.19250   0.20112   0.20440   0.21000   0.21252
 Alpha virt. eigenvalues --    0.22166   0.22690   0.23359   0.23888   0.24521
 Alpha virt. eigenvalues --    0.25807   0.26378   0.27743   0.28120   0.28497
 Alpha virt. eigenvalues --    0.28582   0.29224   0.30139   0.30656   0.31894
 Alpha virt. eigenvalues --    0.32285   0.32869   0.33273   0.34054   0.35702
 Alpha virt. eigenvalues --    0.36290   0.37765   0.38032   0.38503   0.40036
 Alpha virt. eigenvalues --    0.42225   0.42782   0.44269   0.46544   0.48371
 Alpha virt. eigenvalues --    0.51255   0.52539   0.57552   0.58135   0.61326
 Alpha virt. eigenvalues --    0.64373   0.64921   0.66484   0.74248   0.75332
 Alpha virt. eigenvalues --    0.76517   0.77514   0.78538   0.80021   0.80244
 Alpha virt. eigenvalues --    0.81148   0.81517   0.81859   0.81983   0.83959
 Alpha virt. eigenvalues --    0.85909   0.87432   0.92820   0.94012   0.98502
 Alpha virt. eigenvalues --    0.99699   1.00307   1.00670   1.02704   1.04126
 Alpha virt. eigenvalues --    1.06547   1.08111   1.08344   1.08599   1.11031
 Alpha virt. eigenvalues --    1.13936   1.14690   1.16693   1.19371   1.20036
 Alpha virt. eigenvalues --    1.20342   1.21571   1.22992   1.23768   1.26662
 Alpha virt. eigenvalues --    1.28386   1.29948   1.33117   1.35351   1.42746
 Alpha virt. eigenvalues --    1.43794   1.51170   1.53072   1.54985   1.55167
 Alpha virt. eigenvalues --    1.59577   1.61136   1.64855   1.67503   1.69093
 Alpha virt. eigenvalues --    1.70987   1.73293   1.78559   1.79214   1.81522
 Alpha virt. eigenvalues --    1.82438   1.83853   1.85153   1.86518   1.87964
 Alpha virt. eigenvalues --    1.88894   1.90316   1.90819   1.90878   1.92434
 Alpha virt. eigenvalues --    1.97189   1.99190   2.00162   2.00784   2.03912
 Alpha virt. eigenvalues --    2.06008   2.09312   2.09871   2.11774   2.14078
 Alpha virt. eigenvalues --    2.16242   2.18452   2.20576   2.20987   2.22161
 Alpha virt. eigenvalues --    2.24363   2.26187   2.27408   2.27915   2.34985
 Alpha virt. eigenvalues --    2.35556   2.36863   2.42618   2.44868   2.46468
 Alpha virt. eigenvalues --    2.48074   2.49649   2.52080   2.52733   2.57425
 Alpha virt. eigenvalues --    2.58115   2.58759   2.63235   2.64253   2.65036
 Alpha virt. eigenvalues --    2.65204   2.66796   2.67824   2.68923   2.69678
 Alpha virt. eigenvalues --    2.71151   2.71624   2.71926   2.73165   2.73802
 Alpha virt. eigenvalues --    2.74979   2.76187   2.79095   2.80586   2.81117
 Alpha virt. eigenvalues --    2.82258   2.83997   2.86973   2.89489   2.90698
 Alpha virt. eigenvalues --    2.93853   2.95353   2.97851   3.01017   3.02980
 Alpha virt. eigenvalues --    3.07280   3.13628   3.13783   3.18278   3.19571
 Alpha virt. eigenvalues --    3.53998   3.57592   3.58185   3.60616   3.61685
 Alpha virt. eigenvalues --    3.66162   3.82784   3.83679   4.49788   4.56218
 Alpha virt. eigenvalues --    4.76739   4.78999   5.01560   5.02812   5.05177
 Alpha virt. eigenvalues --    5.06110   5.07125   5.11662   5.16029   5.19566
 Alpha virt. eigenvalues --    5.21150   5.27370   5.34742   5.35256   5.37068
 Alpha virt. eigenvalues --    5.43942   5.47181   5.51535   6.72116   6.73965
 Alpha virt. eigenvalues --    6.75899   6.77753   6.78725   6.80555   6.83106
 Alpha virt. eigenvalues --    6.85833   6.91333   6.93221   6.94655   6.98333
 Alpha virt. eigenvalues --    6.99073   7.02368   7.11748   7.25108   7.26199
 Alpha virt. eigenvalues --    7.28466   7.31836   7.40811   7.64743   9.93956
 Alpha virt. eigenvalues --    9.97058  10.01764  10.12934  10.22516  10.23654
 Alpha virt. eigenvalues --   10.25006  10.25621  10.25977  10.28210  10.29271
 Alpha virt. eigenvalues --   10.31330  10.35563  10.37336  10.41460  10.44154
 Alpha virt. eigenvalues --   10.45193  10.53934  10.65711  10.66735  13.01185
 Alpha virt. eigenvalues --   13.37437  13.39962  13.40432  13.45613  13.80057
 Alpha virt. eigenvalues --   13.80241  13.80731  13.82050  14.20436  14.23709
 Alpha virt. eigenvalues --   14.24851  14.34411  14.35334  14.35906  17.84219
 Alpha virt. eigenvalues --   18.33429  18.46165  18.46833  49.98338  50.00162
 Alpha virt. eigenvalues --   50.01097  50.11103 137.19344 139.66552 139.75890
 Alpha virt. eigenvalues --  139.76467 163.87097
          Condensed to atoms (all electrons):
               1          2          3          4          5          6
     1  P   12.551501   0.550642   0.146183   0.039446   0.238395   0.010625
     2  O    0.550642   8.118340  -0.026909  -0.000090  -0.000268  -0.015911
     3  O    0.146183  -0.026909   8.116884   0.219160   0.011763  -0.000432
     4  H    0.039446  -0.000090   0.219160   0.458759  -0.012081   0.002461
     5  O    0.238395  -0.000268   0.011763  -0.012081   8.003394   0.248785
     6  H    0.010625  -0.015911  -0.000432   0.002461   0.248785   0.457847
     7  O    0.239047  -0.015559   0.010521  -0.015135   0.022852  -0.002823
     8  H    0.003672  -0.017248  -0.000242   0.001748  -0.007080  -0.001022
     9  O    0.000578  -0.000160   0.000003   0.000003   0.000164   0.002742
    10  H   -0.000605   0.000119   0.000022  -0.000001   0.000142  -0.001625
    11  H   -0.000139   0.000009  -0.000001  -0.000000   0.000075  -0.000437
    12  O   -0.000013  -0.000045   0.000002   0.000000   0.000036   0.000114
    13  H   -0.000008  -0.000000   0.000000   0.000000  -0.000001   0.000001
    14  H   -0.000043   0.000026  -0.000002  -0.000000  -0.000054  -0.000215
    15  O   -0.000007   0.000100  -0.000000  -0.000000   0.000006  -0.000001
    16  H   -0.000090  -0.000320   0.000007   0.000000  -0.000016   0.000001
    17  H    0.000012   0.000002   0.000000  -0.000000  -0.000000   0.000000
    18  O    0.001177   0.003000   0.000100  -0.000064  -0.000082  -0.000240
    19  H    0.000760   0.001239  -0.000209   0.000108   0.000262   0.000228
    20  H   -0.000519   0.000543   0.000026  -0.000002  -0.000016  -0.000080
               7          8          9         10         11         12
     1  P    0.239047   0.003672   0.000578  -0.000605  -0.000139  -0.000013
     2  O   -0.015559  -0.017248  -0.000160   0.000119   0.000009  -0.000045
     3  O    0.010521  -0.000242   0.000003   0.000022  -0.000001   0.000002
     4  H   -0.015135   0.001748   0.000003  -0.000001  -0.000000   0.000000
     5  O    0.022852  -0.007080   0.000164   0.000142   0.000075   0.000036
     6  H   -0.002823  -0.001022   0.002742  -0.001625  -0.000437   0.000114
     7  O    8.052375   0.256838  -0.000055  -0.000048   0.000013  -0.000002
     8  H    0.256838   0.447465   0.000057  -0.000121  -0.000003  -0.000001
     9  O   -0.000055   0.000057   0.006693  -0.002729  -0.002823   0.000800
    10  H   -0.000048  -0.000121  -0.002729   0.001819   0.000843  -0.000119
    11  H    0.000013  -0.000003  -0.002823   0.000843   0.001576  -0.000238
    12  O   -0.000002  -0.000001   0.000800  -0.000119  -0.000238   0.000927
    13  H    0.000000  -0.000000  -0.000025   0.000007   0.000012  -0.000053
    14  H    0.000006   0.000000  -0.001639   0.000294   0.000533  -0.001255
    15  O   -0.000012  -0.000022   0.000000  -0.000000  -0.000000   0.000000
    16  H    0.000032   0.000062  -0.000001   0.000001   0.000000  -0.000000
    17  H   -0.000001  -0.000001   0.000000   0.000000   0.000000   0.000000
    18  O    0.002652   0.001052   0.000003  -0.000009  -0.000000  -0.000001
    19  H   -0.001016   0.000188  -0.000000   0.000003   0.000000   0.000000
    20  H    0.000378  -0.001291  -0.000003   0.000007  -0.000000   0.000000
              13         14         15         16         17         18
     1  P   -0.000008  -0.000043  -0.000007  -0.000090   0.000012   0.001177
     2  O   -0.000000   0.000026   0.000100  -0.000320   0.000002   0.003000
     3  O    0.000000  -0.000002  -0.000000   0.000007   0.000000   0.000100
     4  H    0.000000  -0.000000  -0.000000   0.000000  -0.000000  -0.000064
     5  O   -0.000001  -0.000054   0.000006  -0.000016  -0.000000  -0.000082
     6  H    0.000001  -0.000215  -0.000001   0.000001   0.000000  -0.000240
     7  O    0.000000   0.000006  -0.000012   0.000032  -0.000001   0.002652
     8  H   -0.000000   0.000000  -0.000022   0.000062  -0.000001   0.001052
     9  O   -0.000025  -0.001639   0.000000  -0.000001   0.000000   0.000003
    10  H    0.000007   0.000294  -0.000000   0.000001   0.000000  -0.000009
    11  H    0.000012   0.000533  -0.000000   0.000000   0.000000  -0.000000
    12  O   -0.000053  -0.001255   0.000000  -0.000000   0.000000  -0.000001
    13  H    0.000038   0.000026   0.000000   0.000000   0.000000  -0.000000
    14  H    0.000026   0.001935  -0.000000   0.000000  -0.000000   0.000001
    15  O    0.000000  -0.000000   0.001368  -0.002048  -0.000141   0.001341
    16  H    0.000000   0.000000  -0.002048   0.004361  -0.000094  -0.003658
    17  H    0.000000  -0.000000  -0.000141  -0.000094   0.000161   0.000066
    18  O   -0.000000   0.000001   0.001341  -0.003658   0.000066   0.011126
    19  H    0.000000  -0.000000  -0.000330   0.000896   0.000010  -0.006987
    20  H    0.000000  -0.000000  -0.000079   0.000367   0.000004  -0.001753
              19         20
     1  P    0.000760  -0.000519
     2  O    0.001239   0.000543
     3  O   -0.000209   0.000026
     4  H    0.000108  -0.000002
     5  O    0.000262  -0.000016
     6  H    0.000228  -0.000080
     7  O   -0.001016   0.000378
     8  H    0.000188  -0.001291
     9  O   -0.000000  -0.000003
    10  H    0.000003   0.000007
    11  H    0.000000  -0.000000
    12  O    0.000000   0.000000
    13  H    0.000000   0.000000
    14  H   -0.000000  -0.000000
    15  O   -0.000330  -0.000079
    16  H    0.000896   0.000367
    17  H    0.000010   0.000004
    18  O   -0.006987  -0.001753
    19  H    0.006894   0.000524
    20  H    0.000524   0.001399
 Mulliken charges:
               1
     1  P    1.219385
     2  O   -0.597511
     3  O   -0.476875
     4  H    0.305688
     5  O   -0.506274
     6  H    0.299982
     7  O   -0.550062
     8  H    0.315948
     9  O   -0.003609
    10  H    0.001999
    11  H    0.000579
    12  O   -0.000153
    13  H    0.000004
    14  H    0.000388
    15  O   -0.000175
    16  H    0.000499
    17  H   -0.000018
    18  O   -0.007721
    19  H   -0.002569
    20  H    0.000494
 Sum of Mulliken charges =  -0.00000
 Mulliken charges with hydrogens summed into heavy atoms:
               1
     1  P    1.219385
     2  O   -0.597511
     3  O   -0.171186
     5  O   -0.206292
     7  O   -0.234114
     9  O   -0.001030
    12  O    0.000239
    15  O    0.000306
    18  O   -0.009796
         Mulliken charges condensed to fragments:
      1      0.010282
      2     -0.001030
      3      0.000239
      4      0.000306
      5     -0.009796
 Electronic spatial extent (au):  <R**2>=          54940.1281
 Charge=             -0.0000 electrons
 Dipole moment (field-independent basis, Debye):
    X=             -2.4893    Y=             -2.6146    Z=             -4.2995  Tot=              5.6141
 Quadrupole moment (field-independent basis, Debye-Ang):
   XX=            -92.2392   YY=            -82.9645   ZZ=           -107.9796
   XY=            -57.6913   XZ=            -71.7706   YZ=            -60.9750
 Traceless Quadrupole moment (field-independent basis, Debye-Ang):
   XX=              2.1552   YY=             11.4299   ZZ=            -13.5852
   XY=            -57.6913   XZ=            -71.7706   YZ=            -60.9750
 Octapole moment (field-independent basis, Debye-Ang**2):
  XXX=          -2329.3516  YYY=          -1580.0585  ZZZ=          -1790.1156  XYY=          -1288.4864
  XXY=          -1301.8024  XXZ=          -1376.3509  XZZ=          -1492.0159  YZZ=          -1151.0383
  YYZ=          -1050.6126  XYZ=           -942.0641
 Hexadecapole moment (field-independent basis, Debye-Ang**3):
 XXXX=         -49596.7357 YYYY=         -24356.7928 ZZZZ=         -24792.7558 XXXY=         -27206.2100
 XXXZ=         -26676.3653 YYYX=         -22284.1371 YYYZ=         -16479.0937 ZZZX=         -23603.2684
 ZZZY=         -17476.7114 XXYY=         -21683.7044 XXZZ=         -22625.2540 YYZZ=         -14555.2042
 XXYZ=         -16286.0778 YYXZ=         -14937.1766 ZZXY=         -15784.3921
 N-N= 2.799238696677D+02 E-N=-2.087447777827D+03  KE= 6.424996897392D+02
 No NMR shielding tensors so no spin-rotation constants.
 Leave Link  601 at Mon Feb 20 01:09:31 2023, MaxMem=  6710886400 cpu:               2.4 elap:               0.1
 (Enter /data0/home/software/g16/l122.exe)
 CPIOFr:  IOpCl= 0 IRwI=-1 IRwCP=  731 ICalc=  1 LCPTot=      156386 Len1MO=      408861 IndFrg=      974108
 Counterpoise: doing calculation for fragment   2 using the basis set of the full-system, NewBq=T
 Leave Link  122 at Mon Feb 20 01:09:31 2023, MaxMem=  6710886400 cpu:               0.1 elap:               0.0
 (Enter /data0/home/software/g16/l301.exe)
 Basis read from rwf:  (5D, 7F)
 No pseudopotential information found on rwf file.
   317 basis functions,   480 primitive gaussians,   335 cartesian basis functions
     5 alpha electrons        5 beta electrons
       nuclear repulsion energy         9.0099252285 Hartrees.
 IExCor= 4336 DFT=T Ex+Corr=M062X ExCW=0 ScaHFX=  0.540000
 ScaDFX=  1.000000  1.000000  1.000000  1.000000 ScalE2=  1.000000  1.000000
 IRadAn=      5 IRanWt=     -1 IRanGd=            0 ICorTp=0 IEmpDi=131
 NAtoms=   20 NActive=   20 NUniq=   20 SFac= 1.00D+00 NAtFMM=   60 NAOKFM=F Big=F
 Integral buffers will be    131072 words long.
 Raffenetti 2 integral format.
 Two-electron integral symmetry is turned off.
 R6Disp:  Grimme-D3 Dispersion energy=       -0.0000000083 Hartrees.
 Nuclear repulsion after empirical dispersion term =        9.0099252202 Hartrees.
 No density basis found on file   718.
 Leave Link  301 at Mon Feb 20 01:09:31 2023, MaxMem=  6710886400 cpu:               1.3 elap:               0.1
 (Enter /data0/home/software/g16/l302.exe)
 NPDir=0 NMtPBC=     1 NCelOv=     1 NCel=       1 NClECP=     1 NCelD=      1
         NCelK=      1 NCelE2=     1 NClLst=     1 CellRange=     0.0.
 One-electron integrals computed using PRISM.
 NBasis=   317 RedAO= T EigKep=  4.96D-04  NBF=   317
 NBsUse=   317 1.00D-06 EigRej= -1.00D+00 NBFU=   317
 Precomputing XC quadrature grid using
 IXCGrd= 4 IRadAn=           5 IRanWt=          -1 IRanGd=           0 AccXCQ= 0.00D+00.
 Generated NRdTot=       0 NPtTot=           0 NUsed=           0 NTot=          32
 NSgBfM=   318   318   318   318   318 MxSgAt=    20 MxSgA2=    20.
 Leave Link  302 at Mon Feb 20 01:09:32 2023, MaxMem=  6710886400 cpu:               5.1 elap:               0.2
 (Enter /data0/home/software/g16/l303.exe)
 DipDrv:  MaxL=1.
 Leave Link  303 at Mon Feb 20 01:09:32 2023, MaxMem=  6710886400 cpu:               0.7 elap:               0.0
 (Enter /data0/home/software/g16/l401.exe)
 ExpMin= 3.48D-02 ExpMax= 7.75D+04 ExpMxC= 2.65D+03 IAcc=3 IRadAn=         5 AccDes= 0.00D+00
 Harris functional with IExCor= 1009 and IRadAn=       5 diagonalized for initial guess.
 HarFok:  IExCor= 1009 AccDes= 0.00D+00 IRadAn=         5 IDoV= 1 UseB2=F ITyADJ=14
 ICtDFT=  3500011 ScaDFX=  1.000000  1.000000  1.000000  1.000000
 FoFCou: FMM=F IPFlag=           0 FMFlag=      100000 FMFlg1=           0
         NFxFlg=           0 DoJE=T BraDBF=F KetDBF=T FulRan=T
         wScrn=  0.000000 ICntrl=       500 IOpCl=  0 I1Cent=   200000004 NGrid=           0
         NMat0=    1 NMatS0=      1 NMatT0=    0 NMatD0=    1 NMtDS0=    0 NMtDT0=    0
 Symmetry not used in FoFCou.
 Harris En= -76.4150399510690    
 JPrj=0 DoOrth=F DoCkMO=F.
 Leave Link  401 at Mon Feb 20 01:09:32 2023, MaxMem=  6710886400 cpu:              14.0 elap:               0.6
 (Enter /data0/home/software/g16/l502.exe)
 Two-electron integral symmetry not used.
 Closed shell SCF:
 Using DIIS extrapolation, IDIIS=  1040.
 NGot=  6710886400 LenX=  6710651443 LenY=  6710538777
 Requested convergence on RMS density matrix=1.00D-08 within 128 cycles.
 Requested convergence on MAX density matrix=1.00D-06.
 Requested convergence on             energy=1.00D-06.
 No special actions if energy rises.
 Fock matrices will be formed incrementally for  20 cycles.

 Cycle   1  Pass 1  IDiag  1:
 FoFJK:  IHMeth= 1 ICntrl=       0 DoSepK=F KAlg= 0 I1Cent=           0 FoldK=F
 IRaf= 760000000 NMat=       1 IRICut=       1 DoRegI=T DoRafI=F ISym2E= 0 IDoP0=0 IntGTp=1.
 FoFCou: FMM=F IPFlag=           0 FMFlag=      100000 FMFlg1=           0
         NFxFlg=           0 DoJE=F BraDBF=F KetDBF=F FulRan=T
         wScrn=  0.000000 ICntrl=         0 IOpCl=  0 I1Cent=           0 NGrid=           0
         NMat0=    1 NMatS0=      1 NMatT0=    0 NMatD0=    1 NMtDS0=    0 NMtDT0=    0
 Symmetry not used in FoFCou.
 E= -76.3462830429106    
 DIIS: error= 3.01D-02 at cycle   1 NSaved=   1.
 NSaved= 1 IEnMin= 1 EnMin= -76.3462830429106     IErMin= 1 ErrMin= 3.01D-02
 ErrMax= 3.01D-02  0.00D+00 EMaxC= 1.00D-01 BMatC= 1.19D-01 BMatP= 1.19D-01
 IDIUse=3 WtCom= 6.99D-01 WtEn= 3.01D-01
 Coeff-Com:  0.100D+01
 Coeff-En:   0.100D+01
 Coeff:      0.100D+01
 Gap=     0.285 Goal=   None    Shift=    0.000
 GapD=    0.285 DampG=1.000 DampE=0.500 DampFc=0.5000 IDamp=-1.
 Damping current iteration by 5.00D-01
 RMSDP=1.40D-03 MaxDP=9.86D-02              OVMax= 1.71D-01

 Cycle   2  Pass 1  IDiag  1:
 RMSU=  6.95D-04    CP:  9.77D-01
 E= -76.3766863077204     Delta-E=       -0.030403264810 Rises=F Damp=T
 DIIS: error= 6.39D-03 at cycle   2 NSaved=   2.
 NSaved= 2 IEnMin= 2 EnMin= -76.3766863077204     IErMin= 2 ErrMin= 6.39D-03
 ErrMax= 6.39D-03  0.00D+00 EMaxC= 1.00D-01 BMatC= 5.12D-03 BMatP= 1.19D-01
 IDIUse=3 WtCom= 9.36D-01 WtEn= 6.39D-02
 Coeff-Com:  0.915D-01 0.908D+00
 Coeff-En:   0.204D+00 0.796D+00
 Coeff:      0.987D-01 0.901D+00
 Gap=     0.403 Goal=   None    Shift=    0.000
 RMSDP=2.03D-04 MaxDP=1.48D-02 DE=-3.04D-02 OVMax= 1.04D-01

 Cycle   3  Pass 1  IDiag  1:
 RMSU=  1.25D-04    CP:  9.87D-01  7.75D-01
 E= -76.4209046397206     Delta-E=       -0.044218332000 Rises=F Damp=F
 DIIS: error= 1.01D-03 at cycle   3 NSaved=   3.
 NSaved= 3 IEnMin= 3 EnMin= -76.4209046397206     IErMin= 3 ErrMin= 1.01D-03
 ErrMax= 1.01D-03  0.00D+00 EMaxC= 1.00D-01 BMatC= 1.43D-04 BMatP= 5.12D-03
 IDIUse=3 WtCom= 9.90D-01 WtEn= 1.01D-02
 Coeff-Com: -0.264D-01 0.501D-01 0.976D+00
 Coeff-En:   0.000D+00 0.000D+00 0.100D+01
 Coeff:     -0.261D-01 0.495D-01 0.977D+00
 Gap=     0.406 Goal=   None    Shift=    0.000
 RMSDP=1.96D-05 MaxDP=1.15D-03 DE=-4.42D-02 OVMax= 3.89D-03

 Cycle   4  Pass 1  IDiag  1:
 RMSU=  1.67D-05    CP:  9.86D-01  7.83D-01  1.06D+00
 E= -76.4210206066976     Delta-E=       -0.000115966977 Rises=F Damp=F
 DIIS: error= 1.75D-04 at cycle   4 NSaved=   4.
 NSaved= 4 IEnMin= 4 EnMin= -76.4210206066976     IErMin= 4 ErrMin= 1.75D-04
 ErrMax= 1.75D-04  0.00D+00 EMaxC= 1.00D-01 BMatC= 2.94D-06 BMatP= 1.43D-04
 IDIUse=3 WtCom= 9.98D-01 WtEn= 1.75D-03
 Coeff-Com: -0.304D-02 0.105D-03 0.153D+00 0.850D+00
 Coeff-En:   0.000D+00 0.000D+00 0.000D+00 0.100D+01
 Coeff:     -0.303D-02 0.105D-03 0.152D+00 0.851D+00
 Gap=     0.406 Goal=   None    Shift=    0.000
 RMSDP=4.18D-06 MaxDP=3.26D-04 DE=-1.16D-04 OVMax= 5.38D-04

 Cycle   5  Pass 1  IDiag  1:
 RMSU=  2.45D-06    CP:  9.86D-01  7.79D-01  1.07D+00  1.10D+00
 E= -76.4210225108916     Delta-E=       -0.000001904194 Rises=F Damp=F
 DIIS: error= 3.58D-05 at cycle   5 NSaved=   5.
 NSaved= 5 IEnMin= 5 EnMin= -76.4210225108916     IErMin= 5 ErrMin= 3.58D-05
 ErrMax= 3.58D-05  0.00D+00 EMaxC= 1.00D-01 BMatC= 8.40D-08 BMatP= 2.94D-06
 IDIUse=1 WtCom= 1.00D+00 WtEn= 0.00D+00
 Coeff-Com:  0.146D-02-0.228D-02-0.380D-01-0.578D-01 0.110D+01
 Coeff:      0.146D-02-0.228D-02-0.380D-01-0.578D-01 0.110D+01
 Gap=     0.407 Goal=   None    Shift=    0.000
 RMSDP=2.79D-06 MaxDP=1.64D-04 DE=-1.90D-06 OVMax= 2.28D-04

 Cycle   6  Pass 1  IDiag  1:
 RMSU=  6.30D-07    CP:  9.86D-01  7.76D-01  1.08D+00  1.20D+00  1.29D+00
 E= -76.4210226603472     Delta-E=       -0.000000149456 Rises=F Damp=F
 DIIS: error= 4.06D-06 at cycle   6 NSaved=   6.
 NSaved= 6 IEnMin= 6 EnMin= -76.4210226603472     IErMin= 6 ErrMin= 4.06D-06
 ErrMax= 4.06D-06  0.00D+00 EMaxC= 1.00D-01 BMatC= 1.95D-09 BMatP= 8.40D-08
 IDIUse=1 WtCom= 1.00D+00 WtEn= 0.00D+00
 Coeff-Com: -0.246D-03 0.353D-03 0.298D-02-0.567D-02-0.138D+00 0.114D+01
 Coeff:     -0.246D-03 0.353D-03 0.298D-02-0.567D-02-0.138D+00 0.114D+01
 Gap=     0.407 Goal=   None    Shift=    0.000
 RMSDP=3.84D-07 MaxDP=2.14D-05 DE=-1.49D-07 OVMax= 4.07D-05

 Cycle   7  Pass 1  IDiag  1:
 RMSU=  8.66D-08    CP:  9.86D-01  7.76D-01  1.08D+00  1.21D+00  1.35D+00
                    CP:  1.22D+00
 E= -76.4210226642735     Delta-E=       -0.000000003926 Rises=F Damp=F
 DIIS: error= 6.78D-07 at cycle   7 NSaved=   7.
 NSaved= 7 IEnMin= 7 EnMin= -76.4210226642735     IErMin= 7 ErrMin= 6.78D-07
 ErrMax= 6.78D-07  0.00D+00 EMaxC= 1.00D-01 BMatC= 4.65D-11 BMatP= 1.95D-09
 IDIUse=1 WtCom= 1.00D+00 WtEn= 0.00D+00
 Coeff-Com: -0.316D-04 0.610D-04 0.604D-03 0.117D-02-0.317D-01 0.647D-01
 Coeff-Com:  0.965D+00
 Coeff:     -0.316D-04 0.610D-04 0.604D-03 0.117D-02-0.317D-01 0.647D-01
 Coeff:      0.965D+00
 Gap=     0.407 Goal=   None    Shift=    0.000
 RMSDP=4.98D-08 MaxDP=2.65D-06 DE=-3.93D-09 OVMax= 5.36D-06

 Cycle   8  Pass 1  IDiag  1:
 RMSU=  1.67D-08    CP:  9.86D-01  7.76D-01  1.08D+00  1.21D+00  1.36D+00
                    CP:  1.25D+00  1.14D+00
 E= -76.4210226643510     Delta-E=       -0.000000000078 Rises=F Damp=F
 DIIS: error= 1.56D-07 at cycle   8 NSaved=   8.
 NSaved= 8 IEnMin= 8 EnMin= -76.4210226643510     IErMin= 8 ErrMin= 1.56D-07
 ErrMax= 1.56D-07  0.00D+00 EMaxC= 1.00D-01 BMatC= 2.85D-12 BMatP= 4.65D-11
 IDIUse=1 WtCom= 1.00D+00 WtEn= 0.00D+00
 Coeff-Com:  0.141D-04-0.171D-04-0.148D-03 0.584D-03 0.481D-02-0.576D-01
 Coeff-Com:  0.883D-01 0.964D+00
 Coeff:      0.141D-04-0.171D-04-0.148D-03 0.584D-03 0.481D-02-0.576D-01
 Coeff:      0.883D-01 0.964D+00
 Gap=     0.407 Goal=   None    Shift=    0.000
 RMSDP=9.84D-09 MaxDP=4.89D-07 DE=-7.75D-11 OVMax= 1.17D-06

 SCF Done:  E(RM062X) =  -76.4210226644     A.U. after    8 cycles
            NFock=  8  Conv=0.98D-08     -V/T= 2.0035
 KE= 7.615631069545D+01 PE=-1.988489751278D+02 EE= 3.726171654786D+01
 Leave Link  502 at Mon Feb 20 01:09:43 2023, MaxMem=  6710886400 cpu:             263.8 elap:              11.1
 (Enter /data0/home/software/g16/l601.exe)
 Copying SCF densities to generalized density rwf, IOpCl= 0 IROHF=0.

 **********************************************************************

            Population analysis using the SCF density.

 **********************************************************************

 Alpha  occ. eigenvalues --  -19.62834  -1.12944  -0.60227  -0.47497  -0.39939
 Alpha virt. eigenvalues --    0.00727   0.04081   0.05140   0.05389   0.08098
 Alpha virt. eigenvalues --    0.09659   0.09835   0.12876   0.13611   0.14306
 Alpha virt. eigenvalues --    0.14803   0.15607   0.16286   0.16864   0.17405
 Alpha virt. eigenvalues --    0.18047   0.19207   0.19383   0.20516   0.21239
 Alpha virt. eigenvalues --    0.21684   0.22186   0.22692   0.23296   0.24314
 Alpha virt. eigenvalues --    0.24740   0.25036   0.25869   0.27206   0.27378
 Alpha virt. eigenvalues --    0.29109   0.29880   0.30964   0.31317   0.31923
 Alpha virt. eigenvalues --    0.33268   0.33372   0.34316   0.36295   0.37717
 Alpha virt. eigenvalues --    0.38135   0.39056   0.39238   0.39558   0.40407
 Alpha virt. eigenvalues --    0.42079   0.42742   0.44628   0.45226   0.47098
 Alpha virt. eigenvalues --    0.48883   0.54010   0.57308   0.60895   0.66451
 Alpha virt. eigenvalues --    0.67465   0.71176   0.73152   0.73890   0.74531
 Alpha virt. eigenvalues --    0.75370   0.75793   0.76350   0.76578   0.79080
 Alpha virt. eigenvalues --    0.80352   0.81280   0.81731   0.82237   0.85314
 Alpha virt. eigenvalues --    0.86839   0.88270   0.88488   0.89357   0.89750
 Alpha virt. eigenvalues --    0.91904   0.94886   0.97074   0.98436   0.99228
 Alpha virt. eigenvalues --    1.00016   1.00686   1.04415   1.06744   1.07250
 Alpha virt. eigenvalues --    1.08306   1.08889   1.10095   1.10864   1.13813
 Alpha virt. eigenvalues --    1.15386   1.16151   1.19702   1.21791   1.22822
 Alpha virt. eigenvalues --    1.23749   1.24542   1.26757   1.30073   1.33949
 Alpha virt. eigenvalues --    1.37348   1.44662   1.47597   1.48325   1.56458
 Alpha virt. eigenvalues --    1.63467   1.68200   1.75522   1.76243   1.81041
 Alpha virt. eigenvalues --    1.82904   1.85834   1.87860   1.89885   1.90661
 Alpha virt. eigenvalues --    1.93222   1.93365   1.96062   1.97502   2.00387
 Alpha virt. eigenvalues --    2.02139   2.04589   2.06096   2.07769   2.14058
 Alpha virt. eigenvalues --    2.14740   2.21005   2.23804   2.26202   2.27707
 Alpha virt. eigenvalues --    2.29021   2.31801   2.33763   2.34574   2.37217
 Alpha virt. eigenvalues --    2.37529   2.38058   2.40129   2.41233   2.41997
 Alpha virt. eigenvalues --    2.45411   2.49908   2.50074   2.52316   2.53887
 Alpha virt. eigenvalues --    2.55740   2.56948   2.58466   2.59117   2.59936
 Alpha virt. eigenvalues --    2.60842   2.61495   2.63669   2.64863   2.65211
 Alpha virt. eigenvalues --    2.66256   2.66416   2.66902   2.68848   2.69328
 Alpha virt. eigenvalues --    2.70461   2.71861   2.72740   2.75610   2.77523
[...]
 (Enter /data0/home/software/g16/l601.exe)
 Copying SCF densities to generalized density rwf, IOpCl= 0 IROHF=0.

 **********************************************************************

            Population analysis using the SCF density.

 **********************************************************************

 Alpha  occ. eigenvalues --  -19.62544  -1.13366  -0.60959  -0.47372  -0.39977
 Alpha virt. eigenvalues --    0.06299   0.13341   0.17382   0.17949   0.18960
 Alpha virt. eigenvalues --    0.23211   0.50965   0.53815   0.97754   1.00254
 Alpha virt. eigenvalues --    1.06046   1.19063   1.19798   1.32686   1.33790
 Alpha virt. eigenvalues --    1.69265   1.73991   1.76035   2.07276   2.09860
 Alpha virt. eigenvalues --    2.34892   2.43094   2.54243   2.88581   3.01513
 Alpha virt. eigenvalues --    5.05715   5.47401   5.93746   6.78170   6.80353
 Alpha virt. eigenvalues --    6.86908   6.91500   7.09524  49.96096
          Condensed to atoms (all electrons):
              15         16         17
    15  O    7.914387   0.319619   0.324712
    16  H    0.319619   0.423420  -0.024700
    17  H    0.324712  -0.024700   0.422932
 Mulliken charges:
               1
     1  P    0.000000
     2  O    0.000000
     3  O    0.000000
     4  H    0.000000
     5  O    0.000000
     6  H    0.000000
     7  O    0.000000
     8  H    0.000000
     9  O    0.000000
    10  H    0.000000
    11  H    0.000000
    12  O    0.000000
    13  H    0.000000
    14  H    0.000000
    15  O   -0.558718
    16  H    0.281661
    17  H    0.277057
    18  O    0.000000
    19  H    0.000000
    20  H    0.000000
 Sum of Mulliken charges =   0.00000
 Mulliken charges with hydrogens summed into heavy atoms:
               1
     1  P    0.000000
     2  O    0.000000
     3  O    0.000000
     5  O    0.000000
     7  O    0.000000
     9  O    0.000000
    12  O    0.000000
    15  O    0.000000
    18  O    0.000000
         Mulliken charges condensed to fragments:
      1      0.000000
      2      0.000000
      3      0.000000
      4      0.000000
      5      0.000000
 Electronic spatial extent (au):  <R**2>=          14029.4735
 Charge=              0.0000 electrons
 Dipole moment (field-independent basis, Debye):
    X=              0.9395    Y=              0.4953    Z=             -1.8153  Tot=              2.1031
 Quadrupole moment (field-independent basis, Debye-Ang):
   XX=             12.0890   YY=              9.5158   ZZ=            -39.8869
   XY=             17.7151   XZ=            -10.6933   YZ=            -21.1783
 Traceless Quadrupole moment (field-independent basis, Debye-Ang):
   XX=             18.1830   YY=             15.6098   ZZ=            -33.7928
   XY=             17.7151   XZ=            -10.6933   YZ=            -21.1783
 Octapole moment (field-independent basis, Debye-Ang**2):
  XXX=             75.8971  YYY=            105.9481  ZZZ=           -640.1497  XYY=            267.3368
  XXY=            208.7836  XXZ=            -94.5984  XZZ=           -342.4551  YZZ=           -524.1515
  YYZ=           -278.1329  XYZ=           -110.8935
 Hexadecapole moment (field-independent basis, Debye-Ang**3):
 XXXX=           -469.4407 YYYY=            171.9076 ZZZZ=          -8962.9927 XXXY=           1373.6186
 XXXZ=          -1490.9345 YYYX=           3364.1692 YYYZ=          -4233.5046 ZZZX=          -6007.2019
 ZZZY=          -8706.1528 XXYY=           3017.5352 XXZZ=          -3441.5763 YYZZ=          -7245.8086
 XXYZ=           -991.6665 YYXZ=          -1428.2629 ZZXY=          -4484.4750
 N-N= 9.116094386094D+00 E-N=-1.990865616945D+02  KE= 7.620017739430D+01
 No NMR shielding tensors so no spin-rotation constants.
 Leave Link  601 at Mon Feb 20 01:10:27 2023, MaxMem=  6710886400 cpu:               1.7 elap:               0.1
 (Enter /data0/home/software/g16/l122.exe)
 CPIOFr:  IOpCl= 0 IRwI=-1 IRwCP=  731 ICalc=  9 LCPTot=      156386 Len1MO=      408861 IndFrg=     4244996
 Counterpoise: doing calculation for fragment   5 using the basis set of the fragment.
 Leave Link  122 at Mon Feb 20 01:10:27 2023, MaxMem=  6710886400 cpu:               0.1 elap:               0.0
 (Enter /data0/home/software/g16/l301.exe)
 Basis read from rwf:  (5D, 7F)
 No pseudopotential information found on rwf file.
    39 basis functions,    58 primitive gaussians,    41 cartesian basis functions
     5 alpha electrons        5 beta electrons
       nuclear repulsion energy         9.0614604292 Hartrees.
 IExCor= 4336 DFT=T Ex+Corr=M062X ExCW=0 ScaHFX=  0.540000
 ScaDFX=  1.000000  1.000000  1.000000  1.000000 ScalE2=  1.000000  1.000000
 IRadAn=      5 IRanWt=     -1 IRanGd=            0 ICorTp=0 IEmpDi=131
 NAtoms=   20 NActive=    3 NUniq=    3 SFac= 1.00D+00 NAtFMM=   60 NAOKFM=F Big=F
 Integral buffers will be    131072 words long.
 Raffenetti 2 integral format.
 Two-electron integral symmetry is turned off.
 R6Disp:  Grimme-D3 Dispersion energy=       -0.0000000076 Hartrees.
 Nuclear repulsion after empirical dispersion term =        9.0614604216 Hartrees.
 No density basis found on file   718.
 Leave Link  301 at Mon Feb 20 01:10:27 2023, MaxMem=  6710886400 cpu:               1.3 elap:               0.1
 (Enter /data0/home/software/g16/l302.exe)
 NPDir=0 NMtPBC=     1 NCelOv=     1 NCel=       1 NClECP=     1 NCelD=      1
         NCelK=      1 NCelE2=     1 NClLst=     1 CellRange=     0.0.
 One-electron integrals computed using PRISM.
 NBasis=    39 RedAO= T EigKep=  3.05D-03  NBF=    39
 NBsUse=    39 1.00D-06 EigRej= -1.00D+00 NBFU=    39
 Precomputing XC quadrature grid using
 IXCGrd= 4 IRadAn=           5 IRanWt=          -1 IRanGd=           0 AccXCQ= 0.00D+00.
 Generated NRdTot=       0 NPtTot=           0 NUsed=           0 NTot=          32
 NSgBfM=    41    41    41    41    41 MxSgAt=     3 MxSgA2=     3.
 Leave Link  302 at Mon Feb 20 01:10:27 2023, MaxMem=  6710886400 cpu:               2.3 elap:               0.1
 (Enter /data0/home/software/g16/l303.exe)
 DipDrv:  MaxL=1.
 Leave Link  303 at Mon Feb 20 01:10:27 2023, MaxMem=  6710886400 cpu:               0.4 elap:               0.0
 (Enter /data0/home/software/g16/l401.exe)
 ExpMin= 8.45D-02 ExpMax= 8.59D+03 ExpMxC= 1.30D+03 IAcc=3 IRadAn=         5 AccDes= 0.00D+00
 Harris functional with IExCor= 1009 and IRadAn=       5 diagonalized for initial guess.
 HarFok:  IExCor= 1009 AccDes= 0.00D+00 IRadAn=         5 IDoV= 1 UseB2=F ITyADJ=14
 ICtDFT=  3500011 ScaDFX=  1.000000  1.000000  1.000000  1.000000
 FoFCou: FMM=F IPFlag=           0 FMFlag=      100000 FMFlg1=           0
         NFxFlg=           0 DoJE=T BraDBF=F KetDBF=T FulRan=T
         wScrn=  0.000000 ICntrl=       500 IOpCl=  0 I1Cent=   200000004 NGrid=           0
         NMat0=    1 NMatS0=      1 NMatT0=    0 NMatD0=    1 NMtDS0=    0 NMtDT0=    0
 Symmetry not used in FoFCou.
 Harris En= -76.4159322455764    
 JPrj=0 DoOrth=F DoCkMO=F.
 Leave Link  401 at Mon Feb 20 01:10:27 2023, MaxMem=  6710886400 cpu:               2.9 elap:               0.1
 (Enter /data0/home/software/g16/l502.exe)
 Keep R1 ints in memory in canonical form, NReq=21039229.
 FoFCou: FMM=F IPFlag=           0 FMFlag=           0 FMFlg1=           0
         NFxFlg=           0 DoJE=F BraDBF=F KetDBF=F FulRan=T
         wScrn=  0.000000 ICntrl=       600 IOpCl=  0 I1Cent=           0 NGrid=           0
         NMat0=    1 NMatS0=    780 NMatT0=    0 NMatD0=    1 NMtDS0=    0 NMtDT0=    0
 Symmetry not used in FoFCou.
 Two-electron integral symmetry not used.
 Closed shell SCF:
 Using DIIS extrapolation, IDIIS=  1040.
 NGot=  6710886400 LenX=  6710576467 LenY=  6710574345
 Requested convergence on RMS density matrix=1.00D-08 within 128 cycles.
 Requested convergence on MAX density matrix=1.00D-06.
 Requested convergence on             energy=1.00D-06.
 No special actions if energy rises.
 Integral accuracy reduced to 1.0D-05 until final iterations.

 Cycle   1  Pass 0  IDiag  1:
 E= -76.3467251792963    
 DIIS: error= 6.96D-02 at cycle   1 NSaved=   1.
 NSaved= 1 IEnMin= 1 EnMin= -76.3467251792963     IErMin= 1 ErrMin= 6.96D-02
 ErrMax= 6.96D-02  0.00D+00 EMaxC= 1.00D-01 BMatC= 1.20D-01 BMatP= 1.20D-01
 IDIUse=3 WtCom= 3.04D-01 WtEn= 6.96D-01
 Coeff-Com:  0.100D+01
 Coeff-En:   0.100D+01
 Coeff:      0.100D+01
 Gap=     0.324 Goal=   None    Shift=    0.000
 GapD=    0.324 DampG=1.000 DampE=0.500 DampFc=0.5000 IDamp=-1.
 Damping current iteration by 5.00D-01
 RMSDP=7.96D-03 MaxDP=1.00D-01              OVMax= 1.67D-01

 Cycle   2  Pass 0  IDiag  1:
 E= -76.3777558216153     Delta-E=       -0.031030642319 Rises=F Damp=T
 DIIS: error= 1.12D-02 at cycle   2 NSaved=   2.
 NSaved= 2 IEnMin= 2 EnMin= -76.3777558216153     IErMin= 2 ErrMin= 1.12D-02
 ErrMax= 1.12D-02  0.00D+00 EMaxC= 1.00D-01 BMatC= 4.89D-03 BMatP= 1.20D-01
 IDIUse=3 WtCom= 8.88D-01 WtEn= 1.12D-01
 Coeff-Com:  0.847D-01 0.915D+00
 Coeff-En:   0.191D+00 0.809D+00
 Coeff:      0.966D-01 0.903D+00
 Gap=     0.456 Goal=   None    Shift=    0.000
 RMSDP=9.54D-04 MaxDP=1.42D-02 DE=-3.10D-02 OVMax= 1.00D-01

 Cycle   3  Pass 0  IDiag  1:
 E= -76.4214777904872     Delta-E=       -0.043721968872 Rises=F Damp=F
 DIIS: error= 2.18D-03 at cycle   3 NSaved=   3.
 NSaved= 3 IEnMin= 3 EnMin= -76.4214777904872     IErMin= 3 ErrMin= 2.18D-03
 ErrMax= 2.18D-03  0.00D+00 EMaxC= 1.00D-01 BMatC= 9.19D-05 BMatP= 4.89D-03
 IDIUse=3 WtCom= 9.78D-01 WtEn= 2.18D-02
 Coeff-Com: -0.200D-01 0.400D-01 0.980D+00
 Coeff-En:   0.000D+00 0.000D+00 0.100D+01
 Coeff:     -0.195D-01 0.391D-01 0.980D+00
 Gap=     0.461 Goal=   None    Shift=    0.000
 RMSDP=1.15D-04 MaxDP=9.66D-04 DE=-4.37D-02 OVMax= 3.35D-03

 Cycle   4  Pass 0  IDiag  1:
 E= -76.4215562905336     Delta-E=       -0.000078500046 Rises=F Damp=F
 DIIS: error= 4.19D-04 at cycle   4 NSaved=   4.
 NSaved= 4 IEnMin= 4 EnMin= -76.4215562905336     IErMin= 4 ErrMin= 4.19D-04
 ErrMax= 4.19D-04  0.00D+00 EMaxC= 1.00D-01 BMatC= 3.35D-06 BMatP= 9.19D-05
 IDIUse=3 WtCom= 9.96D-01 WtEn= 4.19D-03
 Coeff-Com: -0.196D-02-0.223D-02 0.163D+00 0.841D+00
 Coeff-En:   0.000D+00 0.000D+00 0.000D+00 0.100D+01
 Coeff:     -0.195D-02-0.222D-02 0.163D+00 0.841D+00
 Gap=     0.461 Goal=   None    Shift=    0.000
 RMSDP=2.23D-05 MaxDP=3.57D-04 DE=-7.85D-05 OVMax= 5.44D-04

 Cycle   5  Pass 0  IDiag  1:
 E= -76.4215583663808     Delta-E=       -0.000002075847 Rises=F Damp=F
 DIIS: error= 9.06D-05 at cycle   5 NSaved=   5.
 NSaved= 5 IEnMin= 5 EnMin= -76.4215583663808     IErMin= 5 ErrMin= 9.06D-05
 ErrMax= 9.06D-05  0.00D+00 EMaxC= 1.00D-01 BMatC= 8.46D-08 BMatP= 3.35D-06
 IDIUse=1 WtCom= 1.00D+00 WtEn= 0.00D+00
 Coeff-Com:  0.119D-02-0.182D-02-0.371D-01-0.672D-01 0.110D+01
 Coeff:      0.119D-02-0.182D-02-0.371D-01-0.672D-01 0.110D+01
 Gap=     0.461 Goal=   None    Shift=    0.000
 RMSDP=9.13D-06 MaxDP=1.03D-04 DE=-2.08D-06 OVMax= 2.07D-04

 Initial convergence to 1.0D-05 achieved.  Increase integral accuracy.
 Cycle   6  Pass 1  IDiag  1:
 E= -76.4215603791800     Delta-E=       -0.000002012799 Rises=F Damp=F
 DIIS: error= 1.13D-05 at cycle   1 NSaved=   1.
 NSaved= 1 IEnMin= 1 EnMin= -76.4215603791800     IErMin= 1 ErrMin= 1.13D-05
 ErrMax= 1.13D-05  0.00D+00 EMaxC= 1.00D-01 BMatC= 6.02D-09 BMatP= 6.02D-09
 IDIUse=1 WtCom= 1.00D+00 WtEn= 0.00D+00
 Coeff-Com:  0.100D+01
 Coeff:      0.100D+01
 Gap=     0.461 Goal=   None    Shift=    0.000
 RMSDP=9.13D-06 MaxDP=1.03D-04 DE=-2.01D-06 OVMax= 3.41D-05

 Cycle   7  Pass 1  IDiag  1:
 E= -76.4215603839274     Delta-E=       -0.000000004747 Rises=F Damp=F
 DIIS: error= 6.71D-06 at cycle   2 NSaved=   2.
 NSaved= 2 IEnMin= 2 EnMin= -76.4215603839274     IErMin= 2 ErrMin= 6.71D-06
 ErrMax= 6.71D-06  0.00D+00 EMaxC= 1.00D-01 BMatC= 6.57D-10 BMatP= 6.02D-09
 IDIUse=1 WtCom= 1.00D+00 WtEn= 0.00D+00
 Coeff-Com:  0.931D-01 0.907D+00
 Coeff:      0.931D-01 0.907D+00
 Gap=     0.461 Goal=   None    Shift=    0.000
 RMSDP=5.40D-07 MaxDP=8.98D-06 DE=-4.75D-09 OVMax= 1.44D-05

 Cycle   8  Pass 1  IDiag  1:
 E= -76.4215603841120     Delta-E=       -0.000000000185 Rises=F Damp=F
 DIIS: error= 4.57D-06 at cycle   3 NSaved=   3.
 NSaved= 3 IEnMin= 3 EnMin= -76.4215603841120     IErMin= 3 ErrMin= 4.57D-06
 ErrMax= 4.57D-06  0.00D+00 EMaxC= 1.00D-01 BMatC= 5.52D-10 BMatP= 6.57D-10
 IDIUse=1 WtCom= 1.00D+00 WtEn= 0.00D+00
 Coeff-Com: -0.512D-01 0.490D+00 0.561D+00
 Coeff:     -0.512D-01 0.490D+00 0.561D+00
 Gap=     0.461 Goal=   None    Shift=    0.000
 RMSDP=2.81D-07 MaxDP=3.50D-06 DE=-1.85D-10 OVMax= 6.87D-06

 Cycle   9  Pass 1  IDiag  1:
 E= -76.4215603844848     Delta-E=       -0.000000000373 Rises=F Damp=F
 DIIS: error= 4.47D-07 at cycle   4 NSaved=   4.
 NSaved= 4 IEnMin= 4 EnMin= -76.4215603844848     IErMin= 4 ErrMin= 4.47D-07
 ErrMax= 4.47D-07  0.00D+00 EMaxC= 1.00D-01 BMatC= 2.10D-12 BMatP= 5.52D-10
 IDIUse=1 WtCom= 1.00D+00 WtEn= 0.00D+00
 Coeff-Com:  0.683D-02-0.127D+00-0.965D-01 0.122D+01
 Coeff:      0.683D-02-0.127D+00-0.965D-01 0.122D+01
 Gap=     0.461 Goal=   None    Shift=    0.000
 RMSDP=7.03D-08 MaxDP=4.99D-07 DE=-3.73D-10 OVMax= 1.43D-06

 Cycle  10  Pass 1  IDiag  1:
 E= -76.4215603844900     Delta-E=       -0.000000000005 Rises=F Damp=F
 DIIS: error= 2.85D-08 at cycle   5 NSaved=   5.
 NSaved= 5 IEnMin= 5 EnMin= -76.4215603844900     IErMin= 5 ErrMin= 2.85D-08
 ErrMax= 2.85D-08  0.00D+00 EMaxC= 1.00D-01 BMatC= 3.78D-14 BMatP= 2.10D-12
 IDIUse=1 WtCom= 1.00D+00 WtEn= 0.00D+00
 Coeff-Com:  0.181D-02-0.216D-01-0.221D-01 0.693D-01 0.973D+00
 Coeff:      0.181D-02-0.216D-01-0.221D-01 0.693D-01 0.973D+00
 Gap=     0.461 Goal=   None    Shift=    0.000
 RMSDP=9.25D-09 MaxDP=7.17D-08 DE=-5.24D-12 OVMax= 1.78D-07

 SCF Done:  E(RM062X) =  -76.4215603845     A.U. after   10 cycles
            NFock= 10  Conv=0.93D-08     -V/T= 2.0032
 KE= 7.618068646955D+01 PE=-1.989660836653D+02 EE= 3.730237638965D+01
 Leave Link  502 at Mon Feb 20 01:10:28 2023, MaxMem=  6710886400 cpu:               7.8 elap:               0.3
 (Enter /data0/home/software/g16/l601.exe)
 Copying SCF densities to generalized density rwf, IOpCl= 0 IROHF=0.

 **********************************************************************

            Population analysis using the SCF density.

 **********************************************************************

 Alpha  occ. eigenvalues --  -19.62723  -1.13213  -0.60344  -0.47657  -0.39972
 Alpha virt. eigenvalues --    0.06152   0.13252   0.17430   0.17946   0.18900
 Alpha virt. eigenvalues --    0.23419   0.50634   0.53210   0.98165   1.00329
 Alpha virt. eigenvalues --    1.06002   1.17598   1.20042   1.31920   1.34166
 Alpha virt. eigenvalues --    1.70196   1.74097   1.75164   2.07064   2.09387
 Alpha virt. eigenvalues --    2.36220   2.39337   2.54719   2.87318   3.00739
 Alpha virt. eigenvalues --    5.05599   5.48206   5.89657   6.78485   6.80081
 Alpha virt. eigenvalues --    6.87365   6.91553   7.09770  49.95211
          Condensed to atoms (all electrons):
              18         19         20
    18  O    7.920932   0.318236   0.315137
    19  H    0.318236   0.429599  -0.023617
    20  H    0.315137  -0.023617   0.429959
 Mulliken charges:
               1
     1  P    0.000000
     2  O    0.000000
     3  O    0.000000
     4  H    0.000000
     5  O    0.000000
     6  H    0.000000
     7  O    0.000000
     8  H    0.000000
     9  O    0.000000
    10  H    0.000000
    11  H    0.000000
    12  O    0.000000
    13  H    0.000000
    14  H    0.000000
    15  O    0.000000
    16  H    0.000000
    17  H    0.000000
    18  O   -0.554304
    19  H    0.275783
    20  H    0.278522
 Sum of Mulliken charges =  -0.00000
 Mulliken charges with hydrogens summed into heavy atoms:
               1
     1  P    0.000000
     2  O    0.000000
     3  O    0.000000
     5  O    0.000000
     7  O    0.000000
     9  O    0.000000
    12  O    0.000000
    15  O    0.000000
    18  O   -0.000000
         Mulliken charges condensed to fragments:
      1      0.000000
      2      0.000000
      3      0.000000
      4      0.000000
      5     -0.000000
 Electronic spatial extent (au):  <R**2>=          12311.5093
 Charge=             -0.0000 electrons
 Dipole moment (field-independent basis, Debye):
    X=              0.2609    Y=             -2.1131    Z=             -0.1934  Tot=              2.1379
 Quadrupole moment (field-independent basis, Debye-Ang):
   XX=              0.2730   YY=            -58.5524   ZZ=             -9.3501
   XY=            -21.1717   XZ=              1.3665   YZ=            -18.2322
 Traceless Quadrupole moment (field-independent basis, Debye-Ang):
   XX=             22.8161   YY=            -36.0092   ZZ=             13.1931
   XY=            -21.1717   XZ=              1.3665   YZ=            -18.2322
 Octapole moment (field-independent basis, Debye-Ang**2):
  XXX=            -94.1402  YYY=          -1203.9416  ZZZ=           -180.0240  XYY=           -636.0263
  XXY=           -279.2386  XXZ=             13.5296  XZZ=            -68.1492  YZZ=           -235.0583
  YYZ=           -469.3502  XYZ=           -166.5371
 Hexadecapole moment (field-independent basis, Debye-Ang**3):
 XXXX=          -2966.7624 YYYY=         -21820.2262 ZZZZ=          -2579.2190 XXXY=          -4448.1126
 XXXZ=           -369.4205 YYYX=         -13402.3866 YYYZ=          -9422.1375 ZZZX=          -1679.9335
 ZZZY=          -3131.8990 XXYY=          -7785.5673 XXZZ=           -662.9382 YYZZ=          -4752.1042
 XXYZ=          -1963.6416 YYXZ=          -4880.5779 ZZXY=          -2229.7095
 N-N= 9.061460421588D+00 E-N=-1.989660835088D+02  KE= 7.618068646955D+01
 No NMR shielding tensors so no spin-rotation constants.
 Leave Link  601 at Mon Feb 20 01:10:28 2023, MaxMem=  6710886400 cpu:               1.8 elap:               0.1
 (Enter /data0/home/software/g16/l122.exe)
 CPIOFr:  IOpCl= 0 IRwI=-1 IRwCP=  731 ICalc= 10 LCPTot=      156386 Len1MO=      408861 IndFrg=     4653857
 Restoring MOs from calculation   1 to rwf.
 CPIOFr:  IOpCl= 0 IRwI=-2 IRwCP=  731 ICalc=  0 LCPTot=      156386 Len1MO=      408861 IndFrg=      565247
 Counterpoise corrected energy =    -949.832279563507
                   BSSE energy =       0.003492769861
              sum of fragments =    -949.821850935299
           complexation energy =      -8.74 kcal/mole (raw)
           complexation energy =      -6.54 kcal/mole (corrected)
 Leave Link  122 at Mon Feb 20 01:10:28 2023, MaxMem=  6710886400 cpu:               0.2 elap:               0.0
 (Enter /data0/home/software/g16/l9999.exe)
 1\1\GINC-LOCALHOST\SP\RM062X\6-311+G(2d,p)\H11O8P1\WUHANYU\20-Feb-2023
 \0\\#p M062X/6-311+G(2d,p) nosymm em=GD3 counterpoise=5\\Title Card Re
 quired\\0,1\P,0,12.748051,8.79265,8.237331\O,0,12.564578,9.921727,9.16
 0709\O,0,14.171871,8.120238,8.452644\H,0,14.24093,7.336449,7.779402\O,
 0,11.727118,7.596153,8.465613\H,0,10.821583,7.828835,7.973039\O,0,12.7
 02548,9.140649,6.693832\H,0,11.739772,9.554351,6.478378\O,0,7.458277,7
 .414336,8.900192\H,0,8.158694,7.841221,8.317467\H,0,7.383589,6.532304,
 8.556848\O,0,7.606974,7.811896,11.646565\H,0,7.056062,7.131659,12.0180
 78\H,0,7.569385,7.661994,10.677885\O,0,10.215343,14.227969,9.24931\H,0
 ,10.695707,13.634674,8.633848\H,0,10.262904,15.08871,8.848714\O,0,11.5
 09952,12.468491,7.618632\H,0,12.169194,11.910498,8.043222\H,0,10.99325
 9,11.831229,7.080589\\Version=ES64L-G16RevA.03\HF=-76.4215604\RMSD=9.2
 51e-09\Dipole=-0.2218276,-3.000865,-3.7557838\Quadrupole=70.583978,-23
 .9999338,-46.5840442,-59.7776651,-76.8341465,-118.8014891\PG=C01 [X(H1
 1O8P1)]\\@


 DON'T WORRY CHARLIE BROWN...WE LEARN MORE FROM LOSING 
 THAN WE DO FROM WINNING.
 THEN THAT MAKES ME THE SMARTEST PERSON IN THE WORLD...
 CHARLES SCHULZ 'PEANUTS'
 Job cpu time:       0 days  0 hours 35 minutes  6.7 seconds.
 Elapsed time:       0 days  0 hours  1 minutes 30.9 seconds.
 File lengths (MBytes):  RWF=    104 Int=      0 D2E=      0 Chk=     42 Scr=      1
 Normal termination of Gaussian 16 at Mon Feb 20 01:10:28 2023.
