          35
 G =       -0.574342 Gcorr = 0.174232 a.u. Nimag =   0 Frame:     1 Step:     1 Geom:     1
C          10.90431300     10.96912800     11.69326400
C          11.94094700      9.96898500     11.66601100
C          13.21915400     10.29320300     11.17480500
C          13.42793700     11.58578800     10.72402500
C          12.39841900     12.56307300     10.75026200
C          11.13054300     12.27642300     11.22987000
H          14.00573500      9.54079500     11.16615900
H          14.40526600     11.87307000     10.33665900
H          12.62482400     13.56442600     10.38421300
H          10.34467200     13.02445400     11.26091200
H           8.83295200     10.70948800     12.25385600
C          10.15039400      9.00255000     12.51881200
H           9.45250000      8.27328000     12.92815000
N           9.77864600     10.34150100     12.26081000
N          11.43348700      8.75811300     12.18251200
P           9.78731700      7.44673800      9.63062900
O           8.76422600      7.70512700     10.70176500
O          11.11539800      6.62496600     10.13568800
H          11.55855400      6.92149700     10.99120300
O           9.31601400      6.36579900      8.47580700
H           9.71679900      5.46062400      8.53076200
O          10.16721700      8.72221000      8.83998100
H           9.72963400      8.87875100      7.23379100
O           9.71598900      9.82197900      6.77261300
H           8.98844500     10.29702800      7.31565100
H          10.70504000     10.27715000      7.38193300
O           7.61398400     10.09768400     10.63638700
H           6.66913100     10.05841500     10.54961400
H           7.91155200      9.11607600     10.70850100
O           9.19126900     10.97766600      8.89641400
H           9.22312300     10.09679900      9.39790900
H           8.49136000     11.47169700      9.34633100
O          11.57859600     10.59149200      8.26434900
H          11.59878000      9.69982300      8.78396100
H          11.01779700     11.17421300      8.87640800
          35
 G =       -0.602502 Gcorr = 0.180534 a.u. Nimag =   0 Frame:     2 Step:     2 Geom:     2
C          11.29099600     11.01231800     11.62127500
C          11.62106000      9.62497700     11.44054900
C          12.76721200      9.26090800     10.72445400
C          13.55358700     10.27874600     10.21638500
C          13.23730100     11.63989200     10.42174800
C          12.10884900     12.02987400     11.12168900
H          13.01081000      8.21017900     10.56288200
H          14.43645400     10.02782900      9.62573600
H          13.90493300     12.39640600     10.00918000
H          11.86805000     13.07515200     11.28329400
H           9.50044400     11.83998400     12.51184800
C           9.71689200      9.70062700     12.53420500
H           8.80226400      9.42768800     13.04367400
N          10.09028600     11.03063800     12.33284800
N          10.62157900      8.84718500     12.03395500
P           9.76268400      7.33409600      9.06486300
O           9.34099400      8.70434000      8.73570100
O           9.43553500      6.81308000     10.52070900
H          10.07793000      7.31905200     11.20763700
O           8.99306500      6.29225000      8.14294500
H           9.29085000      5.34511800      8.42742400
O          11.29955200      6.97460600      8.89611700
H          11.82604900      7.75634100      8.45484800
O          12.87976600      9.01209800      7.72797200
H          12.89440300      8.88087800      6.78146400
H          12.33121300      9.81505800      7.85506700
O           7.13164600     10.07922000     10.17025000
H           6.60432100      9.30557700     10.36760700
H           7.87666300      9.72760600      9.65608100
O           7.71075600     11.87107400     12.21657200
H           7.50706800     11.24135800     11.49743700
H           7.12174200     12.60776700     12.08546500
O          11.04734200     11.04925200      8.05297800
H          10.35824000     10.38268700      8.18522100
H          11.19947900     11.41615800      8.92994000
          35
 G =       -0.586760 Gcorr = 0.170171 a.u. Nimag =   0 Frame:     3 Step:     3 Geom:     3
C          12.10660000     11.09112500     11.55568300
C          12.14247600      9.78798600     10.95706100
C          13.36401300      9.23428800     10.52772200
C          14.50780800      9.98824900     10.72130800
C          14.46552300     11.27332900     11.32587900
C          13.27711400     11.84534700     11.74854900
H          13.38097000      8.25589000     10.04148600
H          15.47380700      9.59848000     10.39798300
H          15.40202700     11.81838200     11.45052300
H          13.24353900     12.82996700     12.20441300
H          10.37582500     12.19464600     12.23653300
C          10.01471800     10.22844100     11.41883400
H           8.92086000     10.17056100     11.49026300
N          10.74679700     11.34786400     11.84215400
N          10.82277900      9.27583400     10.89226700
P           9.99047700      7.56203800      9.65654400
O           8.78195900      8.46029700      9.66044700
O          10.50053700      6.71303300     10.97692100
H          11.03081400      7.16439700     11.67355900
O           9.46259700      6.17531800      8.91738600
H          10.00673900      5.36341800      9.05424000
O          11.26903900      7.89127500      8.73518900
H          11.37054900      8.88942200      8.32755200
O          11.37087900     10.31745700      7.76806000
H          11.05294200     10.86691000      8.52941500
H          10.61306600     10.34233500      7.15083100
O           6.46685000      8.96824000      9.78755400
H           6.98601100      8.38603200     10.39143000
H           6.88479900      8.78337700      8.92003100
O           7.50993600     11.28494700     10.44294200
H           7.10229400     10.37507600     10.18478600
H           6.76658200     11.86235000     10.56464400
O           9.19573600     10.95428000      8.55563100
H           8.85529800     10.09342700      8.91481300
H           8.68805300     11.63599400      9.02738700
          35
 G =       -0.602433 Gcorr = 0.181269 a.u. Nimag =   0 Frame:     4 Step:     4 Geom:     4
C          11.28525400     10.97493000     11.62836500
C          11.98453400      9.74335200     11.38132900
C          13.24933500      9.76015700     10.78485500
C          13.78088800     10.99132800     10.44443200
C          13.08880700     12.19678800     10.69304600
C          11.83951000     12.21143800     11.28874700
H          13.78582200      8.82916400     10.61293900
H          14.76317000     11.04446600      9.97484100
H          13.56201000     13.13723900     10.40879500
H          11.30915300     13.13764500     11.49424400
H           9.31048200     11.25843900     12.43224800
C          10.05220300      9.22122600     12.28919300
H           9.20605100      8.66477400     12.67704400
N          10.07142000     10.61634900     12.21879600
N          11.18512900      8.68222900     11.81439400
P           9.33564300      7.02224300      9.42653500
O           8.62017000      8.06910200     10.17172300
O          10.71469600      6.53169200     10.03422400
H          10.95586100      7.11598100     10.88370000
O           8.43896500      5.71431400      9.32470500
H           8.97827600      5.01041700      8.79349200
O           9.65882500      7.33079000      7.90746200
H          10.52746100      7.92169100      7.84716800
O          11.87036000      9.04756600      7.75374900
H          12.40577400      8.95960100      8.54457100
H          11.46318900      9.93151900      7.83167600
O           8.07137000     10.66619200      9.18780000
H           8.26703800      9.75984300      9.51526700
H           7.47084300     10.53223600      8.45507600
O           8.02295300     12.17028200     11.57041400
H           7.99825700     11.72363400     10.70748000
H           7.11486800     12.33994200     11.80241500
O          10.62587100     11.48567000      8.27213200
H           9.73085100     11.23548000      8.55006500
H          11.01498000     11.91229400      9.03709300
          35
 G =       -0.602387 Gcorr = 0.179929 a.u. Nimag =   0 Frame:     5 Step:     6 Geom:     6
C          11.38087300     11.05372500     11.41352100
C          11.62376500      9.64097700     11.31964900
C          12.73677900      9.16226200     10.61904100
C          13.57515700     10.09606900     10.03758800
C          13.34353600     11.48431000     10.15635800
C          12.25150000     11.98616600     10.84227400
H          12.91470700      8.09101700     10.52236600
H          14.43072600      9.75468400      9.45283300
H          14.04716200     12.17089600      9.68574200
H          12.07231400     13.05231900     10.93581400
H           9.67040200     12.06013000     12.25566600
C           9.72921100      9.90236300     12.40361800
H           8.79258200      9.71150300     12.91181400
N          10.18645000     11.19270900     12.12442100
N          10.58098000      8.96644600     11.96297300
P           9.61088200      7.14991500      9.25780800
O           9.16334000      8.51374700      8.93082400
O           9.44316400      6.68613500     10.75898400
H          10.02954100      7.33858600     11.37038800
O           8.74478200      6.07851600      8.46347600
H           9.08882700      5.14212200      8.73335000
O          11.11442000      6.76309300      8.92748900
H          11.62002200      7.55318600      8.47704300
O          12.65410700      8.79275500      7.69268000
H          12.63208600      8.63874700      6.74959300
H          12.10872700      9.59775000      7.82033100
O           7.38673500      9.98299900     10.79531000
H           8.02863600      9.54540500     10.20905400
H           6.57104300      9.51115100     10.64512800
O           8.06296100     12.58766500     11.61855800
H           7.76392800     11.73947700     11.24952600
H           7.28403900     13.02702600     11.94261300
O          10.82323300     10.83259000      8.01301200
H          10.14999800     10.17453600      8.23687700
H          11.01340400     11.27903900      8.84429300
          35
 G =       -0.601854 Gcorr = 0.181869 a.u. Nimag =   0 Frame:     6 Step:     7 Geom:     7
C          11.36813200     11.04296900     11.03616600
C          11.65720900      9.73466800     11.54540400
C          12.82897400      9.07058100     11.16439200
C          13.67350000      9.72389500     10.28571000
C          13.38232400     11.01528100      9.79083500
C          12.23502000     11.69650500     10.15637700
H          13.03787600      8.06818100     11.53332600
H          14.57874200      9.22864600      9.93817800
H          14.07788900     11.46872300      9.08565900
H          12.00206000     12.68064800      9.76534100
H           9.58719100     12.21590800     11.30540600
C           9.68203800     10.30728700     12.32443600
H           8.72081000     10.29278700     12.82226300
N          10.12443700     11.39769700     11.56949500
N          10.58423600      9.31715800     12.34446100
P           9.77818300      7.07691400      9.91372600
O           8.98486500      8.19643500      9.37899000
O           9.64801000      6.78153200     11.46118100
H          10.10403800      7.58399600     11.99728700
O           9.29861000      5.71035600      9.25792600
H           9.86233800      4.95224600      9.67767200
O          11.34607800      7.12035300      9.67435200
H          11.61041400      7.92772500      9.06749500
O          12.16095900      9.25615000      7.96405400
H          11.97695800      8.97846700      7.06572000
H          11.51142700      9.96654800      8.12635000
O           7.18420200      9.91838600     10.86552900
H           7.81294500      9.29453500     10.45302300
H           6.33076200      9.50577700     10.75396200
O           8.24235600     12.35400900     10.09120900
H           7.76323900     11.53781300     10.33605100
H           7.58240700     12.98747500      9.82549600
O           9.80170800     10.81203800      8.12297700
H           9.46254200      9.95927300      8.41906500
H           9.42753400     11.43905500      8.75050500
          35
 G =       -0.600977 Gcorr = 0.179886 a.u. Nimag =   0 Frame:     7 Step:     8 Geom:     8
C          11.27972700     11.18720800     11.56918100
C          11.61061900      9.79136700     11.65294000
C          12.79062700      9.30780100     11.07694900
C          13.62242900     10.22558300     10.46133300
C          13.30704500     11.60137700     10.41111200
C          12.13786400     12.10418800     10.95518700
H          13.01731700      8.24117600     11.10616900
H          14.55036100      9.88797700     10.00231700
H          14.01027000     12.27959800      9.92709500
H          11.89618000     13.16122500     10.91630100
H           9.45232600     12.15774600     12.17245100
C           9.64874500     10.04823300     12.60761900
H           8.70602300      9.85856800     13.10314000
N          10.03945000     11.32653500     12.19491600
N          10.57839400      9.12856300     12.32305100
P           9.72473000      6.93159400      9.83582200
O           8.64195300      7.86865000      9.52838300
O           9.95032900      6.52312900     11.34805900
H          10.25271500      7.39390300     11.88183800
O           9.44062600      5.53051800      9.13373800
H          10.15014400      4.86169800      9.46539900
O          11.19940200      7.35242700      9.41092700
H          11.20644300      7.76802400      8.46097200
O          11.52899200      8.70609700      6.95694100
H          12.45437500      8.77790200      6.73959600
H          11.27131500      9.60309100      7.24395200
O           8.32161300     10.67750700      9.00624300
H           8.47756800      9.75463300      9.29539500
H           7.68888100     10.58781300      8.29075900
O           8.01519500     12.52315700     11.14172400
H           8.06760100     11.87364100     10.41994500
H           7.73952200     13.34066800     10.73773400
O          10.91381500     11.19425700      8.00603600
H          11.43423600     11.26943000      8.81149300
H          10.00318600     11.06473300      8.31529900
          35
 G =       -0.586749 Gcorr = 0.170182 a.u. Nimag =   0 Frame:     8 Step:     9 Geom:     9
C          12.09701900     11.34716300     11.22506800
C          12.10397200      9.95085000     10.89635700
C          13.31467600      9.29345500     10.60452500
C          14.47630000     10.04263500     10.66355000
C          14.46233900     11.42265200     11.00144400
C          13.28538100     12.09586600     11.28368900
H          13.31032400      8.23802100     10.32153700
H          15.43485100      9.57309700     10.43920100
H          15.41189500     11.95848600     11.03081800
H          13.27349900     13.15178000     11.53531800
H          10.38978700     12.60562600     11.64721200
C           9.98409600     10.52596200     11.22824500
H           8.88828700     10.51001200     11.29215400
N          10.74166300     11.68875900     11.43349400
N          10.77164400      9.46851000     10.91304600
P           9.90669800      7.56524000     10.02641200
O           8.72457800      8.47692800      9.82949400
O          10.37541300      6.98276400     11.49788700
H          10.91061200      7.54934800     12.10019700
O           9.34878300      6.07335400      9.56729500
H           9.86822600      5.29116600      9.87134100
O          11.20628500      7.67178300      9.08181900
H          11.34045500      8.56449800      8.48433700
O          11.38900200      9.85277900      7.65208400
H          11.08298500     10.55175800      8.28446500
H          10.63725600      9.77655800      7.03174700
O           6.42378700      9.05776900      9.80112100
H           6.91196800      8.59044200     10.51932400
H           6.85267100      8.69632000      8.99673400
O           7.52520600     11.42983500     10.01582700
H           7.09741200     10.49642600      9.93209600
H           6.79523500     12.03651100     10.00668200
O           9.22660400     10.69367400      8.26310300
H           8.73242100     11.46855800      8.58017600
H           8.85868600      9.93142900      8.78221500
          35
 G =       -0.602589 Gcorr = 0.179727 a.u. Nimag =   0 Frame:     9 Step:    10 Geom:    10
C          11.30035800     11.25245100     11.25847400
C          11.54348900      9.84061400     11.36453000
C          12.70045300      9.28101700     10.81022300
C          13.58076600     10.13616300     10.17256200
C          13.34703400     11.52702000     10.09496100
C          12.21223000     12.10770900     10.63326200
H          12.88038200      8.20714600     10.86522100
H          14.47349700      9.72655900      9.69744300
H          14.08432800     12.15060700      9.58948200
H          12.03130900     13.17613900     10.57589000
H           9.53978000     12.35044800     11.84371400
C           9.57945800     10.23013200     12.27203600
H           8.60906200     10.10168600     12.73445800
N          10.06014800     11.47595600     11.86117900
N          10.45599600      9.24948300     12.01574700
P           9.66992900      7.08133000      9.51576700
O           9.25077500      8.38650900      8.97916700
O           9.39846000      6.82220400     11.05064300
H           9.94401200      7.55370900     11.60770400
O           8.85591000      5.90808500      8.81562700
H           9.17630500      5.01852900      9.23281500
O          11.19089600      6.66194500      9.34265100
H          11.72920500      7.38918600      8.82864700
O          12.81888400      8.52286200      7.96361100
H          12.86186900      8.24787900      7.04925700
H          12.26917100      9.33485000      7.94776200
O           7.35425500     10.07723900     10.50792700
H           8.03299400      9.57091000     10.02827400
H           6.55075600      9.58073500     10.37275400
O           7.97706300     12.77189400     11.03713700
H           7.70288800     11.88137600     10.76073500
H           7.17794300     13.24896900     11.23261700
O          10.97839500     10.57796600      7.88989600
H          11.11166000     11.13087000      8.66640200
H          10.29035400      9.94984100      8.15143700
          35
 G =       -0.586206 Gcorr = 0.168053 a.u. Nimag =   0 Frame:    10 Step:    12 Geom:    12
C          11.84043700     11.25704500     11.18813200
C          12.00285200      9.84373600     10.98781600
C          13.26342100      9.31250000     10.65102000
C          14.31696500     10.19937400     10.52590800
C          14.14966400     11.59614500     10.72945900
C          12.92309500     12.14572400     11.06025900
H          13.37414300      8.23856900     10.48101700
H          15.30810100      9.82898200     10.26128500
H          15.01994700     12.24375100     10.61681500
H          12.79297600     13.21288300     11.21545100
H           9.99219800     12.33575000     11.57384500
C           9.86453500     10.19424100     11.46657600
H           8.79582000     10.05419600     11.64169400
N          10.47989800     11.45024400     11.50639800
N          10.75183000      9.20764100     11.16674500
P           9.97413700      7.27561200     10.23864100
O           8.84748100      8.21244300      9.89559400
O          10.33721300      6.73911100     11.75202900
H          10.87086000      7.31622900     12.35422900
O           9.42722000      5.77849900      9.79051200
H           9.85822200      5.00136400     10.22286600
O          11.34830600      7.36009200      9.39671200
H          11.43041200      8.12170200      8.64467900
O          11.49836900      9.42284100      7.78019100
H          11.73761500     10.11975500      8.40345600
H          10.56867500      9.65421300      7.48994400
O           6.91471800      9.83448800      9.17895500
H           7.27031000      9.05125600      9.67094100
H           6.06722400      9.56172700      8.83949600
O           8.14914200     11.86039200     10.23267300
H           8.57201800     11.61377200      9.37815500
H           7.25627400     11.49491500     10.17566200
O           9.17061900     10.30825400      8.25395900
H           9.06679300      9.59997100      8.98025600
H           8.33852300     10.23259700      7.75863900
          35
 G =       -0.578402 Gcorr = 0.167151 a.u. Nimag =   0 Frame:    11 Step:    13 Geom:    13
C          11.31749500     11.07551200     11.41196200
C          11.71183500      9.69275500     11.46406700
C          12.83846100      9.24934000     10.74037200
C          13.51801700     10.18191600      9.98100300
C          13.11929500     11.54759500      9.93219100
C          12.02836800     12.01565100     10.64012900
H          13.14330000      8.20300500     10.78633700
H          14.38168900      9.87306200      9.38984300
H          13.69971600     12.23307300      9.31366500
H          11.72353200     13.05835300     10.61209600
H           9.56018100     12.01073200     12.28483900
C           9.89958400      9.89591600     12.70866500
H           9.06257600      9.67928700     13.36252300
N          10.17699900     11.18663500     12.22690900
N          10.80210800      8.98656300     12.27381800
P           9.86455100      7.24015900      9.74962600
O           9.34330500      8.62065800      9.47441600
O           9.83231800      6.65621700     11.25948200
H          10.36133900      7.18313700     11.98811600
O           8.93230600      6.10402700      9.02570900
H           8.98700800      5.18142200      9.39934300
O          11.35109700      6.99847600      9.21814200
H          11.83061300      7.78754900      8.59964400
O          12.27438500      8.79067600      7.62960400
H          11.93993500      8.49418500      6.77896200
H          11.71730000      9.62969600      7.85854200
O           7.79018700     10.46795400     10.15133500
H           8.44429300      9.82812700     10.50729800
H           7.44831800     10.03584200      9.36461200
O           8.11078900     12.58750700     11.25209900
H           7.33332600     12.03293500     11.41764600
H           8.35611200     12.36977600     10.33482800
O          10.35308200     10.42252100      8.13280500
H           9.61615800      9.78026600      8.00811600
H          10.37044000     10.54948800      9.10127700
          35
 G =       -0.601438 Gcorr = 0.179913 a.u. Nimag =   0 Frame:    12 Step:    14 Geom:    14
C          11.37917700     11.31585500     11.03505900
C          11.72912000      9.94929600     11.30996200
C          12.96076300      9.43459000     10.89172100
C          13.81527200     10.29029300     10.22044500
C          13.46982800     11.63578700      9.96245800
C          12.25718500     12.16982000     10.36084700
H          13.21263200      8.39436500     11.09608900
H          14.78835200      9.93202900      9.88559500
H          14.18668800     12.26421500      9.43242500
H          11.99611000     13.20588100     10.16697300
H           9.51671800     12.32618100     11.45951300
C           9.70217700     10.26616700     12.09505000
H           8.72846300     10.11163100     12.54676000
N          10.09716500     11.49437700     11.55648800
N          10.66316300      9.34026900     11.97792300
P           9.64205000      7.12301100      9.47445100
O           9.13809700      8.49772600      9.30872700
O          10.52739900      6.82240100     10.74990300
H          10.42045000      7.61067100     11.44950800
O           8.42416100      6.10208200      9.55778700
H           8.81649900      5.15183000      9.64293900
O          10.51067600      6.52883200      8.29251600
H          11.25777100      7.23165700      8.04794100
O          12.46691900      8.48867600      7.64378900
H          12.99230100      8.69709000      8.41867800
H          11.89611300      9.27304200      7.52398100
O           7.05124000      9.94007000     10.71764200
H           7.76772300      9.44044200     10.28496900
H           6.25151400      9.57080900     10.34901800
O           7.81396600     12.61010500     10.95140600
H           7.48426300     11.70731100     10.79100400
H           7.09303900     13.08738400     11.34877600
O          10.64954800     10.61051300      7.78939800
H          10.87052000     11.19274100      8.51901400
H          10.00294900      9.99286500      8.16126000
          35
 G =       -0.602424 Gcorr = 0.181278 a.u. Nimag =   0 Frame:    13 Step:    15 Geom:    15
C          11.10031100     11.19733200     11.36692700
C          11.84524900      9.97324100     11.48309700
C          13.17555100      9.91616800     11.05554800
C          13.72649600     11.06696900     10.52043100
C          12.98900700     12.26628700     10.41255700
C          11.67360600     12.35449600     10.83419500
H          13.74452400      8.99433300     11.15853500
H          14.75985100     11.06041300     10.17351900
H          13.47957100     13.14309200      9.98859200
H          11.10660300     13.27923700     10.76555700
H           9.03435800     11.56077700     11.84261800
C           9.82124500      9.57524800     12.24185300
H           8.94145800      9.07926800     12.63685300
N           9.82676400     10.92180800     11.86961300
N          11.01417100      8.99661400     12.03819400
P           9.51171900      6.78119800      9.86716500
O           8.68992900      7.93168700     10.27228700
O          10.81009000      6.49436600     10.72960600
H          10.93136600      7.25811100     11.45288700
O           8.65726500      5.44388800      9.94739500
H           9.27141300      4.66657300      9.65210100
O          10.02079700      6.76908100      8.36784000
H          10.88072000      7.36973200      8.28508300
O          12.20653600      8.50685300      8.11032200
H          12.63720600      8.61523600      8.96036100
H          11.77789300      9.36781200      7.94219800
O           8.23113600     10.23080400      8.68501200
H           7.73158900      9.91600000      7.93207500
H           8.39776100      9.42579900      9.22441100
O           7.84597500     12.20546200     10.65812600
H           7.94027900     11.58445100      9.91632600
H           6.91207400     12.37330000     10.74085600
O          10.86806100     10.94318600      7.92581800
H          11.15039400     11.54062100      8.62005800
H           9.94904200     10.72057400      8.14200100
          35
 G =       -0.579559 Gcorr = 0.165948 a.u. Nimag =   0 Frame:    14 Step:    16 Geom:    16
C          10.98527400     11.28606500     11.37368200
C          11.40703400      9.92137900     11.54427000
C          12.66653700      9.50357300     11.06787900
C          13.45151600     10.44339500     10.42729000
C          13.02360200     11.78934400     10.25582100
C          11.79942900     12.23204800     10.72199300
H          12.98721600      8.46780900     11.19841400
H          14.42623100     10.15452700     10.03121000
H          13.69129400     12.48147500      9.74195800
H          11.47124500     13.25980300     10.59928000
H           9.07638100     12.17787300     11.90115300
C           9.38318900     10.08365500     12.41474700
H           8.43878000      9.85160800     12.89445800
N           9.70735000     11.37306900     11.95635400
N          10.38192600      9.20161400     12.18873300
P          10.03191300      7.10684200      9.87543900
O           9.33998700      8.32893100      9.35817700
O           9.87420600      6.66074900     11.42377000
H          10.17618100      7.35239200     12.14627100
O           9.44803800      5.74771600      9.16958300
H           9.61162500      4.89243300      9.65338200
O          11.61290000      7.10130000      9.60245300
H          12.02412700      7.83185500      8.89530100
O          12.48109200      8.91892300      7.96675000
H          12.07034600      8.73243500      7.09879200
H          11.97448800      9.71287700      8.28886400
O           8.52446100     10.55769600      8.99346900
H           7.95709300      9.75892700      8.97744500
H           9.29850700     10.26536300      9.53011300
O           7.68448800     12.50490600     10.63022900
H           7.78597900     11.81037700      9.92940100
H           7.43269100     13.30339700     10.18757600
O          10.33932600      9.82528100      7.38210000
H           9.84699300     10.65495100      7.40064100
H           9.71857200      9.15543300      7.76302000
          35
 G =       -0.599736 Gcorr = 0.182145 a.u. Nimag =   0 Frame:    15 Step:    17 Geom:    17
C          11.24166800     11.37348000     11.42736500
C          11.90340400     10.15821300     11.81089000
C          13.29960900     10.07624500     11.78109100
C          13.99800400     11.19805500     11.37301300
C          13.34004700     12.39094300     11.00061700
C          11.96093200     12.50080000     11.02122400
H          13.79930800      9.15351100     12.06960800
H          15.08682800     11.17235500     11.33540600
H          13.94354300     13.24362700     10.68831300
H          11.45448400     13.41762400     10.73580700
H           9.13773400     11.73505400     11.22065900
C           9.74203000      9.79953000     11.99171200
H           8.77851100      9.33158200     12.16567700
N           9.87227200     11.12680700     11.56676300
N          10.93404900      9.21146900     12.15690600
P           9.73222200      6.66832300      9.95586900
O           8.72931200      7.70760000     10.24769800
O          11.13208500      6.81473100     10.67678700
H          11.03632900      7.50343100     11.47842200
O           9.18434000      5.23903000     10.39043400
H           9.92092700      4.54712700     10.18010000
O          10.13430600      6.42164100      8.44417500
H          10.17993000      7.34722500      7.94457900
O          10.02667400      8.86711800      7.04839000
H           9.13803300      9.14030100      7.30371000
H          10.58464800      9.58308500      7.39880900