 Entering Gaussian System, Link 0=g16
 Initial command:
 /data0/home/software/g16/l1.exe "/data0/home/software/g16/scratch/Gau-299793.inp" -scrdir="/data0/home/software/g16/scratch/"
 Default is to use a total of  22 processors:
                               22 via shared-memory
                                1 via Linda
 Entering Link 1 = /data0/home/software/g16/l1.exe PID=    299794.
  
 Copyright (c) 1988,1990,1992,1993,1995,1998,2003,2009,2016,
            Gaussian, Inc.  All Rights Reserved.
  
 This is part of the Gaussian(R) 16 program.  It is based on
 the Gaussian(R) 09 system (copyright 2009, Gaussian, Inc.),
 the Gaussian(R) 03 system (copyright 2003, Gaussian, Inc.),
 the Gaussian(R) 98 system (copyright 1998, Gaussian, Inc.),
 the Gaussian(R) 94 system (copyright 1995, Gaussian, Inc.),
 the Gaussian 92(TM) system (copyright 1992, Gaussian, Inc.),
 the Gaussian 90(TM) system (copyright 1990, Gaussian, Inc.),
 the Gaussian 88(TM) system (copyright 1988, Gaussian, Inc.),
 the Gaussian 86(TM) system (copyright 1986, Carnegie Mellon
 University), and the Gaussian 82(TM) system (copyright 1983,
 Carnegie Mellon University). Gaussian is a federally registered
 trademark of Gaussian, Inc.
  
 This software contains proprietary and confidential information,
 including trade secrets, belonging to Gaussian, Inc.
  
 This software is provided under written license and may be
 used, copied, transmitted, or stored only in accord with that
 written license.
  
 The following legend is applicable only to US Government
 contracts under FAR:
  
                    RESTRICTED RIGHTS LEGEND
  
 Use, reproduction and disclosure by the US Government is
 subject to restrictions as set forth in subparagraphs (a)
 and (c) of the Commercial Computer Software - Restricted
 Rights clause in FAR 52.227-19.
  
 Gaussian, Inc.
 340 Quinnipiac St., Bldg. 40, Wallingford CT 06492
  
  
 ---------------------------------------------------------------
 Warning -- This program may not be used in any manner that
 competes with the business of Gaussian, Inc. or will provide
 assistance to any competitor of Gaussian, Inc.  The licensee
 of this program is prohibited from giving any competitor of
 Gaussian, Inc. access to this program.  By using this program,
 the user acknowledges that Gaussian, Inc. is engaged in the
 business of creating and licensing software in the field of
 computational chemistry and represents and warrants to the
 licensee that it is not a competitor of Gaussian, Inc. and that
 it will not use this program in any manner prohibited above.
 ---------------------------------------------------------------
  

 Cite this work as:
 Gaussian 16, Revision A.03,
 M. J. Frisch, G. W. Trucks, H. B. Schlegel, G. E. Scuseria, 
 M. A. Robb, J. R. Cheeseman, G. Scalmani, V. Barone, 
 G. A. Petersson, H. Nakatsuji, X. Li, M. Caricato, A. V. Marenich, 
 J. Bloino, B. G. Janesko, R. Gomperts, B. Mennucci, H. P. Hratchian, 
 J. V. Ortiz, A. F. Izmaylov, J. L. Sonnenberg, D. Williams-Young, 
 F. Ding, F. Lipparini, F. Egidi, J. Goings, B. Peng, A. Petrone, 
 T. Henderson, D. Ranasinghe, V. G. Zakrzewski, J. Gao, N. Rega, 
 G. Zheng, W. Liang, M. Hada, M. Ehara, K. Toyota, R. Fukuda, 
 J. Hasegawa, M. Ishida, T. Nakajima, Y. Honda, O. Kitao, H. Nakai, 
 T. Vreven, K. Throssell, J. A. Montgomery, Jr., J. E. Peralta, 
 F. Ogliaro, M. J. Bearpark, J. J. Heyd, E. N. Brothers, K. N. Kudin, 
 V. N. Staroverov, T. A. Keith, R. Kobayashi, J. Normand, 
 K. Raghavachari, A. P. Rendell, J. C. Burant, S. S. Iyengar, 
 J. Tomasi, M. Cossi, J. M. Millam, M. Klene, C. Adamo, R. Cammi, 
 J. W. Ochterski, R. L. Martin, K. Morokuma, O. Farkas, 
 J. B. Foresman, and D. J. Fox, Gaussian, Inc., Wallingford CT, 2016.
 
 ******************************************
 Gaussian 16:  ES64L-G16RevA.03 25-Dec-2016
                19-Feb-2023 
 ******************************************
 %nproc=24
 Will use up to   24 processors via shared memory.
 %mem=50GB
 ---------------------------------------------------
 #p M062X/6-311+G(2d,p) nosymm em=GD3 counterpoise=3
 ---------------------------------------------------
 1/38=1,62=3,172=1/1;
 2/12=2,15=1,17=6,18=5,40=1/2;
 1/38=1,53=2,62=3,63=1/22;
 3/5=4,6=6,7=112,11=2,25=1,30=1,74=-55,124=31/1,2,3;
 4//1;
 5/5=2,38=5/2;
 6/7=2,8=2,9=2,10=2,28=1/1;
 1/53=2,62=3,63=1/22;
 3/5=7,6=11,7=112,11=2,25=1,30=1,74=-55,82=7,124=31/1,2,3;
 4//1;
 5/5=2,38=5/2;
 6/7=2,8=2,9=2,10=2,28=1/1;
 1/53=2,62=3,63=1/22(-4);
 99/5=1,9=1/99;
 Leave Link    1 at Sun Feb 19 13:51:29 2023, MaxMem=  6710886400 cpu:               0.7 elap:               0.0
 (Enter /data0/home/software/g16/l101.exe)
 -------------------
 Title Card Required
 -------------------
 Symbolic Z-matrix:
 Charge =  0 Multiplicity = 1 in supermolecule
 Charge =  0 Multiplicity = 1 in fragment      1.
 Charge =  0 Multiplicity = 1 in fragment      2.
 Charge =  0 Multiplicity = 1 in fragment      3.
 O                     6.67216   9.02304   7.14036    
 H                     6.18033   8.62141   6.43313    
 H                     7.17018   9.77239   6.71438    
 O                     8.20171   10.86733   5.94532    
 H                     8.35715   11.58384   6.60916    
 H                     9.00746   10.34266   6.01278    
 O                     6.62265   9.2895    10.09019    
 H                     6.49962   9.18369   9.14203    
 H                     7.22573   10.05638   10.15051    
 
 ITRead=  0  0  0  0  0  0  0  0  0
 MicOpt= -1 -1 -1 -1 -1 -1 -1 -1 -1
 NAtoms=      9 NQM=        9 NQMF=       0 NMMI=      0 NMMIF=      0
                NMic=       0 NMicF=      0.
                    Isotopes and Nuclear Properties:
 (Nuclear quadrupole moments (NQMom) in fm**2, nuclear magnetic moments (NMagM)
  in nuclear magnetons)

  Atom         1           2           3           4           5           6           7           8           9
 IAtWgt=          16           1           1          16           1           1          16           1           1
 AtmWgt=  15.9949146   1.0078250   1.0078250  15.9949146   1.0078250   1.0078250  15.9949146   1.0078250   1.0078250
 NucSpn=           0           1           1           0           1           1           0           1           1
 AtZEff=  -0.0000000  -0.0000000  -0.0000000  -0.0000000  -0.0000000  -0.0000000  -0.0000000  -0.0000000  -0.0000000
 NQMom=    0.0000000   0.0000000   0.0000000   0.0000000   0.0000000   0.0000000   0.0000000   0.0000000   0.0000000
 NMagM=    0.0000000   2.7928460   2.7928460   0.0000000   2.7928460   2.7928460   0.0000000   2.7928460   2.7928460
 AtZNuc=   8.0000000   1.0000000   1.0000000   8.0000000   1.0000000   1.0000000   8.0000000   1.0000000   1.0000000
 Leave Link  101 at Sun Feb 19 13:51:29 2023, MaxMem=  6710886400 cpu:               2.0 elap:               0.1
 (Enter /data0/home/software/g16/l202.exe)
                          Input orientation:                          
 ---------------------------------------------------------------------
 Center     Atomic      Atomic             Coordinates (Angstroms)
 Number     Number       Type             X           Y           Z
 ---------------------------------------------------------------------
      1          8           0        6.672164    9.023042    7.140364
      2          1           0        6.180332    8.621413    6.433125
      3          1           0        7.170178    9.772395    6.714376
      4          8           0        8.201705   10.867328    5.945323
      5          1           0        8.357150   11.583840    6.609160
      6          1           0        9.007458   10.342656    6.012781
      7          8           0        6.622647    9.289502   10.090189
      8          1           0        6.499619    9.183694    9.142028
      9          1           0        7.225727   10.056383   10.150510
 ---------------------------------------------------------------------
                    Distance matrix (angstroms):
                    1          2          3          4          5
     1  O    0.000000
     2  H    0.950469   0.000000
     3  H    0.995497   1.543910   0.000000
     4  O    2.677501   3.060724   1.689488   0.000000
     5  H    3.111116   3.680421   2.168250   0.989056   0.000000
     6  H    2.909712   3.336466   2.047689   0.963882   1.522861
     7  O    2.962249   3.743809   3.453851   4.707746   4.515534
     8  H    2.015500   2.785006   2.586448   3.993826   3.953042
     9  H    3.230357   4.119580   3.448297   4.392467   4.019254
                    6          7          8          9
     6  H    0.000000
     7  O    4.839598   0.000000
     8  H    4.174283   0.961946   0.000000
     9  H    4.514124   0.977472   1.518504   0.000000
 Symmetry turned off by external request.
 Stoichiometry    H6O3
 Framework group  C1[X(H6O3)]
 Deg. of freedom    21
 Full point group                 C1      NOp   1
 Rotational constants (GHZ):          14.5075754           2.5795074           2.2098303
 Leave Link  202 at Sun Feb 19 13:51:29 2023, MaxMem=  6710886400 cpu:               0.1 elap:               0.0
 (Enter /data0/home/software/g16/l122.exe)
 Counterpoise: doing full-system calculation.
 Leave Link  122 at Sun Feb 19 13:51:29 2023, MaxMem=  6710886400 cpu:               0.0 elap:               0.0
 (Enter /data0/home/software/g16/l301.exe)
 Standard basis: 6-311+G(2d,p) (5D, 7F)
 Ernie: Thresh=  0.10000D-02 Tol=  0.10000D-05 Strict=F.
   117 basis functions,   174 primitive gaussians,   123 cartesian basis functions
    15 alpha electrons       15 beta electrons
       nuclear repulsion energy        76.7242576534 Hartrees.
 IExCor= 4336 DFT=T Ex+Corr=M062X ExCW=0 ScaHFX=  0.540000
 ScaDFX=  1.000000  1.000000  1.000000  1.000000 ScalE2=  1.000000  1.000000
 IRadAn=      5 IRanWt=     -1 IRanGd=            0 ICorTp=0 IEmpDi=131
 NAtoms=    9 NActive=    9 NUniq=    9 SFac= 1.00D+00 NAtFMM=   60 NAOKFM=F Big=F
 Integral buffers will be    131072 words long.
 Raffenetti 2 integral format.
 Two-electron integral symmetry is turned off.
 R6Disp:  Grimme-D3 Dispersion energy=       -0.0001506685 Hartrees.
 Nuclear repulsion after empirical dispersion term =       76.7241069849 Hartrees.
 Leave Link  301 at Sun Feb 19 13:51:29 2023, MaxMem=  6710886400 cpu:               1.1 elap:               0.1
 (Enter /data0/home/software/g16/l302.exe)
 NPDir=0 NMtPBC=     1 NCelOv=     1 NCel=       1 NClECP=     1 NCelD=      1
         NCelK=      1 NCelE2=     1 NClLst=     1 CellRange=     0.0.
 One-electron integrals computed using PRISM.
 NBasis=   117 RedAO= T EigKep=  9.88D-04  NBF=   117
 NBsUse=   117 1.00D-06 EigRej= -1.00D+00 NBFU=   117
 Precomputing XC quadrature grid using
 IXCGrd= 4 IRadAn=           5 IRanWt=          -1 IRanGd=           0 AccXCQ= 0.00D+00.
 Generated NRdTot=       0 NPtTot=           0 NUsed=           0 NTot=          32
 NSgBfM=   123   123   123   123   123 MxSgAt=     9 MxSgA2=     9.
 Leave Link  302 at Sun Feb 19 13:51:29 2023, MaxMem=  6710886400 cpu:               2.7 elap:               0.1
 (Enter /data0/home/software/g16/l303.exe)
 DipDrv:  MaxL=1.
 Leave Link  303 at Sun Feb 19 13:51:29 2023, MaxMem=  6710886400 cpu:               0.5 elap:               0.0
 (Enter /data0/home/software/g16/l401.exe)
 ExpMin= 8.45D-02 ExpMax= 8.59D+03 ExpMxC= 1.30D+03 IAcc=3 IRadAn=         5 AccDes= 0.00D+00
 Harris functional with IExCor= 1009 and IRadAn=       5 diagonalized for initial guess.
 HarFok:  IExCor= 1009 AccDes= 0.00D+00 IRadAn=         5 IDoV= 1 UseB2=F ITyADJ=14
 ICtDFT=  3500011 ScaDFX=  1.000000  1.000000  1.000000  1.000000
 FoFCou: FMM=F IPFlag=           0 FMFlag=      100000 FMFlg1=           0
         NFxFlg=           0 DoJE=T BraDBF=F KetDBF=T FulRan=T
         wScrn=  0.000000 ICntrl=       500 IOpCl=  0 I1Cent=   200000004 NGrid=           0
         NMat0=    1 NMatS0=      1 NMatT0=    0 NMatD0=    1 NMtDS0=    0 NMtDT0=    0
 Symmetry not used in FoFCou.
 Harris En= -229.252484565269    
 JPrj=0 DoOrth=F DoCkMO=F.
 Leave Link  401 at Sun Feb 19 13:51:30 2023, MaxMem=  6710886400 cpu:               4.9 elap:               0.2
 (Enter /data0/home/software/g16/l502.exe)
 Keep R1 ints in memory in canonical form, NReq=46556122.
 FoFCou: FMM=F IPFlag=           0 FMFlag=           0 FMFlg1=           0
         NFxFlg=           0 DoJE=F BraDBF=F KetDBF=F FulRan=T
         wScrn=  0.000000 ICntrl=       600 IOpCl=  0 I1Cent=           0 NGrid=           0
         NMat0=    1 NMatS0=   6903 NMatT0=    0 NMatD0=    1 NMtDS0=    0 NMtDT0=    0
 Symmetry not used in FoFCou.
 Two-electron integral symmetry not used.
 Closed shell SCF:
 Using DIIS extrapolation, IDIIS=  1040.
 NGot=  6710886400 LenX=  6687023004 LenY=  6687007434
 Requested convergence on RMS density matrix=1.00D-08 within 128 cycles.
 Requested convergence on MAX density matrix=1.00D-06.
 Requested convergence on             energy=1.00D-06.
 No special actions if energy rises.
 Integral accuracy reduced to 1.0D-05 until final iterations.

 Cycle   1  Pass 0  IDiag  1:
 E= -229.077030858060    
 DIIS: error= 4.62D-02 at cycle   1 NSaved=   1.
 NSaved= 1 IEnMin= 1 EnMin= -229.077030858060     IErMin= 1 ErrMin= 4.62D-02
 ErrMax= 4.62D-02  0.00D+00 EMaxC= 1.00D-01 BMatC= 3.33D-01 BMatP= 3.33D-01
 IDIUse=3 WtCom= 5.38D-01 WtEn= 4.62D-01
 Coeff-Com:  0.100D+01
 Coeff-En:   0.100D+01
 Coeff:      0.100D+01
 Gap=     0.256 Goal=   None    Shift=    0.000
 GapD=    0.256 DampG=1.000 DampE=0.500 DampFc=0.5000 IDamp=-1.
 Damping current iteration by 5.00D-01
 RMSDP=5.70D-03 MaxDP=1.03D-01              OVMax= 1.73D-01

 Cycle   2  Pass 0  IDiag  1:
 E= -229.165524397185     Delta-E=       -0.088493539125 Rises=F Damp=T
 DIIS: error= 1.01D-02 at cycle   2 NSaved=   2.
 NSaved= 2 IEnMin= 2 EnMin= -229.165524397185     IErMin= 2 ErrMin= 1.01D-02
 ErrMax= 1.01D-02  0.00D+00 EMaxC= 1.00D-01 BMatC= 1.25D-02 BMatP= 3.33D-01
 IDIUse=3 WtCom= 8.99D-01 WtEn= 1.01D-01
 Coeff-Com:  0.592D-01 0.941D+00
 Coeff-En:   0.151D+00 0.849D+00
 Coeff:      0.685D-01 0.932D+00
 Gap=     0.381 Goal=   None    Shift=    0.000
 RMSDP=7.47D-04 MaxDP=1.55D-02 DE=-8.85D-02 OVMax= 1.03D-01

 Cycle   3  Pass 0  IDiag  1:
 E= -229.280139833171     Delta-E=       -0.114615435986 Rises=F Damp=F
 DIIS: error= 1.80D-03 at cycle   3 NSaved=   3.
 NSaved= 3 IEnMin= 3 EnMin= -229.280139833171     IErMin= 3 ErrMin= 1.80D-03
 ErrMax= 1.80D-03  0.00D+00 EMaxC= 1.00D-01 BMatC= 4.25D-04 BMatP= 1.25D-02
 IDIUse=3 WtCom= 9.82D-01 WtEn= 1.80D-02
 Coeff-Com: -0.251D-01 0.571D-01 0.968D+00
 Coeff-En:   0.000D+00 0.000D+00 0.100D+01
 Coeff:     -0.247D-01 0.560D-01 0.969D+00
 Gap=     0.379 Goal=   None    Shift=    0.000
 RMSDP=1.22D-04 MaxDP=3.05D-03 DE=-1.15D-01 OVMax= 6.05D-03

 Cycle   4  Pass 0  IDiag  1:
 E= -229.280405100617     Delta-E=       -0.000265267446 Rises=F Damp=F
 DIIS: error= 9.16D-04 at cycle   4 NSaved=   4.
 NSaved= 4 IEnMin= 4 EnMin= -229.280405100617     IErMin= 4 ErrMin= 9.16D-04
 ErrMax= 9.16D-04  0.00D+00 EMaxC= 1.00D-01 BMatC= 1.15D-04 BMatP= 4.25D-04
 IDIUse=3 WtCom= 9.91D-01 WtEn= 9.16D-03
 Coeff-Com: -0.121D-01 0.167D-01 0.472D+00 0.524D+00
 Coeff-En:   0.000D+00 0.000D+00 0.000D+00 0.100D+01
 Coeff:     -0.120D-01 0.165D-01 0.467D+00 0.528D+00
 Gap=     0.384 Goal=   None    Shift=    0.000
 RMSDP=4.72D-05 MaxDP=1.65D-03 DE=-2.65D-04 OVMax= 2.25D-03

 Cycle   5  Pass 0  IDiag  1:
 E= -229.280477387284     Delta-E=       -0.000072286667 Rises=F Damp=F
 DIIS: error= 1.57D-04 at cycle   5 NSaved=   5.
 NSaved= 5 IEnMin= 5 EnMin= -229.280477387284     IErMin= 5 ErrMin= 1.57D-04
 ErrMax= 1.57D-04  0.00D+00 EMaxC= 1.00D-01 BMatC= 3.30D-06 BMatP= 1.15D-04
 IDIUse=3 WtCom= 9.98D-01 WtEn= 1.57D-03
 Coeff-Com:  0.693D-03-0.324D-02-0.359D-02 0.110D+00 0.896D+00
 Coeff-En:   0.000D+00 0.000D+00 0.000D+00 0.000D+00 0.100D+01
 Coeff:      0.692D-03-0.324D-02-0.358D-02 0.110D+00 0.896D+00
 Gap=     0.383 Goal=   None    Shift=    0.000
 RMSDP=1.31D-05 MaxDP=2.59D-04 DE=-7.23D-05 OVMax= 5.80D-04

 Cycle   6  Pass 0  IDiag  1:
 E= -229.280480247968     Delta-E=       -0.000002860685 Rises=F Damp=F
 DIIS: error= 3.14D-05 at cycle   6 NSaved=   6.
 NSaved= 6 IEnMin= 6 EnMin= -229.280480247968     IErMin= 6 ErrMin= 3.14D-05
 ErrMax= 3.14D-05  0.00D+00 EMaxC= 1.00D-01 BMatC= 1.12D-07 BMatP= 3.30D-06
 IDIUse=1 WtCom= 1.00D+00 WtEn= 0.00D+00
 Coeff-Com:  0.837D-03-0.123D-02-0.290D-01-0.283D-01 0.886D-01 0.969D+00
 Coeff:      0.837D-03-0.123D-02-0.290D-01-0.283D-01 0.886D-01 0.969D+00
 Gap=     0.384 Goal=   None    Shift=    0.000
 RMSDP=4.73D-06 MaxDP=1.16D-04 DE=-2.86D-06 OVMax= 1.52D-04

 Initial convergence to 1.0D-05 achieved.  Increase integral accuracy.
 Cycle   7  Pass 1  IDiag  1:
 E= -229.280505856882     Delta-E=       -0.000025608913 Rises=F Damp=F
 DIIS: error= 2.43D-05 at cycle   1 NSaved=   1.
 NSaved= 1 IEnMin= 1 EnMin= -229.280505856882     IErMin= 1 ErrMin= 2.43D-05
 ErrMax= 2.43D-05  0.00D+00 EMaxC= 1.00D-01 BMatC= 5.94D-08 BMatP= 5.94D-08
 IDIUse=1 WtCom= 1.00D+00 WtEn= 0.00D+00
 Coeff-Com:  0.100D+01
 Coeff:      0.100D+01
 Gap=     0.384 Goal=   None    Shift=    0.000
 RMSDP=4.73D-06 MaxDP=1.16D-04 DE=-2.56D-05 OVMax= 3.95D-05

 Cycle   8  Pass 1  IDiag  1:
 E= -229.280505901431     Delta-E=       -0.000000044550 Rises=F Damp=F
 DIIS: error= 6.61D-06 at cycle   2 NSaved=   2.
 NSaved= 2 IEnMin= 2 EnMin= -229.280505901431     IErMin= 2 ErrMin= 6.61D-06
 ErrMax= 6.61D-06  0.00D+00 EMaxC= 1.00D-01 BMatC= 3.40D-09 BMatP= 5.94D-08
 IDIUse=1 WtCom= 1.00D+00 WtEn= 0.00D+00
 Coeff-Com:  0.316D-01 0.968D+00
 Coeff:      0.316D-01 0.968D+00
 Gap=     0.384 Goal=   None    Shift=    0.000
 RMSDP=6.05D-07 MaxDP=1.51D-05 DE=-4.45D-08 OVMax= 1.98D-05

 Cycle   9  Pass 1  IDiag  1:
 E= -229.280505901624     Delta-E=       -0.000000000193 Rises=F Damp=F
 DIIS: error= 5.83D-06 at cycle   3 NSaved=   3.
 NSaved= 3 IEnMin= 3 EnMin= -229.280505901624     IErMin= 3 ErrMin= 5.83D-06
 ErrMax= 5.83D-06  0.00D+00 EMaxC= 1.00D-01 BMatC= 3.76D-09 BMatP= 3.40D-09
 IDIUse=1 WtCom= 1.00D+00 WtEn= 0.00D+00
 Coeff-Com: -0.449D-01 0.529D+00 0.516D+00
 Coeff:     -0.449D-01 0.529D+00 0.516D+00
 Gap=     0.384 Goal=   None    Shift=    0.000
 RMSDP=2.75D-07 MaxDP=8.13D-06 DE=-1.93D-10 OVMax= 1.11D-05

 Cycle  10  Pass 1  IDiag  1:
 E= -229.280505904057     Delta-E=       -0.000000002433 Rises=F Damp=F
 DIIS: error= 3.95D-07 at cycle   4 NSaved=   4.
 NSaved= 4 IEnMin= 4 EnMin= -229.280505904057     IErMin= 4 ErrMin= 3.95D-07
 ErrMax= 3.95D-07  0.00D+00 EMaxC= 1.00D-01 BMatC= 1.38D-11 BMatP= 3.40D-09
 IDIUse=1 WtCom= 1.00D+00 WtEn= 0.00D+00
 Coeff-Com: -0.814D-03-0.281D-01 0.119D-01 0.102D+01
 Coeff:     -0.814D-03-0.281D-01 0.119D-01 0.102D+01
 Gap=     0.384 Goal=   None    Shift=    0.000
 RMSDP=4.41D-08 MaxDP=6.92D-07 DE=-2.43D-09 OVMax= 1.71D-06

 Cycle  11  Pass 1  IDiag  1:
 E= -229.280505904072     Delta-E=       -0.000000000014 Rises=F Damp=F
 DIIS: error= 1.36D-07 at cycle   5 NSaved=   5.
 NSaved= 5 IEnMin= 5 EnMin= -229.280505904072     IErMin= 5 ErrMin= 1.36D-07
 ErrMax= 1.36D-07  0.00D+00 EMaxC= 1.00D-01 BMatC= 2.89D-12 BMatP= 1.38D-11
 IDIUse=1 WtCom= 1.00D+00 WtEn= 0.00D+00
 Coeff-Com:  0.258D-02-0.429D-01-0.302D-01 0.348D+00 0.722D+00
 Coeff:      0.258D-02-0.429D-01-0.302D-01 0.348D+00 0.722D+00
 Gap=     0.384 Goal=   None    Shift=    0.000
 RMSDP=1.39D-08 MaxDP=3.55D-07 DE=-1.43D-11 OVMax= 6.46D-07

 Cycle  12  Pass 1  IDiag  1:
 E= -229.280505904075     Delta-E=       -0.000000000003 Rises=F Damp=F
 DIIS: error= 5.36D-08 at cycle   6 NSaved=   6.
 NSaved= 6 IEnMin= 6 EnMin= -229.280505904075     IErMin= 6 ErrMin= 5.36D-08
 ErrMax= 5.36D-08  0.00D+00 EMaxC= 1.00D-01 BMatC= 5.12D-13 BMatP= 2.89D-12
 IDIUse=1 WtCom= 1.00D+00 WtEn= 0.00D+00
 Coeff-Com:  0.117D-02-0.151D-01-0.150D-01 0.367D-01 0.317D+00 0.675D+00
 Coeff:      0.117D-02-0.151D-01-0.150D-01 0.367D-01 0.317D+00 0.675D+00
 Gap=     0.384 Goal=   None    Shift=    0.000
 RMSDP=4.16D-09 MaxDP=9.70D-08 DE=-3.35D-12 OVMax= 1.72D-07

 SCF Done:  E(RM062X) =  -229.280505904     A.U. after   12 cycles
            NFock= 12  Conv=0.42D-08     -V/T= 2.0030
 KE= 2.285919862064D+02 PE=-6.959212401542D+02 EE= 1.613246410588D+02
 Leave Link  502 at Sun Feb 19 13:51:32 2023, MaxMem=  6710886400 cpu:              44.8 elap:               2.3
 (Enter /data0/home/software/g16/l601.exe)
 Copying SCF densities to generalized density rwf, IOpCl= 0 IROHF=0.

 **********************************************************************

            Population analysis using the SCF density.

 **********************************************************************

 Alpha  occ. eigenvalues --  -19.67894 -19.61261 -19.59089  -1.18595  -1.12199
 Alpha  occ. eigenvalues --   -1.09789  -0.65043  -0.61033  -0.57375  -0.53353
 Alpha  occ. eigenvalues --   -0.48436  -0.44637  -0.43018  -0.39366  -0.36638
 Alpha virt. eigenvalues --    0.01729   0.07745   0.08949   0.10782   0.14225
 Alpha virt. eigenvalues --    0.14664   0.15026   0.17586   0.18778   0.19606
 Alpha virt. eigenvalues --    0.21377   0.23294   0.24643   0.25872   0.27148
 Alpha virt. eigenvalues --    0.30533   0.34817   0.38006   0.46159   0.49311
 Alpha virt. eigenvalues --    0.53992   0.56410   0.61473   0.66716   0.91922
 Alpha virt. eigenvalues --    0.94252   1.01286   1.03059   1.05222   1.06748
 Alpha virt. eigenvalues --    1.07442   1.09941   1.10505   1.12742   1.14662
 Alpha virt. eigenvalues --    1.21252   1.22509   1.25464   1.27462   1.32803
 Alpha virt. eigenvalues --    1.34402   1.37084   1.38642   1.44233   1.51686
 Alpha virt. eigenvalues --    1.65645   1.68161   1.70181   1.71388   1.75701
 Alpha virt. eigenvalues --    1.77382   1.80298   1.94524   1.99196   2.06326
 Alpha virt. eigenvalues --    2.10272   2.12003   2.13267   2.16552   2.27304
 Alpha virt. eigenvalues --    2.34492   2.38363   2.42824   2.47516   2.49137
 Alpha virt. eigenvalues --    2.53340   2.54329   2.62099   2.66069   2.83981
 Alpha virt. eigenvalues --    2.91588   2.98790   3.00414   3.08855   3.14143
 Alpha virt. eigenvalues --    5.07051   5.08868   5.10509   5.45281   5.51581
 Alpha virt. eigenvalues --    5.57977   5.82758   5.94587   5.97602   6.74772
 Alpha virt. eigenvalues --    6.76231   6.80448   6.82101   6.82927   6.83685
 Alpha virt. eigenvalues --    6.85942   6.88921   6.90860   6.95407   6.98936
 Alpha virt. eigenvalues --    7.01473   7.06044   7.16356   7.21083  49.93515
 Alpha virt. eigenvalues --   50.00711  50.02815
          Condensed to atoms (all electrons):
               1          2          3          4          5          6
     1  O    8.223451   0.299513   0.263631  -0.003386  -0.000702  -0.001922
     2  H    0.299513   0.410908  -0.022551   0.010520   0.000244  -0.000598
     3  H    0.263631  -0.022551   0.379899  -0.063819   0.004415   0.001309
     4  O   -0.003386   0.010520  -0.063819   8.001998   0.328174   0.334850
     5  H   -0.000702   0.000244   0.004415   0.328174   0.389865  -0.026559
     6  H   -0.001922  -0.000598   0.001309   0.334850  -0.026559   0.385311
     7  O    0.009676   0.001797  -0.000795  -0.001350   0.000246   0.000073
     8  H   -0.032571   0.002038   0.001922  -0.001877   0.000142   0.000067
     9  H    0.004693   0.000575  -0.001096   0.000297   0.000007  -0.000042
               7          8          9
     1  O    0.009676  -0.032571   0.004693
     2  H    0.001797   0.002038   0.000575
     3  H   -0.000795   0.001922  -0.001096
     4  O   -0.001350  -0.001877   0.000297
     5  H    0.000246   0.000142   0.000007
     6  H    0.000073   0.000067  -0.000042
     7  O    7.997636   0.317749   0.292263
     8  H    0.317749   0.351128  -0.027643
     9  H    0.292263  -0.027643   0.481224
 Mulliken charges:
               1
     1  O   -0.762383
     2  H    0.297554
     3  H    0.437085
     4  O   -0.605408
     5  H    0.304168
     6  H    0.307512
     7  O   -0.617294
     8  H    0.389045
     9  H    0.249721
 Sum of Mulliken charges =   0.00000
 Mulliken charges with hydrogens summed into heavy atoms:
               1
     1  O   -0.027744
     4  O    0.006272
     7  O    0.021472
         Mulliken charges condensed to fragments:
      1     -0.027744
      2      0.006272
      3      0.021472
 Electronic spatial extent (au):  <R**2>=          22587.3066
 Charge=              0.0000 electrons
 Dipole moment (field-independent basis, Debye):
    X=              2.9673    Y=              2.5397    Z=             -3.1754  Tot=              5.0337
 Quadrupole moment (field-independent basis, Debye-Ang):
   XX=             26.6336   YY=             31.2612   ZZ=            -76.6295
   XY=             50.3984   XZ=              3.0191   YZ=             -4.8318
 Traceless Quadrupole moment (field-independent basis, Debye-Ang):
   XX=             32.8785   YY=             37.5061   ZZ=            -70.3846
   XY=             50.3984   XZ=              3.0191   YZ=             -4.8318
 Octapole moment (field-independent basis, Debye-Ang**2):
  XXX=            124.8802  YYY=            197.6201  ZZZ=          -1222.7923  XYY=            570.7314
  XXY=            438.6892  XXZ=             72.3991  XZZ=           -319.7283  YZZ=           -492.3291
  YYZ=             64.0096  XYZ=            239.6199
 Hexadecapole moment (field-independent basis, Debye-Ang**3):
 XXXX=           -330.1474 YYYY=           -793.2885 ZZZZ=         -16656.4028 XXXY=           2664.5851
 XXXZ=             40.6952 YYYX=           5099.3642 YYYZ=            416.0788 ZZZX=          -6602.2739
 ZZZY=          -9422.8012 XXYY=           5072.8679 XXZZ=          -1843.9722 YYZZ=          -3535.1896
 XXYZ=           2407.2739 YYXZ=           3385.0805 ZZXY=          -1147.0371
 N-N= 7.672410698492D+01 E-N=-6.959212334536D+02  KE= 2.285919862064D+02
 No NMR shielding tensors so no spin-rotation constants.
 Leave Link  601 at Sun Feb 19 13:51:32 2023, MaxMem=  6710886400 cpu:               1.9 elap:               0.1
 (Enter /data0/home/software/g16/l122.exe)
 CPIOFr:  IOpCl= 0 IRwI=-1 IRwCP=  731 ICalc= -1 LCPTot=       22668 Len1MO=       57607 IndFrg=       22668
 CPIOFr:  IOpCl= 0 IRwI=-1 IRwCP=  731 ICalc=  0 LCPTot=       22668 Len1MO=       57607 IndFrg=       80275
 Counterpoise: doing calculation for fragment   1 using the basis set of the full-system, NewBq=T
 Leave Link  122 at Sun Feb 19 13:51:32 2023, MaxMem=  6710886400 cpu:               0.1 elap:               0.0
 (Enter /data0/home/software/g16/l301.exe)
 Basis read from rwf:  (5D, 7F)
 No pseudopotential information found on rwf file.
   117 basis functions,   174 primitive gaussians,   123 cartesian basis functions
     5 alpha electrons        5 beta electrons
       nuclear repulsion energy         9.0493494283 Hartrees.
 IExCor= 4336 DFT=T Ex+Corr=M062X ExCW=0 ScaHFX=  0.540000
 ScaDFX=  1.000000  1.000000  1.000000  1.000000 ScalE2=  1.000000  1.000000
 IRadAn=      5 IRanWt=     -1 IRanGd=            0 ICorTp=0 IEmpDi=131
 NAtoms=    9 NActive=    9 NUniq=    9 SFac= 1.00D+00 NAtFMM=   60 NAOKFM=F Big=F
 Integral buffers will be    131072 words long.
 Raffenetti 2 integral format.
 Two-electron integral symmetry is turned off.
 R6Disp:  Grimme-D3 Dispersion energy=       -0.0000000085 Hartrees.
 Nuclear repulsion after empirical dispersion term =        9.0493494199 Hartrees.
 No density basis found on file   718.
 Leave Link  301 at Sun Feb 19 13:51:32 2023, MaxMem=  6710886400 cpu:               1.3 elap:               0.1
 (Enter /data0/home/software/g16/l302.exe)
 NPDir=0 NMtPBC=     1 NCelOv=     1 NCel=       1 NClECP=     1 NCelD=      1
         NCelK=      1 NCelE2=     1 NClLst=     1 CellRange=     0.0.
 One-electron integrals computed using PRISM.
 NBasis=   117 RedAO= T EigKep=  9.88D-04  NBF=   117
 NBsUse=   117 1.00D-06 EigRej= -1.00D+00 NBFU=   117
 Precomputing XC quadrature grid using
 IXCGrd= 4 IRadAn=           5 IRanWt=          -1 IRanGd=           0 AccXCQ= 0.00D+00.
 Generated NRdTot=       0 NPtTot=           0 NUsed=           0 NTot=          32
 NSgBfM=   123   123   123   123   123 MxSgAt=     9 MxSgA2=     9.
 Leave Link  302 at Sun Feb 19 13:51:32 2023, MaxMem=  6710886400 cpu:               2.7 elap:               0.1
 (Enter /data0/home/software/g16/l303.exe)
 DipDrv:  MaxL=1.
 Leave Link  303 at Sun Feb 19 13:51:32 2023, MaxMem=  6710886400 cpu:               0.5 elap:               0.0
 (Enter /data0/home/software/g16/l401.exe)
 ExpMin= 8.45D-02 ExpMax= 8.59D+03 ExpMxC= 1.30D+03 IAcc=3 IRadAn=         5 AccDes= 0.00D+00
 Harris functional with IExCor= 1009 and IRadAn=       5 diagonalized for initial guess.
 HarFok:  IExCor= 1009 AccDes= 0.00D+00 IRadAn=         5 IDoV= 1 UseB2=F ITyADJ=14
 ICtDFT=  3500011 ScaDFX=  1.000000  1.000000  1.000000  1.000000
 FoFCou: FMM=F IPFlag=           0 FMFlag=      100000 FMFlg1=           0
         NFxFlg=           0 DoJE=T BraDBF=F KetDBF=T FulRan=T
         wScrn=  0.000000 ICntrl=       500 IOpCl=  0 I1Cent=   200000004 NGrid=           0
         NMat0=    1 NMatS0=      1 NMatT0=    0 NMatD0=    1 NMtDS0=    0 NMtDT0=    0
 Symmetry not used in FoFCou.
 Harris En= -76.4160545815336    
 JPrj=0 DoOrth=F DoCkMO=F.
 Leave Link  401 at Sun Feb 19 13:51:33 2023, MaxMem=  6710886400 cpu:               4.6 elap:               0.2
 (Enter /data0/home/software/g16/l502.exe)
 Keep R1 ints in memory in canonical form, NReq=46556122.
 FoFCou: FMM=F IPFlag=           0 FMFlag=           0 FMFlg1=           0
         NFxFlg=           0 DoJE=F BraDBF=F KetDBF=F FulRan=T
         wScrn=  0.000000 ICntrl=       600 IOpCl=  0 I1Cent=           0 NGrid=           0
         NMat0=    1 NMatS0=   6903 NMatT0=    0 NMatD0=    1 NMtDS0=    0 NMtDT0=    0
 Symmetry not used in FoFCou.
 Two-electron integral symmetry not used.
 Closed shell SCF:
 Using DIIS extrapolation, IDIIS=  1040.
 NGot=  6710886400 LenX=  6687023004 LenY=  6687007434
 Requested convergence on RMS density matrix=1.00D-08 within 128 cycles.
 Requested convergence on MAX density matrix=1.00D-06.
 Requested convergence on             energy=1.00D-06.
 No special actions if energy rises.
 Integral accuracy reduced to 1.0D-05 until final iterations.

 Cycle   1  Pass 0  IDiag  1:
 E= -76.3463843732289    
 DIIS: error= 2.56D-02 at cycle   1 NSaved=   1.
 NSaved= 1 IEnMin= 1 EnMin= -76.3463843732289     IErMin= 1 ErrMin= 2.56D-02
 ErrMax= 2.56D-02  0.00D+00 EMaxC= 1.00D-01 BMatC= 1.20D-01 BMatP= 1.20D-01
 IDIUse=3 WtCom= 7.44D-01 WtEn= 2.56D-01
 Coeff-Com:  0.100D+01
 Coeff-En:   0.100D+01
 Coeff:      0.100D+01
 Gap=     0.290 Goal=   None    Shift=    0.000
 GapD=    0.290 DampG=1.000 DampE=0.500 DampFc=0.5000 IDamp=-1.
 Damping current iteration by 5.00D-01
 RMSDP=3.37D-03 MaxDP=9.90D-02              OVMax= 1.70D-01

 Cycle   2  Pass 0  IDiag  1:
 E= -76.3772044595828     Delta-E=       -0.030820086354 Rises=F Damp=T
 DIIS: error= 6.18D-03 at cycle   2 NSaved=   2.
 NSaved= 2 IEnMin= 2 EnMin= -76.3772044595828     IErMin= 2 ErrMin= 6.18D-03
 ErrMax= 6.18D-03  0.00D+00 EMaxC= 1.00D-01 BMatC= 5.06D-03 BMatP= 1.20D-01
 IDIUse=3 WtCom= 9.38D-01 WtEn= 6.18D-02
 Coeff-Com:  0.885D-01 0.911D+00
 Coeff-En:   0.199D+00 0.801D+00
 Coeff:      0.953D-01 0.905D+00
 Gap=     0.419 Goal=   None    Shift=    0.000
 RMSDP=4.53D-04 MaxDP=1.46D-02 DE=-3.08D-02 OVMax= 1.03D-01

 Cycle   3  Pass 0  IDiag  1:
 E= -76.4215039616059     Delta-E=       -0.044299502023 Rises=F Damp=F
 DIIS: error= 8.95D-04 at cycle   3 NSaved=   3.
 NSaved= 3 IEnMin= 3 EnMin= -76.4215039616059     IErMin= 3 ErrMin= 8.95D-04
 ErrMax= 8.95D-04  0.00D+00 EMaxC= 1.00D-01 BMatC= 1.45D-04 BMatP= 5.06D-03
 IDIUse=3 WtCom= 9.91D-01 WtEn= 8.95D-03
 Coeff-Com: -0.267D-01 0.506D-01 0.976D+00
 Coeff-En:   0.000D+00 0.000D+00 0.100D+01
 Coeff:     -0.264D-01 0.501D-01 0.976D+00
 Gap=     0.421 Goal=   None    Shift=    0.000
 RMSDP=5.84D-05 MaxDP=1.15D-03 DE=-4.43D-02 OVMax= 3.87D-03

 Cycle   4  Pass 0  IDiag  1:
 E= -76.4216210805982     Delta-E=       -0.000117118992 Rises=F Damp=F
 DIIS: error= 1.42D-04 at cycle   4 NSaved=   4.
 NSaved= 4 IEnMin= 4 EnMin= -76.4216210805982     IErMin= 4 ErrMin= 1.42D-04
 ErrMax= 1.42D-04  0.00D+00 EMaxC= 1.00D-01 BMatC= 2.90D-06 BMatP= 1.45D-04
 IDIUse=3 WtCom= 9.99D-01 WtEn= 1.42D-03
 Coeff-Com: -0.313D-02 0.348D-03 0.153D+00 0.849D+00
 Coeff-En:   0.000D+00 0.000D+00 0.000D+00 0.100D+01
 Coeff:     -0.312D-02 0.347D-03 0.153D+00 0.850D+00
 Gap=     0.421 Goal=   None    Shift=    0.000
 RMSDP=9.36D-06 MaxDP=3.21D-04 DE=-1.17D-04 OVMax= 5.19D-04

 Initial convergence to 1.0D-05 achieved.  Increase integral accuracy.
 Cycle   5  Pass 1  IDiag  1:
 E= -76.4216215623535     Delta-E=       -0.000000481755 Rises=F Damp=F
 DIIS: error= 2.87D-05 at cycle   1 NSaved=   1.
 NSaved= 1 IEnMin= 1 EnMin= -76.4216215623535     IErMin= 1 ErrMin= 2.87D-05
 ErrMax= 2.87D-05  0.00D+00 EMaxC= 1.00D-01 BMatC= 9.16D-08 BMatP= 9.16D-08
 IDIUse=1 WtCom= 1.00D+00 WtEn= 0.00D+00
 Coeff-Com:  0.100D+01
 Coeff:      0.100D+01
 Gap=     0.421 Goal=   None    Shift=    0.000
 RMSDP=9.36D-06 MaxDP=3.21D-04 DE=-4.82D-07 OVMax= 2.33D-04

 Cycle   6  Pass 1  IDiag  1:
 E= -76.4216216724145     Delta-E=       -0.000000110061 Rises=F Damp=F
 DIIS: error= 1.55D-05 at cycle   2 NSaved=   2.
 NSaved= 2 IEnMin= 2 EnMin= -76.4216216724145     IErMin= 2 ErrMin= 1.55D-05
 ErrMax= 1.55D-05  0.00D+00 EMaxC= 1.00D-01 BMatC= 5.41D-08 BMatP= 9.16D-08
 IDIUse=1 WtCom= 1.00D+00 WtEn= 0.00D+00
 Coeff-Com:  0.410D+00 0.590D+00
 Coeff:      0.410D+00 0.590D+00
 Gap=     0.421 Goal=   None    Shift=    0.000
 RMSDP=1.12D-06 MaxDP=4.25D-05 DE=-1.10D-07 OVMax= 7.95D-05

 Cycle   7  Pass 1  IDiag  1:
 E= -76.4216217082427     Delta-E=       -0.000000035828 Rises=F Damp=F
 DIIS: error= 8.34D-06 at cycle   3 NSaved=   3.
 NSaved= 3 IEnMin= 3 EnMin= -76.4216217082427     IErMin= 3 ErrMin= 8.34D-06
 ErrMax= 8.34D-06  0.00D+00 EMaxC= 1.00D-01 BMatC= 5.78D-09 BMatP= 5.41D-08
 IDIUse=1 WtCom= 1.00D+00 WtEn= 0.00D+00
 Coeff-Com: -0.121D+00 0.176D+00 0.945D+00
 Coeff:     -0.121D+00 0.176D+00 0.945D+00
 Gap=     0.421 Goal=   None    Shift=    0.000
 RMSDP=8.84D-07 MaxDP=1.97D-05 DE=-3.58D-08 OVMax= 4.47D-05

 Cycle   8  Pass 1  IDiag  1:
 E= -76.4216217140909     Delta-E=       -0.000000005848 Rises=F Damp=F
 DIIS: error= 7.75D-07 at cycle   4 NSaved=   4.
 NSaved= 4 IEnMin= 4 EnMin= -76.4216217140909     IErMin= 4 ErrMin= 7.75D-07
 ErrMax= 7.75D-07  0.00D+00 EMaxC= 1.00D-01 BMatC= 7.89D-11 BMatP= 5.78D-09
 IDIUse=1 WtCom= 1.00D+00 WtEn= 0.00D+00
 Coeff-Com: -0.333D-01 0.106D-01 0.155D+00 0.867D+00
 Coeff:     -0.333D-01 0.106D-01 0.155D+00 0.867D+00
 Gap=     0.421 Goal=   None    Shift=    0.000
 RMSDP=1.20D-07 MaxDP=2.54D-06 DE=-5.85D-09 OVMax= 5.64D-06

 Cycle   9  Pass 1  IDiag  1:
 E= -76.4216217141926     Delta-E=       -0.000000000102 Rises=F Damp=F
 DIIS: error= 1.33D-07 at cycle   5 NSaved=   5.
 NSaved= 5 IEnMin= 5 EnMin= -76.4216217141926     IErMin= 5 ErrMin= 1.33D-07
 ErrMax= 1.33D-07  0.00D+00 EMaxC= 1.00D-01 BMatC= 1.63D-12 BMatP= 7.89D-11
 IDIUse=1 WtCom= 1.00D+00 WtEn= 0.00D+00
 Coeff-Com:  0.555D-02-0.650D-02-0.432D-01-0.861D-01 0.113D+01
 Coeff:      0.555D-02-0.650D-02-0.432D-01-0.861D-01 0.113D+01
 Gap=     0.421 Goal=   None    Shift=    0.000
 RMSDP=2.56D-08 MaxDP=6.47D-07 DE=-1.02D-10 OVMax= 1.56D-06

 Cycle  10  Pass 1  IDiag  1:
 E= -76.4216217141971     Delta-E=       -0.000000000004 Rises=F Damp=F
 DIIS: error= 1.17D-08 at cycle   6 NSaved=   6.
 NSaved= 6 IEnMin= 6 EnMin= -76.4216217141971     IErMin= 6 ErrMin= 1.17D-08
 ErrMax= 1.17D-08  0.00D+00 EMaxC= 1.00D-01 BMatC= 3.43D-14 BMatP= 1.63D-12
 IDIUse=1 WtCom= 1.00D+00 WtEn= 0.00D+00
 Coeff-Com: -0.226D-03 0.784D-03 0.306D-02-0.918D-02-0.985D-01 0.110D+01
 Coeff:     -0.226D-03 0.784D-03 0.306D-02-0.918D-02-0.985D-01 0.110D+01
 Gap=     0.421 Goal=   None    Shift=    0.000
 RMSDP=2.80D-09 MaxDP=5.35D-08 DE=-4.46D-12 OVMax= 1.60D-07

 SCF Done:  E(RM062X) =  -76.4216217142     A.U. after   10 cycles
            NFock= 10  Conv=0.28D-08     -V/T= 2.0033
 KE= 7.616834940920D+01 PE=-1.989346643403D+02 EE= 3.729534379706D+01
 Leave Link  502 at Sun Feb 19 13:51:35 2023, MaxMem=  6710886400 cpu:              37.4 elap:               1.9
 (Enter /data0/home/software/g16/l601.exe)
 Copying SCF densities to generalized density rwf, IOpCl= 0 IROHF=0.

 **********************************************************************

            Population analysis using the SCF density.

 **********************************************************************

 Alpha  occ. eigenvalues --  -19.62718  -1.13059  -0.60634  -0.47342  -0.39935
 Alpha virt. eigenvalues --    0.02193   0.08283   0.09766   0.12490   0.12906
 Alpha virt. eigenvalues --    0.15436   0.16829   0.16961   0.20158   0.21814
 Alpha virt. eigenvalues --    0.23012   0.23946   0.26613   0.28763   0.30810
 Alpha virt. eigenvalues --    0.32625   0.37366   0.39281   0.52272   0.57862
 Alpha virt. eigenvalues --    0.58875   0.62403   0.69269   0.70312   0.76816
 Alpha virt. eigenvalues --    0.77169   0.84274   0.87086   0.92331   0.95644
 Alpha virt. eigenvalues --    0.98960   1.06342   1.07657   1.08627   1.13337
 Alpha virt. eigenvalues --    1.22911   1.30101   1.45325   1.47731   1.64365
 Alpha virt. eigenvalues --    1.74696   1.74911   1.75616   1.78775   1.81377
 Alpha virt. eigenvalues --    1.83072   1.90574   1.97750   2.06186   2.09564
 Alpha virt. eigenvalues --    2.15801   2.20507   2.24606   2.33424   2.36012
 Alpha virt. eigenvalues --    2.37407   2.42133   2.48347   2.52223   2.53689
 Alpha virt. eigenvalues --    2.57526   2.58814   2.60430   2.63174   2.65861
 Alpha virt. eigenvalues --    2.66828   2.68873   2.70740   2.75996   2.88670
 Alpha virt. eigenvalues --    2.89577   2.93803   3.02004   3.04452   3.20003
 Alpha virt. eigenvalues --    3.43414   3.51290   3.54557   3.59937   4.43164
 Alpha virt. eigenvalues --    4.52353   4.95551   5.04423   5.09757   5.57275
 Alpha virt. eigenvalues --    5.97652   6.80406   6.80964   6.91076   6.96415
 Alpha virt. eigenvalues --    7.15376   9.73062   9.74928   9.82680   9.85168
 Alpha virt. eigenvalues --    9.90521   9.95973   9.96474   9.99708  10.01861
 Alpha virt. eigenvalues --   10.15732  12.78418  12.98998  13.11869  13.39630
 Alpha virt. eigenvalues --   13.52015  13.90957  17.50995  17.92015  50.00586
 Alpha virt. eigenvalues --  133.93644 138.39612
          Condensed to atoms (all electrons):
               1          2          3          4          5          6
     1  O    8.126570   0.298058   0.257058   0.031618  -0.002710  -0.006164
     2  H    0.298058   0.421917  -0.014421  -0.003546   0.000485   0.000670
     3  H    0.257058  -0.014421   0.380171  -0.000861   0.002150   0.001404
     4  O    0.031618  -0.003546  -0.000861   0.017650  -0.005075  -0.006493
     5  H   -0.002710   0.000485   0.002150  -0.005075   0.002405   0.001458
     6  H   -0.006164   0.000670   0.001404  -0.006493   0.001458   0.003230
     7  O    0.036521  -0.000906  -0.002245  -0.000065  -0.000096   0.000081
     8  H   -0.072124   0.002940   0.005027   0.000255   0.000128  -0.000151
     9  H   -0.001269   0.000009   0.000160  -0.000019   0.000013  -0.000001
               7          8          9
     1  O    0.036521  -0.072124  -0.001269
     2  H   -0.000906   0.002940   0.000009
     3  H   -0.002245   0.005027   0.000160
     4  O   -0.000065   0.000255  -0.000019
     5  H   -0.000096   0.000128   0.000013
     6  H    0.000081  -0.000151  -0.000001
     7  O    0.019593  -0.024440  -0.001208
     8  H   -0.024440   0.033274   0.001274
     9  H   -0.001208   0.001274   0.000159
 Mulliken charges:
               1
     1  O   -0.667557
     2  H    0.294794
     3  H    0.371556
     4  O   -0.033464
     5  H    0.001242
     6  H    0.005966
     7  O   -0.027234
     8  H    0.053815
     9  H    0.000882
 Sum of Mulliken charges =  -0.00000
 Mulliken charges with hydrogens summed into heavy atoms:
               1
     1  O   -0.001206
     4  O   -0.026256
     7  O    0.027463
         Mulliken charges condensed to fragments:
      1     -0.001206
      2     -0.026256
      3      0.027463
 Electronic spatial extent (au):  <R**2>=           6315.9991
 Charge=             -0.0000 electrons
 Dipole moment (field-independent basis, Debye):
    X=             -0.0211    Y=              0.5769    Z=             -1.9392  Tot=              2.0233
 Quadrupole moment (field-independent basis, Debye-Ang):
   XX=             -6.6487   YY=              4.6691   ZZ=            -33.6249
   XY=              5.2859   XZ=            -12.6571   YZ=            -13.3947
 Traceless Quadrupole moment (field-independent basis, Debye-Ang):
   XX=              5.2194   YY=             16.5373   ZZ=            -21.7567
   XY=              5.2859   XZ=            -12.6571   YZ=            -13.3947
 Octapole moment (field-independent basis, Debye-Ang**2):
  XXX=           -130.3577  YYY=            -14.4022  ZZZ=           -422.8136  XYY=             59.1844
  XXY=            -12.6212  XXZ=           -128.0595  XZZ=           -219.6524  YZZ=           -274.5633
  YYZ=           -125.0203  XYZ=            -75.8296
 Hexadecapole moment (field-independent basis, Debye-Ang**3):
 XXXX=          -1735.6280 YYYY=          -1112.6528 ZZZZ=          -4621.4903 XXXY=           -787.9124
 XXXZ=          -1449.4023 YYYX=            296.6971 YYYZ=          -1536.4778 ZZZX=          -2770.8364
 ZZZY=          -3614.5895 XXYY=             60.9864 XXZZ=          -1761.4433 YYZZ=          -2514.8571
 XXYZ=           -826.1515 YYXZ=           -610.0377 ZZXY=          -1715.0901
 N-N= 9.049349419880D+00 E-N=-1.989346642785D+02  KE= 7.616834940920D+01
 No NMR shielding tensors so no spin-rotation constants.
 Leave Link  601 at Sun Feb 19 13:51:35 2023, MaxMem=  6710886400 cpu:               1.9 elap:               0.1
 (Enter /data0/home/software/g16/l122.exe)
 CPIOFr:  IOpCl= 0 IRwI=-1 IRwCP=  731 ICalc=  1 LCPTot=       22668 Len1MO=       57607 IndFrg=      137882
 Counterpoise: doing calculation for fragment   2 using the basis set of the full-system, NewBq=T
 Leave Link  122 at Sun Feb 19 13:51:35 2023, MaxMem=  6710886400 cpu:               0.1 elap:               0.0
 (Enter /data0/home/software/g16/l301.exe)
 Basis read from rwf:  (5D, 7F)
 No pseudopotential information found on rwf file.
   117 basis functions,   174 primitive gaussians,   123 cartesian basis functions
     5 alpha electrons        5 beta electrons
       nuclear repulsion energy         9.0197969676 Hartrees.
 IExCor= 4336 DFT=T Ex+Corr=M062X ExCW=0 ScaHFX=  0.540000
 ScaDFX=  1.000000  1.000000  1.000000  1.000000 ScalE2=  1.000000  1.000000
 IRadAn=      5 IRanWt=     -1 IRanGd=            0 ICorTp=0 IEmpDi=131
 NAtoms=    9 NActive=    9 NUniq=    9 SFac= 1.00D+00 NAtFMM=   60 NAOKFM=F Big=F
 Integral buffers will be    131072 words long.
 Raffenetti 2 integral format.
 Two-electron integral symmetry is turned off.
 R6Disp:  Grimme-D3 Dispersion energy=       -0.0000000077 Hartrees.
 Nuclear repulsion after empirical dispersion term =        9.0197969599 Hartrees.
 No density basis found on file   718.
 Leave Link  301 at Sun Feb 19 13:51:35 2023, MaxMem=  6710886400 cpu:               1.3 elap:               0.1
 (Enter /data0/home/software/g16/l302.exe)
 NPDir=0 NMtPBC=     1 NCelOv=     1 NCel=       1 NClECP=     1 NCelD=      1
         NCelK=      1 NCelE2=     1 NClLst=     1 CellRange=     0.0.
 One-electron integrals computed using PRISM.
 NBasis=   117 RedAO= T EigKep=  9.88D-04  NBF=   117
 NBsUse=   117 1.00D-06 EigRej= -1.00D+00 NBFU=   117
 Precomputing XC quadrature grid using
 IXCGrd= 4 IRadAn=           5 IRanWt=          -1 IRanGd=           0 AccXCQ= 0.00D+00.
 Generated NRdTot=       0 NPtTot=           0 NUsed=           0 NTot=          32
 NSgBfM=   123   123   123   123   123 MxSgAt=     9 MxSgA2=     9.
 Leave Link  302 at Sun Feb 19 13:51:35 2023, MaxMem=  6710886400 cpu:               2.7 elap:               0.1
 (Enter /data0/home/software/g16/l303.exe)
 DipDrv:  MaxL=1.
 Leave Link  303 at Sun Feb 19 13:51:35 2023, MaxMem=  6710886400 cpu:               0.5 elap:               0.0
 (Enter /data0/home/software/g16/l401.exe)
 ExpMin= 8.45D-02 ExpMax= 8.59D+03 ExpMxC= 1.30D+03 IAcc=3 IRadAn=         5 AccDes= 0.00D+00
 Harris functional with IExCor= 1009 and IRadAn=       5 diagonalized for initial guess.
 HarFok:  IExCor= 1009 AccDes= 0.00D+00 IRadAn=         5 IDoV= 1 UseB2=F ITyADJ=14
 ICtDFT=  3500011 ScaDFX=  1.000000  1.000000  1.000000  1.000000
 FoFCou: FMM=F IPFlag=           0 FMFlag=      100000 FMFlg1=           0
         NFxFlg=           0 DoJE=T BraDBF=F KetDBF=T FulRan=T
         wScrn=  0.000000 ICntrl=       500 IOpCl=  0 I1Cent=   200000004 NGrid=           0
         NMat0=    1 NMatS0=      1 NMatT0=    0 NMatD0=    1 NMtDS0=    0 NMtDT0=    0
 Symmetry not used in FoFCou.
 Harris En= -76.4158522729630    
 JPrj=0 DoOrth=F DoCkMO=F.
 Leave Link  401 at Sun Feb 19 13:51:35 2023, MaxMem=  6710886400 cpu:               4.6 elap:               0.2
 (Enter /data0/home/software/g16/l502.exe)
 Keep R1 ints in memory in canonical form, NReq=46556122.
 FoFCou: FMM=F IPFlag=           0 FMFlag=           0 FMFlg1=           0
         NFxFlg=           0 DoJE=F BraDBF=F KetDBF=F FulRan=T
         wScrn=  0.000000 ICntrl=       600 IOpCl=  0 I1Cent=           0 NGrid=           0
         NMat0=    1 NMatS0=   6903 NMatT0=    0 NMatD0=    1 NMtDS0=    0 NMtDT0=    0
 Symmetry not used in FoFCou.
 Two-electron integral symmetry not used.
 Closed shell SCF:
 Using DIIS extrapolation, IDIIS=  1040.
 NGot=  6710886400 LenX=  6687023004 LenY=  6687007434
 Requested convergence on RMS density matrix=1.00D-08 within 128 cycles.
 Requested convergence on MAX density matrix=1.00D-06.
 Requested convergence on             energy=1.00D-06.
 No special actions if energy rises.
 Integral accuracy reduced to 1.0D-05 until final iterations.

 Cycle   1  Pass 0  IDiag  1:
 E= -76.3478456593556    
 DIIS: error= 3.97D-02 at cycle   1 NSaved=   1.
 NSaved= 1 IEnMin= 1 EnMin= -76.3478456593556     IErMin= 1 ErrMin= 3.97D-02
 ErrMax= 3.97D-02  0.00D+00 EMaxC= 1.00D-01 BMatC= 1.18D-01 BMatP= 1.18D-01
 IDIUse=3 WtCom= 6.03D-01 WtEn= 3.97D-01
 Coeff-Com:  0.100D+01
 Coeff-En:   0.100D+01
 Coeff:      0.100D+01
 Gap=     0.309 Goal=   None    Shift=    0.000
 GapD=    0.309 DampG=1.000 DampE=0.500 DampFc=0.5000 IDamp=-1.
 Damping current iteration by 5.00D-01
 RMSDP=4.32D-03 MaxDP=9.86D-02              OVMax= 1.70D-01

 Cycle   2  Pass 0  IDiag  1:
 E= -76.3781872520637     Delta-E=       -0.030341592708 Rises=F Damp=T
 DIIS: error= 6.40D-03 at cycle   2 NSaved=   2.
 NSaved= 2 IEnMin= 2 EnMin= -76.3781872520637     IErMin= 2 ErrMin= 6.40D-03
 ErrMax= 6.40D-03  0.00D+00 EMaxC= 1.00D-01 BMatC= 5.07D-03 BMatP= 1.18D-01
 IDIUse=3 WtCom= 9.36D-01 WtEn= 6.40D-02
 Coeff-Com:  0.902D-01 0.910D+00
 Coeff-En:   0.201D+00 0.799D+00
 Coeff:      0.973D-01 0.903D+00
 Gap=     0.437 Goal=   None    Shift=    0.000
 RMSDP=6.83D-04 MaxDP=1.92D-02 DE=-3.03D-02 OVMax= 1.03D-01

 Cycle   3  Pass 0  IDiag  1:
 E= -76.4219705101189     Delta-E=       -0.043783258055 Rises=F Damp=F
 DIIS: error= 1.68D-03 at cycle   3 NSaved=   3.
 NSaved= 3 IEnMin= 3 EnMin= -76.4219705101189     IErMin= 3 ErrMin= 1.68D-03
 ErrMax= 1.68D-03  0.00D+00 EMaxC= 1.00D-01 BMatC= 1.38D-04 BMatP= 5.07D-03
 IDIUse=3 WtCom= 9.83D-01 WtEn= 1.68D-02
 Coeff-Com: -0.260D-01 0.492D-01 0.977D+00
 Coeff-En:   0.000D+00 0.000D+00 0.100D+01
 Coeff:     -0.255D-01 0.483D-01 0.977D+00
 Gap=     0.438 Goal=   None    Shift=    0.000
 RMSDP=5.95D-05 MaxDP=1.13D-03 DE=-4.38D-02 OVMax= 3.84D-03

 Cycle   4  Pass 0  IDiag  1:
 E= -76.4220819106591     Delta-E=       -0.000111400540 Rises=F Damp=F
 DIIS: error= 1.56D-04 at cycle   4 NSaved=   4.
 NSaved= 4 IEnMin= 4 EnMin= -76.4220819106591     IErMin= 4 ErrMin= 1.56D-04
 ErrMax= 1.56D-04  0.00D+00 EMaxC= 1.00D-01 BMatC= 3.04D-06 BMatP= 1.38D-04
 IDIUse=3 WtCom= 9.98D-01 WtEn= 1.56D-03
 Coeff-Com: -0.277D-02-0.347D-03 0.152D+00 0.851D+00
 Coeff-En:   0.000D+00 0.000D+00 0.000D+00 0.100D+01
 Coeff:     -0.277D-02-0.347D-03 0.152D+00 0.851D+00
 Gap=     0.439 Goal=   None    Shift=    0.000
 RMSDP=1.49D-05 MaxDP=3.40D-04 DE=-1.11D-04 OVMax= 5.55D-04

 Cycle   5  Pass 0  IDiag  1:
 E= -76.4220838603443     Delta-E=       -0.000001949685 Rises=F Damp=F
 DIIS: error= 2.87D-05 at cycle   5 NSaved=   5.
 NSaved= 5 IEnMin= 5 EnMin= -76.4220838603443     IErMin= 5 ErrMin= 2.87D-05
 ErrMax= 2.87D-05  0.00D+00 EMaxC= 1.00D-01 BMatC= 8.05D-08 BMatP= 3.04D-06
 IDIUse=1 WtCom= 1.00D+00 WtEn= 0.00D+00
 Coeff-Com:  0.142D-02-0.220D-02-0.378D-01-0.563D-01 0.109D+01
 Coeff:      0.142D-02-0.220D-02-0.378D-01-0.563D-01 0.109D+01
 Gap=     0.439 Goal=   None    Shift=    0.000
 RMSDP=9.88D-06 MaxDP=2.57D-04 DE=-1.95D-06 OVMax= 2.25D-04

 Initial convergence to 1.0D-05 achieved.  Increase integral accuracy.
 Cycle   6  Pass 1  IDiag  1:
 E= -76.4220973972082     Delta-E=       -0.000013536864 Rises=F Damp=F
 DIIS: error= 1.08D-05 at cycle   1 NSaved=   1.
 NSaved= 1 IEnMin= 1 EnMin= -76.4220973972082     IErMin= 1 ErrMin= 1.08D-05
 ErrMax= 1.08D-05  0.00D+00 EMaxC= 1.00D-01 BMatC= 1.50D-08 BMatP= 1.50D-08
 IDIUse=1 WtCom= 1.00D+00 WtEn= 0.00D+00
 Coeff-Com:  0.100D+01
 Coeff:      0.100D+01
 Gap=     0.439 Goal=   None    Shift=    0.000
 RMSDP=9.88D-06 MaxDP=2.57D-04 DE=-1.35D-05 OVMax= 4.10D-05

 Cycle   7  Pass 1  IDiag  1:
 E= -76.4220974085431     Delta-E=       -0.000000011335 Rises=F Damp=F
 DIIS: error= 2.89D-06 at cycle   2 NSaved=   2.
 NSaved= 2 IEnMin= 2 EnMin= -76.4220974085431     IErMin= 2 ErrMin= 2.89D-06
 ErrMax= 2.89D-06  0.00D+00 EMaxC= 1.00D-01 BMatC= 7.12D-10 BMatP= 1.50D-08
 IDIUse=1 WtCom= 1.00D+00 WtEn= 0.00D+00
 Coeff-Com:  0.152D-01 0.985D+00
 Coeff:      0.152D-01 0.985D+00
 Gap=     0.439 Goal=   None    Shift=    0.000
 RMSDP=4.62D-07 MaxDP=9.49D-06 DE=-1.13D-08 OVMax= 1.68D-05

 Cycle   8  Pass 1  IDiag  1:
 E= -76.4220974087113     Delta-E=       -0.000000000168 Rises=F Damp=F
 DIIS: error= 2.69D-06 at cycle   3 NSaved=   3.
 NSaved= 3 IEnMin= 3 EnMin= -76.4220974087113     IErMin= 3 ErrMin= 2.69D-06
 ErrMax= 2.69D-06  0.00D+00 EMaxC= 1.00D-01 BMatC= 7.60D-10 BMatP= 7.12D-10
 IDIUse=1 WtCom= 1.00D+00 WtEn= 0.00D+00
 Coeff-Com: -0.452D-01 0.525D+00 0.520D+00
 Coeff:     -0.452D-01 0.525D+00 0.520D+00
 Gap=     0.439 Goal=   None    Shift=    0.000
 RMSDP=1.20D-07 MaxDP=4.55D-06 DE=-1.68D-10 OVMax= 7.62D-06

 Cycle   9  Pass 1  IDiag  1:
 E= -76.4220974092146     Delta-E=       -0.000000000503 Rises=F Damp=F
 DIIS: error= 2.36D-07 at cycle   4 NSaved=   4.
 NSaved= 4 IEnMin= 4 EnMin= -76.4220974092146     IErMin= 4 ErrMin= 2.36D-07
 ErrMax= 2.36D-07  0.00D+00 EMaxC= 1.00D-01 BMatC= 4.89D-12 BMatP= 7.12D-10
 IDIUse=1 WtCom= 1.00D+00 WtEn= 0.00D+00
 Coeff-Com:  0.132D-02-0.742D-01-0.114D-01 0.108D+01
 Coeff:      0.132D-02-0.742D-01-0.114D-01 0.108D+01
 Gap=     0.439 Goal=   None    Shift=    0.000
 RMSDP=5.01D-08 MaxDP=1.10D-06 DE=-5.03D-10 OVMax= 1.57D-06

 Cycle  10  Pass 1  IDiag  1:
 E= -76.4220974092218     Delta-E=       -0.000000000007 Rises=F Damp=F
 DIIS: error= 3.45D-08 at cycle   5 NSaved=   5.
 NSaved= 5 IEnMin= 5 EnMin= -76.4220974092218     IErMin= 5 ErrMin= 3.45D-08
 ErrMax= 3.45D-08  0.00D+00 EMaxC= 1.00D-01 BMatC= 2.12D-13 BMatP= 4.89D-12
 IDIUse=1 WtCom= 1.00D+00 WtEn= 0.00D+00
 Coeff-Com:  0.281D-02-0.406D-01-0.319D-01 0.158D+00 0.911D+00
 Coeff:      0.281D-02-0.406D-01-0.319D-01 0.158D+00 0.911D+00
 Gap=     0.439 Goal=   None    Shift=    0.000
 RMSDP=1.02D-08 MaxDP=2.26D-07 DE=-7.11D-12 OVMax= 4.02D-07

 Cycle  11  Pass 1  IDiag  1:
 E= -76.4220974092229     Delta-E=       -0.000000000001 Rises=F Damp=F
 DIIS: error= 5.57D-09 at cycle   6 NSaved=   6.
 NSaved= 6 IEnMin= 6 EnMin= -76.4220974092229     IErMin= 6 ErrMin= 5.57D-09
 ErrMax= 5.57D-09  0.00D+00 EMaxC= 1.00D-01 BMatC= 3.71D-15 BMatP= 2.12D-13
 IDIUse=1 WtCom= 1.00D+00 WtEn= 0.00D+00
 Coeff-Com: -0.659D-04 0.253D-02-0.233D-03-0.322D-01-0.483D-01 0.108D+01
 Coeff:     -0.659D-04 0.253D-02-0.233D-03-0.322D-01-0.483D-01 0.108D+01
 Gap=     0.439 Goal=   None    Shift=    0.000
 RMSDP=1.46D-09 MaxDP=2.60D-08 DE=-1.12D-12 OVMax= 7.16D-08

 SCF Done:  E(RM062X) =  -76.4220974092     A.U. after   11 cycles
            NFock= 11  Conv=0.15D-08     -V/T= 2.0035
 KE= 7.615895779509D+01 PE=-1.988681853768D+02 EE= 3.726733321260D+01
 Leave Link  502 at Sun Feb 19 13:51:37 2023, MaxMem=  6710886400 cpu:              39.2 elap:               2.1
 (Enter /data0/home/software/g16/l601.exe)
 Copying SCF densities to generalized density rwf, IOpCl= 0 IROHF=0.

 **********************************************************************

            Population analysis using the SCF density.

 **********************************************************************

 Alpha  occ. eigenvalues --  -19.62880  -1.13042  -0.60028  -0.47750  -0.39988
 Alpha virt. eigenvalues --    0.03930   0.07869   0.11072   0.12674   0.14820
 Alpha virt. eigenvalues --    0.15700   0.16827   0.18870   0.20063   0.21112
 Alpha virt. eigenvalues --    0.22412   0.24765   0.28395   0.30318   0.31948
 Alpha virt. eigenvalues --    0.33667   0.38814   0.41186   0.50514   0.54249
 Alpha virt. eigenvalues --    0.61103   0.64385   0.75496   0.77438   0.78942
 Alpha virt. eigenvalues --    0.80273   0.86925   0.90266   0.97485   0.99054
 Alpha virt. eigenvalues --    1.00975   1.04795   1.08469   1.10752   1.16919
 Alpha virt. eigenvalues --    1.19804   1.21499   1.40628   1.63887   1.69200
 Alpha virt. eigenvalues --    1.74756   1.77206   1.80182   1.82768   1.86020
 Alpha virt. eigenvalues --    1.89168   1.94796   1.97446   2.05261   2.11545
 Alpha virt. eigenvalues --    2.14199   2.21965   2.26095   2.33594   2.36670
 Alpha virt. eigenvalues --    2.40622   2.49484   2.50627   2.54254   2.56962
 Alpha virt. eigenvalues --    2.58151   2.61140   2.65083   2.67317   2.68838
 Alpha virt. eigenvalues --    2.72190   2.75459   2.82273   2.86976   2.90683
 Alpha virt. eigenvalues --    2.94884   2.98735   3.06646   3.07426   3.13222
 Alpha virt. eigenvalues --    3.45600   3.60194   3.69638   3.71283   4.57761
 Alpha virt. eigenvalues --    4.66444   5.06429   5.20774   5.25096   5.52830
 Alpha virt. eigenvalues --    5.87779   6.81793   6.83264   6.91242   7.06906
 Alpha virt. eigenvalues --    7.11310   9.68556   9.74214   9.82326   9.86266
 Alpha virt. eigenvalues --   10.02809  10.20676  10.23763  10.32879  10.36813
 Alpha virt. eigenvalues --   10.56480  12.71611  13.14678  13.36087  13.58495
 Alpha virt. eigenvalues --   13.77532  14.26920  17.55221  18.38319  49.99134
 Alpha virt. eigenvalues --  133.07484 139.68269
          Condensed to atoms (all electrons):
               1          2          3          4          5          6
     1  O    0.022902  -0.000270  -0.035277   0.046977  -0.002227  -0.001188
     2  H   -0.000270   0.002998  -0.003243   0.010439  -0.000294  -0.000771
     3  H   -0.035277  -0.003243   0.070591  -0.120460   0.004950   0.004513
     4  O    0.046977   0.010439  -0.120460   7.986406   0.334062   0.339140
     5  H   -0.002227  -0.000294   0.004950   0.334062   0.415359  -0.030650
     6  H   -0.001188  -0.000771   0.004513   0.339140  -0.030650   0.414006
     7  O   -0.000644   0.000002   0.000860  -0.001144   0.000119   0.000063
     8  H   -0.000936  -0.000502   0.000504  -0.001153   0.000091   0.000091
     9  H    0.000346   0.000036  -0.000201   0.000335  -0.000042  -0.000019
               7          8          9
     1  O   -0.000644  -0.000936   0.000346
     2  H    0.000002  -0.000502   0.000036
     3  H    0.000860   0.000504  -0.000201
     4  O   -0.001144  -0.001153   0.000335
     5  H    0.000119   0.000091  -0.000042
     6  H    0.000063   0.000091  -0.000019
     7  O    0.000306  -0.000153  -0.000099
     8  H   -0.000153   0.001326  -0.000305
     9  H   -0.000099  -0.000305   0.000204
 Mulliken charges:
               1
     1  O   -0.029683
     2  H   -0.008394
     3  H    0.077763
     4  O   -0.594601
     5  H    0.278631
     6  H    0.274814
     7  O    0.000689
     8  H    0.001036
     9  H   -0.000255
 Sum of Mulliken charges =  -0.00000
 Mulliken charges with hydrogens summed into heavy atoms:
               1
     1  O    0.039686
     4  O   -0.041156
     7  O    0.001470
         Mulliken charges condensed to fragments:
      1      0.039686
      2     -0.041156
      3      0.001470
 Electronic spatial extent (au):  <R**2>=           7968.5937
 Charge=             -0.0000 electrons
 Dipole moment (field-independent basis, Debye):
    X=              1.6342    Y=              0.2956    Z=              1.2436  Tot=              2.0748
 Quadrupole moment (field-independent basis, Debye-Ang):
   XX=             20.8949   YY=              0.9116   ZZ=              8.1768
   XY=             19.2775   XZ=             20.2644   YZ=             16.5195
 Traceless Quadrupole moment (field-independent basis, Debye-Ang):
   XX=             10.9004   YY=             -9.0828   ZZ=             -1.8176
   XY=             19.2775   XZ=             20.2644   YZ=             16.5195
 Octapole moment (field-independent basis, Debye-Ang**2):
  XXX=            184.0313  YYY=            -74.8830  ZZZ=             13.3869  XYY=            180.9165
  XXY=            231.2931  XXZ=            213.3645  XZZ=            128.6397  YZZ=            114.6958
  YYZ=            179.7749  XYZ=            239.5892
 Hexadecapole moment (field-independent basis, Debye-Ang**3):
 XXXX=           1203.6130 YYYY=          -2390.6047 ZZZZ=           -378.0273 XXXY=           1959.9547
 XXXZ=           1844.6716 YYYX=           1166.6782 YYYZ=           1605.5723 ZZZX=            484.1783
 ZZZY=            350.1952 XXYY=           2188.7252 XXZZ=           1345.6584 YYZZ=           1334.7422
 XXYZ=           2429.4945 YYXZ=           2549.4153 ZZXY=           1579.3633
 N-N= 9.019796959892D+00 E-N=-1.988681851963D+02  KE= 7.615895779509D+01
 No NMR shielding tensors so no spin-rotation constants.
 Leave Link  601 at Sun Feb 19 13:51:37 2023, MaxMem=  6710886400 cpu:               1.9 elap:               0.1
 (Enter /data0/home/software/g16/l122.exe)
 CPIOFr:  IOpCl= 0 IRwI=-1 IRwCP=  731 ICalc=  2 LCPTot=       22668 Len1MO=       57607 IndFrg=      195489
 Counterpoise: doing calculation for fragment   3 using the basis set of the full-system, NewBq=T
 Leave Link  122 at Sun Feb 19 13:51:37 2023, MaxMem=  6710886400 cpu:               0.1 elap:               0.0
 (Enter /data0/home/software/g16/l301.exe)
 Basis read from rwf:  (5D, 7F)
 No pseudopotential information found on rwf file.
   117 basis functions,   174 primitive gaussians,   123 cartesian basis functions
     5 alpha electrons        5 beta electrons
       nuclear repulsion energy         9.0803622873 Hartrees.
 IExCor= 4336 DFT=T Ex+Corr=M062X ExCW=0 ScaHFX=  0.540000
 ScaDFX=  1.000000  1.000000  1.000000  1.000000 ScalE2=  1.000000  1.000000
 IRadAn=      5 IRanWt=     -1 IRanGd=            0 ICorTp=0 IEmpDi=131
 NAtoms=    9 NActive=    9 NUniq=    9 SFac= 1.00D+00 NAtFMM=   60 NAOKFM=F Big=F
 Integral buffers will be    131072 words long.
 Raffenetti 2 integral format.
 Two-electron integral symmetry is turned off.
 R6Disp:  Grimme-D3 Dispersion energy=       -0.0000000075 Hartrees.
 Nuclear repulsion after empirical dispersion term =        9.0803622798 Hartrees.
 No density basis found on file   718.
 Leave Link  301 at Sun Feb 19 13:51:37 2023, MaxMem=  6710886400 cpu:               1.3 elap:               0.1
 (Enter /data0/home/software/g16/l302.exe)
 NPDir=0 NMtPBC=     1 NCelOv=     1 NCel=       1 NClECP=     1 NCelD=      1
         NCelK=      1 NCelE2=     1 NClLst=     1 CellRange=     0.0.
 One-electron integrals computed using PRISM.
 NBasis=   117 RedAO= T EigKep=  9.88D-04  NBF=   117
 NBsUse=   117 1.00D-06 EigRej= -1.00D+00 NBFU=   117
 Precomputing XC quadrature grid using
 IXCGrd= 4 IRadAn=           5 IRanWt=          -1 IRanGd=           0 AccXCQ= 0.00D+00.
 Generated NRdTot=       0 NPtTot=           0 NUsed=           0 NTot=          32
 NSgBfM=   123   123   123   123   123 MxSgAt=     9 MxSgA2=     9.
 Leave Link  302 at Sun Feb 19 13:51:38 2023, MaxMem=  6710886400 cpu:               2.7 elap:               0.1
 (Enter /data0/home/software/g16/l303.exe)
 DipDrv:  MaxL=1.
 Leave Link  303 at Sun Feb 19 13:51:38 2023, MaxMem=  6710886400 cpu:               0.5 elap:               0.0
 (Enter /data0/home/software/g16/l401.exe)
 ExpMin= 8.45D-02 ExpMax= 8.59D+03 ExpMxC= 1.30D+03 IAcc=3 IRadAn=         5 AccDes= 0.00D+00
 Harris functional with IExCor= 1009 and IRadAn=       5 diagonalized for initial guess.
 HarFok:  IExCor= 1009 AccDes= 0.00D+00 IRadAn=         5 IDoV= 1 UseB2=F ITyADJ=14
 ICtDFT=  3500011 ScaDFX=  1.000000  1.000000  1.000000  1.000000
 FoFCou: FMM=F IPFlag=           0 FMFlag=      100000 FMFlg1=           0
         NFxFlg=           0 DoJE=T BraDBF=F KetDBF=T FulRan=T
         wScrn=  0.000000 ICntrl=       500 IOpCl=  0 I1Cent=   200000004 NGrid=           0
         NMat0=    1 NMatS0=      1 NMatT0=    0 NMatD0=    1 NMtDS0=    0 NMtDT0=    0
 Symmetry not used in FoFCou.
 Harris En= -76.4163903326586    
 JPrj=0 DoOrth=F DoCkMO=F.
 Leave Link  401 at Sun Feb 19 13:51:38 2023, MaxMem=  6710886400 cpu:               4.7 elap:               0.2
 (Enter /data0/home/software/g16/l502.exe)
 Keep R1 ints in memory in canonical form, NReq=46556122.
 FoFCou: FMM=F IPFlag=           0 FMFlag=           0 FMFlg1=           0
         NFxFlg=           0 DoJE=F BraDBF=F KetDBF=F FulRan=T
         wScrn=  0.000000 ICntrl=       600 IOpCl=  0 I1Cent=           0 NGrid=           0
         NMat0=    1 NMatS0=   6903 NMatT0=    0 NMatD0=    1 NMtDS0=    0 NMtDT0=    0
 Symmetry not used in FoFCou.
 Two-electron integral symmetry not used.
 Closed shell SCF:
 Using DIIS extrapolation, IDIIS=  1040.
 NGot=  6710886400 LenX=  6687023004 LenY=  6687007434
 Requested convergence on RMS density matrix=1.00D-08 within 128 cycles.
 Requested convergence on MAX density matrix=1.00D-06.
 Requested convergence on             energy=1.00D-06.
 No special actions if energy rises.
 Integral accuracy reduced to 1.0D-05 until final iterations.

 Cycle   1  Pass 0  IDiag  1:
 E= -76.3469813590980    
 DIIS: error= 2.69D-02 at cycle   1 NSaved=   1.
 NSaved= 1 IEnMin= 1 EnMin= -76.3469813590980     IErMin= 1 ErrMin= 2.69D-02
 ErrMax= 2.69D-02  0.00D+00 EMaxC= 1.00D-01 BMatC= 1.20D-01 BMatP= 1.20D-01
 IDIUse=3 WtCom= 7.31D-01 WtEn= 2.69D-01
 Coeff-Com:  0.100D+01
 Coeff-En:   0.100D+01
 Coeff:      0.100D+01
 Gap=     0.292 Goal=   None    Shift=    0.000
 GapD=    0.292 DampG=1.000 DampE=0.500 DampFc=0.5000 IDamp=-1.
 Damping current iteration by 5.00D-01
 RMSDP=2.86D-03 MaxDP=9.95D-02              OVMax= 1.68D-01

 Cycle   2  Pass 0  IDiag  1:
 E= -76.3779588108278     Delta-E=       -0.030977451730 Rises=F Damp=T
 DIIS: error= 7.14D-03 at cycle   2 NSaved=   2.
 NSaved= 2 IEnMin= 2 EnMin= -76.3779588108278     IErMin= 2 ErrMin= 7.14D-03
 ErrMax= 7.14D-03  0.00D+00 EMaxC= 1.00D-01 BMatC= 4.92D-03 BMatP= 1.20D-01
 IDIUse=3 WtCom= 9.29D-01 WtEn= 7.14D-02
 Coeff-Com:  0.854D-01 0.915D+00
 Coeff-En:   0.193D+00 0.807D+00
 Coeff:      0.931D-01 0.907D+00
 Gap=     0.416 Goal=   None    Shift=    0.000
 RMSDP=3.54D-04 MaxDP=1.45D-02 DE=-3.10D-02 OVMax= 1.02D-01

 Cycle   3  Pass 0  IDiag  1:
 E= -76.4218662580737     Delta-E=       -0.043907447246 Rises=F Damp=F
 DIIS: error= 1.08D-03 at cycle   3 NSaved=   3.
 NSaved= 3 IEnMin= 3 EnMin= -76.4218662580737     IErMin= 3 ErrMin= 1.08D-03
 ErrMax= 1.08D-03  0.00D+00 EMaxC= 1.00D-01 BMatC= 1.31D-04 BMatP= 4.92D-03
 IDIUse=3 WtCom= 9.89D-01 WtEn= 1.08D-02
 Coeff-Com: -0.253D-01 0.481D-01 0.977D+00
 Coeff-En:   0.000D+00 0.000D+00 0.100D+01
 Coeff:     -0.250D-01 0.476D-01 0.977D+00
 Gap=     0.418 Goal=   None    Shift=    0.000
 RMSDP=4.93D-05 MaxDP=1.25D-03 DE=-4.39D-02 OVMax= 3.74D-03

 Cycle   4  Pass 0  IDiag  1:
 E= -76.4219729495577     Delta-E=       -0.000106691484 Rises=F Damp=F
 DIIS: error= 1.30D-04 at cycle   4 NSaved=   4.
 NSaved= 4 IEnMin= 4 EnMin= -76.4219729495577     IErMin= 4 ErrMin= 1.30D-04
 ErrMax= 1.30D-04  0.00D+00 EMaxC= 1.00D-01 BMatC= 2.93D-06 BMatP= 1.31D-04
 IDIUse=3 WtCom= 9.99D-01 WtEn= 1.30D-03
 Coeff-Com: -0.284D-02-0.273D-03 0.154D+00 0.849D+00
 Coeff-En:   0.000D+00 0.000D+00 0.000D+00 0.100D+01
 Coeff:     -0.283D-02-0.273D-03 0.154D+00 0.849D+00
 Gap=     0.418 Goal=   None    Shift=    0.000
 RMSDP=7.72D-06 MaxDP=3.32D-04 DE=-1.07D-04 OVMax= 5.17D-04

 Initial convergence to 1.0D-05 achieved.  Increase integral accuracy.
 Cycle   5  Pass 1  IDiag  1:
 E= -76.4219850094312     Delta-E=       -0.000012059873 Rises=F Damp=F
 DIIS: error= 2.97D-05 at cycle   1 NSaved=   1.
 NSaved= 1 IEnMin= 1 EnMin= -76.4219850094312     IErMin= 1 ErrMin= 2.97D-05
 ErrMax= 2.97D-05  0.00D+00 EMaxC= 1.00D-01 BMatC= 1.09D-07 BMatP= 1.09D-07
 IDIUse=1 WtCom= 1.00D+00 WtEn= 0.00D+00
 Coeff-Com:  0.100D+01
 Coeff:      0.100D+01
 Gap=     0.419 Goal=   None    Shift=    0.000
 RMSDP=7.72D-06 MaxDP=3.32D-04 DE=-1.21D-05 OVMax= 2.29D-04

 Cycle   6  Pass 1  IDiag  1:
 E= -76.4219851118435     Delta-E=       -0.000000102412 Rises=F Damp=F
 DIIS: error= 2.28D-05 at cycle   2 NSaved=   2.
 NSaved= 2 IEnMin= 2 EnMin= -76.4219851118435     IErMin= 2 ErrMin= 2.28D-05
 ErrMax= 2.28D-05  0.00D+00 EMaxC= 1.00D-01 BMatC= 6.61D-08 BMatP= 1.09D-07
 IDIUse=1 WtCom= 1.00D+00 WtEn= 0.00D+00
 Coeff-Com:  0.417D+00 0.583D+00
 Coeff:      0.417D+00 0.583D+00
 Gap=     0.419 Goal=   None    Shift=    0.000
 RMSDP=1.21D-06 MaxDP=4.47D-05 DE=-1.02D-07 OVMax= 8.32D-05

 Cycle   7  Pass 1  IDiag  1:
 E= -76.4219851547298     Delta-E=       -0.000000042886 Rises=F Damp=F
 DIIS: error= 8.38D-06 at cycle   3 NSaved=   3.
 NSaved= 3 IEnMin= 3 EnMin= -76.4219851547298     IErMin= 3 ErrMin= 8.38D-06
 ErrMax= 8.38D-06  0.00D+00 EMaxC= 1.00D-01 BMatC= 6.16D-09 BMatP= 6.61D-08
 IDIUse=1 WtCom= 1.00D+00 WtEn= 0.00D+00
 Coeff-Com: -0.863D-01 0.181D+00 0.905D+00
 Coeff:     -0.863D-01 0.181D+00 0.905D+00
 Gap=     0.419 Goal=   None    Shift=    0.000
 RMSDP=5.57D-07 MaxDP=1.93D-05 DE=-4.29D-08 OVMax= 4.08D-05

 Cycle   8  Pass 1  IDiag  1:
 E= -76.4219851603425     Delta-E=       -0.000000005613 Rises=F Damp=F
 DIIS: error= 9.72D-07 at cycle   4 NSaved=   4.
 NSaved= 4 IEnMin= 4 EnMin= -76.4219851603425     IErMin= 4 ErrMin= 9.72D-07
 ErrMax= 9.72D-07  0.00D+00 EMaxC= 1.00D-01 BMatC= 8.58D-11 BMatP= 6.16D-09
 IDIUse=1 WtCom= 1.00D+00 WtEn= 0.00D+00
 Coeff-Com: -0.286D-01 0.114D-01 0.131D+00 0.886D+00
 Coeff:     -0.286D-01 0.114D-01 0.131D+00 0.886D+00
 Gap=     0.419 Goal=   None    Shift=    0.000
 RMSDP=9.72D-08 MaxDP=2.56D-06 DE=-5.61D-09 OVMax= 5.83D-06

 Cycle   9  Pass 1  IDiag  1:
 E= -76.4219851604662     Delta-E=       -0.000000000124 Rises=F Damp=F
 DIIS: error= 1.97D-07 at cycle   5 NSaved=   5.
 NSaved= 5 IEnMin= 5 EnMin= -76.4219851604662     IErMin= 5 ErrMin= 1.97D-07
 ErrMax= 1.97D-07  0.00D+00 EMaxC= 1.00D-01 BMatC= 2.39D-12 BMatP= 8.58D-11
 IDIUse=1 WtCom= 1.00D+00 WtEn= 0.00D+00
 Coeff-Com:  0.408D-02-0.746D-02-0.457D-01-0.732D-01 0.112D+01
 Coeff:      0.408D-02-0.746D-02-0.457D-01-0.732D-01 0.112D+01
 Gap=     0.419 Goal=   None    Shift=    0.000
 RMSDP=2.55D-08 MaxDP=7.12D-07 DE=-1.24D-10 OVMax= 1.64D-06

 Cycle  10  Pass 1  IDiag  1:
 E= -76.4219851604726     Delta-E=       -0.000000000006 Rises=F Damp=F
 DIIS: error= 2.14D-08 at cycle   6 NSaved=   6.
 NSaved= 6 IEnMin= 6 EnMin= -76.4219851604726     IErMin= 6 ErrMin= 2.14D-08
 ErrMax= 2.14D-08  0.00D+00 EMaxC= 1.00D-01 BMatC= 3.50D-14 BMatP= 2.39D-12
 IDIUse=1 WtCom= 1.00D+00 WtEn= 0.00D+00
 Coeff-Com:  0.655D-04 0.340D-03 0.277D-02-0.689D-02-0.764D-01 0.108D+01
 Coeff:      0.655D-04 0.340D-03 0.277D-02-0.689D-02-0.764D-01 0.108D+01
 Gap=     0.419 Goal=   None    Shift=    0.000
 RMSDP=2.36D-09 MaxDP=3.96D-08 DE=-6.48D-12 OVMax= 1.71D-07

 SCF Done:  E(RM062X) =  -76.4219851605     A.U. after   10 cycles
            NFock= 10  Conv=0.24D-08     -V/T= 2.0031
 KE= 7.618545132384D+01 PE=-1.990035991091D+02 EE= 3.731580034500D+01
 Leave Link  502 at Sun Feb 19 13:51:40 2023, MaxMem=  6710886400 cpu:              32.5 elap:               1.7
 (Enter /data0/home/software/g16/l601.exe)
 Copying SCF densities to generalized density rwf, IOpCl= 0 IROHF=0.

 **********************************************************************

            Population analysis using the SCF density.

 **********************************************************************

 Alpha  occ. eigenvalues --  -19.62718  -1.13308  -0.60436  -0.47707  -0.40004
 Alpha virt. eigenvalues --    0.01867   0.08303   0.09113   0.12131   0.14602
 Alpha virt. eigenvalues --    0.15310   0.17974   0.18552   0.19743   0.21510
 Alpha virt. eigenvalues --    0.21893   0.24300   0.26906   0.29052   0.30356
 Alpha virt. eigenvalues --    0.32603   0.37314   0.37868   0.51522   0.57944
 Alpha virt. eigenvalues --    0.62574   0.63848   0.72341   0.76630   0.77788
 Alpha virt. eigenvalues --    0.78551   0.83316   0.86012   0.99899   1.00978
 Alpha virt. eigenvalues --    1.03795   1.05820   1.06613   1.07575   1.20213
 Alpha virt. eigenvalues --    1.21137   1.23534   1.32701   1.38573   1.69503
 Alpha virt. eigenvalues --    1.72077   1.74615   1.75508   1.80793   1.85855
 Alpha virt. eigenvalues --    1.91492   2.03666   2.07261   2.08692   2.12156
 Alpha virt. eigenvalues --    2.13483   2.20862   2.23750   2.31241   2.39551
 Alpha virt. eigenvalues --    2.44178   2.47197   2.48968   2.53557   2.55183
 Alpha virt. eigenvalues --    2.57459   2.58766   2.61371   2.69261   2.71324
 Alpha virt. eigenvalues --    2.74940   2.77082   2.80249   2.88342   2.91774
 Alpha virt. eigenvalues --    2.97896   3.02150   3.06343   3.14723   3.22408
 Alpha virt. eigenvalues --    3.51256   3.60292   3.67300   3.73585   4.56746
 Alpha virt. eigenvalues --    4.68226   5.06083   5.18299   5.19170   5.49847
 Alpha virt. eigenvalues --    5.92814   6.78621   6.80159   6.89172   6.92282
 Alpha virt. eigenvalues --    7.11882   9.81892   9.83413   9.91865   9.99692
 Alpha virt. eigenvalues --   10.14321  10.24030  10.25815  10.36483  10.49823
 Alpha virt. eigenvalues --   10.53768  12.84889  13.31455  13.43280  13.73868
 Alpha virt. eigenvalues --   13.81477  14.20569  17.72293  18.40687  49.97238
 Alpha virt. eigenvalues --  135.74556 139.64457
          Condensed to atoms (all electrons):
               1          2          3          4          5          6
     1  O    0.007432  -0.004196  -0.001490  -0.000042   0.000129  -0.000096
     2  H   -0.004196   0.006498  -0.001025  -0.000326   0.000103   0.000046
     3  H   -0.001490  -0.001025   0.002044  -0.000149  -0.000061   0.000122
     4  O   -0.000042  -0.000326  -0.000149   0.000999  -0.000459  -0.000269
     5  H    0.000129   0.000103  -0.000061  -0.000459   0.000298   0.000076
     6  H   -0.000096   0.000046   0.000122  -0.000269   0.000076   0.000132
     7  O    0.009961   0.001061  -0.001120  -0.000385   0.000110   0.000014
     8  H    0.007314   0.000652  -0.000894  -0.000039   0.000009  -0.000013
     9  H    0.003940   0.000426  -0.000733  -0.000121   0.000041  -0.000006
               7          8          9
     1  O    0.009961   0.007314   0.003940
     2  H    0.001061   0.000652   0.000426
     3  H   -0.001120  -0.000894  -0.000733
     4  O   -0.000385  -0.000039  -0.000121
     5  H    0.000110   0.000009   0.000041
     6  H    0.000014  -0.000013  -0.000006
     7  O    7.948223   0.314483   0.304918
     8  H    0.314483   0.377736  -0.026727
     9  H    0.304918  -0.026727   0.446132
 Mulliken charges:
               1
     1  O   -0.022954
     2  H   -0.003240
     3  H    0.003307
     4  O    0.000791
     5  H   -0.000245
     6  H   -0.000006
     7  O   -0.577264
     8  H    0.327480
     9  H    0.272131
 Sum of Mulliken charges =  -0.00000
 Mulliken charges with hydrogens summed into heavy atoms:
               1
     1  O   -0.022887
     4  O    0.000540
     7  O    0.022347
         Mulliken charges condensed to fragments:
      1     -0.022887
      2      0.000540
      3      0.022347
 Electronic spatial extent (au):  <R**2>=           8305.3552
 Charge=             -0.0000 electrons
 Dipole moment (field-independent basis, Debye):
    X=              0.8313    Y=              1.1536    Z=             -1.5399  Tot=              2.0960
 Quadrupole moment (field-independent basis, Debye-Ang):
   XX=              4.3270   YY=             15.3570   ZZ=            -36.3503
   XY=             16.6875   XZ=             -1.3101   YZ=             -2.1697
 Traceless Quadrupole moment (field-independent basis, Debye-Ang):
   XX=              9.8824   YY=             20.9124   ZZ=            -30.7949
   XY=             16.6875   XZ=             -1.3101   YZ=             -2.1697
 Octapole moment (field-independent basis, Debye-Ang**2):
  XXX=            -23.6433  YYY=            129.3268  ZZZ=           -630.4253  XYY=            198.5499
  XXY=            108.6046  XXZ=            -16.7902  XZZ=           -146.4850  YZZ=           -210.7550
  YYZ=             31.7415  XYZ=             81.6022
 Hexadecapole moment (field-independent basis, Debye-Ang**3):
 XXXX=           -806.4585 YYYY=            546.3390 ZZZZ=          -9573.2112 XXXY=            295.1145
 XXXZ=           -610.8005 YYYX=           1880.0105 YYYZ=            212.0675 ZZZX=          -3182.4838
 ZZZY=          -4535.3750 XXYY=           1382.2842 XXZZ=          -1019.7062 YYZZ=          -1390.3539
 XXYZ=            556.4971 YYXZ=           1231.2975 ZZXY=           -384.5988
 N-N= 9.080362279813D+00 E-N=-1.990035984411D+02  KE= 7.618545132384D+01
 No NMR shielding tensors so no spin-rotation constants.
 Leave Link  601 at Sun Feb 19 13:51:40 2023, MaxMem=  6710886400 cpu:               1.9 elap:               0.1
 (Enter /data0/home/software/g16/l122.exe)
 CPIOFr:  IOpCl= 0 IRwI=-1 IRwCP=  731 ICalc=  3 LCPTot=       22668 Len1MO=       57607 IndFrg=      253096
 Counterpoise: doing calculation for fragment   1 using the basis set of the fragment.
 Leave Link  122 at Sun Feb 19 13:51:40 2023, MaxMem=  6710886400 cpu:               0.1 elap:               0.0
 (Enter /data0/home/software/g16/l301.exe)
 Basis read from rwf:  (5D, 7F)
 No pseudopotential information found on rwf file.
    39 basis functions,    58 primitive gaussians,    41 cartesian basis functions
     5 alpha electrons        5 beta electrons
       nuclear repulsion energy         9.0493494283 Hartrees.
 IExCor= 4336 DFT=T Ex+Corr=M062X ExCW=0 ScaHFX=  0.540000
 ScaDFX=  1.000000  1.000000  1.000000  1.000000 ScalE2=  1.000000  1.000000
 IRadAn=      5 IRanWt=     -1 IRanGd=            0 ICorTp=0 IEmpDi=131
 NAtoms=    9 NActive=    3 NUniq=    3 SFac= 1.00D+00 NAtFMM=   60 NAOKFM=F Big=F
 Integral buffers will be    131072 words long.
 Raffenetti 2 integral format.
 Two-electron integral symmetry is turned off.
 R6Disp:  Grimme-D3 Dispersion energy=       -0.0000000085 Hartrees.
 Nuclear repulsion after empirical dispersion term =        9.0493494199 Hartrees.
 No density basis found on file   718.
 Leave Link  301 at Sun Feb 19 13:51:40 2023, MaxMem=  6710886400 cpu:               1.3 elap:               0.1
 (Enter /data0/home/software/g16/l302.exe)
 NPDir=0 NMtPBC=     1 NCelOv=     1 NCel=       1 NClECP=     1 NCelD=      1
         NCelK=      1 NCelE2=     1 NClLst=     1 CellRange=     0.0.
 One-electron integrals computed using PRISM.
 NBasis=    39 RedAO= T EigKep=  3.15D-03  NBF=    39
 NBsUse=    39 1.00D-06 EigRej= -1.00D+00 NBFU=    39
 Precomputing XC quadrature grid using
 IXCGrd= 4 IRadAn=           5 IRanWt=          -1 IRanGd=           0 AccXCQ= 0.00D+00.
 Generated NRdTot=       0 NPtTot=           0 NUsed=           0 NTot=          32
 NSgBfM=    41    41    41    41    41 MxSgAt=     3 MxSgA2=     3.
 Leave Link  302 at Sun Feb 19 13:51:40 2023, MaxMem=  6710886400 cpu:               2.3 elap:               0.1
 (Enter /data0/home/software/g16/l303.exe)
 DipDrv:  MaxL=1.
 Leave Link  303 at Sun Feb 19 13:51:40 2023, MaxMem=  6710886400 cpu:               0.4 elap:               0.0
 (Enter /data0/home/software/g16/l401.exe)
 ExpMin= 8.45D-02 ExpMax= 8.59D+03 ExpMxC= 1.30D+03 IAcc=3 IRadAn=         5 AccDes= 0.00D+00
 Harris functional with IExCor= 1009 and IRadAn=       5 diagonalized for initial guess.
 HarFok:  IExCor= 1009 AccDes= 0.00D+00 IRadAn=         5 IDoV= 1 UseB2=F ITyADJ=14
 ICtDFT=  3500011 ScaDFX=  1.000000  1.000000  1.000000  1.000000
 FoFCou: FMM=F IPFlag=           0 FMFlag=      100000 FMFlg1=           0
         NFxFlg=           0 DoJE=T BraDBF=F KetDBF=T FulRan=T
         wScrn=  0.000000 ICntrl=       500 IOpCl=  0 I1Cent=   200000004 NGrid=           0
         NMat0=    1 NMatS0=      1 NMatT0=    0 NMatD0=    1 NMtDS0=    0 NMtDT0=    0
 Symmetry not used in FoFCou.
 Harris En= -76.4154786341494    
 JPrj=0 DoOrth=F DoCkMO=F.
 Leave Link  401 at Sun Feb 19 13:51:40 2023, MaxMem=  6710886400 cpu:               3.0 elap:               0.1
 (Enter /data0/home/software/g16/l502.exe)
 Keep R1 ints in memory in canonical form, NReq=21036630.
 FoFCou: FMM=F IPFlag=           0 FMFlag=           0 FMFlg1=           0
         NFxFlg=           0 DoJE=F BraDBF=F KetDBF=F FulRan=T
         wScrn=  0.000000 ICntrl=       600 IOpCl=  0 I1Cent=           0 NGrid=           0
         NMat0=    1 NMatS0=    780 NMatT0=    0 NMatD0=    1 NMtDS0=    0 NMtDT0=    0
 Symmetry not used in FoFCou.
 Two-electron integral symmetry not used.
 Closed shell SCF:
 Using DIIS extrapolation, IDIIS=  1040.
 NGot=  6710886400 LenX=  6710576844 LenY=  6710574722
 Requested convergence on RMS density matrix=1.00D-08 within 128 cycles.
 Requested convergence on MAX density matrix=1.00D-06.
 Requested convergence on             energy=1.00D-06.
 No special actions if energy rises.
 Integral accuracy reduced to 1.0D-05 until final iterations.

 Cycle   1  Pass 0  IDiag  1:
 E= -76.3455643206680    
 DIIS: error= 6.98D-02 at cycle   1 NSaved=   1.
 NSaved= 1 IEnMin= 1 EnMin= -76.3455643206680     IErMin= 1 ErrMin= 6.98D-02
 ErrMax= 6.98D-02  0.00D+00 EMaxC= 1.00D-01 BMatC= 1.20D-01 BMatP= 1.20D-01
 IDIUse=3 WtCom= 3.02D-01 WtEn= 6.98D-01
 Coeff-Com:  0.100D+01
 Coeff-En:   0.100D+01
 Coeff:      0.100D+01
 Gap=     0.323 Goal=   None    Shift=    0.000
 GapD=    0.323 DampG=1.000 DampE=0.500 DampFc=0.5000 IDamp=-1.
 Damping current iteration by 5.00D-01
 RMSDP=7.88D-03 MaxDP=1.01D-01              OVMax= 1.68D-01

 Cycle   2  Pass 0  IDiag  1:
 E= -76.3767241950504     Delta-E=       -0.031159874382 Rises=F Damp=T
 DIIS: error= 1.10D-02 at cycle   2 NSaved=   2.
 NSaved= 2 IEnMin= 2 EnMin= -76.3767241950504     IErMin= 2 ErrMin= 1.10D-02
 ErrMax= 1.10D-02  0.00D+00 EMaxC= 1.00D-01 BMatC= 4.92D-03 BMatP= 1.20D-01
 IDIUse=3 WtCom= 8.90D-01 WtEn= 1.10D-01
 Coeff-Com:  0.850D-01 0.915D+00
 Coeff-En:   0.192D+00 0.808D+00
 Coeff:      0.967D-01 0.903D+00
 Gap=     0.455 Goal=   None    Shift=    0.000
 RMSDP=9.53D-04 MaxDP=1.42D-02 DE=-3.12D-02 OVMax= 1.01D-01

 Cycle   3  Pass 0  IDiag  1:
 E= -76.4207223542267     Delta-E=       -0.043998159176 Rises=F Damp=F
 DIIS: error= 2.23D-03 at cycle   3 NSaved=   3.
 NSaved= 3 IEnMin= 3 EnMin= -76.4207223542267     IErMin= 3 ErrMin= 2.23D-03
 ErrMax= 2.23D-03  0.00D+00 EMaxC= 1.00D-01 BMatC= 9.64D-05 BMatP= 4.92D-03
 IDIUse=3 WtCom= 9.78D-01 WtEn= 2.23D-02
 Coeff-Com: -0.202D-01 0.418D-01 0.978D+00
 Coeff-En:   0.000D+00 0.000D+00 0.100D+01
 Coeff:     -0.198D-01 0.409D-01 0.979D+00
 Gap=     0.460 Goal=   None    Shift=    0.000
 RMSDP=1.18D-04 MaxDP=9.61D-04 DE=-4.40D-02 OVMax= 3.39D-03

 Cycle   4  Pass 0  IDiag  1:
 E= -76.4208042853812     Delta-E=       -0.000081931155 Rises=F Damp=F
 DIIS: error= 4.25D-04 at cycle   4 NSaved=   4.
[...]
 NSaved= 6 IEnMin= 6 EnMin= -76.4211578553722     IErMin= 6 ErrMin= 1.06D-08
 ErrMax= 1.06D-08  0.00D+00 EMaxC= 1.00D-01 BMatC= 3.66D-15 BMatP= 2.67D-13
 IDIUse=1 WtCom= 1.00D+00 WtEn= 0.00D+00
 Coeff-Com: -0.474D-04 0.232D-02-0.242D-03-0.294D-01-0.710D-01 0.110D+01
 Coeff:     -0.474D-04 0.232D-02-0.242D-03-0.294D-01-0.710D-01 0.110D+01
 Gap=     0.460 Goal=   None    Shift=    0.000
 RMSDP=4.11D-09 MaxDP=3.10D-08 DE=-6.54D-13 OVMax= 7.52D-08

 SCF Done:  E(RM062X) =  -76.4211578554     A.U. after   11 cycles
            NFock= 11  Conv=0.41D-08     -V/T= 2.0034
 KE= 7.616563482128D+01 PE=-1.988753757548D+02 EE= 3.726878611827D+01
 Leave Link  502 at Sun Feb 19 13:51:41 2023, MaxMem=  6710886400 cpu:               8.8 elap:               0.4
 (Enter /data0/home/software/g16/l601.exe)
 Copying SCF densities to generalized density rwf, IOpCl= 0 IROHF=0.

 **********************************************************************

            Population analysis using the SCF density.

 **********************************************************************

 Alpha  occ. eigenvalues --  -19.62819  -1.13051  -0.60037  -0.47709  -0.39948
 Alpha virt. eigenvalues --    0.06039   0.13174   0.17454   0.17949   0.18885
 Alpha virt. eigenvalues --    0.23503   0.50112   0.53046   0.98313   1.00453
 Alpha virt. eigenvalues --    1.05978   1.17146   1.20044   1.31650   1.34428
 Alpha virt. eigenvalues --    1.70268   1.73850   1.74875   2.06349   2.09449
 Alpha virt. eigenvalues --    2.36121   2.38283   2.54787   2.86391   3.00256
 Alpha virt. eigenvalues --    5.05546   5.47889   5.87450   6.78584   6.80013
 Alpha virt. eigenvalues --    6.87419   6.91627   7.10049  49.94716
          Condensed to atoms (all electrons):
               4          5          6
     4  O    7.925554   0.311994   0.316129
     5  H    0.311994   0.432405  -0.023048
     6  H    0.316129  -0.023048   0.431894
 Mulliken charges:
               1
     1  O    0.000000
     2  H    0.000000
     3  H    0.000000
     4  O   -0.553676
     5  H    0.278650
     6  H    0.275026
     7  O    0.000000
     8  H    0.000000
     9  H    0.000000
 Sum of Mulliken charges =  -0.00000
 Mulliken charges with hydrogens summed into heavy atoms:
               1
     1  O    0.000000
     4  O   -0.000000
     7  O    0.000000
         Mulliken charges condensed to fragments:
      1      0.000000
      2     -0.000000
      3      0.000000
 Electronic spatial extent (au):  <R**2>=           7967.0011
 Charge=             -0.0000 electrons
 Dipole moment (field-independent basis, Debye):
    X=              1.6974    Y=              0.3247    Z=              1.2802  Tot=              2.1507
 Quadrupole moment (field-independent basis, Debye-Ang):
   XX=             21.9173   YY=              1.5449   ZZ=              8.6632
   XY=             20.1831   XZ=             20.9580   YZ=             17.0734
 Traceless Quadrupole moment (field-independent basis, Debye-Ang):
   XX=             11.2088   YY=             -9.1636   ZZ=             -2.0452
   XY=             20.1831   XZ=             20.9580   YZ=             17.0734
 Octapole moment (field-independent basis, Debye-Ang**2):
  XXX=            196.5292  YYY=            -64.5241  ZZZ=             18.3512  XYY=            193.1871
  XXY=            244.0737  XXZ=            222.2157  XZZ=            135.1261  YZZ=            120.7900
  YYZ=            187.5143  XYZ=            248.2652
 Hexadecapole moment (field-independent basis, Debye-Ang**3):
 XXXX=           1340.4352 YYYY=          -2239.5407 ZZZZ=           -332.0682 XXXY=           2108.7322
 XXXZ=           1943.2361 YYYX=           1327.1456 YYYZ=           1708.6748 ZZZX=            540.9937
 ZZZY=            408.0012 XXYY=           2346.5224 XXZZ=           1419.1092 YYZZ=           1410.0363
 XXYZ=           2534.0501 YYXZ=           2656.5099 ZZXY=           1655.4555
 N-N= 9.019796959892D+00 E-N=-1.988753756345D+02  KE= 7.616563482128D+01
 No NMR shielding tensors so no spin-rotation constants.
 Leave Link  601 at Sun Feb 19 13:51:41 2023, MaxMem=  6710886400 cpu:               1.7 elap:               0.1
 (Enter /data0/home/software/g16/l122.exe)
 CPIOFr:  IOpCl= 0 IRwI=-1 IRwCP=  731 ICalc=  5 LCPTot=       22668 Len1MO=       57607 IndFrg=      368310
 Counterpoise: doing calculation for fragment   3 using the basis set of the fragment.
 Leave Link  122 at Sun Feb 19 13:51:42 2023, MaxMem=  6710886400 cpu:               0.1 elap:               0.0
 (Enter /data0/home/software/g16/l301.exe)
 Basis read from rwf:  (5D, 7F)
 No pseudopotential information found on rwf file.
    39 basis functions,    58 primitive gaussians,    41 cartesian basis functions
     5 alpha electrons        5 beta electrons
       nuclear repulsion energy         9.0803622873 Hartrees.
 IExCor= 4336 DFT=T Ex+Corr=M062X ExCW=0 ScaHFX=  0.540000
 ScaDFX=  1.000000  1.000000  1.000000  1.000000 ScalE2=  1.000000  1.000000
 IRadAn=      5 IRanWt=     -1 IRanGd=            0 ICorTp=0 IEmpDi=131
 NAtoms=    9 NActive=    3 NUniq=    3 SFac= 1.00D+00 NAtFMM=   60 NAOKFM=F Big=F
 Integral buffers will be    131072 words long.
 Raffenetti 2 integral format.
 Two-electron integral symmetry is turned off.
 R6Disp:  Grimme-D3 Dispersion energy=       -0.0000000075 Hartrees.
 Nuclear repulsion after empirical dispersion term =        9.0803622798 Hartrees.
 No density basis found on file   718.
 Leave Link  301 at Sun Feb 19 13:51:42 2023, MaxMem=  6710886400 cpu:               1.3 elap:               0.1
 (Enter /data0/home/software/g16/l302.exe)
 NPDir=0 NMtPBC=     1 NCelOv=     1 NCel=       1 NClECP=     1 NCelD=      1
         NCelK=      1 NCelE2=     1 NClLst=     1 CellRange=     0.0.
 One-electron integrals computed using PRISM.
 NBasis=    39 RedAO= T EigKep=  3.03D-03  NBF=    39
 NBsUse=    39 1.00D-06 EigRej= -1.00D+00 NBFU=    39
 Precomputing XC quadrature grid using
 IXCGrd= 4 IRadAn=           5 IRanWt=          -1 IRanGd=           0 AccXCQ= 0.00D+00.
 Generated NRdTot=       0 NPtTot=           0 NUsed=           0 NTot=          32
 NSgBfM=    41    41    41    41    41 MxSgAt=     3 MxSgA2=     3.
 Leave Link  302 at Sun Feb 19 13:51:42 2023, MaxMem=  6710886400 cpu:               2.2 elap:               0.1
 (Enter /data0/home/software/g16/l303.exe)
 DipDrv:  MaxL=1.
 Leave Link  303 at Sun Feb 19 13:51:42 2023, MaxMem=  6710886400 cpu:               0.4 elap:               0.0
 (Enter /data0/home/software/g16/l401.exe)
 ExpMin= 8.45D-02 ExpMax= 8.59D+03 ExpMxC= 1.30D+03 IAcc=3 IRadAn=         5 AccDes= 0.00D+00
 Harris functional with IExCor= 1009 and IRadAn=       5 diagonalized for initial guess.
 HarFok:  IExCor= 1009 AccDes= 0.00D+00 IRadAn=         5 IDoV= 1 UseB2=F ITyADJ=14
 ICtDFT=  3500011 ScaDFX=  1.000000  1.000000  1.000000  1.000000
 FoFCou: FMM=F IPFlag=           0 FMFlag=      100000 FMFlg1=           0
         NFxFlg=           0 DoJE=T BraDBF=F KetDBF=T FulRan=T
         wScrn=  0.000000 ICntrl=       500 IOpCl=  0 I1Cent=   200000004 NGrid=           0
         NMat0=    1 NMatS0=      1 NMatT0=    0 NMatD0=    1 NMtDS0=    0 NMtDT0=    0
 Symmetry not used in FoFCou.
 Harris En= -76.4161652102380    
 JPrj=0 DoOrth=F DoCkMO=F.
 Leave Link  401 at Sun Feb 19 13:51:42 2023, MaxMem=  6710886400 cpu:               2.8 elap:               0.1
 (Enter /data0/home/software/g16/l502.exe)
 Keep R1 ints in memory in canonical form, NReq=21036630.
 FoFCou: FMM=F IPFlag=           0 FMFlag=           0 FMFlg1=           0
         NFxFlg=           0 DoJE=F BraDBF=F KetDBF=F FulRan=T
         wScrn=  0.000000 ICntrl=       600 IOpCl=  0 I1Cent=           0 NGrid=           0
         NMat0=    1 NMatS0=    780 NMatT0=    0 NMatD0=    1 NMtDS0=    0 NMtDT0=    0
 Symmetry not used in FoFCou.
 Two-electron integral symmetry not used.
 Closed shell SCF:
 Using DIIS extrapolation, IDIIS=  1040.
 NGot=  6710886400 LenX=  6710576844 LenY=  6710574722
 Requested convergence on RMS density matrix=1.00D-08 within 128 cycles.
 Requested convergence on MAX density matrix=1.00D-06.
 Requested convergence on             energy=1.00D-06.
 No special actions if energy rises.
 Integral accuracy reduced to 1.0D-05 until final iterations.

 Cycle   1  Pass 0  IDiag  1:
 E= -76.3466469831966    
 DIIS: error= 6.98D-02 at cycle   1 NSaved=   1.
 NSaved= 1 IEnMin= 1 EnMin= -76.3466469831966     IErMin= 1 ErrMin= 6.98D-02
 ErrMax= 6.98D-02  0.00D+00 EMaxC= 1.00D-01 BMatC= 1.20D-01 BMatP= 1.20D-01
 IDIUse=3 WtCom= 3.02D-01 WtEn= 6.98D-01
 Coeff-Com:  0.100D+01
 Coeff-En:   0.100D+01
 Coeff:      0.100D+01
 Gap=     0.325 Goal=   None    Shift=    0.000
 GapD=    0.325 DampG=1.000 DampE=0.500 DampFc=0.5000 IDamp=-1.
 Damping current iteration by 5.00D-01
 RMSDP=7.96D-03 MaxDP=1.00D-01              OVMax= 1.67D-01

 Cycle   2  Pass 0  IDiag  1:
 E= -76.3778203201015     Delta-E=       -0.031173336905 Rises=F Damp=T
 DIIS: error= 1.13D-02 at cycle   2 NSaved=   2.
 NSaved= 2 IEnMin= 2 EnMin= -76.3778203201015     IErMin= 2 ErrMin= 1.13D-02
 ErrMax= 1.13D-02  0.00D+00 EMaxC= 1.00D-01 BMatC= 4.86D-03 BMatP= 1.20D-01
 IDIUse=3 WtCom= 8.87D-01 WtEn= 1.13D-01
 Coeff-Com:  0.837D-01 0.916D+00
 Coeff-En:   0.190D+00 0.810D+00
 Coeff:      0.957D-01 0.904D+00
 Gap=     0.457 Goal=   None    Shift=    0.000
 RMSDP=9.51D-04 MaxDP=1.41D-02 DE=-3.12D-02 OVMax= 1.00D-01

 Cycle   3  Pass 0  IDiag  1:
 E= -76.4215910412221     Delta-E=       -0.043770721121 Rises=F Damp=F
 DIIS: error= 2.17D-03 at cycle   3 NSaved=   3.
 NSaved= 3 IEnMin= 3 EnMin= -76.4215910412221     IErMin= 3 ErrMin= 2.17D-03
 ErrMax= 2.17D-03  0.00D+00 EMaxC= 1.00D-01 BMatC= 9.10D-05 BMatP= 4.86D-03
 IDIUse=3 WtCom= 9.78D-01 WtEn= 2.17D-02
 Coeff-Com: -0.199D-01 0.395D-01 0.980D+00
 Coeff-En:   0.000D+00 0.000D+00 0.100D+01
 Coeff:     -0.195D-01 0.387D-01 0.981D+00
 Gap=     0.461 Goal=   None    Shift=    0.000
 RMSDP=1.15D-04 MaxDP=9.83D-04 DE=-4.38D-02 OVMax= 3.33D-03

 Cycle   4  Pass 0  IDiag  1:
 E= -76.4216687826190     Delta-E=       -0.000077741397 Rises=F Damp=F
 DIIS: error= 4.16D-04 at cycle   4 NSaved=   4.
 NSaved= 4 IEnMin= 4 EnMin= -76.4216687826190     IErMin= 4 ErrMin= 4.16D-04
 ErrMax= 4.16D-04  0.00D+00 EMaxC= 1.00D-01 BMatC= 3.30D-06 BMatP= 9.10D-05
 IDIUse=3 WtCom= 9.96D-01 WtEn= 4.16D-03
 Coeff-Com: -0.191D-02-0.226D-02 0.162D+00 0.842D+00
 Coeff-En:   0.000D+00 0.000D+00 0.000D+00 0.100D+01
 Coeff:     -0.190D-02-0.225D-02 0.162D+00 0.842D+00
 Gap=     0.462 Goal=   None    Shift=    0.000
 RMSDP=2.22D-05 MaxDP=3.56D-04 DE=-7.77D-05 OVMax= 5.40D-04

 Cycle   5  Pass 0  IDiag  1:
 E= -76.4216708277561     Delta-E=       -0.000002045137 Rises=F Damp=F
 DIIS: error= 8.95D-05 at cycle   5 NSaved=   5.
 NSaved= 5 IEnMin= 5 EnMin= -76.4216708277561     IErMin= 5 ErrMin= 8.95D-05
 ErrMax= 8.95D-05  0.00D+00 EMaxC= 1.00D-01 BMatC= 8.33D-08 BMatP= 3.30D-06
 IDIUse=1 WtCom= 1.00D+00 WtEn= 0.00D+00
 Coeff-Com:  0.118D-02-0.180D-02-0.369D-01-0.651D-01 0.110D+01
 Coeff:      0.118D-02-0.180D-02-0.369D-01-0.651D-01 0.110D+01
 Gap=     0.462 Goal=   None    Shift=    0.000
 RMSDP=9.04D-06 MaxDP=1.02D-04 DE=-2.05D-06 OVMax= 2.05D-04

 Initial convergence to 1.0D-05 achieved.  Increase integral accuracy.
 Cycle   6  Pass 1  IDiag  1:
 E= -76.4216812312357     Delta-E=       -0.000010403480 Rises=F Damp=F
 DIIS: error= 2.09D-05 at cycle   1 NSaved=   1.
 NSaved= 1 IEnMin= 1 EnMin= -76.4216812312357     IErMin= 1 ErrMin= 2.09D-05
 ErrMax= 2.09D-05  0.00D+00 EMaxC= 1.00D-01 BMatC= 2.44D-08 BMatP= 2.44D-08
 IDIUse=1 WtCom= 1.00D+00 WtEn= 0.00D+00
 Coeff-Com:  0.100D+01
 Coeff:      0.100D+01
 Gap=     0.462 Goal=   None    Shift=    0.000
 RMSDP=9.04D-06 MaxDP=1.02D-04 DE=-1.04D-05 OVMax= 4.41D-05

 Cycle   7  Pass 1  IDiag  1:
 E= -76.4216812506952     Delta-E=       -0.000000019460 Rises=F Damp=F
 DIIS: error= 5.56D-06 at cycle   2 NSaved=   2.
 NSaved= 2 IEnMin= 2 EnMin= -76.4216812506952     IErMin= 2 ErrMin= 5.56D-06
 ErrMax= 5.56D-06  0.00D+00 EMaxC= 1.00D-01 BMatC= 4.98D-10 BMatP= 2.44D-08
 IDIUse=1 WtCom= 1.00D+00 WtEn= 0.00D+00
 Coeff-Com: -0.436D-01 0.104D+01
 Coeff:     -0.436D-01 0.104D+01
 Gap=     0.462 Goal=   None    Shift=    0.000
 RMSDP=6.26D-07 MaxDP=6.50D-06 DE=-1.95D-08 OVMax= 1.39D-05

 Cycle   8  Pass 1  IDiag  1:
 E= -76.4216812508929     Delta-E=       -0.000000000198 Rises=F Damp=F
 DIIS: error= 4.20D-06 at cycle   3 NSaved=   3.
 NSaved= 3 IEnMin= 3 EnMin= -76.4216812508929     IErMin= 3 ErrMin= 4.20D-06
 ErrMax= 4.20D-06  0.00D+00 EMaxC= 1.00D-01 BMatC= 4.43D-10 BMatP= 4.98D-10
 IDIUse=1 WtCom= 1.00D+00 WtEn= 0.00D+00
 Coeff-Com: -0.417D-01 0.527D+00 0.515D+00
 Coeff:     -0.417D-01 0.527D+00 0.515D+00
 Gap=     0.462 Goal=   None    Shift=    0.000
 RMSDP=2.49D-07 MaxDP=3.59D-06 DE=-1.98D-10 OVMax= 5.49D-06

 Cycle   9  Pass 1  IDiag  1:
 E= -76.4216812511771     Delta-E=       -0.000000000284 Rises=F Damp=F
 DIIS: error= 6.92D-07 at cycle   4 NSaved=   4.
 NSaved= 4 IEnMin= 4 EnMin= -76.4216812511771     IErMin= 4 ErrMin= 6.92D-07
 ErrMax= 6.92D-07  0.00D+00 EMaxC= 1.00D-01 BMatC= 5.96D-12 BMatP= 4.43D-10
 IDIUse=1 WtCom= 1.00D+00 WtEn= 0.00D+00
 Coeff-Com: -0.131D-03-0.302D-01 0.638D-01 0.967D+00
 Coeff:     -0.131D-03-0.302D-01 0.638D-01 0.967D+00
 Gap=     0.462 Goal=   None    Shift=    0.000
 RMSDP=6.14D-08 MaxDP=4.19D-07 DE=-2.84D-10 OVMax= 1.32D-06

 Cycle  10  Pass 1  IDiag  1:
 E= -76.4216812511835     Delta-E=       -0.000000000006 Rises=F Damp=F
 DIIS: error= 6.72D-08 at cycle   5 NSaved=   5.
 NSaved= 5 IEnMin= 5 EnMin= -76.4216812511835     IErMin= 5 ErrMin= 6.72D-08
 ErrMax= 6.72D-08  0.00D+00 EMaxC= 1.00D-01 BMatC= 1.65D-13 BMatP= 5.96D-12
 IDIUse=1 WtCom= 1.00D+00 WtEn= 0.00D+00
 Coeff-Com:  0.156D-02-0.239D-01-0.179D-01 0.998D-01 0.940D+00
 Coeff:      0.156D-02-0.239D-01-0.179D-01 0.998D-01 0.940D+00
 Gap=     0.462 Goal=   None    Shift=    0.000
 RMSDP=1.96D-08 MaxDP=1.32D-07 DE=-6.42D-12 OVMax= 3.13D-07

 Cycle  11  Pass 1  IDiag  1:
 E= -76.4216812511839     Delta-E=       -0.000000000000 Rises=F Damp=F
 DIIS: error= 1.14D-08 at cycle   6 NSaved=   6.
 NSaved= 6 IEnMin= 6 EnMin= -76.4216812511839     IErMin= 6 ErrMin= 1.14D-08
 ErrMax= 1.14D-08  0.00D+00 EMaxC= 1.00D-01 BMatC= 6.61D-15 BMatP= 1.65D-13
 IDIUse=1 WtCom= 1.00D+00 WtEn= 0.00D+00
 Coeff-Com:  0.783D-04 0.347D-03-0.470D-02-0.446D-01-0.135D-01 0.106D+01
 Coeff:      0.783D-04 0.347D-03-0.470D-02-0.446D-01-0.135D-01 0.106D+01
 Gap=     0.462 Goal=   None    Shift=    0.000
 RMSDP=4.63D-09 MaxDP=3.22D-08 DE=-3.41D-13 OVMax= 8.15D-08

 SCF Done:  E(RM062X) =  -76.4216812512     A.U. after   11 cycles
            NFock= 11  Conv=0.46D-08     -V/T= 2.0031
 KE= 7.618783959903D+01 PE=-1.990068176501D+02 EE= 3.731693452003D+01
 Leave Link  502 at Sun Feb 19 13:51:42 2023, MaxMem=  6710886400 cpu:               8.8 elap:               0.4
 (Enter /data0/home/software/g16/l601.exe)
 Copying SCF densities to generalized density rwf, IOpCl= 0 IROHF=0.

 **********************************************************************

            Population analysis using the SCF density.

 **********************************************************************

 Alpha  occ. eigenvalues --  -19.62691  -1.13303  -0.60431  -0.47684  -0.39989
 Alpha virt. eigenvalues --    0.06194   0.13286   0.17423   0.17944   0.18902
 Alpha virt. eigenvalues --    0.23405   0.50824   0.53319   0.98128   1.00279
 Alpha virt. eigenvalues --    1.06007   1.17593   1.20100   1.31949   1.34060
 Alpha virt. eigenvalues --    1.70346   1.74221   1.75251   2.07303   2.09468
 Alpha virt. eigenvalues --    2.36283   2.39551   2.54805   2.87642   3.01036
 Alpha virt. eigenvalues --    5.05618   5.48551   5.90421   6.78479   6.80064
 Alpha virt. eigenvalues --    6.87342   6.91591   7.09607  49.95419
          Condensed to atoms (all electrons):
               7          8          9
     7  O    7.919085   0.318602   0.316027
     8  H    0.318602   0.429443  -0.023759
     9  H    0.316027  -0.023759   0.429732
 Mulliken charges:
               1
     1  O    0.000000
     2  H    0.000000
     3  H    0.000000
     4  O    0.000000
     5  H    0.000000
     6  H    0.000000
     7  O   -0.553714
     8  H    0.275714
     9  H    0.278000
 Sum of Mulliken charges =  -0.00000
 Mulliken charges with hydrogens summed into heavy atoms:
               1
     1  O    0.000000
     4  O    0.000000
     7  O   -0.000000
         Mulliken charges condensed to fragments:
      1      0.000000
      2      0.000000
      3     -0.000000
 Electronic spatial extent (au):  <R**2>=           8305.6069
 Charge=             -0.0000 electrons
 Dipole moment (field-independent basis, Debye):
    X=              0.8455    Y=              1.1651    Z=             -1.5784  Tot=              2.1363
 Quadrupole moment (field-independent basis, Debye-Ang):
   XX=              4.5109   YY=             15.5646   ZZ=            -37.0803
   XY=             16.8929   XZ=             -1.4306   YZ=             -2.4150
 Traceless Quadrupole moment (field-independent basis, Debye-Ang):
   XX=             10.1792   YY=             21.2328   ZZ=            -31.4120
   XY=             16.8929   XZ=             -1.4306   YZ=             -2.4150
 Octapole moment (field-independent basis, Debye-Ang**2):
  XXX=            -21.8287  YYY=            132.1633  ZZZ=           -640.9169  XYY=            201.1212
  XXY=            110.7954  XXZ=            -16.7969  XZZ=           -150.0093  YZZ=           -216.4056
  YYZ=             30.4164  XYZ=             81.2070
 Hexadecapole moment (field-independent basis, Debye-Ang**3):
 XXXX=           -790.2978 YYYY=            580.9747 ZZZZ=          -9708.6968 XXXY=            315.2088
 XXXZ=           -606.0013 YYYX=           1909.9840 YYYZ=            207.9020 ZZZX=          -3238.9193
 ZZZY=          -4621.3107 XXYY=           1407.0869 XXZZ=          -1035.9171 YYZZ=          -1433.6639
 XXYZ=            561.1886 YYXZ=           1233.8662 ZZXY=           -410.0888
 N-N= 9.080362279813D+00 E-N=-1.990068175339D+02  KE= 7.618783959903D+01
 No NMR shielding tensors so no spin-rotation constants.
 Leave Link  601 at Sun Feb 19 13:51:42 2023, MaxMem=  6710886400 cpu:               1.8 elap:               0.1
 (Enter /data0/home/software/g16/l122.exe)
 CPIOFr:  IOpCl= 0 IRwI=-1 IRwCP=  731 ICalc=  6 LCPTot=       22668 Len1MO=       57607 IndFrg=      425917
 Restoring MOs from calculation   1 to rwf.
 CPIOFr:  IOpCl= 0 IRwI=-2 IRwCP=  731 ICalc=  0 LCPTot=       22668 Len1MO=       57607 IndFrg=       80275
 Counterpoise corrected energy =    -229.278445672817
                   BSSE energy =       0.002060231258
              sum of fragments =    -229.263644052634
           complexation energy =     -10.58 kcal/mole (raw)
           complexation energy =      -9.29 kcal/mole (corrected)
 Leave Link  122 at Sun Feb 19 13:51:42 2023, MaxMem=  6710886400 cpu:               0.1 elap:               0.0
 (Enter /data0/home/software/g16/l9999.exe)
 1\1\GINC-LOCALHOST\SP\RM062X\6-311+G(2d,p)\H6O3\WUHANYU\19-Feb-2023\0\
 \#p M062X/6-311+G(2d,p) nosymm em=GD3 counterpoise=3\\Title Card Requi
 red\\0,1\O,0,6.672164,9.023042,7.140364\H,0,6.180332,8.621413,6.433125
 \H,0,7.170178,9.772395,6.714376\O,0,8.201705,10.867328,5.945323\H,0,8.
 35715,11.58384,6.60916\H,0,9.007458,10.342656,6.012781\O,0,6.622647,9.
 289502,10.090189\H,0,6.499619,9.183694,9.142028\H,0,7.225727,10.056383
 ,10.15051\\Version=ES64L-G16RevA.03\HF=-76.4216813\RMSD=4.630e-09\Dipo
 le=1.20378,1.023952,-1.2828686\Quadrupole=25.1898672,28.5189344,-53.70
 88017,38.5114687,2.3245216,-3.8131233\PG=C01 [X(H6O3)]\\@


 I SUPPOSE A BABY LLAMA HAS A MMAMA AND A PPOPA.
     -- RICHARD AMOUR
 Job cpu time:       0 days  0 hours  4 minutes 14.1 seconds.
 Elapsed time:       0 days  0 hours  0 minutes 13.2 seconds.
 File lengths (MBytes):  RWF=     15 Int=      0 D2E=      0 Chk=      5 Scr=      1
 Normal termination of Gaussian 16 at Sun Feb 19 13:51:42 2023.
