 Entering Gaussian System, Link 0=g16
 Initial command:
 /data0/home/software/g16/l1.exe "/data0/home/software/g16/scratch/Gau-2506454.inp" -scrdir="/data0/home/software/g16/scratch/"
 Default is to use a total of  22 processors:
                               22 via shared-memory
                                1 via Linda
 Entering Link 1 = /data0/home/software/g16/l1.exe PID=   2506455.
  
 Copyright (c) 1988,1990,1992,1993,1995,1998,2003,2009,2016,
            Gaussian, Inc.  All Rights Reserved.
  
 This is part of the Gaussian(R) 16 program.  It is based on
 the Gaussian(R) 09 system (copyright 2009, Gaussian, Inc.),
 the Gaussian(R) 03 system (copyright 2003, Gaussian, Inc.),
 the Gaussian(R) 98 system (copyright 1998, Gaussian, Inc.),
 the Gaussian(R) 94 system (copyright 1995, Gaussian, Inc.),
 the Gaussian 92(TM) system (copyright 1992, Gaussian, Inc.),
 the Gaussian 90(TM) system (copyright 1990, Gaussian, Inc.),
 the Gaussian 88(TM) system (copyright 1988, Gaussian, Inc.),
 the Gaussian 86(TM) system (copyright 1986, Carnegie Mellon
 University), and the Gaussian 82(TM) system (copyright 1983,
 Carnegie Mellon University). Gaussian is a federally registered
 trademark of Gaussian, Inc.
  
 This software contains proprietary and confidential information,
 including trade secrets, belonging to Gaussian, Inc.
  
 This software is provided under written license and may be
 used, copied, transmitted, or stored only in accord with that
 written license.
  
 The following legend is applicable only to US Government
 contracts under FAR:
  
                    RESTRICTED RIGHTS LEGEND
  
 Use, reproduction and disclosure by the US Government is
 subject to restrictions as set forth in subparagraphs (a)
 and (c) of the Commercial Computer Software - Restricted
 Rights clause in FAR 52.227-19.
  
 Gaussian, Inc.
 340 Quinnipiac St., Bldg. 40, Wallingford CT 06492
  
  
 ---------------------------------------------------------------
 Warning -- This program may not be used in any manner that
 competes with the business of Gaussian, Inc. or will provide
 assistance to any competitor of Gaussian, Inc.  The licensee
 of this program is prohibited from giving any competitor of
 Gaussian, Inc. access to this program.  By using this program,
 the user acknowledges that Gaussian, Inc. is engaged in the
 business of creating and licensing software in the field of
 computational chemistry and represents and warrants to the
 licensee that it is not a competitor of Gaussian, Inc. and that
 it will not use this program in any manner prohibited above.
 ---------------------------------------------------------------
  

 Cite this work as:
 Gaussian 16, Revision A.03,
 M. J. Frisch, G. W. Trucks, H. B. Schlegel, G. E. Scuseria, 
 M. A. Robb, J. R. Cheeseman, G. Scalmani, V. Barone, 
 G. A. Petersson, H. Nakatsuji, X. Li, M. Caricato, A. V. Marenich, 
 J. Bloino, B. G. Janesko, R. Gomperts, B. Mennucci, H. P. Hratchian, 
 J. V. Ortiz, A. F. Izmaylov, J. L. Sonnenberg, D. Williams-Young, 
 F. Ding, F. Lipparini, F. Egidi, J. Goings, B. Peng, A. Petrone, 
 T. Henderson, D. Ranasinghe, V. G. Zakrzewski, J. Gao, N. Rega, 
 G. Zheng, W. Liang, M. Hada, M. Ehara, K. Toyota, R. Fukuda, 
 J. Hasegawa, M. Ishida, T. Nakajima, Y. Honda, O. Kitao, H. Nakai, 
 T. Vreven, K. Throssell, J. A. Montgomery, Jr., J. E. Peralta, 
 F. Ogliaro, M. J. Bearpark, J. J. Heyd, E. N. Brothers, K. N. Kudin, 
 V. N. Staroverov, T. A. Keith, R. Kobayashi, J. Normand, 
 K. Raghavachari, A. P. Rendell, J. C. Burant, S. S. Iyengar, 
 J. Tomasi, M. Cossi, J. M. Millam, M. Klene, C. Adamo, R. Cammi, 
 J. W. Ochterski, R. L. Martin, K. Morokuma, O. Farkas, 
 J. B. Foresman, and D. J. Fox, Gaussian, Inc., Wallingford CT, 2016.
 
 ******************************************
 Gaussian 16:  ES64L-G16RevA.03 25-Dec-2016
                11-Oct-2023 
 ******************************************
 %mem=50GB
 %nprocshared=24
 Will use up to   24 processors via shared memory.
 -----------------------------------------------------------------
 #p opt freq b3lyp/6-311+g(2d,p) scrf=(smd,solvent=water) em=gd3bj
 -----------------------------------------------------------------
 1/18=20,19=15,26=3,38=1/1,3;
 2/9=110,12=2,17=6,18=5,40=1/2;
 3/5=4,6=6,7=112,11=2,25=1,30=1,70=32201,71=1,72=1,74=-5,124=41/1,2,3;
 4//1;
 5/5=2,38=5,53=1/2;
 6/7=2,8=2,9=2,10=2,28=1/1;
 7//1,2,3,16;
 1/18=20,19=15,26=3/3(2);
 2/9=110/2;
 99//99;
 2/9=110/2;
 3/5=4,6=6,7=112,11=2,25=1,30=1,70=32205,71=1,72=1,74=-5,124=41/1,2,3;
 4/5=5,16=3,69=1/1;
 5/5=2,38=5,53=1/2;
 7//1,2,3,16;
 1/18=20,19=15,26=3/3(-5);
 2/9=110/2;
 6/7=2,8=2,9=2,10=2,19=2,28=1/1;
 99/9=1/99;
 Leave Link    1 at Wed Oct 11 16:11:58 2023, MaxMem=  6710886400 cpu:               0.9 elap:               0.0
 (Enter /data0/home/software/g16/l101.exe)
 -------------------
 Title Card Required
 -------------------
 Symbolic Z-matrix:
 Charge =  0 Multiplicity = 1
 C                    -2.47588   0.05293   1.16902 
 C                    -1.58353   1.07264   1.11555 
 C                    -1.71824   0.1848   -0.89579 
 N                    -2.55029  -0.48539  -0.10216 
 H                    -3.0614   -0.33458   1.98419 
 H                    -1.24006   1.74826   1.87846 
 H                    -1.55629  -0.01232  -1.94045 
 C                    -3.36985  -1.62976  -0.49593 
 H                    -3.27028  -1.7785   -1.56811 
 H                    -3.02803  -2.51789   0.03286 
 H                    -4.41009  -1.42986  -0.24633 
 N                    -1.12653   1.14318  -0.18624 
 C                    -0.12599   2.09147  -0.69892 
 H                    -0.54561   3.0892   -0.57335 
 H                    -0.02354   1.89761  -1.76566 
 C                     1.22398   2.01969   0.01087 
 H                     1.72557   2.96641  -0.2059 
 H                     1.07909   1.9914    1.09229 
 C                     2.18837   0.91903  -0.42028 
 H                     3.16699   1.10542   0.02282 
 H                     2.30494   0.88159  -1.50453 
 S                     1.79098  -0.77667   0.08452 
 O                     3.06715  -1.5225   -0.05258 
 O                     1.32077  -0.70281   1.48895 
 O                     0.75053  -1.28086  -0.84223 
 
 ITRead=  0  0  0  0  0  0  0  0  0  0  0  0  0  0  0  0  0  0  0  0
 ITRead=  0  0  0  0  0
 MicOpt= -1 -1 -1 -1 -1 -1 -1 -1 -1 -1 -1 -1 -1 -1 -1 -1 -1 -1 -1 -1
 MicOpt= -1 -1 -1 -1 -1
 NAtoms=     25 NQM=       25 NQMF=       0 NMMI=      0 NMMIF=      0
                NMic=       0 NMicF=      0.
                    Isotopes and Nuclear Properties:
 (Nuclear quadrupole moments (NQMom) in fm**2, nuclear magnetic moments (NMagM)
  in nuclear magnetons)

  Atom         1           2           3           4           5           6           7           8           9          10
 IAtWgt=          12          12          12          14           1           1           1          12           1           1
 AtmWgt=  12.0000000  12.0000000  12.0000000  14.0030740   1.0078250   1.0078250   1.0078250  12.0000000   1.0078250   1.0078250
 NucSpn=           0           0           0           2           1           1           1           0           1           1
 AtZEff=  -0.0000000  -0.0000000  -0.0000000  -0.0000000  -0.0000000  -0.0000000  -0.0000000  -0.0000000  -0.0000000  -0.0000000
 NQMom=    0.0000000   0.0000000   0.0000000   2.0440000   0.0000000   0.0000000   0.0000000   0.0000000   0.0000000   0.0000000
 NMagM=    0.0000000   0.0000000   0.0000000   0.4037610   2.7928460   2.7928460   2.7928460   0.0000000   2.7928460   2.7928460
 AtZNuc=   6.0000000   6.0000000   6.0000000   7.0000000   1.0000000   1.0000000   1.0000000   6.0000000   1.0000000   1.0000000

  Atom        11          12          13          14          15          16          17          18          19          20
 IAtWgt=           1          14          12           1           1          12           1           1          12           1
 AtmWgt=   1.0078250  14.0030740  12.0000000   1.0078250   1.0078250  12.0000000   1.0078250   1.0078250  12.0000000   1.0078250
 NucSpn=           1           2           0           1           1           0           1           1           0           1
 AtZEff=  -0.0000000  -0.0000000  -0.0000000  -0.0000000  -0.0000000  -0.0000000  -0.0000000  -0.0000000  -0.0000000  -0.0000000
 NQMom=    0.0000000   2.0440000   0.0000000   0.0000000   0.0000000   0.0000000   0.0000000   0.0000000   0.0000000   0.0000000
 NMagM=    2.7928460   0.4037610   0.0000000   2.7928460   2.7928460   0.0000000   2.7928460   2.7928460   0.0000000   2.7928460
 AtZNuc=   1.0000000   7.0000000   6.0000000   1.0000000   1.0000000   6.0000000   1.0000000   1.0000000   6.0000000   1.0000000

  Atom        21          22          23          24          25
 IAtWgt=           1          32          16          16          16
 AtmWgt=   1.0078250  31.9720718  15.9949146  15.9949146  15.9949146
 NucSpn=           1           0           0           0           0
 AtZEff=  -0.0000000  -0.0000000  -0.0000000  -0.0000000  -0.0000000
 NQMom=    0.0000000   0.0000000   0.0000000   0.0000000   0.0000000
 NMagM=    2.7928460   0.0000000   0.0000000   0.0000000   0.0000000
 AtZNuc=   1.0000000  16.0000000   8.0000000   8.0000000   8.0000000
 Leave Link  101 at Wed Oct 11 16:11:59 2023, MaxMem=  6710886400 cpu:               7.8 elap:               0.3
 (Enter /data0/home/software/g16/l103.exe)

 GradGradGradGradGradGradGradGradGradGradGradGradGradGradGradGradGradGrad
 Berny optimization.
 Initialization pass.
                           ----------------------------
                           !    Initial Parameters    !
                           ! (Angstroms and Degrees)  !
 --------------------------                            --------------------------
 ! Name  Definition              Value          Derivative Info.                !
 --------------------------------------------------------------------------------
 ! R1    R(1,2)                  1.3561         estimate D2E/DX2                !
 ! R2    R(1,4)                  1.3825         estimate D2E/DX2                !
 ! R3    R(1,5)                  1.0759         estimate D2E/DX2                !
 ! R4    R(2,6)                  1.0754         estimate D2E/DX2                !
 ! R5    R(2,12)                 1.3815         estimate D2E/DX2                !
 ! R6    R(3,4)                  1.3309         estimate D2E/DX2                !
 ! R7    R(3,7)                  1.0754         estimate D2E/DX2                !
 ! R8    R(3,12)                 1.3312         estimate D2E/DX2                !
 ! R9    R(4,8)                  1.4616         estimate D2E/DX2                !
 ! R10   R(8,9)                  1.087          estimate D2E/DX2                !
 ! R11   R(8,10)                 1.0887         estimate D2E/DX2                !
 ! R12   R(8,11)                 1.0883         estimate D2E/DX2                !
 ! R13   R(12,13)                1.4708         estimate D2E/DX2                !
 ! R14   R(13,14)                1.0896         estimate D2E/DX2                !
 ! R15   R(13,15)                1.089          estimate D2E/DX2                !
 ! R16   R(13,16)                1.5269         estimate D2E/DX2                !
 ! R17   R(16,17)                1.0931         estimate D2E/DX2                !
 ! R18   R(16,18)                1.0914         estimate D2E/DX2                !
 ! R19   R(16,19)                1.5256         estimate D2E/DX2                !
 ! R20   R(19,20)                1.0903         estimate D2E/DX2                !
 ! R21   R(19,21)                1.0911         estimate D2E/DX2                !
 ! R22   R(19,22)                1.8133         estimate D2E/DX2                !
 ! R23   R(22,23)                1.4845         estimate D2E/DX2                !
 ! R24   R(22,24)                1.4829         estimate D2E/DX2                !
 ! R25   R(22,25)                1.4818         estimate D2E/DX2                !
 ! A1    A(2,1,4)              106.9751         estimate D2E/DX2                !
 ! A2    A(2,1,5)              131.2114         estimate D2E/DX2                !
 ! A3    A(4,1,5)              121.8131         estimate D2E/DX2                !
 ! A4    A(1,2,6)              130.89           estimate D2E/DX2                !
 ! A5    A(1,2,12)             107.0519         estimate D2E/DX2                !
 ! A6    A(6,2,12)             122.0577         estimate D2E/DX2                !
 ! A7    A(4,3,7)              125.5308         estimate D2E/DX2                !
 ! A8    A(4,3,12)             108.8188         estimate D2E/DX2                !
 ! A9    A(7,3,12)             125.6492         estimate D2E/DX2                !
 ! A10   A(1,4,3)              108.5773         estimate D2E/DX2                !
 ! A11   A(1,4,8)              125.6454         estimate D2E/DX2                !
 ! A12   A(3,4,8)              125.7436         estimate D2E/DX2                !
 ! A13   A(4,8,9)              108.7537         estimate D2E/DX2                !
 ! A14   A(4,8,10)             109.379          estimate D2E/DX2                !
 ! A15   A(4,8,11)             109.2911         estimate D2E/DX2                !
 ! A16   A(9,8,10)             109.7975         estimate D2E/DX2                !
 ! A17   A(9,8,11)             109.8099         estimate D2E/DX2                !
 ! A18   A(10,8,11)            109.7895         estimate D2E/DX2                !
 ! A19   A(2,12,3)             108.5702         estimate D2E/DX2                !
 ! A20   A(2,12,13)            125.9043         estimate D2E/DX2                !
 ! A21   A(3,12,13)            125.505          estimate D2E/DX2                !
 ! A22   A(12,13,14)           106.7516         estimate D2E/DX2                !
 ! A23   A(12,13,15)           106.8978         estimate D2E/DX2                !
 ! A24   A(12,13,16)           114.1489         estimate D2E/DX2                !
 ! A25   A(14,13,15)           108.1854         estimate D2E/DX2                !
 ! A26   A(14,13,16)           109.2663         estimate D2E/DX2                !
 ! A27   A(15,13,16)           111.3341         estimate D2E/DX2                !
 ! A28   A(13,16,17)           105.8307         estimate D2E/DX2                !
 ! A29   A(13,16,18)           110.1475         estimate D2E/DX2                !
 ! A30   A(13,16,19)           117.4801         estimate D2E/DX2                !
 ! A31   A(17,16,18)           106.2513         estimate D2E/DX2                !
 ! A32   A(17,16,19)           106.1852         estimate D2E/DX2                !
 ! A33   A(18,16,19)           110.1964         estimate D2E/DX2                !
 ! A34   A(16,19,20)           109.2203         estimate D2E/DX2                !
 ! A35   A(16,19,21)           111.9082         estimate D2E/DX2                !
 ! A36   A(16,19,22)           117.2234         estimate D2E/DX2                !
 ! A37   A(20,19,21)           108.2889         estimate D2E/DX2                !
 ! A38   A(20,19,22)           104.0891         estimate D2E/DX2                !
 ! A39   A(21,19,22)           105.5421         estimate D2E/DX2                !
 ! A40   A(19,22,23)           104.8163         estimate D2E/DX2                !
 ! A41   A(19,22,24)           106.6522         estimate D2E/DX2                !
 ! A42   A(19,22,25)           107.3352         estimate D2E/DX2                !
 ! A43   A(23,22,24)           112.6488         estimate D2E/DX2                !
 ! A44   A(23,22,25)           112.0202         estimate D2E/DX2                !
 ! A45   A(24,22,25)           112.7458         estimate D2E/DX2                !
 ! D1    D(4,1,2,6)            179.7886         estimate D2E/DX2                !
 ! D2    D(4,1,2,12)             0.0324         estimate D2E/DX2                !
 ! D3    D(5,1,2,6)             -0.0154         estimate D2E/DX2                !
 ! D4    D(5,1,2,12)          -179.7717         estimate D2E/DX2                !
 ! D5    D(2,1,4,3)              0.4704         estimate D2E/DX2                !
 ! D6    D(2,1,4,8)            178.4541         estimate D2E/DX2                !
 ! D7    D(5,1,4,3)           -179.7031         estimate D2E/DX2                !
 ! D8    D(5,1,4,8)             -1.7194         estimate D2E/DX2                !
 ! D9    D(1,2,12,3)            -0.5241         estimate D2E/DX2                !
 ! D10   D(1,2,12,13)         -178.9437         estimate D2E/DX2                !
 ! D11   D(6,2,12,3)           179.6934         estimate D2E/DX2                !
 ! D12   D(6,2,12,13)            1.2737         estimate D2E/DX2                !
 ! D13   D(7,3,4,1)            179.5696         estimate D2E/DX2                !
 ! D14   D(7,3,4,8)              1.5884         estimate D2E/DX2                !
 ! D15   D(12,3,4,1)            -0.8068         estimate D2E/DX2                !
 ! D16   D(12,3,4,8)          -178.788          estimate D2E/DX2                !
 ! D17   D(4,3,12,2)             0.8272         estimate D2E/DX2                !
 ! D18   D(4,3,12,13)          179.2547         estimate D2E/DX2                !
 ! D19   D(7,3,12,2)          -179.5497         estimate D2E/DX2                !
 ! D20   D(7,3,12,13)           -1.1222         estimate D2E/DX2                !
 ! D21   D(1,4,8,9)            176.3567         estimate D2E/DX2                !
 ! D22   D(1,4,8,10)           -63.7362         estimate D2E/DX2                !
 ! D23   D(1,4,8,11)            56.4867         estimate D2E/DX2                !
 ! D24   D(3,4,8,9)             -5.9983         estimate D2E/DX2                !
 ! D25   D(3,4,8,10)           113.9088         estimate D2E/DX2                !
 ! D26   D(3,4,8,11)          -125.8682         estimate D2E/DX2                !
 ! D27   D(2,12,13,14)         -62.491          estimate D2E/DX2                !
 ! D28   D(2,12,13,15)        -178.0898         estimate D2E/DX2                !
 ! D29   D(2,12,13,16)          58.3449         estimate D2E/DX2                !
 ! D30   D(3,12,13,14)         119.3494         estimate D2E/DX2                !
 ! D31   D(3,12,13,15)           3.7505         estimate D2E/DX2                !
 ! D32   D(3,12,13,16)        -119.8148         estimate D2E/DX2                !
 ! D33   D(12,13,16,17)       -160.6127         estimate D2E/DX2                !
 ! D34   D(12,13,16,18)        -46.1643         estimate D2E/DX2                !
 ! D35   D(12,13,16,19)         81.089          estimate D2E/DX2                !
 ! D36   D(14,13,16,17)        -41.1856         estimate D2E/DX2                !
 ! D37   D(14,13,16,18)         73.2629         estimate D2E/DX2                !
 ! D38   D(14,13,16,19)       -159.4839         estimate D2E/DX2                !
 ! D39   D(15,13,16,17)         78.2502         estimate D2E/DX2                !
 ! D40   D(15,13,16,18)       -167.3013         estimate D2E/DX2                !
 ! D41   D(15,13,16,19)        -40.0481         estimate D2E/DX2                !
 ! D42   D(13,16,19,20)        169.076          estimate D2E/DX2                !
 ! D43   D(13,16,19,21)         49.1812         estimate D2E/DX2                !
 ! D44   D(13,16,19,22)        -72.9373         estimate D2E/DX2                !
 ! D45   D(17,16,19,20)         50.9674         estimate D2E/DX2                !
 ! D46   D(17,16,19,21)        -68.9274         estimate D2E/DX2                !
 ! D47   D(17,16,19,22)        168.9541         estimate D2E/DX2                !
 ! D48   D(18,16,19,20)        -63.6943         estimate D2E/DX2                !
 ! D49   D(18,16,19,21)        176.4108         estimate D2E/DX2                !
 ! D50   D(18,16,19,22)         54.2924         estimate D2E/DX2                !
 ! D51   D(16,19,22,23)       -161.4581         estimate D2E/DX2                !
 ! D52   D(16,19,22,24)        -41.7963         estimate D2E/DX2                !
 ! D53   D(16,19,22,25)         79.277          estimate D2E/DX2                !
 ! D54   D(20,19,22,23)        -40.7405         estimate D2E/DX2                !
 ! D55   D(20,19,22,24)         78.9213         estimate D2E/DX2                !
 ! D56   D(20,19,22,25)       -160.0054         estimate D2E/DX2                !
 ! D57   D(21,19,22,23)         73.1896         estimate D2E/DX2                !
 ! D58   D(21,19,22,24)       -167.1485         estimate D2E/DX2                !
 ! D59   D(21,19,22,25)        -46.0753         estimate D2E/DX2                !
 --------------------------------------------------------------------------------
 Trust Radius=3.00D-01 FncErr=1.00D-07 GrdErr=1.00D-06 EigMax=2.50D+02 EigMin=1.00D-04
 Number of steps in this run=    139 maximum allowed number of steps=    150.
 GradGradGradGradGradGradGradGradGradGradGradGradGradGradGradGradGradGrad

 Leave Link  103 at Wed Oct 11 16:11:59 2023, MaxMem=  6710886400 cpu:               0.2 elap:               0.0
 (Enter /data0/home/software/g16/l202.exe)
                          Input orientation:                          
 ---------------------------------------------------------------------
 Center     Atomic      Atomic             Coordinates (Angstroms)
 Number     Number       Type             X           Y           Z
 ---------------------------------------------------------------------
      1          6           0       -2.475883    0.052931    1.169020
      2          6           0       -1.583525    1.072640    1.115545
      3          6           0       -1.718240    0.184795   -0.895790
      4          7           0       -2.550287   -0.485385   -0.102159
      5          1           0       -3.061397   -0.334582    1.984193
      6          1           0       -1.240062    1.748255    1.878455
      7          1           0       -1.556287   -0.012318   -1.940452
      8          6           0       -3.369849   -1.629758   -0.495925
      9          1           0       -3.270282   -1.778498   -1.568111
     10          1           0       -3.028034   -2.517887    0.032859
     11          1           0       -4.410094   -1.429856   -0.246333
     12          7           0       -1.126526    1.143180   -0.186242
     13          6           0       -0.125985    2.091467   -0.698920
     14          1           0       -0.545610    3.089199   -0.573354
     15          1           0       -0.023539    1.897614   -1.765655
     16          6           0        1.223982    2.019687    0.010873
     17          1           0        1.725565    2.966408   -0.205896
     18          1           0        1.079088    1.991396    1.092292
     19          6           0        2.188368    0.919034   -0.420280
     20          1           0        3.166990    1.105424    0.022819
     21          1           0        2.304935    0.881594   -1.504528
     22         16           0        1.790978   -0.776673    0.084515
     23          8           0        3.067148   -1.522497   -0.052575
     24          8           0        1.320770   -0.702811    1.488950
     25          8           0        0.750527   -1.280857   -0.842233
 ---------------------------------------------------------------------
                    Distance matrix (angstroms):
                    1          2          3          4          5
     1  C    0.000000
     2  C    1.356086   0.000000
     3  C    2.203373   2.202700   0.000000
     4  N    1.382467   2.201107   1.330900   0.000000
     5  H    1.075872   2.217866   3.219957   2.153332   0.000000
     6  H    2.214650   1.075386   3.220170   3.260164   2.768872
     7  H    3.243259   3.242991   1.075361   2.142697   4.215691
     8  C    2.530348   3.618113   2.486022   1.461617   2.814891
     9  H    3.387785   4.263349   2.591403   2.083158   3.840233
    10  H    2.864409   4.018793   3.143635   2.092256   2.928419
    11  H    2.818342   4.013314   3.205459   2.090860   2.827341
    12  N    2.201396   1.381475   1.331197   2.164807   3.261640
    13  C    3.628615   2.540613   2.491873   3.587970   4.658482
    14  H    3.997592   2.827748   3.148744   4.125337   4.959083
    15  H    4.246076   3.378676   2.561723   3.851020   5.317202
    16  C    4.347233   3.162166   3.584067   4.531365   5.272670
    17  H    5.294422   4.035175   4.480303   5.496230   6.213536
    18  H    4.049858   2.816764   3.878314   4.553408   4.832109
    19  C    5.003124   4.075479   4.003349   4.952620   5.908729
    20  H    5.853506   4.874681   5.055381   5.935785   6.686809
    21  H    5.539924   4.692697   4.128199   5.235308   6.515196
    22  S    4.480011   3.983748   3.768293   4.355029   5.229700
    23  O    5.890625   5.452339   5.150320   5.712586   6.566478
    24  O    3.884337   3.424410   3.963636   4.190941   4.425409
    25  O    4.029125   3.849629   2.871553   3.475034   4.838893
                    6          7          8          9         10
     6  H    0.000000
     7  H    4.217068   0.000000
     8  C    4.645928   2.826973   0.000000
     9  H    5.332785   2.489138   1.087023   0.000000
    10  H    4.980265   3.512531   1.088680   1.780024   0.000000
    11  H    4.966308   3.608832   1.088286   1.779837   1.780969
    12  N    2.154525   2.144090   3.580166   3.878331   4.131241
    13  C    2.828750   2.830738   4.940787   5.061494   5.495774
    14  H    2.879542   3.536924   5.500080   5.666379   6.161926
    15  H    3.844707   2.455140   5.025172   4.908581   5.635450
    16  C    3.103716   3.958107   5.888852   6.092439   6.218497
    17  H    3.824050   4.759417   6.868195   7.023407   7.261625
    18  H    2.460818   4.489722   5.952162   6.340888   6.190677
    19  C    4.210216   4.147382   6.115214   6.196052   6.263275
    20  H    4.824803   5.235755   7.104969   7.230943   7.176824
    21  H    4.976211   3.987248   6.287077   6.177635   6.508501
    22  S    4.333669   3.986090   5.262965   5.417673   5.124195
    23  O    5.742713   5.217362   6.453138   6.521151   6.176516
    24  O    3.566132   4.529353   5.176955   5.619651   4.932220
    25  O    4.532120   2.852484   4.149598   4.115999   4.071063
                   11         12         13         14         15
    11  H    0.000000
    12  N    4.172043   0.000000
    13  C    5.564004   1.470772   0.000000
    14  H    5.955085   2.067440   1.089643   0.000000
    15  H    5.711590   2.068888   1.089035   1.764657   0.000000
    16  C    6.611226   2.516348   1.526882   2.148635   2.174227
    17  H    7.548184   3.385110   2.106379   2.303983   2.575759
    18  H    6.605150   2.686792   2.161170   2.572779   3.064709
    19  C    7.006229   3.330696   2.609304   3.493950   2.767704
    20  H    7.994516   4.298769   3.512388   4.251374   3.742416
    21  H    7.212314   3.685272   2.832343   3.723736   2.553875
    22  S    6.244149   3.502995   3.537618   4.564800   3.723897
    23  O    7.480326   4.970976   4.865655   5.881409   4.917738
    24  O    6.031799   3.493309   3.832475   4.702745   4.377423
    25  O    5.197048   3.135220   3.487317   4.566142   3.399201
                   16         17         18         19         20
    16  C    0.000000
    17  H    1.093094   0.000000
    18  H    1.091449   1.747533   0.000000
    19  C    1.525572   2.109950   2.160633   0.000000
    20  H    2.147394   2.365011   2.507599   1.090311   0.000000
    21  H    2.181778   2.523601   3.078609   1.091139   1.768058
    22  S    2.854214   3.754900   3.030612   1.813328   2.332275
    23  O    3.993539   4.687603   4.196492   2.620789   2.630897
    24  O    3.099367   4.061961   2.733953   2.651088   2.971158
    25  O    3.441735   4.403962   3.815492   2.661757   3.504561
                   21         22         23         24         25
    21  H    0.000000
    22  S    2.353521   0.000000
    23  O    2.910119   1.484472   0.000000
    24  O    3.527014   1.482899   2.469417   0.000000
    25  O    2.744269   1.481756   2.459407   2.468548   0.000000
 Stoichiometry    C7H12N2O3S
 Framework group  C1[X(C7H12N2O3S)]
 Deg. of freedom    69
 Full point group                 C1      NOp   1
 Largest Abelian subgroup         C1      NOp   1
 Largest concise Abelian subgroup C1      NOp   1
                         Standard orientation:                         
 ---------------------------------------------------------------------
 Center     Atomic      Atomic             Coordinates (Angstroms)
 Number     Number       Type             X           Y           Z
 ---------------------------------------------------------------------
      1          6           0       -2.475883    0.052931    1.169020
      2          6           0       -1.583525    1.072640    1.115545
      3          6           0       -1.718240    0.184795   -0.895790
      4          7           0       -2.550287   -0.485385   -0.102159
      5          1           0       -3.061397   -0.334582    1.984193
      6          1           0       -1.240062    1.748255    1.878455
      7          1           0       -1.556287   -0.012318   -1.940452
      8          6           0       -3.369849   -1.629758   -0.495925
      9          1           0       -3.270282   -1.778498   -1.568111
     10          1           0       -3.028034   -2.517887    0.032859
     11          1           0       -4.410094   -1.429856   -0.246333
     12          7           0       -1.126526    1.143180   -0.186242
     13          6           0       -0.125985    2.091467   -0.698920
     14          1           0       -0.545610    3.089199   -0.573354
     15          1           0       -0.023539    1.897614   -1.765655
     16          6           0        1.223982    2.019687    0.010873
     17          1           0        1.725565    2.966408   -0.205896
     18          1           0        1.079088    1.991396    1.092292
     19          6           0        2.188368    0.919034   -0.420280
     20          1           0        3.166990    1.105424    0.022819
     21          1           0        2.304935    0.881594   -1.504528
     22         16           0        1.790978   -0.776673    0.084515
     23          8           0        3.067148   -1.522497   -0.052575
     24          8           0        1.320770   -0.702811    1.488950
     25          8           0        0.750527   -1.280857   -0.842233
 ---------------------------------------------------------------------
 Rotational constants (GHZ):           1.1718691           0.5350935           0.4453151
 Leave Link  202 at Wed Oct 11 16:11:59 2023, MaxMem=  6710886400 cpu:               0.1 elap:               0.0
 (Enter /data0/home/software/g16/l301.exe)
 Standard basis: 6-311+G(2d,p) (5D, 7F)
 Ernie: Thresh=  0.10000D-02 Tol=  0.10000D-05 Strict=F.
 There are   457 symmetry adapted cartesian basis functions of A   symmetry.
 There are   431 symmetry adapted basis functions of A   symmetry.
   431 basis functions,   656 primitive gaussians,   457 cartesian basis functions
    54 alpha electrons       54 beta electrons
       nuclear repulsion energy      1012.3189232611 Hartrees.
 IExCor=  402 DFT=T Ex+Corr=B3LYP ExCW=0 ScaHFX=  0.200000
 ScaDFX=  0.800000  0.720000  1.000000  0.810000 ScalE2=  1.000000  1.000000
 IRadAn=      5 IRanWt=     -1 IRanGd=            0 ICorTp=0 IEmpDi=141
 NAtoms=   25 NActive=   25 NUniq=   25 SFac= 1.00D+00 NAtFMM=   60 NAOKFM=F Big=F
 Integral buffers will be    131072 words long.
 Raffenetti 2 integral format.
 Two-electron integral symmetry is turned on.
 R6Disp:  Grimme-D3(BJ) Dispersion energy=       -0.0493114432 Hartrees.
 Nuclear repulsion after empirical dispersion term =     1012.2696118180 Hartrees.
 ------------------------------------------------------------------------------
 Polarizable Continuum Model (PCM)
 =================================
 Model                : PCM.
 Atomic radii         : SMD-Coulomb.
 Polarization charges : Total charges.
 Charge compensation  : None.
 Solution method      : On-the-fly selection.
 Cavity type          : VdW (van der Waals Surface) (Alpha=1.000).
 Cavity algorithm     : GePol (No added spheres)
                        Default sphere list used, NSphG=   25.
                        Lebedev-Laikov grids with approx.  5.0 points / Ang**2.
                        Smoothing algorithm: York/Karplus (Gamma=1.0000).
                        Polarization charges: spherical gaussians, with
                                              point-specific exponents (IZeta= 3).
                        Self-potential: point-specific (ISelfS= 7).
                        Self-field    : sphere-specific E.n sum rule (ISelfD= 2).
 1st derivatives      : Analytical E(r).r(x)/FMM algorithm (CHGder, D1EAlg=3).
                        Cavity 1st derivative terms included.
 Solvent              : Water, Eps=  78.355300 Eps(inf)=   1.777849
 ------------------------------------------------------------------------------
 GePol: Number of generator spheres                  =      25
 GePol: Total number of spheres                      =      25
 GePol: Number of exposed spheres                    =      25 (100.00%)
 GePol: Number of points                             =    1800
 GePol: Average weight of points                     =       0.12
 GePol: Minimum weight of points                     =   0.24D-10
 GePol: Maximum weight of points                     =    0.21991
 GePol: Number of points with low weight             =     102
 GePol: Fraction of low-weight points (<1% of avg)   =       5.67%
 GePol: Cavity surface area                          =    214.309 Ang**2
 GePol: Cavity volume                                =    197.779 Ang**3
 ------------------------------------------------------------------------------
 Atomic radii for non-electrostatic terms: SMD-CDS.
 ------------------------------------------------------------------------------
 PCM non-electrostatic energy =         0.0069298581 Hartrees.
 Nuclear repulsion after PCM non-electrostatic terms =     1012.2765416760 Hartrees.
 Leave Link  301 at Wed Oct 11 16:11:59 2023, MaxMem=  6710886400 cpu:               1.8 elap:               0.1
 (Enter /data0/home/software/g16/l302.exe)
 NPDir=0 NMtPBC=     1 NCelOv=     1 NCel=       1 NClECP=     1 NCelD=      1
         NCelK=      1 NCelE2=     1 NClLst=     1 CellRange=     0.0.
 One-electron integrals computed using PRISM.
 One-electron integral symmetry used in STVInt
 NBasis=   431 RedAO= T EigKep=  1.19D-05  NBF=   431
 NBsUse=   431 1.00D-06 EigRej= -1.00D+00 NBFU=   431
 Precomputing XC quadrature grid using
 IXCGrd= 4 IRadAn=           5 IRanWt=          -1 IRanGd=           0 AccXCQ= 0.00D+00.
 Generated NRdTot=       0 NPtTot=           0 NUsed=           0 NTot=          32
 NSgBfM=   456   456   456   456   456 MxSgAt=    25 MxSgA2=    25.
 Leave Link  302 at Wed Oct 11 16:11:59 2023, MaxMem=  6710886400 cpu:               9.0 elap:               0.4
 (Enter /data0/home/software/g16/l303.exe)
 DipDrv:  MaxL=1.
 Leave Link  303 at Wed Oct 11 16:11:59 2023, MaxMem=  6710886400 cpu:               1.0 elap:               0.1
 (Enter /data0/home/software/g16/l401.exe)
 ExpMin= 4.05D-02 ExpMax= 9.34D+04 ExpMxC= 3.17D+03 IAcc=3 IRadAn=         5 AccDes= 0.00D+00
 Harris functional with IExCor=  402 and IRadAn=       5 diagonalized for initial guess.
 HarFok:  IExCor=  402 AccDes= 0.00D+00 IRadAn=         5 IDoV= 1 UseB2=F ITyADJ=14
 ICtDFT=  3500011 ScaDFX=  1.000000  1.000000  1.000000  1.000000
 FoFCou: FMM=F IPFlag=           0 FMFlag=      100000 FMFlg1=           0
         NFxFlg=           0 DoJE=T BraDBF=F KetDBF=T FulRan=T
         wScrn=  0.000000 ICntrl=       500 IOpCl=  0 I1Cent=   200000004 NGrid=           0
         NMat0=    1 NMatS0=      1 NMatT0=    0 NMatD0=    1 NMtDS0=    0 NMtDT0=    0
 Petite list used in FoFCou.
 Harris En= -1007.62254366420    
 JPrj=0 DoOrth=F DoCkMO=F.
 Leave Link  401 at Wed Oct 11 16:12:01 2023, MaxMem=  6710886400 cpu:              32.0 elap:               1.4
 (Enter /data0/home/software/g16/l502.exe)
 Integral symmetry usage will be decided dynamically.
 Closed shell SCF:
 Using DIIS extrapolation, IDIIS=  1040.
 NGot=  6710886400 LenX=  6710453468 LenY=  6710244162
 Requested convergence on RMS density matrix=1.00D-08 within 128 cycles.
 Requested convergence on MAX density matrix=1.00D-06.
 Requested convergence on             energy=1.00D-06.
 No special actions if energy rises.
 Fock matrices will be formed incrementally for  20 cycles.

 Cycle   1  Pass 1  IDiag  1:
 FoFJK:  IHMeth= 1 ICntrl=       0 DoSepK=F KAlg= 0 I1Cent=           0 FoldK=F
 IRaf= 900000000 NMat=       1 IRICut=       1 DoRegI=T DoRafI=F ISym2E= 0 IDoP0=0 IntGTp=1.
 FoFCou: FMM=F IPFlag=           0 FMFlag=      100000 FMFlg1=           0
         NFxFlg=           0 DoJE=F BraDBF=F KetDBF=F FulRan=T
         wScrn=  0.000000 ICntrl=         0 IOpCl=  0 I1Cent=           0 NGrid=           0
         NMat0=    1 NMatS0=      1 NMatT0=    0 NMatD0=    1 NMtDS0=    0 NMtDT0=    0
 Symmetry not used in FoFCou.
 Inv3:  Mode=1 IEnd=     9720000.
 Iteration    1 A*A^-1 deviation from unit magnitude is 4.88D-15 for   1782.
 Iteration    1 A*A^-1 deviation from orthogonality  is 2.21D-15 for   1262    374.
 Iteration    1 A^-1*A deviation from unit magnitude is 4.66D-15 for   1782.
 Iteration    1 A^-1*A deviation from orthogonality  is 1.38D-15 for   1040    286.
 E= -1007.15078069400    
 DIIS: error= 3.84D-02 at cycle   1 NSaved=   1.
 NSaved= 1 IEnMin= 1 EnMin= -1007.15078069400     IErMin= 1 ErrMin= 3.84D-02
 ErrMax= 3.84D-02  0.00D+00 EMaxC= 1.00D-01 BMatC= 6.89D-01 BMatP= 6.89D-01
 IDIUse=3 WtCom= 6.16D-01 WtEn= 3.84D-01
 Coeff-Com:  0.100D+01
 Coeff-En:   0.100D+01
 Coeff:      0.100D+01
 Gap=     0.213 Goal=   None    Shift=    0.000
 GapD=    0.213 DampG=1.000 DampE=0.500 DampFc=0.5000 IDamp=-1.
 Damping current iteration by 5.00D-01
 RMSDP=4.26D-03 MaxDP=3.57D-01              OVMax= 2.32D-01

 Cycle   2  Pass 1  IDiag  1:
 RMSU=  2.13D-03    CP:  9.91D-01
 E= -1007.28378021994     Delta-E=       -0.132999525940 Rises=F Damp=T
 DIIS: error= 1.23D-02 at cycle   2 NSaved=   2.
 NSaved= 2 IEnMin= 2 EnMin= -1007.28378021994     IErMin= 2 ErrMin= 1.23D-02
 ErrMax= 1.23D-02  0.00D+00 EMaxC= 1.00D-01 BMatC= 7.62D-02 BMatP= 6.89D-01
 IDIUse=3 WtCom= 8.77D-01 WtEn= 1.23D-01
 Coeff-Com:  0.197D+00 0.803D+00
 Coeff-En:   0.343D+00 0.657D+00
 Coeff:      0.215D+00 0.785D+00
 Gap=     0.247 Goal=   None    Shift=    0.000
 RMSDP=1.56D-03 MaxDP=2.51D-01 DE=-1.33D-01 OVMax= 1.65D-01

 Cycle   3  Pass 1  IDiag  1:
 RMSU=  1.28D-03    CP:  9.55D-01  6.18D-01
 E= -1007.60044446020     Delta-E=       -0.316664240257 Rises=F Damp=F
 DIIS: error= 4.72D-03 at cycle   3 NSaved=   3.
 NSaved= 3 IEnMin= 3 EnMin= -1007.60044446020     IErMin= 3 ErrMin= 4.72D-03
 ErrMax= 4.72D-03  0.00D+00 EMaxC= 1.00D-01 BMatC= 2.19D-02 BMatP= 7.62D-02
 IDIUse=3 WtCom= 9.53D-01 WtEn= 4.72D-02
 Coeff-Com:  0.381D-01 0.352D+00 0.610D+00
 Coeff-En:   0.000D+00 0.000D+00 0.100D+01
 Coeff:      0.363D-01 0.335D+00 0.629D+00
 Gap=     0.242 Goal=   None    Shift=    0.000
 RMSDP=4.88D-04 MaxDP=2.82D-02 DE=-3.17D-01 OVMax= 3.66D-02

 Cycle   4  Pass 1  IDiag  1:
 RMSU=  4.42D-04    CP:  9.57D-01  6.53D-01  8.49D-01
 E= -1007.61569676287     Delta-E=       -0.015252302671 Rises=F Damp=F
 DIIS: error= 2.40D-03 at cycle   4 NSaved=   4.
 NSaved= 4 IEnMin= 4 EnMin= -1007.61569676287     IErMin= 4 ErrMin= 2.40D-03
 ErrMax= 2.40D-03  0.00D+00 EMaxC= 1.00D-01 BMatC= 3.83D-03 BMatP= 2.19D-02
 IDIUse=3 WtCom= 9.76D-01 WtEn= 2.40D-02
 Coeff-Com: -0.569D-02 0.771D-01 0.325D+00 0.604D+00
 Coeff-En:   0.000D+00 0.000D+00 0.142D+00 0.858D+00
 Coeff:     -0.555D-02 0.753D-01 0.320D+00 0.610D+00
 Gap=     0.236 Goal=   None    Shift=    0.000
 RMSDP=1.78D-04 MaxDP=1.20D-02 DE=-1.53D-02 OVMax= 1.65D-02

 Cycle   5  Pass 1  IDiag  1:
 RMSU=  1.09D-04    CP:  9.55D-01  6.50D-01  9.00D-01  7.23D-01
 E= -1007.61920498282     Delta-E=       -0.003508219945 Rises=F Damp=F
 DIIS: error= 4.35D-04 at cycle   5 NSaved=   5.
 NSaved= 5 IEnMin= 5 EnMin= -1007.61920498282     IErMin= 5 ErrMin= 4.35D-04
 ErrMax= 4.35D-04  0.00D+00 EMaxC= 1.00D-01 BMatC= 1.71D-04 BMatP= 3.83D-03
 IDIUse=3 WtCom= 9.96D-01 WtEn= 4.35D-03
 Coeff-Com: -0.460D-02 0.152D-01 0.109D+00 0.274D+00 0.606D+00
 Coeff-En:   0.000D+00 0.000D+00 0.000D+00 0.000D+00 0.100D+01
 Coeff:     -0.458D-02 0.152D-01 0.109D+00 0.273D+00 0.608D+00
 Gap=     0.236 Goal=   None    Shift=    0.000
 RMSDP=3.95D-05 MaxDP=1.71D-03 DE=-3.51D-03 OVMax= 3.19D-03

 Cycle   6  Pass 1  IDiag  1:
 RMSU=  2.96D-05    CP:  9.54D-01  6.49D-01  9.03D-01  7.61D-01  8.35D-01
 E= -1007.61934399852     Delta-E=       -0.000139015702 Rises=F Damp=F
 DIIS: error= 2.01D-04 at cycle   6 NSaved=   6.
 NSaved= 6 IEnMin= 6 EnMin= -1007.61934399852     IErMin= 6 ErrMin= 2.01D-04
 ErrMax= 2.01D-04  0.00D+00 EMaxC= 1.00D-01 BMatC= 2.21D-05 BMatP= 1.71D-04
 IDIUse=3 WtCom= 9.98D-01 WtEn= 2.01D-03
 Coeff-Com: -0.173D-02 0.240D-02 0.335D-01 0.990D-01 0.331D+00 0.536D+00
 Coeff-En:   0.000D+00 0.000D+00 0.000D+00 0.000D+00 0.289D-01 0.971D+00
 Coeff:     -0.173D-02 0.240D-02 0.334D-01 0.988D-01 0.330D+00 0.537D+00
 Gap=     0.236 Goal=   None    Shift=    0.000
 RMSDP=9.67D-06 MaxDP=5.30D-04 DE=-1.39D-04 OVMax= 1.54D-03

 Cycle   7  Pass 1  IDiag  1:
 RMSU=  7.49D-06    CP:  9.54D-01  6.49D-01  9.04D-01  7.64D-01  8.38D-01
                    CP:  8.09D-01
 E= -1007.61936118498     Delta-E=       -0.000017186459 Rises=F Damp=F
 DIIS: error= 6.92D-05 at cycle   7 NSaved=   7.
 NSaved= 7 IEnMin= 7 EnMin= -1007.61936118498     IErMin= 7 ErrMin= 6.92D-05
 ErrMax= 6.92D-05  0.00D+00 EMaxC= 1.00D-01 BMatC= 2.91D-06 BMatP= 2.21D-05
 IDIUse=1 WtCom= 1.00D+00 WtEn= 0.00D+00
 Coeff-Com: -0.561D-03 0.335D-04 0.106D-01 0.356D-01 0.149D+00 0.324D+00
 Coeff-Com:  0.481D+00
 Coeff:     -0.561D-03 0.335D-04 0.106D-01 0.356D-01 0.149D+00 0.324D+00
 Coeff:      0.481D+00
 Gap=     0.236 Goal=   None    Shift=    0.000
 RMSDP=3.56D-06 MaxDP=1.78D-04 DE=-1.72D-05 OVMax= 5.05D-04

 Cycle   8  Pass 1  IDiag  1:
 RMSU=  2.85D-06    CP:  9.54D-01  6.49D-01  9.05D-01  7.64D-01  8.37D-01
                    CP:  7.84D-01  7.48D-01
 E= -1007.61936358911     Delta-E=       -0.000002404136 Rises=F Damp=F
 DIIS: error= 1.04D-05 at cycle   8 NSaved=   8.
 NSaved= 8 IEnMin= 8 EnMin= -1007.61936358911     IErMin= 8 ErrMin= 1.04D-05
 ErrMax= 1.04D-05  0.00D+00 EMaxC= 1.00D-01 BMatC= 1.21D-07 BMatP= 2.91D-06
 IDIUse=1 WtCom= 1.00D+00 WtEn= 0.00D+00
 Coeff-Com: -0.318D-04-0.282D-03 0.976D-03 0.483D-02 0.294D-01 0.770D-01
 Coeff-Com:  0.208D+00 0.680D+00
 Coeff:     -0.318D-04-0.282D-03 0.976D-03 0.483D-02 0.294D-01 0.770D-01
 Coeff:      0.208D+00 0.680D+00
 Gap=     0.236 Goal=   None    Shift=    0.000
 RMSDP=1.25D-06 MaxDP=4.17D-05 DE=-2.40D-06 OVMax= 1.02D-04

 Cycle   9  Pass 1  IDiag  1:
 RMSU=  8.95D-07    CP:  9.54D-01  6.49D-01  9.05D-01  7.64D-01  8.43D-01
                    CP:  7.91D-01  7.53D-01  8.30D-01
 E= -1007.61936368340     Delta-E=       -0.000000094286 Rises=F Damp=F
 DIIS: error= 3.55D-06 at cycle   9 NSaved=   9.
 NSaved= 9 IEnMin= 9 EnMin= -1007.61936368340     IErMin= 9 ErrMin= 3.55D-06
 ErrMax= 3.55D-06  0.00D+00 EMaxC= 1.00D-01 BMatC= 1.48D-08 BMatP= 1.21D-07
 IDIUse=1 WtCom= 1.00D+00 WtEn= 0.00D+00
 Coeff-Com:  0.277D-04-0.137D-03-0.318D-03-0.164D-03 0.430D-02 0.154D-01
 Coeff-Com:  0.699D-01 0.342D+00 0.569D+00
 Coeff:      0.277D-04-0.137D-03-0.318D-03-0.164D-03 0.430D-02 0.154D-01
 Coeff:      0.699D-01 0.342D+00 0.569D+00
 Gap=     0.236 Goal=   None    Shift=    0.000
 RMSDP=3.82D-07 MaxDP=1.44D-05 DE=-9.43D-08 OVMax= 3.70D-05

 Cycle  10  Pass 1  IDiag  1:
 RMSU=  2.54D-07    CP:  9.54D-01  6.49D-01  9.05D-01  7.64D-01  8.43D-01
                    CP:  7.93D-01  7.68D-01  8.84D-01  8.26D-01
 E= -1007.61936369637     Delta-E=       -0.000000012975 Rises=F Damp=F
 DIIS: error= 1.13D-06 at cycle  10 NSaved=  10.
 NSaved=10 IEnMin=10 EnMin= -1007.61936369637     IErMin=10 ErrMin= 1.13D-06
 ErrMax= 1.13D-06  0.00D+00 EMaxC= 1.00D-01 BMatC= 1.24D-09 BMatP= 1.48D-08
 IDIUse=1 WtCom= 1.00D+00 WtEn= 0.00D+00
 Coeff-Com:  0.138D-04-0.354D-04-0.275D-03-0.617D-03-0.129D-02-0.161D-02
 Coeff-Com:  0.101D-01 0.885D-01 0.275D+00 0.631D+00
 Coeff:      0.138D-04-0.354D-04-0.275D-03-0.617D-03-0.129D-02-0.161D-02
 Coeff:      0.101D-01 0.885D-01 0.275D+00 0.631D+00
 Gap=     0.236 Goal=   None    Shift=    0.000
 RMSDP=1.03D-07 MaxDP=4.29D-06 DE=-1.30D-08 OVMax= 1.12D-05

 Cycle  11  Pass 1  IDiag  1:
 RMSU=  7.54D-08    CP:  9.54D-01  6.49D-01  9.05D-01  7.64D-01  8.43D-01
                    CP:  7.93D-01  7.72D-01  9.00D-01  8.37D-01  8.85D-01
 E= -1007.61936369753     Delta-E=       -0.000000001160 Rises=F Damp=F
 DIIS: error= 3.27D-07 at cycle  11 NSaved=  11.
 NSaved=11 IEnMin=11 EnMin= -1007.61936369753     IErMin=11 ErrMin= 3.27D-07
 ErrMax= 3.27D-07  0.00D+00 EMaxC= 1.00D-01 BMatC= 4.70D-11 BMatP= 1.24D-09
 IDIUse=1 WtCom= 1.00D+00 WtEn= 0.00D+00
 Coeff-Com:  0.196D-05-0.227D-05-0.755D-04-0.190D-03-0.649D-03-0.122D-02
 Coeff-Com: -0.902D-04 0.942D-02 0.602D-01 0.220D+00 0.713D+00
 Coeff:      0.196D-05-0.227D-05-0.755D-04-0.190D-03-0.649D-03-0.122D-02
 Coeff:     -0.902D-04 0.942D-02 0.602D-01 0.220D+00 0.713D+00
 Gap=     0.236 Goal=   None    Shift=    0.000
 RMSDP=2.75D-08 MaxDP=1.89D-06 DE=-1.16D-09 OVMax= 1.55D-06

 Cycle  12  Pass 1  IDiag  1:
 RMSU=  1.77D-08    CP:  9.54D-01  6.49D-01  9.05D-01  7.64D-01  8.43D-01
                    CP:  7.94D-01  7.73D-01  9.02D-01  8.54D-01  9.03D-01
                    CP:  8.78D-01
 E= -1007.61936369752     Delta-E=        0.000000000013 Rises=F Damp=F
 DIIS: error= 2.37D-07 at cycle  12 NSaved=  12.
 NSaved=12 IEnMin=11 EnMin= -1007.61936369753     IErMin=12 ErrMin= 2.37D-07
 ErrMax= 2.37D-07  0.00D+00 EMaxC= 1.00D-01 BMatC= 1.02D-11 BMatP= 4.70D-11
 IDIUse=1 WtCom= 1.00D+00 WtEn= 0.00D+00
 Coeff-Com: -0.250D-06 0.193D-05-0.197D-04-0.568D-04-0.278D-03-0.595D-03
 Coeff-Com: -0.103D-02-0.295D-02 0.862D-02 0.639D-01 0.370D+00 0.562D+00
 Coeff:     -0.250D-06 0.193D-05-0.197D-04-0.568D-04-0.278D-03-0.595D-03
 Coeff:     -0.103D-02-0.295D-02 0.862D-02 0.639D-01 0.370D+00 0.562D+00
 Gap=     0.236 Goal=   None    Shift=    0.000
 RMSDP=1.07D-08 MaxDP=4.39D-07 DE= 1.30D-11 OVMax= 7.68D-07

 Cycle  13  Pass 1  IDiag  1:
 RMSU=  7.89D-09    CP:  9.54D-01  6.49D-01  9.05D-01  7.64D-01  8.43D-01
                    CP:  7.94D-01  7.73D-01  9.02D-01  8.57D-01  9.12D-01
                    CP:  9.01D-01  7.46D-01
 E= -1007.61936369753     Delta-E=       -0.000000000008 Rises=F Damp=F
 DIIS: error= 1.33D-07 at cycle  13 NSaved=  13.
 NSaved=13 IEnMin=11 EnMin= -1007.61936369753     IErMin=13 ErrMin= 1.33D-07
 ErrMax= 1.33D-07  0.00D+00 EMaxC= 1.00D-01 BMatC= 2.09D-12 BMatP= 1.02D-11
 IDIUse=1 WtCom= 1.00D+00 WtEn= 0.00D+00
 Coeff-Com: -0.317D-06 0.130D-05-0.471D-05-0.164D-04-0.102D-03-0.230D-03
 Coeff-Com: -0.583D-03-0.257D-02-0.857D-03 0.150D-01 0.135D+00 0.349D+00
 Coeff-Com:  0.505D+00
 Coeff:     -0.317D-06 0.130D-05-0.471D-05-0.164D-04-0.102D-03-0.230D-03
 Coeff:     -0.583D-03-0.257D-02-0.857D-03 0.150D-01 0.135D+00 0.349D+00
 Coeff:      0.505D+00
 Gap=     0.236 Goal=   None    Shift=    0.000
 RMSDP=3.84D-09 MaxDP=2.11D-07 DE=-8.41D-12 OVMax= 2.94D-07

 Error on total polarization charges =  0.05437
 SCF Done:  E(RB3LYP) =  -1007.61936370     A.U. after   13 cycles
            NFock= 13  Conv=0.38D-08     -V/T= 2.0031
 KE= 1.004544870739D+03 PE=-4.396233930078D+03 EE= 1.371793153965D+03
 SMD-CDS (non-electrostatic) energy       (kcal/mol) =       4.35
 (included in total energy above)
 Leave Link  502 at Wed Oct 11 16:12:49 2023, MaxMem=  6710886400 cpu:            1148.4 elap:              48.7
 (Enter /data0/home/software/g16/l601.exe)
 Copying SCF densities to generalized density rwf, IOpCl= 0 IROHF=0.

 **********************************************************************

            Population analysis using the SCF density.

 **********************************************************************

 Orbital symmetries:
       Occupied  (A) (A) (A) (A) (A) (A) (A) (A) (A) (A) (A) (A)
                 (A) (A) (A) (A) (A) (A) (A) (A) (A) (A) (A) (A)
                 (A) (A) (A) (A) (A) (A) (A) (A) (A) (A) (A) (A)
                 (A) (A) (A) (A) (A) (A) (A) (A) (A) (A) (A) (A)
                 (A) (A) (A) (A) (A) (A)
       Virtual   (A) (A) (A) (A) (A) (A) (A) (A) (A) (A) (A) (A)
                 (A) (A) (A) (A) (A) (A) (A) (A) (A) (A) (A) (A)
                 (A) (A) (A) (A) (A) (A) (A) (A) (A) (A) (A) (A)
                 (A) (A) (A) (A) (A) (A) (A) (A) (A) (A) (A) (A)
                 (A) (A) (A) (A) (A) (A) (A) (A) (A) (A) (A) (A)
                 (A) (A) (A) (A) (A) (A) (A) (A) (A) (A) (A) (A)
                 (A) (A) (A) (A) (A) (A) (A) (A) (A) (A) (A) (A)
                 (A) (A) (A) (A) (A) (A) (A) (A) (A) (A) (A) (A)
                 (A) (A) (A) (A) (A) (A) (A) (A) (A) (A) (A) (A)
                 (A) (A) (A) (A) (A) (A) (A) (A) (A) (A) (A) (A)
                 (A) (A) (A) (A) (A) (A) (A) (A) (A) (A) (A) (A)
                 (A) (A) (A) (A) (A) (A) (A) (A) (A) (A) (A) (A)
                 (A) (A) (A) (A) (A) (A) (A) (A) (A) (A) (A) (A)
                 (A) (A) (A) (A) (A) (A) (A) (A) (A) (A) (A) (A)
                 (A) (A) (A) (A) (A) (A) (A) (A) (A) (A) (A) (A)
                 (A) (A) (A) (A) (A) (A) (A) (A) (A) (A) (A) (A)
                 (A) (A) (A) (A) (A) (A) (A) (A) (A) (A) (A) (A)
                 (A) (A) (A) (A) (A) (A) (A) (A) (A) (A) (A) (A)
                 (A) (A) (A) (A) (A) (A) (A) (A) (A) (A) (A) (A)
                 (A) (A) (A) (A) (A) (A) (A) (A) (A) (A) (A) (A)
                 (A) (A) (A) (A) (A) (A) (A) (A) (A) (A) (A) (A)
                 (A) (A) (A) (A) (A) (A) (A) (A) (A) (A) (A) (A)
                 (A) (A) (A) (A) (A) (A) (A) (A) (A) (A) (A) (A)
                 (A) (A) (A) (A) (A) (A) (A) (A) (A) (A) (A) (A)
                 (A) (A) (A) (A) (A) (A) (A) (A) (A) (A) (A) (A)
                 (A) (A) (A) (A) (A) (A) (A) (A) (A) (A) (A) (A)
                 (A) (A) (A) (A) (A) (A) (A) (A) (A) (A) (A) (A)
                 (A) (A) (A) (A) (A) (A) (A) (A) (A) (A) (A) (A)
                 (A) (A) (A) (A) (A) (A) (A) (A) (A) (A) (A) (A)
                 (A) (A) (A) (A) (A) (A) (A) (A) (A) (A) (A) (A)
                 (A) (A) (A) (A) (A) (A) (A) (A) (A) (A) (A) (A)
                 (A) (A) (A) (A) (A)
 The electronic state is 1-A.
 Alpha  occ. eigenvalues --  -89.03305 -19.09431 -19.09288 -19.09264 -14.40510
 Alpha  occ. eigenvalues --  -14.40166 -10.26747 -10.22168 -10.22100 -10.22082
 Alpha  occ. eigenvalues --  -10.21220 -10.18906 -10.18052  -8.08915  -6.05224
 Alpha  occ. eigenvalues --   -6.05220  -6.05100  -1.10909  -1.07701  -0.97468
 Alpha  occ. eigenvalues --   -0.97322  -0.95911  -0.81863  -0.79290  -0.75832
 Alpha  occ. eigenvalues --   -0.71496  -0.65979  -0.63120  -0.61208  -0.56881
 Alpha  occ. eigenvalues --   -0.55405  -0.51060  -0.49380  -0.48084  -0.47915
 Alpha  occ. eigenvalues --   -0.47095  -0.46799  -0.46228  -0.45524  -0.44859
 Alpha  occ. eigenvalues --   -0.42407  -0.41532  -0.40955  -0.39162  -0.37811
 Alpha  occ. eigenvalues --   -0.35891  -0.34354  -0.34237  -0.31158  -0.29987
 Alpha  occ. eigenvalues --   -0.29363  -0.29056  -0.27396  -0.25610
 Alpha virt. eigenvalues --   -0.02014   0.00129   0.00816   0.01830   0.02643
 Alpha virt. eigenvalues --    0.02954   0.03873   0.04457   0.04641   0.05133
 Alpha virt. eigenvalues --    0.05828   0.06029   0.06786   0.07216   0.07667
 Alpha virt. eigenvalues --    0.08476   0.08694   0.09348   0.09623   0.10216
 Alpha virt. eigenvalues --    0.10451   0.11509   0.11853   0.12022   0.12667
 Alpha virt. eigenvalues --    0.13138   0.13383   0.14108   0.14291   0.14454
 Alpha virt. eigenvalues --    0.15392   0.16022   0.16271   0.16661   0.17214
 Alpha virt. eigenvalues --    0.17905   0.18455   0.18695   0.19118   0.19454
 Alpha virt. eigenvalues --    0.19781   0.20621   0.20962   0.21310   0.21525
 Alpha virt. eigenvalues --    0.22171   0.22600   0.22839   0.23058   0.24017
 Alpha virt. eigenvalues --    0.24127   0.25017   0.25843   0.25931   0.26795
 Alpha virt. eigenvalues --    0.27311   0.28005   0.28311   0.28570   0.29235
 Alpha virt. eigenvalues --    0.29532   0.30185   0.30310   0.30438   0.30888
 Alpha virt. eigenvalues --    0.32164   0.32953   0.33390   0.34040   0.34950
 Alpha virt. eigenvalues --    0.36235   0.36293   0.37717   0.38028   0.39336
 Alpha virt. eigenvalues --    0.39816   0.41126   0.41722   0.42285   0.43455
 Alpha virt. eigenvalues --    0.43557   0.44708   0.45295   0.46002   0.47236
 Alpha virt. eigenvalues --    0.47973   0.48799   0.50114   0.50817   0.52426
 Alpha virt. eigenvalues --    0.53474   0.53906   0.54816   0.56093   0.56981
 Alpha virt. eigenvalues --    0.57558   0.59290   0.59974   0.60649   0.62135
 Alpha virt. eigenvalues --    0.62303   0.63258   0.64073   0.64517   0.65269
 Alpha virt. eigenvalues --    0.65577   0.67052   0.67717   0.68885   0.69955
 Alpha virt. eigenvalues --    0.71448   0.71894   0.72863   0.73211   0.74188
 Alpha virt. eigenvalues --    0.75009   0.75932   0.76669   0.77094   0.77760
 Alpha virt. eigenvalues --    0.78986   0.81010   0.81415   0.82155   0.83779
 Alpha virt. eigenvalues --    0.85664   0.86132   0.87637   0.89191   0.89468
 Alpha virt. eigenvalues --    0.90580   0.91594   0.91914   0.92974   0.93524
 Alpha virt. eigenvalues --    0.94790   0.96724   0.99364   1.02264   1.03020
 Alpha virt. eigenvalues --    1.03836   1.06191   1.07997   1.08437   1.09558
 Alpha virt. eigenvalues --    1.10519   1.12041   1.12960   1.13188   1.14665
 Alpha virt. eigenvalues --    1.15620   1.16138   1.17052   1.18262   1.20226
 Alpha virt. eigenvalues --    1.21258   1.22010   1.22826   1.23138   1.23745
 Alpha virt. eigenvalues --    1.26332   1.27224   1.27915   1.29008   1.29862
 Alpha virt. eigenvalues --    1.30853   1.32896   1.33805   1.34467   1.35726
 Alpha virt. eigenvalues --    1.37289   1.39363   1.39772   1.41520   1.42174
 Alpha virt. eigenvalues --    1.44159   1.44817   1.45733   1.46345   1.49384
 Alpha virt. eigenvalues --    1.49738   1.49896   1.51948   1.52187   1.53043
 Alpha virt. eigenvalues --    1.54309   1.55944   1.58012   1.59576   1.59889
 Alpha virt. eigenvalues --    1.61139   1.63293   1.66680   1.69129   1.72325
 Alpha virt. eigenvalues --    1.72994   1.74864   1.75264   1.77747   1.78712
 Alpha virt. eigenvalues --    1.79404   1.80613   1.82356   1.82953   1.84805
 Alpha virt. eigenvalues --    1.85539   1.89026   1.90004   1.90502   1.95791
 Alpha virt. eigenvalues --    1.96627   1.98183   1.99759   2.01658   2.01827
 Alpha virt. eigenvalues --    2.04351   2.06448   2.09625   2.11274   2.11802
 Alpha virt. eigenvalues --    2.14077   2.16014   2.18732   2.19416   2.20029
 Alpha virt. eigenvalues --    2.22293   2.25159   2.27788   2.30006   2.30305
 Alpha virt. eigenvalues --    2.31160   2.34026   2.35155   2.35686   2.36194
 Alpha virt. eigenvalues --    2.37184   2.38610   2.39653   2.43782   2.45141
 Alpha virt. eigenvalues --    2.48329   2.50479   2.51229   2.54469   2.55276
 Alpha virt. eigenvalues --    2.65926   2.67823   2.69159   2.70821   2.73986
 Alpha virt. eigenvalues --    2.74428   2.77564   2.78239   2.80420   2.82216
 Alpha virt. eigenvalues --    2.82754   2.85325   2.86900   2.87769   2.90688
 Alpha virt. eigenvalues --    2.91846   2.92996   2.94821   2.95906   2.97554
 Alpha virt. eigenvalues --    2.98124   3.07938   3.10834   3.12610   3.15240
 Alpha virt. eigenvalues --    3.18264   3.21686   3.22585   3.25290   3.29953
 Alpha virt. eigenvalues --    3.30123   3.31662   3.32880   3.35221   3.37588
 Alpha virt. eigenvalues --    3.39491   3.40524   3.42707   3.43748   3.44294
 Alpha virt. eigenvalues --    3.46572   3.49321   3.50813   3.51604   3.52791
 Alpha virt. eigenvalues --    3.56238   3.58477   3.59284   3.60692   3.62408
 Alpha virt. eigenvalues --    3.62977   3.64315   3.66899   3.67564   3.69202
 Alpha virt. eigenvalues --    3.72318   3.72749   3.74413   3.82717   3.84771
 Alpha virt. eigenvalues --    3.88124   3.90590   3.91370   3.94329   3.94624
 Alpha virt. eigenvalues --    3.96885   4.03087   4.07940   4.15560   4.21954
 Alpha virt. eigenvalues --    4.23267   4.25497   4.27196   4.31805   4.38901
 Alpha virt. eigenvalues --    4.52940   4.59876   4.97902   4.99226   5.02879
 Alpha virt. eigenvalues --    5.04099   5.06563   5.07806   5.08490   5.10496
 Alpha virt. eigenvalues --    5.11431   5.12665   5.13100   5.17964   5.19808
 Alpha virt. eigenvalues --    5.20712   5.24157   5.35298   5.38025   5.39804
 Alpha virt. eigenvalues --    5.49228   5.54169   5.68432   5.71406   5.96168
 Alpha virt. eigenvalues --    6.75849   6.77086   6.79058   6.85129   6.85548
 Alpha virt. eigenvalues --    6.85968   6.88924   6.94417   6.95524   7.03926
 Alpha virt. eigenvalues --    7.17296   7.17906   7.25475   7.41048   7.41148
 Alpha virt. eigenvalues --    8.41930  17.55457  17.57657  17.60386  23.87258
 Alpha virt. eigenvalues --   23.90818  23.95594  24.01522  24.03268  24.10733
 Alpha virt. eigenvalues --   24.20902  35.52421  35.65103  49.93612  49.95561
 Alpha virt. eigenvalues --   50.03216 189.56827
          Condensed to atoms (all electrons):
               1          2          3          4          5          6
     1  C    5.568467   0.036025  -0.206025   0.345979   0.441329  -0.062374
     2  C    0.036025   5.725888  -0.010742  -0.019302  -0.062665   0.433526
     3  C   -0.206025  -0.010742   5.550050   0.346522   0.007368   0.006015
     4  N    0.345979  -0.019302   0.346522   6.098487  -0.036719   0.017028
     5  H    0.441329  -0.062665   0.007368  -0.036719   0.462275  -0.001876
     6  H   -0.062374   0.433526   0.006015   0.017028  -0.001876   0.457427
     7  H    0.008568   0.008203   0.429459  -0.036900  -0.000037  -0.000072
     8  C   -0.025972  -0.045208  -0.133978   0.284259  -0.002493   0.000959
     9  H   -0.010618   0.008521   0.022245  -0.040057  -0.000050   0.000012
    10  H   -0.000383  -0.001094  -0.025261  -0.017693   0.000281  -0.000005
    11  H   -0.000680  -0.001933  -0.001752  -0.037433   0.000634  -0.000008
    12  N    0.103249   0.100261   0.328265  -0.057127   0.016226  -0.032815
    13  C   -0.018594  -0.107217  -0.197928  -0.000014   0.001119   0.002489
    14  H    0.003099  -0.012126   0.001221  -0.001755  -0.000002   0.000466
    15  H   -0.003958   0.004107  -0.002841   0.002420   0.000015  -0.000012
    16  C    0.021584  -0.106996   0.028851   0.015763   0.000053  -0.000980
    17  H    0.001386   0.000727  -0.003940  -0.000477  -0.000001  -0.000273
    18  H    0.001348   0.006366   0.003004   0.001121   0.000017   0.000991
    19  C   -0.023252   0.125447  -0.004905  -0.018809   0.000105  -0.001608
    20  H    0.000376   0.000243   0.001095   0.000052  -0.000000  -0.000003
    21  H    0.000485   0.000719   0.001693  -0.000078   0.000000   0.000004
    22  S    0.005442  -0.020970  -0.095037   0.020596   0.000129   0.000196
    23  O   -0.000654   0.005560   0.000542   0.000777   0.000003  -0.000000
    24  O    0.014072  -0.008761   0.002699  -0.010434  -0.000000  -0.001724
    25  O   -0.011094  -0.014642   0.047443   0.004500  -0.000018   0.000199
               7          8          9         10         11         12
     1  C    0.008568  -0.025972  -0.010618  -0.000383  -0.000680   0.103249
     2  C    0.008203  -0.045208   0.008521  -0.001094  -0.001933   0.100261
     3  C    0.429459  -0.133978   0.022245  -0.025261  -0.001752   0.328265
     4  N   -0.036900   0.284259  -0.040057  -0.017693  -0.037433  -0.057127
     5  H   -0.000037  -0.002493  -0.000050   0.000281   0.000634   0.016226
     6  H   -0.000072   0.000959   0.000012  -0.000005  -0.000008  -0.032815
     7  H    0.423790  -0.003089   0.003185   0.000218  -0.000237  -0.044951
     8  C   -0.003089   4.964482   0.386921   0.418297   0.412293   0.020863
     9  H    0.003185   0.386921   0.489118  -0.022029  -0.019556   0.002262
    10  H    0.000218   0.418297  -0.022029   0.491052  -0.032086  -0.000095
    11  H   -0.000237   0.412293  -0.019556  -0.032086   0.501382  -0.003332
    12  N   -0.044951   0.020863   0.002262  -0.000095  -0.003332   6.338753
    13  C   -0.003072   0.000329   0.002539  -0.000199  -0.000743   0.240634
    14  H    0.000199  -0.000311  -0.000003   0.000002  -0.000007  -0.031136
    15  H    0.003004   0.000686  -0.000001   0.000000  -0.000002  -0.052761
    16  C   -0.001218   0.003721  -0.000080  -0.000102   0.000189  -0.025528
    17  H   -0.000049  -0.000047  -0.000000   0.000000  -0.000000  -0.000962
    18  H    0.000119   0.000379  -0.000000  -0.000001  -0.000000  -0.002585
    19  C   -0.000928  -0.003396   0.000011  -0.000132  -0.000086   0.017399
    20  H   -0.000004  -0.000016   0.000000   0.000000   0.000000   0.001520
    21  H    0.000055   0.000188  -0.000002  -0.000001  -0.000000  -0.000094
    22  S    0.003029  -0.000140   0.000377   0.000589  -0.000075  -0.050389
    23  O    0.000084   0.000526  -0.000006  -0.000006  -0.000001  -0.008251
    24  O    0.000215  -0.005364   0.000038   0.000079   0.000021   0.047980
    25  O   -0.010331   0.004396  -0.000198   0.000202  -0.000087   0.039969
              13         14         15         16         17         18
     1  C   -0.018594   0.003099  -0.003958   0.021584   0.001386   0.001348
     2  C   -0.107217  -0.012126   0.004107  -0.106996   0.000727   0.006366
     3  C   -0.197928   0.001221  -0.002841   0.028851  -0.003940   0.003004
     4  N   -0.000014  -0.001755   0.002420   0.015763  -0.000477   0.001121
     5  H    0.001119  -0.000002   0.000015   0.000053  -0.000001   0.000017
     6  H    0.002489   0.000466  -0.000012  -0.000980  -0.000273   0.000991
     7  H   -0.003072   0.000199   0.003004  -0.001218  -0.000049   0.000119
     8  C    0.000329  -0.000311   0.000686   0.003721  -0.000047   0.000379
     9  H    0.002539  -0.000003  -0.000001  -0.000080  -0.000000  -0.000000
    10  H   -0.000199   0.000002   0.000000  -0.000102   0.000000  -0.000001
    11  H   -0.000743  -0.000007  -0.000002   0.000189  -0.000000  -0.000000
    12  N    0.240634  -0.031136  -0.052761  -0.025528  -0.000962  -0.002585
    13  C    5.774403   0.434944   0.454948  -0.134810  -0.030331  -0.068283
    14  H    0.434944   0.517632  -0.025297  -0.058919  -0.007180  -0.002003
    15  H    0.454948  -0.025297   0.488441  -0.046549  -0.001592   0.005425
    16  C   -0.134810  -0.058919  -0.046549   5.994946   0.437118   0.441837
    17  H   -0.030331  -0.007180  -0.001592   0.437118   0.540429  -0.028712
    18  H   -0.068283  -0.002003   0.005425   0.441837  -0.028712   0.523116
    19  C   -0.090901   0.008137  -0.005691  -0.492305  -0.042401  -0.034899
    20  H    0.010763  -0.000170  -0.000128  -0.048652  -0.008991  -0.003554
    21  H   -0.015822   0.000045   0.003044  -0.064020  -0.003835   0.006047
    22  S    0.031923   0.001623  -0.000355   0.127115  -0.000466  -0.005843
    23  O   -0.010827   0.000008   0.000115   0.020991  -0.001061   0.000877
    24  O   -0.003470   0.000039  -0.000068  -0.017665  -0.000374   0.005532
    25  O   -0.005964   0.000147  -0.001250  -0.019314  -0.000477  -0.000213
              19         20         21         22         23         24
     1  C   -0.023252   0.000376   0.000485   0.005442  -0.000654   0.014072
     2  C    0.125447   0.000243   0.000719  -0.020970   0.005560  -0.008761
     3  C   -0.004905   0.001095   0.001693  -0.095037   0.000542   0.002699
     4  N   -0.018809   0.000052  -0.000078   0.020596   0.000777  -0.010434
     5  H    0.000105  -0.000000   0.000000   0.000129   0.000003  -0.000000
     6  H   -0.001608  -0.000003   0.000004   0.000196  -0.000000  -0.001724
     7  H   -0.000928  -0.000004   0.000055   0.003029   0.000084   0.000215
     8  C   -0.003396  -0.000016   0.000188  -0.000140   0.000526  -0.005364
     9  H    0.000011   0.000000  -0.000002   0.000377  -0.000006   0.000038
    10  H   -0.000132   0.000000  -0.000001   0.000589  -0.000006   0.000079
    11  H   -0.000086   0.000000  -0.000000  -0.000075  -0.000001   0.000021
    12  N    0.017399   0.001520  -0.000094  -0.050389  -0.008251   0.047980
    13  C   -0.090901   0.010763  -0.015822   0.031923  -0.010827  -0.003470
    14  H    0.008137  -0.000170   0.000045   0.001623   0.000008   0.000039
    15  H   -0.005691  -0.000128   0.003044  -0.000355   0.000115  -0.000068
    16  C   -0.492305  -0.048652  -0.064020   0.127115   0.020991  -0.017665
    17  H   -0.042401  -0.008991  -0.003835  -0.000466  -0.001061  -0.000374
    18  H   -0.034899  -0.003554   0.006047  -0.005843   0.000877   0.005532
    19  C    6.310054   0.435510   0.472545   0.004792  -0.107860  -0.058721
    20  H    0.435510   0.494240  -0.027701  -0.054514   0.010051  -0.001167
    21  H    0.472545  -0.027701   0.484685  -0.053951   0.005448   0.001535
    22  S    0.004792  -0.054514  -0.053951  13.609423   0.402547   0.338101
    23  O   -0.107860   0.010051   0.005448   0.402547   8.514791  -0.042306
    24  O   -0.058721  -0.001167   0.001535   0.338101  -0.042306   8.590160
    25  O   -0.045233   0.001577   0.004313   0.318274  -0.031088  -0.022711
              25
     1  C   -0.011094
     2  C   -0.014642
     3  C    0.047443
     4  N    0.004500
     5  H   -0.000018
     6  H    0.000199
     7  H   -0.010331
     8  C    0.004396
     9  H   -0.000198
    10  H    0.000202
    11  H   -0.000087
    12  N    0.039969
    13  C   -0.005964
    14  H    0.000147
    15  H   -0.001250
    16  C   -0.019314
    17  H   -0.000477
    18  H   -0.000213
    19  C   -0.045233
    20  H    0.001577
    21  H    0.004313
    22  S    0.318274
    23  O   -0.031088
    24  O   -0.022711
    25  O    8.527242
 Mulliken charges:
               1
     1  C   -0.187806
     2  C   -0.043936
     3  C   -0.094064
     4  N    0.139295
     5  H    0.174307
     6  H    0.182439
     7  H    0.220761
     8  C   -0.278285
     9  H    0.177370
    10  H    0.188366
    11  H    0.183499
    12  N    0.052643
    13  C   -0.265917
    14  H    0.171348
    15  H    0.178301
    16  C   -0.075029
    17  H    0.151510
    18  H    0.149916
    19  C   -0.442873
    20  H    0.189476
    21  H    0.184698
    22  S    1.417582
    23  O   -0.760257
    24  O   -0.827704
    25  O   -0.785640
 Sum of Mulliken charges =  -0.00000
 Mulliken charges with hydrogens summed into heavy atoms:
               1
     1  C   -0.013499
     2  C    0.138504
     3  C    0.126697
     4  N    0.139295
     8  C    0.270950
    12  N    0.052643
    13  C    0.083732
    16  C    0.226396
    19  C   -0.068699
    22  S    1.417582
    23  O   -0.760257
    24  O   -0.827704
    25  O   -0.785640
 Electronic spatial extent (au):  <R**2>=           2663.7833
 Charge=             -0.0000 electrons
 Dipole moment (field-independent basis, Debye):
    X=            -15.6603    Y=             10.5271    Z=             -3.3441  Tot=             19.1637
 Quadrupole moment (field-independent basis, Debye-Ang):
   XX=            -80.2263   YY=            -80.8010   ZZ=            -81.5835
   XY=             26.8633   XZ=             -3.4977   YZ=              0.0628
 Traceless Quadrupole moment (field-independent basis, Debye-Ang):
   XX=              0.6440   YY=              0.0693   ZZ=             -0.7133
   XY=             26.8633   XZ=             -3.4977   YZ=              0.0628
 Octapole moment (field-independent basis, Debye-Ang**2):
  XXX=           -138.5044  YYY=             32.0832  ZZZ=            -14.8132  XYY=            -33.9125
  XXY=             17.7696  XXZ=             -5.1066  XZZ=            -28.5504  YZZ=             12.6949
  YYZ=              0.3267  XYZ=             -4.6350
 Hexadecapole moment (field-independent basis, Debye-Ang**3):
 XXXX=          -2132.4483 YYYY=           -858.5356 ZZZZ=           -383.2913 XXXY=            270.9768
 XXXZ=             -8.1920 YYYX=             72.8661 YYYZ=             -8.5627 ZZZX=            -19.1214
 ZZZY=             12.3614 XXYY=           -530.1973 XXZZ=           -396.4905 YYZZ=           -214.2498
 XXYZ=              6.2805 YYXZ=              5.1784 ZZXY=             18.6119
 N-N= 1.012276541676D+03 E-N=-4.396233936664D+03  KE= 1.004544870739D+03
 No NMR shielding tensors so no spin-rotation constants.
 Leave Link  601 at Wed Oct 11 16:12:50 2023, MaxMem=  6710886400 cpu:               4.1 elap:               0.2
 (Enter /data0/home/software/g16/l701.exe)
 ... and contract with generalized density number  0.
 Compute integral first derivatives.
 R6Disp: Adding Grimme-D3(BJ) dispersion energy 1st derivatives to the gradient.
 D1PCM: PCM CHGder 1st derivatives, ID1Alg=3 FixD1E=F DoIter=F DoCFld=F I1PDM=0.
 GePol: Maximum number of non-zero 1st derivatives   =     374
 Leave Link  701 at Wed Oct 11 16:12:51 2023, MaxMem=  6710886400 cpu:              23.3 elap:               1.0
 (Enter /data0/home/software/g16/l702.exe)
 L702 exits ... SP integral derivatives will be done elsewhere.
 Leave Link  702 at Wed Oct 11 16:12:51 2023, MaxMem=  6710886400 cpu:               0.4 elap:               0.0
 (Enter /data0/home/software/g16/l703.exe)
 Integral derivatives from FoFJK, PRISM(SPDF).
 Compute integral first derivatives, UseDBF=F ICtDFT=           0.
 Calling FoFJK, ICntrl=      2127 FMM=F ISym2X=0 I1Cent= 0 IOpClX= 0 NMat=1 NMatS=1 NMatT=0.
 FoFJK:  IHMeth= 1 ICntrl=    2127 DoSepK=F KAlg= 0 I1Cent=           0 FoldK=F
 IRaf=         0 NMat=       1 IRICut=       1 DoRegI=T DoRafI=F ISym2E= 0 IDoP0=0 IntGTp=1.
 FoFCou: FMM=F IPFlag=           0 FMFlag=      100000 FMFlg1=         800
         NFxFlg=           0 DoJE=F BraDBF=F KetDBF=F FulRan=T
         wScrn=  0.000000 ICntrl=      2127 IOpCl=  0 I1Cent=           0 NGrid=           0
         NMat0=    1 NMatS0=      1 NMatT0=    0 NMatD0=    1 NMtDS0=    0 NMtDT0=    0
 Symmetry not used in FoFCou.
 Leave Link  703 at Wed Oct 11 16:13:01 2023, MaxMem=  6710886400 cpu:             253.9 elap:              10.6
 (Enter /data0/home/software/g16/l716.exe)
 Dipole        =-6.16123420D+00 4.14168760D+00-1.31568915D+00
 ***** Axes restored to original set *****
 -------------------------------------------------------------------
 Center     Atomic                   Forces (Hartrees/Bohr)
 Number     Number              X              Y              Z
 -------------------------------------------------------------------
      1        6          -0.000306846   -0.000036153    0.001024883
      2        6           0.000304436    0.000543951    0.000933559
      3        6           0.000499011   -0.000387674   -0.002012599
      4        7          -0.000199612   -0.000318770   -0.000233616
      5        1           0.000105635    0.000079568   -0.000154375
      6        1          -0.000076099   -0.000111178   -0.000122844
      7        1          -0.000136573    0.000129946    0.000148736
      8        6           0.000082152    0.000144745    0.000096058
      9        1           0.000146754    0.000265602    0.000258673
     10        1          -0.000066599    0.000144584   -0.000091591
     11        1           0.000184279    0.000001355   -0.000047270
     12        7           0.000355262    0.000301423   -0.000196647
     13        6           0.000287633   -0.000157982    0.000300606
     14        1           0.000247467   -0.000172306    0.000024343
     15        1          -0.000215772   -0.000184666    0.000343890
     16        6          -0.000347452   -0.000752938   -0.000254095
     17        1          -0.000144172   -0.000270688    0.000013689
     18        1          -0.000045885    0.000102712   -0.000261341
     19        6          -0.000555504   -0.000659516    0.000364152
     20        1          -0.000315223    0.000142062   -0.000084489
     21        1           0.000009130    0.000082068    0.000239310
     22       16          -0.000037538    0.001233006   -0.000245819
     23        8          -0.000797948    0.000250207    0.000116357
     24        8           0.000359416   -0.000402250   -0.000799800
     25        8           0.000664047    0.000032894    0.000640230
 -------------------------------------------------------------------
 Cartesian Forces:  Max     0.002012599 RMS     0.000436136
 Leave Link  716 at Wed Oct 11 16:13:01 2023, MaxMem=  6710886400 cpu:               0.5 elap:               0.0
 (Enter /data0/home/software/g16/l103.exe)

 GradGradGradGradGradGradGradGradGradGradGradGradGradGradGradGradGradGrad
 Berny optimization.
 FormGI is forming the generalized inverse of G from B-inverse, IUseBI=4.
 GSVD:  received Info=                   1 from GESDD.
 Internal  Forces:  Max     0.001203715 RMS     0.000339694
 Search for a local minimum.
 Step number   1 out of a maximum of  139
 All quantities printed in internal units (Hartrees-Bohrs-Radians)
 RMS Force = .33969D-03 SwitMx=.10000D-02 MixMth= 2
 Mixed Optimization -- En-DIIS/RFO-DIIS
 Second derivative matrix not updated -- first step.
 ITU=  0
     Eigenvalues ---    0.00230   0.00410   0.00428   0.00756   0.00877
     Eigenvalues ---    0.01540   0.01698   0.02169   0.02223   0.02438
     Eigenvalues ---    0.02468   0.02604   0.03093   0.03169   0.04050
     Eigenvalues ---    0.04717   0.04840   0.05335   0.07628   0.07695
     Eigenvalues ---    0.09021   0.09155   0.09573   0.09733   0.09956
     Eigenvalues ---    0.12661   0.12825   0.12990   0.15999   0.16000
     Eigenvalues ---    0.16000   0.16000   0.16000   0.16000   0.22012
     Eigenvalues ---    0.22028   0.22067   0.22823   0.23546   0.24975
     Eigenvalues ---    0.24985   0.25000   0.25000   0.25000   0.25094
     Eigenvalues ---    0.29713   0.29836   0.34457   0.34646   0.34681
     Eigenvalues ---    0.34777   0.34854   0.34924   0.34966   0.35011
     Eigenvalues ---    0.35159   0.35648   0.36498   0.36558   0.36561
     Eigenvalues ---    0.36763   0.43623   0.46697   0.50089   0.56929
     Eigenvalues ---    0.57705   0.82058   0.82631   0.83050
 RFO step:  Lambda=-5.78640148D-05 EMin= 2.30000000D-03
 Linear search not attempted -- first point.
 Iteration  1 RMS(Cart)=  0.00882274 RMS(Int)=  0.00002609
 Iteration  2 RMS(Cart)=  0.00003743 RMS(Int)=  0.00000109
 Iteration  3 RMS(Cart)=  0.00000000 RMS(Int)=  0.00000109
 ITry= 1 IFail=0 DXMaxC= 3.99D-02 DCOld= 1.00D+10 DXMaxT= 3.00D-01 DXLimC= 3.00D+00 Rises=F
 Variable       Old X    -DE/DX   Delta X   Delta X   Delta X     New X
                                 (Linear)    (Quad)   (Total)
    R1        2.56263   0.00007   0.00000   0.00010   0.00010   2.56273
    R2        2.61248   0.00088   0.00000   0.00183   0.00183   2.61431
    R3        2.03310  -0.00020   0.00000  -0.00056  -0.00056   2.03255
    R4        2.03218  -0.00018   0.00000  -0.00050  -0.00050   2.03168
    R5        2.61061   0.00063   0.00000   0.00125   0.00125   2.61186
    R6        2.51504   0.00039   0.00000   0.00071   0.00071   2.51574
    R7        2.03214  -0.00019   0.00000  -0.00051  -0.00051   2.03162
    R8        2.51560   0.00031   0.00000   0.00054   0.00054   2.51614
    R9        2.76206  -0.00068   0.00000  -0.00184  -0.00184   2.76022
   R10        2.05418  -0.00028   0.00000  -0.00080  -0.00080   2.05338
   R11        2.05731  -0.00017   0.00000  -0.00049  -0.00049   2.05682
   R12        2.05656  -0.00019   0.00000  -0.00055  -0.00055   2.05601
   R13        2.77936  -0.00120   0.00000  -0.00338  -0.00338   2.77598
   R14        2.05913  -0.00025   0.00000  -0.00072  -0.00072   2.05841
   R15        2.05798  -0.00032   0.00000  -0.00091  -0.00091   2.05706
   R16        2.88539  -0.00119   0.00000  -0.00401  -0.00401   2.88138
   R17        2.06565  -0.00030   0.00000  -0.00087  -0.00087   2.06478
   R18        2.06254  -0.00026   0.00000  -0.00075  -0.00075   2.06179
   R19        2.88291  -0.00102   0.00000  -0.00340  -0.00340   2.87951
   R20        2.06039  -0.00029   0.00000  -0.00084  -0.00084   2.05955
   R21        2.06195  -0.00024   0.00000  -0.00069  -0.00069   2.06126
   R22        3.42669  -0.00119   0.00000  -0.00473  -0.00473   3.42196
   R23        2.80525  -0.00082   0.00000  -0.00100  -0.00100   2.80424
   R24        2.80227  -0.00089   0.00000  -0.00107  -0.00107   2.80120
   R25        2.80011  -0.00089   0.00000  -0.00107  -0.00107   2.79905
    A1        1.86707  -0.00018   0.00000  -0.00072  -0.00072   1.86635
    A2        2.29007   0.00009   0.00000   0.00035   0.00035   2.29042
    A3        2.12604   0.00009   0.00000   0.00037   0.00037   2.12641
    A4        2.28446   0.00013   0.00000   0.00058   0.00058   2.28504
    A5        1.86841  -0.00028   0.00000  -0.00130  -0.00130   1.86711
    A6        2.13031   0.00015   0.00000   0.00072   0.00072   2.13103
    A7        2.19093   0.00041   0.00000   0.00170   0.00170   2.19263
    A8        1.89925  -0.00082   0.00000  -0.00346  -0.00346   1.89579
    A9        2.19299   0.00042   0.00000   0.00174   0.00174   2.19473
   A10        1.89503   0.00054   0.00000   0.00240   0.00240   1.89743
   A11        2.19293  -0.00007   0.00000  -0.00038  -0.00038   2.19255
   A12        2.19464  -0.00047   0.00000  -0.00200  -0.00200   2.19264
   A13        1.89811  -0.00043   0.00000  -0.00295  -0.00295   1.89516
   A14        1.90902   0.00009   0.00000   0.00068   0.00068   1.90971
   A15        1.90749   0.00004   0.00000   0.00032   0.00032   1.90781
   A16        1.91633   0.00014   0.00000   0.00064   0.00064   1.91697
   A17        1.91654   0.00015   0.00000   0.00066   0.00066   1.91720
   A18        1.91619   0.00002   0.00000   0.00062   0.00062   1.91680
   A19        1.89491   0.00075   0.00000   0.00308   0.00308   1.89799
   A20        2.19745  -0.00033   0.00000  -0.00137  -0.00138   2.19607
   A21        2.19047  -0.00042   0.00000  -0.00175  -0.00176   2.18872
   A22        1.86317   0.00029   0.00000   0.00156   0.00155   1.86472
   A23        1.86572  -0.00011   0.00000  -0.00183  -0.00183   1.86389
   A24        1.99227  -0.00042   0.00000  -0.00230  -0.00231   1.98997
   A25        1.88819   0.00000   0.00000   0.00139   0.00139   1.88958
   A26        1.90706  -0.00010   0.00000  -0.00099  -0.00099   1.90607
   A27        1.94315   0.00036   0.00000   0.00234   0.00233   1.94548
   A28        1.84709  -0.00011   0.00000  -0.00171  -0.00171   1.84539
   A29        1.92244  -0.00013   0.00000   0.00009   0.00009   1.92252
   A30        2.05041   0.00023   0.00000   0.00119   0.00119   2.05160
   A31        1.85444   0.00003   0.00000  -0.00030  -0.00030   1.85414
   A32        1.85328  -0.00010   0.00000  -0.00134  -0.00134   1.85194
   A33        1.92329   0.00005   0.00000   0.00168   0.00168   1.92497
   A34        1.90625  -0.00020   0.00000  -0.00211  -0.00211   1.90414
   A35        1.95317  -0.00010   0.00000  -0.00035  -0.00036   1.95281
   A36        2.04593   0.00024   0.00000   0.00131   0.00131   2.04724
   A37        1.89000   0.00004   0.00000  -0.00030  -0.00030   1.88970
   A38        1.81670   0.00003   0.00000   0.00049   0.00049   1.81718
   A39        1.84206  -0.00001   0.00000   0.00099   0.00099   1.84305
   A40        1.82939   0.00018   0.00000   0.00039   0.00039   1.82978
   A41        1.86143   0.00061   0.00000   0.00262   0.00261   1.86405
   A42        1.87335   0.00047   0.00000   0.00205   0.00205   1.87540
   A43        1.96609  -0.00040   0.00000  -0.00198  -0.00198   1.96412
   A44        1.95512  -0.00035   0.00000  -0.00180  -0.00180   1.95332
   A45        1.96779  -0.00035   0.00000  -0.00068  -0.00068   1.96710
    D1        3.13790  -0.00001   0.00000  -0.00029  -0.00029   3.13761
    D2        0.00057  -0.00001   0.00000  -0.00035  -0.00035   0.00022
    D3       -0.00027   0.00001   0.00000   0.00036   0.00036   0.00010
    D4       -3.13761   0.00001   0.00000   0.00031   0.00031  -3.13730
[...]
 01100,-0.00008112,-0.10624670,-0.24104246,0.04620199,0.10911123,0.2635
 6668,-0.00016768,-0.00033922,-0.00002839,-0.00006888,0.00006791,-0.000
 29287,-0.00000571,0.00025981,0.00040986,-0.00021455,-0.00027659,0.0003
 6469,0.00002470,-0.00003911,0.00000324,-0.00011026,0.00010520,0.000086
 84,-0.00004425,0.00002588,-0.00000075,0.00003859,0.00001239,0.00007936
 ,-0.00000248,0.00000187,-0.00000225,-0.00001873,-0.00002561,-0.0000141
 2,-0.00000902,-0.00001336,-0.00000447,-0.00302200,-0.00039564,-0.00153
 722,-0.00877850,-0.01297922,0.00258871,0.00050546,-0.00022175,0.001022
 19,0.00075673,0.00006818,0.00002263,0.02454361,0.04668749,-0.05728694,
 -0.02520061,-0.04988024,0.05813462,-0.00005115,-0.00016391,0.00008166,
 -0.00140728,-0.00068337,-0.00024967,0.00008415,-0.00031625,-0.00013995
 ,0.00016611,0.00014641,0.00010230,-0.00004918,0.00005844,-0.00001430,-
 0.00105491,0.00002584,0.00052965,-0.00002388,0.00004910,0.00004598,-0.
 00005196,0.00000824,-0.00003076,0.00000429,0.00000654,-0.00000014,0.00
 001556,0.00002308,0.00000814,0.00000567,0.00000228,0.00000308,0.002523
 42,0.00056648,0.00018493,0.00196037,0.00066323,-0.03239447,0.00082295,
 0.00001964,0.00079428,-0.00509621,0.00011558,-0.00224624,-0.05403510,-
 0.00014802,0.03683658,-0.00231577,-0.00006604,0.01484166,0.06321389,0.
 00007141,0.00000674,-0.00002978,-0.00048420,0.00004368,0.00015238,-0.0
 0011543,-0.00024697,-0.00014940,0.00015090,0.00015049,-0.00003440,0.00
 000082,0.00002599,0.00000547,-0.00037851,0.00010548,0.00007303,-0.0000
 0503,0.00000282,0.00000875,-0.00002735,-0.00004142,-0.00003148,0.00000
 533,0.00000615,0.00000278,0.00000900,0.00001687,0.00000542,0.00001061,
 0.00001433,0.00000651,0.00090299,0.00064920,-0.00087431,-0.00264656,-0
 .00120430,-0.00075549,-0.00014491,-0.00004108,0.00009902,0.00002148,0.
 00071422,-0.00050340,0.00038013,-0.04606041,0.01006402,-0.00303955,-0.
 00033313,0.02730202,-0.00164810,0.04897856,-0.00011796,-0.00029723,0.0
 0018351,0.00026592,-0.00041721,-0.00006009,0.00019470,-0.00001518,0.00
 002067,0.00003153,0.00021879,0.00030554,0.00001444,-0.00003655,0.00000
 069,0.00034050,0.00033390,0.00025713,0.00000771,0.00002642,0.00002239,
 -0.00009372,0.00000167,-0.00000336,0.00000665,0.00001155,0.00000544,0.
 00001303,0.00001942,0.00000397,0.00000367,-0.00000432,-0.00000172,0.00
 124997,0.00055468,0.00053501,0.00044266,0.00049027,-0.01586428,-0.0003
 8233,0.00009876,0.00028165,-0.00239682,0.00068140,0.00020212,0.0346385
 1,0.00620542,-0.30430125,0.00107725,0.00103498,-0.00546091,-0.03911424
 ,-0.00800673,0.33117121,0.00000760,-0.00001414,0.00000939,-0.00012511,
 -0.00014730,0.00016707,0.00002295,-0.00020796,-0.00007050,-0.00010828,
 -0.00000716,0.00001799,0.00000671,-0.00000672,0.00000388,0.00002355,0.
 00001213,-0.00000802,0.00002650,0.00000162,0.00001900,0.00000697,0.000
 00171,0.00001103,0.00000313,0.00000093,0.00000307,0.00000229,-0.000001
 79,-0.00000488,-0.00000207,-0.00000016,-0.00000077,0.00113714,0.000576
 92,0.00012669,-0.02086470,0.02320838,0.00709182,-0.00330466,0.00002574
 ,-0.00190674,0.00185749,-0.00031373,0.00119382,-0.12228117,0.05344994,
 0.02036294,0.00649253,-0.00719096,-0.00344992,-0.00358548,0.00466448,0
 .00231685,0.51800125,-0.00006499,0.00000123,0.00003419,0.00011266,-0.0
 0003761,-0.00015179,-0.00000927,0.00047745,0.00011100,-0.00007931,-0.0
 0026333,0.00005984,-0.00001722,-0.00001042,-0.00000794,0.00002161,-0.0
 0003976,-0.00003467,-0.00002053,-0.00001616,0.00001059,0.00006507,0.00
 000217,0.00004440,-0.00000506,-0.00000670,-0.00000254,-0.00002878,-0.0
 0001909,-0.00001459,-0.00000646,-0.00000406,-0.00000386,-0.00029968,0.
 00034113,-0.00006111,0.00346406,0.00082737,0.00367396,-0.00059727,0.00
 165859,-0.00066775,-0.00030403,0.00019143,-0.00004071,0.04317736,-0.12
 713467,-0.02302470,0.01997930,-0.02587955,-0.01096869,-0.00044524,-0.0
 0127312,-0.00188597,-0.01118864,0.37577713,-0.00015828,-0.00023421,0.0
 0006727,0.00027389,-0.00019593,-0.00066174,0.00045166,0.00053989,0.000
 37783,-0.00039850,-0.00024548,0.00022843,-0.00001778,-0.00001126,-0.00
 000744,0.00002370,0.00006989,0.00010567,0.00001426,-0.00000442,0.00004
 973,0.00005887,0.00009606,0.00009678,-0.00000553,-0.00000930,-0.000002
 39,-0.00002081,-0.00003771,-0.00002096,-0.00002543,-0.00003344,-0.0000
 1708,0.00000310,-0.00023911,-0.00021558,-0.00838249,0.01457848,0.00437
 174,-0.00414811,0.00022769,-0.00131196,-0.00045235,0.00076067,0.001222
 74,0.02222498,-0.02744782,-0.09045359,-0.00412703,0.00456993,0.0016498
 5,0.02031216,-0.02571227,-0.00823301,0.04204021,0.04170316,0.56906196,
 -0.00008230,-0.00007761,0.00000302,0.00010200,-0.00002507,-0.00019412,
 0.00019137,0.00023184,0.00012973,-0.00017438,-0.00013275,0.00011253,-0
 .00000558,-0.00000841,-0.00000428,0.00000778,-0.00000409,-0.00000752,0
 .00000083,-0.00000233,0.00002032,0.00003600,0.00004185,0.00003835,-0.0
 0000402,-0.00000515,-0.00000247,-0.00000901,-0.00001812,-0.00000705,-0
 .00001052,-0.00001411,-0.00000647,0.00009570,-0.00007879,-0.00006021,-
 0.00021756,0.00338157,0.00195188,-0.00099711,-0.00000366,-0.00046994,0
 .00019833,-0.00011882,0.00011877,-0.01844693,-0.00233331,-0.00821635,0
 .00124784,-0.00020040,-0.00027268,0.00041734,-0.00048396,0.00025225,-0
 .26110680,-0.04495575,-0.10093862,0.28071464,0.00012226,0.00013202,0.0
 0004126,-0.00010238,0.00000569,0.00022095,-0.00004256,-0.00035876,-0.0
 0013389,0.00019115,0.00024656,-0.00022455,0.00000784,0.00001279,0.0000
 0511,-0.00000181,0.00000097,0.00001120,0.00001045,-0.00000225,0.000004
 11,-0.00004022,-0.00001902,-0.00004739,0.00000491,0.00000389,0.0000049
 7,0.00001887,0.00002153,0.00000931,0.00000864,0.00001215,0.00000733,0.
 00034481,0.00002979,0.00022086,0.00236661,-0.00335993,-0.00231170,0.00
 116699,-0.00026850,0.00044182,-0.00028819,0.00008405,-0.00018755,0.022
 76239,0.00235237,0.01051295,0.00007634,0.00124231,0.00060216,-0.000524
 26,0.00064407,-0.00024873,-0.04640552,-0.05155664,-0.02085428,0.044973
 99,0.06391299,0.00002424,0.00001206,-0.00000522,-0.00005760,0.00000560
 ,0.00007336,-0.00003725,-0.00004149,-0.00005248,0.00003341,0.00003314,
 -0.00001470,0.00000279,-0.00000045,0.00000217,-0.00000735,0.00000123,-
 0.00000113,0.00000095,0.00000416,-0.00000787,-0.00000902,-0.00001269,-
 0.00001054,0.00000176,0.00000165,0.00000007,0.00000158,0.00000469,0.00
 000141,0.00000236,0.00000347,0.00000150,-0.00018932,0.00000830,0.00002
 523,0.00077728,-0.00133015,-0.00002583,0.00026713,-0.00009400,0.000336
 99,0.00010877,-0.00001174,0.00024848,0.01022768,0.00129690,0.00397932,
 -0.00041310,0.00046511,0.00036424,-0.00024558,0.00061326,0.00045375,-0
 .10025321,-0.02107799,-0.09391266,0.10833321,0.02269037,0.09639766,0.0
 0000391,0.00001581,-0.00002318,0.00003139,0.00004295,0.00003565,-0.000
 01420,0.00001334,-0.00001738,0.00001366,-0.00001904,-0.00001783,0.0000
 0141,0.00000075,0.00000071,-0.00000083,-0.00002003,-0.00003488,0.00000
 106,-0.00000009,-0.00000106,0.00000159,-0.00000448,-0.00000203,-0.0000
 0032,0.00000032,-0.00000116,0.00000055,0.00000113,0.00000074,0.0000004
 6,0.00000055,-0.00000016,-0.00006282,-0.00006962,-0.00002857,0.0010980
 3,-0.00095598,0.00122994,0.00029417,-0.00003326,-0.00007281,-0.0000120
 3,-0.00011910,-0.00051657,-0.00353008,0.00103834,0.02119411,0.00053740
 ,-0.00038313,-0.00058238,-0.00190554,0.00322161,0.00126370,-0.04794402
 ,0.00285062,0.02655592,0.00469696,0.00071491,-0.02750349,0.04956671,0.
 00003403,0.00004198,0.00001822,-0.00005981,-0.00005775,-0.00001450,0.0
 0001586,-0.00008901,-0.00002878,0.00004996,0.00007165,-0.00004085,0.00
 000468,0.00000185,0.00000147,0.00000343,0.00002549,0.00004201,0.000015
 13,-0.00000123,-0.00000416,-0.00001733,-0.00001136,-0.00001189,0.00000
 236,0.00000174,0.00000127,0.00000442,0.00000767,0.00000225,0.00000265,
 0.00000370,0.00000121,0.00008173,0.00005211,0.00005532,-0.00125055,0.0
 0086577,-0.00026200,-0.00019722,-0.00003206,0.00007882,0.00007511,0.00
 016106,0.00052955,0.00344413,-0.00084523,-0.02466778,-0.00063115,0.000
 73534,0.00037274,0.00351977,-0.00327094,-0.00073400,0.00123435,-0.0450
 4251,-0.00656491,0.00118119,-0.00009393,-0.00656825,-0.00353992,0.0521
 2930,0.00001680,-0.00000586,0.00000520,-0.00009502,-0.00003986,0.00002
 979,0.00001659,-0.00006861,-0.00004263,0.00001047,0.00004978,-0.000013
 53,0.00000429,-0.00000338,0.00000260,-0.00000486,0.00001571,0.00000175
 ,-0.00000007,0.00000140,0.00000433,-0.00000860,-0.00000502,-0.00000806
 ,0.00000073,0.00000104,0.00000128,0.00000338,0.00000368,0.00000143,0.0
 0000265,0.00000267,0.00000149,0.00001261,0.00010019,0.00000051,-0.0005
 8457,0.00028459,0.00099289,-0.00004204,0.00000959,0.00019500,0.0006341
 0,-0.00006242,0.00020122,0.00109179,-0.00060859,-0.00727085,-0.0000486
 2,-0.00029409,0.00030735,0.00056398,-0.00116361,0.00090273,0.02788214,
 -0.00728349,-0.31234184,0.00143202,0.00008223,-0.01061473,-0.03097068,
 0.00916833,0.33509107,-0.00019067,0.00004315,-0.00067637,-0.00056691,-
 0.00003670,0.00158991,-0.00338076,-0.00080052,-0.00150136,0.00064636,0
 .00000580,0.00065958,0.00000536,-0.00001709,0.00002066,0.00007599,0.00
 000662,-0.00006718,0.00009046,0.00002169,-0.00043618,-0.00028286,-0.00
 054652,-0.00027181,0.00003669,0.00006244,0.00001075,0.00004371,0.00011
 334,0.00007153,0.00011915,0.00012561,0.00004824,0.00167490,-0.00109617
 ,0.00066542,0.00047490,0.00436845,-0.00067433,-0.00084387,-0.00041375,
 -0.00022818,-0.00016571,-0.00014594,-0.00018992,0.00859496,0.01530407,
 -0.00810774,-0.00249877,0.00338595,0.00172353,-0.00003328,0.00014980,0
 .00092202,-0.06077688,-0.01200055,0.00443685,-0.00995134,-0.02388515,0
 .00799778,-0.00336348,-0.00196659,0.00026376,0.71619566,-0.00070420,-0
 .00053723,-0.00046026,0.00075443,0.00047689,-0.00158831,0.00088113,0.0
 0193977,0.00079635,-0.00061195,-0.00124512,0.00124276,-0.00005316,-0.0
 0004551,-0.00003470,0.00003448,-0.00008610,-0.00008190,0.00013010,-0.0
 0013063,-0.00024951,0.00010168,0.00008868,0.00016056,-0.00001978,-0.00
 001610,-0.00002212,-0.00006376,-0.00008257,-0.00002672,-0.00003289,-0.
 00005086,-0.00003385,0.00038491,-0.00156063,-0.00017153,0.00206039,0.0
 0231438,0.00218951,-0.00201815,0.00011839,-0.00057718,-0.00004950,-0.0
 0043415,-0.00009010,0.00653201,-0.02249096,-0.00202429,-0.00050107,0.0
 0372822,0.00011300,-0.00181917,0.00055245,0.00137019,-0.01960863,-0.12
 556417,0.02300771,-0.00179451,-0.00607146,0.00214157,-0.00127710,0.001
 88069,-0.00224508,-0.03102716,0.52523167,-0.00048263,0.00089259,-0.000
 60242,-0.00064818,0.00043527,-0.00017673,-0.00189763,0.00018035,-0.000
 83146,0.00111469,-0.00056117,0.00061530,0.00007239,-0.00004807,-0.0000
 1001,0.00008616,-0.00013751,-0.00008657,0.00015273,-0.00011394,-0.0004
 4516,-0.00024558,-0.00038520,-0.00020895,0.00000305,0.00003990,-0.0000
 1754,0.00000177,0.00010961,0.00005820,0.00006630,0.00008707,0.00002397
 ,0.00133917,-0.00093335,0.00121866,-0.00011173,0.00093397,-0.00037864,
 0.00049093,-0.00008032,0.00008320,-0.00019945,0.00019484,-0.00019266,-
 0.00819499,-0.00411280,0.00296082,0.00224240,-0.00270360,-0.00153525,0
 .00095865,-0.00195351,-0.00182608,0.00626365,0.02021803,-0.06186907,-0
 .00412164,-0.01291361,0.00155746,0.00819464,0.02619266,-0.01062680,0.0
 1319405,0.05841251,0.70891792,0.00009381,0.00012044,0.00047850,0.00003
 871,-0.00008765,-0.00040872,0.00073557,0.00043311,0.00060485,-0.000377
 36,-0.00006013,-0.00053577,0.00000503,-0.00000148,-0.00001330,-0.00001
 088,-0.00005258,-0.00001922,-0.00009022,0.00004392,0.00031066,0.000188
 68,0.00028191,0.00013833,-0.00001491,-0.00003194,-0.00000845,-0.000016
 99,-0.00007184,-0.00002943,-0.00005829,-0.00006794,-0.00002189,-0.0011
 4029,0.00029198,-0.00046804,0.00049426,-0.00055071,0.00047326,-0.00020
 790,0.00004409,-0.00006413,-0.00004136,-0.00005935,-0.00000604,0.00429
 193,0.00259879,-0.00196488,-0.00139858,0.00133715,0.00031633,-0.000113
 80,-0.00035655,-0.00013563,-0.00721782,-0.00413250,0.00447155,0.002020
 22,0.00147180,0.00050694,0.00023400,0.00093718,-0.00066319,-0.30497514
 ,0.14327162,0.02610609,0.36447197,0.00018460,0.00005564,-0.00003474,-0
 .00011122,-0.00005881,0.00047429,-0.00028688,-0.00058399,-0.00038113,0
 .00027252,0.00036413,-0.00014413,0.00000845,0.00001610,0.00001326,-0.0
 0001187,0.00005213,0.00003948,-0.00001756,0.00002157,-0.00003471,-0.00
 008371,-0.00011157,-0.00008392,0.00001012,0.00001253,0.00000881,0.0000
 2841,0.00004245,0.00001627,0.00002710,0.00003374,0.00001611,0.00044214
 ,0.00047428,0.00022252,-0.00087419,-0.00127479,-0.00076184,0.00088829,
 0.00008413,0.00024701,0.00009365,0.00017162,0.00005941,-0.00683745,-0.
 00512097,0.00625997,0.00248074,-0.00272822,-0.00096980,0.00032544,0.00
 042925,-0.00034767,0.03082295,-0.01086727,-0.00682379,0.00226634,0.001
 45462,-0.00071698,0.00042063,-0.00119857,0.00073483,0.13885086,-0.1687
 4737,-0.01120839,-0.17739469,0.16025543,0.00014218,-0.00019431,0.00010
 698,0.00016044,-0.00010691,0.00011274,0.00017792,0.00000397,0.00014219
 ,-0.00016628,0.00012993,-0.00015880,-0.00001902,0.00001323,0.00000323,
 -0.00001887,0.00004357,0.00001623,-0.00002310,0.00002031,0.00007157,0.
 00003036,0.00005889,0.00002621,-0.00000049,-0.00000453,0.00000306,0.00
 000314,-0.00001796,-0.00000890,-0.00000794,-0.00001363,-0.00000367,-0.
 00020674,0.00013485,-0.00026582,0.00010855,-0.00012055,0.00007326,-0.0
 0006385,-0.00000536,-0.00003942,0.00000327,-0.00004293,-0.00001842,0.0
 0174929,0.00103719,-0.00009394,-0.00043585,0.00046029,0.00034895,-0.00
 014271,0.00030059,0.00029736,-0.00478155,0.00449819,0.00812896,0.00047
 918,0.00086496,-0.00006440,-0.00051915,-0.00253543,0.00119487,0.027306
 63,-0.01193153,-0.07200018,-0.03463498,0.02367325,0.06618713,0.0001809
 1,0.00074130,0.00026131,-0.00108693,0.00051397,-0.00094302,0.00050716,
 -0.00004254,0.00036874,0.00006424,-0.00026077,-0.00028590,0.00004954,-
 0.00002627,-0.00002025,0.00004305,-0.00015838,-0.00006485,-0.00001147,
 -0.00001936,0.00003388,0.00012863,0.00017429,0.00006257,-0.00001796,-0
 .00002588,-0.00001068,-0.00001175,-0.00002651,-0.00000933,-0.00003829,
 -0.00003413,-0.00000998,-0.00053756,0.00032133,0.00042356,-0.00023496,
 -0.00086909,0.00019060,0.00022498,0.00005569,0.00004767,0.00001447,0.0
 0005431,-0.00004572,-0.00084873,-0.00061513,0.00088309,0.00054088,-0.0
 0043003,-0.00051983,0.00021118,-0.00022316,-0.00065718,0.00509512,0.00
 397034,0.01180945,0.00079529,0.00179212,-0.00078362,-0.00006692,-0.003
 76100,0.00061625,-0.10270651,-0.00357309,0.09906980,-0.01612577,0.0120
 4553,0.03774476,0.10459650,0.00010302,-0.00022127,-0.00010661,0.000192
 88,-0.00010739,0.00077714,-0.00034656,-0.00041797,-0.00026490,0.000197
 74,0.00045126,0.00001913,0.00002112,0.00000618,0.00001492,-0.00001466,
 0.00008827,0.00008540,0.00001722,0.00000311,0.00003405,-0.00007177,-0.
 00011760,-0.00006546,0.00001309,0.00001555,0.00001020,0.00003130,0.000
 04905,0.00001148,0.00002687,0.00003208,0.00001266,0.00047841,0.0001343
 7,-0.00024641,-0.00075405,-0.00026114,-0.00036802,0.00033366,-0.000023
 77,0.00008292,0.00014449,0.00007093,0.00006748,-0.00109812,0.00079001,
 0.00055861,0.00023923,-0.00048257,0.00060167,-0.00017657,0.00029203,0.
 00119852,-0.00534146,0.00658921,0.02234390,-0.00019244,0.00017942,0.00
 030300,-0.00217277,-0.00622592,0.00205955,-0.00162887,-0.08260120,-0.0
 0491023,0.01548963,0.01036952,-0.02114394,-0.00595056,0.05789605,0.000
 22785,-0.00037093,0.00028238,0.00036885,-0.00011323,-0.00027326,0.0008
 9818,0.00037155,0.00047671,-0.00044310,-0.00010888,-0.00009914,-0.0000
 5760,0.00001821,0.00000007,0.00001687,0.00004422,0.00005049,-0.0000273
 3,0.00001494,0.00016801,0.00009951,0.00014718,0.00009763,-0.00000287,-
 0.00001789,0.00000396,-0.00001279,-0.00005591,-0.00002926,-0.00003217,
 -0.00004204,-0.00001707,-0.00045685,-0.00006379,-0.00049586,0.00027141
 ,0.00019431,0.00070677,-0.00045506,0.00004290,-0.00011651,0.00008147,-
 0.00010675,0.00005490,0.00177389,-0.00137788,-0.00106974,-0.00090775,0
 .00084074,0.00068154,-0.00080148,0.00033467,0.00093066,0.00550636,-0.0
 1122942,-0.01686699,0.00113822,0.00216933,-0.00075313,0.00245414,0.006
 84544,-0.00019951,0.09722920,0.00146285,-0.37135234,0.01384161,-0.0069
 2248,-0.01088976,-0.12048118,0.01760462,0.43837587,0.00091094,0.000123
 23,0.00137501,0.00001400,-0.00074296,0.00021490,-0.00035116,0.00001118
 ,0.00104380,-0.00170631,0.00188646,-0.00237151,0.00000013,0.00004861,0
 .00001382,-0.00008909,0.00002214,0.00007189,-0.00056533,0.00039981,0.0
 0102231,0.00058193,0.00070183,0.00027648,-0.00001443,-0.00006734,-0.00
 002574,0.00003230,-0.00016640,-0.00004739,-0.00014648,-0.00015137,-0.0
 0003483,-0.00310626,0.00274980,-0.00150141,-0.00130566,-0.00187365,0.0
 0006120,0.00054696,0.00020789,0.00006608,0.00014696,0.00017252,0.00011
 280,-0.00299886,-0.00275851,0.00107632,0.00151442,-0.00118651,-0.00028
 312,0.00029863,-0.00003526,-0.00014348,-0.00536623,0.00051427,-0.01400
 166,0.00048124,-0.00474399,0.00121366,0.00041894,0.00081758,-0.0001339
 1,-0.23822197,-0.09099666,-0.14345465,-0.04078486,-0.00355022,-0.02688
 519,0.00923491,0.00045917,-0.00022936,0.28047527,0.00019130,0.00030090
 ,-0.00052195,-0.00054471,-0.00002457,0.00110553,0.00026075,-0.00233840
 ,-0.00073092,-0.00010544,0.00049132,0.00013344,0.00000021,0.00002803,0
 .00002889,0.00003078,0.00001930,-0.00001016,0.00019429,0.00008285,-0.0
 0025566,-0.00007196,-0.00014745,-0.00011756,0.00003057,0.00001395,0.00
 002400,0.00007356,0.00007674,0.00000972,0.00003485,0.00005788,0.000020
 74,0.00294256,-0.00125058,0.00051965,-0.00006987,0.00069546,-0.0007445
 6,0.00041312,-0.00003296,0.00005288,0.00004303,-0.00001741,-0.00009182
 ,-0.00228736,0.00083864,0.00087640,0.00114404,-0.00089930,-0.00011109,
 0.00046085,-0.00016098,-0.00025238,-0.02356499,0.00184934,-0.01948346,
 -0.00162752,-0.00860474,0.00226921,0.00027358,0.00089015,-0.00073358,-
 0.08887276,-0.12666707,-0.06763511,0.01654572,0.01685443,0.00487787,-0
 .00365300,0.01349177,-0.00968178,0.09815841,0.10445270,0.00024886,0.00
 026749,0.00070041,-0.00044349,-0.00024754,0.00077975,0.00036837,-0.000
 81851,-0.00087870,0.00012550,0.00007179,-0.00049495,0.00002661,0.00001
 165,0.00001045,-0.00004415,0.00004248,0.00002771,-0.00057135,0.0004238
 6,0.00062893,0.00006502,0.00015486,0.00002410,0.00000255,-0.00001138,0
 .00002790,-0.00000516,-0.00002481,-0.00003326,-0.00001321,-0.00002297,
 -0.00000338,0.00033710,0.00036682,-0.00023515,-0.00042770,-0.00041313,
 -0.00050466,0.00018754,0.00002878,0.00009474,0.00003782,0.00014024,0.0
 0015302,-0.00016090,-0.00019659,0.00030198,0.00041421,-0.00035388,0.00
 009910,0.00011650,0.00024645,0.00017687,-0.00254033,0.00610187,0.00055
 337,0.00029184,-0.00096720,0.00202107,-0.00063822,-0.00187675,0.002184
 45,-0.14398684,-0.07135994,-0.19327566,-0.00827443,-0.00333563,0.00683
 059,-0.02768013,-0.01867968,-0.03966642,0.18256397,0.09045171,0.220477
 74\\-0.00001168,-0.00000648,0.00000355,0.00000860,0.00000557,-0.000008
 98,0.00000200,-0.00000623,-0.00000789,-0.00000213,-0.00000734,0.000005
 30,0.00000320,0.00000220,0.,-0.00000598,0.00000210,-0.00000637,0.00000
 506,-0.00001279,0.00000076,0.00000121,-0.00001406,0.00000527,0.0000065
 6,-0.00001312,0.00000810,0.00000784,-0.00000340,0.00000839,0.00000841,
 -0.00001100,0.00000475,0.00000318,0.00000404,0.00000999,-0.00000832,0.
 00000448,-0.00001163,-0.00000650,-0.00000431,-0.00001280,-0.00000155,-
 0.00000872,-0.00000061,-0.00000947,0.00000155,0.00000127,-0.00000622,0
 .00000438,-0.00000825,-0.00000439,0.00000818,-0.00001418,0.00000733,0.
 00002749,-0.00001240,-0.00000573,0.00000588,0.00000077,-0.00000546,-0.
 00000102,0.00000647,0.00000576,0.00000618,-0.00000119,0.00000901,0.000
 00607,0.00000838,-0.00000249,0.00001164,0.00001445,0.00000177,-0.00000
 127,0.00000685\\\@


 I KNOW YOU BELIEVE YOU UNDERSTAND WHAT YOU THINK I SAID,
 BUT I AM NOT SURE YOU REALIZE THAT WHAT YOU HEARD IS NOT WHAT I MEANT.
 Job cpu time:       0 days  3 hours  4 minutes 45.3 seconds.
 Elapsed time:       0 days  0 hours  7 minutes 47.0 seconds.
 File lengths (MBytes):  RWF=    473 Int=      0 D2E=      0 Chk=     23 Scr=      1
 Normal termination of Gaussian 16 at Wed Oct 11 16:28:19 2023.
