 Entering Gaussian System, Link 0=g16
 Initial command:
 /data0/home/software/g16/l1.exe "/data0/home/software/g16/scratch/Gau-2510641.inp" -scrdir="/data0/home/software/g16/scratch/"
 Default is to use a total of  22 processors:
                               22 via shared-memory
                                1 via Linda
 Entering Link 1 = /data0/home/software/g16/l1.exe PID=   2510642.
  
 Copyright (c) 1988,1990,1992,1993,1995,1998,2003,2009,2016,
            Gaussian, Inc.  All Rights Reserved.
  
 This is part of the Gaussian(R) 16 program.  It is based on
 the Gaussian(R) 09 system (copyright 2009, Gaussian, Inc.),
 the Gaussian(R) 03 system (copyright 2003, Gaussian, Inc.),
 the Gaussian(R) 98 system (copyright 1998, Gaussian, Inc.),
 the Gaussian(R) 94 system (copyright 1995, Gaussian, Inc.),
 the Gaussian 92(TM) system (copyright 1992, Gaussian, Inc.),
 the Gaussian 90(TM) system (copyright 1990, Gaussian, Inc.),
 the Gaussian 88(TM) system (copyright 1988, Gaussian, Inc.),
 the Gaussian 86(TM) system (copyright 1986, Carnegie Mellon
 University), and the Gaussian 82(TM) system (copyright 1983,
 Carnegie Mellon University). Gaussian is a federally registered
 trademark of Gaussian, Inc.
  
 This software contains proprietary and confidential information,
 including trade secrets, belonging to Gaussian, Inc.
  
 This software is provided under written license and may be
 used, copied, transmitted, or stored only in accord with that
 written license.
  
 The following legend is applicable only to US Government
 contracts under FAR:
  
                    RESTRICTED RIGHTS LEGEND
  
 Use, reproduction and disclosure by the US Government is
 subject to restrictions as set forth in subparagraphs (a)
 and (c) of the Commercial Computer Software - Restricted
 Rights clause in FAR 52.227-19.
  
 Gaussian, Inc.
 340 Quinnipiac St., Bldg. 40, Wallingford CT 06492
  
  
 ---------------------------------------------------------------
 Warning -- This program may not be used in any manner that
 competes with the business of Gaussian, Inc. or will provide
 assistance to any competitor of Gaussian, Inc.  The licensee
 of this program is prohibited from giving any competitor of
 Gaussian, Inc. access to this program.  By using this program,
 the user acknowledges that Gaussian, Inc. is engaged in the
 business of creating and licensing software in the field of
 computational chemistry and represents and warrants to the
 licensee that it is not a competitor of Gaussian, Inc. and that
 it will not use this program in any manner prohibited above.
 ---------------------------------------------------------------
  

 Cite this work as:
 Gaussian 16, Revision A.03,
 M. J. Frisch, G. W. Trucks, H. B. Schlegel, G. E. Scuseria, 
 M. A. Robb, J. R. Cheeseman, G. Scalmani, V. Barone, 
 G. A. Petersson, H. Nakatsuji, X. Li, M. Caricato, A. V. Marenich, 
 J. Bloino, B. G. Janesko, R. Gomperts, B. Mennucci, H. P. Hratchian, 
 J. V. Ortiz, A. F. Izmaylov, J. L. Sonnenberg, D. Williams-Young, 
 F. Ding, F. Lipparini, F. Egidi, J. Goings, B. Peng, A. Petrone, 
 T. Henderson, D. Ranasinghe, V. G. Zakrzewski, J. Gao, N. Rega, 
 G. Zheng, W. Liang, M. Hada, M. Ehara, K. Toyota, R. Fukuda, 
 J. Hasegawa, M. Ishida, T. Nakajima, Y. Honda, O. Kitao, H. Nakai, 
 T. Vreven, K. Throssell, J. A. Montgomery, Jr., J. E. Peralta, 
 F. Ogliaro, M. J. Bearpark, J. J. Heyd, E. N. Brothers, K. N. Kudin, 
 V. N. Staroverov, T. A. Keith, R. Kobayashi, J. Normand, 
 K. Raghavachari, A. P. Rendell, J. C. Burant, S. S. Iyengar, 
 J. Tomasi, M. Cossi, J. M. Millam, M. Klene, C. Adamo, R. Cammi, 
 J. W. Ochterski, R. L. Martin, K. Morokuma, O. Farkas, 
 J. B. Foresman, and D. J. Fox, Gaussian, Inc., Wallingford CT, 2016.
 
 ******************************************
 Gaussian 16:  ES64L-G16RevA.03 25-Dec-2016
                11-Oct-2023 
 ******************************************
 %mem=50GB
 %nprocshared=24
 Will use up to   24 processors via shared memory.
 ----------------------------------------
 #p M052X/6-31G* scrf=(smd,solvent=water)
 ----------------------------------------
 1/38=1,172=1/1;
 2/12=2,17=6,18=5,40=1/2;
 3/5=1,6=6,7=1,11=2,25=1,30=1,70=32201,72=1,74=-38/1,2,3;
 4//1;
 5/5=2,38=5,53=1/2;
 6/7=2,8=2,9=2,10=2,28=1/1;
 99/5=1,9=1/99;
 Leave Link    1 at Wed Oct 11 16:38:19 2023, MaxMem=  6710886400 cpu:               0.7 elap:               0.0
 (Enter /data0/home/software/g16/l101.exe)
 -------------------
 Title Card Required
 -------------------
 Symbolic Z-matrix:
 Charge =  0 Multiplicity = 1
 C                    -2.46846   0.04321   1.17568 
 C                    -1.57407   1.06141   1.12227 
 C                    -1.7292    0.18973  -0.89715 
 N                    -2.55536  -0.48449  -0.09996 
 H                    -3.04755  -0.34997   1.99233 
 H                    -1.22221   1.73022   1.88692 
 H                    -1.5784    0.00181  -1.94497 
 C                    -3.38346  -1.62034  -0.49705 
 H                    -3.27883  -1.76816  -1.56849 
 H                    -3.05255  -2.51185   0.0324 
 H                    -4.42298  -1.4113   -0.25302 
 N                    -1.12974   1.14103  -0.18391 
 C                    -0.13015   2.08722  -0.69788 
 H                    -0.5482    3.08583  -0.57694 
 H                    -0.02715   1.88802  -1.76311 
 C                     1.21638   2.01697   0.01437 
 H                     1.71635   2.96457  -0.20023 
 H                     1.0691    1.98932   1.09508 
 C                     2.18474   0.9216   -0.41547 
 H                     3.16058   1.11319   0.03071 
 H                     2.30558   0.88915  -1.49912 
 S                     1.79621  -0.77381   0.0811 
 O                     3.07007  -1.51732  -0.08047 
 O                     1.34719  -0.71362   1.49221 
 O                     0.74371  -1.27336  -0.83307 
 
 ITRead=  0  0  0  0  0  0  0  0  0  0  0  0  0  0  0  0  0  0  0  0
 ITRead=  0  0  0  0  0
 MicOpt= -1 -1 -1 -1 -1 -1 -1 -1 -1 -1 -1 -1 -1 -1 -1 -1 -1 -1 -1 -1
 MicOpt= -1 -1 -1 -1 -1
 NAtoms=     25 NQM=       25 NQMF=       0 NMMI=      0 NMMIF=      0
                NMic=       0 NMicF=      0.
                    Isotopes and Nuclear Properties:
 (Nuclear quadrupole moments (NQMom) in fm**2, nuclear magnetic moments (NMagM)
  in nuclear magnetons)

  Atom         1           2           3           4           5           6           7           8           9          10
 IAtWgt=          12          12          12          14           1           1           1          12           1           1
 AtmWgt=  12.0000000  12.0000000  12.0000000  14.0030740   1.0078250   1.0078250   1.0078250  12.0000000   1.0078250   1.0078250
 NucSpn=           0           0           0           2           1           1           1           0           1           1
 AtZEff=  -0.0000000  -0.0000000  -0.0000000  -0.0000000  -0.0000000  -0.0000000  -0.0000000  -0.0000000  -0.0000000  -0.0000000
 NQMom=    0.0000000   0.0000000   0.0000000   2.0440000   0.0000000   0.0000000   0.0000000   0.0000000   0.0000000   0.0000000
 NMagM=    0.0000000   0.0000000   0.0000000   0.4037610   2.7928460   2.7928460   2.7928460   0.0000000   2.7928460   2.7928460
 AtZNuc=   6.0000000   6.0000000   6.0000000   7.0000000   1.0000000   1.0000000   1.0000000   6.0000000   1.0000000   1.0000000

  Atom        11          12          13          14          15          16          17          18          19          20
 IAtWgt=           1          14          12           1           1          12           1           1          12           1
 AtmWgt=   1.0078250  14.0030740  12.0000000   1.0078250   1.0078250  12.0000000   1.0078250   1.0078250  12.0000000   1.0078250
 NucSpn=           1           2           0           1           1           0           1           1           0           1
 AtZEff=  -0.0000000  -0.0000000  -0.0000000  -0.0000000  -0.0000000  -0.0000000  -0.0000000  -0.0000000  -0.0000000  -0.0000000
 NQMom=    0.0000000   2.0440000   0.0000000   0.0000000   0.0000000   0.0000000   0.0000000   0.0000000   0.0000000   0.0000000
 NMagM=    2.7928460   0.4037610   0.0000000   2.7928460   2.7928460   0.0000000   2.7928460   2.7928460   0.0000000   2.7928460
 AtZNuc=   1.0000000   7.0000000   6.0000000   1.0000000   1.0000000   6.0000000   1.0000000   1.0000000   6.0000000   1.0000000

  Atom        21          22          23          24          25
 IAtWgt=           1          32          16          16          16
 AtmWgt=   1.0078250  31.9720718  15.9949146  15.9949146  15.9949146
 NucSpn=           1           0           0           0           0
 AtZEff=  -0.0000000  -0.0000000  -0.0000000  -0.0000000  -0.0000000
 NQMom=    0.0000000   0.0000000   0.0000000   0.0000000   0.0000000
 NMagM=    2.7928460   0.0000000   0.0000000   0.0000000   0.0000000
 AtZNuc=   1.0000000  16.0000000   8.0000000   8.0000000   8.0000000
 Leave Link  101 at Wed Oct 11 16:38:19 2023, MaxMem=  6710886400 cpu:               1.9 elap:               0.1
 (Enter /data0/home/software/g16/l202.exe)
                          Input orientation:                          
 ---------------------------------------------------------------------
 Center     Atomic      Atomic             Coordinates (Angstroms)
 Number     Number       Type             X           Y           Z
 ---------------------------------------------------------------------
      1          6           0       -2.468455    0.043213    1.175681
      2          6           0       -1.574068    1.061409    1.122269
      3          6           0       -1.729195    0.189727   -0.897154
      4          7           0       -2.555355   -0.484491   -0.099955
      5          1           0       -3.047546   -0.349970    1.992327
      6          1           0       -1.222211    1.730217    1.886922
      7          1           0       -1.578403    0.001807   -1.944967
      8          6           0       -3.383458   -1.620344   -0.497052
      9          1           0       -3.278835   -1.768163   -1.568487
     10          1           0       -3.052546   -2.511847    0.032399
     11          1           0       -4.422976   -1.411298   -0.253016
     12          7           0       -1.129739    1.141029   -0.183913
     13          6           0       -0.130145    2.087219   -0.697881
     14          1           0       -0.548199    3.085829   -0.576935
     15          1           0       -0.027149    1.888022   -1.763114
     16          6           0        1.216377    2.016968    0.014367
     17          1           0        1.716346    2.964570   -0.200231
     18          1           0        1.069101    1.989318    1.095082
     19          6           0        2.184742    0.921596   -0.415468
     20          1           0        3.160579    1.113193    0.030710
     21          1           0        2.305583    0.889148   -1.499116
     22         16           0        1.796209   -0.773810    0.081099
     23          8           0        3.070071   -1.517316   -0.080466
     24          8           0        1.347189   -0.713616    1.492208
     25          8           0        0.743714   -1.273360   -0.833073
 ---------------------------------------------------------------------
                    Distance matrix (angstroms):
                    1          2          3          4          5
     1  C    0.000000
     2  C    1.356283   0.000000
     3  C    2.205588   2.204986   0.000000
     4  N    1.383210   2.201491   1.331404   0.000000
     5  H    1.075570   2.218136   3.221556   2.153600   0.000000
     6  H    2.214717   1.075082   3.221990   3.260350   2.769501
     7  H    3.245358   3.245106   1.075158   2.143593   4.217157
     8  C    2.530353   3.617719   2.484557   1.460686   2.814906
     9  H    3.386481   4.260619   2.585615   2.080342   3.839813
    10  H    2.859473   4.017695   3.148623   2.091623   2.918057
    11  H    2.824346   4.015217   3.199164   2.090552   2.838977
    12  N    2.201331   1.381984   1.331554   2.163734   3.261454
    13  C    3.627105   2.539714   2.489407   3.585087   4.657074
    14  H    4.002069   2.835133   3.143994   4.123514   4.965134
    15  H    4.242618   3.376638   2.555593   3.845353   5.313637
    16  C    4.338473   3.150734   3.584142   4.527287   5.262676
    17  H    5.285832   4.024656   4.478527   5.491221   6.203882
    18  H    4.038332   2.801445   3.877885   4.548024   4.819139
    19  C    4.995553   4.063599   4.010805   4.954306   5.898406
    20  H    5.843102   4.859122   5.061977   5.936461   6.673051
    21  H    5.537290   4.685406   4.138959   5.241493   6.510113
    22  S    4.478057   3.976284   3.783366   4.364928   5.224404
    23  O    5.889688   5.446505   5.158869   5.719486   6.563871
    24  O    3.902835   3.438213   3.998652   4.221058   4.438024
    25  O    4.010796   3.827091   2.874023   3.470394   4.817591
                    6          7          8          9         10
     6  H    0.000000
     7  H    4.218726   0.000000
     8  C    4.645490   2.825961   0.000000
     9  H    5.329936   2.483143   1.086632   0.000000
    10  H    4.978402   3.521581   1.088393   1.779637   0.000000
    11  H    4.969240   3.598772   1.088049   1.779572   1.780659
    12  N    2.155006   2.144863   3.578056   3.872862   4.133701
    13  C    2.828651   2.828713   4.936639   5.053333   5.497740
    14  H    2.891810   3.527609   5.494828   5.656924   6.162550
    15  H    3.843935   2.448932   5.017605   4.896839   5.633448
    16  C    3.087944   3.963667   5.886431   6.086015   6.223680
    17  H    3.809849   4.762084   6.864222   7.015890   7.265507
    18  H    2.438084   4.494594   5.948935   6.333862   6.194978
    19  C    4.190727   4.164930   6.121517   6.197978   6.278400
    20  H    4.799488   5.253230   7.111623   7.233650   7.193319
    21  H    4.961651   4.008928   6.298164   6.184807   6.528541
    22  S    4.317639   4.011799   5.280135   5.428254   5.151075
    23  O    5.730687   5.233776   6.467781   6.525775   6.203891
    24  O    3.567903   4.570021   5.211366   5.646240   4.972157
    25  O    4.503855   2.873080   4.155341   4.119049   4.085888
                   11         12         13         14         15
    11  H    0.000000
    12  N    4.167080   0.000000
    13  C    5.555711   1.469227   0.000000
    14  H    5.944996   2.067584   1.089320   0.000000
    15  H    5.699930   2.065812   1.088581   1.764442   0.000000
    16  C    6.605059   2.512139   1.524911   2.146120   2.173114
    17  H    7.539382   3.380202   2.104027   2.298864   2.577079
    18  H    6.598823   2.681477   2.159280   2.571699   3.062892
    19  C    7.009331   3.329798   2.607132   3.489834   2.764524
    20  H    7.997741   4.295773   3.508338   4.244474   3.738954
    21  H    7.219302   3.687091   2.830216   3.717512   2.551290
    22  S    6.260694   3.506852   3.535977   4.563559   3.716330
    23  O    7.495783   4.971509   4.859553   5.875994   4.901061
    24  O    6.068556   3.519128   3.850154   4.723307   4.387989
    25  O    5.200979   3.124181   3.474967   4.553809   3.384308
                   16         17         18         19         20
    16  C    0.000000
    17  H    1.092690   0.000000
    18  H    1.091054   1.745817   0.000000
    19  C    1.523919   2.107004   2.160196   0.000000
    20  H    2.144061   2.359394   2.504948   1.089973   0.000000
    21  H    2.179215   2.518269   3.077194   1.090848   1.766800
    22  S    2.851158   3.749801   3.031786   1.808850   2.329125
    23  O    3.992034   4.683398   4.205030   2.616166   2.634413
    24  O    3.107606   4.065671   2.746069   2.648517   2.959998
    25  O    3.430426   4.393922   3.803778   2.658719   3.504710
                   21         22         23         24         25
    21  H    0.000000
    22  S    2.349887   0.000000
    23  O    2.896218   1.483789   0.000000
    24  O    3.526385   1.482050   2.467298   0.000000
    25  O    2.749452   1.480880   2.457208   2.466663   0.000000
 Stoichiometry    C7H12N2O3S
 Framework group  C1[X(C7H12N2O3S)]
 Deg. of freedom    69
 Full point group                 C1      NOp   1
 Largest Abelian subgroup         C1      NOp   1
 Largest concise Abelian subgroup C1      NOp   1
                         Standard orientation:                         
 ---------------------------------------------------------------------
 Center     Atomic      Atomic             Coordinates (Angstroms)
 Number     Number       Type             X           Y           Z
 ---------------------------------------------------------------------
      1          6           0       -2.468455    0.043213    1.175681
      2          6           0       -1.574068    1.061409    1.122269
      3          6           0       -1.729195    0.189727   -0.897154
      4          7           0       -2.555355   -0.484491   -0.099955
      5          1           0       -3.047546   -0.349970    1.992327
      6          1           0       -1.222211    1.730217    1.886922
      7          1           0       -1.578403    0.001807   -1.944967
      8          6           0       -3.383458   -1.620344   -0.497052
      9          1           0       -3.278835   -1.768163   -1.568487
     10          1           0       -3.052546   -2.511847    0.032399
     11          1           0       -4.422976   -1.411298   -0.253016
     12          7           0       -1.129739    1.141029   -0.183913
     13          6           0       -0.130145    2.087219   -0.697881
     14          1           0       -0.548199    3.085829   -0.576935
     15          1           0       -0.027149    1.888022   -1.763114
     16          6           0        1.216377    2.016968    0.014367
     17          1           0        1.716346    2.964570   -0.200231
     18          1           0        1.069101    1.989318    1.095082
     19          6           0        2.184742    0.921596   -0.415468
     20          1           0        3.160579    1.113193    0.030710
     21          1           0        2.305583    0.889148   -1.499116
     22         16           0        1.796209   -0.773810    0.081099
     23          8           0        3.070071   -1.517316   -0.080466
     24          8           0        1.347189   -0.713616    1.492208
     25          8           0        0.743714   -1.273360   -0.833073
 ---------------------------------------------------------------------
 Rotational constants (GHZ):           1.1754785           0.5333007           0.4448643
 Leave Link  202 at Wed Oct 11 16:38:19 2023, MaxMem=  6710886400 cpu:               0.1 elap:               0.0
 (Enter /data0/home/software/g16/l301.exe)
 Standard basis: 6-31G(d) (6D, 7F)
 Ernie: Thresh=  0.10000D-02 Tol=  0.10000D-05 Strict=F.
 There are   223 symmetry adapted cartesian basis functions of A   symmetry.
 There are   223 symmetry adapted basis functions of A   symmetry.
   223 basis functions,   436 primitive gaussians,   223 cartesian basis functions
    54 alpha electrons       54 beta electrons
       nuclear repulsion energy      1012.4274418776 Hartrees.
 IExCor= 3428 DFT=T Ex+Corr=M052X ExCW=0 ScaHFX=  0.560000
 ScaDFX=  0.440000  0.440000  1.000000  1.000000 ScalE2=  1.000000  1.000000
 IRadAn=      5 IRanWt=     -1 IRanGd=            0 ICorTp=0 IEmpDi=  4
 NAtoms=   25 NActive=   25 NUniq=   25 SFac= 1.00D+00 NAtFMM=   60 NAOKFM=F Big=F
 Integral buffers will be    131072 words long.
 Raffenetti 2 integral format.
 Two-electron integral symmetry is turned on.
 ------------------------------------------------------------------------------
 Polarizable Continuum Model (PCM)
 =================================
 Model                : PCM.
 Atomic radii         : SMD-Coulomb.
 Polarization charges : Total charges.
 Charge compensation  : None.
 Solution method      : On-the-fly selection.
 Cavity type          : VdW (van der Waals Surface) (Alpha=1.000).
 Cavity algorithm     : GePol (No added spheres)
                        Default sphere list used, NSphG=   25.
                        Lebedev-Laikov grids with approx.  5.0 points / Ang**2.
                        Smoothing algorithm: York/Karplus (Gamma=1.0000).
                        Polarization charges: spherical gaussians, with
                                              point-specific exponents (IZeta= 3).
                        Self-potential: point-specific (ISelfS= 7).
                        Self-field    : sphere-specific E.n sum rule (ISelfD= 2).
 Solvent              : Water, Eps=  78.355300 Eps(inf)=   1.777849
 ------------------------------------------------------------------------------
 GePol: Number of generator spheres                  =      25
 GePol: Total number of spheres                      =      25
 GePol: Number of exposed spheres                    =      25 (100.00%)
 GePol: Number of points                             =    1799
 GePol: Average weight of points                     =       0.12
 GePol: Minimum weight of points                     =   0.15D-08
 GePol: Maximum weight of points                     =    0.21991
 GePol: Number of points with low weight             =     102
 GePol: Fraction of low-weight points (<1% of avg)   =       5.67%
 GePol: Cavity surface area                          =    214.174 Ang**2
 GePol: Cavity volume                                =    197.723 Ang**3
 ------------------------------------------------------------------------------
 Atomic radii for non-electrostatic terms: SMD-CDS.
 ------------------------------------------------------------------------------
 PCM non-electrostatic energy =         0.0069301338 Hartrees.
 Nuclear repulsion after PCM non-electrostatic terms =     1012.4343720114 Hartrees.
 Leave Link  301 at Wed Oct 11 16:38:19 2023, MaxMem=  6710886400 cpu:               1.8 elap:               0.1
 (Enter /data0/home/software/g16/l302.exe)
 NPDir=0 NMtPBC=     1 NCelOv=     1 NCel=       1 NClECP=     1 NCelD=      1
         NCelK=      1 NCelE2=     1 NClLst=     1 CellRange=     0.0.
 One-electron integrals computed using PRISM.
 One-electron integral symmetry used in STVInt
 NBasis=   223 RedAO= T EigKep=  1.30D-03  NBF=   223
 NBsUse=   223 1.00D-06 EigRej= -1.00D+00 NBFU=   223
 Precomputing XC quadrature grid using
 IXCGrd= 4 IRadAn=           5 IRanWt=          -1 IRanGd=           0 AccXCQ= 0.00D+00.
 Generated NRdTot=       0 NPtTot=           0 NUsed=           0 NTot=          32
 NSgBfM=   222   221   222   222   222 MxSgAt=    25 MxSgA2=    25.
 Leave Link  302 at Wed Oct 11 16:38:19 2023, MaxMem=  6710886400 cpu:               4.7 elap:               0.2
 (Enter /data0/home/software/g16/l303.exe)
 DipDrv:  MaxL=1.
 Leave Link  303 at Wed Oct 11 16:38:19 2023, MaxMem=  6710886400 cpu:               0.6 elap:               0.0
 (Enter /data0/home/software/g16/l401.exe)
 ExpMin= 1.17D-01 ExpMax= 2.19D+04 ExpMxC= 3.30D+03 IAcc=3 IRadAn=         5 AccDes= 0.00D+00
 Harris functional with IExCor= 1009 and IRadAn=       5 diagonalized for initial guess.
 HarFok:  IExCor= 1009 AccDes= 0.00D+00 IRadAn=         5 IDoV= 1 UseB2=F ITyADJ=14
 ICtDFT=  3500011 ScaDFX=  1.000000  1.000000  1.000000  1.000000
 FoFCou: FMM=F IPFlag=           0 FMFlag=      100000 FMFlg1=           0
         NFxFlg=           0 DoJE=T BraDBF=F KetDBF=T FulRan=T
         wScrn=  0.000000 ICntrl=       500 IOpCl=  0 I1Cent=   200000004 NGrid=           0
         NMat0=    1 NMatS0=      1 NMatT0=    0 NMatD0=    1 NMtDS0=    0 NMtDT0=    0
 Petite list used in FoFCou.
 Harris En= -1006.58523647152    
 JPrj=0 DoOrth=F DoCkMO=F.
 Leave Link  401 at Wed Oct 11 16:38:20 2023, MaxMem=  6710886400 cpu:              14.3 elap:               0.6
 (Enter /data0/home/software/g16/l502.exe)
 Integral symmetry usage will be decided dynamically.
 Closed shell SCF:
 Using DIIS extrapolation, IDIIS=  1040.
 NGot=  6710886400 LenX=  6710779005 LenY=  6710728835
 Requested convergence on RMS density matrix=1.00D-08 within 128 cycles.
 Requested convergence on MAX density matrix=1.00D-06.
 Requested convergence on             energy=1.00D-06.
 No special actions if energy rises.
 Fock matrices will be formed incrementally for  20 cycles.

 Cycle   1  Pass 1  IDiag  1:
 FoFJK:  IHMeth= 1 ICntrl=       0 DoSepK=F KAlg= 0 I1Cent=           0 FoldK=F
 IRaf= 910000000 NMat=       1 IRICut=       1 DoRegI=T DoRafI=F ISym2E= 0 IDoP0=0 IntGTp=1.
 FoFCou: FMM=F IPFlag=           0 FMFlag=      100000 FMFlg1=           0
         NFxFlg=           0 DoJE=F BraDBF=F KetDBF=F FulRan=T
         wScrn=  0.000000 ICntrl=         0 IOpCl=  0 I1Cent=           0 NGrid=           0
         NMat0=    1 NMatS0=      1 NMatT0=    0 NMatD0=    1 NMtDS0=    0 NMtDT0=    0
 Symmetry not used in FoFCou.
 Inv3:  Mode=1 IEnd=     9709203.
 Iteration    1 A*A^-1 deviation from unit magnitude is 8.33D-15 for    234.
 Iteration    1 A*A^-1 deviation from orthogonality  is 4.20D-15 for   1773    555.
 Iteration    1 A^-1*A deviation from unit magnitude is 9.21D-15 for    234.
 Iteration    1 A^-1*A deviation from orthogonality  is 4.81D-15 for   1779   1681.
 E= -1006.83409351453    
 DIIS: error= 3.34D-02 at cycle   1 NSaved=   1.
 NSaved= 1 IEnMin= 1 EnMin= -1006.83409351453     IErMin= 1 ErrMin= 3.34D-02
 ErrMax= 3.34D-02  0.00D+00 EMaxC= 1.00D-01 BMatC= 5.18D-01 BMatP= 5.18D-01
 IDIUse=3 WtCom= 6.66D-01 WtEn= 3.34D-01
 Coeff-Com:  0.100D+01
 Coeff-En:   0.100D+01
 Coeff:      0.100D+01
 Gap=     0.325 Goal=   None    Shift=    0.000
 GapD=    0.325 DampG=1.000 DampE=0.500 DampFc=0.5000 IDamp=-1.
 Damping current iteration by 5.00D-01
 RMSDP=5.37D-03 MaxDP=3.45D-01              OVMax= 1.48D-01

 Cycle   2  Pass 1  IDiag  1:
 RMSU=  2.69D-03    CP:  9.99D-01
 E= -1007.01892578846     Delta-E=       -0.184832273935 Rises=F Damp=T
 DIIS: error= 8.54D-03 at cycle   2 NSaved=   2.
 NSaved= 2 IEnMin= 2 EnMin= -1007.01892578846     IErMin= 2 ErrMin= 8.54D-03
 ErrMax= 8.54D-03  0.00D+00 EMaxC= 1.00D-01 BMatC= 2.82D-02 BMatP= 5.18D-01
 IDIUse=3 WtCom= 9.15D-01 WtEn= 8.54D-02
 Coeff-Com:  0.798D-02 0.992D+00
 Coeff-En:   0.254D-02 0.997D+00
 Coeff:      0.751D-02 0.992D+00
 Gap=     0.366 Goal=   None    Shift=    0.000
 RMSDP=1.04D-03 MaxDP=4.55D-02 DE=-1.85D-01 OVMax= 8.21D-02

 Cycle   3  Pass 1  IDiag  1:
 RMSU=  1.04D-03    CP:  9.97D-01  1.01D+00
 E= -1007.21499643421     Delta-E=       -0.196070645753 Rises=F Damp=F
 DIIS: error= 3.89D-03 at cycle   3 NSaved=   3.
 NSaved= 3 IEnMin= 3 EnMin= -1007.21499643421     IErMin= 3 ErrMin= 3.89D-03
 ErrMax= 3.89D-03  0.00D+00 EMaxC= 1.00D-01 BMatC= 7.13D-03 BMatP= 2.82D-02
 IDIUse=3 WtCom= 9.61D-01 WtEn= 3.89D-02
 Coeff-Com: -0.431D-01 0.291D+00 0.752D+00
 Coeff-En:   0.000D+00 0.000D+00 0.100D+01
 Coeff:     -0.414D-01 0.279D+00 0.762D+00
 Gap=     0.353 Goal=   None    Shift=    0.000
 RMSDP=4.48D-04 MaxDP=2.69D-02 DE=-1.96D-01 OVMax= 1.93D-02

 Cycle   4  Pass 1  IDiag  1:
 RMSU=  3.19D-04    CP:  9.99D-01  1.07D+00  7.45D-01
 E= -1007.21983959583     Delta-E=       -0.004843161620 Rises=F Damp=F
 DIIS: error= 1.38D-03 at cycle   4 NSaved=   4.
 NSaved= 4 IEnMin= 4 EnMin= -1007.21983959583     IErMin= 4 ErrMin= 1.38D-03
 ErrMax= 1.38D-03  0.00D+00 EMaxC= 1.00D-01 BMatC= 1.17D-03 BMatP= 7.13D-03
 IDIUse=3 WtCom= 9.86D-01 WtEn= 1.38D-02
 Coeff-Com: -0.137D-01 0.328D-01 0.317D+00 0.664D+00
 Coeff-En:   0.000D+00 0.000D+00 0.764D-01 0.924D+00
 Coeff:     -0.135D-01 0.323D-01 0.313D+00 0.668D+00
 Gap=     0.353 Goal=   None    Shift=    0.000
 RMSDP=1.51D-04 MaxDP=6.53D-03 DE=-4.84D-03 OVMax= 9.00D-03

 Cycle   5  Pass 1  IDiag  1:
 RMSU=  7.08D-05    CP:  9.99D-01  1.07D+00  8.29D-01  6.86D-01
 E= -1007.22089911217     Delta-E=       -0.001059516336 Rises=F Damp=F
 DIIS: error= 2.06D-04 at cycle   5 NSaved=   5.
 NSaved= 5 IEnMin= 5 EnMin= -1007.22089911217     IErMin= 5 ErrMin= 2.06D-04
 ErrMax= 2.06D-04  0.00D+00 EMaxC= 1.00D-01 BMatC= 3.58D-05 BMatP= 1.17D-03
 IDIUse=3 WtCom= 9.98D-01 WtEn= 2.06D-03
 Coeff-Com: -0.353D-02 0.390D-02 0.885D-01 0.246D+00 0.665D+00
 Coeff-En:   0.000D+00 0.000D+00 0.000D+00 0.000D+00 0.100D+01
 Coeff:     -0.352D-02 0.389D-02 0.883D-01 0.246D+00 0.666D+00
 Gap=     0.353 Goal=   None    Shift=    0.000
 RMSDP=2.91D-05 MaxDP=1.16D-03 DE=-1.06D-03 OVMax= 1.11D-03

 Cycle   6  Pass 1  IDiag  1:
 RMSU=  2.08D-05    CP:  9.99D-01  1.07D+00  8.31D-01  7.21D-01  7.62D-01
 E= -1007.22093089015     Delta-E=       -0.000031777985 Rises=F Damp=F
 DIIS: error= 8.79D-05 at cycle   6 NSaved=   6.
 NSaved= 6 IEnMin= 6 EnMin= -1007.22093089015     IErMin= 6 ErrMin= 8.79D-05
 ErrMax= 8.79D-05  0.00D+00 EMaxC= 1.00D-01 BMatC= 2.61D-06 BMatP= 3.58D-05
 IDIUse=1 WtCom= 1.00D+00 WtEn= 0.00D+00
 Coeff-Com: -0.129D-03-0.135D-02 0.201D-02 0.277D-01 0.219D+00 0.753D+00
 Coeff:     -0.129D-03-0.135D-02 0.201D-02 0.277D-01 0.219D+00 0.753D+00
 Gap=     0.352 Goal=   None    Shift=    0.000
 RMSDP=8.96D-06 MaxDP=3.56D-04 DE=-3.18D-05 OVMax= 5.32D-04

 Cycle   7  Pass 1  IDiag  1:
 RMSU=  6.86D-06    CP:  9.99D-01  1.07D+00  8.32D-01  7.28D-01  8.29D-01
                    CP:  9.25D-01
 E= -1007.22093312907     Delta-E=       -0.000002238916 Rises=F Damp=F
 DIIS: error= 4.63D-05 at cycle   7 NSaved=   7.
 NSaved= 7 IEnMin= 7 EnMin= -1007.22093312907     IErMin= 7 ErrMin= 4.63D-05
 ErrMax= 4.63D-05  0.00D+00 EMaxC= 1.00D-01 BMatC= 6.29D-07 BMatP= 2.61D-06
 IDIUse=1 WtCom= 1.00D+00 WtEn= 0.00D+00
 Coeff-Com:  0.301D-03-0.111D-02-0.995D-02-0.156D-01 0.269D-01 0.369D+00
 Coeff-Com:  0.630D+00
 Coeff:      0.301D-03-0.111D-02-0.995D-02-0.156D-01 0.269D-01 0.369D+00
 Coeff:      0.630D+00
 Gap=     0.352 Goal=   None    Shift=    0.000
 RMSDP=3.68D-06 MaxDP=1.31D-04 DE=-2.24D-06 OVMax= 2.27D-04

 Cycle   8  Pass 1  IDiag  1:
 RMSU=  2.44D-06    CP:  9.99D-01  1.07D+00  8.33D-01  7.30D-01  8.48D-01
                    CP:  1.00D+00  7.73D-01
 E= -1007.22093370437     Delta-E=       -0.000000575295 Rises=F Damp=F
 DIIS: error= 1.04D-05 at cycle   8 NSaved=   8.
 NSaved= 8 IEnMin= 8 EnMin= -1007.22093370437     IErMin= 8 ErrMin= 1.04D-05
 ErrMax= 1.04D-05  0.00D+00 EMaxC= 1.00D-01 BMatC= 3.68D-08 BMatP= 6.29D-07
 IDIUse=1 WtCom= 1.00D+00 WtEn= 0.00D+00
 Coeff-Com:  0.706D-04-0.876D-04-0.353D-02-0.862D-02-0.214D-01 0.196D-01
 Coeff-Com:  0.205D+00 0.809D+00
 Coeff:      0.706D-04-0.876D-04-0.353D-02-0.862D-02-0.214D-01 0.196D-01
 Coeff:      0.205D+00 0.809D+00
 Gap=     0.353 Goal=   None    Shift=    0.000
 RMSDP=1.23D-06 MaxDP=2.66D-05 DE=-5.75D-07 OVMax= 7.87D-05

 Cycle   9  Pass 1  IDiag  1:
 RMSU=  6.98D-07    CP:  9.99D-01  1.07D+00  8.33D-01  7.30D-01  8.52D-01
                    CP:  1.04D+00  8.68D-01  9.22D-01
 E= -1007.22093374945     Delta-E=       -0.000000045088 Rises=F Damp=F
 DIIS: error= 2.90D-06 at cycle   9 NSaved=   9.
 NSaved= 9 IEnMin= 9 EnMin= -1007.22093374945     IErMin= 9 ErrMin= 2.90D-06
 ErrMax= 2.90D-06  0.00D+00 EMaxC= 1.00D-01 BMatC= 2.34D-09 BMatP= 3.68D-08
 IDIUse=1 WtCom= 1.00D+00 WtEn= 0.00D+00
 Coeff-Com: -0.529D-05 0.581D-04-0.471D-03-0.160D-02-0.755D-02-0.150D-01
 Coeff-Com:  0.237D-01 0.234D+00 0.767D+00
 Coeff:     -0.529D-05 0.581D-04-0.471D-03-0.160D-02-0.755D-02-0.150D-01
 Coeff:      0.237D-01 0.234D+00 0.767D+00
 Gap=     0.353 Goal=   None    Shift=    0.000
 RMSDP=3.41D-07 MaxDP=1.04D-05 DE=-4.51D-08 OVMax= 2.57D-05

 Cycle  10  Pass 1  IDiag  1:
 RMSU=  2.44D-07    CP:  9.99D-01  1.07D+00  8.33D-01  7.30D-01  8.53D-01
                    CP:  1.04D+00  8.85D-01  9.98D-01  1.01D+00
 E= -1007.22093375266     Delta-E=       -0.000000003208 Rises=F Damp=F
 DIIS: error= 1.69D-06 at cycle  10 NSaved=  10.
 NSaved=10 IEnMin=10 EnMin= -1007.22093375266     IErMin=10 ErrMin= 1.69D-06
 ErrMax= 1.69D-06  0.00D+00 EMaxC= 1.00D-01 BMatC= 4.80D-10 BMatP= 2.34D-09
 IDIUse=1 WtCom= 1.00D+00 WtEn= 0.00D+00
 Coeff-Com: -0.143D-04 0.383D-04 0.381D-03 0.709D-03 0.908D-05-0.115D-01
 Coeff-Com: -0.252D-01-0.322D-01 0.297D+00 0.771D+00
 Coeff:     -0.143D-04 0.383D-04 0.381D-03 0.709D-03 0.908D-05-0.115D-01
 Coeff:     -0.252D-01-0.322D-01 0.297D+00 0.771D+00
 Gap=     0.353 Goal=   None    Shift=    0.000
 RMSDP=1.51D-07 MaxDP=4.34D-06 DE=-3.21D-09 OVMax= 1.29D-05

 Cycle  11  Pass 1  IDiag  1:
 RMSU=  7.68D-08    CP:  9.99D-01  1.07D+00  8.33D-01  7.30D-01  8.53D-01
                    CP:  1.04D+00  8.90D-01  1.02D+00  1.15D+00  9.68D-01
 E= -1007.22093375335     Delta-E=       -0.000000000683 Rises=F Damp=F
 DIIS: error= 2.49D-07 at cycle  11 NSaved=  11.
 NSaved=11 IEnMin=11 EnMin= -1007.22093375335     IErMin=11 ErrMin= 2.49D-07
 ErrMax= 2.49D-07  0.00D+00 EMaxC= 1.00D-01 BMatC= 2.53D-11 BMatP= 4.80D-10
 IDIUse=1 WtCom= 1.00D+00 WtEn= 0.00D+00
 Coeff-Com: -0.826D-06-0.764D-06 0.110D-03 0.268D-03 0.813D-03-0.428D-03
 Coeff-Com: -0.583D-02-0.245D-01-0.210D-01 0.159D+00 0.892D+00
 Coeff:     -0.826D-06-0.764D-06 0.110D-03 0.268D-03 0.813D-03-0.428D-03
 Coeff:     -0.583D-02-0.245D-01-0.210D-01 0.159D+00 0.892D+00
 Gap=     0.353 Goal=   None    Shift=    0.000
 RMSDP=4.36D-08 MaxDP=1.09D-06 DE=-6.83D-10 OVMax= 3.76D-06

 Cycle  12  Pass 1  IDiag  1:
 RMSU=  2.34D-08    CP:  9.99D-01  1.07D+00  8.33D-01  7.30D-01  8.53D-01
                    CP:  1.04D+00  8.91D-01  1.02D+00  1.18D+00  1.07D+00
                    CP:  1.08D+00
 E= -1007.22093375338     Delta-E=       -0.000000000037 Rises=F Damp=F
 DIIS: error= 1.13D-07 at cycle  12 NSaved=  12.
 NSaved=12 IEnMin=12 EnMin= -1007.22093375338     IErMin=12 ErrMin= 1.13D-07
 ErrMax= 1.13D-07  0.00D+00 EMaxC= 1.00D-01 BMatC= 6.37D-12 BMatP= 2.53D-11
 IDIUse=1 WtCom= 1.00D+00 WtEn= 0.00D+00
 Coeff-Com:  0.109D-05-0.410D-05 0.239D-04 0.707D-04 0.389D-03 0.614D-03
 Coeff-Com: -0.919D-03-0.910D-02-0.385D-01 0.787D-03 0.397D+00 0.649D+00
 Coeff:      0.109D-05-0.410D-05 0.239D-04 0.707D-04 0.389D-03 0.614D-03
 Coeff:     -0.919D-03-0.910D-02-0.385D-01 0.787D-03 0.397D+00 0.649D+00
 Gap=     0.353 Goal=   None    Shift=    0.000
 RMSDP=1.42D-08 MaxDP=3.51D-07 DE=-3.66D-11 OVMax= 6.60D-07

 Cycle  13  Pass 1  IDiag  1:
 RMSU=  8.84D-09    CP:  9.99D-01  1.07D+00  8.33D-01  7.30D-01  8.53D-01
                    CP:  1.04D+00  8.91D-01  1.03D+00  1.19D+00  1.09D+00
                    CP:  1.15D+00  8.59D-01
 E= -1007.22093375337     Delta-E=        0.000000000015 Rises=F Damp=F
 DIIS: error= 3.82D-08 at cycle  13 NSaved=  13.
 NSaved=13 IEnMin=12 EnMin= -1007.22093375338     IErMin=13 ErrMin= 3.82D-08
 ErrMax= 3.82D-08  0.00D+00 EMaxC= 1.00D-01 BMatC= 4.74D-13 BMatP= 6.37D-12
 IDIUse=1 WtCom= 1.00D+00 WtEn= 0.00D+00
 Coeff-Com:  0.636D-06-0.163D-05-0.746D-05-0.151D-04 0.278D-04 0.285D-03
 Coeff-Com:  0.582D-03 0.825D-03-0.106D-01-0.233D-01 0.185D-01 0.225D+00
 Coeff-Com:  0.789D+00
 Coeff:      0.636D-06-0.163D-05-0.746D-05-0.151D-04 0.278D-04 0.285D-03
 Coeff:      0.582D-03 0.825D-03-0.106D-01-0.233D-01 0.185D-01 0.225D+00
 Coeff:      0.789D+00
 Gap=     0.353 Goal=   None    Shift=    0.000
 RMSDP=4.75D-09 MaxDP=1.13D-07 DE= 1.55D-11 OVMax= 3.43D-07

 Error on total polarization charges =  0.03522
 SCF Done:  E(RM052X) =  -1007.22093375     A.U. after   13 cycles
            NFock= 13  Conv=0.48D-08     -V/T= 2.0071
 KE= 1.000133915989D+03 PE=-4.391515981507D+03 EE= 1.371726759753D+03
 SMD-CDS (non-electrostatic) energy       (kcal/mol) =       4.35
 (included in total energy above)
 Leave Link  502 at Wed Oct 11 16:38:44 2023, MaxMem=  6710886400 cpu:             553.0 elap:              23.8
 (Enter /data0/home/software/g16/l601.exe)
 Copying SCF densities to generalized density rwf, IOpCl= 0 IROHF=0.

 **********************************************************************

            Population analysis using the SCF density.

 **********************************************************************

 Orbital symmetries:
       Occupied  (A) (A) (A) (A) (A) (A) (A) (A) (A) (A) (A) (A)
                 (A) (A) (A) (A) (A) (A) (A) (A) (A) (A) (A) (A)
                 (A) (A) (A) (A) (A) (A) (A) (A) (A) (A) (A) (A)
                 (A) (A) (A) (A) (A) (A) (A) (A) (A) (A) (A) (A)
                 (A) (A) (A) (A) (A) (A)
       Virtual   (A) (A) (A) (A) (A) (A) (A) (A) (A) (A) (A) (A)
                 (A) (A) (A) (A) (A) (A) (A) (A) (A) (A) (A) (A)
                 (A) (A) (A) (A) (A) (A) (A) (A) (A) (A) (A) (A)
                 (A) (A) (A) (A) (A) (A) (A) (A) (A) (A) (A) (A)
                 (A) (A) (A) (A) (A) (A) (A) (A) (A) (A) (A) (A)
                 (A) (A) (A) (A) (A) (A) (A) (A) (A) (A) (A) (A)
                 (A) (A) (A) (A) (A) (A) (A) (A) (A) (A) (A) (A)
                 (A) (A) (A) (A) (A) (A) (A) (A) (A) (A) (A) (A)
                 (A) (A) (A) (A) (A) (A) (A) (A) (A) (A) (A) (A)
                 (A) (A) (A) (A) (A) (A) (A) (A) (A) (A) (A) (A)
                 (A) (A) (A) (A) (A) (A) (A) (A) (A) (A) (A) (A)
                 (A) (A) (A) (A) (A) (A) (A) (A) (A) (A) (A) (A)
                 (A) (A) (A) (A) (A) (A) (A) (A) (A) (A) (A) (A)
                 (A) (A) (A) (A) (A) (A) (A) (A) (A) (A) (A) (A)
                 (A)
 The electronic state is 1-A.
 Alpha  occ. eigenvalues --  -90.22741 -19.64263 -19.64165 -19.63972 -14.89665
 Alpha  occ. eigenvalues --  -14.89353 -10.67716 -10.62785 -10.62669 -10.62418
 Alpha  occ. eigenvalues --  -10.61371 -10.58868 -10.58257  -8.43398  -6.36033
 Alpha  occ. eigenvalues --   -6.36026  -6.35912  -1.22053  -1.19915  -1.07263
 Alpha  occ. eigenvalues --   -1.07205  -1.06951  -0.92503  -0.89809  -0.85915
 Alpha  occ. eigenvalues --   -0.81153  -0.75006  -0.71727  -0.69802  -0.64827
 Alpha  occ. eigenvalues --   -0.63511  -0.59182  -0.56839  -0.55554  -0.55234
 Alpha  occ. eigenvalues --   -0.54313  -0.53908  -0.53284  -0.52538  -0.51725
 Alpha  occ. eigenvalues --   -0.49330  -0.48165  -0.47674  -0.45755  -0.44058
 Alpha  occ. eigenvalues --   -0.42036  -0.40432  -0.40291  -0.36892  -0.35875
 Alpha  occ. eigenvalues --   -0.35001  -0.34125  -0.32845  -0.31012
 Alpha virt. eigenvalues --    0.04238   0.06719   0.13991   0.15445   0.16539
 Alpha virt. eigenvalues --    0.17441   0.17530   0.19271   0.19473   0.19909
 Alpha virt. eigenvalues --    0.20385   0.21599   0.21966   0.22148   0.23808
 Alpha virt. eigenvalues --    0.23893   0.24430   0.24719   0.25463   0.26788
 Alpha virt. eigenvalues --    0.27069   0.29241   0.32716   0.34870   0.37124
 Alpha virt. eigenvalues --    0.38210   0.40326   0.44682   0.47193   0.47586
 Alpha virt. eigenvalues --    0.50142   0.51609   0.53297   0.55724   0.57534
 Alpha virt. eigenvalues --    0.57992   0.59380   0.61601   0.62361   0.64301
 Alpha virt. eigenvalues --    0.65588   0.66564   0.68644   0.71179   0.71787
 Alpha virt. eigenvalues --    0.74422   0.76073   0.77535   0.80521   0.82169
 Alpha virt. eigenvalues --    0.84900   0.85047   0.86021   0.88098   0.89123
 Alpha virt. eigenvalues --    0.89732   0.90106   0.91370   0.92374   0.93018
 Alpha virt. eigenvalues --    0.94705   0.96248   0.97617   0.98061   0.99890
 Alpha virt. eigenvalues --    1.00787   1.02182   1.02586   1.04295   1.04717
 Alpha virt. eigenvalues --    1.05324   1.06451   1.07385   1.10420   1.12163
 Alpha virt. eigenvalues --    1.13455   1.14016   1.15579   1.16687   1.18581
 Alpha virt. eigenvalues --    1.23912   1.26552   1.28821   1.29801   1.31079
 Alpha virt. eigenvalues --    1.33639   1.35518   1.36100   1.39035   1.40431
 Alpha virt. eigenvalues --    1.42517   1.45649   1.47091   1.49886   1.55548
 Alpha virt. eigenvalues --    1.57919   1.60847   1.64905   1.67252   1.68996
 Alpha virt. eigenvalues --    1.70194   1.73304   1.81837   1.84514   1.86458
 Alpha virt. eigenvalues --    1.88944   1.89206   1.90155   1.91494   1.91998
 Alpha virt. eigenvalues --    1.92551   1.95092   1.96212   1.97125   1.97741
 Alpha virt. eigenvalues --    1.98638   2.00961   2.02578   2.07181   2.07938
 Alpha virt. eigenvalues --    2.09745   2.12508   2.15117   2.15939   2.17508
 Alpha virt. eigenvalues --    2.19949   2.21739   2.25246   2.28015   2.29537
 Alpha virt. eigenvalues --    2.30955   2.31831   2.32672   2.34419   2.38612
 Alpha virt. eigenvalues --    2.39542   2.40832   2.42490   2.45700   2.49463
 Alpha virt. eigenvalues --    2.51322   2.51817   2.55458   2.62528   2.66886
 Alpha virt. eigenvalues --    2.72181   2.73276   2.75004   2.77799   2.83768
 Alpha virt. eigenvalues --    2.86330   2.89359   2.91597   3.06865   3.13740
 Alpha virt. eigenvalues --    3.18615   3.79913   3.84136   3.94748   3.99289
 Alpha virt. eigenvalues --    4.09408   4.14203   4.24266   4.25338   4.31443
 Alpha virt. eigenvalues --    4.37450   4.47920   4.51848   4.57742
          Condensed to atoms (all electrons):
               1          2          3          4          5          6
     1  C    4.849932   0.620105  -0.100122   0.373281   0.377579  -0.026513
     2  C    0.620105   4.845512  -0.100896  -0.049695  -0.027534   0.375295
     3  C   -0.100122  -0.100896   4.714718   0.416988   0.005041   0.004999
     4  N    0.373281  -0.049695   0.416988   6.682958  -0.035563   0.002388
     5  H    0.377579  -0.027534   0.005041  -0.035563   0.402122  -0.000369
     6  H   -0.026513   0.375295   0.004999   0.002388  -0.000369   0.398627
     7  H    0.002858   0.002830   0.375547  -0.031533  -0.000050  -0.000051
     8  C   -0.038203   0.004706  -0.038800   0.241971  -0.001202  -0.000065
     9  H    0.003077  -0.000211  -0.002003  -0.027878   0.000001   0.000002
    10  H   -0.001355   0.000030   0.000660  -0.035085   0.000585  -0.000001
    11  H   -0.001806   0.000058   0.001256  -0.033794   0.000753  -0.000001
    12  N   -0.051952   0.376667   0.419369  -0.058985   0.002366  -0.035193
    13  C    0.005077  -0.038939  -0.034854   0.003691  -0.000065  -0.001526
    14  H   -0.000021  -0.001841   0.001012  -0.000097  -0.000001   0.000721
    15  H   -0.000200   0.003519  -0.001743   0.000203   0.000002   0.000007
    16  C    0.000237  -0.001171   0.000891  -0.000201   0.000001   0.000262
    17  H   -0.000003   0.000049  -0.000092   0.000002  -0.000000  -0.000035
    18  H   -0.000042   0.004353   0.000091   0.000004   0.000003   0.001144
    19  C   -0.000029  -0.000629   0.000322   0.000015  -0.000000  -0.000002
    20  H    0.000000  -0.000011   0.000005   0.000000   0.000000   0.000001
    21  H   -0.000002   0.000038   0.000025   0.000001  -0.000000   0.000001
    22  S    0.000327   0.002159   0.002321  -0.001023   0.000007   0.000032
    23  O    0.000000   0.000003   0.000009  -0.000000  -0.000000   0.000000
    24  O   -0.000580   0.003502   0.000027  -0.000024  -0.000003   0.000113
    25  O    0.000623  -0.000320   0.009893  -0.002843   0.000004   0.000004
               7          8          9         10         11         12
     1  C    0.002858  -0.038203   0.003077  -0.001355  -0.001806  -0.051952
     2  C    0.002830   0.004706  -0.000211   0.000030   0.000058   0.376667
     3  C    0.375547  -0.038800  -0.002003   0.000660   0.001256   0.419369
     4  N   -0.031533   0.241971  -0.027878  -0.035085  -0.033794  -0.058985
     5  H   -0.000050  -0.001202   0.000001   0.000585   0.000753   0.002366
     6  H   -0.000051  -0.000065   0.000002  -0.000001  -0.000001  -0.035193
     7  H    0.367113  -0.001117   0.001671   0.000039   0.000011  -0.031251
     8  C   -0.001117   5.049839   0.383334   0.384180   0.383955   0.004091
     9  H    0.001671   0.383334   0.442381  -0.020409  -0.020217   0.000189
    10  H    0.000039   0.384180  -0.020409   0.456216  -0.025491  -0.000096
    11  H    0.000011   0.383955  -0.020217  -0.025491   0.456320  -0.000087
    12  N   -0.031251   0.004091   0.000189  -0.000096  -0.000087   6.715441
    13  C   -0.001024  -0.000058  -0.000002   0.000000   0.000003   0.229998
    14  H    0.000028   0.000002  -0.000000   0.000000  -0.000000  -0.039126
    15  H    0.001949  -0.000003   0.000002  -0.000000   0.000000  -0.033799
    16  C    0.000058   0.000002   0.000000  -0.000000  -0.000000  -0.051149
    17  H   -0.000003  -0.000000  -0.000000   0.000000  -0.000000   0.003961
    18  H    0.000003   0.000000   0.000000  -0.000000  -0.000000  -0.006290
    19  C   -0.000036   0.000000  -0.000000   0.000000   0.000000   0.002085
    20  H    0.000001  -0.000000   0.000000  -0.000000  -0.000000  -0.000107
    21  H    0.000006   0.000000  -0.000000  -0.000000   0.000000  -0.000075
    22  S    0.000328   0.000003  -0.000003   0.000023   0.000000  -0.002067
    23  O    0.000001   0.000000  -0.000000   0.000000   0.000000  -0.000010
    24  O    0.000015  -0.000002   0.000000  -0.000001   0.000000  -0.000960
    25  O    0.002615   0.000081  -0.000021   0.000076   0.000001  -0.007943
              13         14         15         16         17         18
     1  C    0.005077  -0.000021  -0.000200   0.000237  -0.000003  -0.000042
     2  C   -0.038939  -0.001841   0.003519  -0.001171   0.000049   0.004353
     3  C   -0.034854   0.001012  -0.001743   0.000891  -0.000092   0.000091
     4  N    0.003691  -0.000097   0.000203  -0.000201   0.000002   0.000004
     5  H   -0.000065  -0.000001   0.000002   0.000001  -0.000000   0.000003
     6  H   -0.001526   0.000721   0.000007   0.000262  -0.000035   0.001144
     7  H   -0.001024   0.000028   0.001949   0.000058  -0.000003   0.000003
     8  C   -0.000058   0.000002  -0.000003   0.000002  -0.000000   0.000000
     9  H   -0.000002  -0.000000   0.000002   0.000000  -0.000000   0.000000
    10  H    0.000000   0.000000  -0.000000  -0.000000   0.000000  -0.000000
    11  H    0.000003  -0.000000   0.000000  -0.000000  -0.000000  -0.000000
    12  N    0.229998  -0.039126  -0.033799  -0.051149   0.003961  -0.006290
    13  C    5.020326   0.394822   0.386715   0.338275  -0.034242  -0.034891
    14  H    0.394822   0.464532  -0.022251  -0.038811  -0.004443  -0.001374
    15  H    0.386715  -0.022251   0.457006  -0.033039  -0.000356   0.003604
    16  C    0.338275  -0.038811  -0.033039   5.176789   0.378166   0.380449
    17  H   -0.034242  -0.004443  -0.000356   0.378166   0.491783  -0.021989
    18  H   -0.034891  -0.001374   0.003604   0.380449  -0.021989   0.494155
    19  C   -0.038718   0.003809  -0.004775   0.276163  -0.028975  -0.040363
    20  H    0.004400  -0.000078   0.000039  -0.030725  -0.006165  -0.001883
    21  H   -0.004274  -0.000027   0.003622  -0.030655  -0.002146   0.004150
    22  S   -0.006955   0.000211  -0.000531  -0.011026   0.001618  -0.003136
    23  O   -0.000023   0.000000  -0.000000   0.002474  -0.000048   0.000020
    24  O   -0.001571  -0.000011   0.000016   0.001268   0.000104   0.007737
    25  O    0.005607   0.000024   0.000002  -0.003754  -0.000082  -0.000046
              19         20         21         22         23         24
     1  C   -0.000029   0.000000  -0.000002   0.000327   0.000000  -0.000580
     2  C   -0.000629  -0.000011   0.000038   0.002159   0.000003   0.003502
     3  C    0.000322   0.000005   0.000025   0.002321   0.000009   0.000027
     4  N    0.000015   0.000000   0.000001  -0.001023  -0.000000  -0.000024
     5  H   -0.000000   0.000000  -0.000000   0.000007  -0.000000  -0.000003
     6  H   -0.000002   0.000001   0.000001   0.000032   0.000000   0.000113
     7  H   -0.000036   0.000001   0.000006   0.000328   0.000001   0.000015
     8  C    0.000000  -0.000000   0.000000   0.000003   0.000000  -0.000002
     9  H   -0.000000   0.000000  -0.000000  -0.000003  -0.000000   0.000000
    10  H    0.000000  -0.000000  -0.000000   0.000023   0.000000  -0.000001
    11  H    0.000000  -0.000000   0.000000   0.000000   0.000000   0.000000
    12  N    0.002085  -0.000107  -0.000075  -0.002067  -0.000010  -0.000960
    13  C   -0.038718   0.004400  -0.004274  -0.006955  -0.000023  -0.001571
    14  H    0.003809  -0.000078  -0.000027   0.000211   0.000000  -0.000011
    15  H   -0.004775   0.000039   0.003622  -0.000531  -0.000000   0.000016
    16  C    0.276163  -0.030725  -0.030655  -0.011026   0.002474   0.001268
    17  H   -0.028975  -0.006165  -0.002146   0.001618  -0.000048   0.000104
    18  H   -0.040363  -0.001883   0.004150  -0.003136   0.000020   0.007737
    19  C    5.651450   0.355336   0.351327   0.217533  -0.060835  -0.069722
    20  H    0.355336   0.470414  -0.019776  -0.012521   0.001252  -0.000970
    21  H    0.351327  -0.019776   0.471227  -0.010296  -0.000142   0.001897
    22  S    0.217533  -0.012521  -0.010296  13.404358   0.426956   0.417492
    23  O   -0.060835   0.001252  -0.000142   0.426956   8.456412  -0.060893
    24  O   -0.069722  -0.000970   0.001897   0.417492  -0.060893   8.460570
    25  O   -0.063623   0.002074  -0.000451   0.409846  -0.062285  -0.058893
              25
     1  C    0.000623
     2  C   -0.000320
     3  C    0.009893
     4  N   -0.002843
     5  H    0.000004
     6  H    0.000004
     7  H    0.002615
     8  C    0.000081
     9  H   -0.000021
    10  H    0.000076
    11  H    0.000001
    12  N   -0.007943
    13  C    0.005607
    14  H    0.000024
    15  H    0.000002
    16  C   -0.003754
    17  H   -0.000082
    18  H   -0.000046
    19  C   -0.063623
    20  H    0.002074
    21  H   -0.000451
    22  S    0.409846
    23  O   -0.062285
    24  O   -0.058893
    25  O    8.458681
 Mulliken charges:
               1
     1  C   -0.012266
     2  C   -0.017579
     3  C    0.325336
     4  N   -0.444781
     5  H    0.276322
     6  H    0.280159
     7  H    0.309992
     8  C   -0.372716
     9  H    0.240087
    10  H    0.240627
    11  H    0.239038
    12  N   -0.435076
    13  C   -0.191772
    14  H    0.242921
    15  H    0.240011
    16  C   -0.354503
    17  H    0.222895
    18  H    0.214301
    19  C   -0.550334
    20  H    0.238715
    21  H    0.235551
    22  S    1.164345
    23  O   -0.702891
    24  O   -0.699114
    25  O   -0.689268
 Sum of Mulliken charges =  -0.00000
 Mulliken charges with hydrogens summed into heavy atoms:
               1
     1  C    0.264056
     2  C    0.262580
     3  C    0.635328
     4  N   -0.444781
     8  C    0.347036
    12  N   -0.435076
    13  C    0.291161
    16  C    0.082692
    19  C   -0.076068
    22  S    1.164345
    23  O   -0.702891
    24  O   -0.699114
    25  O   -0.689268
 Electronic spatial extent (au):  <R**2>=           2660.5642
 Charge=             -0.0000 electrons
 Dipole moment (field-independent basis, Debye):
    X=            -15.7135    Y=             10.2112    Z=             -3.2414  Tot=             19.0182
 Quadrupole moment (field-independent basis, Debye-Ang):
   XX=            -77.4194   YY=            -78.2982   ZZ=            -78.8881
   XY=             26.3754   XZ=             -3.2897   YZ=              0.1277
 Traceless Quadrupole moment (field-independent basis, Debye-Ang):
   XX=              0.7825   YY=             -0.0963   ZZ=             -0.6862
   XY=             26.3754   XZ=             -3.2897   YZ=              0.1277
 Octapole moment (field-independent basis, Debye-Ang**2):
  XXX=           -134.2923  YYY=             27.2500  ZZZ=            -13.1434  XYY=            -31.8867
  XXY=             13.5104  XXZ=             -4.0053  XZZ=            -28.1179  YZZ=             11.0718
  YYZ=              0.6099  XYZ=             -4.9013
 Hexadecapole moment (field-independent basis, Debye-Ang**3):
 XXXX=          -2060.4970 YYYY=           -815.0322 ZZZZ=           -356.3604 XXXY=            262.2516
 XXXZ=             -5.7536 YYYX=             64.1897 YYYZ=             -7.9030 ZZZX=            -18.5020
 ZZZY=             12.5195 XXYY=           -509.2193 XXZZ=           -380.3058 YYZZ=           -202.8990
 XXYZ=              6.9123 YYXZ=              5.9204 ZZXY=             15.4708
 N-N= 1.012434372011D+03 E-N=-4.391515983007D+03  KE= 1.000133915989D+03
 No NMR shielding tensors so no spin-rotation constants.
 Leave Link  601 at Wed Oct 11 16:38:44 2023, MaxMem=  6710886400 cpu:               2.4 elap:               0.1
 (Enter /data0/home/software/g16/l9999.exe)
 1\1\GINC-LOCALHOST\SP\RM052X\6-31G(d)\C7H12N2O3S1\WUHANYU\11-Oct-2023\
 0\\#p M052X/6-31G* scrf=(smd,solvent=water)\\Title Card Required\\0,1\
 C,0,-2.468455,0.043213,1.175681\C,0,-1.574068,1.061409,1.122269\C,0,-1
 .729195,0.189727,-0.897154\N,0,-2.555355,-0.484491,-0.099955\H,0,-3.04
 7546,-0.34997,1.992327\H,0,-1.222211,1.730217,1.886922\H,0,-1.578403,0
 .001807,-1.944967\C,0,-3.383458,-1.620344,-0.497052\H,0,-3.278835,-1.7
 68163,-1.568487\H,0,-3.052546,-2.511847,0.032399\H,0,-4.422976,-1.4112
 98,-0.253016\N,0,-1.129739,1.141029,-0.183913\C,0,-0.130145,2.087219,-
 0.697881\H,0,-0.548199,3.085829,-0.576935\H,0,-0.027149,1.888022,-1.76
 3114\C,0,1.216377,2.016968,0.014367\H,0,1.716346,2.96457,-0.200231\H,0
 ,1.069101,1.989318,1.095082\C,0,2.184742,0.921596,-0.415468\H,0,3.1605
 79,1.113193,0.03071\H,0,2.305583,0.889148,-1.499116\S,0,1.796209,-0.77
 381,0.081099\O,0,3.070071,-1.517316,-0.080466\O,0,1.347189,-0.713616,1
 .492208\O,0,0.743714,-1.27336,-0.833073\\Version=ES64L-G16RevA.03\Stat
 e=1-A\HF=-1007.2209338\RMSD=4.755e-09\Dipole=-6.1821682,4.0174117,-1.2
 752733\Quadrupole=0.5817589,-0.0715965,-0.5101624,19.6094509,-2.445839
 1,0.0949358\PG=C01 [X(C7H12N2O3S1)]\\@


 THERE ARE PEOPLE SO ADDICTED TO EXAGERATING THEY
 CAN'T TELL THE TRUTH WITHOUT LYING. -- FORTUNE COOKIE
 Job cpu time:       0 days  0 hours  9 minutes 40.2 seconds.
 Elapsed time:       0 days  0 hours  0 minutes 25.1 seconds.
 File lengths (MBytes):  RWF=     87 Int=      0 D2E=      0 Chk=      5 Scr=      1
 Normal termination of Gaussian 16 at Wed Oct 11 16:38:44 2023.
