 Entering Gaussian System, Link 0=g16
 Initial command:
 /data0/home/software/g16/l1.exe "/data0/home/software/g16/scratch/Gau-320413.inp" -scrdir="/data0/home/software/g16/scratch/"
 Default is to use a total of  22 processors:
                               22 via shared-memory
                                1 via Linda
 Entering Link 1 = /data0/home/software/g16/l1.exe PID=    320414.
  
 Copyright (c) 1988,1990,1992,1993,1995,1998,2003,2009,2016,
            Gaussian, Inc.  All Rights Reserved.
  
 This is part of the Gaussian(R) 16 program.  It is based on
 the Gaussian(R) 09 system (copyright 2009, Gaussian, Inc.),
 the Gaussian(R) 03 system (copyright 2003, Gaussian, Inc.),
 the Gaussian(R) 98 system (copyright 1998, Gaussian, Inc.),
 the Gaussian(R) 94 system (copyright 1995, Gaussian, Inc.),
 the Gaussian 92(TM) system (copyright 1992, Gaussian, Inc.),
 the Gaussian 90(TM) system (copyright 1990, Gaussian, Inc.),
 the Gaussian 88(TM) system (copyright 1988, Gaussian, Inc.),
 the Gaussian 86(TM) system (copyright 1986, Carnegie Mellon
 University), and the Gaussian 82(TM) system (copyright 1983,
 Carnegie Mellon University). Gaussian is a federally registered
 trademark of Gaussian, Inc.
  
 This software contains proprietary and confidential information,
 including trade secrets, belonging to Gaussian, Inc.
  
 This software is provided under written license and may be
 used, copied, transmitted, or stored only in accord with that
 written license.
  
 The following legend is applicable only to US Government
 contracts under FAR:
  
                    RESTRICTED RIGHTS LEGEND
  
 Use, reproduction and disclosure by the US Government is
 subject to restrictions as set forth in subparagraphs (a)
 and (c) of the Commercial Computer Software - Restricted
 Rights clause in FAR 52.227-19.
  
 Gaussian, Inc.
 340 Quinnipiac St., Bldg. 40, Wallingford CT 06492
  
  
 ---------------------------------------------------------------
 Warning -- This program may not be used in any manner that
 competes with the business of Gaussian, Inc. or will provide
 assistance to any competitor of Gaussian, Inc.  The licensee
 of this program is prohibited from giving any competitor of
 Gaussian, Inc. access to this program.  By using this program,
 the user acknowledges that Gaussian, Inc. is engaged in the
 business of creating and licensing software in the field of
 computational chemistry and represents and warrants to the
 licensee that it is not a competitor of Gaussian, Inc. and that
 it will not use this program in any manner prohibited above.
 ---------------------------------------------------------------
  

 Cite this work as:
 Gaussian 16, Revision A.03,
 M. J. Frisch, G. W. Trucks, H. B. Schlegel, G. E. Scuseria, 
 M. A. Robb, J. R. Cheeseman, G. Scalmani, V. Barone, 
 G. A. Petersson, H. Nakatsuji, X. Li, M. Caricato, A. V. Marenich, 
 J. Bloino, B. G. Janesko, R. Gomperts, B. Mennucci, H. P. Hratchian, 
 J. V. Ortiz, A. F. Izmaylov, J. L. Sonnenberg, D. Williams-Young, 
 F. Ding, F. Lipparini, F. Egidi, J. Goings, B. Peng, A. Petrone, 
 T. Henderson, D. Ranasinghe, V. G. Zakrzewski, J. Gao, N. Rega, 
 G. Zheng, W. Liang, M. Hada, M. Ehara, K. Toyota, R. Fukuda, 
 J. Hasegawa, M. Ishida, T. Nakajima, Y. Honda, O. Kitao, H. Nakai, 
 T. Vreven, K. Throssell, J. A. Montgomery, Jr., J. E. Peralta, 
 F. Ogliaro, M. J. Bearpark, J. J. Heyd, E. N. Brothers, K. N. Kudin, 
 V. N. Staroverov, T. A. Keith, R. Kobayashi, J. Normand, 
 K. Raghavachari, A. P. Rendell, J. C. Burant, S. S. Iyengar, 
 J. Tomasi, M. Cossi, J. M. Millam, M. Klene, C. Adamo, R. Cammi, 
 J. W. Ochterski, R. L. Martin, K. Morokuma, O. Farkas, 
 J. B. Foresman, and D. J. Fox, Gaussian, Inc., Wallingford CT, 2016.
 
 ******************************************
 Gaussian 16:  ES64L-G16RevA.03 25-Dec-2016
                19-Feb-2023 
 ******************************************
 %nproc=24
 Will use up to   24 processors via shared memory.
 %mem=50GB
 ---------------------------------------------------
 #p M062X/6-311+G(2d,p) nosymm em=GD3 counterpoise=2
 ---------------------------------------------------
 1/38=1,62=2,172=1/1;
 2/12=2,15=1,17=6,18=5,40=1/2;
 1/38=1,53=2,62=2,63=1/22;
 3/5=4,6=6,7=112,11=2,25=1,30=1,74=-55,124=31/1,2,3;
 4//1;
 5/5=2,38=5/2;
 6/7=2,8=2,9=2,10=2,28=1/1;
 1/53=2,62=2,63=1/22;
 3/5=7,6=11,7=112,11=2,25=1,30=1,74=-55,82=7,124=31/1,2,3;
 4//1;
 5/5=2,38=5/2;
 6/7=2,8=2,9=2,10=2,28=1/1;
 1/53=2,62=2,63=1/22(-4);
 99/5=1,9=1/99;
 Leave Link    1 at Sun Feb 19 21:19:24 2023, MaxMem=  6710886400 cpu:               0.7 elap:               0.0
 (Enter /data0/home/software/g16/l101.exe)
 -------------------
 Title Card Required
 -------------------
 Symbolic Z-matrix:
 Charge =  0 Multiplicity = 1 in supermolecule
 Charge =  0 Multiplicity = 1 in fragment      1.
 Charge =  0 Multiplicity = 1 in fragment      2.
 C                     9.97747   11.74954   8.16678    
 C                     11.11728   11.49661   7.38953    
 C                     11.54792   10.19652   7.19231    
 C                     10.80485   9.13618   7.7378     
 C                     9.67255   9.4243    8.49586    
 H                     12.46429   9.9893    6.63701    
 H                     9.63752   12.78852   8.3404     
 H                     11.67347   12.3541   6.99127    
 H                     9.08358   8.62203   8.96622    
 C                     11.24838   7.73126   7.56414    
 H                     11.47009   7.48184   6.51879    
 H                     12.17481   7.55429   8.15102    
 H                     10.52301   6.99472   7.94005    
 N                     9.28983   10.72053   8.72134    
 C                     8.11426   10.94757   9.59682    
 H                     7.20706   10.93478   8.94952    
 H                     8.02992   10.07773   10.30418    
 C                     8.14592   12.24375   10.42776    
 H                     8.46902   13.11558   9.81923    
 H                     7.09431   12.48479   10.7039    
 C                     8.97326   12.12471   11.70015    
 H                     8.97391   11.08726   12.0899    
 H                     8.52368   12.72813   12.51108    
 S                     10.68643   12.67828   11.50572    
 O                     11.40083   12.10488   12.65968    
 O                     10.62574   14.13484   11.36554    
 O                     11.14407   12.06371   10.19198    
 O                     11.27851   14.34908   8.54544    
 H                     11.09608   14.98603   9.24912    
 H                     11.50633   13.55171   9.05955    
 
 ITRead=  0  0  0  0  0  0  0  0  0  0  0  0  0  0  0  0  0  0  0  0
 ITRead=  0  0  0  0  0  0  0  0  0  0
 MicOpt= -1 -1 -1 -1 -1 -1 -1 -1 -1 -1 -1 -1 -1 -1 -1 -1 -1 -1 -1 -1
 MicOpt= -1 -1 -1 -1 -1 -1 -1 -1 -1 -1
 NAtoms=     30 NQM=       30 NQMF=       0 NMMI=      0 NMMIF=      0
                NMic=       0 NMicF=      0.
                    Isotopes and Nuclear Properties:
 (Nuclear quadrupole moments (NQMom) in fm**2, nuclear magnetic moments (NMagM)
  in nuclear magnetons)

  Atom         1           2           3           4           5           6           7           8           9          10
 IAtWgt=          12          12          12          12          12           1           1           1           1          12
 AtmWgt=  12.0000000  12.0000000  12.0000000  12.0000000  12.0000000   1.0078250   1.0078250   1.0078250   1.0078250  12.0000000
 NucSpn=           0           0           0           0           0           1           1           1           1           0
 AtZEff=  -0.0000000  -0.0000000  -0.0000000  -0.0000000  -0.0000000  -0.0000000  -0.0000000  -0.0000000  -0.0000000  -0.0000000
 NQMom=    0.0000000   0.0000000   0.0000000   0.0000000   0.0000000   0.0000000   0.0000000   0.0000000   0.0000000   0.0000000
 NMagM=    0.0000000   0.0000000   0.0000000   0.0000000   0.0000000   2.7928460   2.7928460   2.7928460   2.7928460   0.0000000
 AtZNuc=   6.0000000   6.0000000   6.0000000   6.0000000   6.0000000   1.0000000   1.0000000   1.0000000   1.0000000   6.0000000

  Atom        11          12          13          14          15          16          17          18          19          20
 IAtWgt=           1           1           1          14          12           1           1          12           1           1
 AtmWgt=   1.0078250   1.0078250   1.0078250  14.0030740  12.0000000   1.0078250   1.0078250  12.0000000   1.0078250   1.0078250
 NucSpn=           1           1           1           2           0           1           1           0           1           1
 AtZEff=  -0.0000000  -0.0000000  -0.0000000  -0.0000000  -0.0000000  -0.0000000  -0.0000000  -0.0000000  -0.0000000  -0.0000000
 NQMom=    0.0000000   0.0000000   0.0000000   2.0440000   0.0000000   0.0000000   0.0000000   0.0000000   0.0000000   0.0000000
 NMagM=    2.7928460   2.7928460   2.7928460   0.4037610   0.0000000   2.7928460   2.7928460   0.0000000   2.7928460   2.7928460
 AtZNuc=   1.0000000   1.0000000   1.0000000   7.0000000   6.0000000   1.0000000   1.0000000   6.0000000   1.0000000   1.0000000

  Atom        21          22          23          24          25          26          27          28          29          30
 IAtWgt=          12           1           1          32          16          16          16          16           1           1
 AtmWgt=  12.0000000   1.0078250   1.0078250  31.9720718  15.9949146  15.9949146  15.9949146  15.9949146   1.0078250   1.0078250
 NucSpn=           0           1           1           0           0           0           0           0           1           1
 AtZEff=  -0.0000000  -0.0000000  -0.0000000  -0.0000000  -0.0000000  -0.0000000  -0.0000000  -0.0000000  -0.0000000  -0.0000000
 NQMom=    0.0000000   0.0000000   0.0000000   0.0000000   0.0000000   0.0000000   0.0000000   0.0000000   0.0000000   0.0000000
 NMagM=    0.0000000   2.7928460   2.7928460   0.0000000   0.0000000   0.0000000   0.0000000   0.0000000   2.7928460   2.7928460
 AtZNuc=   6.0000000   1.0000000   1.0000000  16.0000000   8.0000000   8.0000000   8.0000000   8.0000000   1.0000000   1.0000000
 Leave Link  101 at Sun Feb 19 21:19:24 2023, MaxMem=  6710886400 cpu:               2.2 elap:               0.1
 (Enter /data0/home/software/g16/l202.exe)
                          Input orientation:                          
 ---------------------------------------------------------------------
 Center     Atomic      Atomic             Coordinates (Angstroms)
 Number     Number       Type             X           Y           Z
 ---------------------------------------------------------------------
      1          6           0        9.977465   11.749537    8.166783
      2          6           0       11.117282   11.496610    7.389534
      3          6           0       11.547922   10.196520    7.192314
      4          6           0       10.804848    9.136180    7.737804
      5          6           0        9.672547    9.424304    8.495859
      6          1           0       12.464286    9.989296    6.637009
      7          1           0        9.637520   12.788522    8.340403
      8          1           0       11.673474   12.354095    6.991267
      9          1           0        9.083580    8.622034    8.966220
     10          6           0       11.248377    7.731261    7.564135
     11          1           0       11.470085    7.481835    6.518789
     12          1           0       12.174807    7.554285    8.151022
     13          1           0       10.523010    6.994715    7.940054
     14          7           0        9.289825   10.720533    8.721341
     15          6           0        8.114261   10.947570    9.596817
     16          1           0        7.207059   10.934775    8.949523
     17          1           0        8.029916   10.077731   10.304178
     18          6           0        8.145921   12.243752   10.427760
     19          1           0        8.469018   13.115581    9.819231
     20          1           0        7.094307   12.484788   10.703898
     21          6           0        8.973260   12.124712   11.700145
     22          1           0        8.973910   11.087255   12.089903
     23          1           0        8.523681   12.728134   12.511081
     24         16           0       10.686427   12.678278   11.505715
     25          8           0       11.400826   12.104885   12.659682
     26          8           0       10.625744   14.134838   11.365538
     27          8           0       11.144066   12.063713   10.191980
     28          8           0       11.278511   14.349077    8.545441
     29          1           0       11.096075   14.986034    9.249119
     30          1           0       11.506334   13.551712    9.059555
 ---------------------------------------------------------------------
                    Distance matrix (angstroms):
                    1          2          3          4          5
     1  C    0.000000
     2  C    1.402594   0.000000
     3  C    2.414081   1.383684   0.000000
     4  C    2.774567   2.406353   1.405005   0.000000
     5  C    2.368116   2.757837   2.410929   1.392756   0.000000
     6  H    3.409243   2.157014   1.091342   2.166400   3.401227
     7  H    1.106886   2.182403   3.418511   3.881415   3.367990
     8  H    2.150296   1.096926   2.170556   3.415671   3.853723
     9  H    3.349538   3.858117   3.420341   2.176262   1.100799
    10  C    4.257340   3.771674   2.511071   1.483468   2.493541
    11  H    4.812180   4.123237   2.798072   2.159953   3.303503
    12  H    4.735895   4.152126   2.879846   2.133056   3.142800
    13  H    4.791384   4.574198   3.443997   2.169380   2.633460
    14  N    1.356183   2.390733   2.776962   2.402668   1.370229
    15  C    2.481870   3.767184   4.258608   3.738492   2.441455
    16  H    2.991934   4.247242   4.740875   4.200868   2.926767
    17  H    3.340111   4.476628   4.698316   3.895259   2.528877
    18  C    2.951410   4.314861   5.121804   4.895177   3.743276
    19  H    2.621464   3.941801   4.990116   5.062023   4.101868
    20  H    3.910262   5.305265   6.115724   5.811971   4.570484
    21  C    3.692402   4.855173   5.537811   5.290197   4.248371
    22  H    4.103244   5.182189   5.604045   5.108796   4.021275
    23  H    4.684449   5.871428   6.621509   6.394531   5.325147
    24  S    3.537464   4.304059   5.050418   5.172778   4.547036
    25  O    4.726349   5.312707   5.792720   5.778692   5.244987
    26  O    4.042519   4.796922   5.811760   6.178925   5.597568
    27  O    2.358196   2.859375   3.556333   3.835166   3.465353
    28  O    2.931503   3.081993   4.375759   5.296313   5.180248
    29  H    3.591330   3.954059   5.232022   6.048940   5.790222
    30  H    2.526325   2.676523   3.840004   4.662192   4.551486
                    6          7          8          9         10
     6  H    0.000000
     7  H    4.327566   0.000000
     8  H    2.518562   2.480726   0.000000
     9  H    4.327101   4.249485   4.953410   0.000000
    10  C    2.727035   5.364079   4.677551   2.728675   0.000000
    11  H    2.699958   5.902330   4.899339   3.603523   1.097322
    12  H    2.881894   5.819873   4.963320   3.370507   1.110869
    13  H    3.799210   5.874740   5.562977   2.402736   1.099987
    14  N    3.867344   2.131334   3.368006   2.122781   3.756434
    15  C    5.348034   2.699629   4.629816   2.597181   4.929414
    16  H    5.820660   3.116817   5.079183   2.978318   5.339855
    17  H    5.754962   3.713380   5.425194   2.240400   4.834485
    18  C    6.172572   2.622728   4.925981   4.016484   6.179657
    19  H    5.988519   1.912929   4.341173   4.614897   6.465384
    20  H    7.183574   3.485154   5.896565   4.679487   7.050562
    21  C    6.510193   3.488517   5.432983   4.444690   6.448655
    22  H    6.566757   4.170544   5.906659   3.980796   6.076057
    23  H    7.585138   4.317272   6.366274   5.453401   7.540887
    24  S    5.839153   3.336399   4.632450   5.046907   6.350183
    25  O    6.471418   4.715165   5.680438   5.580461   6.716876
    26  O    6.551698   3.455517   4.837668   6.206932   7.472893
    27  O    4.322500   2.494668   3.257170   4.194430   5.068194
    28  O    4.904678   2.273813   2.559571   6.147666   6.690244
    29  H    5.801940   2.789661   3.515450   6.680619   7.449436
    30  H    4.413299   2.142920   2.395838   5.493648   6.015021
                   11         12         13         14         15
    11  H    0.000000
    12  H    1.779344   0.000000
    13  H    1.776016   1.756718   0.000000
    14  N    4.482626   4.321286   4.001609   0.000000
    15  C    5.722511   5.485685   4.916503   1.483224   0.000000
    16  H    6.000388   6.061669   5.247726   2.106153   1.114526
    17  H    5.736080   5.308859   4.616231   2.122719   1.124319
    18  C    7.000427   6.588365   6.276275   2.557455   1.539986
    19  H    7.185987   6.887946   6.724224   2.759591   2.208074
    20  H    7.854432   7.525856   7.038163   3.444333   2.151505
    21  C    7.391677   6.613243   6.546517   3.308354   2.558814
    22  H    7.089940   6.184044   6.030741   3.403160   2.640831
    23  H    8.491909   7.688273   7.600243   4.356555   3.439617
    24  S    7.244762   6.302741   6.711448   3.679130   3.640780
    25  O    7.686869   6.452521   7.011368   4.677957   4.639184
    26  O    8.274439   7.485746   7.919965   4.520391   4.426579
    27  O    5.881516   5.055974   5.581364   2.721235   3.283247
    28  O    7.162613   6.864992   7.417811   4.141515   4.763205
    29  H    7.994222   7.589491   8.118081   4.662144   5.032027
    30  H    6.580290   6.102575   6.724167   3.611492   4.310031
                   16         17         18         19         20
    16  H    0.000000
    17  H    1.801862   0.000000
    18  C    2.186336   2.172643   0.000000
    19  H    2.665492   3.107494   1.111209   0.000000
    20  H    2.343733   2.613248   1.113662   1.752246   0.000000
    21  C    3.478698   2.651180   1.522374   2.184930   2.156995
    22  H    3.606522   2.258114   2.187640   3.086256   2.721583
    23  H    4.199324   3.484087   2.171993   2.720140   2.316946
    24  S    4.656170   3.906864   2.793738   2.819994   3.685604
    25  O    5.720325   4.584843   3.949072   4.205374   4.745053
    26  O    5.269245   4.932031   3.256556   2.842783   3.953667
    27  O    4.279980   3.695219   3.012786   2.898491   4.103646
    28  O    5.328927   5.647205   4.217658   3.322244   5.063800
    29  H    5.623780   5.882680   4.196750   3.274912   4.938295
    30  H    5.034305   5.069824   3.856828   3.161108   4.827854
                   21         22         23         24         25
    21  C    0.000000
    22  H    1.108255   0.000000
    23  H    1.106281   1.752878   0.000000
    24  S    1.810850   2.409428   2.385522   0.000000
    25  O    2.610399   2.692608   2.947624   1.473359   0.000000
    26  O    2.623599   3.541331   2.776644   1.464547   2.529085
    27  O    2.643990   3.043872   3.561756   1.520863   2.481365
    28  O    4.496014   5.339839   5.093412   3.450414   4.688106
    29  H    4.324469   5.270115   4.728184   3.253579   4.475023
    30  H    3.927532   4.655076   4.635465   2.723754   3.881411
                   26         27         28         29         30
    26  O    0.000000
    27  O    2.436279   0.000000
    28  O    2.902576   2.819939   0.000000
    29  H    2.329158   3.071034   0.966519   0.000000
    30  H    2.536342   1.904669   0.975709   1.503837   0.000000
 Symmetry turned off by external request.
 Stoichiometry    C9H15NO4S
 Framework group  C1[X(C9H15NO4S)]
 Deg. of freedom    84
 Full point group                 C1      NOp   1
 Rotational constants (GHZ):           0.8245932           0.3704210           0.3397206
 Leave Link  202 at Sun Feb 19 21:19:24 2023, MaxMem=  6710886400 cpu:               0.1 elap:               0.0
 (Enter /data0/home/software/g16/l122.exe)
 Counterpoise: doing full-system calculation.
 Leave Link  122 at Sun Feb 19 21:19:24 2023, MaxMem=  6710886400 cpu:               0.0 elap:               0.0
 (Enter /data0/home/software/g16/l301.exe)
 Standard basis: 6-311+G(2d,p) (5D, 7F)
 Ernie: Thresh=  0.10000D-02 Tol=  0.10000D-05 Strict=F.
   503 basis functions,   764 primitive gaussians,   533 cartesian basis functions
    62 alpha electrons       62 beta electrons
       nuclear repulsion energy      1251.3797982654 Hartrees.
 IExCor= 4336 DFT=T Ex+Corr=M062X ExCW=0 ScaHFX=  0.540000
 ScaDFX=  1.000000  1.000000  1.000000  1.000000 ScalE2=  1.000000  1.000000
 IRadAn=      5 IRanWt=     -1 IRanGd=            0 ICorTp=0 IEmpDi=131
 NAtoms=   30 NActive=   30 NUniq=   30 SFac= 1.00D+00 NAtFMM=   60 NAOKFM=F Big=F
 Integral buffers will be    131072 words long.
 Raffenetti 2 integral format.
 Two-electron integral symmetry is turned off.
 R6Disp:  Grimme-D3 Dispersion energy=       -0.0017947957 Hartrees.
 Nuclear repulsion after empirical dispersion term =     1251.3780034697 Hartrees.
 Leave Link  301 at Sun Feb 19 21:19:24 2023, MaxMem=  6710886400 cpu:               1.1 elap:               0.1
 (Enter /data0/home/software/g16/l302.exe)
 NPDir=0 NMtPBC=     1 NCelOv=     1 NCel=       1 NClECP=     1 NCelD=      1
         NCelK=      1 NCelE2=     1 NClLst=     1 CellRange=     0.0.
 One-electron integrals computed using PRISM.
 NBasis=   503 RedAO= T EigKep=  2.31D-06  NBF=   503
 NBsUse=   503 1.00D-06 EigRej= -1.00D+00 NBFU=   503
 Precomputing XC quadrature grid using
 IXCGrd= 4 IRadAn=           5 IRanWt=          -1 IRanGd=           0 AccXCQ= 0.00D+00.
 Generated NRdTot=       0 NPtTot=           0 NUsed=           0 NTot=          32
 NSgBfM=   532   530   530   530   532 MxSgAt=    30 MxSgA2=    30.
 Leave Link  302 at Sun Feb 19 21:19:25 2023, MaxMem=  6710886400 cpu:              11.3 elap:               0.5
 (Enter /data0/home/software/g16/l303.exe)
 DipDrv:  MaxL=1.
 Leave Link  303 at Sun Feb 19 21:19:25 2023, MaxMem=  6710886400 cpu:               1.2 elap:               0.1
 (Enter /data0/home/software/g16/l401.exe)
 ExpMin= 4.05D-02 ExpMax= 9.34D+04 ExpMxC= 3.17D+03 IAcc=3 IRadAn=         5 AccDes= 0.00D+00
 Harris functional with IExCor= 1009 and IRadAn=       5 diagonalized for initial guess.
 HarFok:  IExCor= 1009 AccDes= 0.00D+00 IRadAn=         5 IDoV= 1 UseB2=F ITyADJ=14
 ICtDFT=  3500011 ScaDFX=  1.000000  1.000000  1.000000  1.000000
 FoFCou: FMM=F IPFlag=           0 FMFlag=      100000 FMFlg1=           0
         NFxFlg=           0 DoJE=T BraDBF=F KetDBF=T FulRan=T
         wScrn=  0.000000 ICntrl=       500 IOpCl=  0 I1Cent=   200000004 NGrid=           0
         NMat0=    1 NMatS0=      1 NMatT0=    0 NMatD0=    1 NMtDS0=    0 NMtDT0=    0
 Symmetry not used in FoFCou.
 Harris En= -1105.29757477097    
 JPrj=0 DoOrth=F DoCkMO=F.
 Leave Link  401 at Sun Feb 19 21:19:27 2023, MaxMem=  6710886400 cpu:              47.7 elap:               2.0
 (Enter /data0/home/software/g16/l502.exe)
 Two-electron integral symmetry not used.
 Closed shell SCF:
 Using DIIS extrapolation, IDIIS=  1040.
 NGot=  6710886400 LenX=  6710301663 LenY=  6710017041
 Requested convergence on RMS density matrix=1.00D-08 within 128 cycles.
 Requested convergence on MAX density matrix=1.00D-06.
 Requested convergence on             energy=1.00D-06.
 No special actions if energy rises.
 Fock matrices will be formed incrementally for  20 cycles.

 Cycle   1  Pass 1  IDiag  1:
 FoFJK:  IHMeth= 1 ICntrl=       0 DoSepK=F KAlg= 0 I1Cent=           0 FoldK=F
 IRaf= 880000000 NMat=       1 IRICut=       1 DoRegI=T DoRafI=F ISym2E= 0 IDoP0=0 IntGTp=1.
 FoFCou: FMM=F IPFlag=           0 FMFlag=      100000 FMFlg1=           0
         NFxFlg=           0 DoJE=F BraDBF=F KetDBF=F FulRan=T
         wScrn=  0.000000 ICntrl=         0 IOpCl=  0 I1Cent=           0 NGrid=           0
         NMat0=    1 NMatS0=      1 NMatT0=    0 NMatD0=    1 NMtDS0=    0 NMtDT0=    0
 Symmetry not used in FoFCou.
 E= -1105.13239371721    
 DIIS: error= 1.98D-02 at cycle   1 NSaved=   1.
 NSaved= 1 IEnMin= 1 EnMin= -1105.13239371721     IErMin= 1 ErrMin= 1.98D-02
 ErrMax= 1.98D-02  0.00D+00 EMaxC= 1.00D-01 BMatC= 8.83D-01 BMatP= 8.83D-01
 IDIUse=3 WtCom= 8.02D-01 WtEn= 1.98D-01
 Coeff-Com:  0.100D+01
 Coeff-En:   0.100D+01
 Coeff:      0.100D+01
 Gap=     0.222 Goal=   None    Shift=    0.000
 GapD=    0.222 DampG=1.000 DampE=0.500 DampFc=0.5000 IDamp=-1.
 Damping current iteration by 5.00D-01
 RMSDP=1.21D-02 MaxDP=1.56D+00              OVMax= 2.03D-01

 Cycle   2  Pass 1  IDiag  1:
 RMSU=  5.15D-03    CP:  1.18D+00
 E= -1105.37575970043     Delta-E=       -0.243365983220 Rises=F Damp=T
 DIIS: error= 5.51D-03 at cycle   2 NSaved=   2.
 NSaved= 2 IEnMin= 2 EnMin= -1105.37575970043     IErMin= 2 ErrMin= 5.51D-03
 ErrMax= 5.51D-03  0.00D+00 EMaxC= 1.00D-01 BMatC= 6.16D-02 BMatP= 8.83D-01
 IDIUse=3 WtCom= 9.45D-01 WtEn= 5.51D-02
 Coeff-Com:  0.482D-01 0.952D+00
 Coeff-En:   0.142D+00 0.858D+00
 Coeff:      0.534D-01 0.947D+00
 Gap=     0.242 Goal=   None    Shift=    0.000
 RMSDP=4.73D-03 MaxDP=9.85D-01 DE=-2.43D-01 OVMax= 1.34D-01

 Cycle   3  Pass 1  IDiag  1:
 RMSU=  3.09D-03    CP:  9.93D-01  7.36D-01
 E= -1105.68133114283     Delta-E=       -0.305571442398 Rises=F Damp=F
 DIIS: error= 3.47D-03 at cycle   3 NSaved=   3.
 NSaved= 3 IEnMin= 3 EnMin= -1105.68133114283     IErMin= 3 ErrMin= 3.47D-03
 ErrMax= 3.47D-03  0.00D+00 EMaxC= 1.00D-01 BMatC= 2.64D-02 BMatP= 6.16D-02
 IDIUse=3 WtCom= 9.65D-01 WtEn= 3.47D-02
 Coeff-Com: -0.491D-01 0.372D+00 0.677D+00
 Coeff-En:   0.000D+00 0.000D+00 0.100D+01
 Coeff:     -0.474D-01 0.359D+00 0.688D+00
 Gap=     0.216 Goal=   None    Shift=    0.000
 RMSDP=9.33D-04 MaxDP=7.48D-02 DE=-3.06D-01 OVMax= 4.05D-02

 Cycle   4  Pass 1  IDiag  1:
 RMSU=  8.61D-04    CP:  9.84D-01  7.96D-01  9.76D-01
 E= -1105.69924065237     Delta-E=       -0.017909509536 Rises=F Damp=F
 DIIS: error= 1.90D-03 at cycle   4 NSaved=   4.
 NSaved= 4 IEnMin= 4 EnMin= -1105.69924065237     IErMin= 4 ErrMin= 1.90D-03
 ErrMax= 1.90D-03  0.00D+00 EMaxC= 1.00D-01 BMatC= 4.78D-03 BMatP= 2.64D-02
 IDIUse=3 WtCom= 9.81D-01 WtEn= 1.90D-02
 Coeff-Com: -0.272D-01 0.835D-01 0.348D+00 0.596D+00
 Coeff-En:   0.000D+00 0.000D+00 0.137D+00 0.863D+00
 Coeff:     -0.267D-01 0.819D-01 0.344D+00 0.601D+00
 Gap=     0.222 Goal=   None    Shift=    0.000
 RMSDP=3.66D-04 MaxDP=3.72D-02 DE=-1.79D-02 OVMax= 1.76D-02

 Cycle   5  Pass 1  IDiag  1:
 RMSU=  2.73D-04    CP:  9.80D-01  7.81D-01  9.78D-01  7.46D-01
 E= -1105.70347648330     Delta-E=       -0.004235830932 Rises=F Damp=F
 DIIS: error= 3.96D-04 at cycle   5 NSaved=   5.
 NSaved= 5 IEnMin= 5 EnMin= -1105.70347648330     IErMin= 5 ErrMin= 3.96D-04
 ErrMax= 3.96D-04  0.00D+00 EMaxC= 1.00D-01 BMatC= 2.59D-04 BMatP= 4.78D-03
 IDIUse=3 WtCom= 9.96D-01 WtEn= 3.96D-03
 Coeff-Com: -0.920D-02 0.200D-01 0.122D+00 0.280D+00 0.587D+00
 Coeff-En:   0.000D+00 0.000D+00 0.000D+00 0.000D+00 0.100D+01
 Coeff:     -0.916D-02 0.199D-01 0.122D+00 0.279D+00 0.588D+00
 Gap=     0.222 Goal=   None    Shift=    0.000
 RMSDP=8.31D-05 MaxDP=8.91D-03 DE=-4.24D-03 OVMax= 5.10D-03

 Cycle   6  Pass 1  IDiag  1:
 RMSU=  6.15D-05    CP:  9.79D-01  7.79D-01  9.82D-01  7.79D-01  8.39D-01
 E= -1105.70368776131     Delta-E=       -0.000211278009 Rises=F Damp=F
 DIIS: error= 1.22D-04 at cycle   6 NSaved=   6.
 NSaved= 6 IEnMin= 6 EnMin= -1105.70368776131     IErMin= 6 ErrMin= 1.22D-04
 ErrMax= 1.22D-04  0.00D+00 EMaxC= 1.00D-01 BMatC= 2.53D-05 BMatP= 2.59D-04
 IDIUse=3 WtCom= 9.99D-01 WtEn= 1.22D-03
 Coeff-Com: -0.141D-02 0.480D-03 0.214D-01 0.696D-01 0.281D+00 0.629D+00
 Coeff-En:   0.000D+00 0.000D+00 0.000D+00 0.000D+00 0.000D+00 0.100D+01
 Coeff:     -0.141D-02 0.480D-03 0.214D-01 0.695D-01 0.281D+00 0.629D+00
 Gap=     0.222 Goal=   None    Shift=    0.000
 RMSDP=2.67D-05 MaxDP=2.07D-03 DE=-2.11D-04 OVMax= 1.14D-03

 Cycle   7  Pass 1  IDiag  1:
 RMSU=  2.12D-05    CP:  9.79D-01  7.78D-01  9.83D-01  7.89D-01  8.69D-01
                    CP:  1.02D+00
 E= -1105.70370873195     Delta-E=       -0.000020970638 Rises=F Damp=F
 DIIS: error= 2.69D-05 at cycle   7 NSaved=   7.
 NSaved= 7 IEnMin= 7 EnMin= -1105.70370873195     IErMin= 7 ErrMin= 2.69D-05
 ErrMax= 2.69D-05  0.00D+00 EMaxC= 1.00D-01 BMatC= 1.84D-06 BMatP= 2.53D-05
 IDIUse=1 WtCom= 1.00D+00 WtEn= 0.00D+00
 Coeff-Com:  0.391D-03-0.181D-02-0.358D-02 0.399D-03 0.649D-01 0.249D+00
 Coeff-Com:  0.691D+00
 Coeff:      0.391D-03-0.181D-02-0.358D-02 0.399D-03 0.649D-01 0.249D+00
 Coeff:      0.691D+00
 Gap=     0.222 Goal=   None    Shift=    0.000
 RMSDP=1.22D-05 MaxDP=1.82D-03 DE=-2.10D-05 OVMax= 4.13D-04

 Cycle   8  Pass 1  IDiag  1:
 RMSU=  7.52D-06    CP:  9.79D-01  7.77D-01  9.83D-01  7.90D-01  8.85D-01
                    CP:  1.06D+00  9.07D-01
 E= -1105.70371043374     Delta-E=       -0.000001701796 Rises=F Damp=F
 DIIS: error= 1.37D-05 at cycle   8 NSaved=   8.
 NSaved= 8 IEnMin= 8 EnMin= -1105.70371043374     IErMin= 8 ErrMin= 1.37D-05
 ErrMax= 1.37D-05  0.00D+00 EMaxC= 1.00D-01 BMatC= 2.99D-07 BMatP= 1.84D-06
 IDIUse=1 WtCom= 1.00D+00 WtEn= 0.00D+00
 Coeff-Com:  0.363D-03-0.790D-03-0.476D-02-0.107D-01-0.124D-01 0.636D-03
 Coeff-Com:  0.291D+00 0.736D+00
 Coeff:      0.363D-03-0.790D-03-0.476D-02-0.107D-01-0.124D-01 0.636D-03
 Coeff:      0.291D+00 0.736D+00
 Gap=     0.222 Goal=   None    Shift=    0.000
 RMSDP=5.05D-06 MaxDP=3.92D-04 DE=-1.70D-06 OVMax= 2.61D-04

 Cycle   9  Pass 1  IDiag  1:
 RMSU=  3.22D-06    CP:  9.78D-01  7.77D-01  9.83D-01  7.90D-01  8.92D-01
                    CP:  1.07D+00  9.88D-01  9.08D-01
 E= -1105.70371075257     Delta-E=       -0.000000318830 Rises=F Damp=F
 DIIS: error= 7.01D-06 at cycle   9 NSaved=   9.
 NSaved= 9 IEnMin= 9 EnMin= -1105.70371075257     IErMin= 9 ErrMin= 7.01D-06
 ErrMax= 7.01D-06  0.00D+00 EMaxC= 1.00D-01 BMatC= 5.40D-08 BMatP= 2.99D-07
 IDIUse=1 WtCom= 1.00D+00 WtEn= 0.00D+00
 Coeff-Com:  0.147D-03-0.246D-03-0.215D-02-0.576D-02-0.118D-01-0.241D-01
 Coeff-Com:  0.818D-01 0.378D+00 0.585D+00
 Coeff:      0.147D-03-0.246D-03-0.215D-02-0.576D-02-0.118D-01-0.241D-01
 Coeff:      0.818D-01 0.378D+00 0.585D+00
 Gap=     0.222 Goal=   None    Shift=    0.000
 RMSDP=1.58D-06 MaxDP=2.53D-04 DE=-3.19D-07 OVMax= 8.11D-05

 Cycle  10  Pass 1  IDiag  1:
 RMSU=  1.04D-06    CP:  9.78D-01  7.77D-01  9.83D-01  7.90D-01  8.93D-01
                    CP:  1.08D+00  1.01D+00  9.77D-01  8.71D-01
 E= -1105.70371080758     Delta-E=       -0.000000055009 Rises=F Damp=F
 DIIS: error= 2.08D-06 at cycle  10 NSaved=  10.
 NSaved=10 IEnMin=10 EnMin= -1105.70371080758     IErMin=10 ErrMin= 2.08D-06
 ErrMax= 2.08D-06  0.00D+00 EMaxC= 1.00D-01 BMatC= 4.55D-09 BMatP= 5.40D-08
 IDIUse=1 WtCom= 1.00D+00 WtEn= 0.00D+00
 Coeff-Com: -0.708D-05 0.424D-04 0.967D-05-0.449D-03-0.203D-02-0.972D-02
 Coeff-Com: -0.182D-01 0.248D-01 0.198D+00 0.808D+00
 Coeff:     -0.708D-05 0.424D-04 0.967D-05-0.449D-03-0.203D-02-0.972D-02
 Coeff:     -0.182D-01 0.248D-01 0.198D+00 0.808D+00
 Gap=     0.222 Goal=   None    Shift=    0.000
 RMSDP=7.21D-07 MaxDP=5.86D-05 DE=-5.50D-08 OVMax= 4.96D-05

 Cycle  11  Pass 1  IDiag  1:
 RMSU=  5.22D-07    CP:  9.78D-01  7.77D-01  9.83D-01  7.90D-01  8.93D-01
                    CP:  1.08D+00  1.01D+00  1.01D+00  9.71D-01  1.01D+00
 E= -1105.70371081652     Delta-E=       -0.000000008941 Rises=F Damp=F
 DIIS: error= 1.49D-06 at cycle  11 NSaved=  11.
 NSaved=11 IEnMin=11 EnMin= -1105.70371081652     IErMin=11 ErrMin= 1.49D-06
 ErrMax= 1.49D-06  0.00D+00 EMaxC= 1.00D-01 BMatC= 1.52D-09 BMatP= 4.55D-09
 IDIUse=1 WtCom= 1.00D+00 WtEn= 0.00D+00
 Coeff-Com: -0.273D-04 0.606D-04 0.385D-03 0.730D-03 0.978D-03-0.884D-03
 Coeff-Com: -0.240D-01-0.548D-01-0.284D-01 0.396D+00 0.710D+00
 Coeff:     -0.273D-04 0.606D-04 0.385D-03 0.730D-03 0.978D-03-0.884D-03
 Coeff:     -0.240D-01-0.548D-01-0.284D-01 0.396D+00 0.710D+00
 Gap=     0.222 Goal=   None    Shift=    0.000
 RMSDP=3.55D-07 MaxDP=5.09D-05 DE=-8.94D-09 OVMax= 2.15D-05

 Cycle  12  Pass 1  IDiag  1:
 RMSU=  1.89D-07    CP:  9.78D-01  7.77D-01  9.83D-01  7.90D-01  8.93D-01
                    CP:  1.08D+00  1.01D+00  1.02D+00  9.92D-01  1.18D+00
                    CP:  9.08D-01
 E= -1105.70371081877     Delta-E=       -0.000000002251 Rises=F Damp=F
 DIIS: error= 5.32D-07 at cycle  12 NSaved=  12.
 NSaved=12 IEnMin=12 EnMin= -1105.70371081877     IErMin=12 ErrMin= 5.32D-07
 ErrMax= 5.32D-07  0.00D+00 EMaxC= 1.00D-01 BMatC= 1.22D-10 BMatP= 1.52D-09
 IDIUse=1 WtCom= 1.00D+00 WtEn= 0.00D+00
 Coeff-Com: -0.682D-05 0.123D-04 0.138D-03 0.317D-03 0.706D-03 0.129D-02
 Coeff-Com: -0.541D-02-0.218D-01-0.453D-01 0.241D-01 0.228D+00 0.818D+00
 Coeff:     -0.682D-05 0.123D-04 0.138D-03 0.317D-03 0.706D-03 0.129D-02
 Coeff:     -0.541D-02-0.218D-01-0.453D-01 0.241D-01 0.228D+00 0.818D+00
 Gap=     0.222 Goal=   None    Shift=    0.000
 RMSDP=1.14D-07 MaxDP=1.20D-05 DE=-2.25D-09 OVMax= 9.87D-06

 Cycle  13  Pass 1  IDiag  1:
 RMSU=  6.21D-08    CP:  9.78D-01  7.77D-01  9.83D-01  7.90D-01  8.94D-01
                    CP:  1.08D+00  1.01D+00  1.02D+00  9.97D-01  1.21D+00
                    CP:  9.78D-01  1.23D+00
 E= -1105.70371081903     Delta-E=       -0.000000000257 Rises=F Damp=F
 DIIS: error= 1.50D-07 at cycle  13 NSaved=  13.
 NSaved=13 IEnMin=13 EnMin= -1105.70371081903     IErMin=13 ErrMin= 1.50D-07
 ErrMax= 1.50D-07  0.00D+00 EMaxC= 1.00D-01 BMatC= 1.45D-11 BMatP= 1.22D-10
 IDIUse=1 WtCom= 1.00D+00 WtEn= 0.00D+00
 Coeff-Com:  0.177D-05-0.439D-05-0.447D-05-0.988D-06 0.857D-04 0.458D-03
 Coeff-Com:  0.126D-02 0.999D-03-0.955D-02-0.374D-01-0.290D-01 0.254D+00
 Coeff-Com:  0.819D+00
 Coeff:      0.177D-05-0.439D-05-0.447D-05-0.988D-06 0.857D-04 0.458D-03
 Coeff:      0.126D-02 0.999D-03-0.955D-02-0.374D-01-0.290D-01 0.254D+00
 Coeff:      0.819D+00
 Gap=     0.222 Goal=   None    Shift=    0.000
 RMSDP=3.58D-08 MaxDP=1.99D-06 DE=-2.57D-10 OVMax= 3.49D-06

 Cycle  14  Pass 1  IDiag  1:
 RMSU=  2.57D-08    CP:  9.78D-01  7.77D-01  9.83D-01  7.90D-01  8.94D-01
                    CP:  1.08D+00  1.01D+00  1.02D+00  9.94D-01  1.22D+00
                    CP:  9.90D-01  1.33D+00  1.07D+00
 E= -1105.70371081909     Delta-E=       -0.000000000065 Rises=F Damp=F
 DIIS: error= 7.87D-08 at cycle  14 NSaved=  14.
 NSaved=14 IEnMin=14 EnMin= -1105.70371081909     IErMin=14 ErrMin= 7.87D-08
 ErrMax= 7.87D-08  0.00D+00 EMaxC= 1.00D-01 BMatC= 3.22D-12 BMatP= 1.45D-11
 IDIUse=1 WtCom= 1.00D+00 WtEn= 0.00D+00
 Coeff-Com:  0.146D-05-0.325D-05-0.160D-04-0.329D-04-0.423D-04 0.548D-04
 Coeff-Com:  0.108D-02 0.277D-02 0.232D-03-0.213D-01-0.436D-01 0.179D-01
 Coeff-Com:  0.379D+00 0.664D+00
 Coeff:      0.146D-05-0.325D-05-0.160D-04-0.329D-04-0.423D-04 0.548D-04
 Coeff:      0.108D-02 0.277D-02 0.232D-03-0.213D-01-0.436D-01 0.179D-01
 Coeff:      0.379D+00 0.664D+00
 Gap=     0.222 Goal=   None    Shift=    0.000
 RMSDP=2.23D-08 MaxDP=3.04D-06 DE=-6.46D-11 OVMax= 1.37D-06

 Cycle  15  Pass 1  IDiag  1:
 RMSU=  1.02D-08    CP:  9.78D-01  7.77D-01  9.83D-01  7.90D-01  8.94D-01
                    CP:  1.08D+00  1.01D+00  1.02D+00  9.94D-01  1.22D+00
                    CP:  9.97D-01  1.38D+00  1.18D+00  8.88D-01
 E= -1105.70371081904     Delta-E=        0.000000000055 Rises=F Damp=F
 DIIS: error= 1.81D-08 at cycle  15 NSaved=  15.
 NSaved=15 IEnMin=14 EnMin= -1105.70371081909     IErMin=15 ErrMin= 1.81D-08
 ErrMax= 1.81D-08  0.00D+00 EMaxC= 1.00D-01 BMatC= 3.83D-13 BMatP= 3.22D-12
 IDIUse=1 WtCom= 1.00D+00 WtEn= 0.00D+00
 Coeff-Com:  0.228D-06-0.477D-06-0.510D-05-0.118D-04-0.256D-04-0.454D-04
 Coeff-Com:  0.230D-03 0.986D-03 0.184D-02-0.760D-03-0.117D-01-0.396D-01
 Coeff-Com:  0.174D-01 0.279D+00 0.753D+00
 Coeff:      0.228D-06-0.477D-06-0.510D-05-0.118D-04-0.256D-04-0.454D-04
 Coeff:      0.230D-03 0.986D-03 0.184D-02-0.760D-03-0.117D-01-0.396D-01
 Coeff:      0.174D-01 0.279D+00 0.753D+00
 Gap=     0.222 Goal=   None    Shift=    0.000
 RMSDP=5.22D-09 MaxDP=3.23D-07 DE= 5.55D-11 OVMax= 4.31D-07

 SCF Done:  E(RM062X) =  -1105.70371082     A.U. after   15 cycles
            NFock= 15  Conv=0.52D-08     -V/T= 2.0033
 KE= 1.102050789940D+03 PE=-5.102893748366D+03 EE= 1.643761244137D+03
 Leave Link  502 at Sun Feb 19 21:21:08 2023, MaxMem=  6710886400 cpu:            2416.8 elap:             101.0
 (Enter /data0/home/software/g16/l601.exe)
 Copying SCF densities to generalized density rwf, IOpCl= 0 IROHF=0.

 **********************************************************************

            Population analysis using the SCF density.

 **********************************************************************

 Alpha  occ. eigenvalues --  -90.05467 -19.58093 -19.56416 -19.56312 -19.55623
 Alpha  occ. eigenvalues --  -14.89124 -10.65239 -10.65153 -10.63823 -10.61462
 Alpha  occ. eigenvalues --  -10.61208 -10.59866 -10.58030 -10.57906 -10.55733
 Alpha  occ. eigenvalues --   -8.38899  -6.31180  -6.31152  -6.31112  -1.19607
 Alpha  occ. eigenvalues --   -1.16556  -1.09139  -1.06203  -1.04980  -0.99232
 Alpha  occ. eigenvalues --   -0.93803  -0.92180  -0.85074  -0.84022  -0.77659
 Alpha  occ. eigenvalues --   -0.76295  -0.71309  -0.66049  -0.64403  -0.63012
 Alpha  occ. eigenvalues --   -0.60473  -0.59701  -0.57224  -0.56621  -0.55181
 Alpha  occ. eigenvalues --   -0.54647  -0.53533  -0.52322  -0.51520  -0.50266
 Alpha  occ. eigenvalues --   -0.49310  -0.48537  -0.47816  -0.47317  -0.46074
 Alpha  occ. eigenvalues --   -0.45158  -0.44591  -0.43655  -0.39592  -0.38358
 Alpha  occ. eigenvalues --   -0.37212  -0.36135  -0.35933  -0.33685  -0.32824
 Alpha  occ. eigenvalues --   -0.31952  -0.29573
 Alpha virt. eigenvalues --   -0.07385  -0.03584  -0.01856  -0.00222   0.00360
 Alpha virt. eigenvalues --    0.01259   0.01809   0.02848   0.03406   0.03626
 Alpha virt. eigenvalues --    0.04611   0.04900   0.05787   0.06208   0.07039
 Alpha virt. eigenvalues --    0.07242   0.08076   0.08612   0.09213   0.09548
 Alpha virt. eigenvalues --    0.09929   0.10469   0.10742   0.11381   0.12030
 Alpha virt. eigenvalues --    0.12470   0.12659   0.13043   0.13363   0.14121
 Alpha virt. eigenvalues --    0.14810   0.15310   0.15455   0.15846   0.16192
 Alpha virt. eigenvalues --    0.16351   0.16963   0.17577   0.17687   0.18352
 Alpha virt. eigenvalues --    0.18887   0.18943   0.19337   0.19831   0.20082
 Alpha virt. eigenvalues --    0.20210   0.20574   0.20743   0.21172   0.22070
 Alpha virt. eigenvalues --    0.22258   0.22849   0.23338   0.23761   0.24370
 Alpha virt. eigenvalues --    0.24785   0.24905   0.25448   0.25966   0.26200
 Alpha virt. eigenvalues --    0.27031   0.27457   0.27976   0.28519   0.28784
 Alpha virt. eigenvalues --    0.29000   0.29249   0.30118   0.30853   0.31663
 Alpha virt. eigenvalues --    0.32476   0.33163   0.33403   0.33866   0.34891
 Alpha virt. eigenvalues --    0.34916   0.35802   0.36282   0.36506   0.36698
 Alpha virt. eigenvalues --    0.38011   0.38339   0.38890   0.39470   0.41170
 Alpha virt. eigenvalues --    0.41263   0.42067   0.42392   0.43594   0.43771
 Alpha virt. eigenvalues --    0.44378   0.44935   0.45576   0.46060   0.48158
 Alpha virt. eigenvalues --    0.48443   0.48962   0.49752   0.50669   0.51334
 Alpha virt. eigenvalues --    0.52434   0.52894   0.54015   0.54356   0.54755
 Alpha virt. eigenvalues --    0.55910   0.56203   0.57799   0.58855   0.59156
 Alpha virt. eigenvalues --    0.59578   0.60807   0.61119   0.62479   0.62908
 Alpha virt. eigenvalues --    0.63490   0.63889   0.64287   0.65226   0.65518
 Alpha virt. eigenvalues --    0.66269   0.67075   0.67389   0.68216   0.68872
 Alpha virt. eigenvalues --    0.70107   0.70428   0.71066   0.71770   0.72724
 Alpha virt. eigenvalues --    0.73169   0.74580   0.75039   0.76113   0.76708
 Alpha virt. eigenvalues --    0.77668   0.79190   0.79462   0.80829   0.81709
 Alpha virt. eigenvalues --    0.82325   0.82447   0.83458   0.84661   0.85244
 Alpha virt. eigenvalues --    0.86098   0.86234   0.87938   0.89059   0.89455
 Alpha virt. eigenvalues --    0.90709   0.91214   0.92751   0.93952   0.95348
 Alpha virt. eigenvalues --    0.96162   0.97049   0.98017   0.98862   1.01217
 Alpha virt. eigenvalues --    1.01808   1.02195   1.04846   1.05549   1.07021
 Alpha virt. eigenvalues --    1.08315   1.09900   1.11170   1.11985   1.12131
 Alpha virt. eigenvalues --    1.14269   1.16149   1.17988   1.18636   1.19962
 Alpha virt. eigenvalues --    1.21457   1.21771   1.22202   1.22759   1.24949
 Alpha virt. eigenvalues --    1.25434   1.26070   1.26929   1.27234   1.28085
 Alpha virt. eigenvalues --    1.29444   1.29834   1.30921   1.31995   1.32777
 Alpha virt. eigenvalues --    1.32919   1.34153   1.34551   1.35910   1.36752
 Alpha virt. eigenvalues --    1.37249   1.38255   1.38713   1.40212   1.40489
 Alpha virt. eigenvalues --    1.42399   1.43338   1.43525   1.44048   1.45102
 Alpha virt. eigenvalues --    1.46106   1.46789   1.49221   1.49990   1.50939
 Alpha virt. eigenvalues --    1.51281   1.53323   1.55126   1.56165   1.58437
 Alpha virt. eigenvalues --    1.59611   1.60042   1.61196   1.63238   1.63811
 Alpha virt. eigenvalues --    1.64264   1.65097   1.66328   1.68207   1.69692
 Alpha virt. eigenvalues --    1.71928   1.72760   1.75581   1.75887   1.76350
 Alpha virt. eigenvalues --    1.77527   1.79282   1.81076   1.83020   1.83786
 Alpha virt. eigenvalues --    1.84605   1.86127   1.86505   1.86793   1.87996
 Alpha virt. eigenvalues --    1.88287   1.89735   1.93797   1.94850   1.95210
 Alpha virt. eigenvalues --    1.99657   1.99958   2.00989   2.01349   2.04394
 Alpha virt. eigenvalues --    2.04643   2.05696   2.07421   2.12018   2.12638
 Alpha virt. eigenvalues --    2.14308   2.16348   2.17065   2.18081   2.18598
 Alpha virt. eigenvalues --    2.19571   2.20683   2.22981   2.25034   2.27756
 Alpha virt. eigenvalues --    2.28987   2.30585   2.31317   2.31828   2.33758
 Alpha virt. eigenvalues --    2.34409   2.34884   2.36532   2.37327   2.38239
 Alpha virt. eigenvalues --    2.39651   2.40778   2.44321   2.45596   2.47108
 Alpha virt. eigenvalues --    2.48020   2.48920   2.52133   2.55973   2.57211
 Alpha virt. eigenvalues --    2.61028   2.63715   2.64889   2.66091   2.70686
 Alpha virt. eigenvalues --    2.73105   2.74308   2.74708   2.76218   2.77586
 Alpha virt. eigenvalues --    2.78265   2.80827   2.83455   2.84238   2.84812
 Alpha virt. eigenvalues --    2.86416   2.88193   2.88722   2.89761   2.92065
 Alpha virt. eigenvalues --    2.93530   2.94891   2.96052   2.98682   2.99262
 Alpha virt. eigenvalues --    3.01281   3.03145   3.07540   3.08666   3.11781
 Alpha virt. eigenvalues --    3.13271   3.13562   3.16292   3.18444   3.19055
 Alpha virt. eigenvalues --    3.20324   3.21786   3.24798   3.28615   3.29120
 Alpha virt. eigenvalues --    3.30589   3.31679   3.34355   3.35829   3.37186
 Alpha virt. eigenvalues --    3.39056   3.40118   3.40969   3.43524   3.44320
 Alpha virt. eigenvalues --    3.46627   3.47306   3.47805   3.49075   3.50124
 Alpha virt. eigenvalues --    3.51417   3.53153   3.55492   3.57259   3.59051
 Alpha virt. eigenvalues --    3.60211   3.60453   3.61998   3.62368   3.63712
 Alpha virt. eigenvalues --    3.63794   3.66539   3.68914   3.69707   3.71596
 Alpha virt. eigenvalues --    3.71986   3.73512   3.75882   3.78505   3.80760
 Alpha virt. eigenvalues --    3.81808   3.84011   3.85022   3.88589   3.91014
 Alpha virt. eigenvalues --    3.94452   3.98451   4.02435   4.03879   4.05149
 Alpha virt. eigenvalues --    4.08397   4.13941   4.15718   4.17463   4.18257
 Alpha virt. eigenvalues --    4.24404   4.28762   4.39635   4.48698   4.50816
 Alpha virt. eigenvalues --    4.62958   4.70060   4.97131   5.01390   5.06247
 Alpha virt. eigenvalues --    5.11386   5.20564   5.22796   5.23916   5.25082
 Alpha virt. eigenvalues --    5.27695   5.29135   5.30939   5.39005   5.41802
 Alpha virt. eigenvalues --    5.45112   5.52856   5.57128   5.58625   5.65157
 Alpha virt. eigenvalues --    5.75310   5.98717   6.80313   6.82811   6.84712
 Alpha virt. eigenvalues --    6.86075   6.86310   6.88371   6.90946   6.93602
 Alpha virt. eigenvalues --    6.94220   6.96229   6.99783   7.00403   7.02850
 Alpha virt. eigenvalues --    7.10366   7.18496   7.22092   7.23751   7.30664
 Alpha virt. eigenvalues --    7.43018   7.43989   8.61911  17.77772  17.82131
 Alpha virt. eigenvalues --   17.84540  23.80782  23.92877  23.96802  24.00077
 Alpha virt. eigenvalues --   24.03796  24.06650  24.09668  24.10645  24.22147
 Alpha virt. eigenvalues --   35.67792  50.06002  50.08508  50.15969  50.18260
 Alpha virt. eigenvalues --  189.92262
          Condensed to atoms (all electrons):
               1          2          3          4          5          6
     1  C   10.606994  -3.695400   1.485640  -0.404496  -1.184358   0.006589
     2  C   -3.695400  10.199156  -2.073724   1.058069   0.160565   0.003364
     3  C    1.485640  -2.073724   7.984331   0.180214  -1.143625   0.318599
     4  C   -0.404496   1.058069   0.180214   8.320714  -2.069322   0.007503
     5  C   -1.184358   0.160565  -1.143625  -2.069322   8.784221   0.010897
     6  H    0.006589   0.003364   0.318599   0.007503   0.010897   0.498455
     7  H    0.287207   0.060001   0.000121   0.004402   0.002195  -0.000231
     8  H    0.002380   0.353799  -0.021853   0.000068  -0.000347  -0.003494
     9  H   -0.015345   0.002187  -0.010462  -0.018008   0.435823  -0.000159
    10  C   -0.007619  -0.570138  -0.104238  -1.424994   1.146410  -0.003105
    11  H   -0.010258   0.019956  -0.028206  -0.006658  -0.028658   0.000807
    12  H    0.011809  -0.012707   0.021088   0.074721  -0.084738   0.000379
    13  H   -0.000259  -0.002553  -0.060368  -0.273723   0.224272   0.000092
    14  N   -0.288863   0.411976  -0.201683   0.099595   0.118737   0.000239
    15  C   -0.038286  -0.136111  -0.101380  -0.223952   0.179085   0.000112
    16  H    0.015020  -0.008323   0.004962  -0.008678  -0.009303  -0.000002
    17  H   -0.055568   0.029344  -0.016737   0.020010   0.044175  -0.000002
    18  C    0.062914  -0.070498   0.085888  -0.105197  -0.061159  -0.000026
    19  H   -0.031868   0.040554  -0.004448  -0.000943   0.000614  -0.000001
    20  H   -0.000202  -0.007047   0.000157   0.003899   0.007674  -0.000000
    21  C   -0.155484   0.113580  -0.061235   0.010664  -0.002031  -0.000010
    22  H    0.008068   0.003496   0.000517   0.002054  -0.000176  -0.000000
    23  H   -0.000293  -0.000618  -0.000248  -0.000403  -0.000913   0.000000
    24  S   -0.266749   0.102605  -0.043984  -0.025278   0.034073  -0.000016
    25  O   -0.009274   0.023868  -0.006168  -0.001004   0.001002  -0.000000
    26  O    0.101617  -0.079390   0.017170   0.004468  -0.007676   0.000002
    27  O    0.052005   0.037744  -0.042098   0.044914   0.001281   0.000066
    28  O    0.042965   0.010157  -0.021880   0.007440   0.002327   0.000127
    29  H    0.009188  -0.006032  -0.001631  -0.000624  -0.000206  -0.000002
    30  H   -0.113391   0.089351   0.006752  -0.008422  -0.000388  -0.000105
               7          8          9         10         11         12
     1  C    0.287207   0.002380  -0.015345  -0.007619  -0.010258   0.011809
     2  C    0.060001   0.353799   0.002187  -0.570138   0.019956  -0.012707
     3  C    0.000121  -0.021853  -0.010462  -0.104238  -0.028206   0.021088
     4  C    0.004402   0.000068  -0.018008  -1.424994  -0.006658   0.074721
     5  C    0.002195  -0.000347   0.435823   1.146410  -0.028658  -0.084738
     6  H   -0.000231  -0.003494  -0.000159  -0.003105   0.000807   0.000379
     7  H    0.440883  -0.001472  -0.000133   0.000974   0.000004  -0.000005
     8  H   -0.001472   0.458567   0.000032   0.002731  -0.000008  -0.000007
     9  H   -0.000133   0.000032   0.491159   0.006188  -0.000141   0.000011
    10  C    0.000974   0.002731   0.006188   6.601382   0.417417   0.351678
    11  H    0.000004  -0.000008  -0.000141   0.417417   0.506100  -0.030698
    12  H   -0.000005  -0.000007   0.000011   0.351678  -0.030698   0.483633
    13  H   -0.000002   0.000008   0.004337   0.468874  -0.020875  -0.021912
    14  N   -0.027124   0.011854  -0.061365  -0.107770  -0.000186   0.001412
    15  C    0.007576   0.001062   0.001573   0.078195  -0.001040  -0.000779
    16  H    0.000494  -0.000002   0.001032  -0.001776  -0.000003   0.000003
    17  H    0.000102   0.000012   0.006456   0.003287   0.000005  -0.000012
    18  C    0.002334   0.001921   0.002518   0.006951   0.000036  -0.000094
    19  H    0.007898   0.000021   0.000038   0.000313  -0.000000  -0.000000
    20  H   -0.000679  -0.000002  -0.000043  -0.000115   0.000000   0.000000
    21  C    0.008048  -0.000382  -0.000776  -0.005903  -0.000063   0.000022
    22  H    0.000020  -0.000002  -0.000194  -0.001202   0.000000  -0.000000
    23  H   -0.000004   0.000001   0.000007   0.000124   0.000000   0.000000
    24  S    0.013037   0.000837   0.002162  -0.002763   0.000007   0.000004
    25  O   -0.000018  -0.000028  -0.000029  -0.002461  -0.000000  -0.000001
    26  O   -0.004420   0.000147   0.000009   0.001399   0.000000  -0.000001
    27  O   -0.025194  -0.001507   0.000152   0.006365   0.000062  -0.000208
    28  O   -0.006076  -0.002151  -0.000003  -0.000282   0.000002  -0.000002
    29  H    0.000029   0.000122  -0.000000  -0.000107  -0.000000   0.000000
    30  H    0.004237   0.000332   0.000005  -0.001031  -0.000001   0.000001
              13         14         15         16         17         18
     1  C   -0.000259  -0.288863  -0.038286   0.015020  -0.055568   0.062914
     2  C   -0.002553   0.411976  -0.136111  -0.008323   0.029344  -0.070498
     3  C   -0.060368  -0.201683  -0.101380   0.004962  -0.016737   0.085888
     4  C   -0.273723   0.099595  -0.223952  -0.008678   0.020010  -0.105197
     5  C    0.224272   0.118737   0.179085  -0.009303   0.044175  -0.061159
     6  H    0.000092   0.000239   0.000112  -0.000002  -0.000002  -0.000026
     7  H   -0.000002  -0.027124   0.007576   0.000494   0.000102   0.002334
     8  H    0.000008   0.011854   0.001062  -0.000002   0.000012   0.001921
     9  H    0.004337  -0.061365   0.001573   0.001032   0.006456   0.002518
    10  C    0.468874  -0.107770   0.078195  -0.001776   0.003287   0.006951
    11  H   -0.020875  -0.000186  -0.001040  -0.000003   0.000005   0.000036
    12  H   -0.021912   0.001412  -0.000779   0.000003  -0.000012  -0.000094
    13  H    0.509900   0.000466   0.007624  -0.000003   0.000033  -0.000134
    14  N    0.000466   6.494006   0.101246  -0.049902  -0.082010  -0.017764
    15  C    0.007624   0.101246   6.046007   0.434796   0.446939  -0.111360
    16  H   -0.000003  -0.049902   0.434796   0.494127  -0.027318  -0.047351
    17  H    0.000033  -0.082010   0.446939  -0.027318   0.504748  -0.038448
    18  C   -0.000134  -0.017764  -0.111360  -0.047351  -0.038448   6.292427
    19  H    0.000000  -0.018303  -0.079071  -0.000598   0.004951   0.470152
    20  H    0.000000   0.008836   0.018872  -0.007767  -0.001449   0.383898
    21  C    0.000197   0.051339  -0.231006   0.017165  -0.022894  -0.589504
    22  H   -0.000001  -0.005919  -0.014716   0.000462   0.004551  -0.047533
    23  H    0.000000   0.000623   0.020845  -0.000282   0.000057  -0.049231
    24  S    0.000100   0.056942  -0.005422  -0.000119   0.003823   0.076103
    25  O   -0.000001  -0.011116  -0.004967   0.000034   0.000653   0.021105
    26  O    0.000000  -0.007078   0.024688  -0.000192  -0.000277   0.019883
    27  O    0.000009  -0.102303   0.006451   0.000001  -0.000579  -0.158559
    28  O    0.000001  -0.021357  -0.014487   0.000089   0.000059  -0.003678
    29  H    0.000000  -0.000264   0.002792  -0.000009  -0.000000  -0.003597
    30  H   -0.000000   0.021688   0.001025   0.000002   0.000020  -0.001551
              19         20         21         22         23         24
     1  C   -0.031868  -0.000202  -0.155484   0.008068  -0.000293  -0.266749
     2  C    0.040554  -0.007047   0.113580   0.003496  -0.000618   0.102605
     3  C   -0.004448   0.000157  -0.061235   0.000517  -0.000248  -0.043984
     4  C   -0.000943   0.003899   0.010664   0.002054  -0.000403  -0.025278
     5  C    0.000614   0.007674  -0.002031  -0.000176  -0.000913   0.034073
     6  H   -0.000001  -0.000000  -0.000010  -0.000000   0.000000  -0.000016
     7  H    0.007898  -0.000679   0.008048   0.000020  -0.000004   0.013037
     8  H    0.000021  -0.000002  -0.000382  -0.000002   0.000001   0.000837
     9  H    0.000038  -0.000043  -0.000776  -0.000194   0.000007   0.002162
    10  C    0.000313  -0.000115  -0.005903  -0.001202   0.000124  -0.002763
    11  H   -0.000000   0.000000  -0.000063   0.000000   0.000000   0.000007
    12  H   -0.000000   0.000000   0.000022  -0.000000   0.000000   0.000004
    13  H    0.000000   0.000000   0.000197  -0.000001   0.000000   0.000100
    14  N   -0.018303   0.008836   0.051339  -0.005919   0.000623   0.056942
    15  C   -0.079071   0.018872  -0.231006  -0.014716   0.020845  -0.005422
    16  H   -0.000598  -0.007767   0.017165   0.000462  -0.000282  -0.000119
    17  H    0.004951  -0.001449  -0.022894   0.004551   0.000057   0.003823
    18  C    0.470152   0.383898  -0.589504  -0.047533  -0.049231   0.076103
    19  H    0.468718  -0.028597  -0.023366   0.003309   0.000022   0.006554
    20  H   -0.028597   0.513547  -0.060450   0.000026  -0.007275   0.004149
    21  C   -0.023366  -0.060450   6.834776   0.468862   0.375789  -0.082061
    22  H    0.003309   0.000026   0.468862   0.485212  -0.031792  -0.075265
    23  H    0.000022  -0.007275   0.375789  -0.031792   0.487405  -0.000059
    24  S    0.006554   0.004149  -0.082061  -0.075265  -0.000059  14.105161
    25  O    0.001854  -0.000532  -0.129830   0.018058  -0.000770   0.477684
    26  O   -0.005878  -0.000749  -0.071556  -0.010146   0.011688   0.378647
    27  O   -0.000981   0.001791   0.057165   0.003818  -0.003920   0.170175
    28  O    0.001185   0.000067  -0.036952   0.000025   0.000322   0.014474
    29  H   -0.000336   0.000036  -0.005736   0.000004   0.000037   0.012728
    30  H    0.000358  -0.000051   0.028146   0.000094  -0.000369   0.010345
              25         26         27         28         29         30
     1  C   -0.009274   0.101617   0.052005   0.042965   0.009188  -0.113391
     2  C    0.023868  -0.079390   0.037744   0.010157  -0.006032   0.089351
     3  C   -0.006168   0.017170  -0.042098  -0.021880  -0.001631   0.006752
     4  C   -0.001004   0.004468   0.044914   0.007440  -0.000624  -0.008422
     5  C    0.001002  -0.007676   0.001281   0.002327  -0.000206  -0.000388
     6  H   -0.000000   0.000002   0.000066   0.000127  -0.000002  -0.000105
     7  H   -0.000018  -0.004420  -0.025194  -0.006076   0.000029   0.004237
     8  H   -0.000028   0.000147  -0.001507  -0.002151   0.000122   0.000332
     9  H   -0.000029   0.000009   0.000152  -0.000003  -0.000000   0.000005
    10  C   -0.002461   0.001399   0.006365  -0.000282  -0.000107  -0.001031
    11  H   -0.000000   0.000000   0.000062   0.000002  -0.000000  -0.000001
    12  H   -0.000001  -0.000001  -0.000208  -0.000002   0.000000   0.000001
    13  H   -0.000001   0.000000   0.000009   0.000001   0.000000  -0.000000
    14  N   -0.011116  -0.007078  -0.102303  -0.021357  -0.000264   0.021688
    15  C   -0.004967   0.024688   0.006451  -0.014487   0.002792   0.001025
    16  H    0.000034  -0.000192   0.000001   0.000089  -0.000009   0.000002
    17  H    0.000653  -0.000277  -0.000579   0.000059  -0.000000   0.000020
    18  C    0.021105   0.019883  -0.158559  -0.003678  -0.003597  -0.001551
    19  H    0.001854  -0.005878  -0.000981   0.001185  -0.000336   0.000358
    20  H   -0.000532  -0.000749   0.001791   0.000067   0.000036  -0.000051
    21  C   -0.129830  -0.071556   0.057165  -0.036952  -0.005736   0.028146
    22  H    0.018058  -0.010146   0.003818   0.000025   0.000004   0.000094
    23  H   -0.000770   0.011688  -0.003920   0.000322   0.000037  -0.000369
    24  S    0.477684   0.378647   0.170175   0.014474   0.012728   0.010345
    25  O    8.198839  -0.096917  -0.017340   0.000206   0.000203  -0.001803
    26  O   -0.096917   8.436232  -0.074090   0.006237   0.006203  -0.021552
    27  O   -0.017340  -0.074090   8.667924   0.003540   0.001623   0.021349
    28  O    0.000206   0.006237   0.003540   8.058650   0.300874   0.241316
    29  H    0.000203   0.006203   0.001623   0.300874   0.388836  -0.018880
    30  H   -0.001803  -0.021552   0.021349   0.241316  -0.018880   0.453693
 Mulliken charges:
               1
     1  C   -0.414682
     2  C   -0.057231
     3  C   -0.161471
     4  C    0.732967
     5  C   -0.560451
     6  H    0.159922
     7  H    0.225796
     8  H    0.197361
     9  H    0.152968
    10  C   -0.858782
    11  H    0.182399
    12  H    0.206404
    13  H    0.163919
    14  N    0.624050
    15  C   -0.416312
    16  H    0.193439
    17  H    0.176068
    18  C   -0.120447
    19  H    0.187849
    20  H    0.172004
    21  C   -0.486515
    22  H    0.188370
    23  H    0.199256
    24  S    1.032107
    25  O   -0.461249
    26  O   -0.628469
    27  O   -0.649658
    28  O   -0.583196
    29  H    0.314751
    30  H    0.288832
 Sum of Mulliken charges =  -0.00000
 Mulliken charges with hydrogens summed into heavy atoms:
               1
     1  C   -0.188886
     2  C    0.140130
     3  C   -0.001548
     4  C    0.732967
     5  C   -0.407482
    10  C   -0.306060
    14  N    0.624050
    15  C   -0.046806
    18  C    0.239406
    21  C   -0.098889
    24  S    1.032107
    25  O   -0.461249
    26  O   -0.628469
    27  O   -0.649658
    28  O    0.020388
         Mulliken charges condensed to fragments:
      1     -0.020388
      2      0.020388
 Electronic spatial extent (au):  <R**2>=         151206.3143
 Charge=             -0.0000 electrons
 Dipole moment (field-independent basis, Debye):
    X=             -6.3395    Y=             -8.7413    Z=             -7.7252  Tot=             13.2770
 Quadrupole moment (field-independent basis, Debye-Ang):
   XX=           -219.6342   YY=           -296.1224   ZZ=           -256.3061
   XY=           -169.4887   XZ=           -155.4543   YZ=           -170.1543
 Traceless Quadrupole moment (field-independent basis, Debye-Ang):
   XX=             37.7200   YY=            -38.7682   ZZ=              1.0482
   XY=           -169.4887   XZ=           -155.4543   YZ=           -170.1543
 Octapole moment (field-independent basis, Debye-Ang**2):
  XXX=          -4779.9204  YYY=          -6823.4067  ZZZ=          -5297.6871  XYY=          -4043.8500
  XXY=          -3599.4464  XXZ=          -3247.1517  XZZ=          -3524.4967  YZZ=          -3739.0712
  YYZ=          -3825.0775  XYZ=          -2680.1258
 Hexadecapole moment (field-independent basis, Debye-Ang**3):
 XXXX=         -85690.7716 YYYY=        -133938.3076 ZZZZ=         -91091.6361 XXXY=         -66970.3325
 XXXZ=         -59314.9481 YYYX=         -82716.2561 YYYZ=         -77390.8176 ZZZX=         -64681.8923
 ZZZY=         -69491.4059 XXYY=         -64388.1151 XXZZ=         -54256.1909 YYZZ=         -61933.5257
 XXYZ=         -47356.3510 YYXZ=         -50716.7803 ZZXY=         -49190.0851
 N-N= 1.251378003470D+03 E-N=-5.102893744363D+03  KE= 1.102050789940D+03
 No NMR shielding tensors so no spin-rotation constants.
 Leave Link  601 at Sun Feb 19 21:21:08 2023, MaxMem=  6710886400 cpu:               3.5 elap:               0.2
 (Enter /data0/home/software/g16/l122.exe)
 CPIOFr:  IOpCl= 0 IRwI=-1 IRwCP=  731 ICalc= -1 LCPTot=      389292 Len1MO=     1022495 IndFrg=      389292
 CPIOFr:  IOpCl= 0 IRwI=-1 IRwCP=  731 ICalc=  0 LCPTot=      389292 Len1MO=     1022495 IndFrg=     1411787
 Counterpoise: doing calculation for fragment   1 using the basis set of the full-system, NewBq=T
 Leave Link  122 at Sun Feb 19 21:21:08 2023, MaxMem=  6710886400 cpu:               0.4 elap:               0.0
 (Enter /data0/home/software/g16/l301.exe)
 Basis read from rwf:  (5D, 7F)
 No pseudopotential information found on rwf file.
   503 basis functions,   764 primitive gaussians,   533 cartesian basis functions
    57 alpha electrons       57 beta electrons
       nuclear repulsion energy      1086.1484321433 Hartrees.
 IExCor= 4336 DFT=T Ex+Corr=M062X ExCW=0 ScaHFX=  0.540000
 ScaDFX=  1.000000  1.000000  1.000000  1.000000 ScalE2=  1.000000  1.000000
 IRadAn=      5 IRanWt=     -1 IRanGd=            0 ICorTp=0 IEmpDi=131
 NAtoms=   30 NActive=   30 NUniq=   30 SFac= 1.00D+00 NAtFMM=   60 NAOKFM=F Big=F
 Integral buffers will be    131072 words long.
 Raffenetti 2 integral format.
 Two-electron integral symmetry is turned off.
 R6Disp:  Grimme-D3 Dispersion energy=       -0.0014144947 Hartrees.
 Nuclear repulsion after empirical dispersion term =     1086.1470176486 Hartrees.
 No density basis found on file   718.
 Leave Link  301 at Sun Feb 19 21:21:08 2023, MaxMem=  6710886400 cpu:               1.3 elap:               0.1
 (Enter /data0/home/software/g16/l302.exe)
 NPDir=0 NMtPBC=     1 NCelOv=     1 NCel=       1 NClECP=     1 NCelD=      1
         NCelK=      1 NCelE2=     1 NClLst=     1 CellRange=     0.0.
 One-electron integrals computed using PRISM.
 NBasis=   503 RedAO= T EigKep=  2.31D-06  NBF=   503
 NBsUse=   503 1.00D-06 EigRej= -1.00D+00 NBFU=   503
 Precomputing XC quadrature grid using
 IXCGrd= 4 IRadAn=           5 IRanWt=          -1 IRanGd=           0 AccXCQ= 0.00D+00.
 Generated NRdTot=       0 NPtTot=           0 NUsed=           0 NTot=          32
 NSgBfM=   532   530   530   530   532 MxSgAt=    30 MxSgA2=    30.
 Leave Link  302 at Sun Feb 19 21:21:09 2023, MaxMem=  6710886400 cpu:              11.5 elap:               0.5
 (Enter /data0/home/software/g16/l303.exe)
 DipDrv:  MaxL=1.
 Leave Link  303 at Sun Feb 19 21:21:09 2023, MaxMem=  6710886400 cpu:               1.2 elap:               0.1
 (Enter /data0/home/software/g16/l401.exe)
 ExpMin= 4.05D-02 ExpMax= 9.34D+04 ExpMxC= 3.17D+03 IAcc=3 IRadAn=         5 AccDes= 0.00D+00
 Harris functional with IExCor= 1009 and IRadAn=       5 diagonalized for initial guess.
 HarFok:  IExCor= 1009 AccDes= 0.00D+00 IRadAn=         5 IDoV= 1 UseB2=F ITyADJ=14
 ICtDFT=  3500011 ScaDFX=  1.000000  1.000000  1.000000  1.000000
 FoFCou: FMM=F IPFlag=           0 FMFlag=      100000 FMFlg1=           0
         NFxFlg=           0 DoJE=T BraDBF=F KetDBF=T FulRan=T
         wScrn=  0.000000 ICntrl=       500 IOpCl=  0 I1Cent=   200000004 NGrid=           0
         NMat0=    1 NMatS0=      1 NMatT0=    0 NMatD0=    1 NMtDS0=    0 NMtDT0=    0
 Symmetry not used in FoFCou.
 Harris En= -1028.88468540136    
 JPrj=0 DoOrth=F DoCkMO=F.
 Leave Link  401 at Sun Feb 19 21:21:11 2023, MaxMem=  6710886400 cpu:              43.3 elap:               1.8
 (Enter /data0/home/software/g16/l502.exe)
 Two-electron integral symmetry not used.
 Closed shell SCF:
 Using DIIS extrapolation, IDIIS=  1040.
 NGot=  6710886400 LenX=  6710301663 LenY=  6710017041
 Requested convergence on RMS density matrix=1.00D-08 within 128 cycles.
 Requested convergence on MAX density matrix=1.00D-06.
 Requested convergence on             energy=1.00D-06.
 No special actions if energy rises.
 Fock matrices will be formed incrementally for  20 cycles.

 Cycle   1  Pass 1  IDiag  1:
 FoFJK:  IHMeth= 1 ICntrl=       0 DoSepK=F KAlg= 0 I1Cent=           0 FoldK=F
 IRaf= 880000000 NMat=       1 IRICut=       1 DoRegI=T DoRafI=F ISym2E= 0 IDoP0=0 IntGTp=1.
 FoFCou: FMM=F IPFlag=           0 FMFlag=      100000 FMFlg1=           0
         NFxFlg=           0 DoJE=F BraDBF=F KetDBF=F FulRan=T
         wScrn=  0.000000 ICntrl=         0 IOpCl=  0 I1Cent=           0 NGrid=           0
         NMat0=    1 NMatS0=      1 NMatT0=    0 NMatD0=    1 NMtDS0=    0 NMtDT0=    0
 Symmetry not used in FoFCou.
 E= -1028.73720388259    
 DIIS: error= 1.56D-02 at cycle   1 NSaved=   1.
 NSaved= 1 IEnMin= 1 EnMin= -1028.73720388259     IErMin= 1 ErrMin= 1.56D-02
 ErrMax= 1.56D-02  0.00D+00 EMaxC= 1.00D-01 BMatC= 7.85D-01 BMatP= 7.85D-01
 IDIUse=3 WtCom= 8.44D-01 WtEn= 1.56D-01
 Coeff-Com:  0.100D+01
 Coeff-En:   0.100D+01
 Coeff:      0.100D+01
 Gap=     0.208 Goal=   None    Shift=    0.000
 GapD=    0.208 DampG=1.000 DampE=0.500 DampFc=0.5000 IDamp=-1.
 Damping current iteration by 5.00D-01
 RMSDP=1.32D-02 MaxDP=2.04D+00              OVMax= 2.04D-01

 Cycle   2  Pass 1  IDiag  1:
 RMSU=  5.62D-03    CP:  1.21D+00
 E= -1028.95300296682     Delta-E=       -0.215799084227 Rises=F Damp=T
 DIIS: error= 5.49D-03 at cycle   2 NSaved=   2.
 NSaved= 2 IEnMin= 2 EnMin= -1028.95300296682     IErMin= 2 ErrMin= 5.49D-03
 ErrMax= 5.49D-03  0.00D+00 EMaxC= 1.00D-01 BMatC= 5.95D-02 BMatP= 7.85D-01
 IDIUse=3 WtCom= 9.45D-01 WtEn= 5.49D-02
 Coeff-Com:  0.553D-01 0.945D+00
 Coeff-En:   0.153D+00 0.847D+00
 Coeff:      0.606D-01 0.939D+00
 Gap=     0.222 Goal=   None    Shift=    0.000
 RMSDP=4.60D-03 MaxDP=1.01D+00 DE=-2.16D-01 OVMax= 1.57D-01

 Cycle   3  Pass 1  IDiag  1:
 RMSU=  3.04D-03    CP:  1.03D+00  6.91D-01
 E= -1029.23006338916     Delta-E=       -0.277060422335 Rises=F Damp=F
 DIIS: error= 3.69D-03 at cycle   3 NSaved=   3.
 NSaved= 3 IEnMin= 3 EnMin= -1029.23006338916     IErMin= 3 ErrMin= 3.69D-03
 ErrMax= 3.69D-03  0.00D+00 EMaxC= 1.00D-01 BMatC= 2.85D-02 BMatP= 5.95D-02
 IDIUse=3 WtCom= 9.63D-01 WtEn= 3.69D-02
 Coeff-Com: -0.515D-01 0.391D+00 0.660D+00
 Coeff-En:   0.000D+00 0.000D+00 0.100D+01
 Coeff:     -0.496D-01 0.377D+00 0.673D+00
 Gap=     0.194 Goal=   None    Shift=    0.000
 RMSDP=1.04D-03 MaxDP=8.78D-02 DE=-2.77D-01 OVMax= 3.74D-02

 Cycle   4  Pass 1  IDiag  1:
 RMSU=  9.39D-04    CP:  1.02D+00  7.66D-01  9.93D-01
 E= -1029.25012370672     Delta-E=       -0.020060317565 Rises=F Damp=F
 DIIS: error= 1.69D-03 at cycle   4 NSaved=   4.
 NSaved= 4 IEnMin= 4 EnMin= -1029.25012370672     IErMin= 4 ErrMin= 1.69D-03
 ErrMax= 1.69D-03  0.00D+00 EMaxC= 1.00D-01 BMatC= 3.96D-03 BMatP= 2.85D-02
 IDIUse=3 WtCom= 9.83D-01 WtEn= 1.69D-02
 Coeff-Com: -0.280D-01 0.839D-01 0.322D+00 0.622D+00
 Coeff-En:   0.000D+00 0.000D+00 0.878D-01 0.912D+00
 Coeff:     -0.275D-01 0.825D-01 0.318D+00 0.627D+00
 Gap=     0.199 Goal=   None    Shift=    0.000
 RMSDP=3.86D-04 MaxDP=4.47D-02 DE=-2.01D-02 OVMax= 1.49D-02

 Cycle   5  Pass 1  IDiag  1:
 RMSU=  2.77D-04    CP:  1.02D+00  7.64D-01  9.87D-01  7.25D-01
 E= -1029.25367828026     Delta-E=       -0.003554573543 Rises=F Damp=F
 DIIS: error= 3.60D-04 at cycle   5 NSaved=   5.
 NSaved= 5 IEnMin= 5 EnMin= -1029.25367828026     IErMin= 5 ErrMin= 3.60D-04
 ErrMax= 3.60D-04  0.00D+00 EMaxC= 1.00D-01 BMatC= 2.15D-04 BMatP= 3.96D-03
 IDIUse=3 WtCom= 9.96D-01 WtEn= 3.60D-03
 Coeff-Com: -0.931D-02 0.199D-01 0.108D+00 0.283D+00 0.598D+00
 Coeff-En:   0.000D+00 0.000D+00 0.000D+00 0.000D+00 0.100D+01
 Coeff:     -0.927D-02 0.198D-01 0.108D+00 0.282D+00 0.600D+00
 Gap=     0.200 Goal=   None    Shift=    0.000
 RMSDP=9.25D-05 MaxDP=1.17D-02 DE=-3.55D-03 OVMax= 4.78D-03

 Cycle   6  Pass 1  IDiag  1:
 RMSU=  5.52D-05    CP:  1.02D+00  7.62D-01  9.94D-01  7.73D-01  8.47D-01
 E= -1029.25385391762     Delta-E=       -0.000175637361 Rises=F Damp=F
 DIIS: error= 1.22D-04 at cycle   6 NSaved=   6.
 NSaved= 6 IEnMin= 6 EnMin= -1029.25385391762     IErMin= 6 ErrMin= 1.22D-04
 ErrMax= 1.22D-04  0.00D+00 EMaxC= 1.00D-01 BMatC= 2.73D-05 BMatP= 2.15D-04
 IDIUse=3 WtCom= 9.99D-01 WtEn= 1.22D-03
 Coeff-Com: -0.128D-02-0.169D-03 0.156D-01 0.664D-01 0.300D+00 0.620D+00
 Coeff-En:   0.000D+00 0.000D+00 0.000D+00 0.000D+00 0.375D-02 0.996D+00
 Coeff:     -0.128D-02-0.168D-03 0.156D-01 0.663D-01 0.299D+00 0.620D+00
 Gap=     0.200 Goal=   None    Shift=    0.000
 RMSDP=2.78D-05 MaxDP=3.36D-03 DE=-1.76D-04 OVMax= 1.15D-03

 Cycle   7  Pass 1  IDiag  1:
 RMSU=  2.30D-05    CP:  1.02D+00  7.62D-01  9.93D-01  7.78D-01  8.95D-01
                    CP:  9.97D-01
 E= -1029.25387752574     Delta-E=       -0.000023608117 Rises=F Damp=F
 DIIS: error= 3.54D-05 at cycle   7 NSaved=   7.
 NSaved= 7 IEnMin= 7 EnMin= -1029.25387752574     IErMin= 7 ErrMin= 3.54D-05
 ErrMax= 3.54D-05  0.00D+00 EMaxC= 1.00D-01 BMatC= 1.32D-06 BMatP= 2.73D-05
 IDIUse=1 WtCom= 1.00D+00 WtEn= 0.00D+00
 Coeff-Com:  0.554D-03-0.206D-02-0.626D-02-0.703D-02 0.477D-01 0.200D+00
 Coeff-Com:  0.767D+00
 Coeff:      0.554D-03-0.206D-02-0.626D-02-0.703D-02 0.477D-01 0.200D+00
 Coeff:      0.767D+00
 Gap=     0.200 Goal=   None    Shift=    0.000
 RMSDP=1.21D-05 MaxDP=8.53D-04 DE=-2.36D-05 OVMax= 5.71D-04

 Cycle   8  Pass 1  IDiag  1:
 RMSU=  7.78D-06    CP:  1.02D+00  7.61D-01  9.94D-01  7.78D-01  9.10D-01
                    CP:  1.06D+00  9.82D-01
 E= -1029.25387918386     Delta-E=       -0.000001658114 Rises=F Damp=F
 DIIS: error= 1.15D-05 at cycle   8 NSaved=   8.
 NSaved= 8 IEnMin= 8 EnMin= -1029.25387918386     IErMin= 8 ErrMin= 1.15D-05
 ErrMax= 1.15D-05  0.00D+00 EMaxC= 1.00D-01 BMatC= 1.84D-07 BMatP= 1.32D-06
 IDIUse=1 WtCom= 1.00D+00 WtEn= 0.00D+00
 Coeff-Com:  0.328D-03-0.626D-03-0.433D-02-0.113D-01-0.187D-01-0.166D-01
 Coeff-Com:  0.268D+00 0.783D+00
 Coeff:      0.328D-03-0.626D-03-0.433D-02-0.113D-01-0.187D-01-0.166D-01
 Coeff:      0.268D+00 0.783D+00
 Gap=     0.200 Goal=   None    Shift=    0.000
 RMSDP=3.98D-06 MaxDP=5.86D-04 DE=-1.66D-06 OVMax= 2.88D-04

 Cycle   9  Pass 1  IDiag  1:
 RMSU=  2.37D-06    CP:  1.02D+00  7.61D-01  9.94D-01  7.77D-01  9.18D-01
                    CP:  1.09D+00  1.05D+00  1.11D+00
 E= -1029.25387945245     Delta-E=       -0.000000268592 Rises=F Damp=F
 DIIS: error= 3.49D-06 at cycle   9 NSaved=   9.
 NSaved= 9 IEnMin= 9 EnMin= -1029.25387945245     IErMin= 9 ErrMin= 3.49D-06
 ErrMax= 3.49D-06  0.00D+00 EMaxC= 1.00D-01 BMatC= 1.47D-08 BMatP= 1.84D-07
 IDIUse=1 WtCom= 1.00D+00 WtEn= 0.00D+00
 Coeff-Com:  0.576D-04-0.632D-04-0.101D-02-0.328D-02-0.897D-02-0.203D-01
 Coeff-Com:  0.318D-01 0.238D+00 0.764D+00
 Coeff:      0.576D-04-0.632D-04-0.101D-02-0.328D-02-0.897D-02-0.203D-01
 Coeff:      0.318D-01 0.238D+00 0.764D+00
 Gap=     0.200 Goal=   None    Shift=    0.000
 RMSDP=1.22D-06 MaxDP=1.03D-04 DE=-2.69D-07 OVMax= 8.81D-05

 Cycle  10  Pass 1  IDiag  1:
 RMSU=  7.82D-07    CP:  1.02D+00  7.61D-01  9.94D-01  7.77D-01  9.18D-01
                    CP:  1.10D+00  1.07D+00  1.19D+00  1.10D+00
 E= -1029.25387947522     Delta-E=       -0.000000022774 Rises=F Damp=F
 DIIS: error= 1.85D-06 at cycle  10 NSaved=  10.
 NSaved=10 IEnMin=10 EnMin= -1029.25387947522     IErMin=10 ErrMin= 1.85D-06
 ErrMax= 1.85D-06  0.00D+00 EMaxC= 1.00D-01 BMatC= 4.03D-09 BMatP= 1.47D-08
 IDIUse=1 WtCom= 1.00D+00 WtEn= 0.00D+00
 Coeff-Com: -0.310D-04 0.861D-04 0.266D-03 0.369D-03-0.794D-03-0.635D-02
 Coeff-Com: -0.288D-01-0.244D-01 0.361D+00 0.698D+00
 Coeff:     -0.310D-04 0.861D-04 0.266D-03 0.369D-03-0.794D-03-0.635D-02
 Coeff:     -0.288D-01-0.244D-01 0.361D+00 0.698D+00
 Gap=     0.200 Goal=   None    Shift=    0.000
 RMSDP=5.79D-07 MaxDP=3.81D-05 DE=-2.28D-08 OVMax= 4.49D-05

 Cycle  11  Pass 1  IDiag  1:
 RMSU=  3.47D-07    CP:  1.02D+00  7.61D-01  9.94D-01  7.77D-01  9.18D-01
                    CP:  1.10D+00  1.07D+00  1.22D+00  1.22D+00  9.81D-01
 E= -1029.25387948101     Delta-E=       -0.000000005787 Rises=F Damp=F
 DIIS: error= 1.02D-06 at cycle  11 NSaved=  11.
 NSaved=11 IEnMin=11 EnMin= -1029.25387948101     IErMin=11 ErrMin= 1.02D-06
 ErrMax= 1.02D-06  0.00D+00 EMaxC= 1.00D-01 BMatC= 6.21D-10 BMatP= 4.03D-09
 IDIUse=1 WtCom= 1.00D+00 WtEn= 0.00D+00
 Coeff-Com: -0.213D-04 0.448D-04 0.276D-03 0.658D-03 0.987D-03 0.184D-03
 Coeff-Com: -0.178D-01-0.494D-01 0.258D-01 0.313D+00 0.727D+00
 Coeff:     -0.213D-04 0.448D-04 0.276D-03 0.658D-03 0.987D-03 0.184D-03
 Coeff:     -0.178D-01-0.494D-01 0.258D-01 0.313D+00 0.727D+00
 Gap=     0.200 Goal=   None    Shift=    0.000
 RMSDP=2.59D-07 MaxDP=3.42D-05 DE=-5.79D-09 OVMax= 1.32D-05

 Cycle  12  Pass 1  IDiag  1:
 RMSU=  1.40D-07    CP:  1.02D+00  7.61D-01  9.94D-01  7.77D-01  9.18D-01
                    CP:  1.10D+00  1.07D+00  1.24D+00  1.25D+00  1.10D+00
                    CP:  9.10D-01
 E= -1029.25387948200     Delta-E=       -0.000000000992 Rises=F Damp=F
 DIIS: error= 1.97D-07 at cycle  12 NSaved=  12.
 NSaved=12 IEnMin=12 EnMin= -1029.25387948200     IErMin=12 ErrMin= 1.97D-07
 ErrMax= 1.97D-07  0.00D+00 EMaxC= 1.00D-01 BMatC= 6.01D-11 BMatP= 6.21D-10
 IDIUse=1 WtCom= 1.00D+00 WtEn= 0.00D+00
 Coeff-Com: -0.385D-05 0.690D-05 0.772D-04 0.200D-03 0.463D-03 0.723D-03
 Coeff-Com: -0.365D-02-0.157D-01-0.284D-01 0.465D-01 0.285D+00 0.715D+00
 Coeff:     -0.385D-05 0.690D-05 0.772D-04 0.200D-03 0.463D-03 0.723D-03
 Coeff:     -0.365D-02-0.157D-01-0.284D-01 0.465D-01 0.285D+00 0.715D+00
 Gap=     0.200 Goal=   None    Shift=    0.000
 RMSDP=6.54D-08 MaxDP=5.12D-06 DE=-9.92D-10 OVMax= 5.22D-06

 Cycle  13  Pass 1  IDiag  1:
 RMSU=  4.14D-08    CP:  1.02D+00  7.61D-01  9.94D-01  7.77D-01  9.18D-01
                    CP:  1.10D+00  1.07D+00  1.24D+00  1.25D+00  1.11D+00
                    CP:  1.01D+00  9.99D-01
 E= -1029.25387948200     Delta-E=        0.000000000001 Rises=F Damp=F
 DIIS: error= 1.52D-07 at cycle  13 NSaved=  13.
 NSaved=13 IEnMin=12 EnMin= -1029.25387948200     IErMin=13 ErrMin= 1.52D-07
 ErrMax= 1.52D-07  0.00D+00 EMaxC= 1.00D-01 BMatC= 1.52D-11 BMatP= 6.01D-11
 IDIUse=1 WtCom= 1.00D+00 WtEn= 0.00D+00
 Coeff-Com:  0.154D-05-0.381D-05-0.218D-05-0.174D-05 0.878D-04 0.330D-03
 Coeff-Com:  0.925D-03-0.646D-04-0.186D-01-0.271D-01 0.244D-01 0.370D+00
 Coeff-Com:  0.650D+00
 Coeff:      0.154D-05-0.381D-05-0.218D-05-0.174D-05 0.878D-04 0.330D-03
 Coeff:      0.925D-03-0.646D-04-0.186D-01-0.271D-01 0.244D-01 0.370D+00
 Coeff:      0.650D+00
 Gap=     0.200 Goal=   None    Shift=    0.000
 RMSDP=2.07D-08 MaxDP=1.01D-06 DE= 9.09D-13 OVMax= 2.06D-06

 Cycle  14  Pass 1  IDiag  1:
 RMSU=  1.58D-08    CP:  1.02D+00  7.61D-01  9.94D-01  7.77D-01  9.18D-01
                    CP:  1.10D+00  1.07D+00  1.24D+00  1.25D+00  1.12D+00
                    CP:  1.02D+00  1.07D+00  1.00D+00
 E= -1029.25387948206     Delta-E=       -0.000000000059 Rises=F Damp=F
 DIIS: error= 5.55D-08 at cycle  14 NSaved=  14.
 NSaved=14 IEnMin=14 EnMin= -1029.25387948206     IErMin=14 ErrMin= 5.55D-08
 ErrMax= 5.55D-08  0.00D+00 EMaxC= 1.00D-01 BMatC= 1.47D-12 BMatP= 1.52D-11
 IDIUse=1 WtCom= 1.00D+00 WtEn= 0.00D+00
 Coeff-Com:  0.108D-05-0.237D-05-0.961D-05-0.250D-04-0.202D-04 0.334D-04
 Coeff-Com:  0.810D-03 0.189D-02-0.401D-02-0.175D-01-0.307D-01 0.575D-01
 Coeff-Com:  0.264D+00 0.728D+00
 Coeff:      0.108D-05-0.237D-05-0.961D-05-0.250D-04-0.202D-04 0.334D-04
 Coeff:      0.810D-03 0.189D-02-0.401D-02-0.175D-01-0.307D-01 0.575D-01
 Coeff:      0.264D+00 0.728D+00
 Gap=     0.200 Goal=   None    Shift=    0.000
 RMSDP=1.50D-08 MaxDP=2.21D-06 DE=-5.91D-11 OVMax= 9.15D-07

 Cycle  15  Pass 1  IDiag  1:
 RMSU=  8.25D-09    CP:  1.02D+00  7.61D-01  9.94D-01  7.77D-01  9.18D-01
                    CP:  1.10D+00  1.07D+00  1.24D+00  1.25D+00  1.12D+00
                    CP:  1.02D+00  1.10D+00  1.08D+00  9.75D-01
 E= -1029.25387948205     Delta-E=        0.000000000010 Rises=F Damp=F
 DIIS: error= 1.75D-08 at cycle  15 NSaved=  15.
 NSaved=15 IEnMin=14 EnMin= -1029.25387948206     IErMin=15 ErrMin= 1.75D-08
 ErrMax= 1.75D-08  0.00D+00 EMaxC= 1.00D-01 BMatC= 2.13D-13 BMatP= 1.47D-12
 IDIUse=1 WtCom= 1.00D+00 WtEn= 0.00D+00
 Coeff-Com:  0.976D-07-0.202D-06-0.238D-05-0.742D-05-0.153D-04-0.402D-04
 Coeff-Com:  0.149D-03 0.647D-03 0.177D-02-0.109D-02-0.157D-01-0.374D-01
 Coeff-Com: -0.291D-03 0.278D+00 0.774D+00
 Coeff:      0.976D-07-0.202D-06-0.238D-05-0.742D-05-0.153D-04-0.402D-04
 Coeff:      0.149D-03 0.647D-03 0.177D-02-0.109D-02-0.157D-01-0.374D-01
 Coeff:     -0.291D-03 0.278D+00 0.774D+00
 Gap=     0.200 Goal=   None    Shift=    0.000
 RMSDP=4.42D-09 MaxDP=2.56D-07 DE= 1.05D-11 OVMax= 3.96D-07

 SCF Done:  E(RM062X) =  -1029.25387948     A.U. after   15 cycles
            NFock= 15  Conv=0.44D-08     -V/T= 2.0034
 KE= 1.025782715860D+03 PE=-4.591903413304D+03 EE= 1.450719800313D+03
 Leave Link  502 at Sun Feb 19 21:22:51 2023, MaxMem=  6710886400 cpu:            2391.5 elap:             100.0
 (Enter /data0/home/software/g16/l601.exe)
 Copying SCF densities to generalized density rwf, IOpCl= 0 IROHF=0.

 **********************************************************************

            Population analysis using the SCF density.

 **********************************************************************

 Alpha  occ. eigenvalues --  -90.03680 -19.54375 -19.54296 -19.54105 -14.89229
 Alpha  occ. eigenvalues --  -10.65858 -10.65315 -10.63605 -10.61535 -10.61380
 Alpha  occ. eigenvalues --  -10.60367 -10.58061 -10.57414 -10.54638  -8.37097
 Alpha  occ. eigenvalues --   -6.29371  -6.29359  -6.29313  -1.17660  -1.16577
 Alpha  occ. eigenvalues --   -1.04370  -1.02862  -0.99311  -0.93980  -0.91787
 Alpha  occ. eigenvalues --   -0.85127  -0.83581  -0.77702  -0.76116  -0.70939
 Alpha  occ. eigenvalues --   -0.66091  -0.63731  -0.62408  -0.60451  -0.59353
 Alpha  occ. eigenvalues --   -0.57118  -0.55197  -0.54406  -0.53020  -0.51760
 Alpha  occ. eigenvalues --   -0.51011  -0.50040  -0.48478  -0.47582  -0.47379
 Alpha  occ. eigenvalues --   -0.47015  -0.45506  -0.44091  -0.42928  -0.39549
 Alpha  occ. eigenvalues --   -0.37354  -0.35515  -0.35161  -0.31874  -0.31052
 Alpha  occ. eigenvalues --   -0.30476  -0.27479
 Alpha virt. eigenvalues --   -0.07482  -0.03701  -0.01833  -0.00272   0.00033
 Alpha virt. eigenvalues --    0.01220   0.01665   0.02157   0.03530   0.03637
 Alpha virt. eigenvalues --    0.04223   0.04572   0.05618   0.05989   0.07030
 Alpha virt. eigenvalues --    0.07231   0.08092   0.08539   0.09292   0.09727
 Alpha virt. eigenvalues --    0.10135   0.10515   0.11051   0.11255   0.12161
 Alpha virt. eigenvalues --    0.12373   0.12745   0.13121   0.13584   0.14163
 Alpha virt. eigenvalues --    0.14656   0.15311   0.15488   0.16046   0.16201
 Alpha virt. eigenvalues --    0.16516   0.16760   0.17221   0.18026   0.18272
 Alpha virt. eigenvalues --    0.18630   0.19360   0.19655   0.19813   0.20209
 Alpha virt. eigenvalues --    0.20448   0.20683   0.21083   0.21435   0.21860
 Alpha virt. eigenvalues --    0.22550   0.23130   0.23525   0.24018   0.24582
 Alpha virt. eigenvalues --    0.24923   0.25036   0.25871   0.26115   0.26228
 Alpha virt. eigenvalues --    0.26777   0.27631   0.27961   0.28703   0.29037
 Alpha virt. eigenvalues --    0.29502   0.30148   0.30497   0.31113   0.32411
 Alpha virt. eigenvalues --    0.33085   0.33239   0.33945   0.34916   0.35550
 Alpha virt. eigenvalues --    0.36055   0.36211   0.36351   0.36956   0.37939
 Alpha virt. eigenvalues --    0.38526   0.39102   0.39553   0.40408   0.41372
 Alpha virt. eigenvalues --    0.41907   0.42496   0.43235   0.44158   0.44642
 Alpha virt. eigenvalues --    0.45298   0.46044   0.46835   0.47213   0.48921
 Alpha virt. eigenvalues --    0.49299   0.49554   0.50056   0.51221   0.51703
 Alpha virt. eigenvalues --    0.52879   0.53199   0.54253   0.54866   0.55395
 Alpha virt. eigenvalues --    0.56156   0.56899   0.58472   0.59119   0.59963
 Alpha virt. eigenvalues --    0.60090   0.61216   0.61836   0.62440   0.63397
 Alpha virt. eigenvalues --    0.63966   0.64449   0.65298   0.65701   0.66058
 Alpha virt. eigenvalues --    0.67202   0.67614   0.68376   0.68580   0.69635
 Alpha virt. eigenvalues --    0.70283   0.71539   0.71760   0.72955   0.73794
 Alpha virt. eigenvalues --    0.74345   0.74693   0.76100   0.76926   0.77958
 Alpha virt. eigenvalues --    0.79097   0.79858   0.80859   0.81123   0.82005
 Alpha virt. eigenvalues --    0.82527   0.83301   0.84818   0.85247   0.85616
 Alpha virt. eigenvalues --    0.86299   0.86854   0.88067   0.88558   0.89338
 Alpha virt. eigenvalues --    0.90598   0.91307   0.92125   0.93190   0.94197
 Alpha virt. eigenvalues --    0.95655   0.96220   0.97387   0.98542   0.98693
 Alpha virt. eigenvalues --    0.99306   0.99685   1.01884   1.02418   1.03698
 Alpha virt. eigenvalues --    1.06612   1.07197   1.09342   1.09860   1.10682
[...]
    10  C   -0.843234
    11  H    0.180582
    12  H    0.207839
    13  H    0.164246
    14  N    0.567191
    15  C   -0.422215
    16  H    0.191265
    17  H    0.177244
    18  C   -0.139312
    19  H    0.178736
    20  H    0.170283
    21  C   -0.504795
    22  H    0.182265
    23  H    0.194381
    24  S    0.975505
    25  O   -0.498998
    26  O   -0.563885
    27  O   -0.570240
    28  O    0.000000
    29  H    0.000000
    30  H    0.000000
 Sum of Mulliken charges =  -0.00000
 Mulliken charges with hydrogens summed into heavy atoms:
               1
     1  C   -0.170743
     2  C    0.267453
     3  C   -0.003813
     4  C    0.682286
     5  C   -0.422042
    10  C   -0.290566
    14  N    0.567191
    15  C   -0.053707
    18  C    0.209707
    21  C   -0.128149
    24  S    0.975505
    25  O   -0.498998
    26  O   -0.563885
    27  O   -0.570240
    28  O    0.000000
         Mulliken charges condensed to fragments:
      1     -0.000000
      2      0.000000
 Electronic spatial extent (au):  <R**2>=         136642.8993
 Charge=             -0.0000 electrons
 Dipole moment (field-independent basis, Debye):
    X=             -6.1668    Y=             -8.2630    Z=            -10.2580  Tot=             14.5441
 Quadrupole moment (field-independent basis, Debye-Ang):
   XX=           -209.1770   YY=           -277.5898   ZZ=           -295.8725
   XY=           -161.2883   XZ=           -182.0927   YZ=           -202.0955
 Traceless Quadrupole moment (field-independent basis, Debye-Ang):
   XX=             51.7027   YY=            -16.7100   ZZ=            -34.9927
   XY=           -161.2883   XZ=           -182.0927   YZ=           -202.0955
 Octapole moment (field-independent basis, Debye-Ang**2):
  XXX=          -4488.5182  YYY=          -6323.5101  ZZZ=          -5763.7975  XYY=          -3789.1746
  XXY=          -3379.4499  XXZ=          -3471.0094  XZZ=          -3948.1852  YZZ=          -4261.5279
  YYZ=          -4181.4544  XYZ=          -3010.2323
 Hexadecapole moment (field-independent basis, Debye-Ang**3):
 XXXX=         -79540.6270 YYYY=        -122456.3655 ZZZZ=         -96042.3525 XXXY=         -61926.4161
 XXXZ=         -60321.9732 YYYX=         -76335.3580 YYYZ=         -80502.3367 ZZZX=         -69667.1426
 ZZZY=         -75668.1980 XXYY=         -59600.8910 XXZZ=         -58326.6852 YYZZ=         -68481.9731
 XXYZ=         -49934.5347 YYXZ=         -54260.6095 ZZXY=         -54744.4468
 N-N= 1.086147017649D+03 E-N=-4.591904706668D+03  KE= 1.025787332712D+03
 No NMR shielding tensors so no spin-rotation constants.
 Leave Link  601 at Sun Feb 19 21:25:14 2023, MaxMem=  6710886400 cpu:               3.3 elap:               0.2
 (Enter /data0/home/software/g16/l122.exe)
 CPIOFr:  IOpCl= 0 IRwI=-1 IRwCP=  731 ICalc=  3 LCPTot=      389292 Len1MO=     1022495 IndFrg=     4479272
 Counterpoise: doing calculation for fragment   2 using the basis set of the fragment.
 Leave Link  122 at Sun Feb 19 21:25:14 2023, MaxMem=  6710886400 cpu:               0.3 elap:               0.0
 (Enter /data0/home/software/g16/l301.exe)
 Basis read from rwf:  (5D, 7F)
 No pseudopotential information found on rwf file.
    39 basis functions,    58 primitive gaussians,    41 cartesian basis functions
     5 alpha electrons        5 beta electrons
       nuclear repulsion energy         9.0707623930 Hartrees.
 IExCor= 4336 DFT=T Ex+Corr=M062X ExCW=0 ScaHFX=  0.540000
 ScaDFX=  1.000000  1.000000  1.000000  1.000000 ScalE2=  1.000000  1.000000
 IRadAn=      5 IRanWt=     -1 IRanGd=            0 ICorTp=0 IEmpDi=131
 NAtoms=   30 NActive=    3 NUniq=    3 SFac= 1.00D+00 NAtFMM=   60 NAOKFM=F Big=F
 Integral buffers will be    131072 words long.
 Raffenetti 2 integral format.
 Two-electron integral symmetry is turned off.
 R6Disp:  Grimme-D3 Dispersion energy=       -0.0000000070 Hartrees.
 Nuclear repulsion after empirical dispersion term =        9.0707623861 Hartrees.
 No density basis found on file   718.
 Leave Link  301 at Sun Feb 19 21:25:14 2023, MaxMem=  6710886400 cpu:               1.3 elap:               0.1
 (Enter /data0/home/software/g16/l302.exe)
 NPDir=0 NMtPBC=     1 NCelOv=     1 NCel=       1 NClECP=     1 NCelD=      1
         NCelK=      1 NCelE2=     1 NClLst=     1 CellRange=     0.0.
 One-electron integrals computed using PRISM.
 NBasis=    39 RedAO= T EigKep=  2.97D-03  NBF=    39
 NBsUse=    39 1.00D-06 EigRej= -1.00D+00 NBFU=    39
 Precomputing XC quadrature grid using
 IXCGrd= 4 IRadAn=           5 IRanWt=          -1 IRanGd=           0 AccXCQ= 0.00D+00.
 Generated NRdTot=       0 NPtTot=           0 NUsed=           0 NTot=          32
 NSgBfM=    41    41    41    41    41 MxSgAt=     3 MxSgA2=     3.
 Leave Link  302 at Sun Feb 19 21:25:14 2023, MaxMem=  6710886400 cpu:               2.3 elap:               0.1
 (Enter /data0/home/software/g16/l303.exe)
 DipDrv:  MaxL=1.
 Leave Link  303 at Sun Feb 19 21:25:14 2023, MaxMem=  6710886400 cpu:               0.4 elap:               0.0
 (Enter /data0/home/software/g16/l401.exe)
 ExpMin= 8.45D-02 ExpMax= 8.59D+03 ExpMxC= 1.30D+03 IAcc=3 IRadAn=         5 AccDes= 0.00D+00
 Harris functional with IExCor= 1009 and IRadAn=       5 diagonalized for initial guess.
 HarFok:  IExCor= 1009 AccDes= 0.00D+00 IRadAn=         5 IDoV= 1 UseB2=F ITyADJ=14
 ICtDFT=  3500011 ScaDFX=  1.000000  1.000000  1.000000  1.000000
 FoFCou: FMM=F IPFlag=           0 FMFlag=      100000 FMFlg1=           0
         NFxFlg=           0 DoJE=T BraDBF=F KetDBF=T FulRan=T
         wScrn=  0.000000 ICntrl=       500 IOpCl=  0 I1Cent=   200000004 NGrid=           0
         NMat0=    1 NMatS0=      1 NMatT0=    0 NMatD0=    1 NMtDS0=    0 NMtDT0=    0
 Symmetry not used in FoFCou.
 Harris En= -76.4157572467938    
 JPrj=0 DoOrth=F DoCkMO=F.
 Leave Link  401 at Sun Feb 19 21:25:14 2023, MaxMem=  6710886400 cpu:               2.9 elap:               0.1
 (Enter /data0/home/software/g16/l502.exe)
 Keep R1 ints in memory in canonical form, NReq=21041979.
 FoFCou: FMM=F IPFlag=           0 FMFlag=           0 FMFlg1=           0
         NFxFlg=           0 DoJE=F BraDBF=F KetDBF=F FulRan=T
         wScrn=  0.000000 ICntrl=       600 IOpCl=  0 I1Cent=           0 NGrid=           0
         NMat0=    1 NMatS0=    780 NMatT0=    0 NMatD0=    1 NMtDS0=    0 NMtDT0=    0
 Symmetry not used in FoFCou.
 Two-electron integral symmetry not used.
 Closed shell SCF:
 Using DIIS extrapolation, IDIIS=  1040.
 NGot=  6710886400 LenX=  6710576157 LenY=  6710574035
 Requested convergence on RMS density matrix=1.00D-08 within 128 cycles.
 Requested convergence on MAX density matrix=1.00D-06.
 Requested convergence on             energy=1.00D-06.
 No special actions if energy rises.
 Integral accuracy reduced to 1.0D-05 until final iterations.

 Cycle   1  Pass 0  IDiag  1:
 E= -76.3468163826805    
 DIIS: error= 6.94D-02 at cycle   1 NSaved=   1.
 NSaved= 1 IEnMin= 1 EnMin= -76.3468163826805     IErMin= 1 ErrMin= 6.94D-02
 ErrMax= 6.94D-02  0.00D+00 EMaxC= 1.00D-01 BMatC= 1.19D-01 BMatP= 1.19D-01
 IDIUse=3 WtCom= 3.06D-01 WtEn= 6.94D-01
 Coeff-Com:  0.100D+01
 Coeff-En:   0.100D+01
 Coeff:      0.100D+01
 Gap=     0.324 Goal=   None    Shift=    0.000
 GapD=    0.324 DampG=1.000 DampE=0.500 DampFc=0.5000 IDamp=-1.
 Damping current iteration by 5.00D-01
 RMSDP=8.05D-03 MaxDP=9.99D-02              OVMax= 1.67D-01

 Cycle   2  Pass 0  IDiag  1:
 E= -76.3777922707781     Delta-E=       -0.030975888098 Rises=F Damp=T
 DIIS: error= 1.12D-02 at cycle   2 NSaved=   2.
 NSaved= 2 IEnMin= 2 EnMin= -76.3777922707781     IErMin= 2 ErrMin= 1.12D-02
 ErrMax= 1.12D-02  0.00D+00 EMaxC= 1.00D-01 BMatC= 4.88D-03 BMatP= 1.19D-01
 IDIUse=3 WtCom= 8.88D-01 WtEn= 1.12D-01
 Coeff-Com:  0.848D-01 0.915D+00
 Coeff-En:   0.191D+00 0.809D+00
 Coeff:      0.967D-01 0.903D+00
 Gap=     0.456 Goal=   None    Shift=    0.000
 RMSDP=9.62D-04 MaxDP=1.43D-02 DE=-3.10D-02 OVMax= 1.00D-01

 Cycle   3  Pass 0  IDiag  1:
 E= -76.4214242600238     Delta-E=       -0.043631989246 Rises=F Damp=F
 DIIS: error= 2.15D-03 at cycle   3 NSaved=   3.
 NSaved= 3 IEnMin= 3 EnMin= -76.4214242600238     IErMin= 3 ErrMin= 2.15D-03
 ErrMax= 2.15D-03  0.00D+00 EMaxC= 1.00D-01 BMatC= 9.00D-05 BMatP= 4.88D-03
 IDIUse=3 WtCom= 9.79D-01 WtEn= 2.15D-02
 Coeff-Com: -0.199D-01 0.388D-01 0.981D+00
 Coeff-En:   0.000D+00 0.000D+00 0.100D+01
 Coeff:     -0.195D-01 0.380D-01 0.981D+00
 Gap=     0.461 Goal=   None    Shift=    0.000
 RMSDP=1.14D-04 MaxDP=1.03D-03 DE=-4.36D-02 OVMax= 3.33D-03

 Cycle   4  Pass 0  IDiag  1:
 E= -76.4215013698966     Delta-E=       -0.000077109873 Rises=F Damp=F
 DIIS: error= 4.16D-04 at cycle   4 NSaved=   4.
 NSaved= 4 IEnMin= 4 EnMin= -76.4215013698966     IErMin= 4 ErrMin= 4.16D-04
 ErrMax= 4.16D-04  0.00D+00 EMaxC= 1.00D-01 BMatC= 3.25D-06 BMatP= 9.00D-05
 IDIUse=3 WtCom= 9.96D-01 WtEn= 4.16D-03
 Coeff-Com: -0.186D-02-0.237D-02 0.160D+00 0.844D+00
 Coeff-En:   0.000D+00 0.000D+00 0.000D+00 0.100D+01
 Coeff:     -0.185D-02-0.236D-02 0.159D+00 0.845D+00
 Gap=     0.461 Goal=   None    Shift=    0.000
 RMSDP=2.23D-05 MaxDP=3.57D-04 DE=-7.71D-05 OVMax= 5.44D-04

 Cycle   5  Pass 0  IDiag  1:
 E= -76.4215033986244     Delta-E=       -0.000002028728 Rises=F Damp=F
 DIIS: error= 8.88D-05 at cycle   5 NSaved=   5.
 NSaved= 5 IEnMin= 5 EnMin= -76.4215033986244     IErMin= 5 ErrMin= 8.88D-05
 ErrMax= 8.88D-05  0.00D+00 EMaxC= 1.00D-01 BMatC= 8.25D-08 BMatP= 3.25D-06
 IDIUse=1 WtCom= 1.00D+00 WtEn= 0.00D+00
 Coeff-Com:  0.119D-02-0.181D-02-0.373D-01-0.607D-01 0.110D+01
 Coeff:      0.119D-02-0.181D-02-0.373D-01-0.607D-01 0.110D+01
 Gap=     0.462 Goal=   None    Shift=    0.000
 RMSDP=9.07D-06 MaxDP=1.01D-04 DE=-2.03D-06 OVMax= 2.05D-04

 Initial convergence to 1.0D-05 achieved.  Increase integral accuracy.
 Cycle   6  Pass 1  IDiag  1:
 E= -76.4215084458628     Delta-E=       -0.000005047238 Rises=F Damp=F
 DIIS: error= 1.37D-05 at cycle   1 NSaved=   1.
 NSaved= 1 IEnMin= 1 EnMin= -76.4215084458628     IErMin= 1 ErrMin= 1.37D-05
 ErrMax= 1.37D-05  0.00D+00 EMaxC= 1.00D-01 BMatC= 1.37D-08 BMatP= 1.37D-08
 IDIUse=1 WtCom= 1.00D+00 WtEn= 0.00D+00
 Coeff-Com:  0.100D+01
 Coeff:      0.100D+01
 Gap=     0.461 Goal=   None    Shift=    0.000
 RMSDP=9.07D-06 MaxDP=1.01D-04 DE=-5.05D-06 OVMax= 4.12D-05

 Cycle   7  Pass 1  IDiag  1:
 E= -76.4215084569878     Delta-E=       -0.000000011125 Rises=F Damp=F
 DIIS: error= 9.24D-06 at cycle   2 NSaved=   2.
 NSaved= 2 IEnMin= 2 EnMin= -76.4215084569878     IErMin= 2 ErrMin= 9.24D-06
 ErrMax= 9.24D-06  0.00D+00 EMaxC= 1.00D-01 BMatC= 1.14D-09 BMatP= 1.37D-08
 IDIUse=1 WtCom= 1.00D+00 WtEn= 0.00D+00
 Coeff-Com:  0.701D-01 0.930D+00
 Coeff:      0.701D-01 0.930D+00
 Gap=     0.462 Goal=   None    Shift=    0.000
 RMSDP=7.03D-07 MaxDP=1.10D-05 DE=-1.11D-08 OVMax= 1.93D-05

 Cycle   8  Pass 1  IDiag  1:
 E= -76.4215084572195     Delta-E=       -0.000000000232 Rises=F Damp=F
 DIIS: error= 6.30D-06 at cycle   3 NSaved=   3.
 NSaved= 3 IEnMin= 3 EnMin= -76.4215084572195     IErMin= 3 ErrMin= 6.30D-06
 ErrMax= 6.30D-06  0.00D+00 EMaxC= 1.00D-01 BMatC= 1.04D-09 BMatP= 1.14D-09
 IDIUse=1 WtCom= 1.00D+00 WtEn= 0.00D+00
 Coeff-Com: -0.445D-01 0.499D+00 0.545D+00
 Coeff:     -0.445D-01 0.499D+00 0.545D+00
 Gap=     0.462 Goal=   None    Shift=    0.000
 RMSDP=3.68D-07 MaxDP=5.04D-06 DE=-2.32D-10 OVMax= 8.42D-06

 Cycle   9  Pass 1  IDiag  1:
 E= -76.4215084579031     Delta-E=       -0.000000000684 Rises=F Damp=F
 DIIS: error= 6.30D-07 at cycle   4 NSaved=   4.
 NSaved= 4 IEnMin= 4 EnMin= -76.4215084579031     IErMin= 4 ErrMin= 6.30D-07
 ErrMax= 6.30D-07  0.00D+00 EMaxC= 1.00D-01 BMatC= 4.19D-12 BMatP= 1.04D-09
 IDIUse=1 WtCom= 1.00D+00 WtEn= 0.00D+00
 Coeff-Com: -0.135D-02-0.350D-01 0.553D-02 0.103D+01
 Coeff:     -0.135D-02-0.350D-01 0.553D-02 0.103D+01
 Gap=     0.462 Goal=   None    Shift=    0.000
 RMSDP=5.90D-08 MaxDP=4.45D-07 DE=-6.84D-10 OVMax= 1.38D-06

 Cycle  10  Pass 1  IDiag  1:
 E= -76.4215084579095     Delta-E=       -0.000000000006 Rises=F Damp=F
 DIIS: error= 9.56D-08 at cycle   5 NSaved=   5.
 NSaved= 5 IEnMin= 5 EnMin= -76.4215084579095     IErMin= 5 ErrMin= 9.56D-08
 ErrMax= 9.56D-08  0.00D+00 EMaxC= 1.00D-01 BMatC= 2.76D-13 BMatP= 4.19D-12
 IDIUse=1 WtCom= 1.00D+00 WtEn= 0.00D+00
 Coeff-Com:  0.195D-02-0.317D-01-0.274D-01 0.175D+00 0.882D+00
 Coeff:      0.195D-02-0.317D-01-0.274D-01 0.175D+00 0.882D+00
 Gap=     0.462 Goal=   None    Shift=    0.000
 RMSDP=1.49D-08 MaxDP=1.30D-07 DE=-6.39D-12 OVMax= 3.48D-07

 Cycle  11  Pass 1  IDiag  1:
 E= -76.4215084579098     Delta-E=       -0.000000000000 Rises=F Damp=F
 DIIS: error= 1.50D-08 at cycle   6 NSaved=   6.
 NSaved= 6 IEnMin= 6 EnMin= -76.4215084579098     IErMin= 6 ErrMin= 1.50D-08
 ErrMax= 1.50D-08  0.00D+00 EMaxC= 1.00D-01 BMatC= 4.77D-15 BMatP= 2.76D-13
 IDIUse=1 WtCom= 1.00D+00 WtEn= 0.00D+00
 Coeff-Com:  0.158D-03-0.415D-03-0.202D-02-0.335D-01-0.240D-01 0.106D+01
 Coeff:      0.158D-03-0.415D-03-0.202D-02-0.335D-01-0.240D-01 0.106D+01
 Gap=     0.462 Goal=   None    Shift=    0.000
 RMSDP=3.45D-09 MaxDP=3.00D-08 DE=-2.98D-13 OVMax= 8.20D-08

 SCF Done:  E(RM062X) =  -76.4215084579     A.U. after   11 cycles
            NFock= 11  Conv=0.34D-08     -V/T= 2.0031
 KE= 7.618543790527D+01 PE=-1.989834634748D+02 EE= 3.730575472555D+01
 Leave Link  502 at Sun Feb 19 21:25:15 2023, MaxMem=  6710886400 cpu:               8.9 elap:               0.4
 (Enter /data0/home/software/g16/l601.exe)
 Copying SCF densities to generalized density rwf, IOpCl= 0 IROHF=0.

 **********************************************************************

            Population analysis using the SCF density.

 **********************************************************************

 Alpha  occ. eigenvalues --  -19.62779  -1.13350  -0.60080  -0.47964  -0.40015
 Alpha virt. eigenvalues --    0.06136   0.13273   0.17450   0.17937   0.18867
 Alpha virt. eigenvalues --    0.23547   0.50583   0.53334   0.98361   1.00315
 Alpha virt. eigenvalues --    1.05972   1.16355   1.20419   1.31380   1.34188
 Alpha virt. eigenvalues --    1.71338   1.74437   1.74813   2.06710   2.10056
 Alpha virt. eigenvalues --    2.35080   2.39197   2.55438   2.86959   3.01173
 Alpha virt. eigenvalues --    5.05562   5.49683   5.88495   6.78719   6.79810
 Alpha virt. eigenvalues --    6.87232   6.92153   7.09462  49.95149
          Condensed to atoms (all electrons):
              28         29         30
    28  O    7.921606   0.314384   0.312886
    29  H    0.314384   0.434801  -0.022970
    30  H    0.312886  -0.022970   0.434992
 Mulliken charges:
               1
     1  C    0.000000
     2  C    0.000000
     3  C    0.000000
     4  C    0.000000
     5  C    0.000000
     6  H    0.000000
     7  H    0.000000
     8  H    0.000000
     9  H    0.000000
    10  C    0.000000
    11  H    0.000000
    12  H    0.000000
    13  H    0.000000
    14  N    0.000000
    15  C    0.000000
    16  H    0.000000
    17  H    0.000000
    18  C    0.000000
    19  H    0.000000
    20  H    0.000000
    21  C    0.000000
    22  H    0.000000
    23  H    0.000000
    24  S    0.000000
    25  O    0.000000
    26  O    0.000000
    27  O    0.000000
    28  O   -0.548876
    29  H    0.273785
    30  H    0.275092
 Sum of Mulliken charges =   0.00000
 Mulliken charges with hydrogens summed into heavy atoms:
               1
     1  C    0.000000
     2  C    0.000000
     3  C    0.000000
     4  C    0.000000
     5  C    0.000000
    10  C    0.000000
    14  N    0.000000
    15  C    0.000000
    18  C    0.000000
    21  C    0.000000
    24  S    0.000000
    25  O    0.000000
    26  O    0.000000
    27  O    0.000000
    28  O    0.000000
         Mulliken charges condensed to fragments:
      1      0.000000
      2      0.000000
 Electronic spatial extent (au):  <R**2>=          14562.0337
 Charge=              0.0000 electrons
 Dipole moment (field-independent basis, Debye):
    X=              0.0782    Y=             -0.2765    Z=              2.1419  Tot=              2.1611
 Quadrupole moment (field-independent basis, Debye-Ang):
   XX=             -5.7359   YY=            -12.6949   ZZ=             30.8652
   XY=             -2.8497   XZ=             24.7843   YZ=             28.5128
 Traceless Quadrupole moment (field-independent basis, Debye-Ang):
   XX=             -9.8807   YY=            -16.8397   ZZ=             26.7204
   XY=             -2.8497   XZ=             24.7843   YZ=             28.5128
 Octapole moment (field-independent basis, Debye-Ang**2):
  XXX=           -223.9796  YYY=           -375.9649  ZZZ=            321.3889  XYY=           -151.4473
  XXY=           -136.6941  XXZ=            222.0733  XZZ=            353.0359  YZZ=            425.4064
  YYZ=            337.2862  XYZ=            322.9315
 Hexadecapole moment (field-independent basis, Debye-Ang**3):
 XXXX=          -5285.2391 YYYY=          -9170.2253 ZZZZ=           2801.0715 XXXY=          -3935.0087
 XXXZ=           1128.3651 YYYX=          -4531.4946 YYYZ=           3232.7385 ZZZX=           3662.3304
 ZZZY=           4477.8696 XXYY=          -3347.0411 XXZZ=           3479.5641 YYZZ=           5515.9499
 XXYZ=           2731.7659 YYXZ=           3714.7975 ZZXY=           4799.9804
 N-N= 9.070762386062D+00 E-N=-1.989834634296D+02  KE= 7.618543790527D+01
 No NMR shielding tensors so no spin-rotation constants.
 Leave Link  601 at Sun Feb 19 21:25:15 2023, MaxMem=  6710886400 cpu:               1.8 elap:               0.1
 (Enter /data0/home/software/g16/l122.exe)
 CPIOFr:  IOpCl= 0 IRwI=-1 IRwCP=  731 ICalc=  4 LCPTot=      389292 Len1MO=     1022495 IndFrg=     5501767
 Restoring MOs from calculation   1 to rwf.
 CPIOFr:  IOpCl= 0 IRwI=-2 IRwCP=  731 ICalc=  0 LCPTot=      389292 Len1MO=     1022495 IndFrg=     1411787
 Counterpoise corrected energy =   -1105.701992043462
                   BSSE energy =       0.001718775576
              sum of fragments =   -1105.674864450152
           complexation energy =     -18.10 kcal/mole (raw)
           complexation energy =     -17.02 kcal/mole (corrected)
 Leave Link  122 at Sun Feb 19 21:25:15 2023, MaxMem=  6710886400 cpu:               0.4 elap:               0.0
 (Enter /data0/home/software/g16/l9999.exe)
 1\1\GINC-LOCALHOST\SP\RM062X\6-311+G(2d,p)\C9H15N1O4S1\WUHANYU\19-Feb-
 2023\0\\#p M062X/6-311+G(2d,p) nosymm em=GD3 counterpoise=2\\Title Car
 d Required\\0,1\C,0,9.977465,11.749537,8.166783\C,0,11.117282,11.49661
 ,7.389534\C,0,11.547922,10.19652,7.192314\C,0,10.804848,9.13618,7.7378
 04\C,0,9.672547,9.424304,8.495859\H,0,12.464286,9.989296,6.637009\H,0,
 9.63752,12.788522,8.340403\H,0,11.673474,12.354095,6.991267\H,0,9.0835
 8,8.622034,8.96622\C,0,11.248377,7.731261,7.564135\H,0,11.470085,7.481
 835,6.518789\H,0,12.174807,7.554285,8.151022\H,0,10.52301,6.994715,7.9
 40054\N,0,9.289825,10.720533,8.721341\C,0,8.114261,10.94757,9.596817\H
 ,0,7.207059,10.934775,8.949523\H,0,8.029916,10.077731,10.304178\C,0,8.
 145921,12.243752,10.42776\H,0,8.469018,13.115581,9.819231\H,0,7.094307
 ,12.484788,10.703898\C,0,8.97326,12.124712,11.700145\H,0,8.97391,11.08
 7255,12.089903\H,0,8.523681,12.728134,12.511081\S,0,10.686427,12.67827
 8,11.505715\O,0,11.400826,12.104885,12.659682\O,0,10.625744,14.134838,
 11.365538\O,0,11.144066,12.063713,10.19198\O,0,11.278511,14.349077,8.5
 45441\H,0,11.096075,14.986034,9.249119\H,0,11.506334,13.551712,9.05955
 5\\Version=ES64L-G16RevA.03\HF=-76.4215085\RMSD=3.448e-09\Dipole=-2.49
 9671,-3.453122,-2.993555\Quadrupole=27.6295977,-29.7428454,2.1132477,-
 126.4439919,-114.7162225,-125.4982204\PG=C01 [X(C9H15N1O4S1)]\\@


 Make no judgements where you have no compassion.
                               -- Anne McCaffrey
 Job cpu time:       0 days  2 hours 19 minutes 26.0 seconds.
 Elapsed time:       0 days  0 hours  5 minutes 50.6 seconds.
 File lengths (MBytes):  RWF=    200 Int=      0 D2E=      0 Chk=     57 Scr=      1
 Normal termination of Gaussian 16 at Sun Feb 19 21:25:15 2023.
