          36
 G =       -0.505838 Gcorr = 0.198757 a.u. Nimag =   0 Frame:     1 Step:     1 Geom:     1
C          13.79845600      9.86979300      9.38480100
C          13.46568800      9.02086300     10.43292600
C          11.55333800      9.86549600      9.58894600
N          12.60190700     10.37114100      8.87138700
H          14.76178200     10.13967300      8.99431800
H          14.09974800      8.44542700     11.07981100
H          10.46372400     10.11125900      9.45527000
C          12.49772100     11.33491400      7.78973500
H          11.46701300     11.35014800      7.36987700
H          12.67439900     12.36910100      8.17630200
H          13.21649900     11.11283100      6.98582700
N          12.07309200      9.02232300     10.53827300
C          11.30955800      8.24760600     11.52151100
H          11.82024800      7.27230500     11.67762500
H          10.29811400      8.01314500     11.07930000
C          11.16009000      9.00452400     12.85966700
H          11.53870300      8.36610100     13.68261700
H          11.81865000      9.90448700     12.87146400
C           9.72092700      9.41490600     13.15893500
H           9.65209500      9.87172900     14.16263000
H           9.04749300      8.54189800     13.18164600
S           9.12187400     10.60018400     11.93109400
O           7.78051800     11.04044000     12.32035700
O          10.18079400     11.62764200     11.85461900
O           9.12351900      9.77290300     10.66393000
P           6.83768500     11.69897400      8.82650700
O           7.90487700     12.66098000      8.56411600
O           6.00821400     11.86319900     10.17254700
H           6.60606500     11.62259300     10.99526000
O           5.68833300     11.83382600      7.72680200
H           4.93302200     11.18295500      7.98374700
O           7.21653400     10.15968100      8.72210200
H           7.94280100      9.93309800      9.45145400
O          10.86174000     12.60420800      9.40160100
H          10.72117800     12.40381700     10.35431200
H           9.97362100     12.79585000      9.08869300
          36
 G =       -0.505738 Gcorr = 0.198754 a.u. Nimag =   0 Frame:     2 Step:     2 Geom:     2
C          13.83734000      9.88582900      9.37672800
C          13.50688700      9.03855400     10.42646800
C          11.59047200      9.85545500      9.56339100
N          12.63852400     10.37166400      8.85267300
H          14.79992700     10.16532500      8.99111200
H          14.14258900      8.47386100     11.08133200
H          10.49837200     10.08408000      9.41890100
C          12.53632400     11.32093200      7.75842100
H          13.11315200     10.98247600      6.88293400
H          11.47008500     11.47241300      7.46326300
H          12.89538600     12.32490500      8.07886900
N          12.11345400      9.02347600     10.52087600
C          11.35275800      8.25205000     11.50872100
H          11.87279100      7.28433300     11.67952800
H          10.34623900      8.00121600     11.06390300
C          11.18882100      9.02472400     12.83613500
H          11.56851300      8.40057100     13.66941500
H          11.83886200      9.93087100     12.83989400
C           9.74461500      9.42591000     13.12151100
H           9.66634500      9.90025000     14.11634300
H           9.08008500      8.54640200     13.15782700
S           9.13569600     10.58132500     11.87024100
O           7.79257900     11.01708400     12.25869800
O          10.18640000     11.61533800     11.76674100
O           9.14233000      9.73144000     10.61862500
P           6.78278900     11.58739800      8.78171600
O           7.81712600     12.57896000      8.49824400
O           5.96448700     11.73968200     10.13575200
H           6.58401000     11.53821100     10.95355400
O           5.61750400     11.67625200      7.69399800
H           4.88466300     11.00646100      7.96686700
O           7.20543600     10.05884400      8.68712800
H           7.94541700      9.85921700      9.40971200
O          10.78771800     12.57695500      9.27881300
H          10.67333300     12.38564300     10.23634500
H           9.88898500     12.75190700      8.98533600
          36
 G =       -0.507712 Gcorr = 0.200344 a.u. Nimag =   0 Frame:     3 Step:     3 Geom:     3
C          12.75910300     10.86180800      9.60715100
C          12.87403000     10.00560200     10.69411000
C          11.20685900      9.24390400      9.38183400
N          11.73125600     10.36652400      8.80214900
H          13.28114400     11.78036200      9.38457700
H          13.52363800     10.06183400     11.54575100
H          10.35858800      8.66610700      9.00676400
C          11.21304400     11.01299400      7.61027500
H          10.29235700     10.51177800      7.24332500
H          10.91536500     12.06715400      7.84240300
H          11.96640000     11.03008300      6.80683400
N          11.90897500      9.00424500     10.53787200
C          11.55722100      7.99077300     11.53598600
H          12.42182100      7.29583800     11.64468000
H          10.69208200      7.39278700     11.15130300
C          11.19628000      8.60089100     12.91035600
H          11.45995200      7.86250800     13.69590700
H          11.83855300      9.48808000     13.11625900
C           9.72606100      8.98282900     13.05761500
H           9.52642900      9.35801400     14.07744300
H           9.06617400      8.10878900     12.92440400
S           9.26590100     10.25513600     11.85729300
O           7.96092800     10.82475900     12.20670300
O          10.41312400     11.18304400     11.85413800
O           9.20232000      9.45368400     10.57655300
P           7.46773200     11.83567000      8.66428800
O           8.55228100     12.81449400      8.64591400
O           6.47789700     11.82037000      9.90411900
H           6.98435300     11.53557000     10.77550100
O           6.46442600     12.10472600      7.45277700
H           5.70672700     11.41012300      7.51731600
O           7.91588100     10.33463200      8.39657100
H           8.36053700      9.93014000      9.27035800
O          11.31464300     13.07527400     10.03252400
H          11.08170500     12.47935400     10.77606500
H          10.45623600     13.27013700      9.65289400
          36
 G =       -0.507225 Gcorr = 0.198906 a.u. Nimag =   0 Frame:     4 Step:     4 Geom:     4
C          13.37471700     10.52812400      9.64450900
C          13.30404800      9.59089600     10.66697800
C          11.32715800      9.59397300      9.58543300
N          12.14566700     10.50727600      8.98331300
H          14.17166700     11.19386100      9.36932100
H          14.03544700      9.31678700     11.40142800
H          10.27405400      9.37092100      9.30694100
C          11.76228500     11.38375200      7.89228400
H          12.05777600     12.43791500      8.11712600
H          12.21949800     11.06467000      6.94267700
H          10.65293300     11.41675900      7.77406700
N          12.03380300      9.00924300     10.60712000
C          11.48615700      8.08800800     11.60584900
H          12.22773200      7.27572200     11.77820100
H          10.56522900      7.60139800     11.18780400
C          11.16294900      8.80962500     12.93573800
H          11.45140300      8.14722800     13.77694600
H          11.80707900      9.71366300     13.03943100
C           9.69655500      9.20361300     13.08850000
H           9.53650700      9.72065700     14.05206900
H           9.04417700      8.31293000     13.11640100
S           9.15728000     10.27846700     11.73957200
O           7.96756500     11.02476700     12.15392500
O          10.36085100     11.07639500     11.39970200
O           8.89097800      9.29900400     10.62443900
P           7.10021700     11.54065800      8.62700100
O           8.36742800     12.20031800      8.31656900
O           6.33877600     11.99883200      9.94414500
H           6.88510400     11.71732400     10.79008300
O           6.01889900     11.86420900      7.49931600
H           5.13521400     11.41350400      7.77861500
O           7.11079000      9.95429300      8.63700000
H           7.76240000      9.61469200      9.39654300
O          10.88816000     13.25930500      9.74445500
H          10.78664900     12.57357100     10.43430500
H          10.01286400     13.28765600      9.35221200
          36
 G =       -0.505827 Gcorr = 0.198769 a.u. Nimag =   0 Frame:     5 Step:     5 Geom:     5
C          13.75467900      9.86488900      9.33108300
C          13.45397700      9.06965000     10.42977900
C          11.51272900      9.82037700      9.56317500
N          12.54084100     10.30845800      8.80514300
H          14.70687000     10.13437500      8.91394100
H          14.10869200      8.54681200     11.10030300
H          10.41610500     10.03252900      9.42946200
C          12.40175200     11.20574800      7.67146500
H          13.11622200     10.95410400      6.87248500
H          11.36618200     11.17339400      7.26469800
H          12.55833300     12.26419800      7.99593000
N          12.06298100      9.04493800     10.55229700
C          11.32898200      8.31066900     11.58764100
H          11.86480900      7.35846300     11.79366900
H          10.31892400      8.02718200     11.17165300
C          11.17512400      9.13999600     12.88169100
H          11.57889600      8.55989900     13.73524400
H          11.81068800     10.05509400     12.83347400
C           9.72928700      9.53121400     13.17449900
H           9.65944900     10.04242500     14.15154600
H           9.07842900      8.64461900     13.25461800
S           9.08788000     10.62987500     11.88888200
O           7.74004700     11.05857600     12.26835200
O          10.11985100     11.67697300     11.74216600
O           9.09726800      9.73237800     10.67041300
P           6.74892300     11.49671100      8.75228100
O           7.79006100     12.46753300      8.42550700
O           5.92764400     11.71673100     10.09548700
H           6.53858600     11.53776100     10.92420700
O           5.58687000     11.54221500      7.65857900
H           4.84814800     10.89194700      7.96133800
O           7.16382800      9.96344300      8.73071600
H           7.90221300      9.79579400      9.46400200
O          10.75571100     12.52585200      9.23126800
H          10.62878900     12.37759700     10.19556400
H           9.86024500     12.67759600      8.91745900
          36
 G =       -0.507686 Gcorr = 0.200371 a.u. Nimag =   0 Frame:     6 Step:     6 Geom:     6
C          12.71477200     10.71338300      9.53560000
C          12.81475000     10.01555800     10.73177700
C          11.10860900      9.13297200      9.55209500
N          11.66219000     10.14436600      8.81587500
H          13.26364400     11.57325800      9.18178500
H          13.47576100     10.16946400     11.56234800
H          10.23796400      8.53677000      9.26827900
C          11.15103300     10.63346700      7.54838200
H          10.88709700     11.71834600      7.63228300
H          11.89615000     10.51471000      6.74585000
H          10.21217700     10.11434300      7.26080000
N          11.81609000      9.03523800     10.72540400
C          11.44388300      8.18444900     11.85889400
H          12.28671900      7.48283900     12.05784500
H          10.55513700      7.56799000     11.56885800
C          11.11973100      8.99344300     13.13639300
H          11.36992700      8.36463300     14.01600000
H          11.79214500      9.87913400     13.20993800
C           9.66418300      9.44041600     13.24006200
H           9.48922900      9.96147600     14.19854200
H           8.97553600      8.57858400     13.23643100
S           9.22935500     10.54629300     11.87653200
O           7.94606600     11.19966700     12.15120600
O          10.40410000     11.42797700     11.73582800
O           9.12739400      9.57578700     10.72124500
P           7.44676100     11.71835800      8.50291200
O           8.55519900     12.65678500      8.34394100
O           6.46703900     11.90137600      9.73744500
H           6.97396000     11.72939800     10.63753400
O           6.44058200     11.84211200      7.27044000
H           5.66707500     11.18207000      7.43394300
O           7.85477800     10.18354300      8.44469500
H           8.29264400      9.89161400      9.36592000
O          11.34614900     13.00847900      9.65648900
H          11.10174200     12.53251700     10.47881800
H          10.49044500     13.17920100      9.25962800
          36
 G =       -0.507680 Gcorr = 0.200377 a.u. Nimag =   0 Frame:     7 Step:     7 Geom:     7
C          12.66251900     10.68478900      9.45954000
C          12.83278300     10.04377000     10.67932200
C          11.09494400      9.07400000      9.62052000
N          11.59131000     10.06240000      8.81543900
H          13.17490100     11.53906700      9.04300400
H          13.52750000     10.24821900     11.47050400
H          10.22589900      8.44783100      9.40402100
C          11.01173300     10.48330000      7.55292400
H          10.72620000     11.56484100      7.60174600
H          11.72232200     10.34509600      6.72264900
H          10.07343100      9.93158600      7.33201100
N          11.85716700      9.04390400     10.76276000
C          11.55670700      8.23762400     11.94877300
H          12.42392500      7.56391900     12.13941700
H          10.67047800      7.58976100     11.72769900
C          11.27190600      9.09663600     13.20280300
H          11.57673800      8.51406300     14.09694800
H          11.92578900      9.99912700     13.20548900
C           9.81246000      9.51638000     13.35428200
H           9.66908800     10.07634000     14.29586300
H           9.14484500      8.64058700     13.42079900
S           9.29009200     10.54957200     11.96473100
O           8.00566600     11.18713800     12.26961200
O          10.43612900     11.44890400     11.73025000
O           9.15850900      9.52566200     10.85960800
P           7.33034500     11.53130600      8.62968500
O           8.40972000     12.48333600      8.37843400
O           6.40404500     11.75073900      9.89910800
H           6.95497700     11.62959000     10.78135500
O           6.26683900     11.57986600      7.44086200
H           5.51607200     10.91256600      7.66880500
O           7.76795100     10.00364300      8.62050800
H           8.25438500      9.76248800      9.53212700
O          11.24842200     12.95353100      9.54304900
H          11.05248000     12.50997800     10.39595800
H          10.37174000     13.08845800      9.17941600
          36
 G =       -0.507688 Gcorr = 0.200368 a.u. Nimag =   0 Frame:     8 Step:     8 Geom:     8
C          12.69822200     10.58662300      9.43114100
C          12.83847700      9.93077500     10.64686300
C          11.09119500      9.01209400      9.55847600
N          11.62051300      9.99561800      8.76854200
H          13.23582300     11.43204800      9.02860800
H          13.52803900     10.11172800     11.44825200
H          10.21012700      8.40892800      9.32592300
C          11.06603000     10.44188000      7.50342300
H          10.11833100      9.91382100      7.26582700
H          10.80458500     11.52915100      7.55958000
H          11.78353900     10.29584200      6.68043000
N          11.83859000      8.95365600     10.70938300
C          11.50499800      8.14345400     11.88382800
H          12.35364200      7.44753500     12.07794800
H          10.60632300      7.51904400     11.64600500
C          11.22551900      8.99685100     13.14284200
H          11.50574500      8.39849800     14.03461800
H          11.90050100      9.88345100     13.16236000
C           9.77464400      9.44956700     13.28127700
H           9.63296100     10.00270500     14.22712300
H           9.08571900      8.58927300     13.33002500
S           9.29410600     10.50985700     11.89695000
O           8.02059400     11.17323000     12.19244800
O          10.46315200     11.38518100     11.68738600
O           9.15326500      9.50115300     10.77891500
P           7.39827800     11.56901600      8.54739500
O           8.50160900     12.49878800      8.31775800
O           6.46215600     11.79751700      9.80792000
H           6.99905700     11.65356800     10.69540900
O           6.35009500     11.65233000      7.34693100
H           5.58300200     10.99860300      7.55901500
O           7.80212600     10.03210100      8.52863000
H           8.27152200      9.77136200      9.44360300
O          11.33778000     12.88640000      9.52037300
H          11.12050500     12.44184300     10.36741300
H          10.46924800     13.04652800      9.14740000
          36
 G =       -0.505747 Gcorr = 0.198746 a.u. Nimag =   0 Frame:     9 Step:     9 Geom:     9
C          13.78962400      9.62207700      9.52405000
C          13.42030400      8.92930100     10.66978400
C          11.54150500      9.69133100      9.68274500
N          12.61334600     10.07588900      8.92558800
H          14.76484400      9.81695100      9.11864900
H          14.02996000      8.43309200     11.40046800
H          10.45945900      9.93600900      9.49525400
C          12.55414600     10.87857000      7.71681500
H          13.12391100     10.40885500      6.89918800
H          11.49634700     11.02894800      7.39217300
H          12.94807200     11.90200700      7.90920300
N          12.02639700      8.97331500     10.74657900
C          11.23037300      8.36175600     11.81519300
H          11.71472400      7.40719100     12.11602200
H          10.21970700      8.08947600     11.39294300
C          11.08161500      9.30427500     13.02985400
H          11.43204500      8.78051600     13.94149800
H          11.76269300     10.18117000     12.92557900
C           9.64978800      9.78690800     13.24236300
H           9.57967200     10.38796200     14.16689700
H           8.95476800      8.94214500     13.38277100
S           9.09243500     10.79136100     11.84531900
O           7.76090200     11.31640400     12.15549600
O          10.17840000     11.76917800     11.62578000
O           9.08238500      9.78787700     10.71298000
P           6.81077000     11.46813900      8.61858900
O           7.88321200     12.37907400      8.22691400
O           5.98280900     11.82134100      9.92859100
H           6.58487000     11.70487300     10.77546200
O           5.66204000     11.45567900      7.50990200
H           4.90316100     10.85098300      7.85417800
O           7.17972800      9.92675800      8.72787800
H           7.90457100      9.79736500      9.48152100
O          10.84400400     12.37904600      9.04631700
H          10.71151800     12.31639600     10.01866500
H           9.95590600     12.54779400      8.71880900
          36
 G =       -0.507362 Gcorr = 0.199724 a.u. Nimag =   0 Frame:    10 Step:    10 Geom:    10
C          12.77237900     10.61012300      9.47118700
C          12.86614500      9.99694100     10.71399800
C          11.09586100      9.11380400      9.63397200
N          11.68448000     10.03672200      8.81283000
H          13.34585800     11.41990200      9.04885900
H          13.55404500     10.17578700     11.51704600
H          10.18414600      8.54904100      9.41438500
C          11.16828300     10.44717100      7.51943200
H          11.26317900      9.63956000      6.77609300
H          10.09145000     10.73790600      7.60082300
H          11.69328500     11.35344200      7.15412600
N          11.82195100      9.07020300     10.79812300
C          11.44238000      8.32587700     12.00153100
H          12.26282900      7.61173100     12.24324200
H          10.52654700      7.72035300     11.77787200
C          11.17438100      9.25359900     13.20917000
H          11.44516000      8.70547200     14.13527500
H          11.85973800     10.13168700     13.17797900
C           9.73052400      9.73290600     13.31521300
H           9.59812700     10.35936800     14.21586300
H           9.03193700      8.88697000     13.43381100
S           9.24519000     10.68886900     11.85762200
O           7.98474400     11.38343200     12.14415600
O          10.41655100     11.53687400     11.55827900
O           9.07872600      9.60807100     10.81692600
P           7.07019400     11.46717800      8.61171300
O           8.22561100     12.25684200      8.18770700
O           6.27483100     11.93495100      9.90155000
H           6.86997800     11.80768400     10.75733300
O           5.93327200     11.51210600      7.49228100
H           5.12859500     10.97531600      7.84645100
O           7.32918700      9.90695200      8.76124800
H           7.97314900      9.73236600      9.58141300
O          11.15794100     12.72822700      9.15333900
H          10.98929200     12.41315900     10.06757600
H          10.27006800     12.84943000      8.81159300
          36
 G =       -0.507692 Gcorr = 0.200364 a.u. Nimag =   0 Frame:    11 Step:    11 Geom:    11
C          12.78235800     10.55755300      9.54792100
C          12.86690700      9.95470200     10.79584700
C          11.14385600      9.01673600      9.68556400
N          11.71891400      9.95503200      8.87286600
H          13.34932000     11.37518200      9.12860400
H          13.53027500     10.16027400     11.61324700
H          10.26122100      8.41804200      9.44758700
C          11.21808900     10.35329300      7.56991000
H          11.96234900     10.16017800      6.78109100
H          10.27098800      9.82950500      7.32070300
H          10.97298000     11.44578000      7.56884200
N          11.84812600      8.99781300     10.86466800
C          11.45798600      8.24632400     12.06049200
H          12.28654700      7.54615500     12.31624200
H          10.55746700      7.62655200     11.81746100
C          11.14849600      9.15960400     13.26947600
H          11.38592400      8.59745000     14.19650000
H          11.83781600     10.03529000     13.27438500
C           9.70177800      9.64123300     13.33442700
H           9.53610300     10.23894400     14.24870500
H           8.99649700      8.79513900     13.39650100
S           9.28955100     10.64497200     11.88731700
O           8.01845000     11.34166700     12.10655600
O          10.48070600     11.49092700     11.68117600
O           9.17095800      9.58888200     10.81136400
P           7.53473700     11.58153000      8.42626300
O           8.66012900     12.48510100      8.19956000
O           6.55568000     11.87577600      9.63969600
H           7.05865500     11.76836200     10.55177600
O           6.53355000     11.62724600      7.18441600
H           5.74870300     10.99442500      7.39530800
O           7.91526500     10.03969600      8.48842300
H           8.34475200      9.81245600      9.43120800
O          11.46066900     12.88167200      9.48676100
H          11.20517800     12.47720600     10.34330500
H          10.60903900     13.03931600      9.07585600
          36
 G =       -0.505834 Gcorr = 0.198761 a.u. Nimag =   0 Frame:    12 Step:    12 Geom:    12
C          13.80224100      9.71764300      9.50374300
C          13.44901400      8.98932800     10.63279500
C          11.55443000      9.74581300      9.67303700
N          12.61642700     10.16569700      8.92087200
H          14.77280400      9.93931500      9.10101700
H          14.07000400      8.48459000     11.34783100
H          10.46844000      9.98015900      9.49692800
C          12.53392200     11.00616200      7.73912400
H          11.50984800     10.97929000      7.30393700
H          12.70996400     12.07570400      8.01358200
H          13.26372800     10.69527900      6.97568100
N          12.05507200      9.00852300     10.71621000
C          11.27231600      8.34930000     11.76629400
H          11.77514900      7.39513200     12.03655500
H          10.26650200      8.07168000     11.33644700
C          11.10647100      9.24908700     13.01082400
H          11.47010000      8.70392900     13.90452700
H          11.76881000     10.14302900     12.93373200
C           9.66484100      9.69386600     13.24121800
H           9.58282900     10.25751200     14.18796600
H           8.98709800      8.83051800     13.34833900
S           9.08990600     10.74003100     11.88241200
O           7.74472300     11.22379600     12.20049300
O          10.15453200     11.74996400     11.71112100
O           9.10716100      9.77968500     10.71295500
P           6.86193400     11.50370400      8.64038600
O           7.93685400     12.43040600      8.29537500
O           6.01046700     11.81202200      9.94685500
H           6.59440000     11.66261300     10.80050400
O           5.73169700     11.52249000      7.51308600
H           4.96859500     10.90631200      7.82647800
O           7.23673400      9.96146000      8.70717200
H           7.94889300      9.81247200      9.46993400
O          10.88113100     12.44959700      9.17791300
H          10.72327500     12.35413700     10.14416200
H           9.99970300     12.60976900      8.83050700
          36
 G =       -0.505844 Gcorr = 0.198751 a.u. Nimag =   0 Frame:    13 Step:    13 Geom:    13
C          13.80067600      9.59677600      9.57514800
C          13.43637800      8.93322400     10.74003700
C          11.55505900      9.68624800      9.75194900
N          12.62261900     10.04347200      8.97568800
H          14.77401200      9.77524400      9.15793600
H          14.04913700      8.44983300     11.47659300
H          10.47392200      9.93735300      9.56881600
C          12.55363700     10.82692500      7.75456000
H          11.52637400     10.80479400      7.32649600
H          12.75815300     11.90375900      7.97518600
H          13.27031900     10.46039800      7.00343100
N          12.04371300      8.98942600     10.82804500
C          11.25120500      8.40095100     11.91228900
H          11.73260400      7.44907500     12.22631400
H          10.23669400      8.12722900     11.50086100
C          11.11384800      9.36354500     13.11254400
H          11.46837100      8.85316400     14.03013400
H          11.79768800     10.23595400     12.98987200
C           9.68479100      9.85462300     13.32678500
H           9.62159400     10.46547000     14.24533800
H           8.98666400      9.01457700     13.47864500
S           9.12883000     10.84757200     11.92100700
O           7.79788300     11.38000500     12.22047400
O          10.21738900     11.82101300     11.69645000
O           9.11599600      9.83142900     10.79965000
P           6.89924300     11.50480700      8.65613400
O           7.99589600     12.38275900      8.25646700
O           6.06617900     11.90380100      9.94985400
H           6.65066500     11.77832700     10.80695000
O           5.76146800     11.49561400      7.53626400
H           4.98463800     10.91736300      7.88586100
O           7.23290800      9.95847400      8.80140000
H           7.94866600      9.83057100      9.56456000
O          10.94537700     12.37898800      9.12925100
H          10.79166800     12.33463800     10.09990700
H          10.06575000     12.54261500      8.77912200
          36
 G =       -0.507358 Gcorr = 0.199727 a.u. Nimag =   0 Frame:    14 Step:    14 Geom:    14
C          12.95259900     10.52170300      9.62868200
C          12.95427300      9.88161600     10.86142600
C          11.25699000      9.03816800      9.64154400
N          11.90887400      9.97271400      8.88379700
H          13.56058900     11.33482200      9.26510800
H          13.58568100     10.03702400     11.71420300
H          10.35810100      8.48708400      9.34694200
C          11.48858700     10.41448100      7.56624800
H          12.04388200     11.32416500      7.25889300
H          11.63092600      9.62207100      6.81417000
H          10.41048300     10.71191400      7.57735700
N          11.89934600      8.96333600     10.85238600
C          11.43097300      8.19733400     12.01002800
H          12.22675800      7.47045500     12.29256000
H          10.52808800      7.60538200     11.71023300
C          11.08693700      9.10196800     13.21594700
H          11.28882000      8.53210300     14.14651100
H          11.77933000      9.97435000     13.25101400
C           9.64287700      9.59198600     13.23245100
H           9.45355500     10.20130300     14.13469000
H           8.93133100      8.75016700     13.28512600
S           9.26639200     10.58149300     11.76510300
O           7.99378300     11.28033200     11.97779100
O          10.46141500     11.42586900     11.56568100
O           9.16561500      9.52357000     10.69297600
P           7.33063100     11.44470400      8.39131800
O           8.51828700     12.23369400      8.06688300
O           6.44930600     11.89187600      9.63176600
H           6.98253900     11.74354800     10.52404900
O           6.27572400     11.52201700      7.19597600
H           5.44536900     10.98292100      7.48045900
O           7.56826500      9.87970900      8.52539900
H           8.15070700      9.68284900      9.38566700
O          11.37949000     12.66022400      9.24484900
H          11.14503400     12.32713500     10.13804800
H          10.51845400     12.79592900      8.84473100
          36
 G =       -0.505846 Gcorr = 0.198749 a.u. Nimag =   0 Frame:    15 Step:    15 Geom:    15
C          13.78590900      9.55587200      9.54132100
C          13.46008500      8.97267700     10.75938100
C          11.54432100      9.62971600      9.76901200
N          12.58715100      9.94391800      8.94212200
H          14.74597600      9.71621900      9.08757500
H          14.09769900      8.55073300     11.51241200
H          10.45554900      9.85362000      9.59635400
C          12.47663200     10.63673700      7.67033400
H          13.17934600     10.22598600      6.92891700
H          11.43938500     10.57145500      7.27181800
H          12.67170900     11.72902700      7.80795000
N          12.06935400      9.01759400     10.87896200