 Entering Gaussian System, Link 0=g16
 Initial command:
 /data0/home/wuhanyu/software/g16/l1.exe "/data0/home/wuhanyu/software/g16/scratch/Gau-45442.inp" -scrdir="/data0/home/wuhanyu/software/g16/scratch/"
 Default is to use a total of  22 processors:
                               22 via shared-memory
                                1 via Linda
 Entering Link 1 = /data0/home/wuhanyu/software/g16/l1.exe PID=     45443.
  
 Copyright (c) 1988,1990,1992,1993,1995,1998,2003,2009,2016,
            Gaussian, Inc.  All Rights Reserved.
  
 This is part of the Gaussian(R) 16 program.  It is based on
 the Gaussian(R) 09 system (copyright 2009, Gaussian, Inc.),
 the Gaussian(R) 03 system (copyright 2003, Gaussian, Inc.),
 the Gaussian(R) 98 system (copyright 1998, Gaussian, Inc.),
 the Gaussian(R) 94 system (copyright 1995, Gaussian, Inc.),
 the Gaussian 92(TM) system (copyright 1992, Gaussian, Inc.),
 the Gaussian 90(TM) system (copyright 1990, Gaussian, Inc.),
 the Gaussian 88(TM) system (copyright 1988, Gaussian, Inc.),
 the Gaussian 86(TM) system (copyright 1986, Carnegie Mellon
 University), and the Gaussian 82(TM) system (copyright 1983,
 Carnegie Mellon University). Gaussian is a federally registered
 trademark of Gaussian, Inc.
  
 This software contains proprietary and confidential information,
 including trade secrets, belonging to Gaussian, Inc.
  
 This software is provided under written license and may be
 used, copied, transmitted, or stored only in accord with that
 written license.
  
 The following legend is applicable only to US Government
 contracts under FAR:
  
                    RESTRICTED RIGHTS LEGEND
  
 Use, reproduction and disclosure by the US Government is
 subject to restrictions as set forth in subparagraphs (a)
 and (c) of the Commercial Computer Software - Restricted
 Rights clause in FAR 52.227-19.
  
 Gaussian, Inc.
 340 Quinnipiac St., Bldg. 40, Wallingford CT 06492
  
  
 ---------------------------------------------------------------
 Warning -- This program may not be used in any manner that
 competes with the business of Gaussian, Inc. or will provide
 assistance to any competitor of Gaussian, Inc.  The licensee
 of this program is prohibited from giving any competitor of
 Gaussian, Inc. access to this program.  By using this program,
 the user acknowledges that Gaussian, Inc. is engaged in the
 business of creating and licensing software in the field of
 computational chemistry and represents and warrants to the
 licensee that it is not a competitor of Gaussian, Inc. and that
 it will not use this program in any manner prohibited above.
 ---------------------------------------------------------------
  

 Cite this work as:
 Gaussian 16, Revision A.03,
 M. J. Frisch, G. W. Trucks, H. B. Schlegel, G. E. Scuseria, 
 M. A. Robb, J. R. Cheeseman, G. Scalmani, V. Barone, 
 G. A. Petersson, H. Nakatsuji, X. Li, M. Caricato, A. V. Marenich, 
 J. Bloino, B. G. Janesko, R. Gomperts, B. Mennucci, H. P. Hratchian, 
 J. V. Ortiz, A. F. Izmaylov, J. L. Sonnenberg, D. Williams-Young, 
 F. Ding, F. Lipparini, F. Egidi, J. Goings, B. Peng, A. Petrone, 
 T. Henderson, D. Ranasinghe, V. G. Zakrzewski, J. Gao, N. Rega, 
 G. Zheng, W. Liang, M. Hada, M. Ehara, K. Toyota, R. Fukuda, 
 J. Hasegawa, M. Ishida, T. Nakajima, Y. Honda, O. Kitao, H. Nakai, 
 T. Vreven, K. Throssell, J. A. Montgomery, Jr., J. E. Peralta, 
 F. Ogliaro, M. J. Bearpark, J. J. Heyd, E. N. Brothers, K. N. Kudin, 
 V. N. Staroverov, T. A. Keith, R. Kobayashi, J. Normand, 
 K. Raghavachari, A. P. Rendell, J. C. Burant, S. S. Iyengar, 
 J. Tomasi, M. Cossi, J. M. Millam, M. Klene, C. Adamo, R. Cammi, 
 J. W. Ochterski, R. L. Martin, K. Morokuma, O. Farkas, 
 J. B. Foresman, and D. J. Fox, Gaussian, Inc., Wallingford CT, 2016.
 
 ******************************************
 Gaussian 16:  ES64L-G16RevA.03 25-Dec-2016
                18-May-2022 
 ******************************************
 %nproc=24
 Will use up to   24 processors via shared memory.
 %mem=80GB
 ---------------------------------------------------
 #p M062X/6-311+G(2d,p) nosymm em=GD3 counterpoise=2
 ---------------------------------------------------
 1/38=1,62=2,172=1/1;
 2/12=2,15=1,17=6,18=5,40=1/2;
 1/38=1,53=2,62=2,63=1/22;
 3/5=4,6=6,7=112,11=2,25=1,30=1,74=-55,124=31/1,2,3;
 4//1;
 5/5=2,38=5/2;
 6/7=2,8=2,9=2,10=2,28=1/1;
 1/53=2,62=2,63=1/22;
 3/5=7,6=11,7=112,11=2,25=1,30=1,74=-55,82=7,124=31/1,2,3;
 4//1;
 5/5=2,38=5/2;
 6/7=2,8=2,9=2,10=2,28=1/1;
 1/53=2,62=2,63=1/22(-4);
 99/5=1,9=1/99;
 Leave Link    1 at Wed May 18 21:43:30 2022, MaxMem= 10737418240 cpu:               0.7 elap:               0.0
 (Enter /data0/home/wuhanyu/software/g16/l101.exe)
 -------------------
 Title Card Required
 -------------------
 Symbolic Z-matrix:
 Charge =  0 Multiplicity = 1 in supermolecule
 Charge =  0 Multiplicity = 1 in fragment      1.
 Charge =  0 Multiplicity = 1 in fragment      2.
 C                     3.52184   17.10636   17.58087    
 C                     2.68384   17.52388   16.53467    
 C                     2.06668   18.77372   16.61133    
 C                     2.34855   19.60737   17.70417    
 C                     3.21229   19.17758   18.6986    
 H                     1.3879    19.1124   15.81902    
 H                     4.01093   16.11979   17.55781    
 H                     1.93681   20.62099   17.73469    
 H                     3.497     19.8221   19.53648    
 C                     2.55122   16.65553   15.34064    
 H                     2.18574   15.64911   15.57235    
 H                     1.89955   17.08988   14.56705    
 H                     3.54616   16.5446   14.84952    
 N                     3.75507   17.92093   18.64323    
 C                     4.645     17.47098   19.73724    
 H                     4.19509   17.77038   20.71174    
 H                     4.69225   16.35677   19.74137    
 C                     6.06391   18.05098   19.60577    
 H                     6.02874   19.15053   19.42997    
 H                     6.58954   17.92347   20.57365    
 C                     6.86951   17.39344   18.48887    
 H                     7.95492   17.54111   18.64946    
 H                     6.70791   16.30719   18.42887    
 C                     6.4869    18.0681   17.15938    
 O                     6.97823   19.17975   16.93678    
 O                     5.66216   17.45168   16.4447    
 P                     4.5337    20.24086   14.67933    
 O                     3.42405   20.49074   15.60936    
 O                     4.2137    20.93376   13.2742    
 H                     5.02037   20.75669   12.656     
 O                     5.94485   20.83344   15.07329    
 H                     6.38658   20.18688   15.81145    
 O                     4.7529    18.71919   14.28636    
 H                     5.17617   18.19982   15.13181    
 
 ITRead=  0  0  0  0  0  0  0  0  0  0  0  0  0  0  0  0  0  0  0  0
 ITRead=  0  0  0  0  0  0  0  0  0  0  0  0  0  0
 MicOpt= -1 -1 -1 -1 -1 -1 -1 -1 -1 -1 -1 -1 -1 -1 -1 -1 -1 -1 -1 -1
 MicOpt= -1 -1 -1 -1 -1 -1 -1 -1 -1 -1 -1 -1 -1 -1
 NAtoms=     34 NQM=       34 NQMF=       0 NMMI=      0 NMMIF=      0
                NMic=       0 NMicF=      0.
                    Isotopes and Nuclear Properties:
 (Nuclear quadrupole moments (NQMom) in fm**2, nuclear magnetic moments (NMagM)
  in nuclear magnetons)

  Atom         1           2           3           4           5           6           7           8           9          10
 IAtWgt=          12          12          12          12          12           1           1           1           1          12
 AtmWgt=  12.0000000  12.0000000  12.0000000  12.0000000  12.0000000   1.0078250   1.0078250   1.0078250   1.0078250  12.0000000
 NucSpn=           0           0           0           0           0           1           1           1           1           0
 AtZEff=  -0.0000000  -0.0000000  -0.0000000  -0.0000000  -0.0000000  -0.0000000  -0.0000000  -0.0000000  -0.0000000  -0.0000000
 NQMom=    0.0000000   0.0000000   0.0000000   0.0000000   0.0000000   0.0000000   0.0000000   0.0000000   0.0000000   0.0000000
 NMagM=    0.0000000   0.0000000   0.0000000   0.0000000   0.0000000   2.7928460   2.7928460   2.7928460   2.7928460   0.0000000
 AtZNuc=   6.0000000   6.0000000   6.0000000   6.0000000   6.0000000   1.0000000   1.0000000   1.0000000   1.0000000   6.0000000

  Atom        11          12          13          14          15          16          17          18          19          20
 IAtWgt=           1           1           1          14          12           1           1          12           1           1
 AtmWgt=   1.0078250   1.0078250   1.0078250  14.0030740  12.0000000   1.0078250   1.0078250  12.0000000   1.0078250   1.0078250
 NucSpn=           1           1           1           2           0           1           1           0           1           1
 AtZEff=  -0.0000000  -0.0000000  -0.0000000  -0.0000000  -0.0000000  -0.0000000  -0.0000000  -0.0000000  -0.0000000  -0.0000000
 NQMom=    0.0000000   0.0000000   0.0000000   2.0440000   0.0000000   0.0000000   0.0000000   0.0000000   0.0000000   0.0000000
 NMagM=    2.7928460   2.7928460   2.7928460   0.4037610   0.0000000   2.7928460   2.7928460   0.0000000   2.7928460   2.7928460
 AtZNuc=   1.0000000   1.0000000   1.0000000   7.0000000   6.0000000   1.0000000   1.0000000   6.0000000   1.0000000   1.0000000

  Atom        21          22          23          24          25          26          27          28          29          30
 IAtWgt=          12           1           1          12          16          16          31          16          16           1
 AtmWgt=  12.0000000   1.0078250   1.0078250  12.0000000  15.9949146  15.9949146  30.9737634  15.9949146  15.9949146   1.0078250
 NucSpn=           0           1           1           0           0           0           1           0           0           1
 AtZEff=  -0.0000000  -0.0000000  -0.0000000  -0.0000000  -0.0000000  -0.0000000  -0.0000000  -0.0000000  -0.0000000  -0.0000000
 NQMom=    0.0000000   0.0000000   0.0000000   0.0000000   0.0000000   0.0000000   0.0000000   0.0000000   0.0000000   0.0000000
 NMagM=    0.0000000   2.7928460   2.7928460   0.0000000   0.0000000   0.0000000   1.1316000   0.0000000   0.0000000   2.7928460
 AtZNuc=   6.0000000   1.0000000   1.0000000   6.0000000   8.0000000   8.0000000  15.0000000   8.0000000   8.0000000   1.0000000

  Atom        31          32          33          34
 IAtWgt=          16           1          16           1
 AtmWgt=  15.9949146   1.0078250  15.9949146   1.0078250
 NucSpn=           0           1           0           1
 AtZEff=  -0.0000000  -0.0000000  -0.0000000  -0.0000000
 NQMom=    0.0000000   0.0000000   0.0000000   0.0000000
 NMagM=    0.0000000   2.7928460   0.0000000   2.7928460
 AtZNuc=   8.0000000   1.0000000   8.0000000   1.0000000
 Leave Link  101 at Wed May 18 21:43:31 2022, MaxMem= 10737418240 cpu:               2.2 elap:               0.1
 (Enter /data0/home/wuhanyu/software/g16/l202.exe)
                          Input orientation:                          
 ---------------------------------------------------------------------
 Center     Atomic      Atomic             Coordinates (Angstroms)
 Number     Number       Type             X           Y           Z
 ---------------------------------------------------------------------
      1          6           0        3.521840   17.106360   17.580874
      2          6           0        2.683844   17.523885   16.534666
      3          6           0        2.066675   18.773720   16.611332
      4          6           0        2.348547   19.607365   17.704174
      5          6           0        3.212290   19.177583   18.698596
      6          1           0        1.387897   19.112404   15.819021
      7          1           0        4.010926   16.119790   17.557814
      8          1           0        1.936805   20.620989   17.734693
      9          1           0        3.497001   19.822098   19.536479
     10          6           0        2.551215   16.655532   15.340641
     11          1           0        2.185738   15.649109   15.572347
     12          1           0        1.899547   17.089884   14.567050
     13          1           0        3.546157   16.544599   14.849521
     14          7           0        3.755073   17.920930   18.643230
     15          6           0        4.644995   17.470984   19.737236
     16          1           0        4.195088   17.770383   20.711739
     17          1           0        4.692248   16.356775   19.741372
     18          6           0        6.063909   18.050977   19.605773
     19          1           0        6.028739   19.150528   19.429975
     20          1           0        6.589535   17.923472   20.573651
     21          6           0        6.869513   17.393445   18.488872
     22          1           0        7.954915   17.541108   18.649459
     23          1           0        6.707913   16.307194   18.428869
     24          6           0        6.486903   18.068100   17.159379
     25          8           0        6.978234   19.179753   16.936776
     26          8           0        5.662155   17.451675   16.444699
     27         15           0        4.533700   20.240861   14.679326
     28          8           0        3.424046   20.490743   15.609355
     29          8           0        4.213700   20.933763   13.274199
     30          1           0        5.020371   20.756689   12.655999
     31          8           0        5.944845   20.833443   15.073285
     32          1           0        6.386575   20.186875   15.811446
     33          8           0        4.752900   18.719195   14.286364
     34          1           0        5.176165   18.199819   15.131815
 ---------------------------------------------------------------------
                    Distance matrix (angstroms):
                    1          2          3          4          5
     1  C    0.000000
     2  C    1.403964   0.000000
     3  C    2.416114   1.396017   0.000000
     4  C    2.765293   2.412688   1.403111   0.000000
     5  C    2.373834   2.774268   2.414997   1.385511   0.000000
     6  H    3.417902   2.171409   1.096906   2.172933   3.409488
     7  H    1.101389   2.186198   3.423344   3.866278   3.359956
     8  H    3.858577   3.404436   2.165920   1.094485   2.153925
     9  H    3.346676   3.867026   3.420733   2.173108   1.094764
    10  C    2.482741   1.482337   2.517172   3.786909   4.251308
    11  H    2.818320   2.165399   3.294975   4.498776   4.824663
    12  H    3.422753   2.162173   2.653738   4.047327   4.811596
    13  H    2.788630   2.131267   3.203408   4.354750   4.675409
    14  N    1.358868   2.398170   2.776067   2.388348   1.369984
    15  C    2.458521   3.755711   4.256305   3.737799   2.458434
    16  H    3.270551   4.448883   4.727596   3.978651   2.645534
    17  H    2.568946   3.959646   4.746831   4.495492   3.351808
    18  C    3.384469   4.597213   5.046475   4.454474   3.197490
    19  H    3.725901   4.713502   4.876954   4.090343   2.909988
    20  H    4.362928   5.632716   6.072821   5.390304   4.061331
    21  C    3.480487   4.621229   5.338311   5.094735   4.074606
    22  H    4.580724   5.679510   6.351745   6.049326   5.017266
    23  H    3.392466   4.611017   5.561320   5.515468   4.531144
    24  C    3.145505   3.892261   4.509620   4.448835   3.784605
    25  O    4.081725   4.620106   4.939047   4.712298   4.157685
    26  O    2.447669   2.980544   3.834455   4.148888   3.749753
    27  P    4.389526   3.774415   3.459966   3.784959   4.362478
    28  O    3.917971   3.194737   2.407194   2.515019   3.363427
    29  O    5.803028   4.959675   4.517960   4.986262   5.788875
    30  H    6.310697   5.563671   5.319882   5.826119   6.501977
    31  O    5.103930   4.870620   4.652768   4.621494   4.832350
    32  H    4.563678   4.617876   4.615015   4.497101   4.407992
    33  O    3.869178   3.280948   3.553063   4.272141   4.695891
    34  H    3.151243   2.938799   3.491026   4.073529   4.187452
                    6          7          8          9         10
     6  H    0.000000
     7  H    4.342743   0.000000
     8  H    2.499386   4.959240   0.000000
     9  H    4.332607   4.229222   2.513736   0.000000
    10  C    2.760141   2.708068   4.672669   5.341040   0.000000
    11  H    3.562557   2.737687   5.427458   5.903185   1.095513
    12  H    2.433065   3.787304   4.743844   5.891696   1.100807
    13  H    3.491653   2.780526   5.247017   5.719440   1.115085
    14  N    3.872892   2.118418   3.379624   2.116349   3.735987
    15  C    5.353070   2.641524   4.611616   2.624106   4.937502
    16  H    5.798278   3.564494   4.699851   2.465379   5.726596
    17  H    5.822119   2.299628   5.459189   3.671384   4.903031
    18  C    6.109927   3.484015   5.209500   3.119405   5.698915
    19  H    5.880294   4.094133   4.666922   2.621459   5.919530
    20  H    7.146825   4.358643   6.081462   3.774159   6.730534
    21  C    6.334906   3.265055   5.942847   4.285986   5.394773
    22  H    7.321617   4.332076   6.822031   5.085540   6.397851
    23  H    6.556148   2.840351   6.469481   4.887873   5.190051
    24  C    5.374662   3.175708   5.248964   4.203169   4.559912
    25  O    5.701384   4.307433   5.303757   4.392043   5.340209
    26  O    4.628042   2.395725   5.058346   4.457118   3.395694
    27  P    3.531062   5.053930   4.027857   4.984179   4.149960
    28  O    2.467728   4.821426   2.597289   3.984308   3.942447
    29  O    4.216471   6.447078   5.017777   6.400438   5.033617
    30  H    5.089523   6.822580   5.943057   7.108806   5.488490
    31  O    4.927867   5.668461   4.815871   5.189881   5.389169
    32  H    5.112859   5.023414   4.867010   4.728485   5.234695
    33  O    3.718453   4.243797   4.841300   5.509754   3.196501
    34  H    3.956771   3.401437   4.809417   4.985223   3.052670
                   11         12         13         14         15
    11  H    0.000000
    12  H    1.779989   0.000000
    13  H    1.781887   1.757399   0.000000
    14  N    4.129686   4.555091   4.041059   0.000000
    15  C    5.168508   5.866306   5.094643   1.480291   0.000000
    16  H    5.911907   6.594679   6.024057   2.120143   1.114321
    17  H    4.915705   5.925389   5.027823   2.128566   1.115218
    18  C    6.089147   6.607143   5.588397   2.504820   1.538503
    19  H    6.473784   6.704067   5.825344   2.701932   2.197732
    20  H    7.041250   7.666167   6.627903   3.429389   2.164618
    21  C    5.786759   6.338249   5.001011   3.162563   2.552039
    22  H    6.806738   7.316908   5.905058   4.216987   3.484788
    23  H    5.389143   6.216642   4.781715   3.371848   2.705894
    24  C    5.183648   5.359189   4.037881   3.112293   3.224053
    25  O    6.106974   5.981322   4.804146   3.858159   4.025726
    26  O    4.011947   4.220625   2.800862   2.947999   3.446126
    27  P    5.233985   4.108531   3.829695   4.658420   5.767760
    28  O    4.997619   3.869927   4.020486   3.989726   5.258238
    29  O    6.109147   4.669280   4.710840   6.173653   7.344910
    30  H    6.528982   5.180455   4.972580   6.744586   7.815413
    31  O    6.423182   5.534884   4.919142   5.101210   5.894759
    32  H    6.188337   5.592253   4.717992   4.480883   5.081436
    33  O    4.203511   3.297736   2.549949   4.540393   5.593003
    34  H    3.955103   3.505302   2.340164   3.798331   4.692893
                   16         17         18         19         20
    16  H    0.000000
    17  H    1.785236   0.000000
    18  C    2.189609   2.184070   0.000000
    19  H    2.628687   3.112593   1.114071   0.000000
    20  H    2.403306   2.597485   1.108751   1.768659   0.000000
    21  C    3.497966   2.717338   1.526045   2.163311   2.169244
    22  H    4.294399   3.638669   2.179543   2.628610   2.390184
    23  H    3.696851   2.405832   2.200142   3.089990   2.688207
    24  C    4.237961   3.579959   2.482753   2.556789   3.418875
    25  O    4.897200   4.589193   3.038696   2.668040   3.867323
    26  O    4.523438   3.606602   3.242369   3.454325   4.258036
    27  P    6.527475   6.382442   5.604196   5.098297   6.658815
    28  O    5.833454   5.980936   5.375192   4.814326   6.423039
    29  O    8.082346   7.937390   7.198789   6.660921   8.245510
    30  H    8.630994   8.346821   7.530552   7.034437   8.554450
    31  O    6.651026   6.587913   5.319750   4.671187   6.256004
    32  H    5.886843   5.743233   4.366130   3.780981   5.276626
    33  O    6.518960   5.944899   5.519182   5.317005   6.598210
    34  H    5.681767   4.987886   4.563611   4.483850   5.629171
                   21         22         23         24         25
    21  C    0.000000
    22  H    1.107109   0.000000
    23  H    1.099844   1.768111   0.000000
    24  C    1.539189   2.157109   2.182027   0.000000
    25  O    2.368907   2.563659   3.248232   1.235609   0.000000
    26  O    2.374815   3.182093   2.518011   1.253378   2.227208
    27  P    5.298721   5.895365   5.853205   3.832304   3.492532
    28  O    5.454917   6.202528   6.019595   4.201531   4.014099
    29  O    6.839591   7.375650   7.361852   5.336113   4.912603
    30  H    6.982345   7.407636   7.481432   5.446068   4.964374
    31  O    4.935061   5.260121   5.685873   3.506100   2.697255
    32  H    3.899370   4.184984   4.691064   2.513204   1.621950
    33  O    4.888633   5.538717   5.176888   3.418319   3.491262
    34  H    3.845452   4.530913   4.098640   2.417933   2.732326
                   26         27         28         29         30
    26  O    0.000000
    27  P    3.488483   0.000000
    28  O    3.865600   1.469261   0.000000
    29  O    4.926970   1.599029   2.504551   0.000000
    30  H    5.068457   2.144010   3.367684   1.031622   0.000000
    31  O    3.660197   1.580407   2.599854   2.498727   2.589173
    32  H    2.899502   2.172040   2.984921   3.422988   3.485405
    33  O    2.663036   1.586800   2.579640   2.493898   2.623168
    34  H    1.587315   2.187089   2.923405   3.442605   3.562516
                   31         32         33         34
    31  O    0.000000
    32  H    1.076131   0.000000
    33  O    2.551475   2.673734   0.000000
    34  H    2.744134   2.423919   1.078746   0.000000
 Symmetry turned off by external request.
 Stoichiometry    C10H16NO6P
 Framework group  C1[X(C10H16NO6P)]
 Deg. of freedom    96
 Full point group                 C1      NOp   1
 Rotational constants (GHZ):           0.5543102           0.3415395           0.2774795
 Leave Link  202 at Wed May 18 21:43:31 2022, MaxMem= 10737418240 cpu:               0.1 elap:               0.0
 (Enter /data0/home/wuhanyu/software/g16/l122.exe)
 Counterpoise: doing full-system calculation.
 Leave Link  122 at Wed May 18 21:43:31 2022, MaxMem= 10737418240 cpu:               0.0 elap:               0.0
 (Enter /data0/home/wuhanyu/software/g16/l301.exe)
 Standard basis: 6-311+G(2d,p) (5D, 7F)
 Ernie: Thresh=  0.10000D-02 Tol=  0.10000D-05 Strict=F.
   590 basis functions,   898 primitive gaussians,   626 cartesian basis functions
    73 alpha electrons       73 beta electrons
       nuclear repulsion energy      1685.5428665589 Hartrees.
 IExCor= 4336 DFT=T Ex+Corr=M062X ExCW=0 ScaHFX=  0.540000
 ScaDFX=  1.000000  1.000000  1.000000  1.000000 ScalE2=  1.000000  1.000000
 IRadAn=      5 IRanWt=     -1 IRanGd=            0 ICorTp=0 IEmpDi=131
 NAtoms=   34 NActive=   34 NUniq=   34 SFac= 1.00D+00 NAtFMM=   60 NAOKFM=F Big=F
 Integral buffers will be    131072 words long.
 Raffenetti 2 integral format.
 Two-electron integral symmetry is turned off.
 R6Disp:  Grimme-D3 Dispersion energy=       -0.0025215721 Hartrees.
 Nuclear repulsion after empirical dispersion term =     1685.5403449868 Hartrees.
 Leave Link  301 at Wed May 18 21:43:31 2022, MaxMem= 10737418240 cpu:               1.2 elap:               0.1
 (Enter /data0/home/wuhanyu/software/g16/l302.exe)
 NPDir=0 NMtPBC=     1 NCelOv=     1 NCel=       1 NClECP=     1 NCelD=      1
         NCelK=      1 NCelE2=     1 NClLst=     1 CellRange=     0.0.
 One-electron integrals computed using PRISM.
 NBasis=   590 RedAO= T EigKep=  2.05D-06  NBF=   590
 NBsUse=   590 1.00D-06 EigRej= -1.00D+00 NBFU=   590
 Precomputing XC quadrature grid using
 IXCGrd= 4 IRadAn=           5 IRanWt=          -1 IRanGd=           0 AccXCQ= 0.00D+00.
 Generated NRdTot=       0 NPtTot=           0 NUsed=           0 NTot=          32
 NSgBfM=   625   625   625   625   625 MxSgAt=    34 MxSgA2=    34.
 Leave Link  302 at Wed May 18 21:43:31 2022, MaxMem= 10737418240 cpu:              15.5 elap:               0.7
 (Enter /data0/home/wuhanyu/software/g16/l303.exe)
 DipDrv:  MaxL=1.
 Leave Link  303 at Wed May 18 21:43:31 2022, MaxMem= 10737418240 cpu:               1.5 elap:               0.1
 (Enter /data0/home/wuhanyu/software/g16/l401.exe)
 ExpMin= 3.48D-02 ExpMax= 7.75D+04 ExpMxC= 2.65D+03 IAcc=3 IRadAn=         5 AccDes= 0.00D+00
 Harris functional with IExCor= 1009 and IRadAn=       5 diagonalized for initial guess.
 HarFok:  IExCor= 1009 AccDes= 0.00D+00 IRadAn=         5 IDoV= 1 UseB2=F ITyADJ=14
 ICtDFT=  3500011 ScaDFX=  1.000000  1.000000  1.000000  1.000000
 FoFCou: FMM=F IPFlag=           0 FMFlag=      100000 FMFlg1=           0
         NFxFlg=           0 DoJE=T BraDBF=F KetDBF=T FulRan=T
         wScrn=  0.000000 ICntrl=       500 IOpCl=  0 I1Cent=   200000004 NGrid=           0
         NMat0=    1 NMatS0=      1 NMatT0=    0 NMatD0=    1 NMtDS0=    0 NMtDT0=    0
 Symmetry not used in FoFCou.
 Harris En= -1237.71046998958    
 JPrj=0 DoOrth=F DoCkMO=F.
 Leave Link  401 at Wed May 18 21:43:34 2022, MaxMem= 10737418240 cpu:              63.2 elap:               2.7
 (Enter /data0/home/wuhanyu/software/g16/l502.exe)
 Two-electron integral symmetry not used.
 Closed shell SCF:
 Using DIIS extrapolation, IDIIS=  1040.
 NGot= 10737418240 LenX= 10736615108 LenY= 10736222606
 Requested convergence on RMS density matrix=1.00D-08 within 128 cycles.
 Requested convergence on MAX density matrix=1.00D-06.
 Requested convergence on             energy=1.00D-06.
 No special actions if energy rises.
 Fock matrices will be formed incrementally for  20 cycles.

 Cycle   1  Pass 1  IDiag  1:
 FoFJK:  IHMeth= 1 ICntrl=       0 DoSepK=F KAlg= 0 I1Cent=           0 FoldK=F
 IRaf= 870000000 NMat=       1 IRICut=       1 DoRegI=T DoRafI=F ISym2E= 0 IDoP0=0 IntGTp=1.
 FoFCou: FMM=F IPFlag=           0 FMFlag=      100000 FMFlg1=           0
         NFxFlg=           0 DoJE=F BraDBF=F KetDBF=F FulRan=T
         wScrn=  0.000000 ICntrl=         0 IOpCl=  0 I1Cent=           0 NGrid=           0
         NMat0=    1 NMatS0=      1 NMatT0=    0 NMatD0=    1 NMtDS0=    0 NMtDT0=    0
 Symmetry not used in FoFCou.
 E= -1237.56088074433    
 DIIS: error= 2.37D-02 at cycle   1 NSaved=   1.
 NSaved= 1 IEnMin= 1 EnMin= -1237.56088074433     IErMin= 1 ErrMin= 2.37D-02
 ErrMax= 2.37D-02  0.00D+00 EMaxC= 1.00D-01 BMatC= 9.93D-01 BMatP= 9.93D-01
 IDIUse=3 WtCom= 7.63D-01 WtEn= 2.37D-01
 Coeff-Com:  0.100D+01
 Coeff-En:   0.100D+01
 Coeff:      0.100D+01
 Gap=     0.251 Goal=   None    Shift=    0.000
 GapD=    0.251 DampG=1.000 DampE=0.500 DampFc=0.5000 IDamp=-1.
 Damping current iteration by 5.00D-01
 RMSDP=1.09D-02 MaxDP=1.64D+00              OVMax= 2.59D-01

 Cycle   2  Pass 1  IDiag  1:
 RMSU=  5.13D-03    CP:  9.24D-01
 E= -1237.83611399647     Delta-E=       -0.275233252141 Rises=F Damp=T
 DIIS: error= 4.74D-03 at cycle   2 NSaved=   2.
 NSaved= 2 IEnMin= 2 EnMin= -1237.83611399647     IErMin= 2 ErrMin= 4.74D-03
 ErrMax= 4.74D-03  0.00D+00 EMaxC= 1.00D-01 BMatC= 7.30D-02 BMatP= 9.93D-01
 IDIUse=3 WtCom= 9.53D-01 WtEn= 4.74D-02
 Coeff-Com:  0.338D-01 0.966D+00
 Coeff-En:   0.132D+00 0.868D+00
 Coeff:      0.384D-01 0.962D+00
 Gap=     0.329 Goal=   None    Shift=    0.000
 RMSDP=5.08D-03 MaxDP=1.31D+00 DE=-2.75D-01 OVMax= 2.28D-01

 Cycle   3  Pass 1  IDiag  1:
 RMSU=  3.40D-03    CP:  7.66D-01  8.59D-01
 E= -1238.16520084344     Delta-E=       -0.329086846973 Rises=F Damp=F
 DIIS: error= 4.34D-03 at cycle   3 NSaved=   3.
 NSaved= 3 IEnMin= 3 EnMin= -1238.16520084344     IErMin= 3 ErrMin= 4.34D-03
 ErrMax= 4.34D-03  0.00D+00 EMaxC= 1.00D-01 BMatC= 4.73D-02 BMatP= 7.30D-02
 IDIUse=3 WtCom= 9.57D-01 WtEn= 4.34D-02
 Coeff-Com: -0.499D-01 0.445D+00 0.605D+00
 Coeff-En:   0.000D+00 0.000D+00 0.100D+01
 Coeff:     -0.477D-01 0.425D+00 0.622D+00
 Gap=     0.273 Goal=   None    Shift=    0.000
 RMSDP=1.63D-03 MaxDP=2.21D-01 DE=-3.29D-01 OVMax= 6.64D-02

 Cycle   4  Pass 1  IDiag  1:
 RMSU=  1.08D-03    CP:  7.43D-01  1.05D+00  8.47D-01
 E= -1238.19750988252     Delta-E=       -0.032309039076 Rises=F Damp=F
 DIIS: error= 2.32D-03 at cycle   4 NSaved=   4.
 NSaved= 4 IEnMin= 4 EnMin= -1238.19750988252     IErMin= 4 ErrMin= 2.32D-03
 ErrMax= 2.32D-03  0.00D+00 EMaxC= 1.00D-01 BMatC= 9.60D-03 BMatP= 4.73D-02
 IDIUse=3 WtCom= 9.77D-01 WtEn= 2.32D-02
 Coeff-Com: -0.323D-01 0.934D-01 0.342D+00 0.596D+00
 Coeff-En:   0.000D+00 0.000D+00 0.162D+00 0.838D+00
 Coeff:     -0.315D-01 0.912D-01 0.338D+00 0.602D+00
 Gap=     0.269 Goal=   None    Shift=    0.000
 RMSDP=5.30D-04 MaxDP=9.35D-02 DE=-3.23D-02 OVMax= 1.88D-02

 Cycle   5  Pass 1  IDiag  1:
 RMSU=  2.52D-04    CP:  7.42D-01  9.91D-01  9.12D-01  7.38D-01
 E= -1238.20528049995     Delta-E=       -0.007770617427 Rises=F Damp=F
 DIIS: error= 3.69D-04 at cycle   5 NSaved=   5.
 NSaved= 5 IEnMin= 5 EnMin= -1238.20528049995     IErMin= 5 ErrMin= 3.69D-04
 ErrMax= 3.69D-04  0.00D+00 EMaxC= 1.00D-01 BMatC= 2.80D-04 BMatP= 9.60D-03
 IDIUse=3 WtCom= 9.96D-01 WtEn= 3.69D-03
 Coeff-Com: -0.103D-01 0.195D-01 0.109D+00 0.250D+00 0.632D+00
 Coeff-En:   0.000D+00 0.000D+00 0.000D+00 0.000D+00 0.100D+01
 Coeff:     -0.103D-01 0.195D-01 0.108D+00 0.249D+00 0.634D+00
 Gap=     0.265 Goal=   None    Shift=    0.000
 RMSDP=9.41D-05 MaxDP=1.09D-02 DE=-7.77D-03 OVMax= 3.50D-03

 Cycle   6  Pass 1  IDiag  1:
 RMSU=  6.91D-05    CP:  7.44D-01  9.87D-01  9.10D-01  7.41D-01  8.71D-01
 E= -1238.20551337650     Delta-E=       -0.000232876554 Rises=F Damp=F
 DIIS: error= 1.02D-04 at cycle   6 NSaved=   6.
 NSaved= 6 IEnMin= 6 EnMin= -1238.20551337650     IErMin= 6 ErrMin= 1.02D-04
 ErrMax= 1.02D-04  0.00D+00 EMaxC= 1.00D-01 BMatC= 2.72D-05 BMatP= 2.80D-04
 IDIUse=3 WtCom= 9.99D-01 WtEn= 1.02D-03
 Coeff-Com: -0.170D-02 0.491D-03 0.180D-01 0.561D-01 0.281D+00 0.646D+00
 Coeff-En:   0.000D+00 0.000D+00 0.000D+00 0.000D+00 0.000D+00 0.100D+01
 Coeff:     -0.170D-02 0.490D-03 0.180D-01 0.561D-01 0.280D+00 0.647D+00
 Gap=     0.265 Goal=   None    Shift=    0.000
 RMSDP=3.16D-05 MaxDP=5.08D-03 DE=-2.33D-04 OVMax= 1.39D-03

 Cycle   7  Pass 1  IDiag  1:
 RMSU=  2.58D-05    CP:  7.44D-01  9.88D-01  9.09D-01  7.51D-01  9.00D-01
                    CP:  9.60D-01
 E= -1238.20553516635     Delta-E=       -0.000021789851 Rises=F Damp=F
 DIIS: error= 4.51D-05 at cycle   7 NSaved=   7.
 NSaved= 7 IEnMin= 7 EnMin= -1238.20553516635     IErMin= 7 ErrMin= 4.51D-05
 ErrMax= 4.51D-05  0.00D+00 EMaxC= 1.00D-01 BMatC= 3.73D-06 BMatP= 2.72D-05
 IDIUse=1 WtCom= 1.00D+00 WtEn= 0.00D+00
 Coeff-Com:  0.446D-03-0.183D-02-0.458D-02-0.440D-02 0.610D-01 0.306D+00
 Coeff-Com:  0.643D+00
 Coeff:      0.446D-03-0.183D-02-0.458D-02-0.440D-02 0.610D-01 0.306D+00
 Coeff:      0.643D+00
 Gap=     0.266 Goal=   None    Shift=    0.000
 RMSDP=1.46D-05 MaxDP=2.90D-03 DE=-2.18D-05 OVMax= 4.64D-04

 Cycle   8  Pass 1  IDiag  1:
 RMSU=  1.09D-05    CP:  7.45D-01  9.88D-01  9.09D-01  7.49D-01  9.00D-01
                    CP:  9.95D-01  1.04D+00
 E= -1238.20553812042     Delta-E=       -0.000002954073 Rises=F Damp=F
 DIIS: error= 1.70D-05 at cycle   8 NSaved=   8.
 NSaved= 8 IEnMin= 8 EnMin= -1238.20553812042     IErMin= 8 ErrMin= 1.70D-05
 ErrMax= 1.70D-05  0.00D+00 EMaxC= 1.00D-01 BMatC= 5.79D-07 BMatP= 3.73D-06
 IDIUse=1 WtCom= 1.00D+00 WtEn= 0.00D+00
 Coeff-Com:  0.480D-03-0.989D-03-0.503D-02-0.109D-01-0.118D-01 0.461D-01
 Coeff-Com:  0.318D+00 0.664D+00
 Coeff:      0.480D-03-0.989D-03-0.503D-02-0.109D-01-0.118D-01 0.461D-01
 Coeff:      0.318D+00 0.664D+00
 Gap=     0.266 Goal=   None    Shift=    0.000
 RMSDP=7.09D-06 MaxDP=1.37D-03 DE=-2.95D-06 OVMax= 2.47D-04

 Cycle   9  Pass 1  IDiag  1:
 RMSU=  4.13D-06    CP:  7.45D-01  9.87D-01  9.10D-01  7.49D-01  9.09D-01
                    CP:  1.00D+00  1.01D+00  8.80D-01
 E= -1238.20553863138     Delta-E=       -0.000000510955 Rises=F Damp=F
 DIIS: error= 4.86D-06 at cycle   9 NSaved=   9.
 NSaved= 9 IEnMin= 9 EnMin= -1238.20553863138     IErMin= 9 ErrMin= 4.86D-06
 ErrMax= 4.86D-06  0.00D+00 EMaxC= 1.00D-01 BMatC= 5.00D-08 BMatP= 5.79D-07
 IDIUse=1 WtCom= 1.00D+00 WtEn= 0.00D+00
 Coeff-Com:  0.164D-03-0.285D-03-0.184D-02-0.446D-02-0.104D-01-0.739D-02
 Coeff-Com:  0.836D-01 0.289D+00 0.652D+00
 Coeff:      0.164D-03-0.285D-03-0.184D-02-0.446D-02-0.104D-01-0.739D-02
 Coeff:      0.836D-01 0.289D+00 0.652D+00
 Gap=     0.266 Goal=   None    Shift=    0.000
 RMSDP=1.39D-06 MaxDP=2.03D-04 DE=-5.11D-07 OVMax= 9.79D-05

 Cycle  10  Pass 1  IDiag  1:
 RMSU=  1.21D-06    CP:  7.45D-01  9.87D-01  9.10D-01  7.50D-01  9.08D-01
                    CP:  1.01D+00  1.01D+00  8.88D-01  1.01D+00
 E= -1238.20553868164     Delta-E=       -0.000000050263 Rises=F Damp=F
 DIIS: error= 2.65D-06 at cycle  10 NSaved=  10.
 NSaved=10 IEnMin=10 EnMin= -1238.20553868164     IErMin=10 ErrMin= 2.65D-06
 ErrMax= 2.65D-06  0.00D+00 EMaxC= 1.00D-01 BMatC= 8.84D-09 BMatP= 5.00D-08
 IDIUse=1 WtCom= 1.00D+00 WtEn= 0.00D+00
 Coeff-Com: -0.294D-05 0.349D-04-0.690D-04-0.351D-03-0.303D-02-0.101D-01
 Coeff-Com: -0.105D-01 0.262D-01 0.304D+00 0.694D+00
 Coeff:     -0.294D-05 0.349D-04-0.690D-04-0.351D-03-0.303D-02-0.101D-01
 Coeff:     -0.105D-01 0.262D-01 0.304D+00 0.694D+00
 Gap=     0.266 Goal=   None    Shift=    0.000
 RMSDP=7.44D-07 MaxDP=1.07D-04 DE=-5.03D-08 OVMax= 4.32D-05

 Cycle  11  Pass 1  IDiag  1:
 RMSU=  5.05D-07    CP:  7.45D-01  9.87D-01  9.10D-01  7.50D-01  9.07D-01
                    CP:  1.01D+00  1.02D+00  9.10D-01  1.08D+00  1.20D+00
 E= -1238.20553869203     Delta-E=       -0.000000010388 Rises=F Damp=F
 DIIS: error= 6.78D-07 at cycle  11 NSaved=  11.
 NSaved=11 IEnMin=11 EnMin= -1238.20553869203     IErMin=11 ErrMin= 6.78D-07
 ErrMax= 6.78D-07  0.00D+00 EMaxC= 1.00D-01 BMatC= 1.06D-09 BMatP= 8.84D-09
 IDIUse=1 WtCom= 1.00D+00 WtEn= 0.00D+00
 Coeff-Com: -0.292D-04 0.598D-04 0.287D-03 0.643D-03 0.440D-03-0.308D-02
 Coeff-Com: -0.202D-01-0.428D-01 0.166D-01 0.274D+00 0.774D+00
 Coeff:     -0.292D-04 0.598D-04 0.287D-03 0.643D-03 0.440D-03-0.308D-02
 Coeff:     -0.202D-01-0.428D-01 0.166D-01 0.274D+00 0.774D+00
 Gap=     0.266 Goal=   None    Shift=    0.000
 RMSDP=6.29D-07 MaxDP=1.18D-04 DE=-1.04D-08 OVMax= 2.71D-05

 Cycle  12  Pass 1  IDiag  1:
 RMSU=  2.21D-07    CP:  7.45D-01  9.87D-01  9.10D-01  7.50D-01  9.07D-01
                    CP:  1.01D+00  1.01D+00  9.10D-01  1.15D+00  1.33D+00
                    CP:  1.01D+00
 E= -1238.20553869401     Delta-E=       -0.000000001984 Rises=F Damp=F
 DIIS: error= 3.15D-07 at cycle  12 NSaved=  12.
 NSaved=12 IEnMin=12 EnMin= -1238.20553869401     IErMin=12 ErrMin= 3.15D-07
 ErrMax= 3.15D-07  0.00D+00 EMaxC= 1.00D-01 BMatC= 1.19D-10 BMatP= 1.06D-09
 IDIUse=1 WtCom= 1.00D+00 WtEn= 0.00D+00
 Coeff-Com: -0.747D-05 0.140D-04 0.902D-04 0.220D-03 0.418D-03 0.385D-03
 Coeff-Com: -0.450D-02-0.139D-01-0.246D-01-0.787D-02 0.243D+00 0.807D+00
 Coeff:     -0.747D-05 0.140D-04 0.902D-04 0.220D-03 0.418D-03 0.385D-03
 Coeff:     -0.450D-02-0.139D-01-0.246D-01-0.787D-02 0.243D+00 0.807D+00
 Gap=     0.266 Goal=   None    Shift=    0.000
 RMSDP=1.21D-07 MaxDP=1.44D-05 DE=-1.98D-09 OVMax= 1.03D-05

 Cycle  13  Pass 1  IDiag  1:
 RMSU=  6.18D-08    CP:  7.45D-01  9.87D-01  9.09D-01  7.50D-01  9.07D-01
                    CP:  1.01D+00  1.01D+00  9.11D-01  1.16D+00  1.36D+00
                    CP:  1.14D+00  1.05D+00
 E= -1238.20553869406     Delta-E=       -0.000000000046 Rises=F Damp=F
 DIIS: error= 1.77D-07 at cycle  13 NSaved=  13.
 NSaved=13 IEnMin=13 EnMin= -1238.20553869406     IErMin=13 ErrMin= 1.77D-07
 ErrMax= 1.77D-07  0.00D+00 EMaxC= 1.00D-01 BMatC= 2.81D-11 BMatP= 1.19D-10
 IDIUse=1 WtCom= 1.00D+00 WtEn= 0.00D+00
 Coeff-Com:  0.122D-05-0.352D-05-0.106D-05 0.761D-05 0.124D-03 0.671D-03
 Coeff-Com:  0.796D-03 0.736D-04-0.144D-01-0.526D-01-0.143D-01 0.355D+00
 Coeff-Com:  0.724D+00
 Coeff:      0.122D-05-0.352D-05-0.106D-05 0.761D-05 0.124D-03 0.671D-03
 Coeff:      0.796D-03 0.736D-04-0.144D-01-0.526D-01-0.143D-01 0.355D+00
 Coeff:      0.724D+00
 Gap=     0.266 Goal=   None    Shift=    0.000
 RMSDP=6.02D-08 MaxDP=9.66D-06 DE=-4.59D-11 OVMax= 3.15D-06

 Cycle  14  Pass 1  IDiag  1:
 RMSU=  3.53D-08    CP:  7.45D-01  9.87D-01  9.10D-01  7.50D-01  9.07D-01
                    CP:  1.01D+00  1.01D+00  9.11D-01  1.16D+00  1.38D+00
                    CP:  1.15D+00  1.18D+00  1.08D+00
 E= -1238.20553869419     Delta-E=       -0.000000000131 Rises=F Damp=F
 DIIS: error= 5.66D-08 at cycle  14 NSaved=  14.
 NSaved=14 IEnMin=14 EnMin= -1238.20553869419     IErMin=14 ErrMin= 5.66D-08
 ErrMax= 5.66D-08  0.00D+00 EMaxC= 1.00D-01 BMatC= 4.27D-12 BMatP= 2.81D-11
 IDIUse=1 WtCom= 1.00D+00 WtEn= 0.00D+00
 Coeff-Com:  0.171D-05-0.358D-05-0.144D-04-0.301D-04-0.108D-04 0.264D-03
 Coeff-Com:  0.106D-02 0.232D-02-0.183D-02-0.218D-01-0.406D-01 0.340D-01
 Coeff-Com:  0.326D+00 0.700D+00
 Coeff:      0.171D-05-0.358D-05-0.144D-04-0.301D-04-0.108D-04 0.264D-03
 Coeff:      0.106D-02 0.232D-02-0.183D-02-0.218D-01-0.406D-01 0.340D-01
 Coeff:      0.326D+00 0.700D+00
 Gap=     0.266 Goal=   None    Shift=    0.000
 RMSDP=1.73D-08 MaxDP=2.40D-06 DE=-1.31D-10 OVMax= 1.45D-06

 Cycle  15  Pass 1  IDiag  1:
 RMSU=  8.87D-09    CP:  7.45D-01  9.87D-01  9.10D-01  7.50D-01  9.07D-01
                    CP:  1.01D+00  1.01D+00  9.11D-01  1.16D+00  1.38D+00
                    CP:  1.16D+00  1.20D+00  1.20D+00  9.19D-01
 E= -1238.20553869419     Delta-E=       -0.000000000002 Rises=F Damp=F
 DIIS: error= 1.88D-08 at cycle  15 NSaved=  15.
 NSaved=15 IEnMin=15 EnMin= -1238.20553869419     IErMin=15 ErrMin= 1.88D-08
 ErrMax= 1.88D-08  0.00D+00 EMaxC= 1.00D-01 BMatC= 4.08D-13 BMatP= 4.27D-12
 IDIUse=1 WtCom= 1.00D+00 WtEn= 0.00D+00
 Coeff-Com:  0.357D-06-0.707D-06-0.452D-05-0.102D-04-0.185D-04-0.506D-06
 Coeff-Com:  0.229D-03 0.735D-03 0.108D-02-0.725D-03-0.127D-01-0.392D-01
 Coeff-Com:  0.846D-02 0.240D+00 0.802D+00
 Coeff:      0.357D-06-0.707D-06-0.452D-05-0.102D-04-0.185D-04-0.506D-06
 Coeff:      0.229D-03 0.735D-03 0.108D-02-0.725D-03-0.127D-01-0.392D-01
 Coeff:      0.846D-02 0.240D+00 0.802D+00
 Gap=     0.266 Goal=   None    Shift=    0.000
 RMSDP=8.83D-09 MaxDP=1.61D-06 DE=-1.82D-12 OVMax= 3.73D-07

 Cycle  16  Pass 1  IDiag  1:
 RMSU=  3.76D-09    CP:  7.45D-01  9.87D-01  9.10D-01  7.50D-01  9.07D-01
                    CP:  1.01D+00  1.01D+00  9.11D-01  1.16D+00  1.38D+00
                    CP:  1.16D+00  1.21D+00  1.23D+00  1.02D+00  1.16D+00
 E= -1238.20553869410     Delta-E=        0.000000000096 Rises=F Damp=F
 DIIS: error= 5.13D-09 at cycle  16 NSaved=  16.
 NSaved=16 IEnMin=15 EnMin= -1238.20553869419     IErMin=16 ErrMin= 5.13D-09
 ErrMax= 5.13D-09  0.00D+00 EMaxC= 1.00D-01 BMatC= 4.76D-14 BMatP= 4.08D-13
 IDIUse=1 WtCom= 1.00D+00 WtEn= 0.00D+00
 Coeff-Com: -0.771D-07 0.161D-06-0.298D-07-0.281D-06-0.445D-05-0.300D-04
 Coeff-Com: -0.392D-04 0.893D-05 0.592D-03 0.237D-02 0.401D-03-0.164D-01
 Coeff-Com: -0.335D-01 0.105D-01 0.293D+00 0.743D+00
 Coeff:     -0.771D-07 0.161D-06-0.298D-07-0.281D-06-0.445D-05-0.300D-04
 Coeff:     -0.392D-04 0.893D-05 0.592D-03 0.237D-02 0.401D-03-0.164D-01
 Coeff:     -0.335D-01 0.105D-01 0.293D+00 0.743D+00
 Gap=     0.266 Goal=   None    Shift=    0.000
 RMSDP=2.86D-09 MaxDP=6.75D-07 DE= 9.60D-11 OVMax= 1.20D-07

 SCF Done:  E(RM062X) =  -1238.20553869     A.U. after   16 cycles
            NFock= 16  Conv=0.29D-08     -V/T= 2.0034
 KE= 1.233993409798D+03 PE=-6.284402037269D+03 EE= 2.126662743791D+03
 Leave Link  502 at Wed May 18 21:46:23 2022, MaxMem= 10737418240 cpu:            4043.4 elap:             169.0
 (Enter /data0/home/wuhanyu/software/g16/l601.exe)
 Copying SCF densities to generalized density rwf, IOpCl= 0 IROHF=0.

 **********************************************************************

            Population analysis using the SCF density.

 **********************************************************************

 Alpha  occ. eigenvalues --  -78.11869 -19.63163 -19.60654 -19.60528 -19.58681
 Alpha  occ. eigenvalues --  -19.58257 -19.55168 -14.87872 -10.64287 -10.64071
 Alpha  occ. eigenvalues --  -10.63434 -10.63201 -10.59646 -10.59006 -10.58674
 Alpha  occ. eigenvalues --  -10.57444 -10.54969 -10.54750  -6.92585  -5.04530
 Alpha  occ. eigenvalues --   -5.04449  -5.04302  -1.18683  -1.17767  -1.15492
 Alpha  occ. eigenvalues --   -1.10742  -1.09717  -1.07950  -1.05790  -0.97415
 Alpha  occ. eigenvalues --   -0.92427  -0.91365  -0.83905  -0.82370  -0.76277
 Alpha  occ. eigenvalues --   -0.74504  -0.71024  -0.66948  -0.64699  -0.62102
 Alpha  occ. eigenvalues --   -0.61663  -0.60075  -0.59602  -0.57967  -0.57720
 Alpha  occ. eigenvalues --   -0.55554  -0.54860  -0.53382  -0.52762  -0.52606
 Alpha  occ. eigenvalues --   -0.52096  -0.50342  -0.49378  -0.48716  -0.48058
 Alpha  occ. eigenvalues --   -0.47731  -0.46548  -0.45705  -0.45142  -0.44695
 Alpha  occ. eigenvalues --   -0.44350  -0.43319  -0.42439  -0.41470  -0.40832
 Alpha  occ. eigenvalues --   -0.38751  -0.36952  -0.35770  -0.34774  -0.33644
 Alpha  occ. eigenvalues --   -0.32864  -0.32502  -0.32008
 Alpha virt. eigenvalues --   -0.05455  -0.02108  -0.01056   0.00413   0.00803
 Alpha virt. eigenvalues --    0.01653   0.02510   0.02787   0.02980   0.03710
 Alpha virt. eigenvalues --    0.04408   0.05069   0.05522   0.06210   0.06468
 Alpha virt. eigenvalues --    0.06785   0.07472   0.07773   0.08352   0.08736
 Alpha virt. eigenvalues --    0.08894   0.09520   0.09805   0.10301   0.10740
 Alpha virt. eigenvalues --    0.11012   0.11728   0.12121   0.12896   0.13005
 Alpha virt. eigenvalues --    0.13681   0.13737   0.14499   0.14864   0.15413
 Alpha virt. eigenvalues --    0.15804   0.16108   0.16144   0.16648   0.17111
 Alpha virt. eigenvalues --    0.17368   0.18046   0.18228   0.18635   0.18959
 Alpha virt. eigenvalues --    0.19589   0.19660   0.19798   0.20625   0.20802
 Alpha virt. eigenvalues --    0.21543   0.22040   0.22337   0.22736   0.23396
 Alpha virt. eigenvalues --    0.23508   0.23738   0.23889   0.24046   0.24430
 Alpha virt. eigenvalues --    0.25151   0.25485   0.26005   0.26085   0.26243
 Alpha virt. eigenvalues --    0.27407   0.27557   0.28128   0.28475   0.28690
 Alpha virt. eigenvalues --    0.28976   0.29213   0.30081   0.30530   0.30910
 Alpha virt. eigenvalues --    0.31269   0.31655   0.32206   0.32317   0.32689
 Alpha virt. eigenvalues --    0.33011   0.33498   0.33991   0.34252   0.35006
 Alpha virt. eigenvalues --    0.35297   0.35766   0.36151   0.36546   0.36908
 Alpha virt. eigenvalues --    0.37513   0.37973   0.38270   0.39177   0.39424
 Alpha virt. eigenvalues --    0.39596   0.40145   0.41007   0.41916   0.42332
 Alpha virt. eigenvalues --    0.43144   0.44280   0.44692   0.45111   0.46163
 Alpha virt. eigenvalues --    0.46494   0.46764   0.48187   0.48743   0.49442
 Alpha virt. eigenvalues --    0.49738   0.50901   0.51641   0.52725   0.53401
 Alpha virt. eigenvalues --    0.54096   0.54203   0.55173   0.56583   0.57040
 Alpha virt. eigenvalues --    0.57390   0.57920   0.59603   0.59944   0.60003
 Alpha virt. eigenvalues --    0.60515   0.60957   0.61737   0.62963   0.63249
 Alpha virt. eigenvalues --    0.63972   0.64325   0.65018   0.65325   0.65725
 Alpha virt. eigenvalues --    0.66690   0.67211   0.68608   0.69087   0.69804
 Alpha virt. eigenvalues --    0.70058   0.70341   0.71298   0.71562   0.71907
 Alpha virt. eigenvalues --    0.72568   0.73083   0.73447   0.73860   0.74818
 Alpha virt. eigenvalues --    0.75453   0.76185   0.76931   0.77675   0.78758
 Alpha virt. eigenvalues --    0.79577   0.79945   0.81505   0.81936   0.82231
 Alpha virt. eigenvalues --    0.83418   0.83761   0.84461   0.85169   0.85934
 Alpha virt. eigenvalues --    0.86493   0.86812   0.88175   0.89261   0.90384
 Alpha virt. eigenvalues --    0.91640   0.91884   0.93087   0.93837   0.94510
 Alpha virt. eigenvalues --    0.94926   0.97072   0.97555   0.97759   0.99141
 Alpha virt. eigenvalues --    1.00252   1.01360   1.01877   1.04468   1.06529
 Alpha virt. eigenvalues --    1.07145   1.08161   1.09385   1.10477   1.11803
 Alpha virt. eigenvalues --    1.13007   1.13764   1.14392   1.14794   1.15981
 Alpha virt. eigenvalues --    1.16468   1.17374   1.18921   1.19590   1.20138
 Alpha virt. eigenvalues --    1.20587   1.22051   1.23467   1.24868   1.25028
 Alpha virt. eigenvalues --    1.25501   1.26184   1.26448   1.28129   1.28791
 Alpha virt. eigenvalues --    1.29261   1.29476   1.30597   1.30893   1.32027
 Alpha virt. eigenvalues --    1.32849   1.33277   1.33850   1.35111   1.35579
 Alpha virt. eigenvalues --    1.35925   1.36277   1.37055   1.37221   1.37548
 Alpha virt. eigenvalues --    1.38013   1.39473   1.40234   1.41678   1.42366
 Alpha virt. eigenvalues --    1.42627   1.43349   1.43528   1.44154   1.44636
 Alpha virt. eigenvalues --    1.45519   1.45906   1.46632   1.48366   1.48628
 Alpha virt. eigenvalues --    1.49581   1.51488   1.52101   1.53220   1.54343
 Alpha virt. eigenvalues --    1.55054   1.57990   1.59002   1.60166   1.60502
 Alpha virt. eigenvalues --    1.61134   1.62639   1.63834   1.64808   1.67755
 Alpha virt. eigenvalues --    1.68881   1.69480   1.70425   1.70939   1.72332
 Alpha virt. eigenvalues --    1.73670   1.74375   1.75917   1.76175   1.77467
 Alpha virt. eigenvalues --    1.77932   1.78275   1.79542   1.79909   1.81882
 Alpha virt. eigenvalues --    1.82694   1.83410   1.83702   1.85046   1.86978
 Alpha virt. eigenvalues --    1.88625   1.89498   1.90066   1.92547   1.93712
 Alpha virt. eigenvalues --    1.95071   1.95272   1.98167   1.99209   1.99817
 Alpha virt. eigenvalues --    2.01798   2.02365   2.02666   2.05595   2.06290
 Alpha virt. eigenvalues --    2.06948   2.08273   2.11656   2.11848   2.13220
 Alpha virt. eigenvalues --    2.15392   2.16826   2.17363   2.19104   2.20606
 Alpha virt. eigenvalues --    2.20866   2.22223   2.23164   2.23525   2.24670
 Alpha virt. eigenvalues --    2.25283   2.28547   2.29506   2.30570   2.31931
 Alpha virt. eigenvalues --    2.33033   2.33709   2.34338   2.35155   2.36469
 Alpha virt. eigenvalues --    2.37067   2.38338   2.38941   2.40372   2.41572
 Alpha virt. eigenvalues --    2.44123   2.44980   2.46346   2.47347   2.48592
 Alpha virt. eigenvalues --    2.48728   2.52028   2.58617   2.59243   2.59831
 Alpha virt. eigenvalues --    2.61738   2.64746   2.66324   2.67550   2.69180
 Alpha virt. eigenvalues --    2.70409   2.73178   2.74958   2.76610   2.77825
 Alpha virt. eigenvalues --    2.79392   2.80120   2.81693   2.82469   2.83820
 Alpha virt. eigenvalues --    2.85623   2.86862   2.88201   2.90554   2.90789
 Alpha virt. eigenvalues --    2.91376   2.92264   2.93566   2.95159   2.97060
 Alpha virt. eigenvalues --    2.99099   2.99976   3.01315   3.02541   3.05867
 Alpha virt. eigenvalues --    3.07358   3.09209   3.11797   3.12553   3.13048
 Alpha virt. eigenvalues --    3.13843   3.17404   3.18893   3.21267   3.22646
 Alpha virt. eigenvalues --    3.25009   3.27687   3.29564   3.31082   3.31926
 Alpha virt. eigenvalues --    3.33257   3.35372   3.37211   3.37813   3.39010
 Alpha virt. eigenvalues --    3.39993   3.41365   3.42598   3.43662   3.44263
 Alpha virt. eigenvalues --    3.46239   3.46617   3.49728   3.50369   3.52079
 Alpha virt. eigenvalues --    3.52544   3.52951   3.55113   3.55588   3.57092
 Alpha virt. eigenvalues --    3.58427   3.58947   3.61736   3.62547   3.62762
 Alpha virt. eigenvalues --    3.64156   3.64666   3.66746   3.67511   3.68887
 Alpha virt. eigenvalues --    3.70142   3.71535   3.72148   3.72552   3.73744
 Alpha virt. eigenvalues --    3.75629   3.76462   3.77976   3.81594   3.82674
 Alpha virt. eigenvalues --    3.84811   3.87672   3.89626   3.93051   3.94548
 Alpha virt. eigenvalues --    3.98108   3.99412   4.02256   4.04950   4.08225
 Alpha virt. eigenvalues --    4.10357   4.15167   4.17578   4.19507   4.20878
 Alpha virt. eigenvalues --    4.22922   4.27751   4.32412   4.39688   4.40762
 Alpha virt. eigenvalues --    4.49966   4.53340   4.65766   4.73119   4.97156
 Alpha virt. eigenvalues --    5.02663   5.08489   5.12481   5.12944   5.14139
 Alpha virt. eigenvalues --    5.17841   5.22184   5.23913   5.28246   5.30378
 Alpha virt. eigenvalues --    5.31398   5.34090   5.38551   5.40831   5.46754
 Alpha virt. eigenvalues --    5.49409   5.50379   5.51238   5.57756   5.60284
 Alpha virt. eigenvalues --    5.66171   5.69881   5.76504   5.97568   6.26002
 Alpha virt. eigenvalues --    6.79146   6.80730   6.83131   6.83781   6.87069
 Alpha virt. eigenvalues --    6.87509   6.88274   6.91927   6.92853   6.94649
 Alpha virt. eigenvalues --    6.97740   6.99275   7.02740   7.04835   7.06095
 Alpha virt. eigenvalues --    7.07524   7.08636   7.10856   7.12589   7.15319
 Alpha virt. eigenvalues --    7.23442   7.25803   7.31372   7.33499   7.33788
 Alpha virt. eigenvalues --    7.35769   7.41187   7.41868   7.44940   7.48980
 Alpha virt. eigenvalues --    7.75668  14.31968  14.36457  14.44449  23.84091
 Alpha virt. eigenvalues --   23.98000  24.00773  24.02802  24.05408  24.09095
 Alpha virt. eigenvalues --   24.10138  24.13149  24.26235  24.26664  35.70104
 Alpha virt. eigenvalues --   50.07097  50.12189  50.12756  50.17804  50.19157
 Alpha virt. eigenvalues --   50.21263 164.01465
          Condensed to atoms (all electrons):
               1          2          3          4          5          6
     1  C   12.451697  -3.706535  -1.069440   0.487918  -1.174465   0.027689
     2  C   -3.706535  11.345224  -2.710855   0.641562  -0.149229  -0.027995
     3  C   -1.069440  -2.710855  11.868329  -3.570306   1.680802   0.345749
     4  C    0.487918   0.641562  -3.570306  10.558323  -2.138975   0.042890
     5  C   -1.174465  -0.149229   1.680802  -2.138975   7.192255  -0.007983
     6  H    0.027689  -0.027995   0.345749   0.042890  -0.007983   0.488775
     7  H    0.224176   0.143905   0.037522  -0.018055   0.016848  -0.000179
     8  H   -0.009350   0.002252   0.039757   0.299365   0.014942  -0.003858
     9  H    0.022138  -0.002866  -0.012621   0.011035   0.371035  -0.000183
    10  C   -0.602101   0.191521  -0.116768  -0.213332   0.167871  -0.024068
    11  H   -0.083220  -0.052499   0.102943  -0.004613   0.002593  -0.000057
    12  H    0.051370  -0.186508   0.037815   0.029019   0.001906   0.003807
    13  H   -0.017238   0.061875  -0.084942   0.000604  -0.000982   0.000174
    14  N   -0.216409   0.172202  -0.143599   0.032291   0.274160   0.001816
    15  C   -0.096153  -0.173622   0.019732  -0.136173   0.019734  -0.000515
    16  H    0.002640  -0.010064   0.001361   0.015379  -0.009976  -0.000001
    17  H    0.011908   0.030018  -0.006236   0.000467  -0.017405  -0.000001
    18  C    0.207152  -0.011484  -0.034013   0.089572  -0.115139   0.000164
    19  H    0.002925   0.008667  -0.005732  -0.003670  -0.001701   0.000001
    20  H   -0.001187   0.000666   0.001515  -0.002944   0.003527   0.000000
    21  C    0.026376   0.017494  -0.038343   0.083851  -0.012526   0.000302
    22  H    0.006699  -0.002254   0.000844  -0.000972   0.003612   0.000000
    23  H   -0.019533   0.022480   0.001311  -0.002438  -0.001737  -0.000000
    24  C   -0.374046   0.197694  -0.071769   0.024323  -0.049334  -0.000401
    25  O   -0.001658  -0.030807   0.024536  -0.030088   0.016149   0.000007
    26  O    0.121559  -0.171082   0.061173  -0.015126   0.019166  -0.000291
    27  P   -0.027358   0.034554   0.043373  -0.049246   0.028992   0.001209
    28  O    0.103612  -0.111054   0.087461  -0.062250  -0.070099  -0.022761
    29  O   -0.005832  -0.006705  -0.006961   0.019804  -0.000681   0.000386
    30  H   -0.003051  -0.000447   0.000142   0.000168   0.000903   0.000028
    31  O   -0.026771   0.037011   0.012814  -0.072161   0.036898  -0.000150
    32  H    0.016168  -0.011630   0.001212   0.003096  -0.010372  -0.000002
    33  O    0.040021  -0.185169   0.047800   0.010793   0.030426  -0.000591
    34  H   -0.042042   0.105129  -0.052126   0.011387  -0.017191   0.000283
               7          8          9         10         11         12
     1  C    0.224176  -0.009350   0.022138  -0.602101  -0.083220   0.051370
     2  C    0.143905   0.002252  -0.002866   0.191521  -0.052499  -0.186508
     3  C    0.037522   0.039757  -0.012621  -0.116768   0.102943   0.037815
     4  C   -0.018055   0.299365   0.011035  -0.213332  -0.004613   0.029019
     5  C    0.016848   0.014942   0.371035   0.167871   0.002593   0.001906
     6  H   -0.000179  -0.003858  -0.000183  -0.024068  -0.000057   0.003807
     7  H    0.477839   0.000032  -0.000169   0.018400   0.001103  -0.000398
     8  H    0.000032   0.496307  -0.003684   0.000727   0.000003  -0.000010
     9  H   -0.000169  -0.003684   0.489848   0.001205   0.000001  -0.000003
    10  C    0.018400   0.000727   0.001205   6.134995   0.396597   0.431298
    11  H    0.001103   0.000003   0.000001   0.396597   0.505154  -0.019445
    12  H   -0.000398  -0.000010  -0.000003   0.431298  -0.019445   0.499505
    13  H    0.000813   0.000011   0.000001   0.404730  -0.031842  -0.020283
    14  N   -0.050058   0.007008  -0.059553  -0.031250   0.001741  -0.001058
    15  C   -0.029554   0.000593   0.030951  -0.007968  -0.000344   0.000482
    16  H    0.000484  -0.000033   0.000308  -0.001176   0.000000  -0.000000
    17  H    0.003428   0.000015  -0.000001   0.004994  -0.000027  -0.000001
    18  C    0.015058   0.000609  -0.011695   0.000036   0.000052   0.000184
    19  H   -0.000030   0.000027  -0.000418   0.001331  -0.000000  -0.000000
    20  H   -0.000091  -0.000001  -0.000122  -0.000309  -0.000000   0.000000
    21  C   -0.015958  -0.000007   0.000132  -0.009158   0.000341   0.000061
    22  H   -0.000105   0.000000  -0.000003   0.000040   0.000000   0.000000
    23  H   -0.000291   0.000000  -0.000043   0.002064  -0.000007   0.000000
    24  C    0.017722  -0.000442   0.001710  -0.021221  -0.000257  -0.000690
    25  O    0.000213   0.000021  -0.000113   0.006553  -0.000004  -0.000021
    26  O   -0.036186  -0.000086  -0.000084   0.012285  -0.001054  -0.000086
    27  P    0.001009  -0.001185  -0.000122   0.011914   0.000466  -0.000445
    28  O   -0.000362  -0.011281  -0.000214  -0.026029  -0.000261  -0.000247
    29  O    0.000013  -0.000173  -0.000002  -0.004363   0.000015  -0.000047
    30  H    0.000001  -0.000005   0.000000   0.002976   0.000001  -0.000006
    31  O    0.000018   0.000233  -0.000004   0.014252  -0.000008  -0.000058
    32  H   -0.000045   0.000058   0.000020  -0.002417  -0.000002   0.000016
    33  O   -0.000672  -0.000302  -0.000020   0.008032   0.001888  -0.002201
    34  H    0.001279  -0.000019   0.000031   0.010519  -0.000260  -0.000913
              13         14         15         16         17         18
     1  C   -0.017238  -0.216409  -0.096153   0.002640   0.011908   0.207152
     2  C    0.061875   0.172202  -0.173622  -0.010064   0.030018  -0.011484
     3  C   -0.084942  -0.143599   0.019732   0.001361  -0.006236  -0.034013
     4  C    0.000604   0.032291  -0.136173   0.015379   0.000467   0.089572
     5  C   -0.000982   0.274160   0.019734  -0.009976  -0.017405  -0.115139
     6  H    0.000174   0.001816  -0.000515  -0.000001  -0.000001   0.000164
     7  H    0.000813  -0.050058  -0.029554   0.000484   0.003428   0.015058
     8  H    0.000011   0.007008   0.000593  -0.000033   0.000015   0.000609
     9  H    0.000001  -0.059553   0.030951   0.000308  -0.000001  -0.011695
    10  C    0.404730  -0.031250  -0.007968  -0.001176   0.004994   0.000036
    11  H   -0.031842   0.001741  -0.000344   0.000000  -0.000027   0.000052
    12  H   -0.020283  -0.001058   0.000482  -0.000000  -0.000001   0.000184
    13  H    0.462363   0.000568  -0.000715   0.000001   0.000005   0.000103
    14  N    0.000568   6.503600   0.155602  -0.063938  -0.063646  -0.027573
    15  C   -0.000715   0.155602   6.005852   0.458054   0.449464  -0.233016
    16  H    0.000001  -0.063938   0.458054   0.494964  -0.022238  -0.052533
    17  H    0.000005  -0.063646   0.449464  -0.022238   0.473739  -0.033981
    18  C    0.000103  -0.027573  -0.233016  -0.052533  -0.033981   5.840554
    19  H   -0.000001   0.012370  -0.059297  -0.003391   0.003536   0.483758
    20  H    0.000001  -0.001163  -0.019838  -0.005270  -0.002016   0.429603
    21  C   -0.001704   0.014070  -0.221688   0.007095  -0.019055  -0.019577
    22  H    0.000002  -0.000108   0.013503  -0.000189  -0.000030  -0.027368
    23  H   -0.000025   0.007590  -0.015751  -0.000032  -0.000747  -0.007826
    24  C    0.003835   0.029931   0.253624   0.002840   0.000193  -0.297620
    25  O    0.000420   0.008252   0.015652  -0.000069  -0.000430  -0.010414
    26  O    0.004197  -0.034332  -0.002262  -0.000434  -0.002661   0.061208
    27  P   -0.003491   0.001655  -0.000258  -0.000079   0.000200   0.010142
    28  O    0.000099  -0.006130  -0.004219   0.000067  -0.000020  -0.001530
    29  O    0.000020  -0.000048   0.000023  -0.000000   0.000000  -0.000007
    30  H    0.000026   0.000001   0.000032  -0.000000  -0.000000  -0.000009
    31  O    0.000087  -0.001867   0.002956  -0.000004  -0.000007  -0.007204
    32  H   -0.000038  -0.000712   0.000439   0.000007   0.000005   0.002866
    33  O   -0.008898  -0.004563   0.003814   0.000007  -0.000038   0.000783
    34  H    0.007443   0.008429  -0.003964   0.000005   0.000019  -0.000718
              19         20         21         22         23         24
     1  C    0.002925  -0.001187   0.026376   0.006699  -0.019533  -0.374046
     2  C    0.008667   0.000666   0.017494  -0.002254   0.022480   0.197694
     3  C   -0.005732   0.001515  -0.038343   0.000844   0.001311  -0.071769
     4  C   -0.003670  -0.002944   0.083851  -0.000972  -0.002438   0.024323
     5  C   -0.001701   0.003527  -0.012526   0.003612  -0.001737  -0.049334
     6  H    0.000001   0.000000   0.000302   0.000000  -0.000000  -0.000401
     7  H   -0.000030  -0.000091  -0.015958  -0.000105  -0.000291   0.017722
     8  H    0.000027  -0.000001  -0.000007   0.000000   0.000000  -0.000442
     9  H   -0.000418  -0.000122   0.000132  -0.000003  -0.000043   0.001710
    10  C    0.001331  -0.000309  -0.009158   0.000040   0.002064  -0.021221
    11  H   -0.000000  -0.000000   0.000341   0.000000  -0.000007  -0.000257
    12  H   -0.000000   0.000000   0.000061   0.000000   0.000000  -0.000690
    13  H   -0.000001   0.000001  -0.001704   0.000002  -0.000025   0.003835
    14  N    0.012370  -0.001163   0.014070  -0.000108   0.007590   0.029931
    15  C   -0.059297  -0.019838  -0.221688   0.013503  -0.015751   0.253624
    16  H   -0.003391  -0.005270   0.007095  -0.000189  -0.000032   0.002840
    17  H    0.003536  -0.002016  -0.019055  -0.000030  -0.000747   0.000193
    18  C    0.483758   0.429603  -0.019577  -0.027368  -0.007826  -0.297620
    19  H    0.453853  -0.028655  -0.022284  -0.000613   0.003376  -0.047648
    20  H   -0.028655   0.519284  -0.074683  -0.007528  -0.002289   0.028198
    21  C   -0.022284  -0.074683   6.309306   0.429092   0.473816  -0.315206
    22  H   -0.000613  -0.007528   0.429092   0.497378  -0.031005  -0.070681
    23  H    0.003376  -0.002289   0.473816  -0.031005   0.504217  -0.104537
    24  C   -0.047648   0.028198  -0.315206  -0.070681  -0.104537   5.740440
    25  O   -0.004066  -0.001052  -0.125491  -0.004774   0.005795   0.491799
    26  O    0.003790  -0.001739  -0.093181   0.009895  -0.005463   0.075612
    27  P    0.000181   0.000053  -0.020707   0.000254  -0.000054  -0.032816
    28  O   -0.000127  -0.000007   0.005024  -0.000010   0.000025   0.012722
    29  O   -0.000001   0.000000  -0.002176   0.000001  -0.000000  -0.003748
    30  H    0.000000   0.000000  -0.000378   0.000000   0.000000  -0.001421
    31  O    0.000107  -0.000018   0.009463   0.000093  -0.000022   0.005940
    32  H   -0.000022   0.000007   0.002106  -0.000360   0.000121  -0.005028
    33  O    0.000101  -0.000008   0.000514   0.000057   0.000217  -0.032409
    34  H   -0.000099   0.000005   0.016767  -0.000076  -0.000582   0.024573
              25         26         27         28         29         30
     1  C   -0.001658   0.121559  -0.027358   0.103612  -0.005832  -0.003051
     2  C   -0.030807  -0.171082   0.034554  -0.111054  -0.006705  -0.000447
     3  C    0.024536   0.061173   0.043373   0.087461  -0.006961   0.000142
     4  C   -0.030088  -0.015126  -0.049246  -0.062250   0.019804   0.000168
     5  C    0.016149   0.019166   0.028992  -0.070099  -0.000681   0.000903
     6  H    0.000007  -0.000291   0.001209  -0.022761   0.000386   0.000028
     7  H    0.000213  -0.036186   0.001009  -0.000362   0.000013   0.000001
     8  H    0.000021  -0.000086  -0.001185  -0.011281  -0.000173  -0.000005
     9  H   -0.000113  -0.000084  -0.000122  -0.000214  -0.000002   0.000000
    10  C    0.006553   0.012285   0.011914  -0.026029  -0.004363   0.002976
    11  H   -0.000004  -0.001054   0.000466  -0.000261   0.000015   0.000001
    12  H   -0.000021  -0.000086  -0.000445  -0.000247  -0.000047  -0.000006
    13  H    0.000420   0.004197  -0.003491   0.000099   0.000020   0.000026
    14  N    0.008252  -0.034332   0.001655  -0.006130  -0.000048   0.000001
    15  C    0.015652  -0.002262  -0.000258  -0.004219   0.000023   0.000032
    16  H   -0.000069  -0.000434  -0.000079   0.000067  -0.000000  -0.000000
    17  H   -0.000430  -0.002661   0.000200  -0.000020   0.000000  -0.000000
    18  C   -0.010414   0.061208   0.010142  -0.001530  -0.000007  -0.000009
    19  H   -0.004066   0.003790   0.000181  -0.000127  -0.000001   0.000000
    20  H   -0.001052  -0.001739   0.000053  -0.000007   0.000000   0.000000
    21  C   -0.125491  -0.093181  -0.020707   0.005024  -0.002176  -0.000378
    22  H   -0.004774   0.009895   0.000254  -0.000010   0.000001   0.000000
    23  H    0.005795  -0.005463  -0.000054   0.000025  -0.000000   0.000000
    24  C    0.491799   0.075612  -0.032816   0.012722  -0.003748  -0.001421
    25  O    8.150911  -0.063592   0.013111  -0.020136   0.003120   0.000646
    26  O   -0.063592   8.659665   0.061556  -0.007259   0.005125   0.000069
    27  P    0.013111   0.061556  12.573070   0.404743   0.175077   0.000851
    28  O   -0.020136  -0.007259   0.404743   8.442500  -0.010785  -0.013411
    29  O    0.003120   0.005125   0.175077  -0.010785   8.087019   0.234693
    30  H    0.000646   0.000069   0.000851  -0.013411   0.234693   0.472654
    31  O   -0.017187  -0.026611   0.256426  -0.032798  -0.006372  -0.000354
    32  H    0.074718   0.016800   0.021514   0.014176  -0.000744  -0.001498
    33  O   -0.013171   0.014018   0.304381  -0.059821   0.020593   0.000512
    34  H    0.018952   0.009702  -0.007794  -0.017945  -0.006003   0.001406
              31         32         33         34
     1  C   -0.026771   0.016168   0.040021  -0.042042
     2  C    0.037011  -0.011630  -0.185169   0.105129
     3  C    0.012814   0.001212   0.047800  -0.052126
     4  C   -0.072161   0.003096   0.010793   0.011387
     5  C    0.036898  -0.010372   0.030426  -0.017191
     6  H   -0.000150  -0.000002  -0.000591   0.000283
     7  H    0.000018  -0.000045  -0.000672   0.001279
     8  H    0.000233   0.000058  -0.000302  -0.000019
     9  H   -0.000004   0.000020  -0.000020   0.000031
    10  C    0.014252  -0.002417   0.008032   0.010519
    11  H   -0.000008  -0.000002   0.001888  -0.000260
    12  H   -0.000058   0.000016  -0.002201  -0.000913
    13  H    0.000087  -0.000038  -0.008898   0.007443
    14  N   -0.001867  -0.000712  -0.004563   0.008429
    15  C    0.002956   0.000439   0.003814  -0.003964
    16  H   -0.000004   0.000007   0.000007   0.000005
    17  H   -0.000007   0.000005  -0.000038   0.000019
    18  C   -0.007204   0.002866   0.000783  -0.000718
    19  H    0.000107  -0.000022   0.000101  -0.000099
    20  H   -0.000018   0.000007  -0.000008   0.000005
    21  C    0.009463   0.002106   0.000514   0.016767
    22  H    0.000093  -0.000360   0.000057  -0.000076
    23  H   -0.000022   0.000121   0.000217  -0.000582
    24  C    0.005940  -0.005028  -0.032409   0.024573
    25  O   -0.017187   0.074718  -0.013171   0.018952
    26  O   -0.026611   0.016800   0.014018   0.009702
    27  P    0.256426   0.021514   0.304381  -0.007794
    28  O   -0.032798   0.014176  -0.059821  -0.017945
    29  O   -0.006372  -0.000744   0.020593  -0.006003
    30  H   -0.000354  -0.001498   0.000512   0.001406
    31  O    8.215476   0.202300  -0.004336   0.005454
    32  H    0.202300   0.235985  -0.004402  -0.001379
    33  O   -0.004336  -0.004402   8.282999   0.171001
    34  H    0.005454  -0.001379   0.171001   0.327988
 Mulliken charges:
               1
     1  C   -0.327659
     2  C    0.538551
     3  C   -0.492484
     4  C   -0.041500
     5  C   -0.104025
     6  H    0.175755
     7  H    0.192290
     8  H    0.168476
     9  H    0.163507
    10  C   -0.762181
    11  H    0.181003
    12  H    0.176955
    13  H    0.222782
    14  N    0.474719
    15  C   -0.425169
    16  H    0.186218
    17  H    0.190551
    18  C   -0.250135
    19  H    0.203736
    20  H    0.166063
    21  C   -0.403686
    22  H    0.184605
    23  H    0.171370
    24  C    0.518120
    25  O   -0.507782
    26  O   -0.674295
    27  P    1.198823
    28  O   -0.591673
    29  O   -0.491236
    30  H    0.305471
    31  O   -0.603595
    32  H    0.447040
    33  O   -0.621356
    34  H    0.430741
 Sum of Mulliken charges =  -0.00000
 Mulliken charges with hydrogens summed into heavy atoms:
               1
     1  C   -0.135369
     2  C    0.538551
     3  C   -0.316728
     4  C    0.126977
     5  C    0.059481
    10  C   -0.181441
    14  N    0.474719
    15  C   -0.048400
    18  C    0.119663
    21  C   -0.047711
    24  C    0.518120
    25  O   -0.507782
    26  O   -0.674295
    27  P    1.198823
    28  O   -0.591673
    29  O   -0.185765
    31  O   -0.156555
    33  O   -0.190615
         Mulliken charges condensed to fragments:
      1     -0.074215
      2      0.074215
 Electronic spatial extent (au):  <R**2>=         342114.0660
 Charge=             -0.0000 electrons
 Dipole moment (field-independent basis, Debye):
    X=             -3.3869    Y=             -5.2400    Z=              6.9720  Tot=              9.3561
 Quadrupole moment (field-independent basis, Debye-Ang):
   XX=           -145.2580   YY=           -312.4677   ZZ=            135.9298
   XY=            -87.5321   XZ=            -25.5581   YZ=             43.6592
 Traceless Quadrupole moment (field-independent basis, Debye-Ang):
   XX=            -37.9927   YY=           -205.2024   ZZ=            243.1951
   XY=            -87.5321   XZ=            -25.5581   YZ=             43.6592
 Octapole moment (field-independent basis, Debye-Ang**2):
  XXX=          -1764.0186  YYY=         -12073.8319  ZZZ=           1007.2118  XYY=          -2614.5644
  XXY=          -2837.6218  XXZ=          -2287.2856  XZZ=           -317.4231  YZZ=           1102.9943
  YYZ=          -2723.2999  XYZ=           -901.1204
 Hexadecapole moment (field-independent basis, Debye-Ang**3):
 XXXX=         -17091.1864 YYYY=        -386016.0230 ZZZZ=         -32497.6209 XXXY=         -33702.2923
 XXXZ=         -28918.3571 YYYX=         -77181.7308 YYYZ=        -153194.6513 ZZZX=         -10356.7027
 ZZZY=          -4737.4079 XXYY=         -58232.3388 XXZZ=         -38290.8690 YYZZ=         -38492.4069
 XXYZ=         -44822.0924 YYXZ=         -33476.6639 ZZXY=         -13309.8825
 N-N= 1.685540344987D+03 E-N=-6.284402037261D+03  KE= 1.233993409798D+03
 No NMR shielding tensors so no spin-rotation constants.
 Leave Link  601 at Wed May 18 21:46:23 2022, MaxMem= 10737418240 cpu:               4.1 elap:               0.2
 (Enter /data0/home/wuhanyu/software/g16/l122.exe)
 CPIOFr:  IOpCl= 0 IRwI=-1 IRwCP=  731 ICalc= -1 LCPTot=      533842 Len1MO=     1404424 IndFrg=      533842
 CPIOFr:  IOpCl= 0 IRwI=-1 IRwCP=  731 ICalc=  0 LCPTot=      533842 Len1MO=     1404424 IndFrg=     1938266
 Counterpoise: doing calculation for fragment   1 using the basis set of the full-system, NewBq=T
 Leave Link  122 at Wed May 18 21:46:23 2022, MaxMem= 10737418240 cpu:               0.5 elap:               0.0
 (Enter /data0/home/wuhanyu/software/g16/l301.exe)
 Basis read from rwf:  (5D, 7F)
 No pseudopotential information found on rwf file.
   590 basis functions,   898 primitive gaussians,   626 cartesian basis functions
    48 alpha electrons       48 beta electrons
       nuclear repulsion energy       815.1102324502 Hartrees.
 IExCor= 4336 DFT=T Ex+Corr=M062X ExCW=0 ScaHFX=  0.540000
 ScaDFX=  1.000000  1.000000  1.000000  1.000000 ScalE2=  1.000000  1.000000
 IRadAn=      5 IRanWt=     -1 IRanGd=            0 ICorTp=0 IEmpDi=131
 NAtoms=   34 NActive=   34 NUniq=   34 SFac= 1.00D+00 NAtFMM=   60 NAOKFM=F Big=F
 Integral buffers will be    131072 words long.
 Raffenetti 2 integral format.
 Two-electron integral symmetry is turned off.
 R6Disp:  Grimme-D3 Dispersion energy=       -0.0012375622 Hartrees.
 Nuclear repulsion after empirical dispersion term =      815.1089948880 Hartrees.
 No density basis found on file   718.
 Leave Link  301 at Wed May 18 21:46:24 2022, MaxMem= 10737418240 cpu:               1.3 elap:               0.1
 (Enter /data0/home/wuhanyu/software/g16/l302.exe)
 NPDir=0 NMtPBC=     1 NCelOv=     1 NCel=       1 NClECP=     1 NCelD=      1
         NCelK=      1 NCelE2=     1 NClLst=     1 CellRange=     0.0.
 One-electron integrals computed using PRISM.
 NBasis=   590 RedAO= T EigKep=  2.05D-06  NBF=   590
 NBsUse=   590 1.00D-06 EigRej= -1.00D+00 NBFU=   590
 Precomputing XC quadrature grid using
 IXCGrd= 4 IRadAn=           5 IRanWt=          -1 IRanGd=           0 AccXCQ= 0.00D+00.
 Generated NRdTot=       0 NPtTot=           0 NUsed=           0 NTot=          32
 NSgBfM=   625   625   625   625   625 MxSgAt=    34 MxSgA2=    34.
 Leave Link  302 at Wed May 18 21:46:24 2022, MaxMem= 10737418240 cpu:              15.5 elap:               0.7
 (Enter /data0/home/wuhanyu/software/g16/l303.exe)
 DipDrv:  MaxL=1.
 Leave Link  303 at Wed May 18 21:46:24 2022, MaxMem= 10737418240 cpu:               1.5 elap:               0.1
 (Enter /data0/home/wuhanyu/software/g16/l401.exe)
 ExpMin= 3.48D-02 ExpMax= 7.75D+04 ExpMxC= 2.65D+03 IAcc=3 IRadAn=         5 AccDes= 0.00D+00
 Harris functional with IExCor= 1009 and IRadAn=       5 diagonalized for initial guess.
 HarFok:  IExCor= 1009 AccDes= 0.00D+00 IRadAn=         5 IDoV= 1 UseB2=F ITyADJ=14
 ICtDFT=  3500011 ScaDFX=  1.000000  1.000000  1.000000  1.000000
 FoFCou: FMM=F IPFlag=           0 FMFlag=      100000 FMFlg1=           0
         NFxFlg=           0 DoJE=T BraDBF=F KetDBF=T FulRan=T
         wScrn=  0.000000 ICntrl=       500 IOpCl=  0 I1Cent=   200000004 NGrid=           0
         NMat0=    1 NMatS0=      1 NMatT0=    0 NMatD0=    1 NMtDS0=    0 NMtDT0=    0
 Symmetry not used in FoFCou.
 Harris En= -593.769374156983    
 JPrj=0 DoOrth=F DoCkMO=F.
 Leave Link  401 at Wed May 18 21:46:27 2022, MaxMem= 10737418240 cpu:              60.7 elap:               2.6
 (Enter /data0/home/wuhanyu/software/g16/l502.exe)
 Two-electron integral symmetry not used.
 Closed shell SCF:
 Using DIIS extrapolation, IDIIS=  1040.
 NGot= 10737418240 LenX= 10736615108 LenY= 10736222606
 Requested convergence on RMS density matrix=1.00D-08 within 128 cycles.
 Requested convergence on MAX density matrix=1.00D-06.
 Requested convergence on             energy=1.00D-06.
 No special actions if energy rises.
 Fock matrices will be formed incrementally for  20 cycles.

 Cycle   1  Pass 1  IDiag  1:
 FoFJK:  IHMeth= 1 ICntrl=       0 DoSepK=F KAlg= 0 I1Cent=           0 FoldK=F
 IRaf= 870000000 NMat=       1 IRICut=       1 DoRegI=T DoRafI=F ISym2E= 0 IDoP0=0 IntGTp=1.
 FoFCou: FMM=F IPFlag=           0 FMFlag=      100000 FMFlg1=           0
         NFxFlg=           0 DoJE=F BraDBF=F KetDBF=F FulRan=T
         wScrn=  0.000000 ICntrl=         0 IOpCl=  0 I1Cent=           0 NGrid=           0
         NMat0=    1 NMatS0=      1 NMatT0=    0 NMatD0=    1 NMtDS0=    0 NMtDT0=    0
 Symmetry not used in FoFCou.
 E= -593.575521705495    
 DIIS: error= 1.56D-02 at cycle   1 NSaved=   1.
 NSaved= 1 IEnMin= 1 EnMin= -593.575521705495     IErMin= 1 ErrMin= 1.56D-02
 ErrMax= 1.56D-02  0.00D+00 EMaxC= 1.00D-01 BMatC= 5.31D-01 BMatP= 5.31D-01
 IDIUse=3 WtCom= 8.44D-01 WtEn= 1.56D-01
 Coeff-Com:  0.100D+01
 Coeff-En:   0.100D+01
 Coeff:      0.100D+01
 Gap=     0.216 Goal=   None    Shift=    0.000
 GapD=    0.216 DampG=1.000 DampE=0.500 DampFc=0.5000 IDamp=-1.
 Damping current iteration by 5.00D-01
 RMSDP=2.49D-02 MaxDP=5.00D+00              OVMax= 3.72D-01

 Cycle   2  Pass 1  IDiag  1:
 RMSU=  1.02D-02    CP:  1.44D+00
 E= -593.717089885417     Delta-E=       -0.141568179922 Rises=F Damp=T
 DIIS: error= 4.52D-03 at cycle   2 NSaved=   2.
 NSaved= 2 IEnMin= 2 EnMin= -593.717089885417     IErMin= 2 ErrMin= 4.52D-03
 ErrMax= 4.52D-03  0.00D+00 EMaxC= 1.00D-01 BMatC= 5.79D-02 BMatP= 5.31D-01
 IDIUse=3 WtCom= 9.55D-01 WtEn= 4.52D-02
 Coeff-Com:  0.693D-01 0.931D+00
 Coeff-En:   0.219D+00 0.781D+00
 Coeff:      0.761D-01 0.924D+00
 Gap=     0.218 Goal=   None    Shift=    0.000
 RMSDP=1.32D-02 MaxDP=3.01D+00 DE=-1.42D-01 OVMax= 3.86D-01

 Cycle   3  Pass 1  IDiag  1:
 RMSU=  3.73D-03    CP:  8.69D-01  1.48D-01
 E= -593.944709136417     Delta-E=       -0.227619251000 Rises=F Damp=F
 DIIS: error= 4.38D-03 at cycle   3 NSaved=   3.
 NSaved= 3 IEnMin= 3 EnMin= -593.944709136417     IErMin= 3 ErrMin= 4.38D-03
 ErrMax= 4.38D-03  0.00D+00 EMaxC= 1.00D-01 BMatC= 4.40D-02 BMatP= 5.79D-02
 IDIUse=3 WtCom= 9.56D-01 WtEn= 4.38D-02
 Coeff-Com: -0.693D-01 0.475D+00 0.595D+00
 Coeff-En:   0.000D+00 0.000D+00 0.100D+01
 Coeff:     -0.663D-01 0.454D+00 0.612D+00
 Gap=     0.198 Goal=   None    Shift=    0.000
 RMSDP=1.18D-03 MaxDP=1.48D-01 DE=-2.28D-01 OVMax= 4.05D-02

 Cycle   4  Pass 1  IDiag  1:
 RMSU=  1.01D-03    CP:  8.93D-01  1.90D-01  1.05D+00
 E= -593.979564599207     Delta-E=       -0.034855462790 Rises=F Damp=F
 DIIS: error= 1.35D-03 at cycle   4 NSaved=   4.
 NSaved= 4 IEnMin= 4 EnMin= -593.979564599207     IErMin= 4 ErrMin= 1.35D-03
 ErrMax= 1.35D-03  0.00D+00 EMaxC= 1.00D-01 BMatC= 2.56D-03 BMatP= 4.40D-02
 IDIUse=3 WtCom= 9.87D-01 WtEn= 1.35D-02
 Coeff-Com: -0.450D-01 0.116D+00 0.228D+00 0.701D+00
 Coeff-En:   0.000D+00 0.000D+00 0.000D+00 0.100D+01
 Coeff:     -0.444D-01 0.115D+00 0.225D+00 0.705D+00
 Gap=     0.183 Goal=   None    Shift=    0.000
 RMSDP=5.20D-04 MaxDP=7.56D-02 DE=-3.49D-02 OVMax= 1.30D-02

 Cycle   5  Pass 1  IDiag  1:
 RMSU=  4.36D-04    CP:  8.79D-01  1.75D-01  1.04D+00  9.89D-01
 E= -593.982021879363     Delta-E=       -0.002457280156 Rises=F Damp=F
 DIIS: error= 4.82D-04 at cycle   5 NSaved=   5.
 NSaved= 5 IEnMin= 5 EnMin= -593.982021879363     IErMin= 5 ErrMin= 4.82D-04
 ErrMax= 4.82D-04  0.00D+00 EMaxC= 1.00D-01 BMatC= 3.62D-04 BMatP= 2.56D-03
 IDIUse=3 WtCom= 9.95D-01 WtEn= 4.82D-03
 Coeff-Com: -0.177D-01 0.321D-01 0.502D-01 0.298D+00 0.637D+00
 Coeff-En:   0.000D+00 0.000D+00 0.000D+00 0.000D+00 0.100D+01
 Coeff:     -0.177D-01 0.320D-01 0.499D-01 0.297D+00 0.639D+00
 Gap=     0.187 Goal=   None    Shift=    0.000
 RMSDP=1.94D-04 MaxDP=3.66D-02 DE=-2.46D-03 OVMax= 6.46D-03

 Cycle   6  Pass 1  IDiag  1:
 RMSU=  1.31D-04    CP:  8.85D-01  1.73D-01  1.05D+00  1.06D+00  9.31D-01
 E= -593.982372810195     Delta-E=       -0.000350930832 Rises=F Damp=F
 DIIS: error= 1.44D-04 at cycle   6 NSaved=   6.
 NSaved= 6 IEnMin= 6 EnMin= -593.982372810195     IErMin= 6 ErrMin= 1.44D-04
 ErrMax= 1.44D-04  0.00D+00 EMaxC= 1.00D-01 BMatC= 4.06D-05 BMatP= 3.62D-04
 IDIUse=3 WtCom= 9.99D-01 WtEn= 1.44D-03
 Coeff-Com: -0.481D-03-0.396D-02-0.172D-01 0.170D-01 0.257D+00 0.747D+00
 Coeff-En:   0.000D+00 0.000D+00 0.000D+00 0.000D+00 0.000D+00 0.100D+01
 Coeff:     -0.480D-03-0.395D-02-0.172D-01 0.169D-01 0.257D+00 0.748D+00
 Gap=     0.188 Goal=   None    Shift=    0.000
 RMSDP=7.60D-05 MaxDP=1.07D-02 DE=-3.51D-04 OVMax= 4.44D-03

 Cycle   7  Pass 1  IDiag  1:
 RMSU=  4.15D-05    CP:  8.84D-01  1.70D-01  1.05D+00  1.10D+00  1.01D+00
                    CP:  1.07D+00
 E= -593.982426711215     Delta-E=       -0.000053901020 Rises=F Damp=F
 DIIS: error= 6.54D-05 at cycle   7 NSaved=   7.
 NSaved= 7 IEnMin= 7 EnMin= -593.982426711215     IErMin= 7 ErrMin= 6.54D-05
 ErrMax= 6.54D-05  0.00D+00 EMaxC= 1.00D-01 BMatC= 8.01D-06 BMatP= 4.06D-05
 IDIUse=1 WtCom= 1.00D+00 WtEn= 0.00D+00
 Coeff-Com:  0.246D-02-0.602D-02-0.156D-01-0.365D-01 0.306D-01 0.372D+00
 Coeff-Com:  0.653D+00
 Coeff:      0.246D-02-0.602D-02-0.156D-01-0.365D-01 0.306D-01 0.372D+00
 Coeff:      0.653D+00
 Gap=     0.187 Goal=   None    Shift=    0.000
 RMSDP=3.19D-05 MaxDP=4.35D-03 DE=-5.39D-05 OVMax= 2.08D-03

 Cycle   8  Pass 1  IDiag  1:
 RMSU=  1.67D-05    CP:  8.84D-01  1.68D-01  1.05D+00  1.11D+00  1.04D+00
                    CP:  1.14D+00  1.13D+00
 E= -593.982437900947     Delta-E=       -0.000011189732 Rises=F Damp=F
 DIIS: error= 2.06D-05 at cycle   8 NSaved=   8.
 NSaved= 8 IEnMin= 8 EnMin= -593.982437900947     IErMin= 8 ErrMin= 2.06D-05
 ErrMax= 2.06D-05  0.00D+00 EMaxC= 1.00D-01 BMatC= 8.69D-07 BMatP= 8.01D-06
 IDIUse=1 WtCom= 1.00D+00 WtEn= 0.00D+00
 Coeff-Com:  0.905D-03-0.155D-02-0.320D-02-0.152D-01-0.215D-01 0.404D-01
 Coeff-Com:  0.269D+00 0.731D+00
 Coeff:      0.905D-03-0.155D-02-0.320D-02-0.152D-01-0.215D-01 0.404D-01
 Coeff:      0.269D+00 0.731D+00
 Gap=     0.188 Goal=   None    Shift=    0.000
 RMSDP=1.29D-05 MaxDP=1.68D-03 DE=-1.12D-05 OVMax= 1.01D-03

 Cycle   9  Pass 1  IDiag  1:
 RMSU=  7.78D-06    CP:  8.83D-01  1.68D-01  1.05D+00  1.11D+00  1.04D+00
                    CP:  1.17D+00  1.16D+00  1.16D+00
 E= -593.982439650982     Delta-E=       -0.000001750035 Rises=F Damp=F
 DIIS: error= 8.89D-06 at cycle   9 NSaved=   9.
 NSaved= 9 IEnMin= 9 EnMin= -593.982439650982     IErMin= 9 ErrMin= 8.89D-06
 ErrMax= 8.89D-06  0.00D+00 EMaxC= 1.00D-01 BMatC= 1.45D-07 BMatP= 8.69D-07
 IDIUse=1 WtCom= 1.00D+00 WtEn= 0.00D+00
 Coeff-Com:  0.738D-04-0.661D-04 0.744D-04-0.201D-02-0.107D-01-0.272D-01
 Coeff-Com:  0.303D-01 0.295D+00 0.714D+00
 Coeff:      0.738D-04-0.661D-04 0.744D-04-0.201D-02-0.107D-01-0.272D-01
 Coeff:      0.303D-01 0.295D+00 0.714D+00
 Gap=     0.188 Goal=   None    Shift=    0.000
 RMSDP=4.47D-06 MaxDP=7.02D-04 DE=-1.75D-06 OVMax= 4.47D-04

 Cycle  10  Pass 1  IDiag  1:
 RMSU=  2.69D-06    CP:  8.83D-01  1.68D-01  1.05D+00  1.11D+00  1.04D+00
                    CP:  1.18D+00  1.19D+00  1.26D+00  1.12D+00
 E= -593.982439938041     Delta-E=       -0.000000287059 Rises=F Damp=F
 DIIS: error= 5.80D-06 at cycle  10 NSaved=  10.
 NSaved=10 IEnMin=10 EnMin= -593.982439938041     IErMin=10 ErrMin= 5.80D-06
 ErrMax= 5.80D-06  0.00D+00 EMaxC= 1.00D-01 BMatC= 6.52D-08 BMatP= 1.45D-07
 IDIUse=1 WtCom= 1.00D+00 WtEn= 0.00D+00
 Coeff-Com: -0.176D-03 0.356D-03 0.638D-03 0.213D-02-0.189D-02-0.282D-01
 Coeff-Com: -0.477D-01-0.831D-02 0.436D+00 0.647D+00
 Coeff:     -0.176D-03 0.356D-03 0.638D-03 0.213D-02-0.189D-02-0.282D-01
 Coeff:     -0.477D-01-0.831D-02 0.436D+00 0.647D+00
 Gap=     0.188 Goal=   None    Shift=    0.000
 RMSDP=2.57D-06 MaxDP=2.69D-04 DE=-2.87D-07 OVMax= 2.25D-04

 Cycle  11  Pass 1  IDiag  1:
 RMSU=  1.23D-06    CP:  8.83D-01  1.68D-01  1.05D+00  1.11D+00  1.04D+00
[...]
 NSgBfM=   171   171   171   171   171 MxSgAt=     8 MxSgA2=     8.
 Leave Link  302 at Wed May 18 21:52:44 2022, MaxMem= 10737418240 cpu:               2.9 elap:               0.1
 (Enter /data0/home/wuhanyu/software/g16/l303.exe)
 DipDrv:  MaxL=1.
 Leave Link  303 at Wed May 18 21:52:44 2022, MaxMem= 10737418240 cpu:               0.5 elap:               0.0
 (Enter /data0/home/wuhanyu/software/g16/l401.exe)
 ExpMin= 3.48D-02 ExpMax= 7.75D+04 ExpMxC= 2.65D+03 IAcc=3 IRadAn=         5 AccDes= 0.00D+00
 Harris functional with IExCor= 1009 and IRadAn=       5 diagonalized for initial guess.
 HarFok:  IExCor= 1009 AccDes= 0.00D+00 IRadAn=         5 IDoV= 1 UseB2=F ITyADJ=14
 ICtDFT=  3500011 ScaDFX=  1.000000  1.000000  1.000000  1.000000
 FoFCou: FMM=F IPFlag=           0 FMFlag=      100000 FMFlg1=           0
         NFxFlg=           0 DoJE=T BraDBF=F KetDBF=T FulRan=T
         wScrn=  0.000000 ICntrl=       500 IOpCl=  0 I1Cent=   200000004 NGrid=           0
         NMat0=    1 NMatS0=      1 NMatT0=    0 NMatD0=    1 NMtDS0=    0 NMtDT0=    0
 Symmetry not used in FoFCou.
 Harris En= -643.935169012409    
 JPrj=0 DoOrth=F DoCkMO=F.
 Leave Link  401 at Wed May 18 21:52:44 2022, MaxMem= 10737418240 cpu:               5.9 elap:               0.3
 (Enter /data0/home/wuhanyu/software/g16/l502.exe)
 Keep R1 ints in memory in canonical form, NReq=108966562.
 FoFCou: FMM=F IPFlag=           0 FMFlag=           0 FMFlg1=           0
         NFxFlg=           0 DoJE=F BraDBF=F KetDBF=F FulRan=T
         wScrn=  0.000000 ICntrl=       600 IOpCl=  0 I1Cent=           0 NGrid=           0
         NMat0=    1 NMatS0=  13041 NMatT0=    0 NMatD0=    1 NMtDS0=    0 NMtDT0=    0
 Symmetry not used in FoFCou.
 Two-electron integral symmetry not used.
 Closed shell SCF:
 Using DIIS extrapolation, IDIIS=  1040.
 NGot= 10737418240 LenX= 10652313212 LenY= 10652283530
 Requested convergence on RMS density matrix=1.00D-08 within 128 cycles.
 Requested convergence on MAX density matrix=1.00D-06.
 Requested convergence on             energy=1.00D-06.
 No special actions if energy rises.

 Cycle   1  Pass 1  IDiag  1:
 E= -643.834164406503    
 DIIS: error= 5.05D-02 at cycle   1 NSaved=   1.
 NSaved= 1 IEnMin= 1 EnMin= -643.834164406503     IErMin= 1 ErrMin= 5.05D-02
 ErrMax= 5.05D-02  0.00D+00 EMaxC= 1.00D-01 BMatC= 5.13D-01 BMatP= 5.13D-01
 IDIUse=3 WtCom= 4.95D-01 WtEn= 5.05D-01
 Coeff-Com:  0.100D+01
 Coeff-En:   0.100D+01
 Coeff:      0.100D+01
 Gap=     0.223 Goal=   None    Shift=    0.000
 GapD=    0.223 DampG=1.000 DampE=0.500 DampFc=0.5000 IDamp=-1.
 Damping current iteration by 5.00D-01
 RMSDP=8.24D-03 MaxDP=2.19D-01              OVMax= 2.83D-01

 Cycle   2  Pass 1  IDiag  1:
 E= -643.950431992165     Delta-E=       -0.116267585662 Rises=F Damp=T
 DIIS: error= 1.08D-02 at cycle   2 NSaved=   2.
 NSaved= 2 IEnMin= 2 EnMin= -643.950431992165     IErMin= 2 ErrMin= 1.08D-02
 ErrMax= 1.08D-02  0.00D+00 EMaxC= 1.00D-01 BMatC= 2.89D-02 BMatP= 5.13D-01
 IDIUse=3 WtCom= 8.92D-01 WtEn= 1.08D-01
 Coeff-Com:  0.827D-01 0.917D+00
 Coeff-En:   0.221D+00 0.779D+00
 Coeff:      0.977D-01 0.902D+00
 Gap=     0.330 Goal=   None    Shift=    0.000
 RMSDP=2.02D-03 MaxDP=7.59D-02 DE=-1.16D-01 OVMax= 1.88D-01

 Cycle   3  Pass 1  IDiag  1:
 E= -644.124598145530     Delta-E=       -0.174166153366 Rises=F Damp=F
 DIIS: error= 7.61D-03 at cycle   3 NSaved=   3.
 NSaved= 3 IEnMin= 3 EnMin= -644.124598145530     IErMin= 3 ErrMin= 7.61D-03
 ErrMax= 7.61D-03  0.00D+00 EMaxC= 1.00D-01 BMatC= 1.07D-02 BMatP= 2.89D-02
 IDIUse=3 WtCom= 9.24D-01 WtEn= 7.61D-02
 Coeff-Com: -0.102D-01 0.339D+00 0.671D+00
 Coeff-En:   0.000D+00 0.000D+00 0.100D+01
 Coeff:     -0.943D-02 0.313D+00 0.696D+00
 Gap=     0.319 Goal=   None    Shift=    0.000
 RMSDP=6.94D-04 MaxDP=1.53D-02 DE=-1.74D-01 OVMax= 3.63D-02

 Cycle   4  Pass 1  IDiag  1:
 E= -644.129357389639     Delta-E=       -0.004759244109 Rises=F Damp=F
 DIIS: error= 4.37D-03 at cycle   4 NSaved=   4.
 NSaved= 4 IEnMin= 4 EnMin= -644.129357389639     IErMin= 4 ErrMin= 4.37D-03
 ErrMax= 4.37D-03  0.00D+00 EMaxC= 1.00D-01 BMatC= 4.21D-03 BMatP= 1.07D-02
 IDIUse=3 WtCom= 9.56D-01 WtEn= 4.37D-02
 Coeff-Com: -0.206D-01 0.466D-01 0.405D+00 0.569D+00
 Coeff-En:   0.000D+00 0.000D+00 0.283D+00 0.717D+00
 Coeff:     -0.197D-01 0.445D-01 0.400D+00 0.575D+00
 Gap=     0.326 Goal=   None    Shift=    0.000
 RMSDP=2.77D-04 MaxDP=6.42D-03 DE=-4.76D-03 OVMax= 1.19D-02

 Cycle   5  Pass 1  IDiag  1:
 E= -644.132154219864     Delta-E=       -0.002796830225 Rises=F Damp=F
 DIIS: error= 2.60D-04 at cycle   5 NSaved=   5.
 NSaved= 5 IEnMin= 5 EnMin= -644.132154219864     IErMin= 5 ErrMin= 2.60D-04
 ErrMax= 2.60D-04  0.00D+00 EMaxC= 1.00D-01 BMatC= 1.77D-05 BMatP= 4.21D-03
 IDIUse=3 WtCom= 9.97D-01 WtEn= 2.60D-03
 Coeff-Com: -0.219D-02-0.709D-03 0.560D-01 0.116D+00 0.831D+00
 Coeff-En:   0.000D+00 0.000D+00 0.000D+00 0.000D+00 0.100D+01
 Coeff:     -0.219D-02-0.707D-03 0.558D-01 0.116D+00 0.831D+00
 Gap=     0.324 Goal=   None    Shift=    0.000
 RMSDP=3.07D-05 MaxDP=7.05D-04 DE=-2.80D-03 OVMax= 8.21D-04

 Cycle   6  Pass 1  IDiag  1:
 E= -644.132165818052     Delta-E=       -0.000011598188 Rises=F Damp=F
 DIIS: error= 8.01D-05 at cycle   6 NSaved=   6.
 NSaved= 6 IEnMin= 6 EnMin= -644.132165818052     IErMin= 6 ErrMin= 8.01D-05
 ErrMax= 8.01D-05  0.00D+00 EMaxC= 1.00D-01 BMatC= 1.79D-06 BMatP= 1.77D-05
 IDIUse=1 WtCom= 1.00D+00 WtEn= 0.00D+00
 Coeff-Com: -0.542D-05-0.182D-02 0.325D-02 0.152D-01 0.263D+00 0.720D+00
 Coeff:     -0.542D-05-0.182D-02 0.325D-02 0.152D-01 0.263D+00 0.720D+00
 Gap=     0.325 Goal=   None    Shift=    0.000
 RMSDP=1.14D-05 MaxDP=2.11D-04 DE=-1.16D-05 OVMax= 3.09D-04

 Cycle   7  Pass 1  IDiag  1:
 E= -644.132166966979     Delta-E=       -0.000001148928 Rises=F Damp=F
 DIIS: error= 4.74D-05 at cycle   7 NSaved=   7.
 NSaved= 7 IEnMin= 7 EnMin= -644.132166966979     IErMin= 7 ErrMin= 4.74D-05
 ErrMax= 4.74D-05  0.00D+00 EMaxC= 1.00D-01 BMatC= 4.39D-07 BMatP= 1.79D-06
 IDIUse=1 WtCom= 1.00D+00 WtEn= 0.00D+00
 Coeff-Com:  0.384D-03-0.643D-03-0.918D-02-0.147D-01-0.250D-01 0.331D+00
 Coeff-Com:  0.718D+00
 Coeff:      0.384D-03-0.643D-03-0.918D-02-0.147D-01-0.250D-01 0.331D+00
 Coeff:      0.718D+00
 Gap=     0.325 Goal=   None    Shift=    0.000
 RMSDP=4.90D-06 MaxDP=1.02D-04 DE=-1.15D-06 OVMax= 1.24D-04

 Cycle   8  Pass 1  IDiag  1:
 E= -644.132167274014     Delta-E=       -0.000000307034 Rises=F Damp=F
 DIIS: error= 1.06D-05 at cycle   8 NSaved=   8.
 NSaved= 8 IEnMin= 8 EnMin= -644.132167274014     IErMin= 8 ErrMin= 1.06D-05
 ErrMax= 1.06D-05  0.00D+00 EMaxC= 1.00D-01 BMatC= 2.83D-08 BMatP= 4.39D-07
 IDIUse=1 WtCom= 1.00D+00 WtEn= 0.00D+00
 Coeff-Com:  0.133D-03-0.154D-03-0.370D-02-0.590D-02-0.169D-01 0.922D-01
 Coeff-Com:  0.287D+00 0.647D+00
 Coeff:      0.133D-03-0.154D-03-0.370D-02-0.590D-02-0.169D-01 0.922D-01
 Coeff:      0.287D+00 0.647D+00
 Gap=     0.325 Goal=   None    Shift=    0.000
 RMSDP=8.78D-07 MaxDP=2.73D-05 DE=-3.07D-07 OVMax= 3.46D-05

 Cycle   9  Pass 1  IDiag  1:
 E= -644.132167296432     Delta-E=       -0.000000022418 Rises=F Damp=F
 DIIS: error= 1.96D-06 at cycle   9 NSaved=   9.
 NSaved= 9 IEnMin= 9 EnMin= -644.132167296432     IErMin= 9 ErrMin= 1.96D-06
 ErrMax= 1.96D-06  0.00D+00 EMaxC= 1.00D-01 BMatC= 1.08D-09 BMatP= 2.83D-08
 IDIUse=1 WtCom= 1.00D+00 WtEn= 0.00D+00
 Coeff-Com: -0.280D-04 0.561D-04 0.267D-03 0.589D-03-0.860D-03-0.199D-01
 Coeff-Com: -0.285D-01 0.889D-01 0.960D+00
 Coeff:     -0.280D-04 0.561D-04 0.267D-03 0.589D-03-0.860D-03-0.199D-01
 Coeff:     -0.285D-01 0.889D-01 0.960D+00
 Gap=     0.325 Goal=   None    Shift=    0.000
 RMSDP=3.97D-07 MaxDP=1.05D-05 DE=-2.24D-08 OVMax= 1.40D-05

 Cycle  10  Pass 1  IDiag  1:
 E= -644.132167297788     Delta-E=       -0.000000001356 Rises=F Damp=F
 DIIS: error= 3.12D-07 at cycle  10 NSaved=  10.
 NSaved=10 IEnMin=10 EnMin= -644.132167297788     IErMin=10 ErrMin= 3.12D-07
 ErrMax= 3.12D-07  0.00D+00 EMaxC= 1.00D-01 BMatC= 3.61D-11 BMatP= 1.08D-09
 IDIUse=1 WtCom= 1.00D+00 WtEn= 0.00D+00
 Coeff-Com: -0.579D-05 0.102D-04 0.137D-03 0.235D-03 0.438D-03-0.572D-02
 Coeff-Com: -0.145D-01-0.110D-01 0.112D+00 0.918D+00
 Coeff:     -0.579D-05 0.102D-04 0.137D-03 0.235D-03 0.438D-03-0.572D-02
 Coeff:     -0.145D-01-0.110D-01 0.112D+00 0.918D+00
 Gap=     0.325 Goal=   None    Shift=    0.000
 RMSDP=8.04D-08 MaxDP=1.24D-06 DE=-1.36D-09 OVMax= 3.57D-06

 Cycle  11  Pass 1  IDiag  1:
 E= -644.132167297809     Delta-E=       -0.000000000022 Rises=F Damp=F
 DIIS: error= 3.68D-07 at cycle  11 NSaved=  11.
 NSaved=11 IEnMin=11 EnMin= -644.132167297809     IErMin=10 ErrMin= 3.12D-07
 ErrMax= 3.68D-07  0.00D+00 EMaxC= 1.00D-01 BMatC= 2.47D-11 BMatP= 3.61D-11
 IDIUse=1 WtCom= 1.00D+00 WtEn= 0.00D+00
 Coeff-Com:  0.323D-06-0.117D-05 0.427D-04 0.583D-04 0.328D-03-0.908D-03
 Coeff-Com: -0.461D-02-0.150D-01-0.474D-01 0.505D+00 0.562D+00
 Coeff:      0.323D-06-0.117D-05 0.427D-04 0.583D-04 0.328D-03-0.908D-03
 Coeff:     -0.461D-02-0.150D-01-0.474D-01 0.505D+00 0.562D+00
 Gap=     0.325 Goal=   None    Shift=    0.000
 RMSDP=2.61D-08 MaxDP=6.89D-07 DE=-2.16D-11 OVMax= 9.61D-07

 Cycle  12  Pass 1  IDiag  1:
 E= -644.132167297830     Delta-E=       -0.000000000021 Rises=F Damp=F
 DIIS: error= 4.23D-08 at cycle  12 NSaved=  12.
 NSaved=12 IEnMin=12 EnMin= -644.132167297830     IErMin=12 ErrMin= 4.23D-08
 ErrMax= 4.23D-08  0.00D+00 EMaxC= 1.00D-01 BMatC= 5.67D-13 BMatP= 2.47D-11
 IDIUse=1 WtCom= 1.00D+00 WtEn= 0.00D+00
 Coeff-Com:  0.742D-06-0.141D-05-0.609D-05-0.130D-04 0.113D-04 0.447D-03
 Coeff-Com:  0.907D-03-0.112D-02-0.228D-01-0.708D-02 0.110D+00 0.920D+00
 Coeff:      0.742D-06-0.141D-05-0.609D-05-0.130D-04 0.113D-04 0.447D-03
 Coeff:      0.907D-03-0.112D-02-0.228D-01-0.708D-02 0.110D+00 0.920D+00
 Gap=     0.325 Goal=   None    Shift=    0.000
 RMSDP=9.79D-09 MaxDP=1.76D-07 DE=-2.07D-11 OVMax= 4.43D-07

 SCF Done:  E(RM062X) =  -644.132167298     A.U. after   12 cycles
            NFock= 12  Conv=0.98D-08     -V/T= 2.0026
 KE= 6.424689536637D+02 PE=-2.086891759627D+03 EE= 5.206428816422D+02
 Leave Link  502 at Wed May 18 21:52:49 2022, MaxMem= 10737418240 cpu:             100.6 elap:               5.4
 (Enter /data0/home/wuhanyu/software/g16/l601.exe)
 Copying SCF densities to generalized density rwf, IOpCl= 0 IROHF=0.

 **********************************************************************

            Population analysis using the SCF density.

 **********************************************************************

 Alpha  occ. eigenvalues --  -78.16825 -19.69814 -19.69459 -19.67814 -19.57950
 Alpha  occ. eigenvalues --   -6.97614  -5.09529  -5.09526  -5.09262  -1.24585
 Alpha  occ. eigenvalues --   -1.17397  -1.16526  -1.08225  -0.72601  -0.65733
 Alpha  occ. eigenvalues --   -0.63513  -0.59090  -0.53504  -0.51879  -0.49722
 Alpha  occ. eigenvalues --   -0.46191  -0.45435  -0.44999  -0.37771  -0.36826
 Alpha virt. eigenvalues --   -0.04328   0.00943   0.02749   0.04627   0.07923
 Alpha virt. eigenvalues --    0.08597   0.10741   0.12342   0.15876   0.17284
 Alpha virt. eigenvalues --    0.17368   0.18478   0.19450   0.19988   0.21480
 Alpha virt. eigenvalues --    0.22442   0.24500   0.25678   0.25857   0.27416
 Alpha virt. eigenvalues --    0.28291   0.28863   0.30306   0.32051   0.32961
 Alpha virt. eigenvalues --    0.34074   0.36525   0.38059   0.40184   0.42749
 Alpha virt. eigenvalues --    0.44023   0.44791   0.52409   0.55577   0.57482
 Alpha virt. eigenvalues --    0.73509   0.75915   0.76577   0.85997   0.97924
 Alpha virt. eigenvalues --    0.99789   1.00214   1.04838   1.05974   1.11559
 Alpha virt. eigenvalues --    1.14175   1.15205   1.18402   1.19212   1.20550
 Alpha virt. eigenvalues --    1.21837   1.22975   1.26604   1.26753   1.32207
 Alpha virt. eigenvalues --    1.32832   1.42097   1.42633   1.49690   1.51139
 Alpha virt. eigenvalues --    1.52673   1.54626   1.57991   1.59225   1.63733
 Alpha virt. eigenvalues --    1.66712   1.68110   1.70027   1.72425   1.82221
 Alpha virt. eigenvalues --    1.83013   1.85113   1.87403   1.88401   1.96821
 Alpha virt. eigenvalues --    1.98960   2.03677   2.09262   2.11938   2.14032
 Alpha virt. eigenvalues --    2.18043   2.21352   2.25590   2.36869   2.41152
 Alpha virt. eigenvalues --    2.43696   2.56864   2.61516   2.61940   2.70054
 Alpha virt. eigenvalues --    2.72781   2.80822   2.86661   2.89120   2.94249
 Alpha virt. eigenvalues --    5.01023   5.03002   5.06307   5.06641   5.10636
 Alpha virt. eigenvalues --    5.13548   5.17020   5.23502   5.35028   5.41849
 Alpha virt. eigenvalues --    5.42983   5.52211   6.71647   6.73757   6.74436
 Alpha virt. eigenvalues --    6.76344   6.79338   6.80821   6.83158   6.85304
 Alpha virt. eigenvalues --    6.91513   6.91899   6.94300   6.97872   7.00782
 Alpha virt. eigenvalues --    7.00956   7.10457   7.24537   7.25993   7.27253
 Alpha virt. eigenvalues --    7.31352   7.40424   7.64319  14.23249  14.23814
 Alpha virt. eigenvalues --   14.34056  49.97057  49.98746  50.00635  50.10637
 Alpha virt. eigenvalues --  163.85494
          Condensed to atoms (all electrons):
              27         28         29         30         31         32
    27  P   12.480007   0.560956   0.166283   0.044841   0.231101   0.003446
    28  O    0.560956   8.122002  -0.036894   0.002953  -0.004426  -0.013196
    29  O    0.166283  -0.036894   8.128439   0.220794   0.005101  -0.000693
    30  H    0.044841   0.002953   0.220794   0.455340  -0.014744   0.001845
    31  O    0.231101  -0.004426   0.005101  -0.014744   8.049650   0.250257
    32  H    0.003446  -0.013196  -0.000693   0.001845   0.250257   0.455105
    33  O    0.231003  -0.007418   0.007431  -0.013700   0.035079  -0.003346
    34  H   -0.000812  -0.014457  -0.000929   0.001796  -0.005810  -0.003344
              33         34
    27  P    0.231003  -0.000812
    28  O   -0.007418  -0.014457
    29  O    0.007431  -0.000929
    30  H   -0.013700   0.001796
    31  O    0.035079  -0.005810
    32  H   -0.003346  -0.003344
    33  O    8.056611   0.253621
    34  H    0.253621   0.459369
 Mulliken charges:
               1
     1  C    0.000000
     2  C    0.000000
     3  C    0.000000
     4  C    0.000000
     5  C    0.000000
     6  H    0.000000
     7  H    0.000000
     8  H    0.000000
     9  H    0.000000
    10  C    0.000000
    11  H    0.000000
    12  H    0.000000
    13  H    0.000000
    14  N    0.000000
    15  C    0.000000
    16  H    0.000000
    17  H    0.000000
    18  C    0.000000
    19  H    0.000000
    20  H    0.000000
    21  C    0.000000
    22  H    0.000000
    23  H    0.000000
    24  C    0.000000
    25  O    0.000000
    26  O    0.000000
    27  P    1.283175
    28  O   -0.609521
    29  O   -0.489532
    30  H    0.300875
    31  O   -0.546209
    32  H    0.309926
    33  O   -0.559281
    34  H    0.310566
 Sum of Mulliken charges =  -0.00000
 Mulliken charges with hydrogens summed into heavy atoms:
               1
     1  C    0.000000
     2  C    0.000000
     3  C    0.000000
     4  C    0.000000
     5  C    0.000000
    10  C    0.000000
    14  N    0.000000
    15  C    0.000000
    18  C    0.000000
    21  C    0.000000
    24  C    0.000000
    25  O    0.000000
    26  O    0.000000
    27  P    1.283175
    28  O   -0.609521
    29  O   -0.188657
    31  O   -0.236283
    33  O   -0.248715
         Mulliken charges condensed to fragments:
      1      0.000000
      2     -0.000000
 Electronic spatial extent (au):  <R**2>=         115248.2131
 Charge=             -0.0000 electrons
 Dipole moment (field-independent basis, Debye):
    X=              5.1904    Y=             -2.7401    Z=             -0.2938  Tot=              5.8766
 Quadrupole moment (field-independent basis, Debye-Ang):
   XX=             10.9873   YY=           -145.3722   ZZ=            -40.8863
   XY=             90.3671   XZ=             78.6540   YZ=            -50.7793
 Traceless Quadrupole moment (field-independent basis, Debye-Ang):
   XX=             69.4110   YY=            -86.9485   ZZ=             17.5374
   XY=             90.3671   XZ=             78.6540   YZ=            -50.7793
 Octapole moment (field-independent basis, Debye-Ang**2):
  XXX=           -168.8906  YYY=          -5466.4333  ZZZ=          -1612.1994  XYY=           1376.8340
  XXY=            141.0288  XXZ=            195.2971  XZZ=           1055.5011  YZZ=          -1553.4952
  YYZ=          -2431.6281  XYZ=           1351.0153
 Hexadecapole moment (field-independent basis, Debye-Ang**3):
 XXXX=          -2637.5292 YYYY=        -176258.1716 ZZZZ=         -45652.1350 XXXY=          -3878.0254
 XXXZ=          -2178.6523 YYYX=          15539.1251 YYYZ=         -87790.5039 ZZZX=          12045.1013
 ZZZY=         -44290.6833 XXYY=            458.3523 XXZZ=           2757.5528 YYZZ=         -53339.0005
 XXYZ=           2619.7084 YYXZ=          20238.6177 ZZXY=          17456.6239
 N-N= 2.796477570235D+02 E-N=-2.086891764505D+03  KE= 6.424689536637D+02
 No NMR shielding tensors so no spin-rotation constants.
 Leave Link  601 at Wed May 18 21:52:50 2022, MaxMem= 10737418240 cpu:               1.9 elap:               0.1
 (Enter /data0/home/wuhanyu/software/g16/l122.exe)
 CPIOFr:  IOpCl= 0 IRwI=-1 IRwCP=  731 ICalc=  4 LCPTot=      533842 Len1MO=     1404424 IndFrg=     7555962
 Restoring MOs from calculation   1 to rwf.
 CPIOFr:  IOpCl= 0 IRwI=-2 IRwCP=  731 ICalc=  0 LCPTot=      533842 Len1MO=     1404424 IndFrg=     1938266
 Counterpoise corrected energy =   -1238.202191629671
                   BSSE energy =       0.003347064425
              sum of fragments =   -1238.113655564649
           complexation energy =     -57.66 kcal/mole (raw)
           complexation energy =     -55.56 kcal/mole (corrected)
 Leave Link  122 at Wed May 18 21:52:50 2022, MaxMem= 10737418240 cpu:               0.6 elap:               0.0
 (Enter /data0/home/wuhanyu/software/g16/l9999.exe)
 1\1\GINC-LOCALHOST\SP\RM062X\6-311+G(2d,p)\C10H16N1O6P1\WUHANYU\18-May
 -2022\0\\#p M062X/6-311+G(2d,p) nosymm em=GD3 counterpoise=2\\Title Ca
 rd Required\\0,1\C,0,3.52184,17.10636,17.580874\C,0,2.683844,17.523885
 ,16.534666\C,0,2.066675,18.77372,16.611332\C,0,2.348547,19.607365,17.7
 04174\C,0,3.21229,19.177583,18.698596\H,0,1.387897,19.112404,15.819021
 \H,0,4.010926,16.11979,17.557814\H,0,1.936805,20.620989,17.734693\H,0,
 3.497001,19.822098,19.536479\C,0,2.551215,16.655532,15.340641\H,0,2.18
 5738,15.649109,15.572347\H,0,1.899547,17.089884,14.56705\H,0,3.546157,
 16.544599,14.849521\N,0,3.755073,17.92093,18.64323\C,0,4.644995,17.470
 984,19.737236\H,0,4.195088,17.770383,20.711739\H,0,4.692248,16.356775,
 19.741372\C,0,6.063909,18.050977,19.605773\H,0,6.028739,19.150528,19.4
 29975\H,0,6.589535,17.923472,20.573651\C,0,6.869513,17.393445,18.48887
 2\H,0,7.954915,17.541108,18.649459\H,0,6.707913,16.307194,18.428869\C,
 0,6.486903,18.0681,17.159379\O,0,6.978234,19.179753,16.936776\O,0,5.66
 2155,17.451675,16.444699\P,0,4.5337,20.240861,14.679326\O,0,3.424046,2
 0.490743,15.609355\O,0,4.2137,20.933763,13.274199\H,0,5.020371,20.7566
 89,12.655999\O,0,5.944845,20.833443,15.073285\H,0,6.386575,20.186875,1
 5.811446\O,0,4.7529,18.719195,14.286364\H,0,5.176165,18.199819,15.1318
 15\\Version=ES64L-G16RevA.03\HF=-644.1321673\RMSD=9.795e-09\Dipole=-1.
 32217,-2.0768327,2.7729593\Quadrupole=-28.3371053,-153.9780082,182.315
 1135,-64.8853993,-18.3843791,33.0789554\PG=C01 [X(C10H16N1O6P1)]\\@


 ALL MY ATTEMPTS TO ADAPT THE THEORETICAL FOUNDATIONS OF PHYSICS
 TO THESE NEW NOTIONS FAILED COMPLETELY. IT WAS AS IF THE GROUND HAD
 BEEN PULLED OUT FROM UNDER ONE WITH NO FIRM FOUNDATION TO BE SEEN ANYWHERE,
 UPON WHICH ONE COULD HAVE BUILT.  -- A.EINSTEIN
 Job cpu time:       0 days  3 hours 42 minutes  7.7 seconds.
 Elapsed time:       0 days  0 hours  9 minutes 19.1 seconds.
 File lengths (MBytes):  RWF=    262 Int=      0 D2E=      0 Chk=     78 Scr=      1
 Normal termination of Gaussian 16 at Wed May 18 21:52:50 2022.
