          33
 Energy =    -1651.42068340 a.u.  Frame:     1 Step:     1 Geom:     1
C          16.18116200     18.45756700     14.77860800
C          14.84544900     18.10898100     14.94427200
C          15.97740800     17.38382500     16.75203500
N          16.85964700     18.02349100     15.91855900
H          16.67637100     18.91546400     13.94172800
H          14.01511600     18.23546600     14.27697000
H          16.22045800     16.85868300     17.68754000
C          18.29944300     18.06917100     16.10293100
H          18.82500900     17.85848200     15.14548800
H          18.61667300     19.05577500     16.48170000
H          18.63605400     17.27706400     16.80702100
N          14.73968300     17.45769600     16.17504700
C          13.51619700     16.86571400     16.71815100
H          12.69947800     17.61865900     16.65226200
H          13.67488800     16.65466600     17.80592700
C          13.12859600     15.57366300     15.96626600
H          12.15124000     15.72072300     15.46600000
H          13.83862700     15.38100400     15.12682400
C          13.05940200     14.36838300     16.89097500
H          12.52561300     13.53670200     16.39236200
H          12.47656600     14.58411500     17.80058800
S          14.69774900     13.73811400     17.37382300
O          14.49257300     13.07590400     18.65283100
O          15.12333800     12.88671200     16.23361300
O          15.56012400     14.97887900     17.44270300
P          17.07220900     14.99239800     14.24439500
O          16.12307300     16.01390400     13.79288800
O          18.41859300     15.10318300     13.38675300
H          19.01413400     14.30187200     13.63688900
O          17.61645300     15.24683900     15.72226600
H          16.84209900     15.05724400     16.43017800
O          16.67414400     13.47658600     14.12052400
H          16.04245500     13.20310000     14.96190700
          33
 Energy =    -1651.41684140 a.u.  Frame:     2 Step:     2 Geom:     2
C          16.64928200     18.64551000     15.58552800
C          15.79009600     18.38839000     16.64742600
C          15.28052500     16.95653700     14.98727300
N          16.30565100     17.76044900     14.56241300
H          17.47078900     19.33276200     15.51311000
H          15.76194300     18.82490300     17.62725300
H          14.83796200     16.10959000     14.42246700
C          17.07223100     17.54601200     13.34793400
H          16.86493200     18.33194600     12.60254400
H          18.16122500     17.52846300     13.57490300
H          16.84571000     16.54913400     12.90901500
N          14.94296000     17.34704600     16.25399400
C          14.03723200     16.64511300     17.16934000
H          13.68786000     17.36519100     17.94225600
H          14.64788400     15.87060600     17.72246000
C          12.83604700     16.00119400     16.45132000
H          11.90395300     16.50250800     16.78613200
H          12.87078300     16.19212800     15.35836000
C          12.71957400     14.50560200     16.71292000
H          11.80315200     14.10786400     16.23982300
H          12.60416800     14.29936700     17.79183800
S          14.13101800     13.52232200     16.10664500
O          13.57687500     12.24611800     15.69031200
O          14.73063800     14.36301800     15.01041800
O          15.06324600     13.50811600     17.27130800
P          17.97031200     15.22611000     16.36660900
O          17.58697400     16.54893300     16.86796100
O          19.54868700     15.18181500     16.12123700
H          19.78961200     14.22448200     15.82415000
O          17.70076100     13.96053700     17.25916200
H          16.63106500     13.77466900     17.31635300
O          17.40976000     14.93388900     14.89938100
H          16.40711600     14.60970800     14.93818300
          33
 Energy =    -1651.41674340 a.u.  Frame:     3 Step:     3 Geom:     3
C          16.59485600     18.66789300     15.58617000
C          15.72006100     18.38875100     16.63018900
C          15.27665000     16.95046300     14.95703900
N          16.29092000     17.77928600     14.55395300
H          17.40336000     19.37219300     15.53280500
H          15.66221500     18.82251700     17.60988900
H          14.86837200     16.09216400     14.38413900
C          17.08426600     17.58811000     13.35290000
H          16.85988800     18.36279300     12.60068800
H          18.16934300     17.61170200     13.59689700
H          16.90145700     16.58175700     12.91490600
N          14.90549700     17.32972900     16.21765900
C          13.98174700     16.61525900     17.10405500
H          13.61397400     17.32244600     17.87934500
H          14.58270200     15.83088400     17.66162300
C          12.79982800     15.97990900     16.34708000
H          11.85766600     16.46843900     16.67215900
H          12.85816100     16.19502900     15.25968900
C          12.68461400     14.47742000     16.56957200
H          11.82414300     14.07346000     16.00642000
H          12.47424200     14.24934800     17.62976700
S          14.16759700     13.53643100     16.08546500
O          13.70546300     12.20282900     15.74608900
O          14.76984400     14.33198900     14.95980100
O          15.04704800     13.66596100     17.28782900
P          17.99226800     15.28819400     16.36566900
O          17.61585700     16.63152300     16.81495100
O          19.57399700     15.21566100     16.15286100
H          19.80648800     14.24899700     15.87952200
O          17.68696100     14.05524200     17.29107800
H          16.61086600     13.90079100     17.35029100
O          17.45652200     14.95808700     14.89630100
H          16.46315100     14.61476900     14.92323100
          33
 Energy =    -1651.41866740 a.u.  Frame:     4 Step:     4 Geom:     4
C          15.00587600     18.88483500     14.85170200
C          14.04791900     18.68425900     15.83342200
C          15.75294800     17.25723500     16.22084400
N          16.05917500     18.00255000     15.11563800
H          15.00948200     19.56003900     14.01834200
H          13.10124600     19.16374000     15.98160300
H          16.40423400     16.48433000     16.68609400
C          17.14971700     17.67827700     14.21076300
H          16.92140200     16.70735600     13.69257500
H          17.29618100     18.45974100     13.45233200
H          18.09851400     17.52735900     14.76613100
N          14.52985200     17.68186200     16.68837500
C          13.70522200     16.94827500     17.65373200
H          13.18234600     17.68460500     18.30308100
H          14.37442300     16.34413100     18.32137300
C          12.67784700     16.03553700     16.93825100
H          11.72518600     16.07024600     17.50447100
H          12.43891100     16.45933000     15.93604000
C          13.11182000     14.57990300     16.78352800
H          12.34604000     14.01033100     16.22833700
H          13.20010900     14.08394000     17.76622700
S          14.69981000     14.43221700     15.92265700
O          14.84336400     13.08607500     15.36649800
O          14.71314800     15.55781400     14.96038600
O          15.67845800     14.72633300     17.03612500
P          18.53656000     13.78921500     15.38660900
O          18.45423300     15.10385100     14.75519300
O          20.03312500     13.23613400     15.32308200
H          20.03531200     12.29229300     15.73423400
O          18.20197000     13.71970900     16.93397100
H          17.21947300     14.10235300     17.08498700
O          17.73330100     12.59817700     14.69916700
H          16.71281600     12.70797500     14.87425500
          33
 Energy =    -1651.42164530 a.u.  Frame:     5 Step:     5 Geom:     5
C          15.23507000     18.76692900     14.63081500
C          14.25241700     18.61778200     15.59768800
C          15.89636200     17.13237400     16.03726400
N          16.24584200     17.84567800     14.92352100
H          15.27979700     19.43274000     13.79055800
H          13.32125500     19.13569200     15.72144100
H          16.48919800     16.35357100     16.54121600
C          17.42840400     17.62888600     14.10984300
H          17.58423800     18.45188000     13.39605300
H          18.34006400     17.53381500     14.74218700
H          17.33270600     16.67436000     13.53657300
N          14.68513700     17.61567000     16.47230700
C          13.85366000     16.98752900     17.50017100
H          13.43613300     17.78076600     18.15845200
H          14.50154600     16.33816900     18.14886100
C          12.72408500     16.15924700     16.84835200
H          11.75694800     16.43756800     17.31355500
H          12.61775500     16.43457900     15.77429600
C          12.93383700     14.66022900     16.97284900
H          12.07907400     14.11830700     16.52458000
H          12.95176400     14.34525500     18.03201200
S          14.45448300     14.04448800     16.18495300
O          14.10085400     12.76046900     15.60581100
O          14.90964800     15.09979500     15.21781900
O          15.44681000     14.03036700     17.30988400
P          18.51015800     14.27018400     15.68900600
O          18.77954700     15.61274600     16.21026700
O          19.84285300     13.59383900     15.13618200
H          19.58529300     12.65730200     14.78405400
O          17.93144300     13.19377900     16.67783300
H          16.96527300     13.52385600     17.04156000
O          17.59656700     14.29219900     14.37525100
H          16.62179600     14.55997800     14.60480900
