 Entering Gaussian System, Link 0=g16
 Initial command:
 /data0/home/wuhanyu/software/g16/l1.exe "/data0/home/wuhanyu/software/g16/scratch/Gau-3098360.inp" -scrdir="/data0/home/wuhanyu/software/g16/scratch/"
 Default is to use a total of  22 processors:
                               22 via shared-memory
                                1 via Linda
 Entering Link 1 = /data0/home/wuhanyu/software/g16/l1.exe PID=   3098361.
  
 Copyright (c) 1988,1990,1992,1993,1995,1998,2003,2009,2016,
            Gaussian, Inc.  All Rights Reserved.
  
 This is part of the Gaussian(R) 16 program.  It is based on
 the Gaussian(R) 09 system (copyright 2009, Gaussian, Inc.),
 the Gaussian(R) 03 system (copyright 2003, Gaussian, Inc.),
 the Gaussian(R) 98 system (copyright 1998, Gaussian, Inc.),
 the Gaussian(R) 94 system (copyright 1995, Gaussian, Inc.),
 the Gaussian 92(TM) system (copyright 1992, Gaussian, Inc.),
 the Gaussian 90(TM) system (copyright 1990, Gaussian, Inc.),
 the Gaussian 88(TM) system (copyright 1988, Gaussian, Inc.),
 the Gaussian 86(TM) system (copyright 1986, Carnegie Mellon
 University), and the Gaussian 82(TM) system (copyright 1983,
 Carnegie Mellon University). Gaussian is a federally registered
 trademark of Gaussian, Inc.
  
 This software contains proprietary and confidential information,
 including trade secrets, belonging to Gaussian, Inc.
  
 This software is provided under written license and may be
 used, copied, transmitted, or stored only in accord with that
 written license.
  
 The following legend is applicable only to US Government
 contracts under FAR:
  
                    RESTRICTED RIGHTS LEGEND
  
 Use, reproduction and disclosure by the US Government is
 subject to restrictions as set forth in subparagraphs (a)
 and (c) of the Commercial Computer Software - Restricted
 Rights clause in FAR 52.227-19.
  
 Gaussian, Inc.
 340 Quinnipiac St., Bldg. 40, Wallingford CT 06492
  
  
 ---------------------------------------------------------------
 Warning -- This program may not be used in any manner that
 competes with the business of Gaussian, Inc. or will provide
 assistance to any competitor of Gaussian, Inc.  The licensee
 of this program is prohibited from giving any competitor of
 Gaussian, Inc. access to this program.  By using this program,
 the user acknowledges that Gaussian, Inc. is engaged in the
 business of creating and licensing software in the field of
 computational chemistry and represents and warrants to the
 licensee that it is not a competitor of Gaussian, Inc. and that
 it will not use this program in any manner prohibited above.
 ---------------------------------------------------------------
  

 Cite this work as:
 Gaussian 16, Revision A.03,
 M. J. Frisch, G. W. Trucks, H. B. Schlegel, G. E. Scuseria, 
 M. A. Robb, J. R. Cheeseman, G. Scalmani, V. Barone, 
 G. A. Petersson, H. Nakatsuji, X. Li, M. Caricato, A. V. Marenich, 
 J. Bloino, B. G. Janesko, R. Gomperts, B. Mennucci, H. P. Hratchian, 
 J. V. Ortiz, A. F. Izmaylov, J. L. Sonnenberg, D. Williams-Young, 
 F. Ding, F. Lipparini, F. Egidi, J. Goings, B. Peng, A. Petrone, 
 T. Henderson, D. Ranasinghe, V. G. Zakrzewski, J. Gao, N. Rega, 
 G. Zheng, W. Liang, M. Hada, M. Ehara, K. Toyota, R. Fukuda, 
 J. Hasegawa, M. Ishida, T. Nakajima, Y. Honda, O. Kitao, H. Nakai, 
 T. Vreven, K. Throssell, J. A. Montgomery, Jr., J. E. Peralta, 
 F. Ogliaro, M. J. Bearpark, J. J. Heyd, E. N. Brothers, K. N. Kudin, 
 V. N. Staroverov, T. A. Keith, R. Kobayashi, J. Normand, 
 K. Raghavachari, A. P. Rendell, J. C. Burant, S. S. Iyengar, 
 J. Tomasi, M. Cossi, J. M. Millam, M. Klene, C. Adamo, R. Cammi, 
 J. W. Ochterski, R. L. Martin, K. Morokuma, O. Farkas, 
 J. B. Foresman, and D. J. Fox, Gaussian, Inc., Wallingford CT, 2016.
 
 ******************************************
 Gaussian 16:  ES64L-G16RevA.03 25-Dec-2016
                23-May-2022 
 ******************************************
 %nproc=24
 Will use up to   24 processors via shared memory.
 %mem=100GB
 ---------------------------------------------------
 #p M062X/6-311+G(2d,p) nosymm em=GD3 counterpoise=5
 ---------------------------------------------------
 1/38=1,62=5,172=1/1;
 2/12=2,15=1,17=6,18=5,40=1/2;
 1/38=1,53=2,62=5,63=1/22;
 3/5=4,6=6,7=112,11=2,25=1,30=1,74=-55,124=31/1,2,3;
 4//1;
 5/5=2,38=5/2;
 6/7=2,8=2,9=2,10=2,28=1/1;
 1/53=2,62=5,63=1/22;
 3/5=7,6=11,7=112,11=2,25=1,30=1,74=-55,82=7,124=31/1,2,3;
 4//1;
 5/5=2,38=5/2;
 6/7=2,8=2,9=2,10=2,28=1/1;
 1/53=2,62=5,63=1/22(-4);
 99/5=1,9=1/99;
 Leave Link    1 at Mon May 23 14:37:19 2022, MaxMem= 13421772800 cpu:               0.7 elap:               0.0
 (Enter /data0/home/wuhanyu/software/g16/l101.exe)
 -------------------
 Title Card Required
 -------------------
 Symbolic Z-matrix:
 Charge =  0 Multiplicity = 1 in supermolecule
 Charge =  0 Multiplicity = 1 in fragment      1.
 Charge =  0 Multiplicity = 1 in fragment      2.
 Charge =  0 Multiplicity = 1 in fragment      3.
 Charge =  0 Multiplicity = 1 in fragment      4.
 Charge =  0 Multiplicity = 1 in fragment      5.
 C                     7.41259   10.23684   9.45812    
 C                     7.58711   9.73109   10.74351    
 C                     8.84572   11.5853   10.54813    
 N                     8.18828   11.38864   9.36459    
 H                     6.82973   9.84553   8.63586    
 H                     7.17309   8.84001   11.19589    
 H                     9.56034   12.38271   10.76242    
 C                     8.31234   12.2492   8.20266    
 H                     9.38331   12.45542   7.97308    
 H                     7.89599   11.75542   7.29639    
 H                     7.78721   13.20605   8.36262    
 N                     8.46988   10.58325   11.40422    
 C                     8.94365   10.43245   12.78092    
 H                     8.05666   10.44089   13.45833    
 H                     9.57214   11.3199   13.05412    
 C                     9.75041   9.13973   12.98312    
 H                     9.77793   8.9067    14.06768    
 H                     9.23013   8.27213   12.51699    
 C                     11.17625   9.23569   12.44773    
 H                     11.77066   8.36008   12.78006    
 H                     11.69619   10.13117   12.83779    
 C                     11.15525   9.25409   10.9225    
 O                     11.26061   10.37708   10.36344    
 O                     11.00818   8.17735   10.32426    
 P                     10.33866   9.34093   7.10171    
 O                     8.87453   9.4521    7.21265    
 O                     10.9906   8.01993   7.6607     
 H                     11.0254   8.07779   8.73811    
 O                     10.74381   9.3524    5.56066    
 H                     11.77432   9.28495   5.51653    
 O                     11.12162   10.58439   7.69637    
 H                     11.21979   10.4682   8.75482    
 O                     8.4709    6.87605   10.7188    
 H                     9.36843   7.1994    10.56459    
 H                     8.02308   6.96991   9.87181    
 O                     11.31549   12.54495   11.88877    
 H                     12.13007   13.01232   11.75816    
 H                     11.39506   11.72024   11.33771    
 O                     7.17374   7.35374   8.21546    
 H                     7.34132   6.5812    7.67653    
 H                     7.75957   8.03484   7.84225    
 
 ITRead=  0  0  0  0  0  0  0  0  0  0  0  0  0  0  0  0  0  0  0  0
 ITRead=  0  0  0  0  0  0  0  0  0  0  0  0  0  0  0  0  0  0  0  0
 ITRead=  0
 MicOpt= -1 -1 -1 -1 -1 -1 -1 -1 -1 -1 -1 -1 -1 -1 -1 -1 -1 -1 -1 -1
 MicOpt= -1 -1 -1 -1 -1 -1 -1 -1 -1 -1 -1 -1 -1 -1 -1 -1 -1 -1 -1 -1
 MicOpt= -1
 NAtoms=     41 NQM=       41 NQMF=       0 NMMI=      0 NMMIF=      0
                NMic=       0 NMicF=      0.
                    Isotopes and Nuclear Properties:
 (Nuclear quadrupole moments (NQMom) in fm**2, nuclear magnetic moments (NMagM)
  in nuclear magnetons)

  Atom         1           2           3           4           5           6           7           8           9          10
 IAtWgt=          12          12          12          14           1           1           1          12           1           1
 AtmWgt=  12.0000000  12.0000000  12.0000000  14.0030740   1.0078250   1.0078250   1.0078250  12.0000000   1.0078250   1.0078250
 NucSpn=           0           0           0           2           1           1           1           0           1           1
 AtZEff=  -0.0000000  -0.0000000  -0.0000000  -0.0000000  -0.0000000  -0.0000000  -0.0000000  -0.0000000  -0.0000000  -0.0000000
 NQMom=    0.0000000   0.0000000   0.0000000   2.0440000   0.0000000   0.0000000   0.0000000   0.0000000   0.0000000   0.0000000
 NMagM=    0.0000000   0.0000000   0.0000000   0.4037610   2.7928460   2.7928460   2.7928460   0.0000000   2.7928460   2.7928460
 AtZNuc=   6.0000000   6.0000000   6.0000000   7.0000000   1.0000000   1.0000000   1.0000000   6.0000000   1.0000000   1.0000000

  Atom        11          12          13          14          15          16          17          18          19          20
 IAtWgt=           1          14          12           1           1          12           1           1          12           1
 AtmWgt=   1.0078250  14.0030740  12.0000000   1.0078250   1.0078250  12.0000000   1.0078250   1.0078250  12.0000000   1.0078250
 NucSpn=           1           2           0           1           1           0           1           1           0           1
 AtZEff=  -0.0000000  -0.0000000  -0.0000000  -0.0000000  -0.0000000  -0.0000000  -0.0000000  -0.0000000  -0.0000000  -0.0000000
 NQMom=    0.0000000   2.0440000   0.0000000   0.0000000   0.0000000   0.0000000   0.0000000   0.0000000   0.0000000   0.0000000
 NMagM=    2.7928460   0.4037610   0.0000000   2.7928460   2.7928460   0.0000000   2.7928460   2.7928460   0.0000000   2.7928460
 AtZNuc=   1.0000000   7.0000000   6.0000000   1.0000000   1.0000000   6.0000000   1.0000000   1.0000000   6.0000000   1.0000000

  Atom        21          22          23          24          25          26          27          28          29          30
 IAtWgt=           1          12          16          16          31          16          16           1          16           1
 AtmWgt=   1.0078250  12.0000000  15.9949146  15.9949146  30.9737634  15.9949146  15.9949146   1.0078250  15.9949146   1.0078250
 NucSpn=           1           0           0           0           1           0           0           1           0           1
 AtZEff=  -0.0000000  -0.0000000  -0.0000000  -0.0000000  -0.0000000  -0.0000000  -0.0000000  -0.0000000  -0.0000000  -0.0000000
 NQMom=    0.0000000   0.0000000   0.0000000   0.0000000   0.0000000   0.0000000   0.0000000   0.0000000   0.0000000   0.0000000
 NMagM=    2.7928460   0.0000000   0.0000000   0.0000000   1.1316000   0.0000000   0.0000000   2.7928460   0.0000000   2.7928460
 AtZNuc=   1.0000000   6.0000000   8.0000000   8.0000000  15.0000000   8.0000000   8.0000000   1.0000000   8.0000000   1.0000000

  Atom        31          32          33          34          35          36          37          38          39          40
 IAtWgt=          16           1          16           1           1          16           1           1          16           1
 AtmWgt=  15.9949146   1.0078250  15.9949146   1.0078250   1.0078250  15.9949146   1.0078250   1.0078250  15.9949146   1.0078250
 NucSpn=           0           1           0           1           1           0           1           1           0           1
 AtZEff=  -0.0000000  -0.0000000  -0.0000000  -0.0000000  -0.0000000  -0.0000000  -0.0000000  -0.0000000  -0.0000000  -0.0000000
 NQMom=    0.0000000   0.0000000   0.0000000   0.0000000   0.0000000   0.0000000   0.0000000   0.0000000   0.0000000   0.0000000
 NMagM=    0.0000000   2.7928460   0.0000000   2.7928460   2.7928460   0.0000000   2.7928460   2.7928460   0.0000000   2.7928460
 AtZNuc=   8.0000000   1.0000000   8.0000000   1.0000000   1.0000000   8.0000000   1.0000000   1.0000000   8.0000000   1.0000000

  Atom        41
 IAtWgt=           1
 AtmWgt=   1.0078250
 NucSpn=           1
 AtZEff=  -0.0000000
 NQMom=    0.0000000
 NMagM=    2.7928460
 AtZNuc=   1.0000000
 Leave Link  101 at Mon May 23 14:37:19 2022, MaxMem= 13421772800 cpu:               2.3 elap:               0.1
 (Enter /data0/home/wuhanyu/software/g16/l202.exe)
                          Input orientation:                          
 ---------------------------------------------------------------------
 Center     Atomic      Atomic             Coordinates (Angstroms)
 Number     Number       Type             X           Y           Z
 ---------------------------------------------------------------------
      1          6           0        7.412586   10.236837    9.458117
      2          6           0        7.587109    9.731091   10.743511
      3          6           0        8.845724   11.585301   10.548130
      4          7           0        8.188275   11.388639    9.364593
      5          1           0        6.829730    9.845525    8.635859
      6          1           0        7.173088    8.840010   11.195885
      7          1           0        9.560341   12.382714   10.762421
      8          6           0        8.312341   12.249198    8.202663
      9          1           0        9.383305   12.455415    7.973076
     10          1           0        7.895994   11.755416    7.296390
     11          1           0        7.787208   13.206046    8.362616
     12          7           0        8.469876   10.583249   11.404221
     13          6           0        8.943651   10.432451   12.780915
     14          1           0        8.056659   10.440888   13.458326
     15          1           0        9.572141   11.319895   13.054124
     16          6           0        9.750413    9.139725   12.983117
     17          1           0        9.777934    8.906695   14.067683
     18          1           0        9.230129    8.272127   12.516986
     19          6           0       11.176253    9.235686   12.447731
     20          1           0       11.770660    8.360078   12.780059
     21          1           0       11.696188   10.131166   12.837786
     22          6           0       11.155251    9.254090   10.922502
     23          8           0       11.260607   10.377079   10.363444
     24          8           0       11.008179    8.177350   10.324257
     25         15           0       10.338659    9.340932    7.101706
     26          8           0        8.874535    9.452103    7.212651
     27          8           0       10.990602    8.019934    7.660698
     28          1           0       11.025402    8.077787    8.738108
     29          8           0       10.743814    9.352399    5.560659
     30          1           0       11.774316    9.284946    5.516526
     31          8           0       11.121618   10.584385    7.696369
     32          1           0       11.219787   10.468202    8.754817
     33          8           0        8.470898    6.876046   10.718795
     34          1           0        9.368435    7.199403   10.564588
     35          1           0        8.023076    6.969913    9.871807
     36          8           0       11.315486   12.544952   11.888769
     37          1           0       12.130073   13.012322   11.758161
     38          1           0       11.395056   11.720235   11.337715
     39          8           0        7.173737    7.353745    8.215462
     40          1           0        7.341317    6.581196    7.676528
     41          1           0        7.759569    8.034842    7.842249
 ---------------------------------------------------------------------
                    Distance matrix (angstroms):
                    1          2          3          4          5
     1  C    0.000000
     2  C    1.392291   0.000000
     3  C    2.249526   2.249529   0.000000
     4  N    1.391793   2.238366   1.368092   0.000000
     5  H    1.081182   2.242524   3.278389   2.181261   0.000000
     6  H    2.242392   1.081703   3.279317   3.298446   2.771766
     7  H    3.304368   3.305315   1.092001   2.196514   4.291367
     8  C    2.536793   3.650032   2.495290   1.451219   2.857173
     9  H    3.318308   4.280604   2.770739   2.121892   3.711004
    10  H    2.685671   4.009482   3.391864   2.120711   2.564913
    11  H    3.186952   4.217110   2.919545   2.113713   3.504929
    12  N    2.241692   1.393552   1.370497   2.210890   3.301234
    13  C    3.663797   2.546199   2.514753   3.627140   4.689844
    14  H    4.056863   2.845085   3.225143   4.204070   5.011587
    15  H    4.332200   3.435634   2.622619   3.941123   5.405150
    16  C    4.369750   3.169453   3.567698   4.537797   5.284619
    17  H    5.349042   4.065644   4.520088   5.550326   6.251242
    18  H    4.064508   2.823704   3.873149   4.553646   4.827074
    19  C    4.909713   4.003966   3.815828   4.803016   5.813307
    20  H    5.792265   4.850701   4.892731   5.802678   6.617684
    21  H    5.457341   4.629317   3.934740   5.094091   6.435852
    22  C    4.137361   3.604331   3.302819   3.973201   4.928353
    23  O    3.955572   3.749178   2.706579   3.385289   4.785370
    24  O    4.233199   3.780688   4.042334   4.380090   4.805511
    25  P    3.862282   4.581047   4.375373   3.733351   3.862748
    26  O    2.791992   3.768590   3.959392   2.975228   2.522207
    27  O    4.576852   4.900567   5.064544   4.701539   4.647212
    28  H    4.269936   4.310094   4.508861   4.404942   4.554011
    29  O    5.202835   6.080308   5.784761   5.014675   5.002008
    30  H    5.955411   6.712162   6.259818   5.665054   5.873110
    31  O    4.120857   4.744042   3.783394   3.469048   4.455206
    32  H    3.878523   4.206493   3.178059   3.226313   4.435592
    33  O    3.742225   2.988808   4.727230   4.719877   3.981188
    34  H    3.778310   3.100739   4.416967   4.514694   4.143305
    35  H    3.349124   2.928146   4.736662   4.450808   3.349744
    36  O    5.144715   4.809389   2.969506   4.181862   6.163630
    37  H    5.937020   5.695131   3.779883   4.889099   6.918888
    38  H    4.646873   4.337077   2.672217   3.779763   5.626434
    39  O    3.148565   3.494808   5.113017   4.316267   2.550302
    40  H    4.067290   4.403253   5.962416   5.165115   3.440622
    41  H    2.753218   3.365163   4.594266   3.708001   2.184717
                    6          7          8          9         10
     6  H    0.000000
     7  H    4.293905   0.000000
     8  C    4.677589   2.850911   0.000000
     9  H    5.323787   2.795903   1.114540   0.000000
    10  H    4.922220   3.895757   1.112877   1.777638   0.000000
    11  H    5.240880   3.095309   1.103135   1.806298   1.803607
    12  N    2.182646   2.199794   3.612503   4.013990   4.310173
    13  C    2.860609   2.873700   4.965835   5.234596   5.738278
    14  H    2.908977   3.646869   5.563933   5.992185   6.302639
    15  H    3.918971   2.526188   5.097781   5.209809   6.012541
    16  C    3.150656   3.935047   5.881294   6.019060   6.528367
    17  H    3.877743   4.801543   6.907876   7.063525   7.583358
    18  H    2.509824   4.481569   5.939092   6.178226   6.416217
    19  C    4.212957   3.918575   5.941704   5.796883   6.606471
    20  H    4.886472   5.013778   6.930929   6.751173   7.524093
    21  H    4.982104   3.733423   6.117258   5.866597   6.912795
    22  C    4.012957   3.515345   4.944728   4.699722   5.479788
    23  O    4.445599   2.659447   4.106833   3.682065   4.756811
    24  O    3.988330   4.469151   5.324345   5.144911   5.626387
    25  P    5.199429   4.822764   3.711614   3.372238   3.440094
    26  O    4.374441   4.653996   3.019922   3.139582   2.503958
    27  O    5.267208   5.540774   5.035224   4.728052   4.864478
    28  H    4.632707   4.977614   5.004805   4.737656   5.039514
    29  O    6.690919   6.135287   4.613425   4.159261   4.110636
    30  H    7.322867   6.482073   5.290311   4.669416   4.930773
    31  O    5.557009   3.882299   3.304538   2.568862   3.454844
    32  H    4.998559   3.232583   3.453992   2.816523   3.851172
    33  O    2.401891   5.613571   5.935219   6.284968   5.987622
    34  H    2.812415   5.190634   5.674016   5.860189   5.797107
    35  H    2.443957   5.696911   5.544418   5.962058   5.435988
    36  O    5.600549   2.091773   4.763793   4.367378   5.779813
    37  H    6.503541   2.826911   5.272476   4.709750   6.278108
    38  H    5.112810   2.033721   4.428486   3.988537   5.345744
    39  O    3.330451   6.121553   5.026136   5.564888   4.554235
    40  H    4.185262   6.935735   5.774595   6.226083   5.217732
    41  H    3.498447   5.538427   4.265706   4.711168   3.762877
                   11         12         13         14         15
    11  H    0.000000
    12  N    4.073875   0.000000
    13  C    5.343366   1.463724   0.000000
    14  H    5.803875   2.100086   1.116115   0.000000
    15  H    5.362257   2.116557   1.121249   1.797976   0.000000
    16  C    6.460508   2.493281   1.537170   2.188070   2.188599
    17  H    7.415875   3.408208   2.163269   2.384922   2.625488
    18  H    6.609415   2.675353   2.195160   2.639446   3.113580
    19  C    6.628540   3.198330   2.554950   3.493663   2.699040
    20  H    7.672359   4.210771   3.505240   4.310872   3.697177
    21  H    6.690453   3.559294   2.769561   3.705019   2.443656
    22  C    5.789187   3.034791   3.119841   4.176142   3.364164
    23  O    4.906207   2.985616   3.348958   4.455070   3.313545
    24  O    6.285736   3.660281   3.922107   4.863894   4.403404
    25  P    4.799886   4.852560   5.949023   6.842810   6.319424
    26  O    4.073916   4.360332   5.654328   6.376133   6.172366
    27  O    6.135974   5.190242   6.018876   6.934085   6.480032
    28  H    6.076671   4.462758   5.120783   6.056248   5.590280
    29  O    5.607413   6.390071   7.519255   8.413011   7.835552
    30  H    6.274734   6.875308   7.880405   8.844736   8.112088
    31  O    4.293633   4.558498   5.533465   6.527995   5.625602
    32  H    4.408198   3.820286   4.625099   5.668256   4.682324
    33  O    6.788808   3.770035   4.138097   4.514944   5.139484
    34  H    6.590047   3.600390   3.942733   4.538910   4.818479
    35  H    6.420486   3.950205   4.615142   4.991184   5.607949
    36  O    5.031853   3.490066   3.299119   4.184561   2.428594
    37  H    5.516134   4.407121   4.225523   5.108379   3.329691
    38  H    4.906671   3.139082   3.122595   4.156755   2.535617
    39  O    5.886207   4.719942   5.783977   6.147977   6.700398
    40  H    6.675191   5.584422   6.591996   6.988428   7.506689
    41  H    5.197393   4.436954   5.616138   6.116996   6.421887
                   16         17         18         19         20
    16  C    0.000000
    17  H    1.109659   0.000000
    18  H    1.113867   1.762790   0.000000
    19  C    1.526062   2.165127   2.172704   0.000000
    20  H    2.174967   2.434691   2.555629   1.109257   0.000000
    21  H    2.188634   2.586827   3.104897   1.106508   1.773593
    22  C    2.496554   3.451065   2.685652   1.525485   2.151396
    23  O    3.267173   4.252262   3.631998   2.377845   3.188805
    24  O    3.094782   4.007329   2.824625   2.378543   2.577931
    25  P    5.914179   7.001986   5.629959   5.412266   5.937710
    26  O    5.844914   6.935781   5.445618   5.722832   6.369936
    27  O    5.578543   6.580757   5.171692   4.942490   5.189609
    28  H    4.557786   5.536031   4.188161   3.889060   4.119765
    29  O    7.491659   8.573274   7.200605   6.901622   7.359270
    30  H    7.737393   8.789249   7.516989   6.957134   7.322179
    31  O    5.649509   6.724119   5.671209   4.939374   5.586833
    32  H    4.669307   5.722219   4.789092   3.893405   4.577141
    33  O    3.447978   4.128793   2.399784   3.984478   4.164083
    34  H    3.124106   3.918445   2.231977   3.310722   3.467876
    35  H    4.167976   4.943281   3.185861   4.659575   4.943164
    36  O    3.904180   4.510947   4.795874   3.359028   4.302877
    37  H    4.707473   5.265228   5.608470   3.955788   4.776696
    38  H    3.474368   4.240733   4.238754   2.730017   3.675879
    39  O    5.706095   6.591054   4.855438   6.121596   6.555910
    40  H    6.364723   7.224397   5.464146   6.672138   6.987813
    41  H    5.622522   6.602269   4.906324   5.858858   6.369976
                   21         22         23         24         25
    21  H    0.000000
    22  C    2.174900   0.000000
    23  O    2.524395   1.258869   0.000000
    24  O    3.257082   1.240523   2.214512   0.000000
    25  P    5.947266   3.908049   3.544365   3.490991   0.000000
    26  O    6.329692   4.359343   4.059115   3.982402   1.472524
    27  O    5.635370   3.491363   3.596369   2.668264   1.575607
    28  H    4.633970   2.484377   2.825559   1.589364   2.178294
    29  O    7.380384   5.378504   4.937994   4.913501   1.593458
    30  H    7.370417   5.441394   4.994924   4.992796   2.139402
    31  O    5.193237   3.489807   2.678728   3.565457   1.585189
    32  H    4.124462   2.485375   1.611723   2.784946   2.186298
    33  O    5.048606   3.591983   4.490655   2.878688   4.758942
    34  H    4.379623   2.746371   3.703836   1.924292   4.185574
    35  H    5.681752   4.016459   4.725685   3.251685   4.319388
    36  O    2.621437   3.433529   2.651283   4.649525   5.842594
    37  H    3.107234   3.971513   3.105755   5.166399   6.194420
    38  H    2.205909   2.512326   1.664737   3.705240   4.972005
    39  O    7.037934   5.176083   5.518775   4.452896   3.899499
    40  H    7.629271   5.676866   6.081865   4.796254   4.114684
    41  H    6.696785   4.743963   4.909151   4.090738   2.984289
                   26         27         28         29         30
    26  O    0.000000
    27  O    2.594146   0.000000
    28  H    2.973549   1.079523   0.000000
    29  O    2.496642   2.499306   3.435129   0.000000
    30  H    3.363556   2.609969   3.520894   1.033650   0.000000
    31  O    2.562309   2.568043   2.716157   2.494350   2.620357
    32  H    2.985120   2.691401   2.398364   3.416755   3.492009
    33  O    4.369444   4.124239   3.448593   6.156691   6.616568
    34  H    4.068670   3.425971   2.617848   5.618395   5.968307
    35  H    3.735955   3.846785   3.395088   5.627135   6.196745
    36  O    6.114739   6.201445   5.474155   7.110849   7.172423
    37  H    6.628374   6.558318   5.889877   7.329787   7.278592
    38  H    5.339813   5.232233   4.490215   6.277351   6.321449
    39  O    2.881224   3.914081   3.953823   4.877299   5.672664
    40  H    3.287559   3.922690   4.115728   4.871699   5.623820
    41  H    1.910019   3.236164   3.386750   3.980870   4.805199
                   31         32         33         34         35
    31  O    0.000000
    32  H    1.069321   0.000000
    33  O    5.469292   4.931246   0.000000
    34  H    4.770580   4.169871   0.966391   0.000000
    35  H    5.234300   4.868743   0.962676   1.530556   0.000000
    36  O    4.632238   3.760812   6.449575   5.841178   6.781531
    37  H    4.838390   4.039956   7.219676   6.545326   7.545625
    38  H    3.824176   2.875703   5.692094   5.014264   6.007054
    39  O    5.127598   5.134322   2.859633   3.218527   1.900574
    40  H    5.506050   5.595896   3.258570   3.582217   2.331340
    41  H    4.221946   4.327485   3.181716   3.270709   2.307079
                   36         37         38         39         40
    36  O    0.000000
    37  H    0.948180   0.000000
    38  H    0.995063   1.544835   0.000000
    39  O    7.589196   8.314775   6.828926   0.000000
    40  H    8.312844   8.997294   7.499787   0.956747   0.000000
    41  H    7.025665   7.694867   6.246373   0.972821   1.521672
                   41
    41  H    0.000000
 Symmetry turned off by external request.
 Stoichiometry    C8H21N2O9P
 Framework group  C1[X(C8H21N2O9P)]
 Deg. of freedom   117
 Full point group                 C1      NOp   1
 Rotational constants (GHZ):           0.3749130           0.2439443           0.2321014
 Leave Link  202 at Mon May 23 14:37:19 2022, MaxMem= 13421772800 cpu:               0.1 elap:               0.0
 (Enter /data0/home/wuhanyu/software/g16/l122.exe)
 Counterpoise: doing full-system calculation.
 Leave Link  122 at Mon May 23 14:37:19 2022, MaxMem= 13421772800 cpu:               0.0 elap:               0.0
 (Enter /data0/home/wuhanyu/software/g16/l301.exe)
 Standard basis: 6-311+G(2d,p) (5D, 7F)
 Ernie: Thresh=  0.10000D-02 Tol=  0.10000D-05 Strict=F.
   674 basis functions,  1022 primitive gaussians,   714 cartesian basis functions
    85 alpha electrons       85 beta electrons
       nuclear repulsion energy      2139.2012834303 Hartrees.
 IExCor= 4336 DFT=T Ex+Corr=M062X ExCW=0 ScaHFX=  0.540000
 ScaDFX=  1.000000  1.000000  1.000000  1.000000 ScalE2=  1.000000  1.000000
 IRadAn=      5 IRanWt=     -1 IRanGd=            0 ICorTp=0 IEmpDi=131
 NAtoms=   41 NActive=   41 NUniq=   41 SFac= 1.00D+00 NAtFMM=   60 NAOKFM=F Big=F
 Integral buffers will be    131072 words long.
 Raffenetti 2 integral format.
 Two-electron integral symmetry is turned off.
 R6Disp:  Grimme-D3 Dispersion energy=       -0.0037991776 Hartrees.
 Nuclear repulsion after empirical dispersion term =     2139.1974842527 Hartrees.
 Leave Link  301 at Mon May 23 14:37:19 2022, MaxMem= 13421772800 cpu:               1.1 elap:               0.1
 (Enter /data0/home/wuhanyu/software/g16/l302.exe)
 NPDir=0 NMtPBC=     1 NCelOv=     1 NCel=       1 NClECP=     1 NCelD=      1
         NCelK=      1 NCelE2=     1 NClLst=     1 CellRange=     0.0.
 One-electron integrals computed using PRISM.
 NBasis=   674 RedAO= T EigKep=  3.57D-06  NBF=   674
 NBsUse=   674 1.00D-06 EigRej= -1.00D+00 NBFU=   674
 Precomputing XC quadrature grid using
 IXCGrd= 4 IRadAn=           5 IRanWt=          -1 IRanGd=           0 AccXCQ= 0.00D+00.
 Generated NRdTot=       0 NPtTot=           0 NUsed=           0 NTot=          32
 NSgBfM=   705   704   705   705   705 MxSgAt=    41 MxSgA2=    41.
 Leave Link  302 at Mon May 23 14:37:20 2022, MaxMem= 13421772800 cpu:              20.7 elap:               0.9
 (Enter /data0/home/wuhanyu/software/g16/l303.exe)
 DipDrv:  MaxL=1.
 Leave Link  303 at Mon May 23 14:37:20 2022, MaxMem= 13421772800 cpu:               1.8 elap:               0.1
 (Enter /data0/home/wuhanyu/software/g16/l401.exe)
 ExpMin= 3.48D-02 ExpMax= 7.75D+04 ExpMxC= 2.65D+03 IAcc=3 IRadAn=         5 AccDes= 0.00D+00
 Harris functional with IExCor= 1009 and IRadAn=       5 diagonalized for initial guess.
 HarFok:  IExCor= 1009 AccDes= 0.00D+00 IRadAn=         5 IDoV= 1 UseB2=F ITyADJ=14
 ICtDFT=  3500011 ScaDFX=  1.000000  1.000000  1.000000  1.000000
 FoFCou: FMM=F IPFlag=           0 FMFlag=      100000 FMFlg1=           0
         NFxFlg=           0 DoJE=T BraDBF=F KetDBF=T FulRan=T
         wScrn=  0.000000 ICntrl=       500 IOpCl=  0 I1Cent=   200000004 NGrid=           0
         NMat0=    1 NMatS0=      1 NMatT0=    0 NMatD0=    1 NMtDS0=    0 NMtDT0=    0
 Symmetry not used in FoFCou.
 Harris En= -1444.89488537884    
 JPrj=0 DoOrth=F DoCkMO=F.
 Leave Link  401 at Mon May 23 14:37:24 2022, MaxMem= 13421772800 cpu:              83.0 elap:               3.5
 (Enter /data0/home/wuhanyu/software/g16/l502.exe)
 Two-electron integral symmetry not used.
 Closed shell SCF:
 Using DIIS extrapolation, IDIIS=  1040.
 NGot= 13421772800 LenX= 13420731059 LenY= 13420220549
 Requested convergence on RMS density matrix=1.00D-08 within 128 cycles.
 Requested convergence on MAX density matrix=1.00D-06.
 Requested convergence on             energy=1.00D-06.
 No special actions if energy rises.
 Fock matrices will be formed incrementally for  20 cycles.

 Cycle   1  Pass 1  IDiag  1:
 FoFJK:  IHMeth= 1 ICntrl=       0 DoSepK=F KAlg= 0 I1Cent=           0 FoldK=F
 IRaf= 840000000 NMat=       1 IRICut=       1 DoRegI=T DoRafI=F ISym2E= 0 IDoP0=0 IntGTp=1.
 FoFCou: FMM=F IPFlag=           0 FMFlag=      100000 FMFlg1=           0
         NFxFlg=           0 DoJE=F BraDBF=F KetDBF=F FulRan=T
         wScrn=  0.000000 ICntrl=         0 IOpCl=  0 I1Cent=           0 NGrid=           0
         NMat0=    1 NMatS0=      1 NMatT0=    0 NMatD0=    1 NMtDS0=    0 NMtDT0=    0
 Symmetry not used in FoFCou.
 E= -1444.76377913681    
 DIIS: error= 3.14D-02 at cycle   1 NSaved=   1.
 NSaved= 1 IEnMin= 1 EnMin= -1444.76377913681     IErMin= 1 ErrMin= 3.14D-02
 ErrMax= 3.14D-02  0.00D+00 EMaxC= 1.00D-01 BMatC= 1.22D+00 BMatP= 1.22D+00
 IDIUse=3 WtCom= 6.86D-01 WtEn= 3.14D-01
 Coeff-Com:  0.100D+01
 Coeff-En:   0.100D+01
 Coeff:      0.100D+01
 Gap=     0.306 Goal=   None    Shift=    0.000
 GapD=    0.306 DampG=1.000 DampE=0.500 DampFc=0.5000 IDamp=-1.
 Damping current iteration by 5.00D-01
 RMSDP=1.40D-02 MaxDP=3.60D+00              OVMax= 2.12D-01

 Cycle   2  Pass 1  IDiag  1:
 RMSU=  5.73D-03    CP:  1.22D+00
 E= -1445.09870565687     Delta-E=       -0.334926520065 Rises=F Damp=T
 DIIS: error= 6.37D-03 at cycle   2 NSaved=   2.
 NSaved= 2 IEnMin= 2 EnMin= -1445.09870565687     IErMin= 2 ErrMin= 6.37D-03
 ErrMax= 6.37D-03  0.00D+00 EMaxC= 1.00D-01 BMatC= 7.00D-02 BMatP= 1.22D+00
 IDIUse=3 WtCom= 9.36D-01 WtEn= 6.37D-02
 Coeff-Com:  0.101D-01 0.990D+00
 Coeff-En:   0.780D-01 0.922D+00
 Coeff:      0.144D-01 0.986D+00
 Gap=     0.347 Goal=   None    Shift=    0.000
 RMSDP=7.06D-03 MaxDP=2.05D+00 DE=-3.35D-01 OVMax= 1.20D-01

 Cycle   3  Pass 1  IDiag  1:
 RMSU=  2.61D-03    CP:  8.94D-01  5.36D-01
 E= -1445.48280364377     Delta-E=       -0.384097986905 Rises=F Damp=F
 DIIS: error= 3.05D-03 at cycle   3 NSaved=   3.
 NSaved= 3 IEnMin= 3 EnMin= -1445.48280364377     IErMin= 3 ErrMin= 3.05D-03
 ErrMax= 3.05D-03  0.00D+00 EMaxC= 1.00D-01 BMatC= 1.90D-02 BMatP= 7.00D-02
 IDIUse=3 WtCom= 9.70D-01 WtEn= 3.05D-02
 Coeff-Com: -0.525D-01 0.297D+00 0.756D+00
 Coeff-En:   0.000D+00 0.000D+00 0.100D+01
 Coeff:     -0.509D-01 0.288D+00 0.763D+00
 Gap=     0.302 Goal=   None    Shift=    0.000
 RMSDP=5.85D-04 MaxDP=6.98D-02 DE=-3.84D-01 OVMax= 3.32D-02

 Cycle   4  Pass 1  IDiag  1:
 RMSU=  4.48D-04    CP:  9.03D-01  5.94D-01  9.85D-01
 E= -1445.49230457606     Delta-E=       -0.009500932287 Rises=F Damp=F
 DIIS: error= 1.44D-03 at cycle   4 NSaved=   4.
 NSaved= 4 IEnMin= 4 EnMin= -1445.49230457606     IErMin= 4 ErrMin= 1.44D-03
 ErrMax= 1.44D-03  0.00D+00 EMaxC= 1.00D-01 BMatC= 6.29D-03 BMatP= 1.90D-02
 IDIUse=3 WtCom= 9.86D-01 WtEn= 1.44D-02
 Coeff-Com: -0.286D-01 0.769D-01 0.415D+00 0.536D+00
 Coeff-En:   0.000D+00 0.000D+00 0.232D+00 0.768D+00
 Coeff:     -0.282D-01 0.758D-01 0.413D+00 0.540D+00
 Gap=     0.300 Goal=   None    Shift=    0.000
 RMSDP=1.99D-04 MaxDP=2.44D-02 DE=-9.50D-03 OVMax= 1.34D-02

 Cycle   5  Pass 1  IDiag  1:
 RMSU=  1.34D-04    CP:  9.01D-01  5.91D-01  9.94D-01  6.88D-01
 E= -1445.49682666419     Delta-E=       -0.004522088127 Rises=F Damp=F
 DIIS: error= 2.54D-04 at cycle   5 NSaved=   5.
 NSaved= 5 IEnMin= 5 EnMin= -1445.49682666419     IErMin= 5 ErrMin= 2.54D-04
 ErrMax= 2.54D-04  0.00D+00 EMaxC= 1.00D-01 BMatC= 2.51D-04 BMatP= 6.29D-03
 IDIUse=3 WtCom= 9.97D-01 WtEn= 2.54D-03
 Coeff-Com: -0.982D-02 0.189D-01 0.148D+00 0.253D+00 0.590D+00
 Coeff-En:   0.000D+00 0.000D+00 0.000D+00 0.000D+00 0.100D+01
 Coeff:     -0.979D-02 0.188D-01 0.148D+00 0.252D+00 0.591D+00
 Gap=     0.299 Goal=   None    Shift=    0.000
 RMSDP=1.25D-04 MaxDP=3.76D-02 DE=-4.52D-03 OVMax= 2.62D-03

 Cycle   6  Pass 1  IDiag  1:
 RMSU=  4.66D-05    CP:  8.96D-01  5.81D-01  1.00D+00  7.32D-01  8.92D-01
 E= -1445.49700697608     Delta-E=       -0.000180311888 Rises=F Damp=F
 DIIS: error= 8.82D-05 at cycle   6 NSaved=   6.
 NSaved= 6 IEnMin= 6 EnMin= -1445.49700697608     IErMin= 6 ErrMin= 8.82D-05
 ErrMax= 8.82D-05  0.00D+00 EMaxC= 1.00D-01 BMatC= 1.73D-05 BMatP= 2.51D-04
 IDIUse=1 WtCom= 1.00D+00 WtEn= 0.00D+00
 Coeff-Com: -0.203D-02 0.247D-02 0.320D-01 0.682D-01 0.262D+00 0.637D+00
 Coeff:     -0.203D-02 0.247D-02 0.320D-01 0.682D-01 0.262D+00 0.637D+00
 Gap=     0.299 Goal=   None    Shift=    0.000
 RMSDP=1.73D-05 MaxDP=2.55D-03 DE=-1.80D-04 OVMax= 8.94D-04

 Cycle   7  Pass 1  IDiag  1:
 RMSU=  1.35D-05    CP:  8.97D-01  5.81D-01  1.00D+00  7.37D-01  9.07D-01
                    CP:  8.90D-01
 E= -1445.49701991708     Delta-E=       -0.000012941004 Rises=F Damp=F
 DIIS: error= 2.83D-05 at cycle   7 NSaved=   7.
 NSaved= 7 IEnMin= 7 EnMin= -1445.49701991708     IErMin= 7 ErrMin= 2.83D-05
 ErrMax= 2.83D-05  0.00D+00 EMaxC= 1.00D-01 BMatC= 2.20D-06 BMatP= 1.73D-05
 IDIUse=1 WtCom= 1.00D+00 WtEn= 0.00D+00
 Coeff-Com:  0.212D-03-0.101D-02-0.283D-02 0.159D-02 0.527D-01 0.291D+00
 Coeff-Com:  0.658D+00
 Coeff:      0.212D-03-0.101D-02-0.283D-02 0.159D-02 0.527D-01 0.291D+00
 Coeff:      0.658D+00
 Gap=     0.299 Goal=   None    Shift=    0.000
 RMSDP=9.04D-06 MaxDP=2.16D-03 DE=-1.29D-05 OVMax= 3.53D-04

 Cycle   8  Pass 1  IDiag  1:
 RMSU=  4.63D-06    CP:  8.96D-01  5.81D-01  1.00D+00  7.38D-01  9.21D-01
                    CP:  9.30D-01  9.41D-01
 E= -1445.49702159090     Delta-E=       -0.000001673819 Rises=F Damp=F
 DIIS: error= 1.11D-05 at cycle   8 NSaved=   8.
 NSaved= 8 IEnMin= 8 EnMin= -1445.49702159090     IErMin= 8 ErrMin= 1.11D-05
 ErrMax= 1.11D-05  0.00D+00 EMaxC= 1.00D-01 BMatC= 3.34D-07 BMatP= 2.20D-06
 IDIUse=1 WtCom= 1.00D+00 WtEn= 0.00D+00
 Coeff-Com:  0.420D-03-0.867D-03-0.655D-02-0.101D-01-0.169D-01 0.316D-01
 Coeff-Com:  0.308D+00 0.694D+00
 Coeff:      0.420D-03-0.867D-03-0.655D-02-0.101D-01-0.169D-01 0.316D-01
 Coeff:      0.308D+00 0.694D+00
 Gap=     0.299 Goal=   None    Shift=    0.000
 RMSDP=8.39D-06 MaxDP=2.39D-03 DE=-1.67D-06 OVMax= 1.52D-04

 Cycle   9  Pass 1  IDiag  1:
 RMSU=  2.36D-06    CP:  8.96D-01  5.80D-01  1.00D+00  7.40D-01  9.30D-01
                    CP:  9.60D-01  9.40D-01  9.85D-01
 E= -1445.49702188600     Delta-E=       -0.000000295104 Rises=F Damp=F
 DIIS: error= 2.83D-06 at cycle   9 NSaved=   9.
 NSaved= 9 IEnMin= 9 EnMin= -1445.49702188600     IErMin= 9 ErrMin= 2.83D-06
 ErrMax= 2.83D-06  0.00D+00 EMaxC= 1.00D-01 BMatC= 2.66D-08 BMatP= 3.34D-07
 IDIUse=1 WtCom= 1.00D+00 WtEn= 0.00D+00
 Coeff-Com:  0.131D-03-0.222D-03-0.221D-02-0.390D-02-0.107D-01-0.121D-01
 Coeff-Com:  0.626D-01 0.273D+00 0.694D+00
 Coeff:      0.131D-03-0.222D-03-0.221D-02-0.390D-02-0.107D-01-0.121D-01
 Coeff:      0.626D-01 0.273D+00 0.694D+00
 Gap=     0.299 Goal=   None    Shift=    0.000
 RMSDP=1.07D-06 MaxDP=1.58D-04 DE=-2.95D-07 OVMax= 5.34D-05

 Cycle  10  Pass 1  IDiag  1:
 RMSU=  5.53D-07    CP:  8.96D-01  5.80D-01  1.00D+00  7.40D-01  9.30D-01
                    CP:  9.61D-01  9.63D-01  1.03D+00  8.41D-01
 E= -1445.49702191449     Delta-E=       -0.000000028487 Rises=F Damp=F
 DIIS: error= 9.87D-07 at cycle  10 NSaved=  10.
 NSaved=10 IEnMin=10 EnMin= -1445.49702191449     IErMin=10 ErrMin= 9.87D-07
 ErrMax= 9.87D-07  0.00D+00 EMaxC= 1.00D-01 BMatC= 2.52D-09 BMatP= 2.66D-08
 IDIUse=1 WtCom= 1.00D+00 WtEn= 0.00D+00
 Coeff-Com: -0.153D-04 0.381D-04 0.139D-03 0.836D-04-0.134D-02-0.838D-02
 Coeff-Com: -0.205D-01-0.145D-01 0.197D+00 0.848D+00
 Coeff:     -0.153D-04 0.381D-04 0.139D-03 0.836D-04-0.134D-02-0.838D-02
 Coeff:     -0.205D-01-0.145D-01 0.197D+00 0.848D+00
 Gap=     0.299 Goal=   None    Shift=    0.000
 RMSDP=4.27D-07 MaxDP=9.65D-05 DE=-2.85D-08 OVMax= 3.85D-05

 Cycle  11  Pass 1  IDiag  1:
 RMSU=  1.73D-07    CP:  8.96D-01  5.80D-01  1.00D+00  7.40D-01  9.30D-01
                    CP:  9.62D-01  9.61D-01  1.05D+00  9.06D-01  1.21D+00
 E= -1445.49702191784     Delta-E=       -0.000000003347 Rises=F Damp=F
 DIIS: error= 4.70D-07 at cycle  11 NSaved=  11.
 NSaved=11 IEnMin=11 EnMin= -1445.49702191784     IErMin=11 ErrMin= 4.70D-07
 ErrMax= 4.70D-07  0.00D+00 EMaxC= 1.00D-01 BMatC= 4.64D-10 BMatP= 2.52D-09
 IDIUse=1 WtCom= 1.00D+00 WtEn= 0.00D+00
 Coeff-Com: -0.198D-04 0.399D-04 0.296D-03 0.467D-03 0.659D-03-0.177D-02
 Coeff-Com: -0.145D-01-0.382D-01-0.115D-03 0.360D+00 0.694D+00
 Coeff:     -0.198D-04 0.399D-04 0.296D-03 0.467D-03 0.659D-03-0.177D-02
 Coeff:     -0.145D-01-0.382D-01-0.115D-03 0.360D+00 0.694D+00
 Gap=     0.299 Goal=   None    Shift=    0.000
 RMSDP=1.51D-07 MaxDP=4.53D-05 DE=-3.35D-09 OVMax= 8.22D-06

 Cycle  12  Pass 1  IDiag  1:
 RMSU=  7.38D-08    CP:  8.96D-01  5.80D-01  1.00D+00  7.40D-01  9.30D-01
                    CP:  9.63D-01  9.60D-01  1.06D+00  9.32D-01  1.28D+00
                    CP:  9.02D-01
 E= -1445.49702191848     Delta-E=       -0.000000000647 Rises=F Damp=F
 DIIS: error= 1.69D-07 at cycle  12 NSaved=  12.
 NSaved=12 IEnMin=12 EnMin= -1445.49702191848     IErMin=12 ErrMin= 1.69D-07
 ErrMax= 1.69D-07  0.00D+00 EMaxC= 1.00D-01 BMatC= 4.13D-11 BMatP= 4.64D-10
 IDIUse=1 WtCom= 1.00D+00 WtEn= 0.00D+00
 Coeff-Com: -0.441D-05 0.821D-05 0.824D-04 0.144D-03 0.340D-03 0.296D-03
 Coeff-Com: -0.242D-02-0.110D-01-0.210D-01 0.218D-01 0.237D+00 0.775D+00
 Coeff:     -0.441D-05 0.821D-05 0.824D-04 0.144D-03 0.340D-03 0.296D-03
 Coeff:     -0.242D-02-0.110D-01-0.210D-01 0.218D-01 0.237D+00 0.775D+00
 Gap=     0.299 Goal=   None    Shift=    0.000
 RMSDP=3.55D-08 MaxDP=3.71D-06 DE=-6.47D-10 OVMax= 5.48D-06

 Cycle  13  Pass 1  IDiag  1:
 RMSU=  2.56D-08    CP:  8.96D-01  5.80D-01  1.00D+00  7.40D-01  9.31D-01
                    CP:  9.63D-01  9.60D-01  1.05D+00  9.32D-01  1.30D+00
                    CP:  9.84D-01  1.01D+00
 E= -1445.49702191847     Delta-E=        0.000000000017 Rises=F Damp=F
 DIIS: error= 7.59D-08 at cycle  13 NSaved=  13.
 NSaved=13 IEnMin=12 EnMin= -1445.49702191848     IErMin=13 ErrMin= 7.59D-08
 ErrMax= 7.59D-08  0.00D+00 EMaxC= 1.00D-01 BMatC= 1.04D-11 BMatP= 4.13D-11
 IDIUse=1 WtCom= 1.00D+00 WtEn= 0.00D+00
 Coeff-Com:  0.514D-06-0.121D-05 0.315D-05 0.120D-04 0.801D-04 0.366D-03
 Coeff-Com:  0.633D-03-0.593D-03-0.103D-01-0.377D-01 0.244D-01 0.382D+00
 Coeff-Com:  0.641D+00
 Coeff:      0.514D-06-0.121D-05 0.315D-05 0.120D-04 0.801D-04 0.366D-03
 Coeff:      0.633D-03-0.593D-03-0.103D-01-0.377D-01 0.244D-01 0.382D+00
 Coeff:      0.641D+00
 Gap=     0.299 Goal=   None    Shift=    0.000
 RMSDP=1.25D-08 MaxDP=8.45D-07 DE= 1.68D-11 OVMax= 1.30D-06

 Cycle  14  Pass 1  IDiag  1:
 RMSU=  9.70D-09    CP:  8.96D-01  5.80D-01  1.00D+00  7.40D-01  9.31D-01
                    CP:  9.63D-01  9.60D-01  1.06D+00  9.32D-01  1.31D+00
                    CP:  9.97D-01  1.10D+00  9.63D-01
 E= -1445.49702191869     Delta-E=       -0.000000000217 Rises=F Damp=F
 DIIS: error= 3.09D-08 at cycle  14 NSaved=  14.
 NSaved=14 IEnMin=14 EnMin= -1445.49702191869     IErMin=14 ErrMin= 3.09D-08
 ErrMax= 3.09D-08  0.00D+00 EMaxC= 1.00D-01 BMatC= 1.57D-12 BMatP= 1.04D-11
 IDIUse=1 WtCom= 1.00D+00 WtEn= 0.00D+00
 Coeff-Com:  0.106D-05-0.208D-05-0.123D-04-0.176D-04-0.151D-04 0.149D-03
 Coeff-Com:  0.773D-03 0.156D-02-0.180D-02-0.241D-01-0.255D-01 0.758D-01
 Coeff-Com:  0.326D+00 0.648D+00
 Coeff:      0.106D-05-0.208D-05-0.123D-04-0.176D-04-0.151D-04 0.149D-03
 Coeff:      0.773D-03 0.156D-02-0.180D-02-0.241D-01-0.255D-01 0.758D-01
 Coeff:      0.326D+00 0.648D+00
 Gap=     0.299 Goal=   None    Shift=    0.000
 RMSDP=7.55D-09 MaxDP=8.88D-07 DE=-2.17D-10 OVMax= 5.77D-07

 SCF Done:  E(RM062X) =  -1445.49702192     A.U. after   14 cycles
            NFock= 14  Conv=0.75D-08     -V/T= 2.0034
 KE= 1.440545878409D+03 PE=-7.682830441882D+03 EE= 2.657590057302D+03
 Leave Link  502 at Mon May 23 14:40:55 2022, MaxMem= 13421772800 cpu:            5065.3 elap:             211.7
 (Enter /data0/home/wuhanyu/software/g16/l601.exe)
 Copying SCF densities to generalized density rwf, IOpCl= 0 IROHF=0.

 **********************************************************************

            Population analysis using the SCF density.

 **********************************************************************

 Alpha  occ. eigenvalues --  -78.14272 -19.65247 -19.63166 -19.62894 -19.61736
 Alpha  occ. eigenvalues --  -19.61655 -19.61468 -19.61107 -19.57686 -19.57682
 Alpha  occ. eigenvalues --  -14.86428 -14.86310 -10.66722 -10.66535 -10.61833
 Alpha  occ. eigenvalues --  -10.61405 -10.61204 -10.60520 -10.56593 -10.55379
 Alpha  occ. eigenvalues --   -6.94982  -5.06919  -5.06853  -5.06707  -1.21337
 Alpha  occ. eigenvalues --   -1.20311  -1.19080  -1.13243  -1.13054  -1.12781
 Alpha  occ. eigenvalues --   -1.12166  -1.10518  -1.08959  -1.08194  -1.07788
 Alpha  occ. eigenvalues --   -0.92960  -0.89636  -0.86083  -0.81447  -0.75089
 Alpha  occ. eigenvalues --   -0.72249  -0.70435  -0.69107  -0.65284  -0.64405
 Alpha  occ. eigenvalues --   -0.62765  -0.61721  -0.60424  -0.60203  -0.59445
 Alpha  occ. eigenvalues --   -0.58597  -0.57385  -0.56732  -0.55715  -0.55378
 Alpha  occ. eigenvalues --   -0.54882  -0.54405  -0.53867  -0.52504  -0.52234
 Alpha  occ. eigenvalues --   -0.50752  -0.50101  -0.48981  -0.48310  -0.48058
 Alpha  occ. eigenvalues --   -0.47204  -0.46866  -0.46139  -0.45738  -0.44446
 Alpha  occ. eigenvalues --   -0.43599  -0.43069  -0.42980  -0.42608  -0.41238
 Alpha  occ. eigenvalues --   -0.39763  -0.38994  -0.38324  -0.37769  -0.37125
 Alpha  occ. eigenvalues --   -0.36192  -0.35863  -0.35736  -0.35345  -0.32018
 Alpha virt. eigenvalues --   -0.02138   0.00249   0.00640   0.01457   0.01778
 Alpha virt. eigenvalues --    0.02389   0.02555   0.03254   0.03965   0.04327
 Alpha virt. eigenvalues --    0.04774   0.05278   0.05790   0.06070   0.06397
 Alpha virt. eigenvalues --    0.06794   0.07245   0.07340   0.08408   0.08631
 Alpha virt. eigenvalues --    0.09066   0.09727   0.10314   0.10838   0.10980
 Alpha virt. eigenvalues --    0.11753   0.11982   0.12885   0.12983   0.13320
 Alpha virt. eigenvalues --    0.13601   0.14174   0.14752   0.15133   0.15731
 Alpha virt. eigenvalues --    0.15808   0.16025   0.16433   0.16525   0.17114
 Alpha virt. eigenvalues --    0.17594   0.17797   0.18064   0.18154   0.18834
 Alpha virt. eigenvalues --    0.19502   0.19701   0.19932   0.20382   0.20637
 Alpha virt. eigenvalues --    0.20831   0.21075   0.21378   0.21770   0.22072
 Alpha virt. eigenvalues --    0.22564   0.22588   0.22842   0.23447   0.23789
 Alpha virt. eigenvalues --    0.24129   0.24647   0.24757   0.25437   0.25578
 Alpha virt. eigenvalues --    0.26131   0.26511   0.27035   0.27154   0.27284
 Alpha virt. eigenvalues --    0.27558   0.27949   0.28369   0.28959   0.29155
 Alpha virt. eigenvalues --    0.29433   0.29882   0.30039   0.30356   0.30970
 Alpha virt. eigenvalues --    0.31292   0.31449   0.31890   0.32517   0.33011
 Alpha virt. eigenvalues --    0.33072   0.33398   0.33679   0.33896   0.34360
 Alpha virt. eigenvalues --    0.34878   0.35347   0.35645   0.36045   0.36443
 Alpha virt. eigenvalues --    0.36760   0.36843   0.37468   0.38011   0.38388
 Alpha virt. eigenvalues --    0.38600   0.39444   0.40522   0.41308   0.41758
 Alpha virt. eigenvalues --    0.42042   0.42199   0.42860   0.44084   0.44496
 Alpha virt. eigenvalues --    0.45013   0.45357   0.46037   0.46708   0.47378
 Alpha virt. eigenvalues --    0.47732   0.47903   0.49024   0.49949   0.50691
 Alpha virt. eigenvalues --    0.50975   0.52026   0.52705   0.53266   0.53726
 Alpha virt. eigenvalues --    0.54077   0.55078   0.55715   0.56110   0.56872
 Alpha virt. eigenvalues --    0.57689   0.58216   0.58618   0.59182   0.59549
 Alpha virt. eigenvalues --    0.60426   0.61162   0.61489   0.62076   0.62773
 Alpha virt. eigenvalues --    0.63037   0.63996   0.64185   0.64532   0.65096
 Alpha virt. eigenvalues --    0.65565   0.66489   0.67249   0.67882   0.68021
 Alpha virt. eigenvalues --    0.68876   0.69624   0.69776   0.70399   0.71109
 Alpha virt. eigenvalues --    0.72272   0.72801   0.73237   0.73529   0.75383
 Alpha virt. eigenvalues --    0.75500   0.77217   0.77259   0.77999   0.78155
 Alpha virt. eigenvalues --    0.78268   0.79317   0.79625   0.80233   0.80771
 Alpha virt. eigenvalues --    0.81674   0.82739   0.83157   0.84026   0.85115
 Alpha virt. eigenvalues --    0.86269   0.86843   0.87544   0.88396   0.89653
 Alpha virt. eigenvalues --    0.90558   0.91011   0.92231   0.93111   0.93561
 Alpha virt. eigenvalues --    0.94240   0.95911   0.96137   0.99104   0.99918
 Alpha virt. eigenvalues --    1.00335   1.02107   1.03066   1.05291   1.05428
 Alpha virt. eigenvalues --    1.06877   1.07925   1.10117   1.10398   1.10563
 Alpha virt. eigenvalues --    1.11547   1.12120   1.13059   1.14131   1.14983
 Alpha virt. eigenvalues --    1.15209   1.15705   1.15982   1.17201   1.17553
 Alpha virt. eigenvalues --    1.18439   1.18713   1.19348   1.19928   1.20530
 Alpha virt. eigenvalues --    1.20995   1.21742   1.22455   1.23340   1.23754
 Alpha virt. eigenvalues --    1.24022   1.24120   1.25177   1.25549   1.26454
 Alpha virt. eigenvalues --    1.26921   1.27138   1.27544   1.27793   1.28619
 Alpha virt. eigenvalues --    1.29092   1.29724   1.29763   1.30468   1.31371
 Alpha virt. eigenvalues --    1.31666   1.33147   1.33317   1.33779   1.33862
 Alpha virt. eigenvalues --    1.34298   1.34817   1.35686   1.35879   1.37323
 Alpha virt. eigenvalues --    1.37448   1.38563   1.39900   1.40105   1.40522
 Alpha virt. eigenvalues --    1.41122   1.41485   1.41853   1.42549   1.43475
 Alpha virt. eigenvalues --    1.43674   1.44499   1.45016   1.45426   1.45893
 Alpha virt. eigenvalues --    1.46779   1.47531   1.48472   1.49393   1.49801
 Alpha virt. eigenvalues --    1.50403   1.50765   1.51871   1.52136   1.54186
 Alpha virt. eigenvalues --    1.54675   1.55007   1.56241   1.56690   1.57266
 Alpha virt. eigenvalues --    1.58668   1.59583   1.61229   1.62369   1.63512
 Alpha virt. eigenvalues --    1.63638   1.65141   1.66684   1.67735   1.69261
 Alpha virt. eigenvalues --    1.69610   1.70162   1.70742   1.71828   1.72609
 Alpha virt. eigenvalues --    1.74786   1.75429   1.76132   1.77540   1.77845
 Alpha virt. eigenvalues --    1.79030   1.79835   1.80477   1.81071   1.81832
 Alpha virt. eigenvalues --    1.82435   1.83302   1.83551   1.84123   1.84391
 Alpha virt. eigenvalues --    1.86656   1.87141   1.88747   1.89500   1.90748
 Alpha virt. eigenvalues --    1.91797   1.94038   1.94257   1.94983   1.96322
 Alpha virt. eigenvalues --    1.96953   1.99625   1.99875   2.01080   2.01870
 Alpha virt. eigenvalues --    2.03067   2.03561   2.04464   2.04915   2.06316
 Alpha virt. eigenvalues --    2.07138   2.08286   2.09922   2.10812   2.11387
 Alpha virt. eigenvalues --    2.12202   2.13537   2.14805   2.16081   2.16493
 Alpha virt. eigenvalues --    2.17068   2.17882   2.19238   2.20575   2.21436
 Alpha virt. eigenvalues --    2.22635   2.23168   2.24494   2.25261   2.25564
 Alpha virt. eigenvalues --    2.26947   2.28634   2.28734   2.29336   2.30266
 Alpha virt. eigenvalues --    2.31143   2.31611   2.32425   2.33869   2.34571
 Alpha virt. eigenvalues --    2.36061   2.36509   2.37711   2.38183   2.39826
 Alpha virt. eigenvalues --    2.41061   2.43121   2.44057   2.44836   2.45843
 Alpha virt. eigenvalues --    2.46266   2.47331   2.50041   2.50519   2.53219
 Alpha virt. eigenvalues --    2.54114   2.55655   2.57473   2.59869   2.60439
 Alpha virt. eigenvalues --    2.60938   2.62342   2.64496   2.67619   2.68121
 Alpha virt. eigenvalues --    2.70236   2.70524   2.71234   2.73612   2.73883
 Alpha virt. eigenvalues --    2.75348   2.76979   2.77547   2.78480   2.81641
 Alpha virt. eigenvalues --    2.82177   2.83749   2.85132   2.86280   2.87028
 Alpha virt. eigenvalues --    2.88697   2.90986   2.91943   2.92466   2.94367
 Alpha virt. eigenvalues --    2.95505   2.96898   2.98683   2.99234   3.00786
 Alpha virt. eigenvalues --    3.01407   3.02393   3.05514   3.07007   3.07349
 Alpha virt. eigenvalues --    3.10658   3.11707   3.12087   3.14439   3.15863
 Alpha virt. eigenvalues --    3.17644   3.18828   3.21232   3.23267   3.24993
 Alpha virt. eigenvalues --    3.26332   3.27219   3.28868   3.30663   3.32936
 Alpha virt. eigenvalues --    3.34284   3.35436   3.37273   3.38858   3.40976
 Alpha virt. eigenvalues --    3.41482   3.43241   3.43713   3.44926   3.46484
 Alpha virt. eigenvalues --    3.47995   3.51122   3.51467   3.53774   3.54509
 Alpha virt. eigenvalues --    3.55149   3.56747   3.58047   3.58577   3.59980
 Alpha virt. eigenvalues --    3.61296   3.62216   3.63593   3.65223   3.67481
 Alpha virt. eigenvalues --    3.68010   3.69610   3.70764   3.72492   3.73698
 Alpha virt. eigenvalues --    3.74573   3.75959   3.77021   3.83823   3.84453
 Alpha virt. eigenvalues --    3.89394   3.93106   3.94898   3.96456   3.98389
 Alpha virt. eigenvalues --    4.04327   4.05213   4.06266   4.10235   4.16672
 Alpha virt. eigenvalues --    4.18787   4.19397   4.19907   4.23334   4.27099
 Alpha virt. eigenvalues --    4.40180   4.40924   4.51027   4.55002   4.97194
 Alpha virt. eigenvalues --    5.02007   5.04941   5.05970   5.09966   5.10989
 Alpha virt. eigenvalues --    5.12335   5.13598   5.15652   5.16461   5.19287
 Alpha virt. eigenvalues --    5.19455   5.20605   5.21475   5.24658   5.25124
 Alpha virt. eigenvalues --    5.27430   5.32297   5.33955   5.36680   5.37228
 Alpha virt. eigenvalues --    5.39467   5.45569   5.45785   5.47495   5.48571
 Alpha virt. eigenvalues --    5.56882   5.57382   5.59083   5.60654   5.60913
 Alpha virt. eigenvalues --    5.63535   5.64303   5.66399   5.67840   5.85886
 Alpha virt. eigenvalues --    5.93647   6.00671   6.00914   6.06787   6.23512
 Alpha virt. eigenvalues --    6.76633   6.78706   6.79833   6.80062   6.81350
 Alpha virt. eigenvalues --    6.81774   6.82307   6.83240   6.84096   6.85178
 Alpha virt. eigenvalues --    6.86851   6.87933   6.88335   6.89980   6.90451
 Alpha virt. eigenvalues --    6.91297   6.92547   6.93375   6.94485   6.96295
 Alpha virt. eigenvalues --    6.97457   6.98088   6.99452   7.00834   7.02351
 Alpha virt. eigenvalues --    7.03483   7.04124   7.06922   7.07860   7.08242
 Alpha virt. eigenvalues --    7.11125   7.13079   7.17652   7.19536   7.23288
 Alpha virt. eigenvalues --    7.23968   7.28630   7.29884   7.31647   7.32982
 Alpha virt. eigenvalues --    7.36506   7.39715   7.39844   7.44578   7.48313
 Alpha virt. eigenvalues --    7.73248  14.31347  14.34063  14.43338  23.93229
 Alpha virt. eigenvalues --   23.97766  24.03382  24.05107  24.06254  24.12020
 Alpha virt. eigenvalues --   24.19134  24.25134  35.61596  35.71296  50.04242
 Alpha virt. eigenvalues --   50.05706  50.06787  50.10662  50.11298  50.11430
 Alpha virt. eigenvalues --   50.16748  50.18718  50.20754 163.99566
          Condensed to atoms (all electrons):
               1          2          3          4          5          6
     1  C   14.545962  -7.304423  -1.058640  -0.446584   0.220384  -0.001329
     2  C   -7.304423  13.289635   0.199675   0.468020   0.089685   0.355512
     3  C   -1.058640   0.199675   6.760900   0.134431   0.023350   0.006528
     4  N   -0.446584   0.468020   0.134431   6.492047  -0.000508   0.010517
     5  H    0.220384   0.089685   0.023350  -0.000508   0.437327   0.000111
     6  H   -0.001329   0.355512   0.006528   0.010517   0.000111   0.428097
     7  H    0.013416   0.009840   0.369912  -0.022503   0.000006  -0.000081
     8  C    0.116684  -0.226283  -0.194361   0.172491  -0.003684   0.001375
     9  H   -0.018850  -0.004939   0.043456  -0.029853  -0.000076   0.000011
    10  H   -0.004206   0.026110  -0.006286  -0.051966   0.002523  -0.000036
    11  H   -0.016421   0.014140  -0.022261  -0.049270   0.000594   0.000003
    12  N    0.398670  -0.381338   0.286408  -0.161055   0.001400  -0.032190
    13  C   -0.348757   0.126594  -0.153180  -0.002430   0.002617   0.000865
    14  H    0.014064  -0.032135   0.003862  -0.005264  -0.000009   0.001225
    15  H   -0.014340   0.002881   0.016684   0.004092   0.000026   0.000136
    16  C    0.340453  -0.385752  -0.042847  -0.012757  -0.001282   0.002982
    17  H    0.000865   0.002598  -0.001544  -0.000276  -0.000000  -0.000078
    18  H   -0.039175   0.019738   0.008393   0.002680   0.000127   0.002038
    19  C   -0.484413   0.755442   0.190404  -0.014427   0.001033  -0.017640
    20  H    0.002862  -0.002429   0.000454  -0.000104  -0.000001   0.000020
    21  H    0.000599  -0.006250  -0.003652   0.000407   0.000000   0.000025
    22  C    0.645728  -0.820380  -0.382317   0.081899  -0.002129   0.018370
    23  O   -0.042986   0.007662   0.006292   0.053460   0.000403   0.000068
    24  O    0.057167  -0.046915   0.057579  -0.032567  -0.000581  -0.001154
    25  P   -0.247449   0.138298   0.048080   0.012025   0.005430   0.000401
    26  O    0.097168  -0.004810  -0.040541  -0.033481  -0.008844   0.000209
    27  O    0.006698  -0.013880  -0.000733   0.005746   0.000071   0.000069
    28  H   -0.018607   0.015975  -0.005476  -0.000381   0.000168   0.000007
    29  O   -0.000988  -0.002465   0.003358  -0.001193  -0.000014   0.000004
    30  H   -0.001830   0.000406   0.000358   0.000148   0.000003   0.000000
    31  O   -0.031989   0.026749  -0.004741   0.025740   0.000228  -0.000040
    32  H    0.021732  -0.014409   0.025925   0.003279  -0.000259  -0.000051
    33  O    0.110500  -0.048290  -0.000239  -0.015371  -0.004793  -0.023172
    34  H   -0.020000   0.005854  -0.004645   0.001793   0.000502   0.002305
    35  H   -0.066156   0.085145   0.007132   0.001926   0.001452  -0.001576
    36  O   -0.006001  -0.000456  -0.021658   0.007524  -0.000007   0.000026
    37  H    0.000969  -0.001330   0.011046  -0.000474  -0.000000  -0.000000
    38  H   -0.003336  -0.005837   0.038900  -0.012821   0.000027   0.000002
    39  O    0.196157  -0.210049  -0.011294  -0.009507  -0.000715   0.004189
    40  H   -0.040268   0.032499   0.002218   0.001469   0.001076  -0.000193
    41  H   -0.062018   0.072466   0.010983   0.005180   0.001336  -0.001281
               7          8          9         10         11         12
     1  C    0.013416   0.116684  -0.018850  -0.004206  -0.016421   0.398670
     2  C    0.009840  -0.226283  -0.004939   0.026110   0.014140  -0.381338
     3  C    0.369912  -0.194361   0.043456  -0.006286  -0.022261   0.286408
     4  N   -0.022503   0.172491  -0.029853  -0.051966  -0.049270  -0.161055
     5  H    0.000006  -0.003684  -0.000076   0.002523   0.000594   0.001400
     6  H   -0.000081   0.001375   0.000011  -0.000036   0.000003  -0.032190
     7  H    0.401899   0.005848   0.000241   0.000087   0.000602  -0.032680
     8  C    0.005848   5.536749   0.395449   0.402084   0.426132  -0.048777
     9  H    0.000241   0.395449   0.440966  -0.019253  -0.026861   0.003032
    10  H    0.000087   0.402084  -0.019253   0.445626  -0.016406  -0.000473
    11  H    0.000602   0.426132  -0.026861  -0.016406   0.504274  -0.006128
    12  N   -0.032680  -0.048777   0.003032  -0.000473  -0.006128   6.629929
    13  C   -0.006253  -0.021766  -0.001058   0.001086  -0.000622   0.081295
    14  H    0.000308  -0.000431   0.000004  -0.000002  -0.000013  -0.050497
    15  H    0.001541   0.000596   0.000011   0.000001   0.000002  -0.052475
    16  C    0.001231   0.001199   0.000607  -0.000045  -0.000071   0.008122
    17  H   -0.000070   0.000057  -0.000000  -0.000000  -0.000000  -0.000927
    18  H   -0.000010  -0.000027   0.000000   0.000001   0.000001  -0.004215
    19  C    0.000799  -0.024769   0.000158   0.000163   0.000126  -0.019647
    20  H    0.000008   0.000031  -0.000000  -0.000000  -0.000000   0.003003
    21  H    0.000082   0.000011   0.000001   0.000000  -0.000000   0.003766
    22  C    0.010510   0.053332  -0.000540  -0.000877  -0.000247  -0.069230
    23  O   -0.019195  -0.010934  -0.002383   0.000333   0.000604   0.033500
    24  O   -0.001028  -0.007689   0.000105  -0.000007   0.000010   0.057908
    25  P   -0.000807  -0.013464  -0.001487   0.004960   0.002858   0.024190
    26  O    0.000650  -0.043423  -0.000027   0.001727   0.001547  -0.008762
    27  O   -0.000097   0.000621   0.000204   0.000408   0.000035  -0.001470
    28  H    0.000065  -0.000147  -0.000035   0.000014  -0.000003  -0.001308
    29  O   -0.000005  -0.000792  -0.000240  -0.000138  -0.000043   0.000136
    30  H   -0.000001   0.001187  -0.000006   0.000040   0.000001  -0.000035
    31  O   -0.001254   0.000597  -0.006537  -0.001727   0.001145  -0.011076
    32  H    0.001650   0.013667   0.003332  -0.000672  -0.000346  -0.010408
    33  O   -0.000010  -0.001948  -0.000000  -0.000019  -0.000005   0.016442
    34  H    0.000003   0.001022  -0.000004   0.000001   0.000000  -0.009050
    35  H   -0.000012  -0.001172   0.000001   0.000001   0.000001  -0.005005
    36  O   -0.009849  -0.004699  -0.000250  -0.000025   0.000120   0.011926
    37  H   -0.001763  -0.000196  -0.000023   0.000000  -0.000004  -0.001785
    38  H   -0.003878  -0.002547   0.000127   0.000028  -0.000056  -0.001393
    39  O    0.000012   0.004008   0.000002   0.000316   0.000028   0.005268
    40  H   -0.000001  -0.000639   0.000001   0.000008   0.000000   0.000309
    41  H   -0.000026  -0.005232   0.000022  -0.000642  -0.000033  -0.004030
              13         14         15         16         17         18
     1  C   -0.348757   0.014064  -0.014340   0.340453   0.000865  -0.039175
     2  C    0.126594  -0.032135   0.002881  -0.385752   0.002598   0.019738
     3  C   -0.153180   0.003862   0.016684  -0.042847  -0.001544   0.008393
     4  N   -0.002430  -0.005264   0.004092  -0.012757  -0.000276   0.002680
     5  H    0.002617  -0.000009   0.000026  -0.001282  -0.000000   0.000127
     6  H    0.000865   0.001225   0.000136   0.002982  -0.000078   0.002038
     7  H   -0.006253   0.000308   0.001541   0.001231  -0.000070  -0.000010
     8  C   -0.021766  -0.000431   0.000596   0.001199   0.000057  -0.000027
     9  H   -0.001058   0.000004   0.000011   0.000607  -0.000000   0.000000
    10  H    0.001086  -0.000002   0.000001  -0.000045  -0.000000   0.000001
    11  H   -0.000622  -0.000013   0.000002  -0.000071  -0.000000   0.000001
    12  N    0.081295  -0.050497  -0.052475   0.008122  -0.000927  -0.004215
    13  C    6.337095   0.457350   0.442811  -0.255120  -0.022312  -0.026892
    14  H    0.457350   0.500032  -0.022315  -0.055578  -0.005052  -0.002988
    15  H    0.442811  -0.022315   0.412105  -0.035634  -0.001942   0.002868
    16  C   -0.255120  -0.055578  -0.035634   5.947413   0.421796   0.441290
    17  H   -0.022312  -0.005052  -0.001942   0.421796   0.511062  -0.026528
    18  H   -0.026892  -0.002988   0.002868   0.441290  -0.026528   0.448475
    19  C   -0.096496  -0.001476  -0.016441  -0.328429  -0.043337  -0.034603
    20  H    0.008322  -0.000092   0.000046  -0.040806  -0.006589  -0.003173
    21  H   -0.007402  -0.000264  -0.000524   0.010087  -0.004125   0.003420
    22  C   -0.003743   0.010937   0.014459   0.217757   0.007565  -0.006488
    23  O   -0.023101  -0.000274  -0.004903   0.009557  -0.001865   0.001177
    24  O    0.014402  -0.000410  -0.001108  -0.031213  -0.000183  -0.003474
    25  P    0.000374   0.000051   0.000109  -0.005647   0.000072   0.000204
    26  O    0.001713   0.000011   0.000007   0.001507  -0.000006   0.000138
    27  O   -0.000445  -0.000001  -0.000007  -0.004768  -0.000004  -0.000014
    28  H    0.003966   0.000002   0.000011   0.007282  -0.000011   0.000356
    29  O   -0.000315  -0.000000   0.000000  -0.000036   0.000000   0.000001
    30  H   -0.000028  -0.000000   0.000000   0.000008   0.000000   0.000000
    31  O   -0.002584  -0.000003  -0.000060  -0.002501  -0.000008  -0.000025
    32  H   -0.006434  -0.000001   0.000074   0.000819   0.000003  -0.000014
    33  O    0.003564  -0.000473  -0.000367  -0.033216   0.000921   0.001249
    34  H    0.004388   0.000072   0.000046   0.013045  -0.000001   0.002141
    35  H   -0.000261   0.000025   0.000002  -0.005284   0.000035  -0.000469
    36  O   -0.014982   0.000213   0.002937   0.024415   0.000119  -0.000249
    37  H    0.006804  -0.000032   0.000340  -0.006827   0.000011   0.000023
    38  H    0.001290   0.000155  -0.000169  -0.004145  -0.000085   0.000192
    39  O   -0.005207   0.000009   0.000006   0.012013  -0.000007   0.000223
    40  H    0.000399  -0.000000  -0.000000  -0.000953   0.000000   0.000012
    41  H    0.000912  -0.000005  -0.000004  -0.002939   0.000002  -0.000057
              19         20         21         22         23         24
     1  C   -0.484413   0.002862   0.000599   0.645728  -0.042986   0.057167
     2  C    0.755442  -0.002429  -0.006250  -0.820380   0.007662  -0.046915
     3  C    0.190404   0.000454  -0.003652  -0.382317   0.006292   0.057579
     4  N   -0.014427  -0.000104   0.000407   0.081899   0.053460  -0.032567
     5  H    0.001033  -0.000001   0.000000  -0.002129   0.000403  -0.000581
     6  H   -0.017640   0.000020   0.000025   0.018370   0.000068  -0.001154
     7  H    0.000799   0.000008   0.000082   0.010510  -0.019195  -0.001028
     8  C   -0.024769   0.000031   0.000011   0.053332  -0.010934  -0.007689
     9  H    0.000158  -0.000000   0.000001  -0.000540  -0.002383   0.000105
    10  H    0.000163  -0.000000   0.000000  -0.000877   0.000333  -0.000007
    11  H    0.000126  -0.000000  -0.000000  -0.000247   0.000604   0.000010
    12  N   -0.019647   0.003003   0.003766  -0.069230   0.033500   0.057908
    13  C   -0.096496   0.008322  -0.007402  -0.003743  -0.023101   0.014402
    14  H   -0.001476  -0.000092  -0.000264   0.010937  -0.000274  -0.000410
    15  H   -0.016441   0.000046  -0.000524   0.014459  -0.004903  -0.001108
    16  C   -0.328429  -0.040806   0.010087   0.217757   0.009557  -0.031213
    17  H   -0.043337  -0.006589  -0.004125   0.007565  -0.001865  -0.000183
    18  H   -0.034603  -0.003173   0.003420  -0.006488   0.001177  -0.003474
    19  C    8.014260   0.478587   0.441636  -2.186710  -0.036025  -0.058004
    20  H    0.478587   0.486705  -0.028407  -0.102753   0.013240  -0.000985
    21  H    0.441636  -0.028407   0.483658  -0.089451  -0.000405   0.004797
    22  C   -2.186710  -0.102753  -0.089451   7.677301  -0.002880   0.246735
    23  O   -0.036025   0.013240  -0.000405  -0.002880   8.812746  -0.013164
    24  O   -0.058004  -0.000985   0.004797   0.246735  -0.013164   8.263941
    25  P   -0.015436   0.000090  -0.000230  -0.081530   0.060757   0.077032
    26  O    0.000692   0.000004   0.000018   0.041943  -0.015019  -0.023836
    27  O    0.017380   0.000030  -0.000083  -0.011060  -0.016358  -0.010962
    28  H   -0.002998  -0.000222   0.000253   0.029562   0.004243   0.044227
    29  O   -0.002019   0.000001  -0.000001  -0.008992   0.006024   0.006443
    30  H   -0.000530  -0.000000   0.000000  -0.002299   0.000502   0.000521
    31  O   -0.021309   0.000076   0.000050  -0.036973   0.039462  -0.005723
    32  H    0.049509  -0.000141  -0.000002   0.015975  -0.046539  -0.010934
    33  O    0.052395   0.000074  -0.000211  -0.067012  -0.001323   0.005174
    34  H   -0.027184  -0.000066   0.000044   0.061682  -0.002874   0.011093
    35  H    0.012615  -0.000015  -0.000019  -0.019977   0.000001   0.004383
    36  O   -0.034261   0.001010   0.000791   0.011863  -0.015123  -0.000229
    37  H    0.005256  -0.000070   0.000221  -0.002253   0.000756   0.000174
    38  H    0.009626  -0.000810  -0.006060   0.021722  -0.019907   0.003236
    39  O   -0.011807   0.000005   0.000006   0.027209  -0.000233  -0.008412
    40  H    0.001125  -0.000000  -0.000000  -0.003287  -0.000029   0.000448
    41  H    0.003457  -0.000002  -0.000002  -0.012227   0.000003   0.004105
              25         26         27         28         29         30
     1  C   -0.247449   0.097168   0.006698  -0.018607  -0.000988  -0.001830
     2  C    0.138298  -0.004810  -0.013880   0.015975  -0.002465   0.000406
     3  C    0.048080  -0.040541  -0.000733  -0.005476   0.003358   0.000358
     4  N    0.012025  -0.033481   0.005746  -0.000381  -0.001193   0.000148
     5  H    0.005430  -0.008844   0.000071   0.000168  -0.000014   0.000003
     6  H    0.000401   0.000209   0.000069   0.000007   0.000004   0.000000
     7  H   -0.000807   0.000650  -0.000097   0.000065  -0.000005  -0.000001
     8  C   -0.013464  -0.043423   0.000621  -0.000147  -0.000792   0.001187
     9  H   -0.001487  -0.000027   0.000204  -0.000035  -0.000240  -0.000006
    10  H    0.004960   0.001727   0.000408   0.000014  -0.000138   0.000040
    11  H    0.002858   0.001547   0.000035  -0.000003  -0.000043   0.000001
    12  N    0.024190  -0.008762  -0.001470  -0.001308   0.000136  -0.000035
    13  C    0.000374   0.001713  -0.000445   0.003966  -0.000315  -0.000028
    14  H    0.000051   0.000011  -0.000001   0.000002  -0.000000  -0.000000
    15  H    0.000109   0.000007  -0.000007   0.000011   0.000000   0.000000
    16  C   -0.005647   0.001507  -0.004768   0.007282  -0.000036   0.000008
    17  H    0.000072  -0.000006  -0.000004  -0.000011   0.000000   0.000000
    18  H    0.000204   0.000138  -0.000014   0.000356   0.000001   0.000000
    19  C   -0.015436   0.000692   0.017380  -0.002998  -0.002019  -0.000530
    20  H    0.000090   0.000004   0.000030  -0.000222   0.000001  -0.000000
    21  H   -0.000230   0.000018  -0.000083   0.000253  -0.000001   0.000000
    22  C   -0.081530   0.041943  -0.011060   0.029562  -0.008992  -0.002299
    23  O    0.060757  -0.015019  -0.016358   0.004243   0.006024   0.000502
    24  O    0.077032  -0.023836  -0.010962   0.044227   0.006443   0.000521
    25  P   12.550190   0.432780   0.279532   0.002591   0.212942   0.003836
    26  O    0.432780   8.313168  -0.035152   0.009817  -0.030458  -0.007519
    27  O    0.279532  -0.035152   8.231591   0.194955   0.000609  -0.004359
    28  H    0.002591   0.009817   0.194955   0.242314  -0.006212  -0.000978
    29  O    0.212942  -0.030458   0.000609  -0.006212   8.018712   0.248599
    30  H    0.003836  -0.007519  -0.004359  -0.000978   0.248599   0.458227
    31  O    0.322911  -0.028601  -0.005869  -0.008546   0.024403  -0.005530
    32  H   -0.014159  -0.000402  -0.003336   0.002727  -0.005597  -0.000390
    33  O   -0.008835  -0.006945   0.005403  -0.010825  -0.000051   0.000003
    34  H   -0.004100   0.001644  -0.004542   0.009731  -0.000116   0.000004
    35  H    0.001861   0.001421  -0.000148  -0.000175  -0.000006  -0.000002
    36  O   -0.000548  -0.000004  -0.000063   0.000064   0.000008  -0.000001
    37  H    0.000349  -0.000008   0.000005  -0.000005  -0.000000   0.000000
    38  H    0.002962  -0.000273  -0.000008  -0.000118   0.000025   0.000001
    39  O   -0.018016  -0.027710   0.005903   0.002324  -0.001006   0.000072
    40  H    0.005836   0.001512  -0.000830  -0.000325  -0.000027  -0.000005
    41  H    0.031356   0.057674  -0.011183  -0.001960   0.000881  -0.000008
              31         32         33         34         35         36
     1  C   -0.031989   0.021732   0.110500  -0.020000  -0.066156  -0.006001
     2  C    0.026749  -0.014409  -0.048290   0.005854   0.085145  -0.000456
     3  C   -0.004741   0.025925  -0.000239  -0.004645   0.007132  -0.021658
     4  N    0.025740   0.003279  -0.015371   0.001793   0.001926   0.007524
     5  H    0.000228  -0.000259  -0.004793   0.000502   0.001452  -0.000007
     6  H   -0.000040  -0.000051  -0.023172   0.002305  -0.001576   0.000026
     7  H   -0.001254   0.001650  -0.000010   0.000003  -0.000012  -0.009849
     8  C    0.000597   0.013667  -0.001948   0.001022  -0.001172  -0.004699
     9  H   -0.006537   0.003332  -0.000000  -0.000004   0.000001  -0.000250
    10  H   -0.001727  -0.000672  -0.000019   0.000001   0.000001  -0.000025
    11  H    0.001145  -0.000346  -0.000005   0.000000   0.000001   0.000120
    12  N   -0.011076  -0.010408   0.016442  -0.009050  -0.005005   0.011926
    13  C   -0.002584  -0.006434   0.003564   0.004388  -0.000261  -0.014982
    14  H   -0.000003  -0.000001  -0.000473   0.000072   0.000025   0.000213
    15  H   -0.000060   0.000074  -0.000367   0.000046   0.000002   0.002937
    16  C   -0.002501   0.000819  -0.033216   0.013045  -0.005284   0.024415
    17  H   -0.000008   0.000003   0.000921  -0.000001   0.000035   0.000119
    18  H   -0.000025  -0.000014   0.001249   0.002141  -0.000469  -0.000249
    19  C   -0.021309   0.049509   0.052395  -0.027184   0.012615  -0.034261
    20  H    0.000076  -0.000141   0.000074  -0.000066  -0.000015   0.001010
    21  H    0.000050  -0.000002  -0.000211   0.000044  -0.000019   0.000791
    22  C   -0.036973   0.015975  -0.067012   0.061682  -0.019977   0.011863
    23  O    0.039462  -0.046539  -0.001323  -0.002874   0.000001  -0.015123
    24  O   -0.005723  -0.010934   0.005174   0.011093   0.004383  -0.000229
    25  P    0.322911  -0.014159  -0.008835  -0.004100   0.001861  -0.000548
    26  O   -0.028601  -0.000402  -0.006945   0.001644   0.001421  -0.000004
    27  O   -0.005869  -0.003336   0.005403  -0.004542  -0.000148  -0.000063
    28  H   -0.008546   0.002727  -0.010825   0.009731  -0.000175   0.000064
    29  O    0.024403  -0.005597  -0.000051  -0.000116  -0.000006   0.000008
    30  H   -0.005530  -0.000390   0.000003   0.000004  -0.000002  -0.000001
    31  O    8.239343   0.155085   0.000428  -0.000055  -0.000075   0.001158
    32  H    0.155085   0.338447   0.000168   0.000082   0.000061  -0.007803
    33  O    0.000428   0.000168   8.018382   0.305973   0.305285  -0.000013
    34  H   -0.000055   0.000082   0.305973   0.369423  -0.030379   0.000043
    35  H   -0.000075   0.000061   0.305285  -0.030379   0.370772  -0.000004
    36  O    0.001158  -0.007803  -0.000013   0.000043  -0.000004   8.254644
    37  H   -0.000025  -0.000109  -0.000000   0.000000  -0.000000   0.250166
    38  H   -0.002638   0.005016   0.000049  -0.000127   0.000008   0.218397
    39  O   -0.001121  -0.000317   0.032517   0.005369  -0.054686   0.000002
    40  H    0.000036   0.000022  -0.007100  -0.000486   0.003657  -0.000000
    41  H    0.002822   0.000594  -0.003526  -0.002360   0.009128   0.000001
              37         38         39         40         41
     1  C    0.000969  -0.003336   0.196157  -0.040268  -0.062018
     2  C   -0.001330  -0.005837  -0.210049   0.032499   0.072466
     3  C    0.011046   0.038900  -0.011294   0.002218   0.010983
     4  N   -0.000474  -0.012821  -0.009507   0.001469   0.005180
     5  H   -0.000000   0.000027  -0.000715   0.001076   0.001336
     6  H   -0.000000   0.000002   0.004189  -0.000193  -0.001281
     7  H   -0.001763  -0.003878   0.000012  -0.000001  -0.000026
     8  C   -0.000196  -0.002547   0.004008  -0.000639  -0.005232
     9  H   -0.000023   0.000127   0.000002   0.000001   0.000022
    10  H    0.000000   0.000028   0.000316   0.000008  -0.000642
    11  H   -0.000004  -0.000056   0.000028   0.000000  -0.000033
    12  N   -0.001785  -0.001393   0.005268   0.000309  -0.004030
    13  C    0.006804   0.001290  -0.005207   0.000399   0.000912
    14  H   -0.000032   0.000155   0.000009  -0.000000  -0.000005
    15  H    0.000340  -0.000169   0.000006  -0.000000  -0.000004
    16  C   -0.006827  -0.004145   0.012013  -0.000953  -0.002939
    17  H    0.000011  -0.000085  -0.000007   0.000000   0.000002
    18  H    0.000023   0.000192   0.000223   0.000012  -0.000057
    19  C    0.005256   0.009626  -0.011807   0.001125   0.003457
    20  H   -0.000070  -0.000810   0.000005  -0.000000  -0.000002
    21  H    0.000221  -0.006060   0.000006  -0.000000  -0.000002
    22  C   -0.002253   0.021722   0.027209  -0.003287  -0.012227
    23  O    0.000756  -0.019907  -0.000233  -0.000029   0.000003
    24  O    0.000174   0.003236  -0.008412   0.000448   0.004105
    25  P    0.000349   0.002962  -0.018016   0.005836   0.031356
    26  O   -0.000008  -0.000273  -0.027710   0.001512   0.057674
    27  O    0.000005  -0.000008   0.005903  -0.000830  -0.011183
    28  H   -0.000005  -0.000118   0.002324  -0.000325  -0.001960
    29  O   -0.000000   0.000025  -0.001006  -0.000027   0.000881
    30  H    0.000000   0.000001   0.000072  -0.000005  -0.000008
    31  O   -0.000025  -0.002638  -0.001121   0.000036   0.002822
    32  H   -0.000109   0.005016  -0.000317   0.000022   0.000594
    33  O   -0.000000   0.000049   0.032517  -0.007100  -0.003526
    34  H    0.000000  -0.000127   0.005369  -0.000486  -0.002360
    35  H   -0.000000   0.000008  -0.054686   0.003657   0.009128
    36  O    0.250166   0.218397   0.000002  -0.000000   0.000001
    37  H    0.442234  -0.004690   0.000000   0.000000   0.000000
    38  H   -0.004690   0.391653  -0.000008   0.000000   0.000005
    39  O    0.000000  -0.000008   8.186351   0.284165   0.217710
    40  H    0.000000   0.000000   0.284165   0.431059  -0.010369
    41  H    0.000000   0.000005   0.217710  -0.010369   0.402903
 Mulliken charges:
               1
     1  C   -0.511308
     2  C   -0.232555
     3  C   -0.301916
     4  N    0.417917
     5  H    0.233025
     6  H    0.243729
     7  H    0.280813
     8  C   -0.520156
     9  H    0.224694
    10  H    0.217265
    11  H    0.186565
    12  N    0.348649
    13  C   -0.496458
    14  H    0.188996
    15  H    0.248497
    16  C   -0.205732
    17  H    0.169843
    18  H    0.213653
    19  C   -0.556704
    20  H    0.192098
    21  H    0.197215
    22  C    0.718807
    23  O   -0.775269
    24  O   -0.600903
    25  P    1.189632
    26  O   -0.649528
    27  O   -0.623887
    28  H    0.487675
    29  O   -0.461432
    30  H    0.309605
    31  O   -0.661223
    32  H    0.484153
    33  O   -0.624782
    34  H    0.309730
    35  H    0.380509
    36  O   -0.669204
    37  H    0.301241
    38  H    0.375485
    39  O   -0.623767
    40  H    0.298661
    41  H    0.296365
 Sum of Mulliken charges =  -0.00000
 Mulliken charges with hydrogens summed into heavy atoms:
               1
     1  C   -0.278282
     2  C    0.011174
     3  C   -0.021103
     4  N    0.417917
     8  C    0.108368
    12  N    0.348649
    13  C   -0.058965
    16  C    0.177764
    19  C   -0.167391
    22  C    0.718807
    23  O   -0.775269
    24  O   -0.600903
    25  P    1.189632
    26  O   -0.649528
    27  O   -0.136213
    29  O   -0.151826
    31  O   -0.177070
    33  O    0.065457
    36  O    0.007522
    39  O   -0.028742
         Mulliken charges condensed to fragments:
      1     -0.119233
      2      0.074995
      3      0.065457
      4      0.007522
      5     -0.028742
 Electronic spatial extent (au):  <R**2>=         175413.2277
 Charge=             -0.0000 electrons
 Dipole moment (field-independent basis, Debye):
    X=             -0.4420    Y=              5.4023    Z=              2.8148  Tot=              6.1076
 Quadrupole moment (field-independent basis, Debye-Ang):
   XX=           -130.9060   YY=            -25.5704   ZZ=            -68.5728
   XY=             43.5026   XZ=             21.4426   YZ=             81.6359
 Traceless Quadrupole moment (field-independent basis, Debye-Ang):
   XX=            -55.8896   YY=             49.4460   ZZ=              6.4436
   XY=             43.5026   XZ=             21.4426   YZ=             81.6359
 Octapole moment (field-independent basis, Debye-Ang**2):
  XXX=          -3612.0869  YYY=          -2245.9301  ZZZ=          -2727.6582  XYY=           -366.4342
  XXY=           -834.1051  XXZ=          -1039.9396  XZZ=           -707.4636  YZZ=           -137.2912
  YYZ=             16.2260  XYZ=            687.7773
 Hexadecapole moment (field-independent basis, Debye-Ang**3):
 XXXX=         -69574.8534 YYYY=         -54845.3656 ZZZZ=         -60360.9897 XXXY=         -30928.9267
 XXXZ=         -33068.6493 YYYX=         -23115.4749 YYYZ=         -19868.1269 ZZZX=         -26575.1602
 ZZZY=         -21683.0111 XXYY=         -16443.6883 XXZZ=         -19626.8862 YYZZ=         -10135.5063
 XXYZ=          -5752.0025 YYXZ=          -1082.6259 ZZXY=          -2261.9305
 N-N= 2.139197484253D+03 E-N=-7.682830446348D+03  KE= 1.440545878409D+03
 No NMR shielding tensors so no spin-rotation constants.
[...]
      2      0.000000
      3      0.000000
      4     -0.000000
      5      0.000000
 Electronic spatial extent (au):  <R**2>=          15248.0868
 Charge=              0.0000 electrons
 Dipole moment (field-independent basis, Debye):
    X=              1.6085    Y=             -0.6145    Z=             -1.2087  Tot=              2.1038
 Quadrupole moment (field-independent basis, Debye-Ang):
   XX=             30.5167   YY=            -20.6227   ZZ=            -35.6376
   XY=             14.1892   XZ=              5.0802   YZ=            -21.3895
 Traceless Quadrupole moment (field-independent basis, Debye-Ang):
   XX=             39.0979   YY=            -12.0415   ZZ=            -27.0564
   XY=             14.1892   XZ=              5.0802   YZ=            -21.3895
 Octapole moment (field-independent basis, Debye-Ang**2):
  XXX=            418.0253  YYY=           -486.3983  ZZZ=           -757.9424  XYY=             44.0645
  XXY=            326.7721  XXZ=            199.8895  XZZ=           -184.9091  YZZ=           -508.5657
  YYZ=           -408.8299  XYZ=              4.7081
 Hexadecapole moment (field-independent basis, Debye-Ang**3):
 XXXX=           4791.7156 YYYY=          -9794.1025 ZZZZ=         -13953.3169 XXXY=           4752.1843
 XXXZ=           3082.3927 YYYX=          -1869.5240 YYYZ=          -7678.3624 ZZZX=          -6039.5358
 ZZZY=         -10094.1758 XXYY=           2729.5682 XXZZ=           -453.0312 YYZZ=          -7901.5244
 XXYZ=           1978.5314 YYXZ=          -1386.3941 ZZXY=          -2880.0903
 N-N= 9.061751859832D+00 E-N=-1.989699129490D+02  KE= 7.618005550632D+01
 No NMR shielding tensors so no spin-rotation constants.
 Leave Link  601 at Mon May 23 14:55:01 2022, MaxMem= 13421772800 cpu:               1.7 elap:               0.1
 (Enter /data0/home/wuhanyu/software/g16/l122.exe)
 CPIOFr:  IOpCl= 0 IRwI=-1 IRwCP=  731 ICalc=  9 LCPTot=      696779 Len1MO=     1831090 IndFrg=    19007679
 Counterpoise: doing calculation for fragment   5 using the basis set of the fragment.
 Leave Link  122 at Mon May 23 14:55:01 2022, MaxMem= 13421772800 cpu:               0.4 elap:               0.0
 (Enter /data0/home/wuhanyu/software/g16/l301.exe)
 Basis read from rwf:  (5D, 7F)
 No pseudopotential information found on rwf file.
    39 basis functions,    58 primitive gaussians,    41 cartesian basis functions
     5 alpha electrons        5 beta electrons
       nuclear repulsion energy         9.1242575124 Hartrees.
 IExCor= 4336 DFT=T Ex+Corr=M062X ExCW=0 ScaHFX=  0.540000
 ScaDFX=  1.000000  1.000000  1.000000  1.000000 ScalE2=  1.000000  1.000000
 IRadAn=      5 IRanWt=     -1 IRanGd=            0 ICorTp=0 IEmpDi=131
 NAtoms=   41 NActive=    3 NUniq=    3 SFac= 1.00D+00 NAtFMM=   60 NAOKFM=F Big=F
 Integral buffers will be    131072 words long.
 Raffenetti 2 integral format.
 Two-electron integral symmetry is turned off.
 R6Disp:  Grimme-D3 Dispersion energy=       -0.0000000075 Hartrees.
 Nuclear repulsion after empirical dispersion term =        9.1242575049 Hartrees.
 No density basis found on file   718.
 Leave Link  301 at Mon May 23 14:55:01 2022, MaxMem= 13421772800 cpu:               1.3 elap:               0.1
 (Enter /data0/home/wuhanyu/software/g16/l302.exe)
 NPDir=0 NMtPBC=     1 NCelOv=     1 NCel=       1 NClECP=     1 NCelD=      1
         NCelK=      1 NCelE2=     1 NClLst=     1 CellRange=     0.0.
 One-electron integrals computed using PRISM.
 NBasis=    39 RedAO= T EigKep=  3.01D-03  NBF=    39
 NBsUse=    39 1.00D-06 EigRej= -1.00D+00 NBFU=    39
 Precomputing XC quadrature grid using
 IXCGrd= 4 IRadAn=           5 IRanWt=          -1 IRanGd=           0 AccXCQ= 0.00D+00.
 Generated NRdTot=       0 NPtTot=           0 NUsed=           0 NTot=          32
 NSgBfM=    41    41    41    41    41 MxSgAt=     3 MxSgA2=     3.
 Leave Link  302 at Mon May 23 14:55:01 2022, MaxMem= 13421772800 cpu:               2.4 elap:               0.1
 (Enter /data0/home/wuhanyu/software/g16/l303.exe)
 DipDrv:  MaxL=1.
 Leave Link  303 at Mon May 23 14:55:01 2022, MaxMem= 13421772800 cpu:               0.4 elap:               0.0
 (Enter /data0/home/wuhanyu/software/g16/l401.exe)
 ExpMin= 8.45D-02 ExpMax= 8.59D+03 ExpMxC= 1.30D+03 IAcc=3 IRadAn=         5 AccDes= 0.00D+00
 Harris functional with IExCor= 1009 and IRadAn=       5 diagonalized for initial guess.
 HarFok:  IExCor= 1009 AccDes= 0.00D+00 IRadAn=         5 IDoV= 1 UseB2=F ITyADJ=14
 ICtDFT=  3500011 ScaDFX=  1.000000  1.000000  1.000000  1.000000
 FoFCou: FMM=F IPFlag=           0 FMFlag=      100000 FMFlg1=           0
         NFxFlg=           0 DoJE=T BraDBF=F KetDBF=T FulRan=T
         wScrn=  0.000000 ICntrl=       500 IOpCl=  0 I1Cent=   200000004 NGrid=           0
         NMat0=    1 NMatS0=      1 NMatT0=    0 NMatD0=    1 NMtDS0=    0 NMtDT0=    0
 Symmetry not used in FoFCou.
 Harris En= -76.4167491470890    
 JPrj=0 DoOrth=F DoCkMO=F.
 Leave Link  401 at Mon May 23 14:55:02 2022, MaxMem= 13421772800 cpu:               2.9 elap:               0.1
 (Enter /data0/home/wuhanyu/software/g16/l502.exe)
 Keep R1 ints in memory in canonical form, NReq=21045466.
 FoFCou: FMM=F IPFlag=           0 FMFlag=           0 FMFlg1=           0
         NFxFlg=           0 DoJE=F BraDBF=F KetDBF=F FulRan=T
         wScrn=  0.000000 ICntrl=       600 IOpCl=  0 I1Cent=           0 NGrid=           0
         NMat0=    1 NMatS0=    780 NMatT0=    0 NMatD0=    1 NMtDS0=    0 NMtDT0=    0
 Symmetry not used in FoFCou.
 Two-electron integral symmetry not used.
 Closed shell SCF:
 Using DIIS extrapolation, IDIIS=  1040.
 NGot= 13421772800 LenX= 13421462216 LenY= 13421460094
 Requested convergence on RMS density matrix=1.00D-08 within 128 cycles.
 Requested convergence on MAX density matrix=1.00D-06.
 Requested convergence on             energy=1.00D-06.
 No special actions if energy rises.
 Integral accuracy reduced to 1.0D-05 until final iterations.

 Cycle   1  Pass 0  IDiag  1:
 E= -76.3462015995644    
 DIIS: error= 7.04D-02 at cycle   1 NSaved=   1.
 NSaved= 1 IEnMin= 1 EnMin= -76.3462015995644     IErMin= 1 ErrMin= 7.04D-02
 ErrMax= 7.04D-02  0.00D+00 EMaxC= 1.00D-01 BMatC= 1.21D-01 BMatP= 1.21D-01
 IDIUse=3 WtCom= 2.96D-01 WtEn= 7.04D-01
 Coeff-Com:  0.100D+01
 Coeff-En:   0.100D+01
 Coeff:      0.100D+01
 Gap=     0.325 Goal=   None    Shift=    0.000
 GapD=    0.325 DampG=1.000 DampE=0.500 DampFc=0.5000 IDamp=-1.
 Damping current iteration by 5.00D-01
 RMSDP=7.92D-03 MaxDP=1.01D-01              OVMax= 1.68D-01

 Cycle   2  Pass 0  IDiag  1:
 E= -76.3777999574491     Delta-E=       -0.031598357885 Rises=F Damp=T
 DIIS: error= 1.15D-02 at cycle   2 NSaved=   2.
 NSaved= 2 IEnMin= 2 EnMin= -76.3777999574491     IErMin= 2 ErrMin= 1.15D-02
 ErrMax= 1.15D-02  0.00D+00 EMaxC= 1.00D-01 BMatC= 4.80D-03 BMatP= 1.21D-01
 IDIUse=3 WtCom= 8.85D-01 WtEn= 1.15D-01
 Coeff-Com:  0.812D-01 0.919D+00
 Coeff-En:   0.186D+00 0.814D+00
 Coeff:      0.932D-01 0.907D+00
 Gap=     0.458 Goal=   None    Shift=    0.000
 RMSDP=9.37D-04 MaxDP=1.39D-02 DE=-3.16D-02 OVMax= 1.00D-01

 Cycle   3  Pass 0  IDiag  1:
 E= -76.4217779438817     Delta-E=       -0.043977986433 Rises=F Damp=F
 DIIS: error= 2.16D-03 at cycle   3 NSaved=   3.
 NSaved= 3 IEnMin= 3 EnMin= -76.4217779438817     IErMin= 3 ErrMin= 2.16D-03
 ErrMax= 2.16D-03  0.00D+00 EMaxC= 1.00D-01 BMatC= 9.03D-05 BMatP= 4.80D-03
 IDIUse=3 WtCom= 9.78D-01 WtEn= 2.16D-02
 Coeff-Com: -0.199D-01 0.392D-01 0.981D+00
 Coeff-En:   0.000D+00 0.000D+00 0.100D+01
 Coeff:     -0.195D-01 0.383D-01 0.981D+00
 Gap=     0.462 Goal=   None    Shift=    0.000
 RMSDP=1.14D-04 MaxDP=1.02D-03 DE=-4.40D-02 OVMax= 3.29D-03

 Cycle   4  Pass 0  IDiag  1:
 E= -76.4218548841874     Delta-E=       -0.000076940306 Rises=F Damp=F
 DIIS: error= 4.09D-04 at cycle   4 NSaved=   4.
 NSaved= 4 IEnMin= 4 EnMin= -76.4218548841874     IErMin= 4 ErrMin= 4.09D-04
 ErrMax= 4.09D-04  0.00D+00 EMaxC= 1.00D-01 BMatC= 3.24D-06 BMatP= 9.03D-05
 IDIUse=3 WtCom= 9.96D-01 WtEn= 4.09D-03
 Coeff-Com: -0.186D-02-0.222D-02 0.162D+00 0.843D+00
 Coeff-En:   0.000D+00 0.000D+00 0.000D+00 0.100D+01
 Coeff:     -0.185D-02-0.221D-02 0.161D+00 0.843D+00
 Gap=     0.463 Goal=   None    Shift=    0.000
 RMSDP=2.20D-05 MaxDP=3.52D-04 DE=-7.69D-05 OVMax= 5.30D-04

 Cycle   5  Pass 0  IDiag  1:
 E= -76.4218568819274     Delta-E=       -0.000001997740 Rises=F Damp=F
 DIIS: error= 8.77D-05 at cycle   5 NSaved=   5.
 NSaved= 5 IEnMin= 5 EnMin= -76.4218568819274     IErMin= 5 ErrMin= 8.77D-05
 ErrMax= 8.77D-05  0.00D+00 EMaxC= 1.00D-01 BMatC= 8.12D-08 BMatP= 3.24D-06
 IDIUse=1 WtCom= 1.00D+00 WtEn= 0.00D+00
 Coeff-Com:  0.117D-02-0.178D-02-0.363D-01-0.636D-01 0.110D+01
 Coeff:      0.117D-02-0.178D-02-0.363D-01-0.636D-01 0.110D+01
 Gap=     0.463 Goal=   None    Shift=    0.000
 RMSDP=8.87D-06 MaxDP=1.02D-04 DE=-2.00D-06 OVMax= 1.99D-04

 Initial convergence to 1.0D-05 achieved.  Increase integral accuracy.
 Cycle   6  Pass 1  IDiag  1:
 E= -76.4218595964223     Delta-E=       -0.000002714495 Rises=F Damp=F
 DIIS: error= 3.12D-05 at cycle   1 NSaved=   1.
 NSaved= 1 IEnMin= 1 EnMin= -76.4218595964223     IErMin= 1 ErrMin= 3.12D-05
 ErrMax= 3.12D-05  0.00D+00 EMaxC= 1.00D-01 BMatC= 1.66D-08 BMatP= 1.66D-08
 IDIUse=1 WtCom= 1.00D+00 WtEn= 0.00D+00
 Coeff-Com:  0.100D+01
 Coeff:      0.100D+01
 Gap=     0.463 Goal=   None    Shift=    0.000
 RMSDP=8.87D-06 MaxDP=1.02D-04 DE=-2.71D-06 OVMax= 3.35D-05

 Cycle   7  Pass 1  IDiag  1:
 E= -76.4218596094444     Delta-E=       -0.000000013022 Rises=F Damp=F
 DIIS: error= 8.18D-06 at cycle   2 NSaved=   2.
 NSaved= 2 IEnMin= 2 EnMin= -76.4218596094444     IErMin= 2 ErrMin= 8.18D-06
 ErrMax= 8.18D-06  0.00D+00 EMaxC= 1.00D-01 BMatC= 9.79D-10 BMatP= 1.66D-08
 IDIUse=1 WtCom= 1.00D+00 WtEn= 0.00D+00
 Coeff-Com:  0.234D-01 0.977D+00
 Coeff:      0.234D-01 0.977D+00
 Gap=     0.463 Goal=   None    Shift=    0.000
 RMSDP=6.90D-07 MaxDP=1.02D-05 DE=-1.30D-08 OVMax= 1.90D-05

 Cycle   8  Pass 1  IDiag  1:
 E= -76.4218596095740     Delta-E=       -0.000000000130 Rises=F Damp=F
 DIIS: error= 6.51D-06 at cycle   3 NSaved=   3.
 NSaved= 3 IEnMin= 3 EnMin= -76.4218596095740     IErMin= 3 ErrMin= 6.51D-06
 ErrMax= 6.51D-06  0.00D+00 EMaxC= 1.00D-01 BMatC= 1.03D-09 BMatP= 9.79D-10
 IDIUse=1 WtCom= 1.00D+00 WtEn= 0.00D+00
 Coeff-Com: -0.483D-01 0.527D+00 0.522D+00
 Coeff:     -0.483D-01 0.527D+00 0.522D+00
 Gap=     0.463 Goal=   None    Shift=    0.000
 RMSDP=3.56D-07 MaxDP=5.13D-06 DE=-1.30D-10 OVMax= 7.72D-06

 Cycle   9  Pass 1  IDiag  1:
 E= -76.4218596102473     Delta-E=       -0.000000000673 Rises=F Damp=F
 DIIS: error= 4.98D-07 at cycle   4 NSaved=   4.
 NSaved= 4 IEnMin= 4 EnMin= -76.4218596102473     IErMin= 4 ErrMin= 4.98D-07
 ErrMax= 4.98D-07  0.00D+00 EMaxC= 1.00D-01 BMatC= 2.62D-12 BMatP= 9.79D-10
 IDIUse=1 WtCom= 1.00D+00 WtEn= 0.00D+00
 Coeff-Com:  0.600D-02-0.100D+00-0.619D-01 0.116D+01
 Coeff:      0.600D-02-0.100D+00-0.619D-01 0.116D+01
 Gap=     0.463 Goal=   None    Shift=    0.000
 RMSDP=7.54D-08 MaxDP=6.24D-07 DE=-6.73D-10 OVMax= 1.77D-06

 Cycle  10  Pass 1  IDiag  1:
 E= -76.4218596102533     Delta-E=       -0.000000000006 Rises=F Damp=F
 DIIS: error= 5.41D-08 at cycle   5 NSaved=   5.
 NSaved= 5 IEnMin= 5 EnMin= -76.4218596102533     IErMin= 5 ErrMin= 5.41D-08
 ErrMax= 5.41D-08  0.00D+00 EMaxC= 1.00D-01 BMatC= 7.92D-14 BMatP= 2.62D-12
 IDIUse=1 WtCom= 1.00D+00 WtEn= 0.00D+00
 Coeff-Com:  0.166D-02-0.201D-01-0.205D-01 0.316D-01 0.101D+01
 Coeff:      0.166D-02-0.201D-01-0.205D-01 0.316D-01 0.101D+01
 Gap=     0.463 Goal=   None    Shift=    0.000
 RMSDP=1.66D-08 MaxDP=1.65D-07 DE=-6.00D-12 OVMax= 3.28D-07

 Cycle  11  Pass 1  IDiag  1:
 E= -76.4218596102535     Delta-E=       -0.000000000000 Rises=F Damp=F
 DIIS: error= 9.00D-09 at cycle   6 NSaved=   6.
 NSaved= 6 IEnMin= 6 EnMin= -76.4218596102535     IErMin= 6 ErrMin= 9.00D-09
 ErrMax= 9.00D-09  0.00D+00 EMaxC= 1.00D-01 BMatC= 4.40D-15 BMatP= 7.92D-14
 IDIUse=1 WtCom= 1.00D+00 WtEn= 0.00D+00
 Coeff-Com: -0.170D-03 0.334D-02 0.129D-02-0.534D-01 0.922D-01 0.957D+00
 Coeff:     -0.170D-03 0.334D-02 0.129D-02-0.534D-01 0.922D-01 0.957D+00
 Gap=     0.463 Goal=   None    Shift=    0.000
 RMSDP=3.19D-09 MaxDP=3.54D-08 DE=-1.14D-13 OVMax= 6.67D-08

 SCF Done:  E(RM062X) =  -76.4218596103     A.U. after   11 cycles
            NFock= 11  Conv=0.32D-08     -V/T= 2.0029
 KE= 7.620368105210D+01 PE=-1.991028629700D+02 EE= 3.735306480279D+01
 Leave Link  502 at Mon May 23 14:55:02 2022, MaxMem= 13421772800 cpu:               8.6 elap:               0.4
 (Enter /data0/home/wuhanyu/software/g16/l601.exe)
 Copying SCF densities to generalized density rwf, IOpCl= 0 IROHF=0.

 **********************************************************************

            Population analysis using the SCF density.

 **********************************************************************

 Alpha  occ. eigenvalues --  -19.62572  -1.13451  -0.60833  -0.47550  -0.40005
 Alpha virt. eigenvalues --    0.06312   0.13360   0.17391   0.17944   0.18934
 Alpha virt. eigenvalues --    0.23282   0.51279   0.53600   0.97894   1.00178
 Alpha virt. eigenvalues --    1.06035   1.18391   1.20010   1.32384   1.33774
 Alpha virt. eigenvalues --    1.69966   1.74267   1.75776   2.07925   2.09467
 Alpha virt. eigenvalues --    2.35782   2.41601   2.54599   2.88680   3.01571
 Alpha virt. eigenvalues --    5.05691   5.48417   5.93207   6.78306   6.80198
 Alpha virt. eigenvalues --    6.87152   6.91514   7.09350  49.96039
          Condensed to atoms (all electrons):
              39         40         41
    39  O    7.913972   0.322189   0.319486
    40  H    0.322189   0.425683  -0.024480
    41  H    0.319486  -0.024480   0.425955
 Mulliken charges:
               1
     1  C    0.000000
     2  C    0.000000
     3  C    0.000000
     4  N    0.000000
     5  H    0.000000
     6  H    0.000000
     7  H    0.000000
     8  C    0.000000
     9  H    0.000000
    10  H    0.000000
    11  H    0.000000
    12  N    0.000000
    13  C    0.000000
    14  H    0.000000
    15  H    0.000000
    16  C    0.000000
    17  H    0.000000
    18  H    0.000000
    19  C    0.000000
    20  H    0.000000
    21  H    0.000000
    22  C    0.000000
    23  O    0.000000
    24  O    0.000000
    25  P    0.000000
    26  O    0.000000
    27  O    0.000000
    28  H    0.000000
    29  O    0.000000
    30  H    0.000000
    31  O    0.000000
    32  H    0.000000
    33  O    0.000000
    34  H    0.000000
    35  H    0.000000
    36  O    0.000000
    37  H    0.000000
    38  H    0.000000
    39  O   -0.555647
    40  H    0.276607
    41  H    0.279040
 Sum of Mulliken charges =  -0.00000
 Mulliken charges with hydrogens summed into heavy atoms:
               1
     1  C    0.000000
     2  C    0.000000
     3  C    0.000000
     4  N    0.000000
     8  C    0.000000
    12  N    0.000000
    13  C    0.000000
    16  C    0.000000
    19  C    0.000000
    22  C    0.000000
    23  O    0.000000
    24  O    0.000000
    25  P    0.000000
    26  O    0.000000
    27  O    0.000000
    29  O    0.000000
    31  O    0.000000
    33  O    0.000000
    36  O    0.000000
    39  O   -0.000000
         Mulliken charges condensed to fragments:
      1      0.000000
      2      0.000000
      3      0.000000
      4      0.000000
      5     -0.000000
 Electronic spatial extent (au):  <R**2>=           6186.9215
 Charge=             -0.0000 electrons
 Dipole moment (field-independent basis, Debye):
    X=              1.3411    Y=             -0.1723    Z=             -1.6280  Tot=              2.1163
 Quadrupole moment (field-independent basis, Debye-Ang):
   XX=             12.5077   YY=             -7.2053   ZZ=            -33.3376
   XY=              9.4037   XZ=             -1.4704   YZ=            -12.9180
 Traceless Quadrupole moment (field-independent basis, Debye-Ang):
   XX=             21.8527   YY=              2.1398   ZZ=            -23.9925
   XY=              9.4037   XZ=             -1.4704   YZ=            -12.9180
 Octapole moment (field-independent basis, Debye-Ang**2):
  XXX=             61.5527  YYY=           -131.2029  ZZZ=           -491.2498  XYY=             32.7078
  XXY=             94.7329  XXZ=              7.4657  XZZ=           -162.0137  YZZ=           -249.3079
  YYZ=           -140.9447  XYZ=            -11.3759
 Hexadecapole moment (field-independent basis, Debye-Ang**3):
 XXXX=           -122.7077 YYYY=          -1802.1276 ZZZZ=          -6261.1689 XXXY=            519.3224
 XXXZ=           -218.0190 YYYX=           -271.9666 YYYZ=          -1662.4911 ZZZX=          -2946.0945
 ZZZY=          -3618.6473 XXYY=            480.5837 XXZZ=          -1064.0263 YYZZ=          -2191.3313
 XXYZ=             99.1538 YYXZ=           -364.2434 ZZXY=          -1171.3768
 N-N= 9.124257504866D+00 E-N=-1.991028629341D+02  KE= 7.620368105210D+01
 No NMR shielding tensors so no spin-rotation constants.
 Leave Link  601 at Mon May 23 14:55:02 2022, MaxMem= 13421772800 cpu:               1.8 elap:               0.1
 (Enter /data0/home/wuhanyu/software/g16/l122.exe)
 CPIOFr:  IOpCl= 0 IRwI=-1 IRwCP=  731 ICalc= 10 LCPTot=      696779 Len1MO=     1831090 IndFrg=    20838769
 Restoring MOs from calculation   1 to rwf.
 CPIOFr:  IOpCl= 0 IRwI=-2 IRwCP=  731 ICalc=  0 LCPTot=      696779 Len1MO=     1831090 IndFrg=     2527869
 Counterpoise corrected energy =   -1445.488836585745
                   BSSE energy =       0.008185332940
              sum of fragments =   -1445.315853707725
           complexation energy =    -113.68 kcal/mole (raw)
           complexation energy =    -108.55 kcal/mole (corrected)
 Leave Link  122 at Mon May 23 14:55:02 2022, MaxMem= 13421772800 cpu:               0.7 elap:               0.0
 (Enter /data0/home/wuhanyu/software/g16/l9999.exe)
 1\1\GINC-LOCALHOST\SP\RM062X\6-311+G(2d,p)\C8H21N2O9P1\WUHANYU\23-May-
 2022\0\\#p M062X/6-311+G(2d,p) nosymm em=GD3 counterpoise=5\\Title Car
 d Required\\0,1\C,0,7.412586,10.236837,9.458117\C,0,7.587109,9.731091,
 10.743511\C,0,8.845724,11.585301,10.54813\N,0,8.188275,11.388639,9.364
 593\H,0,6.82973,9.845525,8.635859\H,0,7.173088,8.84001,11.195885\H,0,9
 .560341,12.382714,10.762421\C,0,8.312341,12.249198,8.202663\H,0,9.3833
 05,12.455415,7.973076\H,0,7.895994,11.755416,7.29639\H,0,7.787208,13.2
 06046,8.362616\N,0,8.469876,10.583249,11.404221\C,0,8.943651,10.432451
 ,12.780915\H,0,8.056659,10.440888,13.458326\H,0,9.572141,11.319895,13.
 054124\C,0,9.750413,9.139725,12.983117\H,0,9.777934,8.906695,14.067683
 \H,0,9.230129,8.272127,12.516986\C,0,11.176253,9.235686,12.447731\H,0,
 11.77066,8.360078,12.780059\H,0,11.696188,10.131166,12.837786\C,0,11.1
 55251,9.25409,10.922502\O,0,11.260607,10.377079,10.363444\O,0,11.00817
 9,8.17735,10.324257\P,0,10.338659,9.340932,7.101706\O,0,8.874535,9.452
 103,7.212651\O,0,10.990602,8.019934,7.660698\H,0,11.025402,8.077787,8.
 738108\O,0,10.743814,9.352399,5.560659\H,0,11.774316,9.284946,5.516526
 \O,0,11.121618,10.584385,7.696369\H,0,11.219787,10.468202,8.754817\O,0
 ,8.470898,6.876046,10.718795\H,0,9.368435,7.199403,10.564588\H,0,8.023
 076,6.969913,9.871807\O,0,11.315486,12.544952,11.888769\H,0,12.130073,
 13.012322,11.758161\H,0,11.395056,11.720235,11.337715\O,0,7.173737,7.3
 53745,8.215462\H,0,7.341317,6.581196,7.676528\H,0,7.759569,8.034842,7.
 842249\\Version=ES64L-G16RevA.03\HF=-76.4218596\RMSD=3.192e-09\Dipole=
 -0.1002208,2.133053,1.0366595\Quadrupole=-38.8626102,36.8056569,2.0569
 533,33.6906585,16.346665,59.7393308\PG=C01 [X(C8H21N2O9P1)]\\@


 Ideas are like rabbits. You get a couple and learn
 how to handle them, and pretty soon you have a dozen.
                                    -- John Steinbeck
 Job cpu time:       0 days  7 hours  2 minutes 28.7 seconds.
 Elapsed time:       0 days  0 hours 17 minutes 42.9 seconds.
 File lengths (MBytes):  RWF=    444 Int=      0 D2E=      0 Chk=    185 Scr=      1
 Normal termination of Gaussian 16 at Mon May 23 14:55:02 2022.
