 Entering Gaussian System, Link 0=g16
 Initial command:
 /data0/home/software/g16/l1.exe "/data0/home/software/g16/scratch/Gau-283077.inp" -scrdir="/data0/home/software/g16/scratch/"
 Default is to use a total of  22 processors:
                               22 via shared-memory
                                1 via Linda
 Entering Link 1 = /data0/home/software/g16/l1.exe PID=    283078.
  
 Copyright (c) 1988,1990,1992,1993,1995,1998,2003,2009,2016,
            Gaussian, Inc.  All Rights Reserved.
  
 This is part of the Gaussian(R) 16 program.  It is based on
 the Gaussian(R) 09 system (copyright 2009, Gaussian, Inc.),
 the Gaussian(R) 03 system (copyright 2003, Gaussian, Inc.),
 the Gaussian(R) 98 system (copyright 1998, Gaussian, Inc.),
 the Gaussian(R) 94 system (copyright 1995, Gaussian, Inc.),
 the Gaussian 92(TM) system (copyright 1992, Gaussian, Inc.),
 the Gaussian 90(TM) system (copyright 1990, Gaussian, Inc.),
 the Gaussian 88(TM) system (copyright 1988, Gaussian, Inc.),
 the Gaussian 86(TM) system (copyright 1986, Carnegie Mellon
 University), and the Gaussian 82(TM) system (copyright 1983,
 Carnegie Mellon University). Gaussian is a federally registered
 trademark of Gaussian, Inc.
  
 This software contains proprietary and confidential information,
 including trade secrets, belonging to Gaussian, Inc.
  
 This software is provided under written license and may be
 used, copied, transmitted, or stored only in accord with that
 written license.
  
 The following legend is applicable only to US Government
 contracts under FAR:
  
                    RESTRICTED RIGHTS LEGEND
  
 Use, reproduction and disclosure by the US Government is
 subject to restrictions as set forth in subparagraphs (a)
 and (c) of the Commercial Computer Software - Restricted
 Rights clause in FAR 52.227-19.
  
 Gaussian, Inc.
 340 Quinnipiac St., Bldg. 40, Wallingford CT 06492
  
  
 ---------------------------------------------------------------
 Warning -- This program may not be used in any manner that
 competes with the business of Gaussian, Inc. or will provide
 assistance to any competitor of Gaussian, Inc.  The licensee
 of this program is prohibited from giving any competitor of
 Gaussian, Inc. access to this program.  By using this program,
 the user acknowledges that Gaussian, Inc. is engaged in the
 business of creating and licensing software in the field of
 computational chemistry and represents and warrants to the
 licensee that it is not a competitor of Gaussian, Inc. and that
 it will not use this program in any manner prohibited above.
 ---------------------------------------------------------------
  

 Cite this work as:
 Gaussian 16, Revision A.03,
 M. J. Frisch, G. W. Trucks, H. B. Schlegel, G. E. Scuseria, 
 M. A. Robb, J. R. Cheeseman, G. Scalmani, V. Barone, 
 G. A. Petersson, H. Nakatsuji, X. Li, M. Caricato, A. V. Marenich, 
 J. Bloino, B. G. Janesko, R. Gomperts, B. Mennucci, H. P. Hratchian, 
 J. V. Ortiz, A. F. Izmaylov, J. L. Sonnenberg, D. Williams-Young, 
 F. Ding, F. Lipparini, F. Egidi, J. Goings, B. Peng, A. Petrone, 
 T. Henderson, D. Ranasinghe, V. G. Zakrzewski, J. Gao, N. Rega, 
 G. Zheng, W. Liang, M. Hada, M. Ehara, K. Toyota, R. Fukuda, 
 J. Hasegawa, M. Ishida, T. Nakajima, Y. Honda, O. Kitao, H. Nakai, 
 T. Vreven, K. Throssell, J. A. Montgomery, Jr., J. E. Peralta, 
 F. Ogliaro, M. J. Bearpark, J. J. Heyd, E. N. Brothers, K. N. Kudin, 
 V. N. Staroverov, T. A. Keith, R. Kobayashi, J. Normand, 
 K. Raghavachari, A. P. Rendell, J. C. Burant, S. S. Iyengar, 
 J. Tomasi, M. Cossi, J. M. Millam, M. Klene, C. Adamo, R. Cammi, 
 J. W. Ochterski, R. L. Martin, K. Morokuma, O. Farkas, 
 J. B. Foresman, and D. J. Fox, Gaussian, Inc., Wallingford CT, 2016.
 
 ******************************************
 Gaussian 16:  ES64L-G16RevA.03 25-Dec-2016
                19-Feb-2023 
 ******************************************
 %nproc=24
 Will use up to   24 processors via shared memory.
 %mem=50GB
 ---------------------------------------------------
 #p M062X/6-311+G(2d,p) nosymm em=GD3 counterpoise=2
 ---------------------------------------------------
 1/38=1,62=2,172=1/1;
 2/12=2,15=1,17=6,18=5,40=1/2;
 1/38=1,53=2,62=2,63=1/22;
 3/5=4,6=6,7=112,11=2,25=1,30=1,74=-55,124=31/1,2,3;
 4//1;
 5/5=2,38=5/2;
 6/7=2,8=2,9=2,10=2,28=1/1;
 1/53=2,62=2,63=1/22;
 3/5=7,6=11,7=112,11=2,25=1,30=1,74=-55,82=7,124=31/1,2,3;
 4//1;
 5/5=2,38=5/2;
 6/7=2,8=2,9=2,10=2,28=1/1;
 1/53=2,62=2,63=1/22(-4);
 99/5=1,9=1/99;
 Leave Link    1 at Sun Feb 19 12:09:49 2023, MaxMem=  6710886400 cpu:               0.7 elap:               0.0
 (Enter /data0/home/software/g16/l101.exe)
 -------------------
 Title Card Required
 -------------------
 Symbolic Z-matrix:
 Charge =  0 Multiplicity = 1 in supermolecule
 Charge =  0 Multiplicity = 1 in fragment      1.
 Charge =  0 Multiplicity = 1 in fragment      2.
 C                     12.29068   9.20029   9.50012    
 C                     12.88302   10.37909   9.96623    
 C                     13.93882   10.92691   9.23854    
 C                     14.36965   10.29002   8.07743    
 C                     13.72393   9.11259   7.67666    
 N                     12.70364   8.58224   8.37674    
 H                     14.42143   11.84391   9.57639    
 H                     11.45898   8.72196   10.03034    
 H                     12.52634   10.85391   10.87539    
 H                     15.19126   10.69165   7.49106    
 H                     14.02704   8.56761   6.769      
 P                     12.63864   5.4428    6.38168    
 O                     13.07041   6.401     5.36271    
 O                     13.91517   4.81638   7.09594    
 H                     13.60054   4.05584   7.71207    
 O                     11.7049   6.02041   7.53166    
 H                     12.06035   6.96363   7.83744    
 O                     11.83261   4.16794   5.89884    
 H                     10.80012   4.37738   5.93348    
 
 ITRead=  0  0  0  0  0  0  0  0  0  0  0  0  0  0  0  0  0  0  0
 MicOpt= -1 -1 -1 -1 -1 -1 -1 -1 -1 -1 -1 -1 -1 -1 -1 -1 -1 -1 -1
 NAtoms=     19 NQM=       19 NQMF=       0 NMMI=      0 NMMIF=      0
                NMic=       0 NMicF=      0.
                    Isotopes and Nuclear Properties:
 (Nuclear quadrupole moments (NQMom) in fm**2, nuclear magnetic moments (NMagM)
  in nuclear magnetons)

  Atom         1           2           3           4           5           6           7           8           9          10
 IAtWgt=          12          12          12          12          12          14           1           1           1           1
 AtmWgt=  12.0000000  12.0000000  12.0000000  12.0000000  12.0000000  14.0030740   1.0078250   1.0078250   1.0078250   1.0078250
 NucSpn=           0           0           0           0           0           2           1           1           1           1
 AtZEff=  -0.0000000  -0.0000000  -0.0000000  -0.0000000  -0.0000000  -0.0000000  -0.0000000  -0.0000000  -0.0000000  -0.0000000
 NQMom=    0.0000000   0.0000000   0.0000000   0.0000000   0.0000000   2.0440000   0.0000000   0.0000000   0.0000000   0.0000000
 NMagM=    0.0000000   0.0000000   0.0000000   0.0000000   0.0000000   0.4037610   2.7928460   2.7928460   2.7928460   2.7928460
 AtZNuc=   6.0000000   6.0000000   6.0000000   6.0000000   6.0000000   7.0000000   1.0000000   1.0000000   1.0000000   1.0000000

  Atom        11          12          13          14          15          16          17          18          19
 IAtWgt=           1          31          16          16           1          16           1          16           1
 AtmWgt=   1.0078250  30.9737634  15.9949146  15.9949146   1.0078250  15.9949146   1.0078250  15.9949146   1.0078250
 NucSpn=           1           1           0           0           1           0           1           0           1
 AtZEff=  -0.0000000  -0.0000000  -0.0000000  -0.0000000  -0.0000000  -0.0000000  -0.0000000  -0.0000000  -0.0000000
 NQMom=    0.0000000   0.0000000   0.0000000   0.0000000   0.0000000   0.0000000   0.0000000   0.0000000   0.0000000
 NMagM=    2.7928460   1.1316000   0.0000000   0.0000000   2.7928460   0.0000000   2.7928460   0.0000000   2.7928460
 AtZNuc=   1.0000000  15.0000000   8.0000000   8.0000000   1.0000000   8.0000000   1.0000000   8.0000000   1.0000000
 Leave Link  101 at Sun Feb 19 12:09:49 2023, MaxMem=  6710886400 cpu:               2.0 elap:               0.1
 (Enter /data0/home/software/g16/l202.exe)
                          Input orientation:                          
 ---------------------------------------------------------------------
 Center     Atomic      Atomic             Coordinates (Angstroms)
 Number     Number       Type             X           Y           Z
 ---------------------------------------------------------------------
      1          6           0       12.290676    9.200288    9.500115
      2          6           0       12.883021   10.379091    9.966227
      3          6           0       13.938821   10.926907    9.238544
      4          6           0       14.369650   10.290025    8.077426
      5          6           0       13.723931    9.112586    7.676659
      6          7           0       12.703638    8.582238    8.376735
      7          1           0       14.421426   11.843907    9.576385
      8          1           0       11.458977    8.721957   10.030335
      9          1           0       12.526343   10.853914   10.875393
     10          1           0       15.191258   10.691651    7.491061
     11          1           0       14.027041    8.567609    6.768997
     12         15           0       12.638642    5.442800    6.381676
     13          8           0       13.070413    6.401000    5.362707
     14          8           0       13.915170    4.816378    7.095938
     15          1           0       13.600535    4.055842    7.712065
     16          8           0       11.704900    6.020409    7.531657
     17          1           0       12.060355    6.963626    7.837443
     18          8           0       11.832608    4.167941    5.898838
     19          1           0       10.800121    4.377383    5.933475
 ---------------------------------------------------------------------
                    Distance matrix (angstroms):
                    1          2          3          4          5
     1  C    0.000000
     2  C    1.399182   0.000000
     3  C    2.401253   1.394395   0.000000
     4  C    2.744759   2.405321   1.392633   0.000000
     5  C    2.320970   2.748324   2.403627   1.401403   0.000000
     6  N    1.347036   2.405690   2.786730   2.404520   1.346244
     7  H    3.396268   2.159711   1.089923   2.159655   3.399349
     8  H    1.096201   2.185888   3.411505   3.839884   3.289741
     9  H    2.163656   1.085937   2.163261   3.397701   3.833841
    10  H    3.830645   3.398838   2.162785   1.086355   2.163548
    11  H    3.297613   3.848705   3.416538   2.189996   1.101238
    12  P    4.895351   6.105383   6.318828   5.419183   4.040070
    13  O    5.055902   6.087095   6.021634   4.917543   3.624108
    14  O    5.257158   6.344105   6.475329   5.579488   4.339494
    15  H    5.601623   6.751263   7.046709   6.292064   5.058373
    16  O    3.785445   5.129640   5.654873   5.062448   3.695818
    17  H    2.796459   4.107786   4.604271   4.056521   2.722382
    18  O    6.205122   7.498360   7.827732   6.975868   5.584556
    19  H    6.180865   7.524763   7.979422   7.231694   5.831767
                    6          7          8          9         10
     6  N    0.000000
     7  H    3.876653   0.000000
     8  H    2.074390   4.327672   0.000000
     9  H    3.381603   2.501769   2.529552   0.000000
    10  H    3.379689   2.503779   4.925193   4.310662   0.000000
    11  H    2.082410   4.332562   4.153926   4.933738   2.527515
    12  P    3.720290   7.372832   5.045512   7.034647   5.941130
    13  O    3.738541   7.014667   5.456218   7.107332   5.238087
    14  O    4.158119   7.469610   5.467826   7.257063   6.025227
    15  H    4.662024   8.050063   5.633230   7.574584   6.827386
    16  O    2.876561   6.743408   3.688120   5.934485   5.828966
    17  H    1.823336   5.693480   2.874397   4.957885   4.880646
    18  O    5.136602   8.896448   6.160189   8.363588   7.508295
    19  H    5.222423   9.062760   6.007801   8.327536   7.847174
                   11         12         13         14         15
    11  H    0.000000
    12  P    3.441235   0.000000
    13  O    2.754448   1.463855   0.000000
    14  O    3.767113   1.591257   2.495743   0.000000
    15  H    4.628966   2.149145   3.361589   1.028116   0.000000
    16  O    3.530187   1.589957   2.591104   2.554376   2.735965
    17  H    2.753578   2.183251   2.731498   2.932719   3.292884
    18  O    4.992974   1.583695   2.608860   2.488088   2.534941
    19  H    5.354354   2.171671   3.094354   3.353739   3.333030
                   16         17         18         19
    16  O    0.000000
    17  H    1.053334   0.000000
    18  O    2.472659   3.409679   0.000000
    19  H    2.464213   3.449918   1.054085   0.000000
 Symmetry turned off by external request.
 Stoichiometry    C5H8NO4P
 Framework group  C1[X(C5H8NO4P)]
 Deg. of freedom    51
 Full point group                 C1      NOp   1
 Rotational constants (GHZ):           2.5364411           0.3909791           0.3660350
 Leave Link  202 at Sun Feb 19 12:09:49 2023, MaxMem=  6710886400 cpu:               0.1 elap:               0.0
 (Enter /data0/home/software/g16/l122.exe)
 Counterpoise: doing full-system calculation.
 Leave Link  122 at Sun Feb 19 12:09:49 2023, MaxMem=  6710886400 cpu:               0.0 elap:               0.0
 (Enter /data0/home/software/g16/l301.exe)
 Standard basis: 6-311+G(2d,p) (5D, 7F)
 Ernie: Thresh=  0.10000D-02 Tol=  0.10000D-05 Strict=F.
   353 basis functions,   540 primitive gaussians,   375 cartesian basis functions
    46 alpha electrons       46 beta electrons
       nuclear repulsion energy       710.3103013013 Hartrees.
 IExCor= 4336 DFT=T Ex+Corr=M062X ExCW=0 ScaHFX=  0.540000
 ScaDFX=  1.000000  1.000000  1.000000  1.000000 ScalE2=  1.000000  1.000000
 IRadAn=      5 IRanWt=     -1 IRanGd=            0 ICorTp=0 IEmpDi=131
 NAtoms=   19 NActive=   19 NUniq=   19 SFac= 1.00D+00 NAtFMM=   60 NAOKFM=F Big=F
 Integral buffers will be    131072 words long.
 Raffenetti 2 integral format.
 Two-electron integral symmetry is turned off.
 R6Disp:  Grimme-D3 Dispersion energy=       -0.0006222213 Hartrees.
 Nuclear repulsion after empirical dispersion term =      710.3096790800 Hartrees.
 Leave Link  301 at Sun Feb 19 12:09:50 2023, MaxMem=  6710886400 cpu:               1.1 elap:               0.1
 (Enter /data0/home/software/g16/l302.exe)
 NPDir=0 NMtPBC=     1 NCelOv=     1 NCel=       1 NClECP=     1 NCelD=      1
         NCelK=      1 NCelE2=     1 NClLst=     1 CellRange=     0.0.
 One-electron integrals computed using PRISM.
 NBasis=   353 RedAO= T EigKep=  7.47D-06  NBF=   353
 NBsUse=   353 1.00D-06 EigRej= -1.00D+00 NBFU=   353
 Precomputing XC quadrature grid using
 IXCGrd= 4 IRadAn=           5 IRanWt=          -1 IRanGd=           0 AccXCQ= 0.00D+00.
 Generated NRdTot=       0 NPtTot=           0 NUsed=           0 NTot=          32
 NSgBfM=   375   375   375   375   375 MxSgAt=    19 MxSgA2=    19.
 Leave Link  302 at Sun Feb 19 12:09:50 2023, MaxMem=  6710886400 cpu:               5.7 elap:               0.3
 (Enter /data0/home/software/g16/l303.exe)
 DipDrv:  MaxL=1.
 Leave Link  303 at Sun Feb 19 12:09:50 2023, MaxMem=  6710886400 cpu:               0.8 elap:               0.1
 (Enter /data0/home/software/g16/l401.exe)
 ExpMin= 3.48D-02 ExpMax= 7.75D+04 ExpMxC= 2.65D+03 IAcc=3 IRadAn=         5 AccDes= 0.00D+00
 Harris functional with IExCor= 1009 and IRadAn=       5 diagonalized for initial guess.
 HarFok:  IExCor= 1009 AccDes= 0.00D+00 IRadAn=         5 IDoV= 1 UseB2=F ITyADJ=14
 ICtDFT=  3500011 ScaDFX=  1.000000  1.000000  1.000000  1.000000
 FoFCou: FMM=F IPFlag=           0 FMFlag=      100000 FMFlg1=           0
         NFxFlg=           0 DoJE=T BraDBF=F KetDBF=T FulRan=T
         wScrn=  0.000000 ICntrl=       500 IOpCl=  0 I1Cent=   200000004 NGrid=           0
         NMat0=    1 NMatS0=      1 NMatT0=    0 NMatD0=    1 NMtDS0=    0 NMtDT0=    0
 Symmetry not used in FoFCou.
 Harris En= -892.073915434270    
 JPrj=0 DoOrth=F DoCkMO=F.
 Leave Link  401 at Sun Feb 19 12:09:51 2023, MaxMem=  6710886400 cpu:              18.8 elap:               0.8
 (Enter /data0/home/software/g16/l502.exe)
 Two-electron integral symmetry not used.
 Closed shell SCF:
 Using DIIS extrapolation, IDIIS=  1040.
 NGot=  6710886400 LenX=  6710593514 LenY=  6710452448
 Requested convergence on RMS density matrix=1.00D-08 within 128 cycles.
 Requested convergence on MAX density matrix=1.00D-06.
 Requested convergence on             energy=1.00D-06.
 No special actions if energy rises.
 Fock matrices will be formed incrementally for  20 cycles.

 Cycle   1  Pass 1  IDiag  1:
 FoFJK:  IHMeth= 1 ICntrl=       0 DoSepK=F KAlg= 0 I1Cent=           0 FoldK=F
 IRaf= 850000000 NMat=       1 IRICut=       1 DoRegI=T DoRafI=F ISym2E= 0 IDoP0=0 IntGTp=1.
 FoFCou: FMM=F IPFlag=           0 FMFlag=      100000 FMFlg1=           0
         NFxFlg=           0 DoJE=F BraDBF=F KetDBF=F FulRan=T
         wScrn=  0.000000 ICntrl=         0 IOpCl=  0 I1Cent=           0 NGrid=           0
         NMat0=    1 NMatS0=      1 NMatT0=    0 NMatD0=    1 NMtDS0=    0 NMtDT0=    0
 Symmetry not used in FoFCou.
 E= -892.025614222224    
 DIIS: error= 3.34D-02 at cycle   1 NSaved=   1.
 NSaved= 1 IEnMin= 1 EnMin= -892.025614222224     IErMin= 1 ErrMin= 3.34D-02
 ErrMax= 3.34D-02  0.00D+00 EMaxC= 1.00D-01 BMatC= 6.51D-01 BMatP= 6.51D-01
 IDIUse=3 WtCom= 6.66D-01 WtEn= 3.34D-01
 Coeff-Com:  0.100D+01
 Coeff-En:   0.100D+01
 Coeff:      0.100D+01
 Gap=     0.315 Goal=   None    Shift=    0.000
 GapD=    0.315 DampG=1.000 DampE=0.500 DampFc=0.5000 IDamp=-1.
 Damping current iteration by 5.00D-01
 RMSDP=6.35D-03 MaxDP=4.97D-01              OVMax= 2.44D-01

 Cycle   2  Pass 1  IDiag  1:
 RMSU=  3.12D-03    CP:  1.04D+00
 E= -892.200808169826     Delta-E=       -0.175193947603 Rises=F Damp=T
 DIIS: error= 8.76D-03 at cycle   2 NSaved=   2.
 NSaved= 2 IEnMin= 2 EnMin= -892.200808169826     IErMin= 2 ErrMin= 8.76D-03
 ErrMax= 8.76D-03  0.00D+00 EMaxC= 1.00D-01 BMatC= 4.09D-02 BMatP= 6.51D-01
 IDIUse=3 WtCom= 9.12D-01 WtEn= 8.76D-02
 Coeff-Com:  0.226D-01 0.977D+00
 Coeff-En:   0.107D+00 0.893D+00
 Coeff:      0.300D-01 0.970D+00
 Gap=     0.363 Goal=   None    Shift=    0.000
 RMSDP=2.15D-03 MaxDP=2.02D-01 DE=-1.75D-01 OVMax= 1.55D-01

 Cycle   3  Pass 1  IDiag  1:
 RMSU=  1.66D-03    CP:  9.64D-01  7.71D-01
 E= -892.409759843236     Delta-E=       -0.208951673410 Rises=F Damp=F
 DIIS: error= 6.30D-03 at cycle   3 NSaved=   3.
 NSaved= 3 IEnMin= 3 EnMin= -892.409759843236     IErMin= 3 ErrMin= 6.30D-03
 ErrMax= 6.30D-03  0.00D+00 EMaxC= 1.00D-01 BMatC= 1.71D-02 BMatP= 4.09D-02
 IDIUse=3 WtCom= 9.37D-01 WtEn= 6.30D-02
 Coeff-Com: -0.518D-01 0.369D+00 0.683D+00
 Coeff-En:   0.000D+00 0.000D+00 0.100D+01
 Coeff:     -0.485D-01 0.345D+00 0.703D+00
 Gap=     0.314 Goal=   None    Shift=    0.000
 RMSDP=8.84D-04 MaxDP=1.03D-01 DE=-2.09D-01 OVMax= 4.14D-02

 Cycle   4  Pass 1  IDiag  1:
 RMSU=  7.70D-04    CP:  9.37D-01  8.07D-01  1.02D+00
 E= -892.418767670996     Delta-E=       -0.009007827759 Rises=F Damp=F
 DIIS: error= 3.21D-03 at cycle   4 NSaved=   4.
 NSaved= 4 IEnMin= 4 EnMin= -892.418767670996     IErMin= 4 ErrMin= 3.21D-03
 ErrMax= 3.21D-03  0.00D+00 EMaxC= 1.00D-01 BMatC= 4.78D-03 BMatP= 1.71D-02
 IDIUse=3 WtCom= 9.68D-01 WtEn= 3.21D-02
 Coeff-Com: -0.304D-01 0.880D-01 0.387D+00 0.555D+00
 Coeff-En:   0.000D+00 0.000D+00 0.202D+00 0.798D+00
 Coeff:     -0.294D-01 0.852D-01 0.381D+00 0.563D+00
 Gap=     0.315 Goal=   None    Shift=    0.000
 RMSDP=2.37D-04 MaxDP=1.09D-02 DE=-9.01D-03 OVMax= 1.24D-02

 Cycle   5  Pass 1  IDiag  1:
 RMSU=  1.50D-04    CP:  9.39D-01  7.99D-01  1.05D+00  7.81D-01
 E= -892.422042499690     Delta-E=       -0.003274828695 Rises=F Damp=F
 DIIS: error= 4.07D-04 at cycle   5 NSaved=   5.
 NSaved= 5 IEnMin= 5 EnMin= -892.422042499690     IErMin= 5 ErrMin= 4.07D-04
 ErrMax= 4.07D-04  0.00D+00 EMaxC= 1.00D-01 BMatC= 8.89D-05 BMatP= 4.78D-03
 IDIUse=3 WtCom= 9.96D-01 WtEn= 4.07D-03
 Coeff-Com: -0.733D-02 0.125D-01 0.965D-01 0.203D+00 0.695D+00
 Coeff-En:   0.000D+00 0.000D+00 0.000D+00 0.000D+00 0.100D+01
 Coeff:     -0.730D-02 0.124D-01 0.961D-01 0.202D+00 0.697D+00
 Gap=     0.314 Goal=   None    Shift=    0.000
 RMSDP=4.39D-05 MaxDP=2.94D-03 DE=-3.27D-03 OVMax= 1.43D-03

 Cycle   6  Pass 1  IDiag  1:
 RMSU=  2.91D-05    CP:  9.38D-01  7.97D-01  1.06D+00  8.03D-01  8.55D-01
 E= -892.422106767511     Delta-E=       -0.000064267821 Rises=F Damp=F
 DIIS: error= 1.54D-04 at cycle   6 NSaved=   6.
 NSaved= 6 IEnMin= 6 EnMin= -892.422106767511     IErMin= 6 ErrMin= 1.54D-04
 ErrMax= 1.54D-04  0.00D+00 EMaxC= 1.00D-01 BMatC= 5.17D-06 BMatP= 8.89D-05
 IDIUse=3 WtCom= 9.98D-01 WtEn= 1.54D-03
 Coeff-Com: -0.133D-02 0.844D-03 0.177D-01 0.478D-01 0.260D+00 0.675D+00
 Coeff-En:   0.000D+00 0.000D+00 0.000D+00 0.000D+00 0.000D+00 0.100D+01
 Coeff:     -0.132D-02 0.842D-03 0.177D-01 0.477D-01 0.259D+00 0.676D+00
 Gap=     0.314 Goal=   None    Shift=    0.000
 RMSDP=1.23D-05 MaxDP=7.86D-04 DE=-6.43D-05 OVMax= 4.18D-04

 Cycle   7  Pass 1  IDiag  1:
 RMSU=  9.80D-06    CP:  9.38D-01  7.95D-01  1.06D+00  8.07D-01  8.75D-01
                    CP:  1.06D+00
 E= -892.422111475817     Delta-E=       -0.000004708306 Rises=F Damp=F
 DIIS: error= 3.76D-05 at cycle   7 NSaved=   7.
 NSaved= 7 IEnMin= 7 EnMin= -892.422111475817     IErMin= 7 ErrMin= 3.76D-05
 ErrMax= 3.76D-05  0.00D+00 EMaxC= 1.00D-01 BMatC= 2.17D-07 BMatP= 5.17D-06
 IDIUse=1 WtCom= 1.00D+00 WtEn= 0.00D+00
 Coeff-Com:  0.597D-03-0.124D-02-0.807D-02-0.153D-01-0.307D-01 0.108D+00
 Coeff-Com:  0.947D+00
 Coeff:      0.597D-03-0.124D-02-0.807D-02-0.153D-01-0.307D-01 0.108D+00
 Coeff:      0.947D+00
 Gap=     0.314 Goal=   None    Shift=    0.000
 RMSDP=7.14D-06 MaxDP=8.27D-04 DE=-4.71D-06 OVMax= 2.06D-04

 Cycle   8  Pass 1  IDiag  1:
 RMSU=  2.38D-06    CP:  9.38D-01  7.94D-01  1.06D+00  8.11D-01  8.88D-01
                    CP:  1.14D+00  1.07D+00
 E= -892.422111718678     Delta-E=       -0.000000242862 Rises=F Damp=F
 DIIS: error= 1.81D-05 at cycle   8 NSaved=   8.
 NSaved= 8 IEnMin= 8 EnMin= -892.422111718678     IErMin= 8 ErrMin= 1.81D-05
 ErrMax= 1.81D-05  0.00D+00 EMaxC= 1.00D-01 BMatC= 4.01D-08 BMatP= 2.17D-07
 IDIUse=1 WtCom= 1.00D+00 WtEn= 0.00D+00
 Coeff-Com:  0.290D-03-0.557D-03-0.409D-02-0.814D-02-0.215D-01 0.233D-01
 Coeff-Com:  0.404D+00 0.607D+00
 Coeff:      0.290D-03-0.557D-03-0.409D-02-0.814D-02-0.215D-01 0.233D-01
 Coeff:      0.404D+00 0.607D+00
 Gap=     0.314 Goal=   None    Shift=    0.000
 RMSDP=8.12D-07 MaxDP=6.06D-05 DE=-2.43D-07 OVMax= 9.40D-05

 Cycle   9  Pass 1  IDiag  1:
 RMSU=  6.80D-07    CP:  9.38D-01  7.94D-01  1.06D+00  8.11D-01  8.88D-01
                    CP:  1.15D+00  1.09D+00  1.00D+00
 E= -892.422111754288     Delta-E=       -0.000000035610 Rises=F Damp=F
 DIIS: error= 6.89D-06 at cycle   9 NSaved=   9.
 NSaved= 9 IEnMin= 9 EnMin= -892.422111754288     IErMin= 9 ErrMin= 6.89D-06
 ErrMax= 6.89D-06  0.00D+00 EMaxC= 1.00D-01 BMatC= 6.44D-09 BMatP= 4.01D-08
 IDIUse=1 WtCom= 1.00D+00 WtEn= 0.00D+00
 Coeff-Com:  0.189D-04-0.197D-04-0.440D-03-0.972D-03-0.431D-02-0.711D-02
 Coeff-Com:  0.197D-01 0.281D+00 0.712D+00
 Coeff:      0.189D-04-0.197D-04-0.440D-03-0.972D-03-0.431D-02-0.711D-02
 Coeff:      0.197D-01 0.281D+00 0.712D+00
 Gap=     0.314 Goal=   None    Shift=    0.000
 RMSDP=4.54D-07 MaxDP=4.54D-05 DE=-3.56D-08 OVMax= 3.96D-05

 Cycle  10  Pass 1  IDiag  1:
 RMSU=  2.64D-07    CP:  9.38D-01  7.94D-01  1.06D+00  8.11D-01  8.88D-01
                    CP:  1.15D+00  1.10D+00  1.09D+00  9.65D-01
 E= -892.422111761345     Delta-E=       -0.000000007056 Rises=F Damp=F
 DIIS: error= 2.12D-06 at cycle  10 NSaved=  10.
 NSaved=10 IEnMin=10 EnMin= -892.422111761345     IErMin=10 ErrMin= 2.12D-06
 ErrMax= 2.12D-06  0.00D+00 EMaxC= 1.00D-01 BMatC= 4.31D-10 BMatP= 6.44D-09
 IDIUse=1 WtCom= 1.00D+00 WtEn= 0.00D+00
 Coeff-Com: -0.206D-04 0.443D-04 0.223D-03 0.407D-03 0.210D-03-0.553D-02
 Coeff-Com: -0.333D-01 0.338D-01 0.249D+00 0.755D+00
 Coeff:     -0.206D-04 0.443D-04 0.223D-03 0.407D-03 0.210D-03-0.553D-02
 Coeff:     -0.333D-01 0.338D-01 0.249D+00 0.755D+00
 Gap=     0.314 Goal=   None    Shift=    0.000
 RMSDP=1.76D-07 MaxDP=2.07D-05 DE=-7.06D-09 OVMax= 1.35D-05

 Cycle  11  Pass 1  IDiag  1:
 RMSU=  7.79D-08    CP:  9.38D-01  7.94D-01  1.06D+00  8.11D-01  8.88D-01
                    CP:  1.15D+00  1.10D+00  1.12D+00  1.08D+00  1.09D+00
 E= -892.422111761816     Delta-E=       -0.000000000471 Rises=F Damp=F
 DIIS: error= 5.22D-07 at cycle  11 NSaved=  11.
 NSaved=11 IEnMin=11 EnMin= -892.422111761816     IErMin=11 ErrMin= 5.22D-07
 ErrMax= 5.22D-07  0.00D+00 EMaxC= 1.00D-01 BMatC= 7.62D-11 BMatP= 4.31D-10
 IDIUse=1 WtCom= 1.00D+00 WtEn= 0.00D+00
 Coeff-Com: -0.992D-05 0.204D-04 0.136D-03 0.264D-03 0.475D-03-0.164D-02
 Coeff-Com: -0.156D-01-0.159D-01 0.342D-01 0.348D+00 0.650D+00
 Coeff:     -0.992D-05 0.204D-04 0.136D-03 0.264D-03 0.475D-03-0.164D-02
 Coeff:     -0.156D-01-0.159D-01 0.342D-01 0.348D+00 0.650D+00
 Gap=     0.314 Goal=   None    Shift=    0.000
 RMSDP=5.16D-08 MaxDP=4.76D-06 DE=-4.71D-10 OVMax= 3.05D-06

 Cycle  12  Pass 1  IDiag  1:
 RMSU=  2.77D-08    CP:  9.38D-01  7.94D-01  1.06D+00  8.11D-01  8.88D-01
                    CP:  1.15D+00  1.10D+00  1.13D+00  1.09D+00  1.15D+00
                    CP:  8.67D-01
 E= -892.422111761902     Delta-E=       -0.000000000086 Rises=F Damp=F
 DIIS: error= 2.75D-07 at cycle  12 NSaved=  12.
 NSaved=12 IEnMin=12 EnMin= -892.422111761902     IErMin=12 ErrMin= 2.75D-07
 ErrMax= 2.75D-07  0.00D+00 EMaxC= 1.00D-01 BMatC= 8.51D-12 BMatP= 7.62D-11
 IDIUse=1 WtCom= 1.00D+00 WtEn= 0.00D+00
 Coeff-Com: -0.565D-06 0.873D-06 0.222D-04 0.463D-04 0.158D-03 0.188D-03
 Coeff-Com: -0.119D-02-0.133D-01-0.259D-01 0.468D-01 0.277D+00 0.717D+00
 Coeff:     -0.565D-06 0.873D-06 0.222D-04 0.463D-04 0.158D-03 0.188D-03
 Coeff:     -0.119D-02-0.133D-01-0.259D-01 0.468D-01 0.277D+00 0.717D+00
 Gap=     0.314 Goal=   None    Shift=    0.000
 RMSDP=2.05D-08 MaxDP=2.07D-06 DE=-8.57D-11 OVMax= 1.68D-06

 Cycle  13  Pass 1  IDiag  1:
 RMSU=  1.13D-08    CP:  9.38D-01  7.94D-01  1.06D+00  8.11D-01  8.88D-01
                    CP:  1.15D+00  1.10D+00  1.13D+00  1.10D+00  1.19D+00
                    CP:  9.16D-01  9.30D-01
 E= -892.422111761873     Delta-E=        0.000000000029 Rises=F Damp=F
 DIIS: error= 1.18D-07 at cycle  13 NSaved=  13.
 NSaved=13 IEnMin=12 EnMin= -892.422111761902     IErMin=13 ErrMin= 1.18D-07
 ErrMax= 1.18D-07  0.00D+00 EMaxC= 1.00D-01 BMatC= 1.19D-12 BMatP= 8.51D-12
 IDIUse=1 WtCom= 1.00D+00 WtEn= 0.00D+00
 Coeff-Com:  0.756D-06-0.158D-05-0.419D-05-0.804D-05 0.671D-05 0.208D-03
 Coeff-Com:  0.107D-02-0.308D-02-0.122D-01-0.156D-01 0.199D-01 0.305D+00
 Coeff-Com:  0.704D+00
 Coeff:      0.756D-06-0.158D-05-0.419D-05-0.804D-05 0.671D-05 0.208D-03
 Coeff:      0.107D-02-0.308D-02-0.122D-01-0.156D-01 0.199D-01 0.305D+00
 Coeff:      0.704D+00
 Gap=     0.314 Goal=   None    Shift=    0.000
 RMSDP=5.21D-09 MaxDP=4.02D-07 DE= 2.89D-11 OVMax= 5.93D-07

 SCF Done:  E(RM062X) =  -892.422111762     A.U. after   13 cycles
            NFock= 13  Conv=0.52D-08     -V/T= 2.0032
 KE= 8.896146067749D+02 PE=-3.525283756736D+03 EE= 1.032937359119D+03
 Leave Link  502 at Sun Feb 19 12:10:19 2023, MaxMem=  6710886400 cpu:             672.5 elap:              28.1
 (Enter /data0/home/software/g16/l601.exe)
 Copying SCF densities to generalized density rwf, IOpCl= 0 IROHF=0.

 **********************************************************************

            Population analysis using the SCF density.

 **********************************************************************

 Alpha  occ. eigenvalues --  -78.14379 -19.66753 -19.65718 -19.63834 -19.56455
 Alpha  occ. eigenvalues --  -14.78298 -10.60518 -10.60000 -10.58284 -10.57384
 Alpha  occ. eigenvalues --  -10.57132  -6.95149  -5.07072  -5.07044  -5.06830
 Alpha  occ. eigenvalues --   -1.21813  -1.14693  -1.13229  -1.07519  -1.06878
 Alpha  occ. eigenvalues --   -0.92547  -0.88011  -0.73769  -0.73211  -0.70073
 Alpha  occ. eigenvalues --   -0.63671  -0.62458  -0.61940  -0.57174  -0.56124
 Alpha  occ. eigenvalues --   -0.53368  -0.52659  -0.51645  -0.49753  -0.49377
 Alpha  occ. eigenvalues --   -0.48565  -0.46262  -0.45752  -0.44609  -0.43024
 Alpha  occ. eigenvalues --   -0.41217  -0.36853  -0.36535  -0.35966  -0.35358
 Alpha  occ. eigenvalues --   -0.33664
 Alpha virt. eigenvalues --   -0.02281  -0.00793  -0.00470   0.00544   0.01999
 Alpha virt. eigenvalues --    0.02652   0.03060   0.04356   0.05285   0.05636
 Alpha virt. eigenvalues --    0.06440   0.06926   0.08399   0.08825   0.09037
 Alpha virt. eigenvalues --    0.10105   0.11995   0.12558   0.12665   0.13220
 Alpha virt. eigenvalues --    0.13934   0.13940   0.14547   0.16051   0.16184
 Alpha virt. eigenvalues --    0.17229   0.17409   0.18280   0.18752   0.19427
 Alpha virt. eigenvalues --    0.19921   0.20331   0.20742   0.21333   0.21706
 Alpha virt. eigenvalues --    0.22102   0.22383   0.22942   0.24184   0.24370
 Alpha virt. eigenvalues --    0.24690   0.25183   0.26254   0.26677   0.27902
 Alpha virt. eigenvalues --    0.28293   0.28443   0.29739   0.30267   0.30775
 Alpha virt. eigenvalues --    0.30993   0.31835   0.32179   0.33050   0.33527
 Alpha virt. eigenvalues --    0.34108   0.34353   0.36105   0.36339   0.38120
 Alpha virt. eigenvalues --    0.39030   0.39529   0.41349   0.43658   0.44730
 Alpha virt. eigenvalues --    0.46038   0.48666   0.49035   0.50623   0.50955
 Alpha virt. eigenvalues --    0.51363   0.52876   0.53935   0.54652   0.55128
 Alpha virt. eigenvalues --    0.56735   0.57600   0.58382   0.60197   0.60610
 Alpha virt. eigenvalues --    0.63710   0.63959   0.65874   0.66454   0.66730
 Alpha virt. eigenvalues --    0.67186   0.68339   0.71097   0.71875   0.74059
 Alpha virt. eigenvalues --    0.75905   0.76991   0.78728   0.79144   0.79406
 Alpha virt. eigenvalues --    0.79880   0.81262   0.82616   0.83431   0.84166
 Alpha virt. eigenvalues --    0.85231   0.86167   0.88134   0.89432   0.89967
 Alpha virt. eigenvalues --    0.90819   0.91969   0.92820   0.93788   1.01287
 Alpha virt. eigenvalues --    1.03566   1.05258   1.06210   1.07386   1.10402
 Alpha virt. eigenvalues --    1.12423   1.14209   1.15023   1.16556   1.17047
 Alpha virt. eigenvalues --    1.18868   1.20087   1.20369   1.20656   1.24009
 Alpha virt. eigenvalues --    1.25304   1.26089   1.27822   1.28625   1.29407
 Alpha virt. eigenvalues --    1.31005   1.31884   1.33056   1.33495   1.34631
 Alpha virt. eigenvalues --    1.35467   1.36907   1.37296   1.38069   1.41097
 Alpha virt. eigenvalues --    1.44397   1.44835   1.45510   1.48175   1.48911
 Alpha virt. eigenvalues --    1.49568   1.51402   1.52304   1.54367   1.55505
 Alpha virt. eigenvalues --    1.57034   1.59898   1.61157   1.62253   1.62851
 Alpha virt. eigenvalues --    1.64264   1.67184   1.69520   1.70306   1.71802
 Alpha virt. eigenvalues --    1.72480   1.74418   1.78197   1.82260   1.83257
 Alpha virt. eigenvalues --    1.83556   1.85972   1.87583   1.89082   1.90633
 Alpha virt. eigenvalues --    1.94457   1.97948   1.99092   2.00986   2.01867
 Alpha virt. eigenvalues --    2.03172   2.06763   2.08640   2.13960   2.15290
 Alpha virt. eigenvalues --    2.17236   2.19046   2.22008   2.24210   2.26032
 Alpha virt. eigenvalues --    2.30678   2.31708   2.38687   2.39126   2.40737
 Alpha virt. eigenvalues --    2.45185   2.49139   2.52520   2.54840   2.61760
 Alpha virt. eigenvalues --    2.63294   2.65012   2.67032   2.69433   2.73321
 Alpha virt. eigenvalues --    2.73804   2.74215   2.75468   2.75847   2.82452
 Alpha virt. eigenvalues --    2.83495   2.85337   2.85994   2.86648   2.87673
 Alpha virt. eigenvalues --    2.88697   2.91746   2.95852   3.00084   3.01626
 Alpha virt. eigenvalues --    3.06645   3.07409   3.11249   3.12533   3.13092
 Alpha virt. eigenvalues --    3.21642   3.22547   3.27091   3.27951   3.28996
 Alpha virt. eigenvalues --    3.31273   3.35269   3.40754   3.44335   3.45781
 Alpha virt. eigenvalues --    3.54492   3.54702   3.55261   3.56219   3.56977
 Alpha virt. eigenvalues --    3.57999   3.64019   3.68023   3.71802   3.73121
 Alpha virt. eigenvalues --    3.75275   3.79885   3.83194   3.86536   3.91466
 Alpha virt. eigenvalues --    3.94838   3.95329   3.98578   4.02135   4.47629
 Alpha virt. eigenvalues --    4.49476   4.54519   4.80984   4.94481   4.97751
 Alpha virt. eigenvalues --    5.01994   5.05933   5.07688   5.11162   5.13340
 Alpha virt. eigenvalues --    5.13836   5.17201   5.17726   5.21764   5.24075
 Alpha virt. eigenvalues --    5.28746   5.38301   5.48815   5.50294   5.55938
 Alpha virt. eigenvalues --    5.59140   5.84466   6.74816   6.76695   6.77848
 Alpha virt. eigenvalues --    6.79279   6.81825   6.84473   6.87013   6.87944
 Alpha virt. eigenvalues --    6.92436   6.95022   6.99944   7.02522   7.05388
 Alpha virt. eigenvalues --    7.06841   7.13246   7.24517   7.30601   7.34546
 Alpha virt. eigenvalues --    7.37541   7.42429   7.68665  14.25394  14.27850
 Alpha virt. eigenvalues --   14.39243  23.82289  24.03963  24.04975  24.08624
 Alpha virt. eigenvalues --   24.12295  35.72243  50.01798  50.03284  50.07406
 Alpha virt. eigenvalues --   50.13440 163.91686
          Condensed to atoms (all electrons):
               1          2          3          4          5          6
     1  C    6.308263  -0.399904   0.218637  -0.201142  -0.372364   0.178979
     2  C   -0.399904   5.519250   0.314983   0.217613  -0.101313   0.092644
     3  C    0.218637   0.314983   5.149172  -0.088338   0.422789  -0.120485
     4  C   -0.201142   0.217613  -0.088338   7.749114  -2.117095   0.096786
     5  C   -0.372364  -0.101313   0.422789  -2.117095   7.666956   0.265433
     6  N    0.178979   0.092644  -0.120485   0.096786   0.265433   6.803624
     7  H   -0.001354  -0.013525   0.372445  -0.011794  -0.000818   0.000355
     8  H    0.440977  -0.055699   0.015972  -0.005959   0.008815  -0.063121
     9  H   -0.017876   0.375893  -0.023928   0.006900  -0.003531   0.007368
    10  H   -0.000361   0.005588  -0.030282   0.383406  -0.021214   0.007526
    11  H    0.012624  -0.010550   0.012267  -0.084250   0.460611  -0.052103
    12  P   -0.006699  -0.000400   0.002732  -0.043941   0.041400  -0.003681
    13  O    0.012033   0.003579  -0.007993   0.063698  -0.027697  -0.021767
    14  O   -0.003503   0.002146  -0.000948  -0.004250   0.009541  -0.003508
    15  H    0.001386  -0.000290   0.000193  -0.002091  -0.003048   0.002183
    16  O   -0.001587  -0.004571   0.003006  -0.056910   0.012666   0.020806
    17  H   -0.020775   0.019798  -0.006462   0.024665  -0.019290   0.049226
    18  O   -0.001890  -0.000383   0.000201  -0.001664   0.000512   0.002356
    19  H    0.000772   0.000057   0.000001  -0.000247  -0.001071   0.000266
               7          8          9         10         11         12
     1  C   -0.001354   0.440977  -0.017876  -0.000361   0.012624  -0.006699
     2  C   -0.013525  -0.055699   0.375893   0.005588  -0.010550  -0.000400
     3  C    0.372445   0.015972  -0.023928  -0.030282   0.012267   0.002732
     4  C   -0.011794  -0.005959   0.006900   0.383406  -0.084250  -0.043941
     5  C   -0.000818   0.008815  -0.003531  -0.021214   0.460611   0.041400
     6  N    0.000355  -0.063121   0.007368   0.007526  -0.052103  -0.003681
     7  H    0.524830  -0.000269  -0.004504  -0.004678  -0.000219   0.000011
     8  H   -0.000269   0.523206  -0.002645   0.000084  -0.000086  -0.000151
     9  H   -0.004504  -0.002645   0.524195  -0.000188   0.000069  -0.000005
    10  H   -0.004678   0.000084  -0.000188   0.519578  -0.001901   0.000083
    11  H   -0.000219  -0.000086   0.000069  -0.001901   0.464133   0.005149
    12  P    0.000011  -0.000151  -0.000005   0.000083   0.005149  12.517261
    13  O   -0.000000   0.000052  -0.000000   0.000029   0.002463   0.491882
    14  O    0.000000   0.000023   0.000000   0.000005  -0.000557   0.181174
    15  H   -0.000000   0.000005   0.000000  -0.000000   0.000123   0.039361
    16  O   -0.000007   0.001903   0.000049   0.000051   0.001135   0.307897
    17  H    0.000014  -0.001151  -0.000056  -0.000042  -0.000334   0.009347
    18  O   -0.000000  -0.000010   0.000000  -0.000000   0.000070   0.216842
    19  H   -0.000000   0.000001   0.000000   0.000000   0.000005   0.005696
              13         14         15         16         17         18
     1  C    0.012033  -0.003503   0.001386  -0.001587  -0.020775  -0.001890
     2  C    0.003579   0.002146  -0.000290  -0.004571   0.019798  -0.000383
     3  C   -0.007993  -0.000948   0.000193   0.003006  -0.006462   0.000201
     4  C    0.063698  -0.004250  -0.002091  -0.056910   0.024665  -0.001664
     5  C   -0.027697   0.009541  -0.003048   0.012666  -0.019290   0.000512
     6  N   -0.021767  -0.003508   0.002183   0.020806   0.049226   0.002356
     7  H   -0.000000   0.000000  -0.000000  -0.000007   0.000014  -0.000000
     8  H    0.000052   0.000023   0.000005   0.001903  -0.001151  -0.000010
     9  H   -0.000000   0.000000   0.000000   0.000049  -0.000056   0.000000
    10  H    0.000029   0.000005  -0.000000   0.000051  -0.000042  -0.000000
    11  H    0.002463  -0.000557   0.000123   0.001135  -0.000334   0.000070
    12  P    0.491882   0.181174   0.039361   0.307897   0.009347   0.216842
    13  O    8.192717  -0.005027   0.004875  -0.066426   0.017414  -0.021662
    14  O   -0.005027   8.118604   0.218045   0.005923  -0.004002  -0.011738
    15  H    0.004875   0.218045   0.464352  -0.011695  -0.002501  -0.018789
    16  O   -0.066426   0.005923  -0.011695   8.228443   0.226935   0.012988
    17  H    0.017414  -0.004002  -0.002501   0.226935   0.228383   0.001284
    18  O   -0.021662  -0.011738  -0.018789   0.012988   0.001284   8.101487
    19  H   -0.007002  -0.000116   0.002366  -0.004272   0.000714   0.256601
              19
     1  C    0.000772
     2  C    0.000057
     3  C    0.000001
     4  C   -0.000247
     5  C   -0.001071
     6  N    0.000266
     7  H   -0.000000
     8  H    0.000001
     9  H    0.000000
    10  H    0.000000
    11  H    0.000005
    12  P    0.005696
    13  O   -0.007002
    14  O   -0.000116
    15  H    0.002366
    16  O   -0.004272
    17  H    0.000714
    18  O    0.256601
    19  H    0.414847
 Mulliken charges:
               1
     1  C   -0.146215
     2  C    0.035085
     3  C   -0.233962
     4  C    0.075500
     5  C   -0.221283
     6  N   -0.262886
     7  H    0.139512
     8  H    0.138055
     9  H    0.138260
    10  H    0.142318
    11  H    0.191352
    12  P    1.236042
    13  O   -0.631167
    14  O   -0.501812
    15  H    0.305526
    16  O   -0.676335
    17  H    0.476834
    18  O   -0.536204
    19  H    0.331382
 Sum of Mulliken charges =  -0.00000
 Mulliken charges with hydrogens summed into heavy atoms:
               1
     1  C   -0.008160
     2  C    0.173345
     3  C   -0.094450
     4  C    0.217818
     5  C   -0.029931
     6  N   -0.262886
    12  P    1.236042
    13  O   -0.631167
    14  O   -0.196286
    16  O   -0.199502
    18  O   -0.204822
         Mulliken charges condensed to fragments:
      1     -0.004264
      2      0.004264
 Electronic spatial extent (au):  <R**2>=          94389.6587
 Charge=             -0.0000 electrons
 Dipole moment (field-independent basis, Debye):
    X=             -1.0493    Y=              2.3215    Z=              4.8438  Tot=              5.4729
 Quadrupole moment (field-independent basis, Debye-Ang):
   XX=            -92.9725   YY=            -19.7593   ZZ=             -1.1965
   XY=             31.6558   XZ=             57.0982   YZ=             55.7294
 Traceless Quadrupole moment (field-independent basis, Debye-Ang):
   XX=            -54.9964   YY=             18.2168   ZZ=             36.7796
   XY=             31.6558   XZ=             57.0982   YZ=             55.7294
 Octapole moment (field-independent basis, Debye-Ang**2):
  XXX=          -3101.5175  YYY=           -835.1433  ZZZ=           -831.5518  XYY=           -165.9878
  XXY=            -69.3908  XXZ=            154.7946  XZZ=            -56.1284  YZZ=            175.9846
  YYZ=            181.5439  XYZ=            736.0562
 Hexadecapole moment (field-independent basis, Debye-Ang**3):
 XXXX=         -76579.5044 YYYY=         -16659.0429 ZZZZ=         -17337.8557 XXXY=         -13851.3744
 XXXZ=         -12346.1278 YYYX=          -9614.9932 YYYZ=          -3804.6840 ZZZX=         -11236.3137
 ZZZY=          -4919.9221 XXYY=          -5177.9567 XXZZ=          -5432.0943 YYZZ=           -456.2651
 XXYZ=           5668.2490 YYXZ=           2966.9863 ZZXY=           2226.7957
 N-N= 7.103096790800D+02 E-N=-3.525283764053D+03  KE= 8.896146067749D+02
 No NMR shielding tensors so no spin-rotation constants.
 Leave Link  601 at Sun Feb 19 12:10:19 2023, MaxMem=  6710886400 cpu:               2.6 elap:               0.1
 (Enter /data0/home/software/g16/l122.exe)
 CPIOFr:  IOpCl= 0 IRwI=-1 IRwCP=  731 ICalc= -1 LCPTot=      192217 Len1MO=      505607 IndFrg=      192217
 CPIOFr:  IOpCl= 0 IRwI=-1 IRwCP=  731 ICalc=  0 LCPTot=      192217 Len1MO=      505607 IndFrg=      697824
 Counterpoise: doing calculation for fragment   1 using the basis set of the full-system, NewBq=T
 Leave Link  122 at Sun Feb 19 12:10:19 2023, MaxMem=  6710886400 cpu:               0.3 elap:               0.0
 (Enter /data0/home/software/g16/l301.exe)
 Basis read from rwf:  (5D, 7F)
 No pseudopotential information found on rwf file.
   353 basis functions,   540 primitive gaussians,   375 cartesian basis functions
    21 alpha electrons       21 beta electrons
       nuclear repulsion energy       205.2253932613 Hartrees.
 IExCor= 4336 DFT=T Ex+Corr=M062X ExCW=0 ScaHFX=  0.540000
 ScaDFX=  1.000000  1.000000  1.000000  1.000000 ScalE2=  1.000000  1.000000
 IRadAn=      5 IRanWt=     -1 IRanGd=            0 ICorTp=0 IEmpDi=131
 NAtoms=   19 NActive=   19 NUniq=   19 SFac= 1.00D+00 NAtFMM=   60 NAOKFM=F Big=F
 Integral buffers will be    131072 words long.
 Raffenetti 2 integral format.
 Two-electron integral symmetry is turned off.
 R6Disp:  Grimme-D3 Dispersion energy=       -0.0000989734 Hartrees.
 Nuclear repulsion after empirical dispersion term =      205.2252942879 Hartrees.
 No density basis found on file   718.
 Leave Link  301 at Sun Feb 19 12:10:19 2023, MaxMem=  6710886400 cpu:               1.3 elap:               0.1
 (Enter /data0/home/software/g16/l302.exe)
 NPDir=0 NMtPBC=     1 NCelOv=     1 NCel=       1 NClECP=     1 NCelD=      1
         NCelK=      1 NCelE2=     1 NClLst=     1 CellRange=     0.0.
 One-electron integrals computed using PRISM.
 NBasis=   353 RedAO= T EigKep=  7.47D-06  NBF=   353
 NBsUse=   353 1.00D-06 EigRej= -1.00D+00 NBFU=   353
 Precomputing XC quadrature grid using
 IXCGrd= 4 IRadAn=           5 IRanWt=          -1 IRanGd=           0 AccXCQ= 0.00D+00.
 Generated NRdTot=       0 NPtTot=           0 NUsed=           0 NTot=          32
 NSgBfM=   375   375   375   375   375 MxSgAt=    19 MxSgA2=    19.
 Leave Link  302 at Sun Feb 19 12:10:19 2023, MaxMem=  6710886400 cpu:               5.6 elap:               0.3
 (Enter /data0/home/software/g16/l303.exe)
 DipDrv:  MaxL=1.
 Leave Link  303 at Sun Feb 19 12:10:19 2023, MaxMem=  6710886400 cpu:               0.8 elap:               0.1
 (Enter /data0/home/software/g16/l401.exe)
 ExpMin= 3.48D-02 ExpMax= 7.75D+04 ExpMxC= 2.65D+03 IAcc=3 IRadAn=         5 AccDes= 0.00D+00
 Harris functional with IExCor= 1009 and IRadAn=       5 diagonalized for initial guess.
 HarFok:  IExCor= 1009 AccDes= 0.00D+00 IRadAn=         5 IDoV= 1 UseB2=F ITyADJ=14
 ICtDFT=  3500011 ScaDFX=  1.000000  1.000000  1.000000  1.000000
 FoFCou: FMM=F IPFlag=           0 FMFlag=      100000 FMFlg1=           0
         NFxFlg=           0 DoJE=T BraDBF=F KetDBF=T FulRan=T
         wScrn=  0.000000 ICntrl=       500 IOpCl=  0 I1Cent=   200000004 NGrid=           0
         NMat0=    1 NMatS0=      1 NMatT0=    0 NMatD0=    1 NMtDS0=    0 NMtDT0=    0
 Symmetry not used in FoFCou.
 Harris En= -248.119091093042    
 JPrj=0 DoOrth=F DoCkMO=F.
 Leave Link  401 at Sun Feb 19 12:10:20 2023, MaxMem=  6710886400 cpu:              18.1 elap:               0.8
 (Enter /data0/home/software/g16/l502.exe)
 Two-electron integral symmetry not used.
 Closed shell SCF:
 Using DIIS extrapolation, IDIIS=  1040.
 NGot=  6710886400 LenX=  6710593514 LenY=  6710452448
 Requested convergence on RMS density matrix=1.00D-08 within 128 cycles.
 Requested convergence on MAX density matrix=1.00D-06.
 Requested convergence on             energy=1.00D-06.
 No special actions if energy rises.
 Fock matrices will be formed incrementally for  20 cycles.

 Cycle   1  Pass 1  IDiag  1:
 FoFJK:  IHMeth= 1 ICntrl=       0 DoSepK=F KAlg= 0 I1Cent=           0 FoldK=F
 IRaf= 850000000 NMat=       1 IRICut=       1 DoRegI=T DoRafI=F ISym2E= 0 IDoP0=0 IntGTp=1.
 FoFCou: FMM=F IPFlag=           0 FMFlag=      100000 FMFlg1=           0
         NFxFlg=           0 DoJE=F BraDBF=F KetDBF=F FulRan=T
         wScrn=  0.000000 ICntrl=         0 IOpCl=  0 I1Cent=           0 NGrid=           0
         NMat0=    1 NMatS0=      1 NMatT0=    0 NMatD0=    1 NMtDS0=    0 NMtDT0=    0
 Symmetry not used in FoFCou.
 E= -248.122033130591    
 DIIS: error= 3.16D-02 at cycle   1 NSaved=   1.
 NSaved= 1 IEnMin= 1 EnMin= -248.122033130591     IErMin= 1 ErrMin= 3.16D-02
 ErrMax= 3.16D-02  0.00D+00 EMaxC= 1.00D-01 BMatC= 1.51D-01 BMatP= 1.51D-01
 IDIUse=3 WtCom= 6.84D-01 WtEn= 3.16D-01
 Coeff-Com:  0.100D+01
 Coeff-En:   0.100D+01
 Coeff:      0.100D+01
 Gap=     0.340 Goal=   None    Shift=    0.000
 GapD=    0.340 DampG=1.000 DampE=0.500 DampFc=0.5000 IDamp=-1.
 Damping current iteration by 5.00D-01
 RMSDP=2.77D-03 MaxDP=1.76D-01              OVMax= 1.39D-01

 Cycle   2  Pass 1  IDiag  1:
 RMSU=  1.39D-03    CP:  1.00D+00
 E= -248.185945069481     Delta-E=       -0.063911938889 Rises=F Damp=T
 DIIS: error= 8.68D-03 at cycle   2 NSaved=   2.
 NSaved= 2 IEnMin= 2 EnMin= -248.185945069481     IErMin= 2 ErrMin= 8.68D-03
 ErrMax= 8.68D-03  0.00D+00 EMaxC= 1.00D-01 BMatC= 1.47D-02 BMatP= 1.51D-01
 IDIUse=3 WtCom= 9.13D-01 WtEn= 8.68D-02
 Coeff-Com: -0.223D+00 0.122D+01
 Coeff-En:   0.000D+00 0.100D+01
 Coeff:     -0.204D+00 0.120D+01
 Gap=     0.337 Goal=   None    Shift=    0.000
 RMSDP=9.16D-04 MaxDP=4.94D-02 DE=-6.39D-02 OVMax= 7.64D-02

 Cycle   3  Pass 1  IDiag  1:
 RMSU=  8.74D-04    CP:  9.68D-01  1.10D+00
 E= -248.242381299666     Delta-E=       -0.056436230185 Rises=F Damp=F
 DIIS: error= 4.67D-03 at cycle   3 NSaved=   3.
 NSaved= 3 IEnMin= 3 EnMin= -248.242381299666     IErMin= 3 ErrMin= 4.67D-03
 ErrMax= 4.67D-03  0.00D+00 EMaxC= 1.00D-01 BMatC= 2.63D-03 BMatP= 1.47D-02
 IDIUse=3 WtCom= 9.53D-01 WtEn= 4.67D-02
 Coeff-Com: -0.133D+00 0.394D+00 0.739D+00
 Coeff-En:   0.000D+00 0.000D+00 0.100D+01
 Coeff:     -0.127D+00 0.376D+00 0.751D+00
 Gap=     0.325 Goal=   None    Shift=    0.000
 RMSDP=2.55D-04 MaxDP=2.67D-02 DE=-5.64D-02 OVMax= 2.30D-02

 Cycle   4  Pass 1  IDiag  1:
 RMSU=  2.25D-04    CP:  9.55D-01  1.05D+00  1.03D+00
 E= -248.244643236210     Delta-E=       -0.002261936544 Rises=F Damp=F
 DIIS: error= 2.20D-03 at cycle   4 NSaved=   4.
 NSaved= 4 IEnMin= 4 EnMin= -248.244643236210     IErMin= 4 ErrMin= 2.20D-03
 ErrMax= 2.20D-03  0.00D+00 EMaxC= 1.00D-01 BMatC= 2.71D-04 BMatP= 2.63D-03
 IDIUse=3 WtCom= 9.78D-01 WtEn= 2.20D-02
 Coeff-Com: -0.454D-01 0.113D+00 0.320D+00 0.612D+00
 Coeff-En:   0.000D+00 0.000D+00 0.000D+00 0.100D+01
 Coeff:     -0.444D-01 0.110D+00 0.313D+00 0.621D+00
 Gap=     0.317 Goal=   None    Shift=    0.000
 RMSDP=6.37D-05 MaxDP=3.30D-03 DE=-2.26D-03 OVMax= 9.03D-03

 Cycle   5  Pass 1  IDiag  1:
 RMSU=  4.48D-05    CP:  9.57D-01  1.06D+00  1.00D+00  8.43D-01
 E= -248.244886665331     Delta-E=       -0.000243429122 Rises=F Damp=F
 DIIS: error= 8.18D-04 at cycle   5 NSaved=   5.
 NSaved= 5 IEnMin= 5 EnMin= -248.244886665331     IErMin= 5 ErrMin= 8.18D-04
 ErrMax= 8.18D-04  0.00D+00 EMaxC= 1.00D-01 BMatC= 3.83D-05 BMatP= 2.71D-04
 IDIUse=3 WtCom= 9.92D-01 WtEn= 8.18D-03
 Coeff-Com: -0.116D-01 0.235D-01 0.952D-01 0.319D+00 0.574D+00
 Coeff-En:   0.000D+00 0.000D+00 0.000D+00 0.692D-01 0.931D+00
 Coeff:     -0.115D-01 0.233D-01 0.944D-01 0.317D+00 0.576D+00
 Gap=     0.317 Goal=   None    Shift=    0.000
 RMSDP=3.17D-05 MaxDP=1.28D-03 DE=-2.43D-04 OVMax= 2.51D-03

 Cycle   6  Pass 1  IDiag  1:
 RMSU=  2.11D-05    CP:  9.56D-01  1.05D+00  1.02D+00  8.36D-01  6.81D-01
 E= -248.244925362240     Delta-E=       -0.000038696909 Rises=F Damp=F
 DIIS: error= 1.32D-04 at cycle   6 NSaved=   6.
 NSaved= 6 IEnMin= 6 EnMin= -248.244925362240     IErMin= 6 ErrMin= 1.32D-04
 ErrMax= 1.32D-04  0.00D+00 EMaxC= 1.00D-01 BMatC= 1.72D-06 BMatP= 3.83D-05
 IDIUse=3 WtCom= 9.99D-01 WtEn= 1.32D-03
 Coeff-Com: -0.365D-02 0.669D-02 0.320D-01 0.122D+00 0.270D+00 0.573D+00
 Coeff-En:   0.000D+00 0.000D+00 0.000D+00 0.000D+00 0.000D+00 0.100D+01
 Coeff:     -0.364D-02 0.668D-02 0.320D-01 0.122D+00 0.270D+00 0.573D+00
 Gap=     0.317 Goal=   None    Shift=    0.000
 RMSDP=4.34D-06 MaxDP=2.43D-04 DE=-3.87D-05 OVMax= 6.11D-04

 Cycle   7  Pass 1  IDiag  1:
 RMSU=  3.56D-06    CP:  9.57D-01  1.05D+00  1.02D+00  8.31D-01  7.15D-01
                    CP:  1.04D+00
 E= -248.244926812561     Delta-E=       -0.000001450321 Rises=F Damp=F
 DIIS: error= 2.76D-05 at cycle   7 NSaved=   7.
 NSaved= 7 IEnMin= 7 EnMin= -248.244926812561     IErMin= 7 ErrMin= 2.76D-05
 ErrMax= 2.76D-05  0.00D+00 EMaxC= 1.00D-01 BMatC= 1.85D-07 BMatP= 1.72D-06
 IDIUse=1 WtCom= 1.00D+00 WtEn= 0.00D+00
 Coeff-Com:  0.149D-02-0.325D-02-0.104D-01-0.314D-01-0.320D-01 0.225D+00
 Coeff-Com:  0.850D+00
 Coeff:      0.149D-02-0.325D-02-0.104D-01-0.314D-01-0.320D-01 0.225D+00
 Coeff:      0.850D+00
 Gap=     0.317 Goal=   None    Shift=    0.000
 RMSDP=4.35D-06 MaxDP=1.87D-04 DE=-1.45D-06 OVMax= 1.28D-04

 Cycle   8  Pass 1  IDiag  1:
 RMSU=  1.12D-06    CP:  9.57D-01  1.05D+00  1.02D+00  8.31D-01  7.18D-01
                    CP:  1.18D+00  9.58D-01
 E= -248.244926980963     Delta-E=       -0.000000168402 Rises=F Damp=F
 DIIS: error= 4.53D-06 at cycle   8 NSaved=   8.
 NSaved= 8 IEnMin= 8 EnMin= -248.244926980963     IErMin= 8 ErrMin= 4.53D-06
 ErrMax= 4.53D-06  0.00D+00 EMaxC= 1.00D-01 BMatC= 3.44D-09 BMatP= 1.85D-07
 IDIUse=1 WtCom= 1.00D+00 WtEn= 0.00D+00
 Coeff-Com:  0.377D-03-0.810D-03-0.279D-02-0.948D-02-0.141D-01 0.376D-01
 Coeff-Com:  0.133D+00 0.856D+00
 Coeff:      0.377D-03-0.810D-03-0.279D-02-0.948D-02-0.141D-01 0.376D-01
 Coeff:      0.133D+00 0.856D+00
 Gap=     0.317 Goal=   None    Shift=    0.000
 RMSDP=3.56D-07 MaxDP=1.65D-05 DE=-1.68D-07 OVMax= 2.36D-05

 Cycle   9  Pass 1  IDiag  1:
 RMSU=  2.30D-07    CP:  9.57D-01  1.05D+00  1.02D+00  8.30D-01  7.17D-01
                    CP:  1.19D+00  9.68D-01  1.11D+00
 E= -248.244926984375     Delta-E=       -0.000000003412 Rises=F Damp=F
 DIIS: error= 2.92D-06 at cycle   9 NSaved=   9.
 NSaved= 9 IEnMin= 9 EnMin= -248.244926984375     IErMin= 9 ErrMin= 2.92D-06
 ErrMax= 2.92D-06  0.00D+00 EMaxC= 1.00D-01 BMatC= 1.05D-09 BMatP= 3.44D-09
 IDIUse=1 WtCom= 1.00D+00 WtEn= 0.00D+00
 Coeff-Com: -0.723D-04 0.161D-03 0.485D-03 0.768D-03-0.735D-03-0.104D-01
 Coeff-Com: -0.712D-01 0.363D+00 0.718D+00
 Coeff:     -0.723D-04 0.161D-03 0.485D-03 0.768D-03-0.735D-03-0.104D-01
 Coeff:     -0.712D-01 0.363D+00 0.718D+00
 Gap=     0.317 Goal=   None    Shift=    0.000
 RMSDP=1.30D-07 MaxDP=5.52D-06 DE=-3.41D-09 OVMax= 1.84D-05

 Cycle  10  Pass 1  IDiag  1:
 RMSU=  9.23D-08    CP:  9.57D-01  1.05D+00  1.02D+00  8.30D-01  7.16D-01
                    CP:  1.19D+00  9.65D-01  1.17D+00  1.07D+00
 E= -248.244926985682     Delta-E=       -0.000000001306 Rises=F Damp=F
 DIIS: error= 5.99D-07 at cycle  10 NSaved=  10.
 NSaved=10 IEnMin=10 EnMin= -248.244926985682     IErMin=10 ErrMin= 5.99D-07
 ErrMax= 5.99D-07  0.00D+00 EMaxC= 1.00D-01 BMatC= 6.91D-11 BMatP= 1.05D-09
 IDIUse=1 WtCom= 1.00D+00 WtEn= 0.00D+00
 Coeff-Com: -0.139D-04 0.321D-04 0.148D-03 0.331D-03 0.647D-03 0.131D-03
 Coeff-Com: -0.873D-02-0.102D+00 0.503D-01 0.106D+01
 Coeff:     -0.139D-04 0.321D-04 0.148D-03 0.331D-03 0.647D-03 0.131D-03
 Coeff:     -0.873D-02-0.102D+00 0.503D-01 0.106D+01
 Gap=     0.317 Goal=   None    Shift=    0.000
 RMSDP=4.74D-08 MaxDP=2.00D-06 DE=-1.31D-09 OVMax= 5.53D-06

 Cycle  11  Pass 1  IDiag  1:
 RMSU=  3.12D-08    CP:  9.57D-01  1.05D+00  1.02D+00  8.30D-01  7.16D-01
                    CP:  1.19D+00  9.63D-01  1.19D+00  1.18D+00  1.13D+00
 E= -248.244926985763     Delta-E=       -0.000000000081 Rises=F Damp=F
 DIIS: error= 3.49D-07 at cycle  11 NSaved=  11.
 NSaved=11 IEnMin=11 EnMin= -248.244926985763     IErMin=11 ErrMin= 3.49D-07
 ErrMax= 3.49D-07  0.00D+00 EMaxC= 1.00D-01 BMatC= 1.04D-11 BMatP= 6.91D-11
 IDIUse=1 WtCom= 1.00D+00 WtEn= 0.00D+00
 Coeff-Com: -0.222D-05 0.580D-05 0.484D-04 0.124D-03 0.393D-03 0.962D-03
 Coeff-Com: -0.188D-03-0.829D-01-0.146D-01 0.564D+00 0.532D+00
 Coeff:     -0.222D-05 0.580D-05 0.484D-04 0.124D-03 0.393D-03 0.962D-03
 Coeff:     -0.188D-03-0.829D-01-0.146D-01 0.564D+00 0.532D+00
 Gap=     0.317 Goal=   None    Shift=    0.000
 RMSDP=1.02D-08 MaxDP=5.31D-07 DE=-8.13D-11 OVMax= 1.62D-06

 Cycle  12  Pass 1  IDiag  1:
 RMSU=  8.62D-09    CP:  9.57D-01  1.05D+00  1.02D+00  8.30D-01  7.16D-01
                    CP:  1.19D+00  9.63D-01  1.19D+00  1.19D+00  1.15D+00
                    CP:  1.07D+00
 E= -248.244926985782     Delta-E=       -0.000000000019 Rises=F Damp=F
 DIIS: error= 7.57D-08 at cycle  12 NSaved=  12.
 NSaved=12 IEnMin=12 EnMin= -248.244926985782     IErMin=12 ErrMin= 7.57D-08
 ErrMax= 7.57D-08  0.00D+00 EMaxC= 1.00D-01 BMatC= 4.70D-13 BMatP= 1.04D-11
 IDIUse=1 WtCom= 1.00D+00 WtEn= 0.00D+00
 Coeff-Com:  0.155D-05-0.331D-05-0.662D-05-0.865D-05 0.242D-04 0.384D-03
 Coeff-Com:  0.116D-02-0.942D-02-0.663D-02-0.375D-02 0.157D+00 0.861D+00
 Coeff:      0.155D-05-0.331D-05-0.662D-05-0.865D-05 0.242D-04 0.384D-03
 Coeff:      0.116D-02-0.942D-02-0.663D-02-0.375D-02 0.157D+00 0.861D+00
 Gap=     0.317 Goal=   None    Shift=    0.000
 RMSDP=4.35D-09 MaxDP=3.07D-07 DE=-1.95D-11 OVMax= 4.02D-07

 SCF Done:  E(RM062X) =  -248.244926986     A.U. after   12 cycles
            NFock= 12  Conv=0.43D-08     -V/T= 2.0048
 KE= 2.470598617141D+02 PE=-9.869228991694D+02 EE= 2.863928161816D+02
 Leave Link  502 at Sun Feb 19 12:10:45 2023, MaxMem=  6710886400 cpu:             591.5 elap:              24.7
 (Enter /data0/home/software/g16/l601.exe)
 Copying SCF densities to generalized density rwf, IOpCl= 0 IROHF=0.

 **********************************************************************

            Population analysis using the SCF density.

 **********************************************************************

 Alpha  occ. eigenvalues --  -14.75055 -10.58405 -10.58332 -10.56652 -10.55701
 Alpha  occ. eigenvalues --  -10.55696  -1.04984  -0.90686  -0.86237  -0.71804
 Alpha  occ. eigenvalues --   -0.71447  -0.60849  -0.55192  -0.54680  -0.50117
 Alpha  occ. eigenvalues --   -0.47393  -0.47250  -0.43064  -0.34788  -0.32540
 Alpha  occ. eigenvalues --   -0.32090
 Alpha virt. eigenvalues --   -0.00350   0.00690   0.00868   0.02167   0.02559
 Alpha virt. eigenvalues --    0.04155   0.04395   0.04685   0.06263   0.07028
 Alpha virt. eigenvalues --    0.07309   0.07703   0.09194   0.09600   0.10630
 Alpha virt. eigenvalues --    0.11174   0.13264   0.13363   0.13644   0.13803
 Alpha virt. eigenvalues --    0.14580   0.14831   0.15774   0.18124   0.18833
 Alpha virt. eigenvalues --    0.19050   0.19286   0.19787   0.21001   0.21050
 Alpha virt. eigenvalues --    0.21458   0.21772   0.22652   0.22849   0.23892
 Alpha virt. eigenvalues --    0.24739   0.24805   0.25576   0.25726   0.26807
 Alpha virt. eigenvalues --    0.27627   0.28467   0.28920   0.29921   0.30116
 Alpha virt. eigenvalues --    0.31207   0.32353   0.33005   0.33475   0.34109
 Alpha virt. eigenvalues --    0.35078   0.35768   0.36395   0.36826   0.37335
 Alpha virt. eigenvalues --    0.38373   0.38809   0.40547   0.41504   0.43659
 Alpha virt. eigenvalues --    0.45459   0.46957   0.48879   0.50219   0.51135
 Alpha virt. eigenvalues --    0.52281   0.53747   0.55163   0.55544   0.56098
 Alpha virt. eigenvalues --    0.57301   0.60375   0.61571   0.64331   0.64989
 Alpha virt. eigenvalues --    0.66271   0.67157   0.67263   0.68027   0.69253
 Alpha virt. eigenvalues --    0.70945   0.71963   0.73058   0.73983   0.74705
 Alpha virt. eigenvalues --    0.74751   0.75930   0.76779   0.78164   0.79635
 Alpha virt. eigenvalues --    0.79796   0.80563   0.81010   0.82048   0.82816
 Alpha virt. eigenvalues --    0.83994   0.84784   0.85598   0.86778   0.87642
 Alpha virt. eigenvalues --    0.88068   0.89263   0.90888   0.91321   0.91737
 Alpha virt. eigenvalues --    0.93240   0.93664   0.96161   0.96851   0.98386
 Alpha virt. eigenvalues --    0.99668   1.03839   1.05509   1.06099   1.09095
 Alpha virt. eigenvalues --    1.10449   1.11798   1.14412   1.16706   1.17425
 Alpha virt. eigenvalues --    1.19621   1.20758   1.21084   1.21762   1.23393
 Alpha virt. eigenvalues --    1.27796   1.28373   1.29656   1.32974   1.33970
 Alpha virt. eigenvalues --    1.35245   1.36079   1.37824   1.39041   1.39317
 Alpha virt. eigenvalues --    1.40080   1.44738   1.46105   1.48812   1.50111
 Alpha virt. eigenvalues --    1.51176   1.52833   1.54020   1.54683   1.58574
 Alpha virt. eigenvalues --    1.62414   1.63462   1.65303   1.68582   1.73971
 Alpha virt. eigenvalues --    1.83870   1.87400   1.89939   1.93295   1.93464
 Alpha virt. eigenvalues --    1.96538   1.98147   2.01931   2.02155   2.04612
 Alpha virt. eigenvalues --    2.11279   2.16084   2.17075   2.17699   2.21605
 Alpha virt. eigenvalues --    2.24311   2.27743   2.31765   2.33611   2.37956
 Alpha virt. eigenvalues --    2.39609   2.40489   2.42152   2.45381   2.47298
 Alpha virt. eigenvalues --    2.50592   2.52839   2.54100   2.55495   2.57890
 Alpha virt. eigenvalues --    2.62300   2.63157   2.64578   2.66312   2.67876
 Alpha virt. eigenvalues --    2.68416   2.70991   2.71922   2.73329   2.75536
 Alpha virt. eigenvalues --    2.76021   2.76573   2.76780   2.77667   2.81491
 Alpha virt. eigenvalues --    2.83223   2.84460   2.87037   2.87475   2.88110
 Alpha virt. eigenvalues --    2.88640   2.89483   2.90457   2.92989   2.97923
 Alpha virt. eigenvalues --    2.98859   3.01207   3.02337   3.02466   3.05478
 Alpha virt. eigenvalues --    3.06619   3.08144   3.08970   3.12554   3.12650
 Alpha virt. eigenvalues --    3.14351   3.14790   3.16178   3.18206   3.23119
 Alpha virt. eigenvalues --    3.23774   3.25104   3.28044   3.28745   3.29170
 Alpha virt. eigenvalues --    3.29822   3.29884   3.31980   3.33390   3.37281
 Alpha virt. eigenvalues --    3.41801   3.42520   3.46025   3.47097   3.48000
 Alpha virt. eigenvalues --    3.55526   3.56631   3.56875   3.57965   3.59407
 Alpha virt. eigenvalues --    3.59479   3.65562   3.68693   3.71222   3.73891
 Alpha virt. eigenvalues --    3.74989   3.76796   3.78716   3.80957   3.85938
 Alpha virt. eigenvalues --    3.86480   3.89679   3.93834   3.96385   3.97247
 Alpha virt. eigenvalues --    4.01063   4.05413   4.42945   4.45261   4.49596
 Alpha virt. eigenvalues --    4.51111   4.51455   4.56464   4.61920   4.64690
 Alpha virt. eigenvalues --    4.81418   4.83127   4.91258   4.94737   4.96872
 Alpha virt. eigenvalues --    4.98885   5.02287   5.05369   5.24605   5.29133
 Alpha virt. eigenvalues --    5.61729   5.71679   9.69726   9.77752   9.81207
 Alpha virt. eigenvalues --    9.92473  10.01669  10.04824  10.08899  10.13276
 Alpha virt. eigenvalues --   10.21321  10.23146  10.25528  10.28529  10.30971
 Alpha virt. eigenvalues --   10.32033  10.34178  10.38684  10.42720  10.48589
 Alpha virt. eigenvalues --   10.57279  10.62576  10.65887  10.73962  10.84109
 Alpha virt. eigenvalues --   12.65006  12.78995  13.14839  13.22509  13.27425
 Alpha virt. eigenvalues --   13.32513  13.40895  13.43106  13.53107  13.64293
 Alpha virt. eigenvalues --   13.81071  13.88610  14.09039  17.46518  18.21992
 Alpha virt. eigenvalues --   18.31598  18.48091  23.83977  24.05601  24.06705
 Alpha virt. eigenvalues --   24.10385  24.14005  35.75533  52.13759  52.17936
 Alpha virt. eigenvalues --   52.30128  69.75535 129.42464 137.84129 138.98373
 Alpha virt. eigenvalues --  139.69409 470.95782
          Condensed to atoms (all electrons):
               1          2          3          4          5          6
     1  C    5.154976   0.341266   0.141526  -0.241492   0.091675   0.199200
     2  C    0.341266   4.856543   0.458166   0.055933  -0.114716   0.094174
     3  C    0.141526   0.458166   4.862439   0.330181   0.203117  -0.123269
     4  C   -0.241492   0.055933   0.330181   5.252958   0.173461   0.104597
     5  C    0.091675  -0.114716   0.203117   0.173461   5.142985   0.283350
     6  N    0.199200   0.094174  -0.123269   0.104597   0.283350   6.819561
     7  H   -0.002119  -0.012751   0.367187  -0.007751  -0.000477   0.000381
     8  H    0.458801  -0.078568   0.021818  -0.009936   0.011277  -0.072594
     9  H   -0.020147   0.370790  -0.018545   0.010210  -0.005834   0.006177
    10  H   -0.000011   0.005254  -0.013330   0.367975  -0.023852   0.005815
    11  H    0.017687  -0.013538   0.023136  -0.067504   0.435898  -0.071287
    12  P   -0.000527   0.000076  -0.000189  -0.002407  -0.002341   0.001466
    13  O   -0.000024  -0.000039   0.000086  -0.000577   0.000731  -0.000713
    14  O    0.000723  -0.000639   0.000339  -0.001672   0.001926  -0.004139
    15  H   -0.000001  -0.000000   0.000005  -0.000053  -0.000110   0.000178
    16  O   -0.003511   0.003909  -0.001100   0.003197  -0.002406   0.042323
    17  H    0.012410  -0.008070   0.001703  -0.004520   0.007220  -0.098328
    18  O   -0.000230   0.000188  -0.000072   0.000352  -0.000149   0.001793
    19  H   -0.000004   0.000006  -0.000001   0.000006  -0.000018   0.000053
               7          8          9         10         11         12
     1  C   -0.002119   0.458801  -0.020147  -0.000011   0.017687  -0.000527
     2  C   -0.012751  -0.078568   0.370790   0.005254  -0.013538   0.000076
     3  C    0.367187   0.021818  -0.018545  -0.013330   0.023136  -0.000189
     4  C   -0.007751  -0.009936   0.010210   0.367975  -0.067504  -0.002407
     5  C   -0.000477   0.011277  -0.005834  -0.023852   0.435898  -0.002341
     6  N    0.000381  -0.072594   0.006177   0.005815  -0.071287   0.001466
     7  H    0.532513  -0.000291  -0.004718  -0.004797  -0.000286   0.000012
     8  H   -0.000291   0.539582  -0.002030   0.000100  -0.000023  -0.000026
     9  H   -0.004718  -0.002030   0.531831  -0.000203   0.000103   0.000010
    10  H   -0.004797   0.000100  -0.000203   0.531954  -0.001722   0.000050
    11  H   -0.000286  -0.000023   0.000103  -0.001722   0.537103  -0.001524
    12  P    0.000012  -0.000026   0.000010   0.000050  -0.001524   0.005539
    13  O   -0.000000   0.000015  -0.000000   0.000012  -0.000158  -0.000978
    14  O   -0.000000   0.000030   0.000000   0.000006   0.000598  -0.000341
    15  H   -0.000000  -0.000001  -0.000000  -0.000000  -0.000006   0.000078
    16  O   -0.000004   0.000194  -0.000003  -0.000007  -0.000172  -0.001474
    17  H    0.000007   0.001127   0.000052   0.000061   0.001909   0.000650
    18  O   -0.000000  -0.000011  -0.000000  -0.000000  -0.000111  -0.002700
    19  H    0.000000  -0.000000  -0.000000  -0.000000  -0.000002  -0.000110
              13         14         15         16         17         18
     1  C   -0.000024   0.000723  -0.000001  -0.003511   0.012410  -0.000230
     2  C   -0.000039  -0.000639  -0.000000   0.003909  -0.008070   0.000188
     3  C    0.000086   0.000339   0.000005  -0.001100   0.001703  -0.000072
     4  C   -0.000577  -0.001672  -0.000053   0.003197  -0.004520   0.000352
     5  C    0.000731   0.001926  -0.000110  -0.002406   0.007220  -0.000149
     6  N   -0.000713  -0.004139   0.000178   0.042323  -0.098328   0.001793
     7  H   -0.000000  -0.000000  -0.000000  -0.000004   0.000007  -0.000000
     8  H    0.000015   0.000030  -0.000001   0.000194   0.001127  -0.000011
     9  H   -0.000000   0.000000  -0.000000  -0.000003   0.000052  -0.000000
    10  H    0.000012   0.000006  -0.000000  -0.000007   0.000061  -0.000000
    11  H   -0.000158   0.000598  -0.000006  -0.000172   0.001909  -0.000111
    12  P   -0.000978  -0.000341   0.000078  -0.001474   0.000650  -0.002700
    13  O    0.001093  -0.000046   0.000022  -0.000122   0.000192  -0.000171
    14  O   -0.000046   0.002523  -0.000288  -0.001644   0.001855  -0.001366
    15  H    0.000022  -0.000288   0.000199   0.000051  -0.000066  -0.000023
    16  O   -0.000122  -0.001644   0.000051   0.010864  -0.013192   0.001746
    17  H    0.000192   0.001855  -0.000066  -0.013192   0.019887  -0.001643
    18  O   -0.000171  -0.001366  -0.000023   0.001746  -0.001643   0.003668
    19  H    0.000007  -0.000039   0.000002   0.000025  -0.000038   0.000124
              19
     1  C   -0.000004
     2  C    0.000006
     3  C   -0.000001
     4  C    0.000006
     5  C   -0.000018
     6  N    0.000053
     7  H    0.000000
     8  H   -0.000000
     9  H   -0.000000
    10  H   -0.000000
    11  H   -0.000002
    12  P   -0.000110
    13  O    0.000007
    14  O   -0.000039
    15  H    0.000002
    16  O    0.000025
    17  H   -0.000038
    18  O    0.000124
    19  H    0.000024
 Mulliken charges:
               1
     1  C   -0.150198
     2  C    0.042015
     3  C   -0.253197
     4  C    0.037042
     5  C   -0.201735
     6  N   -0.188738
     7  H    0.133095
     8  H    0.130537
     9  H    0.132306
    10  H    0.132696
    11  H    0.139900
    12  P    0.004738
    13  O    0.000669
    14  O    0.002173
    15  H    0.000015
    16  O   -0.038675
    17  H    0.078783
    18  O   -0.001394
    19  H   -0.000033
 Sum of Mulliken charges =  -0.00000
 Mulliken charges with hydrogens summed into heavy atoms:
               1
     1  C   -0.019660
     2  C    0.174321
     3  C   -0.120102
     4  C    0.169738
     5  C   -0.061835
     6  N   -0.188738
    12  P    0.004738
    13  O    0.000669
    14  O    0.002187
    16  O    0.040108
    18  O   -0.001426
         Mulliken charges condensed to fragments:
      1     -0.046276
      2      0.046276
 Electronic spatial extent (au):  <R**2>=          52980.7783
 Charge=             -0.0000 electrons
 Dipole moment (field-independent basis, Debye):
    X=              1.0013    Y=              1.8862    Z=              0.6979  Tot=              2.2466
 Quadrupole moment (field-independent basis, Debye-Ang):
   XX=             -7.7913   YY=             -0.0814   ZZ=            -20.1603
   XY=             35.5311   XZ=             13.8089   YZ=             24.3189
 Traceless Quadrupole moment (field-independent basis, Debye-Ang):
   XX=              1.5530   YY=              9.2629   ZZ=            -10.8159
   XY=             35.5311   XZ=             13.8089   YZ=             24.3189
 Octapole moment (field-independent basis, Debye-Ang**2):
  XXX=           -845.6832  YYY=           -533.7222  ZZZ=           -696.8238  XYY=            111.9999
  XXY=            277.0964  XXZ=            -58.6156  XZZ=           -266.7060  YZZ=            -35.0196
  YYZ=             86.9211  XYZ=            376.2960
 Hexadecapole moment (field-independent basis, Debye-Ang**3):
 XXXX=         -27478.7997 YYYY=         -13995.9335 ZZZZ=         -13464.5973 XXXY=          -3430.1275
 XXXZ=          -8020.9597 YYYX=          -5882.7337 YYYZ=          -3721.0118 ZZZX=          -9567.0443
 ZZZY=          -5337.4330 XXYY=           -317.4727 XXZZ=          -6246.2772 YYZZ=          -1626.0699
 XXYZ=           2752.4771 YYXZ=           1807.0922 ZZXY=           -367.0706
 N-N= 2.052252942879D+02 E-N=-9.869229005352D+02  KE= 2.470598617141D+02
 No NMR shielding tensors so no spin-rotation constants.
 Leave Link  601 at Sun Feb 19 12:10:45 2023, MaxMem=  6710886400 cpu:               2.5 elap:               0.1
 (Enter /data0/home/software/g16/l122.exe)
 CPIOFr:  IOpCl= 0 IRwI=-1 IRwCP=  731 ICalc=  1 LCPTot=      192217 Len1MO=      505607 IndFrg=     1203431
 Counterpoise: doing calculation for fragment   2 using the basis set of the full-system, NewBq=T
 Leave Link  122 at Sun Feb 19 12:10:45 2023, MaxMem=  6710886400 cpu:               0.2 elap:               0.0
 (Enter /data0/home/software/g16/l301.exe)
 Basis read from rwf:  (5D, 7F)
 No pseudopotential information found on rwf file.
   353 basis functions,   540 primitive gaussians,   375 cartesian basis functions
    25 alpha electrons       25 beta electrons
       nuclear repulsion energy       280.1811384759 Hartrees.
 IExCor= 4336 DFT=T Ex+Corr=M062X ExCW=0 ScaHFX=  0.540000
 ScaDFX=  1.000000  1.000000  1.000000  1.000000 ScalE2=  1.000000  1.000000
 IRadAn=      5 IRanWt=     -1 IRanGd=            0 ICorTp=0 IEmpDi=131
 NAtoms=   19 NActive=   19 NUniq=   19 SFac= 1.00D+00 NAtFMM=   60 NAOKFM=F Big=F
 Integral buffers will be    131072 words long.
 Raffenetti 2 integral format.
 Two-electron integral symmetry is turned off.
 R6Disp:  Grimme-D3 Dispersion energy=       -0.0000437195 Hartrees.
 Nuclear repulsion after empirical dispersion term =      280.1810947564 Hartrees.
 No density basis found on file   718.
 Leave Link  301 at Sun Feb 19 12:10:45 2023, MaxMem=  6710886400 cpu:               1.2 elap:               0.1
 (Enter /data0/home/software/g16/l302.exe)
 NPDir=0 NMtPBC=     1 NCelOv=     1 NCel=       1 NClECP=     1 NCelD=      1
         NCelK=      1 NCelE2=     1 NClLst=     1 CellRange=     0.0.
 One-electron integrals computed using PRISM.
 NBasis=   353 RedAO= T EigKep=  7.47D-06  NBF=   353
 NBsUse=   353 1.00D-06 EigRej= -1.00D+00 NBFU=   353
 Precomputing XC quadrature grid using
 IXCGrd= 4 IRadAn=           5 IRanWt=          -1 IRanGd=           0 AccXCQ= 0.00D+00.
 Generated NRdTot=       0 NPtTot=           0 NUsed=           0 NTot=          32
 NSgBfM=   375   375   375   375   375 MxSgAt=    19 MxSgA2=    19.
 Leave Link  302 at Sun Feb 19 12:10:45 2023, MaxMem=  6710886400 cpu:               5.7 elap:               0.3
 (Enter /data0/home/software/g16/l303.exe)
 DipDrv:  MaxL=1.
 Leave Link  303 at Sun Feb 19 12:10:45 2023, MaxMem=  6710886400 cpu:               0.8 elap:               0.1
 (Enter /data0/home/software/g16/l401.exe)
 ExpMin= 3.48D-02 ExpMax= 7.75D+04 ExpMxC= 2.65D+03 IAcc=3 IRadAn=         5 AccDes= 0.00D+00
 Harris functional with IExCor= 1009 and IRadAn=       5 diagonalized for initial guess.
 HarFok:  IExCor= 1009 AccDes= 0.00D+00 IRadAn=         5 IDoV= 1 UseB2=F ITyADJ=14
 ICtDFT=  3500011 ScaDFX=  1.000000  1.000000  1.000000  1.000000
 FoFCou: FMM=F IPFlag=           0 FMFlag=      100000 FMFlg1=           0
         NFxFlg=           0 DoJE=T BraDBF=F KetDBF=T FulRan=T
         wScrn=  0.000000 ICntrl=       500 IOpCl=  0 I1Cent=   200000004 NGrid=           0
         NMat0=    1 NMatS0=      1 NMatT0=    0 NMatD0=    1 NMtDS0=    0 NMtDT0=    0
 Symmetry not used in FoFCou.
 Harris En= -643.943781490252    
 JPrj=0 DoOrth=F DoCkMO=F.
 Leave Link  401 at Sun Feb 19 12:10:46 2023, MaxMem=  6710886400 cpu:              18.0 elap:               0.8
 (Enter /data0/home/software/g16/l502.exe)
 Two-electron integral symmetry not used.
 Closed shell SCF:
 Using DIIS extrapolation, IDIIS=  1040.
 NGot=  6710886400 LenX=  6710593514 LenY=  6710452448
 Requested convergence on RMS density matrix=1.00D-08 within 128 cycles.
 Requested convergence on MAX density matrix=1.00D-06.
 Requested convergence on             energy=1.00D-06.
 No special actions if energy rises.
 Fock matrices will be formed incrementally for  20 cycles.

 Cycle   1  Pass 1  IDiag  1:
 FoFJK:  IHMeth= 1 ICntrl=       0 DoSepK=F KAlg= 0 I1Cent=           0 FoldK=F
 IRaf= 850000000 NMat=       1 IRICut=       1 DoRegI=T DoRafI=F ISym2E= 0 IDoP0=0 IntGTp=1.
 FoFCou: FMM=F IPFlag=           0 FMFlag=      100000 FMFlg1=           0
         NFxFlg=           0 DoJE=F BraDBF=F KetDBF=F FulRan=T
         wScrn=  0.000000 ICntrl=         0 IOpCl=  0 I1Cent=           0 NGrid=           0
         NMat0=    1 NMatS0=      1 NMatT0=    0 NMatD0=    1 NMtDS0=    0 NMtDT0=    0
 Symmetry not used in FoFCou.
 E= -643.863995674781    
 DIIS: error= 3.27D-02 at cycle   1 NSaved=   1.
 NSaved= 1 IEnMin= 1 EnMin= -643.863995674781     IErMin= 1 ErrMin= 3.27D-02
 ErrMax= 3.27D-02  0.00D+00 EMaxC= 1.00D-01 BMatC= 5.05D-01 BMatP= 5.05D-01
 IDIUse=3 WtCom= 6.73D-01 WtEn= 3.27D-01
 Coeff-Com:  0.100D+01
 Coeff-En:   0.100D+01
 Coeff:      0.100D+01
 Gap=     0.271 Goal=   None    Shift=    0.000
 GapD=    0.271 DampG=1.000 DampE=0.500 DampFc=0.5000 IDamp=-1.
 Damping current iteration by 5.00D-01
 RMSDP=5.56D-03 MaxDP=4.22D-01              OVMax= 2.55D-01

 Cycle   2  Pass 1  IDiag  1:
 RMSU=  2.76D-03    CP:  1.02D+00
 E= -643.979709043948     Delta-E=       -0.115713369167 Rises=F Damp=T
 DIIS: error= 7.52D-03 at cycle   2 NSaved=   2.
 NSaved= 2 IEnMin= 2 EnMin= -643.979709043948     IErMin= 2 ErrMin= 7.52D-03
 ErrMax= 7.52D-03  0.00D+00 EMaxC= 1.00D-01 BMatC= 2.70D-02 BMatP= 5.05D-01
 IDIUse=3 WtCom= 9.25D-01 WtEn= 7.52D-02
 Coeff-Com:  0.698D-01 0.930D+00
 Coeff-En:   0.201D+00 0.799D+00
 Coeff:      0.796D-01 0.920D+00
 Gap=     0.354 Goal=   None    Shift=    0.000
 RMSDP=1.87D-03 MaxDP=2.11D-01 DE=-1.16D-01 OVMax= 1.66D-01

 Cycle   3  Pass 1  IDiag  1:
 RMSU=  1.40D-03    CP:  9.39D-01  7.70D-01
 E= -644.142680210151     Delta-E=       -0.162971166203 Rises=F Damp=F
 DIIS: error= 4.94D-03 at cycle   3 NSaved=   3.
 NSaved= 3 IEnMin= 3 EnMin= -644.142680210151     IErMin= 3 ErrMin= 4.94D-03
 ErrMax= 4.94D-03  0.00D+00 EMaxC= 1.00D-01 BMatC= 1.08D-02 BMatP= 2.70D-02
 IDIUse=3 WtCom= 9.51D-01 WtEn= 4.94D-02
 Coeff-Com: -0.172D-01 0.349D+00 0.668D+00
 Coeff-En:   0.000D+00 0.000D+00 0.100D+01
 Coeff:     -0.164D-01 0.332D+00 0.685D+00
 Gap=     0.345 Goal=   None    Shift=    0.000
 RMSDP=5.43D-04 MaxDP=4.48D-02 DE=-1.63D-01 OVMax= 3.46D-02

 Cycle   4  Pass 1  IDiag  1:
 RMSU=  4.85D-04    CP:  9.23D-01  8.18D-01  1.01D+00
 E= -644.147847528568     Delta-E=       -0.005167318417 Rises=F Damp=F
 DIIS: error= 2.95D-03 at cycle   4 NSaved=   4.
 NSaved= 4 IEnMin= 4 EnMin= -644.147847528568     IErMin= 4 ErrMin= 2.95D-03
 ErrMax= 2.95D-03  0.00D+00 EMaxC= 1.00D-01 BMatC= 3.66D-03 BMatP= 1.08D-02
 IDIUse=3 WtCom= 9.70D-01 WtEn= 2.95D-02
 Coeff-Com: -0.226D-01 0.512D-01 0.391D+00 0.580D+00
 Coeff-En:   0.000D+00 0.000D+00 0.249D+00 0.751D+00
 Coeff:     -0.219D-01 0.497D-01 0.387D+00 0.585D+00
 Gap=     0.350 Goal=   None    Shift=    0.000
 RMSDP=1.86D-04 MaxDP=8.07D-03 DE=-5.17D-03 OVMax= 1.08D-02

 Cycle   5  Pass 1  IDiag  1:
 RMSU=  6.35D-05    CP:  9.26D-01  8.11D-01  1.04D+00  6.60D-01
 E= -644.150254443247     Delta-E=       -0.002406914679 Rises=F Damp=F
 DIIS: error= 1.43D-04 at cycle   5 NSaved=   5.
 NSaved= 5 IEnMin= 5 EnMin= -644.150254443247     IErMin= 5 ErrMin= 1.43D-04
 ErrMax= 1.43D-04  0.00D+00 EMaxC= 1.00D-01 BMatC= 1.45D-05 BMatP= 3.66D-03
 IDIUse=3 WtCom= 9.99D-01 WtEn= 1.43D-03
 Coeff-Com: -0.286D-02 0.132D-02 0.581D-01 0.121D+00 0.822D+00
 Coeff-En:   0.000D+00 0.000D+00 0.000D+00 0.000D+00 0.100D+01
 Coeff:     -0.285D-02 0.132D-02 0.580D-01 0.121D+00 0.823D+00
 Gap=     0.349 Goal=   None    Shift=    0.000
 RMSDP=2.49D-05 MaxDP=1.98D-03 DE=-2.41D-03 OVMax= 7.54D-04

 Cycle   6  Pass 1  IDiag  1:
 RMSU=  1.53D-05    CP:  9.25D-01  8.08D-01  1.04D+00  6.84D-01  1.08D+00
 E= -644.150264312431     Delta-E=       -0.000009869183 Rises=F Damp=F
 DIIS: error= 6.43D-05 at cycle   6 NSaved=   6.
 NSaved= 6 IEnMin= 6 EnMin= -644.150264312431     IErMin= 6 ErrMin= 6.43D-05
 ErrMax= 6.43D-05  0.00D+00 EMaxC= 1.00D-01 BMatC= 1.06D-06 BMatP= 1.45D-05
 IDIUse=1 WtCom= 1.00D+00 WtEn= 0.00D+00
 Coeff-Com:  0.147D-05-0.134D-02 0.127D-02 0.968D-02 0.209D+00 0.781D+00
 Coeff:      0.147D-05-0.134D-02 0.127D-02 0.968D-02 0.209D+00 0.781D+00
 Gap=     0.349 Goal=   None    Shift=    0.000
 RMSDP=8.71D-06 MaxDP=7.99D-04 DE=-9.87D-06 OVMax= 2.17D-04

 Cycle   7  Pass 1  IDiag  1:
 RMSU=  3.83D-06    CP:  9.25D-01  8.07D-01  1.04D+00  6.88D-01  1.16D+00
                    CP:  8.71D-01
 E= -644.150265104150     Delta-E=       -0.000000791719 Rises=F Damp=F
 DIIS: error= 1.91D-05 at cycle   7 NSaved=   7.
 NSaved= 7 IEnMin= 7 EnMin= -644.150265104150     IErMin= 7 ErrMin= 1.91D-05
 ErrMax= 1.91D-05  0.00D+00 EMaxC= 1.00D-01 BMatC= 1.80D-07 BMatP= 1.06D-06
 IDIUse=1 WtCom= 1.00D+00 WtEn= 0.00D+00
 Coeff-Com:  0.375D-03-0.641D-03-0.762D-02-0.127D-01-0.215D-01 0.279D+00
 Coeff-Com:  0.763D+00
 Coeff:      0.375D-03-0.641D-03-0.762D-02-0.127D-01-0.215D-01 0.279D+00
 Coeff:      0.763D+00
 Gap=     0.349 Goal=   None    Shift=    0.000
 RMSDP=3.13D-06 MaxDP=2.47D-04 DE=-7.92D-07 OVMax= 8.75D-05

 Cycle   8  Pass 1  IDiag  1:
 RMSU=  1.90D-06    CP:  9.25D-01  8.06D-01  1.04D+00  6.90D-01  1.17D+00
                    CP:  9.29D-01  1.04D+00
 E= -644.150265223789     Delta-E=       -0.000000119639 Rises=F Damp=F
 DIIS: error= 8.78D-06 at cycle   8 NSaved=   8.
 NSaved= 8 IEnMin= 8 EnMin= -644.150265223789     IErMin= 8 ErrMin= 8.78D-06
 ErrMax= 8.78D-06  0.00D+00 EMaxC= 1.00D-01 BMatC= 3.45D-08 BMatP= 1.80D-07
 IDIUse=1 WtCom= 1.00D+00 WtEn= 0.00D+00
 Coeff-Com:  0.168D-03-0.228D-03-0.373D-02-0.633D-02-0.182D-01 0.910D-01
 Coeff-Com:  0.383D+00 0.554D+00
 Coeff:      0.168D-03-0.228D-03-0.373D-02-0.633D-02-0.182D-01 0.910D-01
 Coeff:      0.383D+00 0.554D+00
 Gap=     0.349 Goal=   None    Shift=    0.000
 RMSDP=7.29D-07 MaxDP=3.40D-05 DE=-1.20D-07 OVMax= 3.68D-05

 Cycle   9  Pass 1  IDiag  1:
 RMSU=  3.64D-07    CP:  9.25D-01  8.06D-01  1.04D+00  6.90D-01  1.17D+00
                    CP:  9.35D-01  1.12D+00  7.63D-01
 E= -644.150265247839     Delta-E=       -0.000000024050 Rises=F Damp=F
 DIIS: error= 1.01D-06 at cycle   9 NSaved=   9.
 NSaved= 9 IEnMin= 9 EnMin= -644.150265247839     IErMin= 9 ErrMin= 1.01D-06
 ErrMax= 1.01D-06  0.00D+00 EMaxC= 1.00D-01 BMatC= 7.42D-10 BMatP= 3.45D-08
 IDIUse=1 WtCom= 1.00D+00 WtEn= 0.00D+00
 Coeff-Com: -0.286D-04 0.524D-04 0.306D-03 0.633D-03-0.286D-03-0.211D-01
 Coeff-Com: -0.358D-01 0.667D-01 0.990D+00
 Coeff:     -0.286D-04 0.524D-04 0.306D-03 0.633D-03-0.286D-03-0.211D-01
 Coeff:     -0.358D-01 0.667D-01 0.990D+00
 Gap=     0.349 Goal=   None    Shift=    0.000
 RMSDP=3.08D-07 MaxDP=3.62D-05 DE=-2.41D-08 OVMax= 8.96D-06

 Cycle  10  Pass 1  IDiag  1:
 RMSU=  9.57D-08    CP:  9.25D-01  8.06D-01  1.04D+00  6.90D-01  1.17D+00
                    CP:  9.32D-01  1.16D+00  8.29D-01  1.14D+00
 E= -644.150265248718     Delta-E=       -0.000000000879 Rises=F Damp=F
 DIIS: error= 2.25D-07 at cycle  10 NSaved=  10.
 NSaved=10 IEnMin=10 EnMin= -644.150265248718     IErMin=10 ErrMin= 2.25D-07
 ErrMax= 2.25D-07  0.00D+00 EMaxC= 1.00D-01 BMatC= 1.54D-11 BMatP= 7.42D-10
 IDIUse=1 WtCom= 1.00D+00 WtEn= 0.00D+00
 Coeff-Com: -0.426D-05 0.709D-05 0.107D-03 0.178D-03 0.514D-03-0.380D-02
 Coeff-Com: -0.139D-01-0.137D-01 0.412D-01 0.989D+00
 Coeff:     -0.426D-05 0.709D-05 0.107D-03 0.178D-03 0.514D-03-0.380D-02
 Coeff:     -0.139D-01-0.137D-01 0.412D-01 0.989D+00
 Gap=     0.349 Goal=   None    Shift=    0.000
 RMSDP=5.09D-08 MaxDP=5.91D-06 DE=-8.79D-10 OVMax= 2.02D-06

 Cycle  11  Pass 1  IDiag  1:
 RMSU=  2.39D-08    CP:  9.25D-01  8.06D-01  1.04D+00  6.90D-01  1.17D+00
[...]
 ScaDFX=  1.000000  1.000000  1.000000  1.000000 ScalE2=  1.000000  1.000000
 IRadAn=      5 IRanWt=     -1 IRanGd=            0 ICorTp=0 IEmpDi=131
 NAtoms=   19 NActive=    8 NUniq=    8 SFac= 1.00D+00 NAtFMM=   60 NAOKFM=F Big=F
 Integral buffers will be    131072 words long.
 Raffenetti 2 integral format.
 Two-electron integral symmetry is turned off.
 R6Disp:  Grimme-D3 Dispersion energy=       -0.0000437195 Hartrees.
 Nuclear repulsion after empirical dispersion term =      280.1810947564 Hartrees.
 No density basis found on file   718.
 Leave Link  301 at Sun Feb 19 12:11:22 2023, MaxMem=  6710886400 cpu:               1.3 elap:               0.1
 (Enter /data0/home/software/g16/l302.exe)
 NPDir=0 NMtPBC=     1 NCelOv=     1 NCel=       1 NClECP=     1 NCelD=      1
         NCelK=      1 NCelE2=     1 NClLst=     1 CellRange=     0.0.
 One-electron integrals computed using PRISM.
 NBasis=   161 RedAO= T EigKep=  5.52D-04  NBF=   161
 NBsUse=   161 1.00D-06 EigRej= -1.00D+00 NBFU=   161
 Precomputing XC quadrature grid using
 IXCGrd= 4 IRadAn=           5 IRanWt=          -1 IRanGd=           0 AccXCQ= 0.00D+00.
 Generated NRdTot=       0 NPtTot=           0 NUsed=           0 NTot=          32
 NSgBfM=   171   171   171   171   171 MxSgAt=     8 MxSgA2=     8.
 Leave Link  302 at Sun Feb 19 12:11:22 2023, MaxMem=  6710886400 cpu:               2.8 elap:               0.1
 (Enter /data0/home/software/g16/l303.exe)
 DipDrv:  MaxL=1.
 Leave Link  303 at Sun Feb 19 12:11:22 2023, MaxMem=  6710886400 cpu:               0.5 elap:               0.0
 (Enter /data0/home/software/g16/l401.exe)
 ExpMin= 3.48D-02 ExpMax= 7.75D+04 ExpMxC= 2.65D+03 IAcc=3 IRadAn=         5 AccDes= 0.00D+00
 Harris functional with IExCor= 1009 and IRadAn=       5 diagonalized for initial guess.
 HarFok:  IExCor= 1009 AccDes= 0.00D+00 IRadAn=         5 IDoV= 1 UseB2=F ITyADJ=14
 ICtDFT=  3500011 ScaDFX=  1.000000  1.000000  1.000000  1.000000
 FoFCou: FMM=F IPFlag=           0 FMFlag=      100000 FMFlg1=           0
         NFxFlg=           0 DoJE=T BraDBF=F KetDBF=T FulRan=T
         wScrn=  0.000000 ICntrl=       500 IOpCl=  0 I1Cent=   200000004 NGrid=           0
         NMat0=    1 NMatS0=      1 NMatT0=    0 NMatD0=    1 NMtDS0=    0 NMtDT0=    0
 Symmetry not used in FoFCou.
 Harris En= -643.942896414412    
 JPrj=0 DoOrth=F DoCkMO=F.
 Leave Link  401 at Sun Feb 19 12:11:22 2023, MaxMem=  6710886400 cpu:               6.0 elap:               0.3
 (Enter /data0/home/software/g16/l502.exe)
 Keep R1 ints in memory in canonical form, NReq=108962347.
 FoFCou: FMM=F IPFlag=           0 FMFlag=           0 FMFlg1=           0
         NFxFlg=           0 DoJE=F BraDBF=F KetDBF=F FulRan=T
         wScrn=  0.000000 ICntrl=       600 IOpCl=  0 I1Cent=           0 NGrid=           0
         NMat0=    1 NMatS0=  13041 NMatT0=    0 NMatD0=    1 NMtDS0=    0 NMtDT0=    0
 Symmetry not used in FoFCou.
 Two-electron integral symmetry not used.
 Closed shell SCF:
 Using DIIS extrapolation, IDIIS=  1040.
 NGot=  6710886400 LenX=  6625781837 LenY=  6625752155
 Requested convergence on RMS density matrix=1.00D-08 within 128 cycles.
 Requested convergence on MAX density matrix=1.00D-06.
 Requested convergence on             energy=1.00D-06.
 No special actions if energy rises.

 Cycle   1  Pass 1  IDiag  1:
 E= -643.863247006367    
 DIIS: error= 4.67D-02 at cycle   1 NSaved=   1.
 NSaved= 1 IEnMin= 1 EnMin= -643.863247006367     IErMin= 1 ErrMin= 4.67D-02
 ErrMax= 4.67D-02  0.00D+00 EMaxC= 1.00D-01 BMatC= 5.05D-01 BMatP= 5.05D-01
 IDIUse=3 WtCom= 5.33D-01 WtEn= 4.67D-01
 Coeff-Com:  0.100D+01
 Coeff-En:   0.100D+01
 Coeff:      0.100D+01
 Gap=     0.272 Goal=   None    Shift=    0.000
 GapD=    0.272 DampG=1.000 DampE=0.500 DampFc=0.5000 IDamp=-1.
 Damping current iteration by 5.00D-01
 RMSDP=6.92D-03 MaxDP=1.44D-01              OVMax= 2.55D-01

 Cycle   2  Pass 1  IDiag  1:
 E= -643.978999788165     Delta-E=       -0.115752781799 Rises=F Damp=T
 DIIS: error= 9.89D-03 at cycle   2 NSaved=   2.
 NSaved= 2 IEnMin= 2 EnMin= -643.978999788165     IErMin= 2 ErrMin= 9.89D-03
 ErrMax= 9.89D-03  0.00D+00 EMaxC= 1.00D-01 BMatC= 2.69D-02 BMatP= 5.05D-01
 IDIUse=3 WtCom= 9.01D-01 WtEn= 9.89D-02
 Coeff-Com:  0.695D-01 0.930D+00
 Coeff-En:   0.201D+00 0.799D+00
 Coeff:      0.825D-01 0.918D+00
 Gap=     0.357 Goal=   None    Shift=    0.000
 RMSDP=1.60D-03 MaxDP=4.91D-02 DE=-1.16D-01 OVMax= 1.65D-01

 Cycle   3  Pass 1  IDiag  1:
 E= -644.142091649870     Delta-E=       -0.163091861704 Rises=F Damp=F
 DIIS: error= 6.42D-03 at cycle   3 NSaved=   3.
 NSaved= 3 IEnMin= 3 EnMin= -644.142091649870     IErMin= 3 ErrMin= 6.42D-03
 ErrMax= 6.42D-03  0.00D+00 EMaxC= 1.00D-01 BMatC= 1.05D-02 BMatP= 2.69D-02
 IDIUse=3 WtCom= 9.36D-01 WtEn= 6.42D-02
 Coeff-Com: -0.150D-01 0.345D+00 0.670D+00
 Coeff-En:   0.000D+00 0.000D+00 0.100D+01
 Coeff:     -0.141D-01 0.323D+00 0.691D+00
 Gap=     0.347 Goal=   None    Shift=    0.000
 RMSDP=6.53D-04 MaxDP=1.53D-02 DE=-1.63D-01 OVMax= 3.46D-02

 Cycle   4  Pass 1  IDiag  1:
 E= -644.146938709092     Delta-E=       -0.004847059222 Rises=F Damp=F
 DIIS: error= 3.79D-03 at cycle   4 NSaved=   4.
 NSaved= 4 IEnMin= 4 EnMin= -644.146938709092     IErMin= 4 ErrMin= 3.79D-03
 ErrMax= 3.79D-03  0.00D+00 EMaxC= 1.00D-01 BMatC= 3.80D-03 BMatP= 1.05D-02
 IDIUse=3 WtCom= 9.62D-01 WtEn= 3.79D-02
 Coeff-Com: -0.208D-01 0.477D-01 0.397D+00 0.577D+00
 Coeff-En:   0.000D+00 0.000D+00 0.265D+00 0.735D+00
 Coeff:     -0.200D-01 0.459D-01 0.392D+00 0.583D+00
 Gap=     0.353 Goal=   None    Shift=    0.000
 RMSDP=2.49D-04 MaxDP=6.20D-03 DE=-4.85D-03 OVMax= 1.11D-02

 Cycle   5  Pass 1  IDiag  1:
 E= -644.149440155865     Delta-E=       -0.002501446773 Rises=F Damp=F
 DIIS: error= 2.52D-04 at cycle   5 NSaved=   5.
 NSaved= 5 IEnMin= 5 EnMin= -644.149440155865     IErMin= 5 ErrMin= 2.52D-04
 ErrMax= 2.52D-04  0.00D+00 EMaxC= 1.00D-01 BMatC= 1.52D-05 BMatP= 3.80D-03
 IDIUse=3 WtCom= 9.97D-01 WtEn= 2.52D-03
 Coeff-Com: -0.244D-02 0.479D-03 0.593D-01 0.122D+00 0.821D+00
 Coeff-En:   0.000D+00 0.000D+00 0.000D+00 0.000D+00 0.100D+01
 Coeff:     -0.244D-02 0.478D-03 0.591D-01 0.122D+00 0.821D+00
 Gap=     0.351 Goal=   None    Shift=    0.000
 RMSDP=2.37D-05 MaxDP=8.63D-04 DE=-2.50D-03 OVMax= 7.63D-04

 Cycle   6  Pass 1  IDiag  1:
 E= -644.149450514904     Delta-E=       -0.000010359039 Rises=F Damp=F
 DIIS: error= 6.58D-05 at cycle   6 NSaved=   6.
 NSaved= 6 IEnMin= 6 EnMin= -644.149450514904     IErMin= 6 ErrMin= 6.58D-05
 ErrMax= 6.58D-05  0.00D+00 EMaxC= 1.00D-01 BMatC= 1.08D-06 BMatP= 1.52D-05
 IDIUse=1 WtCom= 1.00D+00 WtEn= 0.00D+00
 Coeff-Com:  0.391D-04-0.146D-02 0.170D-02 0.105D-01 0.213D+00 0.776D+00
 Coeff:      0.391D-04-0.146D-02 0.170D-02 0.105D-01 0.213D+00 0.776D+00
 Gap=     0.352 Goal=   None    Shift=    0.000
 RMSDP=8.70D-06 MaxDP=2.35D-04 DE=-1.04D-05 OVMax= 2.15D-04

 Cycle   7  Pass 1  IDiag  1:
 E= -644.149451315830     Delta-E=       -0.000000800926 Rises=F Damp=F
 DIIS: error= 2.44D-05 at cycle   7 NSaved=   7.
 NSaved= 7 IEnMin= 7 EnMin= -644.149451315830     IErMin= 7 ErrMin= 2.44D-05
 ErrMax= 2.44D-05  0.00D+00 EMaxC= 1.00D-01 BMatC= 1.81D-07 BMatP= 1.08D-06
 IDIUse=1 WtCom= 1.00D+00 WtEn= 0.00D+00
 Coeff-Com:  0.337D-03-0.578D-03-0.768D-02-0.126D-01-0.208D-01 0.278D+00
 Coeff-Com:  0.764D+00
 Coeff:      0.337D-03-0.578D-03-0.768D-02-0.126D-01-0.208D-01 0.278D+00
 Coeff:      0.764D+00
 Gap=     0.352 Goal=   None    Shift=    0.000
 RMSDP=2.83D-06 MaxDP=6.00D-05 DE=-8.01D-07 OVMax= 8.80D-05

 Cycle   8  Pass 1  IDiag  1:
 E= -644.149451435611     Delta-E=       -0.000000119781 Rises=F Damp=F
 DIIS: error= 1.19D-05 at cycle   8 NSaved=   8.
 NSaved= 8 IEnMin= 8 EnMin= -644.149451435611     IErMin= 8 ErrMin= 1.19D-05
 ErrMax= 1.19D-05  0.00D+00 EMaxC= 1.00D-01 BMatC= 3.52D-08 BMatP= 1.81D-07
 IDIUse=1 WtCom= 1.00D+00 WtEn= 0.00D+00
 Coeff-Com:  0.148D-03-0.190D-03-0.378D-02-0.633D-02-0.184D-01 0.892D-01
 Coeff-Com:  0.384D+00 0.556D+00
 Coeff:      0.148D-03-0.190D-03-0.378D-02-0.633D-02-0.184D-01 0.892D-01
 Coeff:      0.384D+00 0.556D+00
 Gap=     0.352 Goal=   None    Shift=    0.000
 RMSDP=7.80D-07 MaxDP=2.27D-05 DE=-1.20D-07 OVMax= 3.70D-05

 Cycle   9  Pass 1  IDiag  1:
 E= -644.149451460184     Delta-E=       -0.000000024573 Rises=F Damp=F
 DIIS: error= 1.62D-06 at cycle   9 NSaved=   9.
 NSaved= 9 IEnMin= 9 EnMin= -644.149451460184     IErMin= 9 ErrMin= 1.62D-06
 ErrMax= 1.62D-06  0.00D+00 EMaxC= 1.00D-01 BMatC= 7.33D-10 BMatP= 3.52D-08
 IDIUse=1 WtCom= 1.00D+00 WtEn= 0.00D+00
 Coeff-Com: -0.265D-04 0.501D-04 0.287D-03 0.596D-03-0.406D-03-0.203D-01
 Coeff-Com: -0.342D-01 0.646D-01 0.989D+00
 Coeff:     -0.265D-04 0.501D-04 0.287D-03 0.596D-03-0.406D-03-0.203D-01
 Coeff:     -0.342D-01 0.646D-01 0.989D+00
 Gap=     0.352 Goal=   None    Shift=    0.000
 RMSDP=2.84D-07 MaxDP=7.70D-06 DE=-2.46D-08 OVMax= 8.90D-06

 Cycle  10  Pass 1  IDiag  1:
 E= -644.149451461087     Delta-E=       -0.000000000903 Rises=F Damp=F
 DIIS: error= 2.07D-07 at cycle  10 NSaved=  10.
 NSaved=10 IEnMin=10 EnMin= -644.149451461087     IErMin=10 ErrMin= 2.07D-07
 ErrMax= 2.07D-07  0.00D+00 EMaxC= 1.00D-01 BMatC= 1.56D-11 BMatP= 7.33D-10
 IDIUse=1 WtCom= 1.00D+00 WtEn= 0.00D+00
 Coeff-Com: -0.354D-05 0.579D-05 0.107D-03 0.174D-03 0.518D-03-0.370D-02
 Coeff-Com: -0.137D-01-0.140D-01 0.385D-01 0.992D+00
 Coeff:     -0.354D-05 0.579D-05 0.107D-03 0.174D-03 0.518D-03-0.370D-02
 Coeff:     -0.137D-01-0.140D-01 0.385D-01 0.992D+00
 Gap=     0.352 Goal=   None    Shift=    0.000
 RMSDP=5.45D-08 MaxDP=8.02D-07 DE=-9.03D-10 OVMax= 2.03D-06

 Cycle  11  Pass 1  IDiag  1:
 E= -644.149451461109     Delta-E=       -0.000000000023 Rises=F Damp=F
 DIIS: error= 1.70D-07 at cycle  11 NSaved=  11.
 NSaved=11 IEnMin=11 EnMin= -644.149451461109     IErMin=11 ErrMin= 1.70D-07
 ErrMax= 1.70D-07  0.00D+00 EMaxC= 1.00D-01 BMatC= 7.37D-12 BMatP= 1.56D-11
 IDIUse=1 WtCom= 1.00D+00 WtEn= 0.00D+00
 Coeff-Com:  0.434D-06-0.111D-05 0.294D-04 0.375D-04 0.264D-03-0.363D-03
 Coeff-Com: -0.385D-02-0.108D-01-0.529D-01 0.469D+00 0.598D+00
 Coeff:      0.434D-06-0.111D-05 0.294D-04 0.375D-04 0.264D-03-0.363D-03
 Coeff:     -0.385D-02-0.108D-01-0.529D-01 0.469D+00 0.598D+00
 Gap=     0.352 Goal=   None    Shift=    0.000
 RMSDP=1.58D-08 MaxDP=4.47D-07 DE=-2.25D-11 OVMax= 7.56D-07

 Cycle  12  Pass 1  IDiag  1:
 E= -644.149451461114     Delta-E=       -0.000000000004 Rises=F Damp=F
 DIIS: error= 4.61D-08 at cycle  12 NSaved=  12.
 NSaved=12 IEnMin=12 EnMin= -644.149451461114     IErMin=12 ErrMin= 4.61D-08
 ErrMax= 4.61D-08  0.00D+00 EMaxC= 1.00D-01 BMatC= 5.90D-13 BMatP= 7.37D-12
 IDIUse=1 WtCom= 1.00D+00 WtEn= 0.00D+00
 Coeff-Com:  0.670D-06-0.123D-05-0.497D-05-0.114D-04 0.972D-05 0.390D-03
 Coeff-Com:  0.935D-03-0.120D-02-0.231D-01 0.304D-03 0.219D+00 0.803D+00
 Coeff:      0.670D-06-0.123D-05-0.497D-05-0.114D-04 0.972D-05 0.390D-03
 Coeff:      0.935D-03-0.120D-02-0.231D-01 0.304D-03 0.219D+00 0.803D+00
 Gap=     0.352 Goal=   None    Shift=    0.000
 RMSDP=6.47D-09 MaxDP=9.40D-08 DE=-4.43D-12 OVMax= 2.22D-07

 SCF Done:  E(RM062X) =  -644.149451461     A.U. after   12 cycles
            NFock= 12  Conv=0.65D-08     -V/T= 2.0025
 KE= 6.425342590942D+02 PE=-2.088078459950D+03 EE= 5.212136546387D+02
 Leave Link  502 at Sun Feb 19 12:11:27 2023, MaxMem=  6710886400 cpu:             102.5 elap:               5.5
 (Enter /data0/home/software/g16/l601.exe)
 Copying SCF densities to generalized density rwf, IOpCl= 0 IROHF=0.

 **********************************************************************

            Population analysis using the SCF density.

 **********************************************************************

 Alpha  occ. eigenvalues --  -78.16720 -19.68944 -19.68898 -19.67635 -19.58218
 Alpha  occ. eigenvalues --   -6.97511  -5.09429  -5.09410  -5.09176  -1.24458
 Alpha  occ. eigenvalues --   -1.17048  -1.16644  -1.08698  -0.72668  -0.66114
 Alpha  occ. eigenvalues --   -0.64425  -0.55730  -0.55641  -0.51400  -0.48734
 Alpha  occ. eigenvalues --   -0.48102  -0.45053  -0.44201  -0.37917  -0.37483
 Alpha virt. eigenvalues --   -0.02302   0.01434   0.01825   0.04725   0.09160
 Alpha virt. eigenvalues --    0.09439   0.12226   0.15070   0.15208   0.16208
 Alpha virt. eigenvalues --    0.17722   0.18180   0.18846   0.19589   0.21522
 Alpha virt. eigenvalues --    0.21857   0.24628   0.25436   0.25704   0.27325
 Alpha virt. eigenvalues --    0.28394   0.29186   0.29908   0.31219   0.32861
 Alpha virt. eigenvalues --    0.34706   0.35557   0.36474   0.39141   0.44133
 Alpha virt. eigenvalues --    0.46128   0.48521   0.53162   0.55674   0.56948
 Alpha virt. eigenvalues --    0.74023   0.76022   0.76810   0.86345   0.96971
 Alpha virt. eigenvalues --    0.98668   1.02284   1.05350   1.07414   1.10404
 Alpha virt. eigenvalues --    1.13128   1.15578   1.17630   1.19856   1.20602
 Alpha virt. eigenvalues --    1.22230   1.24296   1.25154   1.28006   1.32257
 Alpha virt. eigenvalues --    1.37306   1.38605   1.44941   1.47883   1.48246
 Alpha virt. eigenvalues --    1.53605   1.55648   1.58678   1.61280   1.66314
 Alpha virt. eigenvalues --    1.68372   1.69342   1.69873   1.74980   1.80202
 Alpha virt. eigenvalues --    1.82375   1.84405   1.85941   1.93712   1.98526
 Alpha virt. eigenvalues --    2.01494   2.03400   2.05325   2.11567   2.16323
 Alpha virt. eigenvalues --    2.21468   2.23451   2.25775   2.34789   2.43614
 Alpha virt. eigenvalues --    2.49372   2.56781   2.59391   2.63528   2.69962
 Alpha virt. eigenvalues --    2.73430   2.84505   2.86341   2.90138   2.92909
 Alpha virt. eigenvalues --    5.01127   5.03969   5.06559   5.07653   5.10336
 Alpha virt. eigenvalues --    5.13574   5.19185   5.21986   5.35471   5.45747
 Alpha virt. eigenvalues --    5.48174   5.53345   6.72057   6.74018   6.74466
 Alpha virt. eigenvalues --    6.76009   6.78239   6.80764   6.84270   6.85571
 Alpha virt. eigenvalues --    6.89608   6.92228   6.97150   6.98614   6.99999
 Alpha virt. eigenvalues --    7.03726   7.08138   7.21576   7.27163   7.28738
 Alpha virt. eigenvalues --    7.32846   7.39665   7.64251  14.21742  14.24846
 Alpha virt. eigenvalues --   14.35798  49.98165  49.99578  50.00835  50.10443
 Alpha virt. eigenvalues --  163.85719
          Condensed to atoms (all electrons):
              12         13         14         15         16         17
    12  P   12.441115   0.563455   0.171866   0.041976   0.250737  -0.000492
    13  O    0.563455   8.126022  -0.031871   0.006109  -0.014931  -0.012986
    14  O    0.171866  -0.031871   8.113550   0.228283   0.029674  -0.005825
    15  H    0.041976   0.006109   0.228283   0.448886  -0.015532   0.000692
    16  O    0.250737  -0.014931   0.029674  -0.015532   8.077441   0.270630
    17  H   -0.000492  -0.012986  -0.005825   0.000692   0.270630   0.400031
    18  O    0.244555  -0.017565   0.002837  -0.018477  -0.003633   0.004772
    19  H    0.011446  -0.008114  -0.000505   0.001985  -0.007521   0.001033
              18         19
    12  P    0.244555   0.011446
    13  O   -0.017565  -0.008114
    14  O    0.002837  -0.000505
    15  H   -0.018477   0.001985
    16  O   -0.003633  -0.007521
    17  H    0.004772   0.001033
    18  O    8.083405   0.255585
    19  H    0.255585   0.413190
 Mulliken charges:
               1
     1  C    0.000000
     2  C    0.000000
     3  C    0.000000
     4  C    0.000000
     5  C    0.000000
     6  N    0.000000
     7  H    0.000000
     8  H    0.000000
     9  H    0.000000
    10  H    0.000000
    11  H    0.000000
    12  P    1.275343
    13  O   -0.610118
    14  O   -0.508008
    15  H    0.306080
    16  O   -0.586864
    17  H    0.342146
    18  O   -0.551478
    19  H    0.332900
 Sum of Mulliken charges =  -0.00000
 Mulliken charges with hydrogens summed into heavy atoms:
               1
     1  C    0.000000
     2  C    0.000000
     3  C    0.000000
     4  C    0.000000
     5  C    0.000000
     6  N    0.000000
    12  P    1.275343
    13  O   -0.610118
    14  O   -0.201928
    16  O   -0.244718
    18  O   -0.218578
         Mulliken charges condensed to fragments:
      1      0.000000
      2     -0.000000
 Electronic spatial extent (au):  <R**2>=          41447.8156
 Charge=             -0.0000 electrons
 Dipole moment (field-independent basis, Debye):
    X=             -2.6937    Y=             -1.3017    Z=              3.6355  Tot=              4.7082
 Quadrupole moment (field-independent basis, Debye-Ang):
   XX=           -102.1967   YY=            -46.9217   ZZ=             10.8540
   XY=            -31.7527   XZ=             31.9335   YZ=             14.1909
 Traceless Quadrupole moment (field-independent basis, Debye-Ang):
   XX=            -56.1085   YY=             -0.8336   ZZ=             56.9421
   XY=            -31.7527   XZ=             31.9335   YZ=             14.1909
 Octapole moment (field-independent basis, Debye-Ang**2):
  XXX=          -2595.9947  YYY=           -640.4727  ZZZ=           -236.7736  XYY=           -679.9712
  XXY=           -784.4471  XXZ=              0.9962  XZZ=             70.1996  YZZ=             41.2819
  YYZ=           -150.3184  XYZ=             96.3751
 Hexadecapole moment (field-independent basis, Debye-Ang**3):
 XXXX=         -55189.7427 YYYY=          -6593.9305 ZZZZ=          -5065.6963 XXXY=         -17206.2821
 XXXZ=          -7992.3607 YYYX=          -8600.2198 YYYZ=          -3057.8737 ZZZX=          -3255.8802
 ZZZY=          -1277.9723 XXYY=         -10794.8035 XXZZ=          -1501.3730 YYZZ=          -1091.8118
 XXYZ=          -1082.2424 YYXZ=          -2385.9082 ZZXY=             89.9567
 N-N= 2.801810947564D+02 E-N=-2.088078463246D+03  KE= 6.425342590942D+02
 No NMR shielding tensors so no spin-rotation constants.
 Leave Link  601 at Sun Feb 19 12:11:28 2023, MaxMem=  6710886400 cpu:               1.9 elap:               0.1
 (Enter /data0/home/software/g16/l122.exe)
 CPIOFr:  IOpCl= 0 IRwI=-1 IRwCP=  731 ICalc=  4 LCPTot=      192217 Len1MO=      505607 IndFrg=     2720252
 Restoring MOs from calculation   1 to rwf.
 CPIOFr:  IOpCl= 0 IRwI=-2 IRwCP=  731 ICalc=  0 LCPTot=      192217 Len1MO=      505607 IndFrg=      697824
 Counterpoise corrected energy =    -892.421096791060
                   BSSE energy =       0.001014970813
              sum of fragments =    -892.394177263723
           complexation energy =     -17.53 kcal/mole (raw)
           complexation energy =     -16.89 kcal/mole (corrected)
 Leave Link  122 at Sun Feb 19 12:11:28 2023, MaxMem=  6710886400 cpu:               0.2 elap:               0.0
 (Enter /data0/home/software/g16/l9999.exe)
 1\1\GINC-LOCALHOST\SP\RM062X\6-311+G(2d,p)\C5H8N1O4P1\WUHANYU\19-Feb-2
 023\0\\#p M062X/6-311+G(2d,p) nosymm em=GD3 counterpoise=2\\Title Card
  Required\\0,1\C,0,12.290676,9.200288,9.500115\C,0,12.883021,10.379091
 ,9.966227\C,0,13.938821,10.926907,9.238544\C,0,14.36965,10.290025,8.07
 7426\C,0,13.723931,9.112586,7.676659\N,0,12.703638,8.582238,8.376735\H
 ,0,14.421426,11.843907,9.576385\H,0,11.458977,8.721957,10.030335\H,0,1
 2.526343,10.853914,10.875393\H,0,15.191258,10.691651,7.491061\H,0,14.0
 27041,8.567609,6.768997\P,0,12.638642,5.4428,6.381676\O,0,13.070413,6.
 401,5.362707\O,0,13.91517,4.816378,7.095938\H,0,13.600535,4.055842,7.7
 12065\O,0,11.7049,6.020409,7.531657\H,0,12.060355,6.963626,7.837443\O,
 0,11.832608,4.167941,5.898838\H,0,10.800121,4.377383,5.933475\\Version
 =ES64L-G16RevA.03\HF=-644.1494515\RMSD=6.466e-09\Dipole=-0.4111111,0.9
 254332,1.9133494\Quadrupole=-41.0244242,13.6909199,27.3335043,23.85970
 72,42.6646166,41.6856773\PG=C01 [X(C5H8N1O4P1)]\\@


 MOST BUREAUCRACIES FUNCTION LIKE A SEPTIC TANK.
 THE LARGE CHUNKS RISE TO THE TOP.
 Job cpu time:       0 days  0 hours 37 minutes 26.7 seconds.
 Elapsed time:       0 days  0 hours  1 minutes 38.3 seconds.
 File lengths (MBytes):  RWF=     98 Int=      0 D2E=      0 Chk=     29 Scr=      1
 Normal termination of Gaussian 16 at Sun Feb 19 12:11:28 2023.
