          14
 G =        0.013928 Gcorr = 0.066789 a.u. Nimag =   0 Frame:     1 Step:     1 Geom:     1
C          10.20261500     17.95899800      7.40233800
C           9.90943900     17.59168600      6.08370700
C           9.47838100     18.57757300      5.19780400
C           9.35233000     19.89099800      5.64647000
C           9.66549400     20.17550800      6.98118600
N          10.08314200     19.22701400      7.84076300
H           9.24187100     18.32379500      4.16451900
H          10.54488300     17.22906100      8.14710900
H          10.01621000     16.55946500      5.76247700
H           9.01804700     20.67998200      4.97887500
H           9.58459200     21.18917000      7.39202800
O          11.11239300     19.58135200     10.34633300
H          11.88118100     19.66531600      9.79096800
H          10.37943000     19.51009400      9.70542800
          14
 G =        0.017532 Gcorr = 0.070392 a.u. Nimag =   1 Frame:     2 Step:     2 Geom:     2
C          10.66880200     18.09993500      7.16380400
C          10.51600800     17.92837200      5.78273200
C           9.66890600     18.79424400      5.09345100
C           9.00311000     19.79899900      5.79317300
C           9.21053600     19.90327700      7.17381200
N          10.02833700     19.06950900      7.84441500
H           9.52821300     18.68643700      4.01799900
H          11.32004500     17.44951800      7.76070300
H          11.04762800     17.13581500      5.26384900
H           8.33624400     20.48796600      5.28262300
H           8.71429200     20.67222100      7.77896300
O          10.65262200     19.64433300     10.44427700
H          11.28620600     20.16145800      9.95684800
H          10.14905700     19.18793300      9.74335500
          14
 G =        0.014322 Gcorr = 0.067182 a.u. Nimag =   0 Frame:     3 Step:     3 Geom:     3
C           9.88490600     17.82720400      7.31794000
C           9.51530000     17.67841900      5.97565300
C           9.37835500     18.82233100      5.19141500
C           9.61142700     20.07281500      5.76109900
C           9.97763300     20.13529100      7.11078100
N          10.11210700     19.03275600      7.87286100
H           9.09146500     18.73987000      4.14312600
H          10.00696400     16.96479400      7.98435200
H           9.33939400     16.69083400      5.55895700
H           9.51145700     20.98171700      5.17459900
H          10.17329700     21.08933300      7.61707400
O          11.19651300     19.61423100     10.31117400
H          10.46533800     19.34269400      9.72402600
H          11.96585400     19.52772600      9.75694900
          14
 G =        0.017530 Gcorr = 0.070390 a.u. Nimag =   1 Frame:     4 Step:     4 Geom:     4
C           9.08877200     18.39305400      7.45769900
C           8.68678400     18.26815600      6.12235900
C           9.49135000     18.82426600      5.12949700
C          10.66451500     19.48410700      5.49120400
C          10.99508100     19.56535700      6.84913700
N          10.22073300     19.03025200      7.81249600
H           9.20610000     18.74366000      4.08061600
H           8.49839900     17.97541600      8.28243000
H           7.76728500     17.74763700      5.87027100
H          11.31157200     19.92649300      4.73909200
H          11.90527600     20.07048200      7.19631400
O          10.89257600     19.68444200     10.38008300
H          10.85707200     19.08526000      9.61022100
H          10.35449000     20.42143400     10.10858600
          14
 G =        0.017519 Gcorr = 0.070379 a.u. Nimag =   1 Frame:     5 Step:     5 Geom:     5
C           8.95255700     18.96322300      7.47397400
C           8.53736400     18.64592100      6.17511100
C           9.48957900     18.62510500      5.15763200
C          10.81815400     18.91852600      5.45965900
C          11.15119100     19.22593100      6.78429500
N          10.23507800     19.24674100      7.77115600
H           9.19811100     18.38211700      4.13586600
H           8.24997100     18.99684700      8.31585400
H           7.49447300     18.42220100      5.96927700
H          11.58179200     18.91076600      4.68712600
H          12.17898300     19.46630600      7.08351900
O          11.04820900     19.45098100     10.37412700
H          10.72587400     19.80971700      9.52525600
H          11.10867100     18.51563200     10.20715400
          14
 G =        0.013904 Gcorr = 0.066764 a.u. Nimag =   0 Frame:     6 Step:     6 Geom:     6
C           9.27156200     19.76524100      7.32516000
C           8.86783600     19.71905800      5.98551300
C           9.43637800     18.75821300      5.15116200
C          10.38337400     17.87728800      5.67027700
C          10.73241200     17.98972700      7.02153800
N          10.18677800     18.91670200      7.83157100
H           9.14307800     18.69619700      4.10323000
H           8.86002100     20.49761000      8.03113300
H           8.12668900     20.41828300      5.60891500
H          10.84281000     17.11789400      5.04401200
H          11.46998300     17.32462100      7.48711200
O          11.07350500     19.49287900     10.35207100
H          10.54127500     18.99290700      9.70396400
H          11.62430700     20.04339000      9.80434900
          14
 G =        0.017536 Gcorr = 0.070396 a.u. Nimag =   1 Frame:     7 Step:     7 Geom:     7
C           8.95240700     19.38883000      7.41552600
C           8.56421000     19.26444800      6.07615200
C           9.47815200     18.74088800      5.16344700
C          10.74311200     18.35885300      5.60656300
C          11.05280100     18.51584200      6.96286000
N          10.17360500     19.02182800      7.84863400
H           9.20623300     18.63098500      4.11368300
H           8.27732600     19.79250000      8.18030900
H           7.57094400     19.56996700      5.75975600
H          11.47570000     17.94711800      4.91821900
H          12.03074900     18.23246300      7.37143800
O          10.99791500     19.67216300     10.37391500
H          10.60209700     19.08106900      9.70524500
H          11.21475900     20.45306200      9.87425600
          14
 G =        0.014515 Gcorr = 0.067375 a.u. Nimag =   0 Frame:     8 Step:     8 Geom:     8
C           8.80187400     19.05550900      7.39369600
C           8.53598700     18.95322600      6.02279100
C           9.60480700     18.76208900      5.14911200
C          10.89861500     18.67877200      5.66077100
C          11.07931200     18.79107700      7.04434400
N          10.04980500     18.97665000      7.89299800
H           9.43071700     18.67821200      4.07642100
H           8.00235700     19.20489700      8.12936600
H           7.51697300     19.02120500      5.65278300
H          11.75086700     18.52912100      5.00401400
H          12.07243100     18.73250300      7.50822600
O          10.92515900     19.50676500     10.42475700
H          10.49686900     18.94619800      9.74987000
H          10.95423200     20.36379200     10.01085100
          14
 G =        0.014834 Gcorr = 0.067695 a.u. Nimag =   0 Frame:     9 Step:     9 Geom:     9
C           9.50820000     18.20407800      7.54439100
C           9.00886600     17.89308700      6.27422800
C           9.48153200     18.61270100      5.17810600
C          10.43069800     19.61367800      5.37630400
C          10.87914700     19.86268900      6.67922000
N          10.42510400     19.17120300      7.74147300
H           9.11276000     18.39439400      4.17596700
H           9.17735200     17.67310500      8.44645500
H           8.26972800     17.10672200      6.14998900
H          10.81758200     20.19020200      4.54094000
H          11.62541200     20.63622900      6.89703100
O          10.77451200     19.60637800     10.41452900
H          10.01708900     20.14853000     10.21725600
H          11.07201900     19.30702100      9.53411100
          14
 G =        0.014837 Gcorr = 0.067697 a.u. Nimag =   0 Frame:    10 Step:    10 Geom:    10
C           9.03405900     19.68298000      7.21793200
C           8.64373900     19.32161000      5.92269900
C           9.50824600     18.53830300      5.16025200
C          10.72788800     18.13959500      5.70443700
C          11.04284400     18.54316200      7.00729800
N          10.21053600     19.29962700      7.74871800
H           9.23348300     18.24077200      4.14832400
H           8.39718000     20.29875400      7.86427800
H           7.68714300     19.64764000      5.52455800
H          11.42222400     17.52982800      5.13335200
H          11.98750200     18.26305700      7.49144600
O          11.15378700     19.47850800     10.30223400
H          10.93183100     19.85748900      9.43044300
H          10.66954400     18.65868900     10.31403400
          14
 G =        0.013704 Gcorr = 0.066565 a.u. Nimag =   0 Frame:    11 Step:    11 Geom:    11
C           9.02651000     19.35269600      7.42469100
C           8.61919400     19.24216100      6.08993200
C           9.53895100     18.78319700      5.14865100
C          10.82815400     18.44979000      5.55983400
C          11.15590600     18.58875700      6.91398600
N          10.27140700     19.03246400      7.82711500
H           9.25266800     18.68567700      4.10148700
H           8.34873600     19.70641800      8.21206600
H           7.60713200     19.50862700      5.79874500
H          11.56578300     18.08887000      4.84878800
H          12.15325100     18.34114800      7.29730000
O          10.81553800     19.74433300     10.40796300
H          10.61888500     19.09834100      9.70292200
H          10.98788600     20.54753000      9.92652500
          14
 G =        0.014736 Gcorr = 0.067596 a.u. Nimag =   0 Frame:    12 Step:    12 Geom:    12
C           8.91558800     18.65619800      7.47978000
C           8.57980000     18.50461200      6.12892900
C           9.57661600     18.67932800      5.17071800
C          10.87000000     18.99764000      5.58100900
C          11.12312300     19.13148000      6.95126900
N          10.16316300     18.96450800      7.88143600
H           9.34702700     18.56773800      4.11107800
H           8.17487800     18.52981300      8.27848700
H           7.56318900     18.25540500      5.83866200
H          11.66743400     19.13871000      4.85696200
H          12.12038000     19.37928900      7.33775900
O          11.12218400     19.69494100     10.32821300
H          10.79186600     19.03660000      9.68775700
H          10.83475700     20.52375100      9.95794300
          14
 G =        0.013597 Gcorr = 0.066457 a.u. Nimag =   0 Frame:    13 Step:    13 Geom:    13
C           9.04654000     19.29150900      7.42254100
C           8.56572700     18.94371400      6.15443900
C           9.48467700     18.59808700      5.16527900
C          10.84596100     18.60813600      5.46426900
C          11.24458000     18.96781600      6.75725700
N          10.36066600     19.30208100      7.71671800
H           9.14237000     18.32288800      4.16771200
H           8.37299300     19.57408100      8.24118200
H           7.49877500     18.94529800      5.95037800
H          11.58500300     18.34401600      4.71320200
H          12.30087800     18.99532400      7.05223700
O          11.15795000     19.59200600     10.31673200
H          10.99908700     18.65564500     10.24843900
H          10.95480100     19.91941700      9.41962200
          14
 G =        0.013299 Gcorr = 0.066159 a.u. Nimag =   0 Frame:    14 Step:    14 Geom:    14
C           9.60600000     20.08631700      7.13658100
C           9.01422700     19.88356800      5.88399200
C           9.27517000     18.69264000      5.20878100
C          10.11149900     17.74433300      5.79514700
C          10.66363800     18.02409900      7.05086700
N          10.41407700     19.17299100      7.70777900
H           8.82996900     18.50479500      4.23178800
H           9.43960900     21.00333800      7.71530000
H           8.36700400     20.64116800      5.45136500
H          10.33335600     16.80749900      5.29199600
H          11.32965900     17.31816600      7.56245700
O          11.19346400     19.43469100     10.31742500
H          11.30176300     19.54806800      9.35380500
H          10.35057100     18.99833700     10.39272000
          14
 G =        0.014034 Gcorr = 0.066895 a.u. Nimag =   0 Frame:    15 Step:    15 Geom:    15
C           9.40735100     20.10973700      7.08401000
C           8.87285600     19.75340800      5.83990500
C           9.26963800     18.54751200      5.26485000
C          10.18046300     17.73631700      5.93933600
C          10.66764800     18.16518700      7.17966100
N          10.28681600     19.32931700      7.74010500
H           8.87190900     18.24201000      4.29712100
H           9.13417900     21.04613800      7.58538600
H           8.16506400     20.40618200      5.33707700
H          10.50851900     16.79155800      5.51520500
H          11.38728300     17.57219700      7.75855600
O          11.16745500     19.60082900     10.31178900
H          11.17080000     19.81826500      9.36004800
H          10.37002700     19.09135500     10.41695200
          14
 G =        0.013563 Gcorr = 0.066423 a.u. Nimag =   0 Frame:    16 Step:    16 Geom:    16
C           9.42706200     19.98824000      7.20049400
C           8.89460300     19.72243400      5.93317700
C           9.39672300     18.63991900      5.21319700
C          10.40712500     17.85850300      5.77088900
C          10.88525600     18.19160500      7.04382200
N          10.40291000     19.23609000      7.74396600
H           9.00347500     18.40693400      4.22370400
H           9.07366700     20.82608500      7.81413100
H           8.10778000     20.34947000      5.52361200
H          10.81804500     17.00899300      5.23281900
H          11.67990800     17.61587200      7.53456700
O          11.14170100     19.51151400     10.36280500
H          11.20488800     19.70597900      9.40807500
H          10.40686100     18.90837600     10.41474400
          14
 G =        0.008348 Gcorr = 0.050269 a.u. Nimag =   1 Frame:    17 Step:    17 Geom:    17
C           8.67915900     17.80830500      6.10366000
C           8.65460100     19.12128600      6.59195600
C           9.82897100     19.86978000      6.54593700
C          10.98368800     19.29433500      6.01963400
C          10.92007100     17.97479500      5.55301200
N           9.79002800     17.24475900      5.59377000
H           9.84416700     20.89368100      6.91737200
H           7.78671500     17.17237400      6.11397600
H           7.73917800     19.54166300      6.99600200
H          11.91361300     19.85181100      5.97024900
H          11.79557300     17.47021500      5.12889300
O          11.16495700      0.31172000     10.68692000
H          10.25687600      0.27414000     10.39198700
H          11.54240900      1.07114200     10.24663400
          14
 G =        0.014080 Gcorr = 0.066940 a.u. Nimag =   0 Frame:    18 Step:    18 Geom:    18
C           9.09987500     18.96352200      7.63055400
C           8.45091200     18.86308500      6.39425100
C           9.22687000     18.78297000      5.23924000
C          10.61618900     18.80485400      5.34708600
C          11.18725700     18.90731800      6.62138200
N          10.44219700     18.98587200      7.74017500
H           8.75189000     18.70362700      4.26143200
H           8.54491500     19.02848600      8.57525600
H           7.36601500     18.84745900      6.34104300
H          11.24628000     18.74327200      4.46440800
H          12.27374100     18.92805600      6.76956000
O          11.28159000     19.57356500     10.27232800
H          11.14546500     18.97260400      9.51508400
H          11.12680800     20.43531600      9.89820500
          14
 G =        0.019173 Gcorr = 0.061081 a.u. Nimag =   4 Frame:    19 Step:    19 Geom:    19
C           9.79238200     17.63827300      7.23087900
C           8.94154600     17.96718500      6.16747000
C           9.14638700     19.17345400      5.50075100
C          10.18343600     20.00995500      5.90856500
C          10.98731900     19.60364400      6.98176800
N          10.79638000     18.44036600      7.63124500
H           8.50282200     19.45942100      4.66975300
H           9.67936200     16.70377600      7.79214200
H           8.14228500     17.29448600      5.87312900
H          10.36802800     20.95574800      5.40924900
H          11.81708400     20.21973800      7.34627500
O          10.32986900      0.30029100      9.79916900
H          10.85107000      0.15152300     10.58600500
H          10.60203600     -0.37784900      9.18360400
          14
 G =        0.014058 Gcorr = 0.066919 a.u. Nimag =   0 Frame:    20 Step:    20 Geom:    20
C           8.96556600     18.57996300      7.40317700
C           8.74736400     18.25055100      6.05992500
C           9.72461800     18.58542500      5.12443000
C          10.88291100     19.23389400      5.54918600
C          11.02418900     19.52769500      6.91058600
N          10.08308500     19.20556200      7.81881400
H           9.58431600     18.34294500      4.07108600
H           8.23291600     18.34342100      8.18427600
H           7.83431000     17.74554100      5.75789900
H          11.66122700     19.50793100      4.84264200
H          11.91177000     20.03764100      7.30655300
O          10.91476300     19.60611900     10.38989800
H          11.26231800     18.74251300     10.19013800
H          10.38065100     19.82081100      9.60139500
          14
 G =        0.014114 Gcorr = 0.066974 a.u. Nimag =   0 Frame:    21 Step:    21 Geom:    21
C           9.18920200     18.61523100      7.63646500
C           8.54390800     18.43088700      6.40792300
C           9.22486800     18.77071100      5.24028800
C          10.51902500     19.28036000      5.32825800
C          11.09332500     19.43399500      6.59593400
N          10.43948100     19.10810400      7.72698600
H           8.75014700     18.63885900      4.26803600
H           8.70670300     18.36561200      8.59014800
H           7.53472600     18.03063900      6.37015300
H          11.07411900     19.55312900      4.43528800
H          12.10804600     19.82847100      6.72852700
O          11.17489400     19.66654400     10.29801600
H          11.21151000     19.14653700      9.47254900
H          10.70005500     20.45092800     10.04142800
