Title Card Required                                                     
Freq      RB3LYP                                                      6-311G(d,p)         
Number of atoms                            I               11
Info1-9                                    I   N=           9
          22          20        1002           0           0         100
           6          18        -502
Full Title                                 C   N=           2
Title Card Required     
Route                                      C   N=           3
#p opt freq B3LYP/6-311G** em=GD3BJ 
Charge                                     I                0
Multiplicity                               I                1
Number of electrons                        I               42
Number of alpha electrons                  I               21
Number of beta electrons                   I               21
Number of basis functions                  I              138
Number of independent functions            I              138
Number of point charges in /Mol/           I                0
Number of translation vectors              I                0
Atomic numbers                             I   N=          11
           6           6           6           6           6           7
           1           1           1           1           1
Nuclear charges                            R   N=          11
  6.00000000E+00  6.00000000E+00  6.00000000E+00  6.00000000E+00  6.00000000E+00
  7.00000000E+00  1.00000000E+00  1.00000000E+00  1.00000000E+00  1.00000000E+00
  1.00000000E+00
Current cartesian coordinates              R   N=          33
 -2.15622107E+00 -1.36127222E+00 -4.09272437E-04 -2.25983016E+00  1.26901493E+00
 -2.31272750E-04  3.26519445E-04  2.61189797E+00  1.83569815E-04  2.26014701E+00
  1.26847848E+00  4.02662236E-04  2.15588329E+00 -1.36178079E+00  2.33318302E-04
 -3.31916903E-04 -2.67725830E+00 -1.77483697E-04  5.19910411E-04  4.66019595E+00
  3.19554706E-04 -3.88538036E+00 -2.46751870E+00 -7.05598864E-04 -4.06718987E+00
  2.22980560E+00 -4.54102818E-04  4.06778071E+00  2.22875670E+00  6.60710902E-04
  3.88475948E+00 -2.46846160E+00  3.47790964E-04
Number of symbols in /Mol/                 I                0
Force Field                                I                0
Atom Types                                 C   N=          11
                                                            
                                                            
            
Int Atom Types                             I   N=          11
           0           0           0           0           0           0
           0           0           0           0           0
MM charges                                 R   N=          11
  0.00000000E+00  0.00000000E+00  0.00000000E+00  0.00000000E+00  0.00000000E+00
  0.00000000E+00  0.00000000E+00  0.00000000E+00  0.00000000E+00  0.00000000E+00
  0.00000000E+00
Integer atomic weights                     I   N=          11
          12          12          12          12          12          14
           1           1           1           1           1
Real atomic weights                        R   N=          11
  1.20000000E+01  1.20000000E+01  1.20000000E+01  1.20000000E+01  1.20000000E+01
  1.40030740E+01  1.00782504E+00  1.00782504E+00  1.00782504E+00  1.00782504E+00
  1.00782504E+00
Atom fragment info                         I   N=          11
           0           0           0           0           0           0
           0           0           0           0           0
Atom residue num                           I   N=          11
           0           0           0           0           0           0
           0           0           0           0           0
Nuclear spins                              I   N=          11
           0           0           0           0           0           2
           1           1           1           1           1
Nuclear ZEff                               R   N=          11
 -3.60000000E+00 -3.60000000E+00 -3.60000000E+00 -3.60000000E+00 -3.60000000E+00
 -4.55000000E+00 -1.00000000E+00 -1.00000000E+00 -1.00000000E+00 -1.00000000E+00
 -1.00000000E+00
Nuclear ZNuc                               R   N=          11
  6.00000000E+00  6.00000000E+00  6.00000000E+00  6.00000000E+00  6.00000000E+00
  7.00000000E+00  1.00000000E+00  1.00000000E+00  1.00000000E+00  1.00000000E+00
  1.00000000E+00
Nuclear QMom                               R   N=          11
  0.00000000E+00  0.00000000E+00  0.00000000E+00  0.00000000E+00  0.00000000E+00
  2.04400000E+00  0.00000000E+00  0.00000000E+00  0.00000000E+00  0.00000000E+00
  0.00000000E+00
Nuclear GFac                               R   N=          11
  0.00000000E+00  0.00000000E+00  0.00000000E+00  0.00000000E+00  0.00000000E+00
  4.03761000E-01  2.79284600E+00  2.79284600E+00  2.79284600E+00  2.79284600E+00
  2.79284600E+00
MicOpt                                     I   N=          11
          -1          -1          -1          -1          -1          -1
          -1          -1          -1          -1          -1
Number of residues                         I                0
Number of secondary structures             I                0
Redundant internal dimensions              I   N=           4
          47          11          16          20
Redundant internal coordinate indices      I   N=         188
           1           2           0           0           1           6
           0           0           1           8           0           0
           2           3           0           0           2           9
           0           0           3           4           0           0
           3           7           0           0           4           5
           0           0           4          10           0           0
           5           6           0           0           5          11
           0           0           2           1           6           0
           2           1           8           0           6           1
           8           0           1           2           3           0
           1           2           9           0           3           2
           9           0           2           3           4           0
           2           3           7           0           4           3
           7           0           3           4           5           0
           3           4          10           0           5           4
          10           0           4           5           6           0
           4           5          11           0           6           5
          11           0           1           6           5           0
           6           1           2           3           6           1
           2           9           8           1           2           3
           8           1           2           9           2           1
           6           5           8           1           6           5
           1           2           3           4           1           2
           3           7           9           2           3           4
           9           2           3           7           2           3
           4           5           2           3           4          10
           7           3           4           5           7           3
           4          10           3           4           5           6
           3           4           5          11          10           4
           5           6          10           4           5          11
           4           5           6           1          11           5
           6           1
Redundant internal coordinates             R   N=          47
  2.63232699E+00  2.52580234E+00  2.05274773E+00  2.62900042E+00  2.04686783E+00
  2.62898548E+00  2.04829799E+00  2.63232498E+00  2.04686930E+00  2.52581576E+00
  2.05274336E+00  2.15820883E+00  2.10056862E+00  2.02440786E+00  2.06753640E+00
  2.09877287E+00  2.11687604E+00  2.06913091E+00  2.10700125E+00  2.10705315E+00
  2.06752822E+00  2.11691919E+00  2.09873791E+00  2.15821864E+00  2.10057224E+00
  2.02439443E+00  2.04574763E+00  1.24394176E-05  3.14158246E+00  3.14157751E+00
 -3.77735090E-05 -6.64312752E-06 -3.14157282E+00 -3.92837117E-07  3.14158473E+00
 -3.14157017E+00  1.49481821E-05 -1.59451825E-05  3.14155524E+00  3.14158424E+00
 -2.98841813E-05  2.28945467E-05  3.14156529E+00 -3.14154852E+00 -6.12599042E-06
 -1.14450910E-05 -3.14155585E+00
ZRed-IntVec                                I   N=          47
           0           0           0           0           0           0
           0           0           0           0           0           0
           0           0           0           0           0           0
           0           0           0           0           0           0
           0           0           0           0           0           0
           0           0           0           0           0           0
           0           0           0           0           0           0
           0           0           0           0           0
ZRed-FPVec                                 R   N=          47
  0.00000000E+00  0.00000000E+00  0.00000000E+00  0.00000000E+00  0.00000000E+00
  0.00000000E+00  0.00000000E+00  0.00000000E+00  0.00000000E+00  0.00000000E+00
  0.00000000E+00  0.00000000E+00  0.00000000E+00  0.00000000E+00  0.00000000E+00
  0.00000000E+00  0.00000000E+00  0.00000000E+00  0.00000000E+00  0.00000000E+00
  0.00000000E+00  0.00000000E+00  0.00000000E+00  0.00000000E+00  0.00000000E+00
  0.00000000E+00  0.00000000E+00  0.00000000E+00  0.00000000E+00  0.00000000E+00
  0.00000000E+00  0.00000000E+00  0.00000000E+00  0.00000000E+00  0.00000000E+00
  0.00000000E+00  0.00000000E+00  0.00000000E+00  0.00000000E+00  0.00000000E+00
  0.00000000E+00  0.00000000E+00  0.00000000E+00  0.00000000E+00  0.00000000E+00
  0.00000000E+00  0.00000000E+00
ZRed-Constraint1                           R   N=          47
  2.63232699E+00  2.52580234E+00  2.05274773E+00  2.62900042E+00  2.04686783E+00
  2.62898548E+00  2.04829799E+00  2.63232498E+00  2.04686930E+00  2.52581576E+00
  2.05274336E+00  2.15820883E+00  2.10056862E+00  2.02440786E+00  2.06753640E+00
  2.09877287E+00  2.11687604E+00  2.06913091E+00  2.10700125E+00  2.10705315E+00
  2.06752822E+00  2.11691919E+00  2.09873791E+00  2.15821864E+00  2.10057224E+00
  2.02439443E+00  2.04574763E+00  1.24394176E-05  3.14158246E+00  3.14157751E+00
 -3.77735119E-05 -6.64312752E-06 -3.14157282E+00 -3.92837117E-07  3.14158473E+00
 -3.14157017E+00  1.49481673E-05 -1.59451825E-05  3.14155524E+00  3.14158424E+00
 -2.98841813E-05  2.28945516E-05  3.14156529E+00 -3.14154852E+00 -6.12600855E-06
 -1.14451007E-05 -3.14155585E+00
ZRed-Constraint2                           R   N=          47
  2.65861411E+00  2.54584907E+00  2.08736030E+00  2.63821037E+00  2.07383918E+00
  2.63801343E+00  2.07730842E+00  2.65877464E+00  2.07385380E+00  2.54621905E+00
  2.08750168E+00  2.15518218E+00  2.10830809E+00  2.01969503E+00  2.06865438E+00
  2.10073860E+00  2.11379229E+00  2.07308839E+00  2.10484628E+00  2.10525001E+00
  2.06830863E+00  2.11416623E+00  2.10071046E+00  2.15542705E+00  2.10824370E+00
  2.01951455E+00  2.04570997E+00  1.75323368E-04  3.14148917E+00 -3.14146407E+00
 -1.50223591E-04 -1.75219789E-05 -3.14156561E+00 -1.96968244E-04 -3.14058863E+00
 -3.14150865E+00  1.28499879E-03  7.45430451E-05 -3.14149458E+00  3.14046592E+00
 -1.10320847E-03  8.89402766E-05  3.14147626E+00 -3.14152705E+00 -1.39732949E-04
 -1.17212078E-04 -3.14151410E+00
SymInf integers                            I   N=          26
           1           1           1           1           1           0
           0           0           0           0           0           0
           0           0           0           0           0           0
           0           0           0           0           0           0
           0           0
RotTr to input orientation                 R   N=          12
 -3.63364916E-02  9.99339612E-01  0.00000000E+00  9.99339612E-01  3.63364916E-02
 -0.00000000E+00  0.00000000E+00  0.00000000E+00 -1.00000000E+00 -3.93912430E+00
  3.46932443E-01 -3.60612194E-04
Number of contracted shells                I               50
Number of primitive shells                 I              102
Pure/Cartesian d shells                    I                0
Pure/Cartesian f shells                    I                0
Highest angular momentum                   I                2
Largest degree of contraction              I                6
Shell types                                I   N=          50
           0          -1          -1          -1          -2           0
          -1          -1          -1          -2           0          -1
          -1          -1          -2           0          -1          -1
          -1          -2           0          -1          -1          -1
          -2           0          -1          -1          -1          -2
           0           0           0           1           0           0
           0           1           0           0           0           1
           0           0           0           1           0           0
           0           1
Number of primitives per shell             I   N=          50
           6           3           1           1           1           6
           3           1           1           1           6           3
           1           1           1           6           3           1
           1           1           6           3           1           1
           1           6           3           1           1           1
           3           1           1           1           3           1
           1           1           3           1           1           1
           3           1           1           1           3           1
           1           1
Shell to atom map                          I   N=          50
           1           1           1           1           1           2
           2           2           2           2           3           3
           3           3           3           4           4           4
           4           4           5           5           5           5
           5           6           6           6           6           6
           7           7           7           7           8           8
           8           8           9           9           9           9
          10          10          10          10          11          11
          11          11
Primitive exponents                        R   N=         102
  4.56324000E+03  6.82024000E+02  1.54973000E+02  4.44553000E+01  1.30290000E+01
  1.82773000E+00  2.09642000E+01  4.80331000E+00  1.45933000E+00  4.83456000E-01
  1.45585000E-01  6.26000000E-01  4.56324000E+03  6.82024000E+02  1.54973000E+02
  4.44553000E+01  1.30290000E+01  1.82773000E+00  2.09642000E+01  4.80331000E+00
  1.45933000E+00  4.83456000E-01  1.45585000E-01  6.26000000E-01  4.56324000E+03
  6.82024000E+02  1.54973000E+02  4.44553000E+01  1.30290000E+01  1.82773000E+00
  2.09642000E+01  4.80331000E+00  1.45933000E+00  4.83456000E-01  1.45585000E-01
  6.26000000E-01  4.56324000E+03  6.82024000E+02  1.54973000E+02  4.44553000E+01
  1.30290000E+01  1.82773000E+00  2.09642000E+01  4.80331000E+00  1.45933000E+00
  4.83456000E-01  1.45585000E-01  6.26000000E-01  4.56324000E+03  6.82024000E+02
  1.54973000E+02  4.44553000E+01  1.30290000E+01  1.82773000E+00  2.09642000E+01
  4.80331000E+00  1.45933000E+00  4.83456000E-01  1.45585000E-01  6.26000000E-01
  6.29348000E+03  9.49044000E+02  2.18776000E+02  6.36916000E+01  1.88282000E+01
  2.72023000E+00  3.06331000E+01  7.02614000E+00  2.11205000E+00  6.84009000E-01
  2.00878000E-01  9.13000000E-01  3.38650000E+01  5.09479000E+00  1.15879000E+00
  3.25840000E-01  1.02741000E-01  7.50000000E-01  3.38650000E+01  5.09479000E+00
  1.15879000E+00  3.25840000E-01  1.02741000E-01  7.50000000E-01  3.38650000E+01
  5.09479000E+00  1.15879000E+00  3.25840000E-01  1.02741000E-01  7.50000000E-01
  3.38650000E+01  5.09479000E+00  1.15879000E+00  3.25840000E-01  1.02741000E-01
  7.50000000E-01  3.38650000E+01  5.09479000E+00  1.15879000E+00  3.25840000E-01
  1.02741000E-01  7.50000000E-01
Contraction coefficients                   R   N=         102
  1.96665025E-03  1.52306019E-02  7.61269097E-02  2.60801033E-01  6.16462078E-01
  2.21006028E-01  1.14660081E-01  9.19999648E-01 -3.03068213E-03  1.00000000E+00
  1.00000000E+00  1.00000000E+00  1.96665025E-03  1.52306019E-02  7.61269097E-02
  2.60801033E-01  6.16462078E-01  2.21006028E-01  1.14660081E-01  9.19999648E-01
 -3.03068213E-03  1.00000000E+00  1.00000000E+00  1.00000000E+00  1.96665025E-03
  1.52306019E-02  7.61269097E-02  2.60801033E-01  6.16462078E-01  2.21006028E-01
  1.14660081E-01  9.19999648E-01 -3.03068213E-03  1.00000000E+00  1.00000000E+00
  1.00000000E+00  1.96665025E-03  1.52306019E-02  7.61269097E-02  2.60801033E-01
  6.16462078E-01  2.21006028E-01  1.14660081E-01  9.19999648E-01 -3.03068213E-03
  1.00000000E+00  1.00000000E+00  1.00000000E+00  1.96665025E-03  1.52306019E-02
  7.61269097E-02  2.60801033E-01  6.16462078E-01  2.21006028E-01  1.14660081E-01
  9.19999648E-01 -3.03068213E-03  1.00000000E+00  1.00000000E+00  1.00000000E+00
  1.96978815E-03  1.49612859E-02  7.35005308E-02  2.48936766E-01  6.02459433E-01
  2.56201759E-01  1.11906080E-01  9.21666655E-01 -2.56919183E-03  1.00000000E+00
  1.00000000E+00  1.00000000E+00  2.54938145E-02  1.90373109E-01  8.52161486E-01
  1.00000000E+00  1.00000000E+00  1.00000000E+00  2.54938145E-02  1.90373109E-01
  8.52161486E-01  1.00000000E+00  1.00000000E+00  1.00000000E+00  2.54938145E-02
  1.90373109E-01  8.52161486E-01  1.00000000E+00  1.00000000E+00  1.00000000E+00
  2.54938145E-02  1.90373109E-01  8.52161486E-01  1.00000000E+00  1.00000000E+00
  1.00000000E+00  2.54938145E-02  1.90373109E-01  8.52161486E-01  1.00000000E+00
  1.00000000E+00  1.00000000E+00
P(S=P) Contraction coefficients            R   N=         102
  0.00000000E+00  0.00000000E+00  0.00000000E+00  0.00000000E+00  0.00000000E+00
  0.00000000E+00  4.02486927E-02  2.37593957E-01  8.15853851E-01  1.00000000E+00
  1.00000000E+00  0.00000000E+00  0.00000000E+00  0.00000000E+00  0.00000000E+00
  0.00000000E+00  0.00000000E+00  0.00000000E+00  4.02486927E-02  2.37593957E-01
  8.15853851E-01  1.00000000E+00  1.00000000E+00  0.00000000E+00  0.00000000E+00
  0.00000000E+00  0.00000000E+00  0.00000000E+00  0.00000000E+00  0.00000000E+00
  4.02486927E-02  2.37593957E-01  8.15853851E-01  1.00000000E+00  1.00000000E+00
  0.00000000E+00  0.00000000E+00  0.00000000E+00  0.00000000E+00  0.00000000E+00
  0.00000000E+00  0.00000000E+00  4.02486927E-02  2.37593957E-01  8.15853851E-01
  1.00000000E+00  1.00000000E+00  0.00000000E+00  0.00000000E+00  0.00000000E+00
  0.00000000E+00  0.00000000E+00  0.00000000E+00  0.00000000E+00  4.02486927E-02
  2.37593957E-01  8.15853851E-01  1.00000000E+00  1.00000000E+00  0.00000000E+00
  0.00000000E+00  0.00000000E+00  0.00000000E+00  0.00000000E+00  0.00000000E+00
  0.00000000E+00  3.83119186E-02  2.37403116E-01  8.17592398E-01  1.00000000E+00
  1.00000000E+00  0.00000000E+00  0.00000000E+00  0.00000000E+00  0.00000000E+00
  0.00000000E+00  0.00000000E+00  0.00000000E+00  0.00000000E+00  0.00000000E+00
  0.00000000E+00  0.00000000E+00  0.00000000E+00  0.00000000E+00  0.00000000E+00
  0.00000000E+00  0.00000000E+00  0.00000000E+00  0.00000000E+00  0.00000000E+00
  0.00000000E+00  0.00000000E+00  0.00000000E+00  0.00000000E+00  0.00000000E+00
  0.00000000E+00  0.00000000E+00  0.00000000E+00  0.00000000E+00  0.00000000E+00
  0.00000000E+00  0.00000000E+00
Coordinates of each shell                  R   N=         150
 -2.15622107E+00 -1.36127222E+00 -4.09272437E-04 -2.15622107E+00 -1.36127222E+00
 -4.09272437E-04 -2.15622107E+00 -1.36127222E+00 -4.09272437E-04 -2.15622107E+00
 -1.36127222E+00 -4.09272437E-04 -2.15622107E+00 -1.36127222E+00 -4.09272437E-04
 -2.25983016E+00  1.26901493E+00 -2.31272750E-04 -2.25983016E+00  1.26901493E+00
 -2.31272750E-04 -2.25983016E+00  1.26901493E+00 -2.31272750E-04 -2.25983016E+00
  1.26901493E+00 -2.31272750E-04 -2.25983016E+00  1.26901493E+00 -2.31272750E-04
  3.26519445E-04  2.61189797E+00  1.83569815E-04  3.26519445E-04  2.61189797E+00
  1.83569815E-04  3.26519445E-04  2.61189797E+00  1.83569815E-04  3.26519445E-04
  2.61189797E+00  1.83569815E-04  3.26519445E-04  2.61189797E+00  1.83569815E-04
  2.26014701E+00  1.26847848E+00  4.02662236E-04  2.26014701E+00  1.26847848E+00
  4.02662236E-04  2.26014701E+00  1.26847848E+00  4.02662236E-04  2.26014701E+00
  1.26847848E+00  4.02662236E-04  2.26014701E+00  1.26847848E+00  4.02662236E-04
  2.15588329E+00 -1.36178079E+00  2.33318302E-04  2.15588329E+00 -1.36178079E+00
  2.33318302E-04  2.15588329E+00 -1.36178079E+00  2.33318302E-04  2.15588329E+00
 -1.36178079E+00  2.33318302E-04  2.15588329E+00 -1.36178079E+00  2.33318302E-04
 -3.31916903E-04 -2.67725830E+00 -1.77483697E-04 -3.31916903E-04 -2.67725830E+00
 -1.77483697E-04 -3.31916903E-04 -2.67725830E+00 -1.77483697E-04 -3.31916903E-04
 -2.67725830E+00 -1.77483697E-04 -3.31916903E-04 -2.67725830E+00 -1.77483697E-04
  5.19910411E-04  4.66019595E+00  3.19554706E-04  5.19910411E-04  4.66019595E+00
  3.19554706E-04  5.19910411E-04  4.66019595E+00  3.19554706E-04  5.19910411E-04
  4.66019595E+00  3.19554706E-04 -3.88538036E+00 -2.46751870E+00 -7.05598864E-04
 -3.88538036E+00 -2.46751870E+00 -7.05598864E-04 -3.88538036E+00 -2.46751870E+00
 -7.05598864E-04 -3.88538036E+00 -2.46751870E+00 -7.05598864E-04 -4.06718987E+00
  2.22980560E+00 -4.54102818E-04 -4.06718987E+00  2.22980560E+00 -4.54102818E-04
 -4.06718987E+00  2.22980560E+00 -4.54102818E-04 -4.06718987E+00  2.22980560E+00
 -4.54102818E-04  4.06778071E+00  2.22875670E+00  6.60710902E-04  4.06778071E+00
  2.22875670E+00  6.60710902E-04  4.06778071E+00  2.22875670E+00  6.60710902E-04
  4.06778071E+00  2.22875670E+00  6.60710902E-04  3.88475948E+00 -2.46846160E+00
  3.47790964E-04  3.88475948E+00 -2.46846160E+00  3.47790964E-04  3.88475948E+00
 -2.46846160E+00  3.47790964E-04  3.88475948E+00 -2.46846160E+00  3.47790964E-04
Num ILSW                                   I              100
ILSW                                       I   N=         100
           0           0           0           0           2           0
           0           0           0           0         402          -1
           5           0           0           0           2           0
           0           0           0           0           1           0
           1           0           0           0           0           0
           0           0      100000           0          -1           0
           0           0           0           0           0           0
           0           0           0           1           0           0
           0 -2000000000           1           0           0           0
           0           0         141          52           0           0
           0           0           5           0           0           0
           0           0           0          11           0           1
           0           0           0           0           0           0
           0           0           0           0           0           0
           0           0           0           0           0           0
           0           0           0           0           0           0
           0           0           0           0
Num RLSW                                   I               52
RLSW                                       R   N=          52
  8.00000000E-01  7.20000000E-01  1.00000000E+00  8.10000000E-01  2.00000000E-01
  0.00000000E+00  0.00000000E+00  1.00000000E+00  0.00000000E+00  0.00000000E+00
  0.00000000E+00  0.00000000E+00  1.00000000E+00  0.00000000E+00  0.00000000E+00
  0.00000000E+00  0.00000000E+00  1.00000000E+00  0.00000000E+00  0.00000000E+00
  0.00000000E+00  0.00000000E+00  1.00000000E+00  0.00000000E+00  0.00000000E+00
  0.00000000E+00  0.00000000E+00  1.00000000E+00  0.00000000E+00  0.00000000E+00
  0.00000000E+00  0.00000000E+00  1.00000000E+00  0.00000000E+00  0.00000000E+00
  0.00000000E+00  0.00000000E+00  0.00000000E+00  1.00000000E+00  1.00000000E+00
  0.00000000E+00  1.00000000E+00  0.00000000E+00  0.00000000E+00  0.00000000E+00
  0.00000000E+00  0.00000000E+00  0.00000000E+00  0.00000000E+00  0.00000000E+00
  0.00000000E+00  0.00000000E+00
MxBond                                     I                3
NBond                                      I   N=          11
           3           3           3           3           3           2
           1           1           1           1           1
IBond                                      I   N=          33
           2           6           8           1           3           9
           2           4           7           3           5          10
           4           6          11           1           5           0
           3           0           0           1           0           0
           2           0           0           4           0           0
           5           0           0
RBond                                      R   N=          33
  1.50000000E+00  1.50000000E+00  1.00000000E+00  1.50000000E+00  1.50000000E+00
  1.00000000E+00  1.50000000E+00  1.50000000E+00  1.00000000E+00  1.50000000E+00
  1.50000000E+00  1.00000000E+00  1.50000000E+00  1.50000000E+00  1.00000000E+00
  1.50000000E+00  1.50000000E+00  0.00000000E+00  1.00000000E+00  0.00000000E+00
  0.00000000E+00  1.00000000E+00  0.00000000E+00  0.00000000E+00  1.00000000E+00
  0.00000000E+00  0.00000000E+00  1.00000000E+00  0.00000000E+00  0.00000000E+00
  1.00000000E+00  0.00000000E+00  0.00000000E+00
Virial Ratio                               R      2.004188299376390E+00
SCF Energy                                 R     -2.483640237984733E+02
Total Energy                               R     -2.483640237984733E+02
RMS Force                                  R      1.351795850848997E-04
RMS Density                                R      3.427290991963198E-09
NImag                                      I                0
Job Status                                 I                1
Nuclear derivative order                   I                2
External E-field                           R   N=          35
  0.00000000E+00  0.00000000E+00  0.00000000E+00  0.00000000E+00  0.00000000E+00
  0.00000000E+00  0.00000000E+00  0.00000000E+00  0.00000000E+00  0.00000000E+00
  0.00000000E+00  0.00000000E+00  0.00000000E+00  0.00000000E+00  0.00000000E+00
  0.00000000E+00  0.00000000E+00  0.00000000E+00  0.00000000E+00  0.00000000E+00
  0.00000000E+00  0.00000000E+00  0.00000000E+00  0.00000000E+00  0.00000000E+00
  0.00000000E+00  0.00000000E+00  0.00000000E+00  0.00000000E+00  0.00000000E+00
  0.00000000E+00  0.00000000E+00  0.00000000E+00  0.00000000E+00  0.00000000E+00
IOpCl                                      I                0
IROHF                                      I                0
Alpha Orbital Energies                     R   N=         138
 -1.43081794E+01 -1.02085230E+01 -1.02085117E+01 -1.01960025E+01 -1.01860441E+01
 -1.01860206E+01 -9.46757240E-01 -8.10638025E-01 -7.67123564E-01 -6.35183012E-01
 -6.33801711E-01 -5.35057655E-01 -4.86862114E-01 -4.75793248E-01 -4.35399950E-01
 -4.10320271E-01 -4.03726390E-01 -3.70533871E-01 -2.94786342E-01 -2.70453086E-01
 -2.59681871E-01 -3.32524728E-02 -2.08290813E-02  4.17625873E-02  7.18759729E-02
  8.58856853E-02  1.10062971E-01  1.19950398E-01  1.33337758E-01  2.08430195E-01
  2.62053094E-01  2.76571916E-01  2.79406352E-01  3.09174620E-01  3.43755895E-01
  3.79565373E-01  3.81321707E-01  3.89039325E-01  4.14408784E-01  4.22930720E-01
  4.32941805E-01  4.47855043E-01  4.49509430E-01  5.16473670E-01  5.32477430E-01
  5.39501370E-01  5.46503610E-01  5.78400166E-01  5.94476580E-01  6.22600024E-01
  6.45675889E-01  6.74946448E-01  6.96437993E-01  7.23296781E-01  7.51525480E-01
  7.52134577E-01  7.60373468E-01  7.99718055E-01  8.23287371E-01  8.42922233E-01
  9.42637164E-01  9.63101741E-01  9.90171837E-01  1.02554054E+00  1.05633922E+00
  1.07611672E+00  1.10355386E+00  1.19536969E+00  1.23027808E+00  1.28908090E+00
  1.32909035E+00  1.42847624E+00  1.44483983E+00  1.48480871E+00  1.53314619E+00
  1.53567496E+00  1.57126632E+00  1.57711453E+00  1.58373123E+00  1.63593693E+00
  1.69460979E+00  1.70060818E+00  1.76803378E+00  1.76948623E+00  1.77766414E+00
  1.78600616E+00  1.87657373E+00  1.89161377E+00  1.92337339E+00  1.92913599E+00
  1.95832591E+00  2.04865464E+00  2.08439518E+00  2.14237115E+00  2.16089120E+00
  2.18251799E+00  2.24630291E+00  2.31202272E+00  2.35871440E+00  2.39484740E+00
  2.42964952E+00  2.54311870E+00  2.54410854E+00  2.58304577E+00  2.58826131E+00
  2.60443014E+00  2.61268555E+00  2.63342098E+00  2.65818512E+00  2.68937568E+00
  2.74190610E+00  2.74403202E+00  2.75682623E+00  2.83888726E+00  2.92555259E+00
  2.94559247E+00  2.94922567E+00  2.95937956E+00  3.12834677E+00  3.28816088E+00
  3.38830699E+00  3.44097961E+00  3.48587978E+00  3.61364055E+00  3.70009450E+00
  3.83498472E+00  3.97635738E+00  4.00164430E+00  4.03293662E+00  4.37812408E+00
  4.39074682E+00  5.20434592E+00  2.36165765E+01  2.38965307E+01  2.39917715E+01
  2.40800508E+01  2.41391651E+01  3.56206527E+01
Alpha MO coefficients                      R   N=       19044
  2.44873498E-06  5.95170809E-05  3.69361888E-04 -3.58489081E-04  2.62455393E-08
  3.14179120E-04 -1.10025902E-03  1.31121308E-03 -5.61744894E-08  7.29263101E-03
  5.56322425E-03  3.18980597E-04  8.45246823E-07  1.86236474E-04 -6.56884759E-08
  1.94763562E-07 -6.46490266E-04  1.16155084E-03 -4.55198618E-06  1.78182427E-05
  5.92678074E-05 -1.33463987E-04 -3.44981423E-09  2.93954629E-04 -3.98118320E-04