 Entering Gaussian System, Link 0=g16
 Initial command:
 /data0/home/software/g16/l1.exe "/data0/home/software/g16/scratch/Gau-3175870.inp" -scrdir="/data0/home/software/g16/scratch/"
 Default is to use a total of  22 processors:
                               22 via shared-memory
                                1 via Linda
 Entering Link 1 = /data0/home/software/g16/l1.exe PID=   3175871.
  
 Copyright (c) 1988,1990,1992,1993,1995,1998,2003,2009,2016,
            Gaussian, Inc.  All Rights Reserved.
  
 This is part of the Gaussian(R) 16 program.  It is based on
 the Gaussian(R) 09 system (copyright 2009, Gaussian, Inc.),
 the Gaussian(R) 03 system (copyright 2003, Gaussian, Inc.),
 the Gaussian(R) 98 system (copyright 1998, Gaussian, Inc.),
 the Gaussian(R) 94 system (copyright 1995, Gaussian, Inc.),
 the Gaussian 92(TM) system (copyright 1992, Gaussian, Inc.),
 the Gaussian 90(TM) system (copyright 1990, Gaussian, Inc.),
 the Gaussian 88(TM) system (copyright 1988, Gaussian, Inc.),
 the Gaussian 86(TM) system (copyright 1986, Carnegie Mellon
 University), and the Gaussian 82(TM) system (copyright 1983,
 Carnegie Mellon University). Gaussian is a federally registered
 trademark of Gaussian, Inc.
  
 This software contains proprietary and confidential information,
 including trade secrets, belonging to Gaussian, Inc.
  
 This software is provided under written license and may be
 used, copied, transmitted, or stored only in accord with that
 written license.
  
 The following legend is applicable only to US Government
 contracts under FAR:
  
                    RESTRICTED RIGHTS LEGEND
  
 Use, reproduction and disclosure by the US Government is
 subject to restrictions as set forth in subparagraphs (a)
 and (c) of the Commercial Computer Software - Restricted
 Rights clause in FAR 52.227-19.
  
 Gaussian, Inc.
 340 Quinnipiac St., Bldg. 40, Wallingford CT 06492
  
  
 ---------------------------------------------------------------
 Warning -- This program may not be used in any manner that
 competes with the business of Gaussian, Inc. or will provide
 assistance to any competitor of Gaussian, Inc.  The licensee
 of this program is prohibited from giving any competitor of
 Gaussian, Inc. access to this program.  By using this program,
 the user acknowledges that Gaussian, Inc. is engaged in the
 business of creating and licensing software in the field of
 computational chemistry and represents and warrants to the
 licensee that it is not a competitor of Gaussian, Inc. and that
 it will not use this program in any manner prohibited above.
 ---------------------------------------------------------------
  

 Cite this work as:
 Gaussian 16, Revision A.03,
 M. J. Frisch, G. W. Trucks, H. B. Schlegel, G. E. Scuseria, 
 M. A. Robb, J. R. Cheeseman, G. Scalmani, V. Barone, 
 G. A. Petersson, H. Nakatsuji, X. Li, M. Caricato, A. V. Marenich, 
 J. Bloino, B. G. Janesko, R. Gomperts, B. Mennucci, H. P. Hratchian, 
 J. V. Ortiz, A. F. Izmaylov, J. L. Sonnenberg, D. Williams-Young, 
 F. Ding, F. Lipparini, F. Egidi, J. Goings, B. Peng, A. Petrone, 
 T. Henderson, D. Ranasinghe, V. G. Zakrzewski, J. Gao, N. Rega, 
 G. Zheng, W. Liang, M. Hada, M. Ehara, K. Toyota, R. Fukuda, 
 J. Hasegawa, M. Ishida, T. Nakajima, Y. Honda, O. Kitao, H. Nakai, 
 T. Vreven, K. Throssell, J. A. Montgomery, Jr., J. E. Peralta, 
 F. Ogliaro, M. J. Bearpark, J. J. Heyd, E. N. Brothers, K. N. Kudin, 
 V. N. Staroverov, T. A. Keith, R. Kobayashi, J. Normand, 
 K. Raghavachari, A. P. Rendell, J. C. Burant, S. S. Iyengar, 
 J. Tomasi, M. Cossi, J. M. Millam, M. Klene, C. Adamo, R. Cammi, 
 J. W. Ochterski, R. L. Martin, K. Morokuma, O. Farkas, 
 J. B. Foresman, and D. J. Fox, Gaussian, Inc., Wallingford CT, 2016.
 
 ******************************************
 Gaussian 16:  ES64L-G16RevA.03 25-Dec-2016
                23-Nov-2022 
 ******************************************
 %chk=Py.chk
 %nprocshared=10
 Will use up to   10 processors via shared memory.
 %mem=20GB
 -----------------------------------
 #p opt freq B3LYP/6-311G** em=GD3BJ
 -----------------------------------
 1/18=20,19=15,26=3,38=1/1,3;
 2/9=110,12=2,17=6,18=5,40=1/2;
 3/5=4,6=6,7=101,11=2,25=1,30=1,71=1,74=-5,124=41/1,2,3;
 4//1;
 5/5=2,38=5/2;
 6/7=2,8=2,9=2,10=2,28=1/1;
 7//1,2,3,16;
 1/18=20,19=15,26=3/3(2);
 2/9=110/2;
 99//99;
 2/9=110/2;
 3/5=4,6=6,7=101,11=2,25=1,30=1,71=1,74=-5,124=41/1,2,3;
 4/5=5,16=3,69=1/1;
 5/5=2,38=5/2;
 7//1,2,3,16;
 1/18=20,19=15,26=3/3(-5);
 2/9=110/2;
 6/7=2,8=2,9=2,10=2,19=2,28=1/1;
 99/9=1/99;
 Leave Link    1 at Wed Nov 23 18:52:51 2022, MaxMem=  2684354560 cpu:               0.3 elap:               0.0
 (Enter /data0/home/software/g16/l101.exe)
 -------------------
 Title Card Required
 -------------------
 Symbolic Z-matrix:
 Charge =  0 Multiplicity = 1
 C                    -2.77071  -0.99232   0. 
 C                    -1.36383  -0.99232   0. 
 C                    -0.69714   0.23429   0. 
 C                    -1.45122   1.40907  -0.00024 
 C                    -2.85442   1.30627  -0.00038 
 N                    -3.51395   0.13132  -0.0002 
 H                     0.4014    0.27406  -0.00095 
 H                    -3.33626  -1.94114   0.00012 
 H                    -0.8091   -1.93922   0.00026 
 H                    -0.96718   2.394    -0.00034 
 H                    -3.48777   2.21133  -0.00046 
 
 ITRead=  0  0  0  0  0  0  0  0  0  0  0
 MicOpt= -1 -1 -1 -1 -1 -1 -1 -1 -1 -1 -1
 NAtoms=     11 NQM=       11 NQMF=       0 NMMI=      0 NMMIF=      0
                NMic=       0 NMicF=      0.
                    Isotopes and Nuclear Properties:
 (Nuclear quadrupole moments (NQMom) in fm**2, nuclear magnetic moments (NMagM)
  in nuclear magnetons)

  Atom         1           2           3           4           5           6           7           8           9          10
 IAtWgt=          12          12          12          12          12          14           1           1           1           1
 AtmWgt=  12.0000000  12.0000000  12.0000000  12.0000000  12.0000000  14.0030740   1.0078250   1.0078250   1.0078250   1.0078250
 NucSpn=           0           0           0           0           0           2           1           1           1           1
 AtZEff=  -0.0000000  -0.0000000  -0.0000000  -0.0000000  -0.0000000  -0.0000000  -0.0000000  -0.0000000  -0.0000000  -0.0000000
 NQMom=    0.0000000   0.0000000   0.0000000   0.0000000   0.0000000   2.0440000   0.0000000   0.0000000   0.0000000   0.0000000
 NMagM=    0.0000000   0.0000000   0.0000000   0.0000000   0.0000000   0.4037610   2.7928460   2.7928460   2.7928460   2.7928460
 AtZNuc=   6.0000000   6.0000000   6.0000000   6.0000000   6.0000000   7.0000000   1.0000000   1.0000000   1.0000000   1.0000000

  Atom        11
 IAtWgt=           1
 AtmWgt=   1.0078250
 NucSpn=           1
 AtZEff=  -0.0000000
 NQMom=    0.0000000
 NMagM=    2.7928460
 AtZNuc=   1.0000000
 Leave Link  101 at Wed Nov 23 18:52:51 2022, MaxMem=  2684354560 cpu:               3.1 elap:               0.3
 (Enter /data0/home/software/g16/l103.exe)

 GradGradGradGradGradGradGradGradGradGradGradGradGradGradGradGradGradGrad
 Berny optimization.
 Initialization pass.
                           ----------------------------
                           !    Initial Parameters    !
                           ! (Angstroms and Degrees)  !
 --------------------------                            --------------------------
 ! Name  Definition              Value          Derivative Info.                !
 --------------------------------------------------------------------------------
 ! R1    R(1,2)                  1.4069         estimate D2E/DX2                !
 ! R2    R(1,6)                  1.3472         estimate D2E/DX2                !
 ! R3    R(1,8)                  1.1046         estimate D2E/DX2                !
 ! R4    R(2,3)                  1.3961         estimate D2E/DX2                !
 ! R5    R(2,9)                  1.0974         estimate D2E/DX2                !
 ! R6    R(3,4)                  1.396          estimate D2E/DX2                !
 ! R7    R(3,7)                  1.0993         estimate D2E/DX2                !
 ! R8    R(4,5)                  1.407          estimate D2E/DX2                !
 ! R9    R(4,10)                 1.0974         estimate D2E/DX2                !
 ! R10   R(5,6)                  1.3474         estimate D2E/DX2                !
 ! R11   R(5,11)                 1.1047         estimate D2E/DX2                !
 ! A1    A(2,1,6)              123.4828         estimate D2E/DX2                !
 ! A2    A(2,1,8)              120.7972         estimate D2E/DX2                !
 ! A3    A(6,1,8)              115.72           estimate D2E/DX2                !
 ! A4    A(1,2,3)              118.5252         estimate D2E/DX2                !
 ! A5    A(1,2,9)              120.3635         estimate D2E/DX2                !
 ! A6    A(3,2,9)              121.1114         estimate D2E/DX2                !
 ! A7    A(2,3,4)              118.7792         estimate D2E/DX2                !
 ! A8    A(2,3,7)              120.5988         estimate D2E/DX2                !
 ! A9    A(4,3,7)              120.6219         estimate D2E/DX2                !
 ! A10   A(3,4,5)              118.5054         estimate D2E/DX2                !
 ! A11   A(3,4,10)             121.1328         estimate D2E/DX2                !
 ! A12   A(5,4,10)             120.3618         estimate D2E/DX2                !
 ! A13   A(4,5,6)              123.4969         estimate D2E/DX2                !
 ! A14   A(4,5,11)             120.7935         estimate D2E/DX2                !
 ! A15   A(6,5,11)             115.7097         estimate D2E/DX2                !
 ! A16   A(1,6,5)              117.2105         estimate D2E/DX2                !
 ! D1    D(6,1,2,3)              0.01           estimate D2E/DX2                !
 ! D2    D(6,1,2,9)            179.9941         estimate D2E/DX2                !
 ! D3    D(8,1,2,3)           -179.9926         estimate D2E/DX2                !
 ! D4    D(8,1,2,9)             -0.0086         estimate D2E/DX2                !
 ! D5    D(2,1,6,5)             -0.001          estimate D2E/DX2                !
 ! D6    D(8,1,6,5)           -179.9985         estimate D2E/DX2                !
 ! D7    D(1,2,3,4)             -0.0113         estimate D2E/DX2                !
 ! D8    D(1,2,3,7)           -179.9425         estimate D2E/DX2                !
 ! D9    D(9,2,3,4)           -179.9952         estimate D2E/DX2                !
 ! D10   D(9,2,3,7)              0.0736         estimate D2E/DX2                !
 ! D11   D(2,3,4,5)              0.0043         estimate D2E/DX2                !
 ! D12   D(2,3,4,10)          -179.9944         estimate D2E/DX2                !
 ! D13   D(7,3,4,5)            179.9354         estimate D2E/DX2                !
 ! D14   D(7,3,4,10)            -0.0632         estimate D2E/DX2                !
 ! D15   D(3,4,5,6)              0.0051         estimate D2E/DX2                !
 ! D16   D(3,4,5,11)           179.9933         estimate D2E/DX2                !
 ! D17   D(10,4,5,6)          -179.9962         estimate D2E/DX2                !
 ! D18   D(10,4,5,11)           -0.008          estimate D2E/DX2                !
 ! D19   D(4,5,6,1)             -0.0067         estimate D2E/DX2                !
 ! D20   D(11,5,6,1)          -179.9955         estimate D2E/DX2                !
 --------------------------------------------------------------------------------
 Trust Radius=3.00D-01 FncErr=1.00D-07 GrdErr=1.00D-06 EigMax=2.50D+02 EigMin=1.00D-04
 Number of steps in this run=     57 maximum allowed number of steps=    100.
 GradGradGradGradGradGradGradGradGradGradGradGradGradGradGradGradGradGrad

 Leave Link  103 at Wed Nov 23 18:52:51 2022, MaxMem=  2684354560 cpu:               0.1 elap:               0.1
 (Enter /data0/home/software/g16/l202.exe)
                          Input orientation:                          
 ---------------------------------------------------------------------
 Center     Atomic      Atomic             Coordinates (Angstroms)
 Number     Number       Type             X           Y           Z
 ---------------------------------------------------------------------
      1          6           0       -2.770712   -0.992321    0.000000
      2          6           0       -1.363834   -0.992321    0.000000
      3          6           0       -0.697143    0.234286    0.000000
      4          6           0       -1.451216    1.409073   -0.000241
      5          6           0       -2.854418    1.306268   -0.000382
      6          7           0       -3.513948    0.131317   -0.000197
      7          1           0        0.401401    0.274062   -0.000950
      8          1           0       -3.336259   -1.941142    0.000122
      9          1           0       -0.809102   -1.939222    0.000264
     10          1           0       -0.967180    2.393997   -0.000342
     11          1           0       -3.487767    2.211331   -0.000463
 ---------------------------------------------------------------------
                    Distance matrix (angstroms):
                    1          2          3          4          5
     1  C    0.000000
     2  C    1.406878   0.000000
     3  C    2.409202   1.396081   0.000000
     4  C    2.740030   2.402983   1.395977   0.000000
     5  C    2.300113   2.739590   2.408938   1.406963   0.000000
     6  N    1.347205   2.426016   2.818686   2.426422   1.347401
     7  H    3.415557   2.172506   1.099264   2.172657   3.415524
     8  H    1.104584   2.188772   3.420149   3.844129   3.282962
     9  H    2.178195   1.097428   2.176390   3.409309   3.836212
    10  H    3.836649   3.409470   2.176527   1.097436   2.178261
    11  H    3.282919   3.843758   3.419984   2.188871   1.104658
                    6          7          8          9         10
     6  N    0.000000
     7  H    3.917950   0.000000
     8  H    2.080062   4.344794   0.000000
     9  H    3.406365   2.522686   2.527158   0.000000
    10  H    3.406721   2.523319   4.940239   4.336101   0.000000
    11  H    2.080179   4.344956   4.155236   4.939872   2.527197
                   11
    11  H    0.000000
 Stoichiometry    C5H5N
 Framework group  C1[X(C5H5N)]
 Deg. of freedom    27
 Full point group                 C1      NOp   1
 Largest Abelian subgroup         C1      NOp   1
 Largest concise Abelian subgroup C1      NOp   1
                         Standard orientation:                         
 ---------------------------------------------------------------------
 Center     Atomic      Atomic             Coordinates (Angstroms)
 Number     Number       Type             X           Y           Z
 ---------------------------------------------------------------------
      1          6           0       -1.154837   -0.719392   -0.000154
      2          6           0       -1.196939    0.686856   -0.000154
      3          6           0        0.009167    1.389956   -0.000154
      4          6           0        1.205994    0.671377    0.000087
      5          6           0        1.145227   -0.734273    0.000228
      6          7           0       -0.009461   -1.428669    0.000043
      7          1           0        0.016051    2.489198    0.000796
      8          1           0       -2.086309   -1.313079   -0.000276
      9          1           0       -2.160017    1.213003   -0.000418
     10          1           0        2.175992    1.184670    0.000188
     11          1           0        2.068838   -1.340254    0.000309
 ---------------------------------------------------------------------
 Rotational constants (GHZ):           5.9762872           5.7335864           2.9262109
 Leave Link  202 at Wed Nov 23 18:52:52 2022, MaxMem=  2684354560 cpu:               0.2 elap:               0.0
 (Enter /data0/home/software/g16/l301.exe)
 Standard basis: 6-311G(d,p) (5D, 7F)
 Ernie: Thresh=  0.10000D-02 Tol=  0.10000D-05 Strict=F.
 There are   144 symmetry adapted cartesian basis functions of A   symmetry.
 There are   138 symmetry adapted basis functions of A   symmetry.
   138 basis functions,   232 primitive gaussians,   144 cartesian basis functions
    21 alpha electrons       21 beta electrons
       nuclear repulsion energy       204.6313958003 Hartrees.
 IExCor=  402 DFT=T Ex+Corr=B3LYP ExCW=0 ScaHFX=  0.200000
 ScaDFX=  0.800000  0.720000  1.000000  0.810000 ScalE2=  1.000000  1.000000
 IRadAn=      5 IRanWt=     -1 IRanGd=            0 ICorTp=0 IEmpDi=141
 NAtoms=   11 NActive=   11 NUniq=   11 SFac= 1.00D+00 NAtFMM=   60 NAOKFM=F Big=F
 Integral buffers will be    131072 words long.
 Raffenetti 2 integral format.
 Two-electron integral symmetry is turned on.
 R6Disp:  Grimme-D3(BJ) Dispersion energy=       -0.0170759437 Hartrees.
 Nuclear repulsion after empirical dispersion term =      204.6143198566 Hartrees.
 Leave Link  301 at Wed Nov 23 18:52:52 2022, MaxMem=  2684354560 cpu:               0.8 elap:               0.1
 (Enter /data0/home/software/g16/l302.exe)
 NPDir=0 NMtPBC=     1 NCelOv=     1 NCel=       1 NClECP=     1 NCelD=      1
         NCelK=      1 NCelE2=     1 NClLst=     1 CellRange=     0.0.
 One-electron integrals computed using PRISM.
 One-electron integral symmetry used in STVInt
 NBasis=   138 RedAO= T EigKep=  5.75D-04  NBF=   138
 NBsUse=   138 1.00D-06 EigRej= -1.00D+00 NBFU=   138
 Precomputing XC quadrature grid using
 IXCGrd= 4 IRadAn=           5 IRanWt=          -1 IRanGd=           0 AccXCQ= 0.00D+00.
 Generated NRdTot=       0 NPtTot=           0 NUsed=           0 NTot=          32
 NSgBfM=   144   144   144   144   144 MxSgAt=    11 MxSgA2=    11.
 Leave Link  302 at Wed Nov 23 18:52:52 2022, MaxMem=  2684354560 cpu:               1.4 elap:               0.2
 (Enter /data0/home/software/g16/l303.exe)
 DipDrv:  MaxL=1.
 Leave Link  303 at Wed Nov 23 18:52:52 2022, MaxMem=  2684354560 cpu:               0.4 elap:               0.1
 (Enter /data0/home/software/g16/l401.exe)
 ExpMin= 1.03D-01 ExpMax= 6.29D+03 ExpMxC= 9.49D+02 IAcc=3 IRadAn=         5 AccDes= 0.00D+00
 Harris functional with IExCor=  402 and IRadAn=       5 diagonalized for initial guess.
 HarFok:  IExCor=  402 AccDes= 0.00D+00 IRadAn=         5 IDoV= 1 UseB2=F ITyADJ=14
 ICtDFT=  3500011 ScaDFX=  1.000000  1.000000  1.000000  1.000000
 FoFCou: FMM=F IPFlag=           0 FMFlag=      100000 FMFlg1=           0
         NFxFlg=           0 DoJE=T BraDBF=F KetDBF=T FulRan=T
         wScrn=  0.000000 ICntrl=       500 IOpCl=  0 I1Cent=   200000004 NGrid=           0
         NMat0=    1 NMatS0=      1 NMatT0=    0 NMatD0=    1 NMtDS0=    0 NMtDT0=    0
 Petite list used in FoFCou.
 Harris En= -248.363590713560    
 JPrj=0 DoOrth=F DoCkMO=F.
 Leave Link  401 at Wed Nov 23 18:52:53 2022, MaxMem=  2684354560 cpu:               3.9 elap:               0.4
 (Enter /data0/home/software/g16/l502.exe)
 Keep R1 ints in memory in canonical form, NReq=55708183.
 FoFCou: FMM=F IPFlag=           0 FMFlag=           0 FMFlg1=           0
         NFxFlg=           0 DoJE=F BraDBF=F KetDBF=F FulRan=T
         wScrn=  0.000000 ICntrl=       600 IOpCl=  0 I1Cent=           0 NGrid=           0
         NMat0=    1 NMatS0=   9591 NMatT0=    0 NMatD0=    1 NMtDS0=    0 NMtDT0=    0
 Symmetry not used in FoFCou.
 Two-electron integral symmetry not used.
 Closed shell SCF:
 Using DIIS extrapolation, IDIIS=  1040.
 NGot=  2684354560 LenX=  2638311669 LenY=  2638290492
 Requested convergence on RMS density matrix=1.00D-08 within 128 cycles.
 Requested convergence on MAX density matrix=1.00D-06.
 Requested convergence on             energy=1.00D-06.
 No special actions if energy rises.
 Integral accuracy reduced to 1.0D-05 until final iterations.

 Cycle   1  Pass 0  IDiag  1:
 E= -248.241682920247    
 DIIS: error= 4.52D-02 at cycle   1 NSaved=   1.
 NSaved= 1 IEnMin= 1 EnMin= -248.241682920247     IErMin= 1 ErrMin= 4.52D-02
 ErrMax= 4.52D-02  0.00D+00 EMaxC= 1.00D-01 BMatC= 1.28D-01 BMatP= 1.28D-01
 IDIUse=3 WtCom= 5.48D-01 WtEn= 4.52D-01
 Coeff-Com:  0.100D+01
 Coeff-En:   0.100D+01
 Coeff:      0.100D+01
 Gap=     0.241 Goal=   None    Shift=    0.000
 GapD=    0.241 DampG=1.000 DampE=0.500 DampFc=0.5000 IDamp=-1.
 Damping current iteration by 5.00D-01
 RMSDP=4.31D-03 MaxDP=8.86D-02              OVMax= 1.47D-01

 Cycle   2  Pass 0  IDiag  1:
 E= -248.298335702478     Delta-E=       -0.056652782231 Rises=F Damp=T
 DIIS: error= 7.52D-03 at cycle   2 NSaved=   2.
 NSaved= 2 IEnMin= 2 EnMin= -248.298335702478     IErMin= 2 ErrMin= 7.52D-03
 ErrMax= 7.52D-03  0.00D+00 EMaxC= 1.00D-01 BMatC= 8.12D-03 BMatP= 1.28D-01
 IDIUse=3 WtCom= 9.25D-01 WtEn= 7.52D-02
 Coeff-Com: -0.243D-01 0.102D+01
 Coeff-En:   0.111D-01 0.989D+00
 Coeff:     -0.216D-01 0.102D+01
 Gap=     0.225 Goal=   None    Shift=    0.000
 RMSDP=1.07D-03 MaxDP=1.32D-02 DE=-5.67D-02 OVMax= 1.00D-01

 Cycle   3  Pass 0  IDiag  1:
 E= -248.358700235696     Delta-E=       -0.060364533218 Rises=F Damp=F
 DIIS: error= 8.42D-03 at cycle   3 NSaved=   3.
 NSaved= 3 IEnMin= 3 EnMin= -248.358700235696     IErMin= 2 ErrMin= 7.52D-03
 ErrMax= 8.42D-03  0.00D+00 EMaxC= 1.00D-01 BMatC= 3.96D-03 BMatP= 8.12D-03
 IDIUse=3 WtCom= 9.16D-01 WtEn= 8.42D-02
 Coeff-Com: -0.783D-01 0.420D+00 0.658D+00
 Coeff-En:   0.000D+00 0.000D+00 0.100D+01
 Coeff:     -0.717D-01 0.384D+00 0.687D+00
 Gap=     0.228 Goal=   None    Shift=    0.000
 RMSDP=4.52D-04 MaxDP=8.95D-03 DE=-6.04D-02 OVMax= 4.14D-02

 Cycle   4  Pass 0  IDiag  1:
 E= -248.361473349029     Delta-E=       -0.002773113334 Rises=F Damp=F
 DIIS: error= 5.39D-03 at cycle   4 NSaved=   4.
 NSaved= 4 IEnMin= 4 EnMin= -248.361473349029     IErMin= 4 ErrMin= 5.39D-03
 ErrMax= 5.39D-03  0.00D+00 EMaxC= 1.00D-01 BMatC= 1.04D-03 BMatP= 3.96D-03
 IDIUse=3 WtCom= 9.46D-01 WtEn= 5.39D-02
 Coeff-Com: -0.400D-01 0.153D+00 0.400D+00 0.487D+00
 Coeff-En:   0.000D+00 0.000D+00 0.205D+00 0.795D+00
 Coeff:     -0.378D-01 0.145D+00 0.390D+00 0.504D+00
 Gap=     0.225 Goal=   None    Shift=    0.000
 RMSDP=2.07D-04 MaxDP=4.82D-03 DE=-2.77D-03 OVMax= 1.96D-02

 Cycle   5  Pass 0  IDiag  1:
 E= -248.362481291906     Delta-E=       -0.001007942877 Rises=F Damp=F
 DIIS: error= 1.31D-03 at cycle   5 NSaved=   5.
 NSaved= 5 IEnMin= 5 EnMin= -248.362481291906     IErMin= 5 ErrMin= 1.31D-03
 ErrMax= 1.31D-03  0.00D+00 EMaxC= 1.00D-01 BMatC= 7.02D-05 BMatP= 1.04D-03
 IDIUse=3 WtCom= 9.87D-01 WtEn= 1.31D-02
 Coeff-Com: -0.116D-01 0.290D-01 0.126D+00 0.260D+00 0.597D+00
 Coeff-En:   0.000D+00 0.000D+00 0.000D+00 0.579D-02 0.994D+00
 Coeff:     -0.114D-01 0.287D-01 0.124D+00 0.257D+00 0.602D+00
 Gap=     0.227 Goal=   None    Shift=    0.000
 RMSDP=6.33D-05 MaxDP=9.98D-04 DE=-1.01D-03 OVMax= 4.77D-03

 Cycle   6  Pass 0  IDiag  1:
 E= -248.362540885852     Delta-E=       -0.000059593946 Rises=F Damp=F
 DIIS: error= 7.06D-04 at cycle   6 NSaved=   6.
 NSaved= 6 IEnMin= 6 EnMin= -248.362540885852     IErMin= 6 ErrMin= 7.06D-04
 ErrMax= 7.06D-04  0.00D+00 EMaxC= 1.00D-01 BMatC= 1.69D-05 BMatP= 7.02D-05
 IDIUse=3 WtCom= 9.93D-01 WtEn= 7.06D-03
 Coeff-Com: -0.557D-02 0.106D-01 0.619D-01 0.147D+00 0.412D+00 0.375D+00
 Coeff-En:   0.000D+00 0.000D+00 0.000D+00 0.000D+00 0.161D+00 0.839D+00
 Coeff:     -0.553D-02 0.105D-01 0.615D-01 0.146D+00 0.410D+00 0.378D+00
 Gap=     0.226 Goal=   None    Shift=    0.000
 RMSDP=2.36D-05 MaxDP=4.98D-04 DE=-5.96D-05 OVMax= 1.87D-03

 Cycle   7  Pass 0  IDiag  1:
 E= -248.362556677244     Delta-E=       -0.000015791393 Rises=F Damp=F
 DIIS: error= 3.09D-05 at cycle   7 NSaved=   7.
 NSaved= 7 IEnMin= 7 EnMin= -248.362556677244     IErMin= 7 ErrMin= 3.09D-05
 ErrMax= 3.09D-05  0.00D+00 EMaxC= 1.00D-01 BMatC= 8.67D-08 BMatP= 1.69D-05
 IDIUse=1 WtCom= 1.00D+00 WtEn= 0.00D+00
 Coeff-Com: -0.340D-03 0.130D-03 0.588D-02 0.142D-01 0.533D-01 0.923D-01
 Coeff-Com:  0.835D+00
 Coeff:     -0.340D-03 0.130D-03 0.588D-02 0.142D-01 0.533D-01 0.923D-01
 Coeff:      0.835D+00
 Gap=     0.226 Goal=   None    Shift=    0.000
 RMSDP=2.31D-06 MaxDP=4.34D-05 DE=-1.58D-05 OVMax= 9.40D-05

 Initial convergence to 1.0D-05 achieved.  Increase integral accuracy.
 Cycle   8  Pass 1  IDiag  1:
 E= -248.362546946153     Delta-E=        0.000009731091 Rises=F Damp=F
 DIIS: error= 1.54D-05 at cycle   1 NSaved=   1.
 NSaved= 1 IEnMin= 1 EnMin= -248.362546946153     IErMin= 1 ErrMin= 1.54D-05
 ErrMax= 1.54D-05  0.00D+00 EMaxC= 1.00D-01 BMatC= 2.12D-08 BMatP= 2.12D-08
 IDIUse=1 WtCom= 1.00D+00 WtEn= 0.00D+00
 Coeff-Com:  0.100D+01
 Coeff:      0.100D+01
 Gap=     0.226 Goal=   None    Shift=    0.000
 RMSDP=2.31D-06 MaxDP=4.34D-05 DE= 9.73D-06 OVMax= 1.19D-04

 Cycle   9  Pass 1  IDiag  1:
 E= -248.362546927148     Delta-E=        0.000000019006 Rises=F Damp=F
 DIIS: error= 2.27D-05 at cycle   2 NSaved=   2.
 NSaved= 2 IEnMin= 1 EnMin= -248.362546946153     IErMin= 1 ErrMin= 1.54D-05
 ErrMax= 2.27D-05  0.00D+00 EMaxC= 1.00D-01 BMatC= 4.23D-08 BMatP= 2.12D-08
 IDIUse=1 WtCom= 1.00D+00 WtEn= 0.00D+00
 Coeff-Com:  0.588D+00 0.412D+00
 Coeff:      0.588D+00 0.412D+00
 Gap=     0.226 Goal=   None    Shift=    0.000
 RMSDP=9.19D-07 MaxDP=3.19D-05 DE= 1.90D-08 OVMax= 7.16D-05

 Cycle  10  Pass 1  IDiag  1:
 E= -248.362546966766     Delta-E=       -0.000000039618 Rises=F Damp=F
 DIIS: error= 9.30D-07 at cycle   3 NSaved=   3.
 NSaved= 3 IEnMin= 3 EnMin= -248.362546966766     IErMin= 3 ErrMin= 9.30D-07
 ErrMax= 9.30D-07  0.00D+00 EMaxC= 1.00D-01 BMatC= 6.59D-11 BMatP= 2.12D-08
 IDIUse=1 WtCom= 1.00D+00 WtEn= 0.00D+00
 Coeff-Com:  0.114D-01 0.351D-01 0.953D+00
 Coeff:      0.114D-01 0.351D-01 0.953D+00
 Gap=     0.226 Goal=   None    Shift=    0.000
 RMSDP=1.07D-07 MaxDP=1.92D-06 DE=-3.96D-08 OVMax= 5.73D-06

 Cycle  11  Pass 1  IDiag  1:
 E= -248.362546966741     Delta-E=        0.000000000024 Rises=F Damp=F
 DIIS: error= 1.52D-06 at cycle   4 NSaved=   4.
 NSaved= 4 IEnMin= 3 EnMin= -248.362546966766     IErMin= 3 ErrMin= 9.30D-07
 ErrMax= 1.52D-06  0.00D+00 EMaxC= 1.00D-01 BMatC= 9.55D-11 BMatP= 6.59D-11
 IDIUse=1 WtCom= 1.00D+00 WtEn= 0.00D+00
 Coeff-Com: -0.168D-01 0.699D-02 0.644D+00 0.366D+00
 Coeff:     -0.168D-01 0.699D-02 0.644D+00 0.366D+00
 Gap=     0.226 Goal=   None    Shift=    0.000
 RMSDP=5.53D-08 MaxDP=1.20D-06 DE= 2.45D-11 OVMax= 4.29D-06

 Cycle  12  Pass 1  IDiag  1:
 E= -248.362546966827     Delta-E=       -0.000000000086 Rises=F Damp=F
 DIIS: error= 1.46D-07 at cycle   5 NSaved=   5.
 NSaved= 5 IEnMin= 5 EnMin= -248.362546966827     IErMin= 5 ErrMin= 1.46D-07
 ErrMax= 1.46D-07  0.00D+00 EMaxC= 1.00D-01 BMatC= 1.30D-12 BMatP= 6.59D-11
 IDIUse=1 WtCom= 1.00D+00 WtEn= 0.00D+00
 Coeff-Com: -0.879D-02 0.153D-02 0.248D+00 0.162D+00 0.597D+00
 Coeff:     -0.879D-02 0.153D-02 0.248D+00 0.162D+00 0.597D+00
 Gap=     0.226 Goal=   None    Shift=    0.000
 RMSDP=7.71D-09 MaxDP=1.55D-07 DE=-8.61D-11 OVMax= 5.29D-07

 SCF Done:  E(RB3LYP) =  -248.362546967     A.U. after   12 cycles
            NFock= 12  Conv=0.77D-08     -V/T= 2.0052
 KE= 2.470721707293D+02 PE=-9.861071711084D+02 EE= 2.860581335555D+02
 Leave Link  502 at Wed Nov 23 18:52:57 2022, MaxMem=  2684354560 cpu:              31.4 elap:               3.8
 (Enter /data0/home/software/g16/l601.exe)
 Copying SCF densities to generalized density rwf, IOpCl= 0 IROHF=0.

 **********************************************************************

            Population analysis using the SCF density.

 **********************************************************************

 Orbital symmetries:
       Occupied  (A) (A) (A) (A) (A) (A) (A) (A) (A) (A) (A) (A)
                 (A) (A) (A) (A) (A) (A) (A) (A) (A)
       Virtual   (A) (A) (A) (A) (A) (A) (A) (A) (A) (A) (A) (A)
                 (A) (A) (A) (A) (A) (A) (A) (A) (A) (A) (A) (A)
                 (A) (A) (A) (A) (A) (A) (A) (A) (A) (A) (A) (A)
                 (A) (A) (A) (A) (A) (A) (A) (A) (A) (A) (A) (A)
                 (A) (A) (A) (A) (A) (A) (A) (A) (A) (A) (A) (A)
                 (A) (A) (A) (A) (A) (A) (A) (A) (A) (A) (A) (A)
                 (A) (A) (A) (A) (A) (A) (A) (A) (A) (A) (A) (A)
                 (A) (A) (A) (A) (A) (A) (A) (A) (A) (A) (A) (A)
                 (A) (A) (A) (A) (A) (A) (A) (A) (A) (A) (A) (A)
                 (A) (A) (A) (A) (A) (A) (A) (A) (A)
 The electronic state is 1-A.
 Alpha  occ. eigenvalues --  -14.31135 -10.21382 -10.21379 -10.19943 -10.19057
 Alpha  occ. eigenvalues --  -10.19054  -0.94124  -0.80837  -0.76300  -0.63275
 Alpha  occ. eigenvalues --   -0.63006  -0.53017  -0.48411  -0.47370  -0.43237
 Alpha  occ. eigenvalues --   -0.40853  -0.40038  -0.36994  -0.29435  -0.26884
 Alpha  occ. eigenvalues --   -0.26083
 Alpha virt. eigenvalues --   -0.03481  -0.02407   0.03927   0.07034   0.08378
 Alpha virt. eigenvalues --    0.10678   0.11649   0.12816   0.20432   0.25716
 Alpha virt. eigenvalues --    0.27126   0.27332   0.30630   0.34215   0.37305
 Alpha virt. eigenvalues --    0.38020   0.38380   0.40769   0.41726   0.43419
 Alpha virt. eigenvalues --    0.44455   0.44807   0.51482   0.52625   0.53037
 Alpha virt. eigenvalues --    0.54538   0.57286   0.58843   0.61612   0.64110
 Alpha virt. eigenvalues --    0.67113   0.69635   0.72250   0.74692   0.74974
 Alpha virt. eigenvalues --    0.75498   0.79365   0.81603   0.83507   0.94336
 Alpha virt. eigenvalues --    0.95733   0.98525   1.02219   1.05193   1.07292
 Alpha virt. eigenvalues --    1.09913   1.19100   1.23147   1.28572   1.32943
 Alpha virt. eigenvalues --    1.42425   1.43616   1.47670   1.52520   1.52953
 Alpha virt. eigenvalues --    1.56454   1.56950   1.57422   1.62970   1.68566
 Alpha virt. eigenvalues --    1.69155   1.75693   1.75699   1.76410   1.77327
 Alpha virt. eigenvalues --    1.86352   1.88540   1.91392   1.91728   1.94299
 Alpha virt. eigenvalues --    2.03865   2.06932   2.12746   2.15104   2.16845
 Alpha virt. eigenvalues --    2.23310   2.29313   2.33449   2.37795   2.41633
 Alpha virt. eigenvalues --    2.52952   2.53616   2.56458   2.58281   2.58989
 Alpha virt. eigenvalues --    2.60725   2.63131   2.63872   2.67332   2.72160
 Alpha virt. eigenvalues --    2.73894   2.74884   2.83218   2.88621   2.91188
 Alpha virt. eigenvalues --    2.91476   2.95101   3.10479   3.26587   3.36699
 Alpha virt. eigenvalues --    3.42130   3.45451   3.59184   3.66321   3.82705
 Alpha virt. eigenvalues --    3.95210   3.97306   4.01438   4.36071   4.37344
 Alpha virt. eigenvalues --    5.17898  23.58886  23.86571  23.94453  24.03096
 Alpha virt. eigenvalues --   24.10286  35.59806
          Condensed to atoms (all electrons):
               1          2          3          4          5          6
     1  C    4.751533   0.485811  -0.073351  -0.028319  -0.116148   0.519652
     2  C    0.485811   5.000326   0.511158  -0.043673  -0.028351  -0.045879
     3  C   -0.073351   0.511158   4.830724   0.511122  -0.073405  -0.042273
     4  C   -0.028319  -0.043673   0.511122   5.000191   0.485788  -0.045854
     5  C   -0.116148  -0.028351  -0.073405   0.485788   4.751807   0.519639
     6  N    0.519652  -0.045879  -0.042273  -0.045854   0.519639   6.440323
     7  H    0.006319  -0.044503   0.423732  -0.044500   0.006317  -0.001110
     8  H    0.418631  -0.059752   0.004570  -0.000004   0.005324  -0.032129
     9  H   -0.027956   0.394696  -0.044089   0.007841  -0.000169   0.006105
    10  H   -0.000171   0.007840  -0.044076   0.394714  -0.027953   0.006098
    11  H    0.005322  -0.000003   0.004573  -0.059747   0.418612  -0.032132
               7          8          9         10         11
     1  C    0.006319   0.418631  -0.027956  -0.000171   0.005322
     2  C   -0.044503  -0.059752   0.394696   0.007840  -0.000003
     3  C    0.423732   0.004570  -0.044089  -0.044076   0.004573
     4  C   -0.044500  -0.000004   0.007841   0.394714  -0.059747
     5  C    0.006317   0.005324  -0.000169  -0.027953   0.418612
     6  N   -0.001110  -0.032129   0.006105   0.006098  -0.032132
     7  H    0.565018  -0.000318  -0.008482  -0.008472  -0.000318
     8  H   -0.000318   0.553187  -0.002991   0.000101  -0.000475
     9  H   -0.008482  -0.002991   0.572497  -0.000093   0.000101
    10  H   -0.008472   0.000101  -0.000093   0.572440  -0.002992
    11  H   -0.000318  -0.000475   0.000101  -0.002992   0.553193
 Mulliken charges:
               1
     1  C    0.058677
     2  C   -0.177670
     3  C   -0.008686
     4  C   -0.177559
     5  C    0.058537
     6  N   -0.292440
     7  H    0.106317
     8  H    0.113857
     9  H    0.102539
    10  H    0.102563
    11  H    0.113865
 Sum of Mulliken charges =  -0.00000
 Mulliken charges with hydrogens summed into heavy atoms:
               1
     1  C    0.172534
     2  C   -0.075131
     3  C    0.097631
     4  C   -0.074996
     5  C    0.172402
     6  N   -0.292440
 Electronic spatial extent (au):  <R**2>=            439.7193
 Charge=             -0.0000 electrons
 Dipole moment (field-independent basis, Debye):
    X=              0.0144    Y=              2.1898    Z=              0.0004  Tot=              2.1898
 Quadrupole moment (field-independent basis, Debye-Ang):
   XX=            -29.4367   YY=            -36.2422   ZZ=            -37.8751
   XY=             -0.0437   XZ=              0.0013   YZ=              0.0017
 Traceless Quadrupole moment (field-independent basis, Debye-Ang):
   XX=              5.0813   YY=             -1.7242   ZZ=             -3.3571
   XY=             -0.0437   XZ=              0.0013   YZ=              0.0017
 Octapole moment (field-independent basis, Debye-Ang**2):
  XXX=             -0.0422  YYY=             14.4199  ZZZ=              0.0009  XYY=              0.1224
  XXY=             -2.2565  XXZ=             -0.0008  XZZ=             -0.0110  YZZ=             -1.5927
  YYZ=              0.0045  XYZ=              0.0001
 Hexadecapole moment (field-independent basis, Debye-Ang**3):
 XXXX=           -255.3133 YYYY=           -286.4453 ZZZZ=            -40.9807 XXXY=              0.0680
 XXXZ=             -0.0098 YYYX=             -0.2924 YYYZ=              0.0172 ZZZX=             -0.0183
 ZZZY=              0.0035 XXYY=            -81.3860 XXZZ=            -59.3449 YYZZ=            -57.2081
 XXYZ=             -0.0003 YYXZ=             -0.0029 ZZXY=              0.0098
 N-N= 2.046143198566D+02 E-N=-9.861071610151D+02  KE= 2.470721707293D+02
 No NMR shielding tensors so no spin-rotation constants.
 Leave Link  601 at Wed Nov 23 18:52:57 2022, MaxMem=  2684354560 cpu:               0.9 elap:               0.1
 (Enter /data0/home/software/g16/l701.exe)
 ... and contract with generalized density number  0.
 Compute integral first derivatives.
 R6Disp: Adding Grimme-D3(BJ) dispersion energy 1st derivatives to the gradient.
 Leave Link  701 at Wed Nov 23 18:52:57 2022, MaxMem=  2684354560 cpu:               0.9 elap:               0.2
 (Enter /data0/home/software/g16/l702.exe)
 L702 exits ... SP integral derivatives will be done elsewhere.
 Leave Link  702 at Wed Nov 23 18:52:57 2022, MaxMem=  2684354560 cpu:               0.2 elap:               0.0
 (Enter /data0/home/software/g16/l703.exe)
 Integral derivatives from FoFJK, PRISM(SPDF).
 Compute integral first derivatives, UseDBF=F ICtDFT=           0.
 Calling FoFJK, ICntrl=      2127 FMM=F ISym2X=0 I1Cent= 0 IOpClX= 0 NMat=1 NMatS=1 NMatT=0.
 FoFJK:  IHMeth= 1 ICntrl=    2127 DoSepK=F KAlg= 0 I1Cent=           0 FoldK=F
 IRaf=         0 NMat=       1 IRICut=       1 DoRegI=T DoRafI=F ISym2E= 0 IDoP0=0 IntGTp=1.
 FoFCou: FMM=F IPFlag=           0 FMFlag=      100000 FMFlg1=         800
         NFxFlg=           0 DoJE=F BraDBF=F KetDBF=F FulRan=T
         wScrn=  0.000000 ICntrl=      2127 IOpCl=  0 I1Cent=           0 NGrid=           0
         NMat0=    1 NMatS0=      1 NMatT0=    0 NMatD0=    1 NMtDS0=    0 NMtDT0=    0
 Symmetry not used in FoFCou.
 Leave Link  703 at Wed Nov 23 18:52:58 2022, MaxMem=  2684354560 cpu:              11.4 elap:               1.2
 (Enter /data0/home/software/g16/l716.exe)
 Dipole        = 5.67014748D-03 8.61528740D-01 1.58361618D-04
 ***** Axes restored to original set *****
 -------------------------------------------------------------------
 Center     Atomic                   Forces (Hartrees/Bohr)
 Number     Number              X              Y              Z
 -------------------------------------------------------------------
      1        6           0.000289341    0.001081482    0.000006016
      2        6          -0.004945205   -0.003941907    0.000034698
      3        6           0.004117285    0.000069241   -0.000099387
      4        6          -0.005371105    0.003566615    0.000003351
      5        6           0.000276345   -0.001086157    0.000035314
      6        7           0.010912946    0.000538457   -0.000011354
      7        1          -0.009952646   -0.000344076    0.000059525
      8        1           0.006726444    0.010007639   -0.000001368
      9        1          -0.005056567    0.007835032   -0.000015862
     10        1          -0.004464297   -0.008198460   -0.000005118
     11        1           0.007467458   -0.009527867   -0.000005815
 -------------------------------------------------------------------
 Cartesian Forces:  Max     0.010912946 RMS     0.004879282
 Leave Link  716 at Wed Nov 23 18:52:58 2022, MaxMem=  2684354560 cpu:               0.2 elap:               0.0
 (Enter /data0/home/software/g16/l103.exe)

 GradGradGradGradGradGradGradGradGradGradGradGradGradGradGradGradGradGrad
 Berny optimization.
 FormGI is forming the generalized inverse of G from B-inverse, IUseBI=4.
 Internal  Forces:  Max     0.012833313 RMS     0.005121847
 Search for a local minimum.
 Step number   1 out of a maximum of   57
 All quantities printed in internal units (Hartrees-Bohrs-Radians)
 RMS Force = .51218D-02 SwitMx=.10000D-02 MixMth= 1
 Mixed Optimization -- RFO/linear search
 Second derivative matrix not updated -- first step.
 ITU=  0
     Eigenvalues ---    0.02054   0.02054   0.02087   0.02089   0.02126
     Eigenvalues ---    0.02141   0.02147   0.02316   0.16000   0.16000
     Eigenvalues ---    0.16000   0.16000   0.16000   0.22000   0.22000
     Eigenvalues ---    0.23194   0.33172   0.33180   0.33764   0.33967
     Eigenvalues ---    0.33968   0.40936   0.44014   0.44506   0.46000
     Eigenvalues ---    0.53625   0.54774
 RFO step:  Lambda=-3.06359415D-03 EMin= 2.05387258D-02
 Linear search not attempted -- first point.
 Iteration  1 RMS(Cart)=  0.01895166 RMS(Int)=  0.00002964
 Iteration  2 RMS(Cart)=  0.00003684 RMS(Int)=  0.00000586
 Iteration  3 RMS(Cart)=  0.00000000 RMS(Int)=  0.00000586
 ITry= 1 IFail=0 DXMaxC= 4.82D-02 DCOld= 1.00D+10 DXMaxT= 3.00D-01 DXLimC= 3.00D+00 Rises=F
 Variable       Old X    -DE/DX   Delta X   Delta X   Delta X     New X
                                 (Linear)    (Quad)   (Total)
    R1        2.65861  -0.01277   0.00000  -0.02853  -0.02853   2.63008
    R2        2.54585  -0.01124   0.00000  -0.02070  -0.02069   2.52516
    R3        2.08736  -0.01204   0.00000  -0.03596  -0.03596   2.05140
    R4        2.63821  -0.00600   0.00000  -0.01213  -0.01214   2.62607
    R5        2.07384  -0.00932   0.00000  -0.02718  -0.02718   2.04666
    R6        2.63801  -0.00590   0.00000  -0.01193  -0.01193   2.62608
    R7        2.07731  -0.00996   0.00000  -0.02923  -0.02923   2.04808
    R8        2.65877  -0.01283   0.00000  -0.02869  -0.02869   2.63008
    R9        2.07385  -0.00933   0.00000  -0.02721  -0.02721   2.04664
   R10        2.54622  -0.01142   0.00000  -0.02105  -0.02104   2.52518
   R11        2.08750  -0.01209   0.00000  -0.03611  -0.03611   2.05140
    A1        2.15518   0.00146   0.00000   0.00515   0.00516   2.16034
    A2        2.10831  -0.00141   0.00000  -0.00676  -0.00677   2.10154
    A3        2.01970  -0.00005   0.00000   0.00161   0.00161   2.02130
    A4        2.06865  -0.00089   0.00000  -0.00221  -0.00222   2.06643
    A5        2.10074   0.00003   0.00000  -0.00145  -0.00145   2.09929
    A6        2.11379   0.00086   0.00000   0.00367   0.00367   2.11746
    A7        2.07309  -0.00134   0.00000  -0.00265  -0.00267   2.07042
    A8        2.10485   0.00069   0.00000   0.00143   0.00144   2.10628
    A9        2.10525   0.00065   0.00000   0.00122   0.00123   2.10648
   A10        2.06831  -0.00080   0.00000  -0.00186  -0.00187   2.06644
   A11        2.11417   0.00080   0.00000   0.00341   0.00342   2.11758
   A12        2.10071  -0.00001   0.00000  -0.00155  -0.00155   2.09916
   A13        2.15543   0.00141   0.00000   0.00489   0.00490   2.16032
   A14        2.10824  -0.00139   0.00000  -0.00664  -0.00664   2.10160
   A15        2.01951  -0.00002   0.00000   0.00175   0.00175   2.02126
   A16        2.04571   0.00016   0.00000  -0.00332  -0.00330   2.04241
    D1        0.00018  -0.00000   0.00000  -0.00020  -0.00020  -0.00002
    D2        3.14149   0.00000   0.00000   0.00002   0.00002   3.14151
    D3       -3.14146  -0.00000   0.00000  -0.00018  -0.00018   3.14154
    D4       -0.00015   0.00000   0.00000   0.00004   0.00004  -0.00011
    D5       -0.00002  -0.00000   0.00000  -0.00011  -0.00011  -0.00012
    D6       -3.14157  -0.00000   0.00000  -0.00012  -0.00012   3.14150
    D7       -0.00020   0.00001   0.00000   0.00031   0.00031   0.00012
    D8       -3.14059  -0.00002   0.00000  -0.00081  -0.00081  -3.14140
    D9       -3.14151   0.00000   0.00000   0.00010   0.00010  -3.14141
   D10        0.00128  -0.00002   0.00000  -0.00103  -0.00103   0.00025
   D11        0.00007  -0.00000   0.00000  -0.00014  -0.00014  -0.00007
   D12       -3.14149  -0.00001   0.00000  -0.00025  -0.00025   3.14144
   D13        3.14047   0.00002   0.00000   0.00099   0.00099   3.14145
   D14       -0.00110   0.00002   0.00000   0.00088   0.00088  -0.00022
   D15        0.00009  -0.00000   0.00000  -0.00017  -0.00017  -0.00009
   D16        3.14148   0.00000   0.00000   0.00018   0.00018  -3.14153
   D17       -3.14153  -0.00000   0.00000  -0.00007  -0.00007   3.14159
   D18       -0.00014   0.00001   0.00000   0.00029   0.00029   0.00015
   D19       -0.00012   0.00001   0.00000   0.00029   0.00030   0.00018
   D20       -3.14151  -0.00000   0.00000  -0.00005  -0.00005  -3.14156
         Item               Value     Threshold  Converged?
 Maximum Force            0.012833     0.000450     NO 
 RMS     Force            0.005122     0.000300     NO 
 Maximum Displacement     0.048200     0.001800     NO 
 RMS     Displacement     0.018948     0.001200     NO 
 Predicted change in Energy=-1.544025D-03
 Lowest energy point so far.  Saving SCF results.
 GradGradGradGradGradGradGradGradGradGradGradGradGradGradGradGradGradGrad

 Leave Link  103 at Wed Nov 23 18:52:59 2022, MaxMem=  2684354560 cpu:               0.4 elap:               0.1
 (Enter /data0/home/software/g16/l202.exe)
                          Input orientation:                          
 ---------------------------------------------------------------------
 Center     Atomic      Atomic             Coordinates (Angstroms)
 Number     Number       Type             X           Y           Z
 ---------------------------------------------------------------------
      1          6           0       -2.761674   -0.981342   -0.000001
      2          6           0       -1.369905   -0.986196   -0.000041
      3          6           0       -0.704736    0.233925   -0.000310
      4          6           0       -1.457038    1.402343   -0.000383
      5          6           0       -2.844758    1.296107   -0.000265
      6          7           0       -3.500732    0.131930   -0.000180
      7          1           0        0.378344    0.273327   -0.000528
      8          1           0       -3.314420   -1.915636    0.000159
      9          1           0       -0.827064   -1.923378    0.000192
     10          1           0       -0.984045    2.376634   -0.000451
     11          1           0       -3.464148    2.187611   -0.000380
 ---------------------------------------------------------------------
                    Distance matrix (angstroms):
                    1          2          3          4          5
     1  C    0.000000
     2  C    1.391778   0.000000
     3  C    2.389114   1.389656   0.000000
     4  C    2.717357   2.390128   1.389662   0.000000
     5  C    2.278964   2.717370   2.389126   1.391780   0.000000
     6  N    1.336257   2.406373   2.797856   2.406374   1.336268
     7  H    3.381406   2.154709   1.083796   2.154833   3.381488
     8  H    1.085557   2.155226   3.380985   3.802480   3.245902
     9  H    2.151778   1.083045   2.160768   3.384862   3.799496
    10  H    3.799470   3.384896   2.160837   1.083036   2.151695
    11  H    3.245879   3.802487   3.381012   2.155258   1.085552
                    6          7          8          9         10
     6  N    0.000000
     7  H    3.881652   0.000000
     8  H    2.056025   4.292792   0.000000
     9  H    3.372357   2.505697   2.487369   0.000000
    10  H    3.372301   2.505993   4.884080   4.302877   0.000000
    11  H    2.056006   4.292927   4.105977   4.884101   2.487296
                   11
    11  H    0.000000
 Stoichiometry    C5H5N
 Framework group  C1[X(C5H5N)]
 Deg. of freedom    27
 Full point group                 C1      NOp   1
 RotChk:  IX=0 Diff= 1.01D-02
 Largest Abelian subgroup         C1      NOp   1
 Largest concise Abelian subgroup C1      NOp   1
                         Standard orientation:                         
 ---------------------------------------------------------------------
 Center     Atomic      Atomic             Coordinates (Angstroms)
 Number     Number       Type             X           Y           Z
 ---------------------------------------------------------------------
      1          6           0       -1.139037   -0.719978   -0.000196
      2          6           0       -1.195472    0.670655   -0.000156
      3          6           0       -0.000843    1.380589    0.000113
      4          6           0        1.194656    0.672110    0.000186
      5          6           0        1.139927   -0.718594    0.000068
      6          7           0        0.000862   -1.417266   -0.000017
      7          1           0       -0.001610    2.464385    0.000331
      8          1           0       -2.052202   -1.306973   -0.000355
      9          1           0       -2.152129    1.178388   -0.000389
     10          1           0        2.150747    1.180889    0.000254
     11          1           0        2.053775   -1.304516    0.000183
 ---------------------------------------------------------------------
 Rotational constants (GHZ):           6.0696233           5.8401292           2.9763326
 Leave Link  202 at Wed Nov 23 18:52:59 2022, MaxMem=  2684354560 cpu:               0.0 elap:               0.0
 (Enter /data0/home/software/g16/l301.exe)
 Standard basis: 6-311G(d,p) (5D, 7F)
 Ernie: Thresh=  0.10000D-02 Tol=  0.10000D-05 Strict=F.
 There are   144 symmetry adapted cartesian basis functions of A   symmetry.
 There are   138 symmetry adapted basis functions of A   symmetry.
   138 basis functions,   232 primitive gaussians,   144 cartesian basis functions
    21 alpha electrons       21 beta electrons
       nuclear repulsion energy       206.4454171811 Hartrees.
 IExCor=  402 DFT=T Ex+Corr=B3LYP ExCW=0 ScaHFX=  0.200000
 ScaDFX=  0.800000  0.720000  1.000000  0.810000 ScalE2=  1.000000  1.000000
 IRadAn=      5 IRanWt=     -1 IRanGd=            0 ICorTp=0 IEmpDi=141
 NAtoms=   11 NActive=   11 NUniq=   11 SFac= 1.00D+00 NAtFMM=   60 NAOKFM=F Big=F
 Integral buffers will be    131072 words long.
 Raffenetti 2 integral format.
 Two-electron integral symmetry is turned on.
 R6Disp:  Grimme-D3(BJ) Dispersion energy=       -0.0171667028 Hartrees.
 Nuclear repulsion after empirical dispersion term =      206.4282504783 Hartrees.
 Leave Link  301 at Wed Nov 23 18:52:59 2022, MaxMem=  2684354560 cpu:               0.4 elap:               0.1
 (Enter /data0/home/software/g16/l302.exe)
 NPDir=0 NMtPBC=     1 NCelOv=     1 NCel=       1 NClECP=     1 NCelD=      1
         NCelK=      1 NCelE2=     1 NClLst=     1 CellRange=     0.0.
 One-electron integrals computed using PRISM.
 One-electron integral symmetry used in STVInt
 NBasis=   138 RedAO= T EigKep=  5.46D-04  NBF=   138
 NBsUse=   138 1.00D-06 EigRej= -1.00D+00 NBFU=   138
 Precomputing XC quadrature grid using
 IXCGrd= 4 IRadAn=           5 IRanWt=          -1 IRanGd=           0 AccXCQ= 0.00D+00.
 Generated NRdTot=       0 NPtTot=           0 NUsed=           0 NTot=          32
 NSgBfM=   144   144   144   144   144 MxSgAt=    11 MxSgA2=    11.
 Leave Link  302 at Wed Nov 23 18:52:59 2022, MaxMem=  2684354560 cpu:               1.0 elap:               0.1
 (Enter /data0/home/software/g16/l303.exe)
 DipDrv:  MaxL=1.
 Leave Link  303 at Wed Nov 23 18:52:59 2022, MaxMem=  2684354560 cpu:               0.2 elap:               0.0
 (Enter /data0/home/software/g16/l401.exe)
 Initial guess from the checkpoint file:  "Py.chk"
 B after Tr=    -0.000000   -0.000000   -0.000000
         Rot=    0.999994   -0.000033   -0.000000   -0.003574 Ang=  -0.41 deg.
 Guess basis will be translated and rotated to current coordinates.
 JPrj=2 DoOrth=T DoCkMO=T.
 Generating alternative initial guess.
 ExpMin= 1.03D-01 ExpMax= 6.29D+03 ExpMxC= 9.49D+02 IAcc=2 IRadAn=         4 AccDes= 0.00D+00
 Harris functional with IExCor=  402 and IRadAn=       4 diagonalized for initial guess.
 HarFok:  IExCor=  402 AccDes= 0.00D+00 IRadAn=         4 IDoV= 1 UseB2=F ITyADJ=14
 ICtDFT=  3500011 ScaDFX=  1.000000  1.000000  1.000000  1.000000
 FoFCou: FMM=F IPFlag=           0 FMFlag=      100000 FMFlg1=           0
         NFxFlg=           0 DoJE=T BraDBF=F KetDBF=T FulRan=T
         wScrn=  0.000000 ICntrl=       500 IOpCl=  0 I1Cent=   200000004 NGrid=           0
         NMat0=    1 NMatS0=      1 NMatT0=    0 NMatD0=    1 NMtDS0=    0 NMtDT0=    0
 Petite list used in FoFCou.
 Harris En= -248.373684331604    
 Leave Link  401 at Wed Nov 23 18:52:59 2022, MaxMem=  2684354560 cpu:               2.6 elap:               0.3
 (Enter /data0/home/software/g16/l502.exe)
 Keep R1 ints in memory in canonical form, NReq=55708183.
 FoFCou: FMM=F IPFlag=           0 FMFlag=           0 FMFlg1=           0
         NFxFlg=           0 DoJE=F BraDBF=F KetDBF=F FulRan=T
         wScrn=  0.000000 ICntrl=       600 IOpCl=  0 I1Cent=           0 NGrid=           0
         NMat0=    1 NMatS0=   9591 NMatT0=    0 NMatD0=    1 NMtDS0=    0 NMtDT0=    0
 Symmetry not used in FoFCou.
 Two-electron integral symmetry not used.
 Closed shell SCF:
 Using DIIS extrapolation, IDIIS=  1040.
 NGot=  2684354560 LenX=  2638311669 LenY=  2638290492
 Requested convergence on RMS density matrix=1.00D-08 within 128 cycles.
 Requested convergence on MAX density matrix=1.00D-06.
 Requested convergence on             energy=1.00D-06.
 No special actions if energy rises.
 Integral accuracy reduced to 1.0D-05 until final iterations.

 Cycle   1  Pass 0  IDiag  1:
 E= -248.363645835110    
 DIIS: error= 1.63D-03 at cycle   1 NSaved=   1.
 NSaved= 1 IEnMin= 1 EnMin= -248.363645835110     IErMin= 1 ErrMin= 1.63D-03
 ErrMax= 1.63D-03  0.00D+00 EMaxC= 1.00D-01 BMatC= 4.33D-04 BMatP= 4.33D-04
 IDIUse=3 WtCom= 9.84D-01 WtEn= 1.63D-02
 Coeff-Com:  0.100D+01
 Coeff-En:   0.100D+01
 Coeff:      0.100D+01
 Gap=     0.830 Goal=   None    Shift=    0.000
 GapD=    0.830 DampG=2.000 DampE=1.000 DampFc=2.0000 IDamp=-1.
 RMSDP=1.52D-04 MaxDP=4.00D-03              OVMax= 5.38D-03

 Cycle   2  Pass 0  IDiag  1:
 E= -248.363955421070     Delta-E=       -0.000309585959 Rises=F Damp=F
 DIIS: error= 9.72D-04 at cycle   2 NSaved=   2.
 NSaved= 2 IEnMin= 2 EnMin= -248.363955421070     IErMin= 2 ErrMin= 9.72D-04
 ErrMax= 9.72D-04  0.00D+00 EMaxC= 1.00D-01 BMatC= 6.13D-05 BMatP= 4.33D-04
 IDIUse=3 WtCom= 9.90D-01 WtEn= 9.72D-03
 Coeff-Com:  0.201D+00 0.799D+00
 Coeff-En:   0.000D+00 0.100D+01
 Coeff:      0.199D+00 0.801D+00
 Gap=     0.227 Goal=   None    Shift=    0.000
 RMSDP=8.31D-05 MaxDP=2.04D-03 DE=-3.10D-04 OVMax= 3.00D-03

 Cycle   3  Pass 0  IDiag  1:
 E= -248.363991564130     Delta-E=       -0.000036143060 Rises=F Damp=F
 DIIS: error= 5.01D-04 at cycle   3 NSaved=   3.
 NSaved= 3 IEnMin= 3 EnMin= -248.363991564130     IErMin= 3 ErrMin= 5.01D-04
 ErrMax= 5.01D-04  0.00D+00 EMaxC= 1.00D-01 BMatC= 2.80D-05 BMatP= 6.13D-05
 IDIUse=3 WtCom= 9.95D-01 WtEn= 5.01D-03
 Coeff-Com:  0.184D-01 0.403D+00 0.579D+00
 Coeff-En:   0.000D+00 0.294D+00 0.706D+00
 Coeff:      0.183D-01 0.402D+00 0.580D+00
 Gap=     0.227 Goal=   None    Shift=    0.000
 RMSDP=3.20D-05 MaxDP=7.32D-04 DE=-3.61D-05 OVMax= 1.56D-03

 Cycle   4  Pass 0  IDiag  1:
 E= -248.364018829741     Delta-E=       -0.000027265611 Rises=F Damp=F
 DIIS: error= 1.41D-04 at cycle   4 NSaved=   4.
 NSaved= 4 IEnMin= 4 EnMin= -248.364018829741     IErMin= 4 ErrMin= 1.41D-04
 ErrMax= 1.41D-04  0.00D+00 EMaxC= 1.00D-01 BMatC= 1.16D-06 BMatP= 2.80D-05
 IDIUse=3 WtCom= 9.99D-01 WtEn= 1.41D-03
 Coeff-Com:  0.880D-03 0.158D+00 0.272D+00 0.569D+00
 Coeff-En:   0.000D+00 0.000D+00 0.000D+00 0.100D+01
 Coeff:      0.879D-03 0.158D+00 0.272D+00 0.570D+00
 Gap=     0.227 Goal=   None    Shift=    0.000
 RMSDP=7.58D-06 MaxDP=1.95D-04 DE=-2.73D-05 OVMax= 5.92D-04

 Initial convergence to 1.0D-05 achieved.  Increase integral accuracy.
 Cycle   5  Pass 1  IDiag  1:
 E= -248.364010269533     Delta-E=        0.000008560207 Rises=F Damp=F
 DIIS: error= 6.77D-05 at cycle   1 NSaved=   1.
 NSaved= 1 IEnMin= 1 EnMin= -248.364010269533     IErMin= 1 ErrMin= 6.77D-05
 ErrMax= 6.77D-05  0.00D+00 EMaxC= 1.00D-01 BMatC= 2.06D-07 BMatP= 2.06D-07
 IDIUse=1 WtCom= 1.00D+00 WtEn= 0.00D+00
 Coeff-Com:  0.100D+01
 Coeff:      0.100D+01
 Gap=     0.227 Goal=   None    Shift=    0.000
 RMSDP=7.58D-06 MaxDP=1.95D-04 DE= 8.56D-06 OVMax= 5.31D-04

 Cycle   6  Pass 1  IDiag  1:
 E= -248.364009814312     Delta-E=        0.000000455221 Rises=F Damp=F
 DIIS: error= 1.29D-04 at cycle   2 NSaved=   2.
 NSaved= 2 IEnMin= 1 EnMin= -248.364010269533     IErMin= 1 ErrMin= 6.77D-05
 ErrMax= 1.29D-04  0.00D+00 EMaxC= 1.00D-01 BMatC= 6.14D-07 BMatP= 2.06D-07
 IDIUse=3 WtCom= 4.68D-01 WtEn= 5.32D-01
 Coeff-Com:  0.635D+00 0.365D+00
 Coeff-En:   0.716D+00 0.284D+00
 Coeff:      0.678D+00 0.322D+00
 Gap=     0.227 Goal=   None    Shift=    0.000
 RMSDP=4.08D-06 MaxDP=8.67D-05 DE= 4.55D-07 OVMax= 3.31D-04

 Cycle   7  Pass 1  IDiag  1:
 E= -248.364010481649     Delta-E=       -0.000000667337 Rises=F Damp=F
 DIIS: error= 1.11D-05 at cycle   3 NSaved=   3.
 NSaved= 3 IEnMin= 3 EnMin= -248.364010481649     IErMin= 3 ErrMin= 1.11D-05
 ErrMax= 1.11D-05  0.00D+00 EMaxC= 1.00D-01 BMatC= 1.17D-08 BMatP= 2.06D-07
 IDIUse=1 WtCom= 1.00D+00 WtEn= 0.00D+00
 Coeff-Com:  0.363D+00 0.165D+00 0.471D+00
 Coeff:      0.363D+00 0.165D+00 0.471D+00
 Gap=     0.227 Goal=   None    Shift=    0.000
 RMSDP=6.15D-07 MaxDP=1.42D-05 DE=-6.67D-07 OVMax= 3.11D-05

 Cycle   8  Pass 1  IDiag  1:
 E= -248.364010492069     Delta-E=       -0.000000010420 Rises=F Damp=F
 DIIS: error= 2.25D-06 at cycle   4 NSaved=   4.
 NSaved= 4 IEnMin= 4 EnMin= -248.364010492069     IErMin= 4 ErrMin= 2.25D-06
 ErrMax= 2.25D-06  0.00D+00 EMaxC= 1.00D-01 BMatC= 4.43D-10 BMatP= 1.17D-08
 IDIUse=1 WtCom= 1.00D+00 WtEn= 0.00D+00
 Coeff-Com:  0.114D+00 0.443D-01 0.234D+00 0.607D+00
 Coeff:      0.114D+00 0.443D-01 0.234D+00 0.607D+00
 Gap=     0.227 Goal=   None    Shift=    0.000
 RMSDP=1.24D-07 MaxDP=3.60D-06 DE=-1.04D-08 OVMax= 6.76D-06

 Cycle   9  Pass 1  IDiag  1:
 E= -248.364010492371     Delta-E=       -0.000000000301 Rises=F Damp=F
 DIIS: error= 6.86D-07 at cycle   5 NSaved=   5.
 NSaved= 5 IEnMin= 5 EnMin= -248.364010492371     IErMin= 5 ErrMin= 6.86D-07
 ErrMax= 6.86D-07  0.00D+00 EMaxC= 1.00D-01 BMatC= 4.85D-11 BMatP= 4.43D-10
 IDIUse=1 WtCom= 1.00D+00 WtEn= 0.00D+00
 Coeff-Com:  0.835D-02-0.904D-03 0.565D-01 0.292D+00 0.644D+00
 Coeff:      0.835D-02-0.904D-03 0.565D-01 0.292D+00 0.644D+00
 Gap=     0.227 Goal=   None    Shift=    0.000
 RMSDP=4.47D-08 MaxDP=1.05D-06 DE=-3.01D-10 OVMax= 2.01D-06

 Cycle  10  Pass 1  IDiag  1:
 E= -248.364010492414     Delta-E=       -0.000000000043 Rises=F Damp=F
 DIIS: error= 1.11D-07 at cycle   6 NSaved=   6.
 NSaved= 6 IEnMin= 6 EnMin= -248.364010492414     IErMin= 6 ErrMin= 1.11D-07
 ErrMax= 1.11D-07  0.00D+00 EMaxC= 1.00D-01 BMatC= 1.59D-12 BMatP= 4.85D-11
 IDIUse=1 WtCom= 1.00D+00 WtEn= 0.00D+00
 Coeff-Com: -0.366D-02-0.310D-02 0.747D-02 0.512D-01 0.215D+00 0.733D+00
 Coeff:     -0.366D-02-0.310D-02 0.747D-02 0.512D-01 0.215D+00 0.733D+00
 Gap=     0.227 Goal=   None    Shift=    0.000
 RMSDP=7.83D-09 MaxDP=2.08D-07 DE=-4.26D-11 OVMax= 2.91D-07

 SCF Done:  E(RB3LYP) =  -248.364010492     A.U. after   10 cycles
            NFock= 10  Conv=0.78D-08     -V/T= 2.0041
 KE= 2.473472609480D+02 PE=-9.899499477121D+02 EE= 2.878104257934D+02
 Leave Link  502 at Wed Nov 23 18:53:03 2022, MaxMem=  2684354560 cpu:              30.3 elap:               3.6
 (Enter /data0/home/software/g16/l701.exe)
 ... and contract with generalized density number  0.
 Compute integral first derivatives.
 R6Disp: Adding Grimme-D3(BJ) dispersion energy 1st derivatives to the gradient.
 Leave Link  701 at Wed Nov 23 18:53:03 2022, MaxMem=  2684354560 cpu:               0.8 elap:               0.1
 (Enter /data0/home/software/g16/l702.exe)
 L702 exits ... SP integral derivatives will be done elsewhere.
 Leave Link  702 at Wed Nov 23 18:53:03 2022, MaxMem=  2684354560 cpu:               0.2 elap:               0.0
 (Enter /data0/home/software/g16/l703.exe)
 Integral derivatives from FoFJK, PRISM(SPDF).
 Compute integral first derivatives, UseDBF=F ICtDFT=           0.
 Calling FoFJK, ICntrl=      2127 FMM=F ISym2X=0 I1Cent= 0 IOpClX= 0 NMat=1 NMatS=1 NMatT=0.
 FoFJK:  IHMeth= 1 ICntrl=    2127 DoSepK=F KAlg= 0 I1Cent=           0 FoldK=F
 IRaf=         0 NMat=       1 IRICut=       1 DoRegI=T DoRafI=F ISym2E= 0 IDoP0=0 IntGTp=1.
 FoFCou: FMM=F IPFlag=           0 FMFlag=      100000 FMFlg1=         800
         NFxFlg=           0 DoJE=F BraDBF=F KetDBF=F FulRan=T
         wScrn=  0.000000 ICntrl=      2127 IOpCl=  0 I1Cent=           0 NGrid=           0
         NMat0=    1 NMatS0=      1 NMatT0=    0 NMatD0=    1 NMtDS0=    0 NMtDT0=    0
 Symmetry not used in FoFCou.
 Leave Link  703 at Wed Nov 23 18:53:04 2022, MaxMem=  2684354560 cpu:              10.8 elap:               1.1
 (Enter /data0/home/software/g16/l716.exe)
 Dipole        =-5.29047804D-04 8.61664379D-01-8.04429885D-06
 ***** Axes restored to original set *****
 -------------------------------------------------------------------
 Center     Atomic                   Forces (Hartrees/Bohr)
 Number     Number              X              Y              Z
 -------------------------------------------------------------------
      1        6          -0.001547992   -0.000462505   -0.000000920
      2        6           0.000079515   -0.000707676    0.000003327
      3        6           0.001890245    0.000064603   -0.000003882
      4        6           0.000021009    0.000718800    0.000006927
      5        6          -0.001578743    0.000325361   -0.000013986
      6        7           0.000855111    0.000034934    0.000009264
      7        1           0.000166604    0.000017873    0.000007203
      8        1          -0.000012360   -0.000665590   -0.000000114
      9        1           0.000088826   -0.000131618   -0.000006207
     10        1           0.000094456    0.000137691   -0.000004935
     11        1          -0.000056673    0.000668127    0.000003323
 -------------------------------------------------------------------
 Cartesian Forces:  Max     0.001890245 RMS     0.000590756
 Leave Link  716 at Wed Nov 23 18:53:04 2022, MaxMem=  2684354560 cpu:               0.2 elap:               0.0
 (Enter /data0/home/software/g16/l103.exe)

 GradGradGradGradGradGradGradGradGradGradGradGradGradGradGradGradGradGrad
 Berny optimization.
 Using GEDIIS/GDIIS optimizer.
 FormGI is forming the generalized inverse of G from B-inverse, IUseBI=4.
 Internal  Forces:  Max     0.001453539 RMS     0.000473802
 Search for a local minimum.
 Step number   2 out of a maximum of   57
 All quantities printed in internal units (Hartrees-Bohrs-Radians)
 RMS Force = .47380D-03 SwitMx=.10000D-02 MixMth= 2
 Mixed Optimization -- En-DIIS/RFO-DIIS
 Update second derivatives using D2CorX and points    1    2
 DE= -1.46D-03 DEPred=-1.54D-03 R= 9.48D-01
 TightC=F SS=  1.41D+00  RLast= 8.91D-02 DXNew= 5.0454D-01 2.6729D-01
 Trust test= 9.48D-01 RLast= 8.91D-02 DXMaxT set to 3.00D-01
 ITU=  1  0
 Use linear search instead of GDIIS.
     Eigenvalues ---    0.02054   0.02055   0.02087   0.02089   0.02127
     Eigenvalues ---    0.02141   0.02147   0.02316   0.15929   0.16000
     Eigenvalues ---    0.16000   0.16000   0.16005   0.21999   0.22003
     Eigenvalues ---    0.23280   0.33176   0.33487   0.33685   0.33898
     Eigenvalues ---    0.33968   0.40887   0.43739   0.45997   0.46666
     Eigenvalues ---    0.54647   0.54765
 RFO step:  Lambda=-1.67217386D-05 EMin= 2.05412542D-02
 Quartic linear search produced a step of -0.05397.
 Iteration  1 RMS(Cart)=  0.00158638 RMS(Int)=  0.00000102
 Iteration  2 RMS(Cart)=  0.00000111 RMS(Int)=  0.00000020
 Iteration  3 RMS(Cart)=  0.00000000 RMS(Int)=  0.00000020
 ITry= 1 IFail=0 DXMaxC= 5.52D-03 DCOld= 1.00D+10 DXMaxT= 3.00D-01 DXLimC= 3.00D+00 Rises=F
 Variable       Old X    -DE/DX   Delta X   Delta X   Delta X     New X
                                 (Linear)    (Quad)   (Total)
    R1        2.63008   0.00116   0.00154   0.00071   0.00225   2.63233
    R2        2.52516   0.00049   0.00112  -0.00047   0.00064   2.52580
    R3        2.05140   0.00058   0.00194  -0.00060   0.00134   2.05275
    R4        2.62607   0.00145   0.00066   0.00228   0.00293   2.62900
    R5        2.04666   0.00016   0.00147  -0.00126   0.00021   2.04687
    R6        2.62608   0.00144   0.00064   0.00226   0.00291   2.62899
    R7        2.04808   0.00017   0.00158  -0.00136   0.00022   2.04830
    R8        2.63008   0.00116   0.00155   0.00069   0.00224   2.63232
    R9        2.04664   0.00017   0.00147  -0.00124   0.00023   2.04687
   R10        2.52518   0.00049   0.00114  -0.00050   0.00064   2.52582
   R11        2.05140   0.00058   0.00195  -0.00060   0.00135   2.05274
    A1        2.16034  -0.00050  -0.00028  -0.00185  -0.00213   2.15821
    A2        2.10154  -0.00008   0.00037  -0.00134  -0.00097   2.10057
    A3        2.02130   0.00059  -0.00009   0.00319   0.00311   2.02441
    A4        2.06643   0.00022   0.00012   0.00098   0.00110   2.06754
    A5        2.09929  -0.00010   0.00008  -0.00059  -0.00052   2.09877
    A6        2.11746  -0.00012  -0.00020  -0.00039  -0.00059   2.11688
    A7        2.07042  -0.00037   0.00014  -0.00143  -0.00129   2.06913
    A8        2.10628   0.00019  -0.00008   0.00079   0.00072   2.10700
    A9        2.10648   0.00017  -0.00007   0.00064   0.00057   2.10705
   A10        2.06644   0.00021   0.00010   0.00099   0.00109   2.06753
   A11        2.11758  -0.00013  -0.00018  -0.00048  -0.00066   2.11692
   A12        2.09916  -0.00008   0.00008  -0.00051  -0.00042   2.09874
   A13        2.16032  -0.00050  -0.00026  -0.00184  -0.00211   2.15822
   A14        2.10160  -0.00010   0.00036  -0.00139  -0.00103   2.10057
   A15        2.02126   0.00059  -0.00009   0.00323   0.00313   2.02439
   A16        2.04241   0.00094   0.00018   0.00316   0.00334   2.04575
    D1       -0.00002   0.00000   0.00001   0.00002   0.00003   0.00001
    D2        3.14151   0.00000  -0.00000   0.00008   0.00007   3.14158
    D3        3.14154   0.00000   0.00001   0.00003   0.00004   3.14158
    D4       -0.00011   0.00000  -0.00000   0.00008   0.00008  -0.00004
    D5       -0.00012   0.00000   0.00001   0.00011   0.00012  -0.00001
    D6        3.14150   0.00000   0.00001   0.00011   0.00011  -3.14157
    D7        0.00012  -0.00000  -0.00002  -0.00010  -0.00012  -0.00000
    D8       -3.14140  -0.00000   0.00004  -0.00024  -0.00020   3.14158
    D9       -3.14141  -0.00000  -0.00001  -0.00015  -0.00016  -3.14157
   D10        0.00025  -0.00000   0.00006  -0.00029  -0.00024   0.00001
   D11       -0.00007   0.00000   0.00001   0.00004   0.00005  -0.00002
   D12        3.14144   0.00000   0.00001   0.00010   0.00011   3.14156
   D13        3.14145   0.00000  -0.00005   0.00019   0.00013   3.14158
   D14       -0.00022   0.00000  -0.00005   0.00024   0.00019  -0.00003
   D15       -0.00009   0.00000   0.00001   0.00010   0.00011   0.00002
   D16       -3.14153  -0.00000  -0.00001  -0.00008  -0.00009   3.14157
   D17        3.14159   0.00000   0.00000   0.00004   0.00005  -3.14155
   D18        0.00015  -0.00000  -0.00002  -0.00014  -0.00015  -0.00001
   D19        0.00018  -0.00000  -0.00002  -0.00017  -0.00019  -0.00001
   D20       -3.14156  -0.00000   0.00000   0.00000   0.00001  -3.14156
         Item               Value     Threshold  Converged?
 Maximum Force            0.001454     0.000450     NO 
 RMS     Force            0.000474     0.000300     NO 
 Maximum Displacement     0.005516     0.001800     NO 
 RMS     Displacement     0.001586     0.001200     NO 
 Predicted change in Energy=-1.339954D-05
 Lowest energy point so far.  Saving SCF results.
 GradGradGradGradGradGradGradGradGradGradGradGradGradGradGradGradGradGrad

 Leave Link  103 at Wed Nov 23 18:53:04 2022, MaxMem=  2684354560 cpu:               0.1 elap:               0.0
 (Enter /data0/home/software/g16/l202.exe)
                          Input orientation:                          
 ---------------------------------------------------------------------
 Center     Atomic      Atomic             Coordinates (Angstroms)
 Number     Number       Type             X           Y           Z
 ---------------------------------------------------------------------
      1          6           0       -2.762913   -0.982856    0.000026
      2          6           0       -1.369951   -0.987071   -0.000068
      3          6           0       -0.703257    0.233984   -0.000288
      4          6           0       -1.457147    1.403208   -0.000404
      5          6           0       -2.846097    1.297495   -0.000314
      6          7           0       -3.500297    0.131934   -0.000097
      7          1           0        0.379936    0.273472   -0.000360
      8          1           0       -3.314677   -1.918555    0.000183
      9          1           0       -0.827106   -1.924378    0.000049
     10          1           0       -0.984084    2.377600   -0.000540
     11          1           0       -3.464584    2.190493   -0.000375
 ---------------------------------------------------------------------
                    Distance matrix (angstroms):
                    1          2          3          4          5
     1  C    0.000000
     2  C    1.392967   0.000000
     3  C    2.392254   1.391207   0.000000
     4  C    2.719986   2.391869   1.391199   0.000000
     5  C    2.281867   2.719971   2.392241   1.392966   0.000000
     6  N    1.336597   2.406355   2.798901   2.406366   1.336604
     7  H    3.384650   2.156635   1.083913   2.156659   3.384658
     8  H    1.086267   2.156298   3.384219   3.805854   3.250007
     9  H    2.152629   1.083156   2.161913   3.386707   3.802209
    10  H    3.802222   3.386724   2.161932   1.083157   2.152608
    11  H    3.249998   3.805837   3.384206   2.156297   1.086265
                    6          7          8          9         10
     6  N    0.000000
     7  H    3.882814   0.000000
     8  H    2.058873   4.295946   0.000000
     9  H    3.372591   2.507488   2.487578   0.000000
    10  H    3.372587   2.507569   4.887598   4.304841   0.000000
    11  H    2.058869   4.295963   4.111781   4.887581   2.487547
                   11
    11  H    0.000000
 Stoichiometry    C5H5N
 Framework group  C1[X(C5H5N)]
 Deg. of freedom    27
 Full point group                 C1      NOp   1
 RotChk:  IX=0 Diff= 1.03D-03
 Largest Abelian subgroup         C1      NOp   1
 Largest concise Abelian subgroup C1      NOp   1
                         Standard orientation:                         
 ---------------------------------------------------------------------
 Center     Atomic      Atomic             Coordinates (Angstroms)
 Number     Number       Type             X           Y           Z
 ---------------------------------------------------------------------
      1          6           0       -1.141023   -0.720354   -0.000217
      2          6           0       -1.195851    0.671534   -0.000122
      3          6           0        0.000173    1.382157    0.000097
      4          6           0        1.196018    0.671250    0.000213
      5          6           0        1.140844   -0.720623    0.000123
      6          7           0       -0.000176   -1.416744   -0.000094
      7          1           0        0.000275    2.466069    0.000169
      8          1           0       -2.056055   -1.305755   -0.000373
      9          1           0       -2.152264    1.179962   -0.000240
     10          1           0        2.152577    1.179407    0.000350
     11          1           0        2.055726   -1.306254    0.000184
 ---------------------------------------------------------------------
 Rotational constants (GHZ):           6.0578417           5.8345342           2.9720457
 Leave Link  202 at Wed Nov 23 18:53:04 2022, MaxMem=  2684354560 cpu:               0.0 elap:               0.0
 (Enter /data0/home/software/g16/l301.exe)
 Standard basis: 6-311G(d,p) (5D, 7F)
 Ernie: Thresh=  0.10000D-02 Tol=  0.10000D-05 Strict=F.
 There are   144 symmetry adapted cartesian basis functions of A   symmetry.
 There are   138 symmetry adapted basis functions of A   symmetry.
   138 basis functions,   232 primitive gaussians,   144 cartesian basis functions
    21 alpha electrons       21 beta electrons
       nuclear repulsion energy       206.3019951176 Hartrees.
 IExCor=  402 DFT=T Ex+Corr=B3LYP ExCW=0 ScaHFX=  0.200000
 ScaDFX=  0.800000  0.720000  1.000000  0.810000 ScalE2=  1.000000  1.000000
 IRadAn=      5 IRanWt=     -1 IRanGd=            0 ICorTp=0 IEmpDi=141
 NAtoms=   11 NActive=   11 NUniq=   11 SFac= 1.00D+00 NAtFMM=   60 NAOKFM=F Big=F
 Integral buffers will be    131072 words long.
 Raffenetti 2 integral format.
 Two-electron integral symmetry is turned on.
 R6Disp:  Grimme-D3(BJ) Dispersion energy=       -0.0171615158 Hartrees.
 Nuclear repulsion after empirical dispersion term =      206.2848336019 Hartrees.
 Leave Link  301 at Wed Nov 23 18:53:04 2022, MaxMem=  2684354560 cpu:               0.5 elap:               0.1
 (Enter /data0/home/software/g16/l302.exe)
 NPDir=0 NMtPBC=     1 NCelOv=     1 NCel=       1 NClECP=     1 NCelD=      1
         NCelK=      1 NCelE2=     1 NClLst=     1 CellRange=     0.0.
 One-electron integrals computed using PRISM.
 One-electron integral symmetry used in STVInt
 NBasis=   138 RedAO= T EigKep=  5.50D-04  NBF=   138
 NBsUse=   138 1.00D-06 EigRej= -1.00D+00 NBFU=   138
 Precomputing XC quadrature grid using
 IXCGrd= 4 IRadAn=           5 IRanWt=          -1 IRanGd=           0 AccXCQ= 0.00D+00.
 Generated NRdTot=       0 NPtTot=           0 NUsed=           0 NTot=          32
 NSgBfM=   144   144   144   144   144 MxSgAt=    11 MxSgA2=    11.
 Leave Link  302 at Wed Nov 23 18:53:04 2022, MaxMem=  2684354560 cpu:               1.1 elap:               0.1
 (Enter /data0/home/software/g16/l303.exe)
 DipDrv:  MaxL=1.
 Leave Link  303 at Wed Nov 23 18:53:04 2022, MaxMem=  2684354560 cpu:               0.2 elap:               0.0
 (Enter /data0/home/software/g16/l401.exe)
 Initial guess from the checkpoint file:  "Py.chk"
 B after Tr=     0.000000    0.000000   -0.000000
         Rot=    1.000000   -0.000006    0.000004    0.000365 Ang=  -0.04 deg.
 Guess basis will be translated and rotated to current coordinates.
 JPrj=2 DoOrth=T DoCkMO=T.
 Leave Link  401 at Wed Nov 23 18:53:04 2022, MaxMem=  2684354560 cpu:               0.8 elap:               0.1
 (Enter /data0/home/software/g16/l502.exe)
 Keep R1 ints in memory in canonical form, NReq=55708183.
 FoFCou: FMM=F IPFlag=           0 FMFlag=           0 FMFlg1=           0
         NFxFlg=           0 DoJE=F BraDBF=F KetDBF=F FulRan=T
         wScrn=  0.000000 ICntrl=       600 IOpCl=  0 I1Cent=           0 NGrid=           0
         NMat0=    1 NMatS0=   9591 NMatT0=    0 NMatD0=    1 NMtDS0=    0 NMtDT0=    0
 Symmetry not used in FoFCou.
 Two-electron integral symmetry not used.
 Closed shell SCF:
 Using DIIS extrapolation, IDIIS=  1040.
 NGot=  2684354560 LenX=  2638311669 LenY=  2638290492
 Requested convergence on RMS density matrix=1.00D-08 within 128 cycles.
 Requested convergence on MAX density matrix=1.00D-06.
 Requested convergence on             energy=1.00D-06.
 No special actions if energy rises.

 Cycle   1  Pass 1  IDiag  1:
 E= -248.364020077776    
 DIIS: error= 1.49D-04 at cycle   1 NSaved=   1.
 NSaved= 1 IEnMin= 1 EnMin= -248.364020077776     IErMin= 1 ErrMin= 1.49D-04
 ErrMax= 1.49D-04  0.00D+00 EMaxC= 1.00D-01 BMatC= 3.71D-06 BMatP= 3.71D-06
 IDIUse=3 WtCom= 9.99D-01 WtEn= 1.49D-03
 Coeff-Com:  0.100D+01
 Coeff-En:   0.100D+01
 Coeff:      0.100D+01
 Gap=     0.832 Goal=   None    Shift=    0.000
 RMSDP=2.41D-05 MaxDP=4.59D-04              OVMax= 6.12D-04

 Cycle   2  Pass 1  IDiag  1:
 E= -248.364023180830     Delta-E=       -0.000003103055 Rises=F Damp=F
 DIIS: error= 8.57D-05 at cycle   2 NSaved=   2.
 NSaved= 2 IEnMin= 2 EnMin= -248.364023180830     IErMin= 2 ErrMin= 8.57D-05
 ErrMax= 8.57D-05  0.00D+00 EMaxC= 1.00D-01 BMatC= 6.25D-07 BMatP= 3.71D-06
 IDIUse=1 WtCom= 1.00D+00 WtEn= 0.00D+00
 Coeff-Com:  0.198D+00 0.802D+00
 Coeff:      0.198D+00 0.802D+00
 Gap=     0.226 Goal=   None    Shift=    0.000
 RMSDP=8.14D-06 MaxDP=1.71D-04 DE=-3.10D-06 OVMax= 5.69D-04

 Cycle   3  Pass 1  IDiag  1:
 E= -248.364023027267     Delta-E=        0.000000153563 Rises=F Damp=F
 DIIS: error= 1.28D-04 at cycle   3 NSaved=   3.
 NSaved= 3 IEnMin= 2 EnMin= -248.364023180830     IErMin= 2 ErrMin= 8.57D-05
 ErrMax= 1.28D-04  0.00D+00 EMaxC= 1.00D-01 BMatC= 7.79D-07 BMatP= 6.25D-07
 IDIUse=3 WtCom= 4.69D-01 WtEn= 5.31D-01
 Coeff-Com:  0.874D-02 0.527D+00 0.464D+00
 Coeff-En:   0.000D+00 0.547D+00 0.453D+00
 Coeff:      0.410D-02 0.538D+00 0.458D+00
 Gap=     0.226 Goal=   None    Shift=    0.000
 RMSDP=5.71D-06 MaxDP=9.25D-05 DE= 1.54D-07 OVMax= 4.02D-04

 Cycle   4  Pass 1  IDiag  1:
 E= -248.364023747307     Delta-E=       -0.000000720040 Rises=F Damp=F
 DIIS: error= 3.37D-05 at cycle   4 NSaved=   4.
 NSaved= 4 IEnMin= 4 EnMin= -248.364023747307     IErMin= 4 ErrMin= 3.37D-05
 ErrMax= 3.37D-05  0.00D+00 EMaxC= 1.00D-01 BMatC= 4.89D-08 BMatP= 6.25D-07
 IDIUse=1 WtCom= 1.00D+00 WtEn= 0.00D+00
 Coeff-Com: -0.880D-02 0.266D+00 0.280D+00 0.463D+00
 Coeff:     -0.880D-02 0.266D+00 0.280D+00 0.463D+00
 Gap=     0.226 Goal=   None    Shift=    0.000
 RMSDP=1.62D-06 MaxDP=3.20D-05 DE=-7.20D-07 OVMax= 9.30D-05

 Cycle   5  Pass 1  IDiag  1:
 E= -248.364023797986     Delta-E=       -0.000000050680 Rises=F Damp=F
 DIIS: error= 2.57D-06 at cycle   5 NSaved=   5.
 NSaved= 5 IEnMin= 5 EnMin= -248.364023797986     IErMin= 5 ErrMin= 2.57D-06
 ErrMax= 2.57D-06  0.00D+00 EMaxC= 1.00D-01 BMatC= 4.84D-10 BMatP= 4.89D-08
 IDIUse=1 WtCom= 1.00D+00 WtEn= 0.00D+00
 Coeff-Com: -0.285D-02 0.407D-01 0.525D-01 0.132D+00 0.778D+00
 Coeff:     -0.285D-02 0.407D-01 0.525D-01 0.132D+00 0.778D+00
 Gap=     0.226 Goal=   None    Shift=    0.000
 RMSDP=1.73D-07 MaxDP=2.76D-06 DE=-5.07D-08 OVMax= 5.10D-06

 Cycle   6  Pass 1  IDiag  1:
 E= -248.364023798431     Delta-E=       -0.000000000444 Rises=F Damp=F
 DIIS: error= 8.03D-07 at cycle   6 NSaved=   6.
 NSaved= 6 IEnMin= 6 EnMin= -248.364023798431     IErMin= 6 ErrMin= 8.03D-07
 ErrMax= 8.03D-07  0.00D+00 EMaxC= 1.00D-01 BMatC= 3.89D-11 BMatP= 4.84D-10
 IDIUse=1 WtCom= 1.00D+00 WtEn= 0.00D+00
 Coeff-Com: -0.652D-03 0.288D-02 0.647D-02 0.287D-01 0.270D+00 0.693D+00
 Coeff:     -0.652D-03 0.288D-02 0.647D-02 0.287D-01 0.270D+00 0.693D+00
 Gap=     0.226 Goal=   None    Shift=    0.000
 RMSDP=4.99D-08 MaxDP=1.68D-06 DE=-4.44D-10 OVMax= 3.83D-06

 Cycle   7  Pass 1  IDiag  1:
 E= -248.364023798453     Delta-E=       -0.000000000022 Rises=F Damp=F
 DIIS: error= 5.34D-07 at cycle   7 NSaved=   7.
 NSaved= 7 IEnMin= 7 EnMin= -248.364023798453     IErMin= 7 ErrMin= 5.34D-07
 ErrMax= 5.34D-07  0.00D+00 EMaxC= 1.00D-01 BMatC= 1.57D-11 BMatP= 3.89D-11
 IDIUse=1 WtCom= 1.00D+00 WtEn= 0.00D+00
 Coeff-Com: -0.435D-04-0.314D-02-0.270D-02 0.416D-03 0.550D-01 0.413D+00
 Coeff-Com:  0.537D+00
 Coeff:     -0.435D-04-0.314D-02-0.270D-02 0.416D-03 0.550D-01 0.413D+00
 Coeff:      0.537D+00
 Gap=     0.226 Goal=   None    Shift=    0.000
 RMSDP=2.14D-08 MaxDP=6.67D-07 DE=-2.20D-11 OVMax= 1.36D-06

 Cycle   8  Pass 1  IDiag  1:
 E= -248.364023798471     Delta-E=       -0.000000000018 Rises=F Damp=F
 DIIS: error= 4.47D-08 at cycle   8 NSaved=   8.
 NSaved= 8 IEnMin= 8 EnMin= -248.364023798471     IErMin= 8 ErrMin= 4.47D-08
 ErrMax= 4.47D-08  0.00D+00 EMaxC= 1.00D-01 BMatC= 1.87D-13 BMatP= 1.57D-11
 IDIUse=1 WtCom= 1.00D+00 WtEn= 0.00D+00
 Coeff-Com:  0.433D-04-0.110D-02-0.127D-02-0.276D-02-0.740D-02 0.428D-01
 Coeff-Com:  0.109D+00 0.860D+00
 Coeff:      0.433D-04-0.110D-02-0.127D-02-0.276D-02-0.740D-02 0.428D-01
 Coeff:      0.109D+00 0.860D+00
 Gap=     0.226 Goal=   None    Shift=    0.000
 RMSDP=4.40D-09 MaxDP=1.03D-07 DE=-1.84D-11 OVMax= 1.88D-07

 SCF Done:  E(RB3LYP) =  -248.364023798     A.U. after    8 cycles
            NFock=  8  Conv=0.44D-08     -V/T= 2.0042
 KE= 2.473281398829D+02 PE=-9.896489205544D+02 EE= 2.876719232711D+02
 Leave Link  502 at Wed Nov 23 18:53:08 2022, MaxMem=  2684354560 cpu:              31.6 elap:               3.6
 (Enter /data0/home/software/g16/l701.exe)
 ... and contract with generalized density number  0.
 Compute integral first derivatives.
 R6Disp: Adding Grimme-D3(BJ) dispersion energy 1st derivatives to the gradient.
 Leave Link  701 at Wed Nov 23 18:53:08 2022, MaxMem=  2684354560 cpu:               0.8 elap:               0.1
 (Enter /data0/home/software/g16/l702.exe)
 L702 exits ... SP integral derivatives will be done elsewhere.
 Leave Link  702 at Wed Nov 23 18:53:08 2022, MaxMem=  2684354560 cpu:               0.2 elap:               0.0
 (Enter /data0/home/software/g16/l703.exe)
 Integral derivatives from FoFJK, PRISM(SPDF).
 Compute integral first derivatives, UseDBF=F ICtDFT=           0.
 Calling FoFJK, ICntrl=      2127 FMM=F ISym2X=0 I1Cent= 0 IOpClX= 0 NMat=1 NMatS=1 NMatT=0.
 FoFJK:  IHMeth= 1 ICntrl=    2127 DoSepK=F KAlg= 0 I1Cent=           0 FoldK=F
 IRaf=         0 NMat=       1 IRICut=       1 DoRegI=T DoRafI=F ISym2E= 0 IDoP0=0 IntGTp=1.
 FoFCou: FMM=F IPFlag=           0 FMFlag=      100000 FMFlg1=         800
         NFxFlg=           0 DoJE=F BraDBF=F KetDBF=F FulRan=T
         wScrn=  0.000000 ICntrl=      2127 IOpCl=  0 I1Cent=           0 NGrid=           0
         NMat0=    1 NMatS0=      1 NMatT0=    0 NMatD0=    1 NMtDS0=    0 NMtDT0=    0
 Symmetry not used in FoFCou.
 Leave Link  703 at Wed Nov 23 18:53:09 2022, MaxMem=  2684354560 cpu:              10.7 elap:               1.1
 (Enter /data0/home/software/g16/l716.exe)
 Dipole        = 1.05409190D-04 8.60657304D-01 4.21280140D-05
 ***** Axes restored to original set *****
 -------------------------------------------------------------------
 Center     Atomic                   Forces (Hartrees/Bohr)
 Number     Number              X              Y              Z
 -------------------------------------------------------------------
      1        6          -0.000294282    0.000381649   -0.000003037
      2        6           0.000004877    0.000118082    0.000001260
      3        6           0.000073670   -0.000004132    0.000000398
      4        6           0.000008378   -0.000111224   -0.000000080
[...]
    A4        2.06754   0.00001   0.00000   0.00011   0.00011   2.06765
    A5        2.09877   0.00003   0.00000   0.00015   0.00015   2.09892
    A6        2.11688  -0.00004   0.00000  -0.00026  -0.00026   2.11662
    A7        2.06913  -0.00013   0.00000  -0.00043  -0.00043   2.06870
    A8        2.10700   0.00007   0.00000   0.00024   0.00024   2.10724
    A9        2.10705   0.00006   0.00000   0.00019   0.00019   2.10724
   A10        2.06753   0.00001   0.00000   0.00012   0.00012   2.06765
   A11        2.11692  -0.00005   0.00000  -0.00030  -0.00030   2.11662
   A12        2.09874   0.00004   0.00000   0.00018   0.00018   2.09892
   A13        2.15822   0.00006   0.00000   0.00014   0.00014   2.15836
   A14        2.10057  -0.00007   0.00000  -0.00060  -0.00060   2.09998
   A15        2.02439   0.00001   0.00000   0.00045   0.00045   2.02485
   A16        2.04575  -0.00003   0.00000  -0.00009  -0.00009   2.04566
    D1        0.00001  -0.00000   0.00000  -0.00001  -0.00001  -0.00000
    D2        3.14158  -0.00000   0.00000   0.00001   0.00001   3.14159
    D3        3.14158   0.00000   0.00000   0.00002   0.00002   3.14159
    D4       -0.00004   0.00000   0.00000   0.00004   0.00004  -0.00000
    D5       -0.00001   0.00000   0.00000   0.00001   0.00001   0.00000
    D6       -3.14157  -0.00000   0.00000  -0.00002  -0.00002  -3.14159
    D7       -0.00000   0.00000   0.00000   0.00000   0.00000   0.00000
    D8        3.14158   0.00000   0.00000   0.00001   0.00001  -3.14159
    D9       -3.14157  -0.00000   0.00000  -0.00002  -0.00002  -3.14159
   D10        0.00001  -0.00000   0.00000  -0.00001  -0.00001   0.00000
   D11       -0.00002   0.00000   0.00000   0.00002   0.00002   0.00000
   D12        3.14156   0.00000   0.00000   0.00004   0.00004  -3.14159
   D13        3.14158   0.00000   0.00000   0.00001   0.00001  -3.14159
   D14       -0.00003   0.00000   0.00000   0.00003   0.00003   0.00000
   D15        0.00002  -0.00000   0.00000  -0.00002  -0.00002  -0.00000
   D16        3.14157   0.00000   0.00000   0.00003   0.00003   3.14159
   D17       -3.14155  -0.00000   0.00000  -0.00004  -0.00004   3.14159
   D18       -0.00001   0.00000   0.00000   0.00001   0.00001  -0.00000
   D19       -0.00001   0.00000   0.00000   0.00001   0.00001   0.00000
   D20       -3.14156  -0.00000   0.00000  -0.00004  -0.00004  -3.14159
         Item               Value     Threshold  Converged?
 Maximum Force            0.000305     0.000450     YES
 RMS     Force            0.000081     0.000300     YES
 Maximum Displacement     0.000635     0.001800     YES
 RMS     Displacement     0.000207     0.001200     YES
 Predicted change in Energy=-4.076488D-07
 Optimization completed.
    -- Stationary point found.
                           ----------------------------
                           !   Optimized Parameters   !
                           ! (Angstroms and Degrees)  !
 --------------------------                            --------------------------
 ! Name  Definition              Value          Derivative Info.                !
 --------------------------------------------------------------------------------
 ! R1    R(1,2)                  1.393          -DE/DX =    0.0001              !
 ! R2    R(1,6)                  1.3366         -DE/DX =   -0.0003              !
 ! R3    R(1,8)                  1.0863         -DE/DX =    0.0                 !
 ! R4    R(2,3)                  1.3912         -DE/DX =   -0.0001              !
 ! R5    R(2,9)                  1.0832         -DE/DX =    0.0001              !
 ! R6    R(3,4)                  1.3912         -DE/DX =   -0.0001              !
 ! R7    R(3,7)                  1.0839         -DE/DX =    0.0                 !
 ! R8    R(4,5)                  1.393          -DE/DX =    0.0001              !
 ! R9    R(4,10)                 1.0832         -DE/DX =    0.0001              !
 ! R10   R(5,6)                  1.3366         -DE/DX =   -0.0003              !
 ! R11   R(5,11)                 1.0863         -DE/DX =    0.0                 !
 ! A1    A(2,1,6)              123.6563         -DE/DX =    0.0001              !
 ! A2    A(2,1,8)              120.3537         -DE/DX =   -0.0001              !
 ! A3    A(6,1,8)              115.99           -DE/DX =    0.0                 !
 ! A4    A(1,2,3)              118.4611         -DE/DX =    0.0                 !
 ! A5    A(1,2,9)              120.2508         -DE/DX =    0.0                 !
 ! A6    A(3,2,9)              121.2881         -DE/DX =    0.0                 !
 ! A7    A(2,3,4)              118.5525         -DE/DX =   -0.0001              !
 ! A8    A(2,3,7)              120.7223         -DE/DX =    0.0001              !
 ! A9    A(4,3,7)              120.7253         -DE/DX =    0.0001              !
 ! A10   A(3,4,5)              118.4606         -DE/DX =    0.0                 !
 ! A11   A(3,4,10)             121.2905         -DE/DX =    0.0                 !
 ! A12   A(5,4,10)             120.2488         -DE/DX =    0.0                 !
 ! A13   A(4,5,6)              123.6568         -DE/DX =    0.0001              !
 ! A14   A(4,5,11)             120.3539         -DE/DX =   -0.0001              !
 ! A15   A(6,5,11)             115.9893         -DE/DX =    0.0                 !
 ! A16   A(1,6,5)              117.2127         -DE/DX =    0.0                 !
 ! D1    D(6,1,2,3)              0.0007         -DE/DX =    0.0                 !
 ! D2    D(6,1,2,9)            179.9994         -DE/DX =    0.0                 !
 ! D3    D(8,1,2,3)            179.9991         -DE/DX =    0.0                 !
 ! D4    D(8,1,2,9)             -0.0022         -DE/DX =    0.0                 !
 ! D5    D(2,1,6,5)             -0.0004         -DE/DX =    0.0                 !
 ! D6    D(8,1,6,5)           -179.9989         -DE/DX =    0.0                 !
 ! D7    D(1,2,3,4)              0.0            -DE/DX =    0.0                 !
 ! D8    D(1,2,3,7)           -180.0005         -DE/DX =    0.0                 !
 ! D9    D(9,2,3,4)           -179.9987         -DE/DX =    0.0                 !
 ! D10   D(9,2,3,7)              0.0009         -DE/DX =    0.0                 !
 ! D11   D(2,3,4,5)             -0.0009         -DE/DX =    0.0                 !
 ! D12   D(2,3,4,10)          -180.0021         -DE/DX =    0.0                 !
 ! D13   D(7,3,4,5)           -180.0005         -DE/DX =    0.0                 !
 ! D14   D(7,3,4,10)            -0.0017         -DE/DX =    0.0                 !
 ! D15   D(3,4,5,6)              0.0013         -DE/DX =    0.0                 !
 ! D16   D(3,4,5,11)           179.9984         -DE/DX =    0.0                 !
 ! D17   D(10,4,5,6)           180.0025         -DE/DX =    0.0                 !
 ! D18   D(10,4,5,11)           -0.0004         -DE/DX =    0.0                 !
 ! D19   D(4,5,6,1)             -0.0007         -DE/DX =    0.0                 !
 ! D20   D(11,5,6,1)          -179.9979         -DE/DX =    0.0                 !
 --------------------------------------------------------------------------------
 GradGradGradGradGradGradGradGradGradGradGradGradGradGradGradGradGradGrad

 Leave Link  103 at Wed Nov 23 18:53:46 2022, MaxMem=  2684354560 cpu:               0.1 elap:               0.0
 (Enter /data0/home/software/g16/l9999.exe)

 ----------------------------------------------------------------------

 Electric dipole moment (input orientation):
 (Debye = 10**-18 statcoulomb cm , SI units = C m)
                  (au)            (Debye)         (10**-30 SI)
   Tot        0.860659D+00      0.218758D+01      0.729697D+01
   x          0.860087D+00      0.218612D+01      0.729212D+01
   y          0.313786D-01      0.797565D-01      0.266039D+00
   z         -0.421072D-04     -0.107026D-03     -0.357000D-03

 Dipole polarizability, Alpha (input orientation).
 (esu units = cm**3 , SI units = C**2 m**2 J**-1)
 Alpha(0;0):
               (au)            (10**-24 esu)      (10**-40 SI)
   iso        0.543733D+02      0.805729D+01      0.896494D+01
   aniso      0.415721D+02      0.616035D+01      0.685431D+01
   xx         0.650097D+02      0.963344D+01      0.107187D+02
   yx        -0.226783D+00     -0.336058D-01     -0.373915D-01
   yy         0.712176D+02      0.105534D+02      0.117422D+02
   zx        -0.231440D-02     -0.342958D-03     -0.381593D-03
   zy        -0.634982D-02     -0.940947D-03     -0.104694D-02
   zz         0.268925D+02      0.398506D+01      0.443398D+01

 ----------------------------------------------------------------------

 Dipole orientation:
     6          0.06094054         -1.66462185         -5.28539276
     6          0.06477902         -1.76848194         -2.65511830
     6         -0.01726867          0.49002057         -1.31195865
     6         -0.09938038          2.74851330         -2.65510156
     6         -0.09563141          2.64463910         -5.28537357
     7         -0.01737048          0.49000571         -6.60111497
     1         -0.01723083          0.48996462          0.73633934
     1          0.12373663         -3.39250505         -6.39185086
     1          0.13040782         -3.57476737         -1.69454884
     1         -0.16506932          4.55483545         -1.69460211
     1         -0.15850060          4.37250734         -6.39184278

 Electric dipole moment (dipole orientation):
 (Debye = 10**-18 statcoulomb cm , SI units = C m)
                  (au)            (Debye)         (10**-30 SI)
   Tot        0.860659D+00      0.218758D+01      0.729697D+01
   x          0.000000D+00      0.000000D+00      0.000000D+00
   y          0.000000D+00      0.000000D+00      0.000000D+00
   z          0.860659D+00      0.218758D+01      0.729697D+01

 Dipole polarizability, Alpha (dipole orientation).
 (esu units = cm**3 , SI units = C**2 m**2 J**-1)
 Alpha(0;0):
               (au)            (10**-24 esu)      (10**-40 SI)
   iso        0.543733D+02      0.805729D+01      0.896494D+01
   aniso      0.415721D+02      0.616035D+01      0.685431D+01
   xx         0.269510D+02      0.399372D+01      0.444362D+01
   yx        -0.160902D+01     -0.238432D+00     -0.265292D+00
   yy         0.711674D+02      0.105459D+02      0.117339D+02
   zx         0.679393D-03      0.100676D-03      0.112017D-03
   zy         0.266382D-04      0.394738D-05      0.439205D-05
   zz         0.650014D+02      0.963222D+01      0.107173D+02

 ----------------------------------------------------------------------
 1\1\GINC-LOCALHOST\Freq\RB3LYP\6-311G(d,p)\C5H5N1\WUHANYU\23-Nov-2022\
 0\\#P Geom=AllCheck Guess=TCheck SCRF=Check GenChk RB3LYP/6-311G(d,p) 
 Freq\\Title Card Required\\0,1\C,-2.7629125617,-0.9828559383,0.0000257
 499\C,-1.369951489,-0.9870709703,-0.0000684435\C,-0.7032569715,0.23398
 41469,-0.0002879687\C,-1.4571473046,1.4032080655,-0.0004039074\C,-2.84
 60965639,1.2974947234,-0.0003142945\N,-3.5002969098,0.1319337062,-0.00
 00969074\H,0.3799361188,0.273471999,-0.0003599288\H,-3.3146773565,-1.9
 18554751,0.0001825591\H,-0.8271060062,-1.9243784283,0.0000494731\H,-0.
 9840835167,2.377599579,-0.0005404609\H,-3.4645836791,2.1904926778,-0.0
 003748708\\Version=ES64L-G16RevA.03\State=1-A\HF=-248.3640238\RMSD=3.4
 27e-09\RMSF=1.352e-04\ZeroPoint=0.0885009\Thermal=0.0927755\Dipole=0.8
 600873,0.0313786,-0.0000421\DipoleDeriv=0.2931692,0.2219682,-0.0000536
 ,0.0553858,0.3018472,-0.0000436,-0.0000203,-0.0000451,0.000357,-0.1632
 348,-0.2525338,0.0000433,-0.1200712,-0.0446898,-0.0000039,0.0000272,-0
 .0000081,-0.1090581,0.1986272,0.0023765,-0.0000198,0.0023833,0.1333011
 ,-0.0000365,-0.0000255,-0.0000363,-0.1000081,-0.1896844,0.241937,-0.00
 00264,0.1094694,-0.0182277,-0.0000116,0.0000014,-0.0000161,-0.109055,0
 .3133613,-0.2211226,0.000014,-0.0545416,0.2816304,-0.0000323,-0.000025
 3,-0.0000133,0.0003528,-0.4979364,-0.0026273,0.0000109,-0.002623,-0.42
 60359,0.0000134,0.000014,0.0000204,-0.2827025,-0.092561,-0.0063036,0.0
 000145,-0.0062966,0.0800387,0.0000064,0.0000131,0.0000086,0.125721,0.0
 31174,-0.083208,0.0000169,-0.0661695,-0.0931918,0.000033,0.0000103,0.0
 00027,0.1065283,0.0385772,0.0751424,-0.0000054,0.0734006,-0.0613657,0.
 0000244,-0.0000068,0.0000302,0.1306675,0.0488502,-0.0670803,0.0000131,
 -0.0653492,-0.0716343,0.0000299,0.0000099,0.0000244,0.1306673,0.019657
 5,0.0914515,-0.0000075,0.074412,-0.0816722,0.0000209,0.0000021,0.00000
 83,0.1065297\Polar=65.0096956,-0.2267835,71.2175967,-0.0023144,-0.0063
 498,26.8925159\Quadrupole=-1.3231625,3.7053062,-2.3821437,-0.1837399,-
 0.0000158,-0.0008005\PG=C01 [X(C5H5N1)]\NImag=0\\0.67666368,0.05110743
 ,0.72938054,-0.00003823,-0.00008464,0.15851843,-0.31967375,-0.04496681
 ,0.00002302,0.67293176,0.02689504,-0.13629255,0.00000784,-0.03721748,0
 .73442052,0.00001297,0.00001260,-0.07029224,-0.00002777,-0.00008968,0.
 13093190,-0.02413207,-0.03445714,0.00000680,-0.18055549,-0.12086828,0.
 00002492,0.75007500,-0.08486173,0.03906201,0.00000099,-0.05616558,-0.2
 9179616,0.00003789,0.00322064,0.66144588,0.00001423,-0.00000200,0.0084
 2235,0.00001533,0.00004108,-0.06303669,-0.00003830,-0.00007445,0.13992
 705,-0.06146441,0.03933720,-0.00000241,0.07003718,0.02590755,-0.000007
 32,-0.19401590,0.06332026,-0.00000094,0.66784307,0.02350377,-0.0164895
 1,-0.00000050,-0.01660198,-0.05732170,0.00001003,0.12802063,-0.2783543
 1,0.00002172,0.03233820,0.73952392,-0.00000030,-0.00000135,-0.01046567
 ,-0.00000080,0.00000746,0.00640201,-0.00001029,0.00002456,-0.06303395,
 -0.00003234,-0.00007876,0.13093051,0.06304243,-0.02180733,-0.00000091,
 -0.05665881,-0.02643856,0.00000663,-0.03246945,0.07963646,-0.00000910,
 -0.32001600,-0.04032123,0.00001853,0.68437732,0.03369300,-0.09963183,0
 .00001304,-0.04227181,-0.02129609,0.00000425,0.02923162,0.04739743,-0.
 00000697,0.03154200,-0.13595303,0.00000613,-0.05440529,0.72165951,-0.0
 0000872,0.00001618,0.00355602,0.00000880,0.00000329,-0.01046580,-0.000
 00112,-0.00001042,0.00842239,0.00000959,0.00001084,-0.07029216,-0.0000
 2797,-0.00007100,0.15851900,-0.19075185,0.11105663,-0.00000880,-0.0336
 5752,0.03407905,-0.00000154,0.00394070,0.00320356,-0.00000139,-0.02363
 913,-0.03826809,0.00000828,-0.17723599,-0.10435990,0.00002259,0.407484
 21,0.08058731,-0.26878823,0.00002510,0.09883569,0.03371456,-0.00000742
 ,0.00320389,-0.08376122,0.00001008,-0.10302511,0.02369793,0.00000677,-
 0.07388998,-0.28228522,0.00003550,-0.00861015,0.64291791,-0.00000503,0
 .00002360,-0.06824668,-0.00001076,-0.00000377,0.02382599,-0.00000126,0
 .00001065,-0.01040990,0.00001734,0.00000230,0.02382578,0.00001935,0.00
 003860,-0.06824885,-0.00001814,-0.00008087,0.09566088,0.00126255,-0.00
 336717,0.00000093,-0.01058037,0.00205991,0.00000062,-0.33535311,-0.010
 03920,0.00001939,-0.01243883,-0.00329731,0.00000145,0.00082151,0.00380
 311,0.00000004,0.00056470,0.00004315,-0.00000031,0.35543451,-0.0022372
 7,-0.00514719,0.00000214,-0.02876123,0.00449716,0.00000175,-0.01003795
 ,-0.06035226,0.00000340,0.02752269,0.00635803,-0.00000173,0.00267330,-
 0.00470595,0.00000167,0.00004328,-0.00061942,-0.00000055,0.01086243,0.
 05790224,0.00000061,0.00000240,0.00882218,0.00000517,0.00000010,0.0047
 7164,0.00001946,0.00000305,-0.04020678,-0.00000324,0.00000025,0.004771
 04,0.00000037,0.00000173,0.00882227,-0.00000038,-0.00000081,-0.0042656
 6,-0.00002156,-0.00000520,0.02616603,-0.13696127,-0.12466286,0.0000225
 8,-0.01036942,-0.02782206,0.00000489,-0.00592728,0.00137613,0.00000061
 ,-0.00034613,0.00112428,-0.00000019,0.00026252,0.00457996,-0.00000008,
 0.01324019,0.02047457,-0.00000399,-0.00064844,-0.00145156,0.00000024,0
 .13968500,-0.12448580,-0.24390572,0.00003466,0.00194128,0.00341072,0.0
 0000026,0.00033447,0.00136210,0.00000074,0.00022396,0.00002428,-0.0000
 0009,0.00265444,-0.00163437,0.00000150,-0.00498338,-0.03389990,0.00000
 469,0.00022007,0.00005615,-0.00000008,0.12539686,0.27500698,0.00002182
 ,0.00003379,-0.04169541,0.00000135,0.00000255,0.00669377,0.00000087,0.
 00000063,0.00719407,0.00000002,-0.00000020,-0.00059355,-0.00000002,0.0
 0000147,0.01078354,-0.00000037,0.00000356,-0.00415739,0.,0.00000006,-0
 .00035550,-0.00002361,-0.00004123,0.02663749,-0.00735674,0.03017992,-0
 .00000420,-0.13013084,0.12101399,-0.00001344,0.01212948,-0.01484169,0.
 00000170,-0.00053636,-0.00340654,0.00000095,-0.00118695,-0.00210391,0.
 00000038,-0.00705525,0.00029027,0.00000093,0.00082256,0.00062300,-0.00
 000036,0.00060552,-0.00055794,-0.00000014,0.13216897,-0.00262699,0.003
 50672,-0.00000021,0.12119103,-0.26696876,0.00002935,0.01626176,-0.0181
 3071,0.00000228,-0.00413242,-0.00285267,0.00000191,-0.00102354,0.00023
 639,-0.00000005,-0.00026260,0.00192442,0.00000107,-0.00026528,0.000948
 00,-0.00000078,0.00051068,0.00040060,-0.00000061,-0.13065547,0.2817338
 9,0.00000129,-0.00000249,0.00096577,-0.00001405,0.00003005,-0.03632614
 ,-0.00000301,0.00000376,0.00276393,0.00000113,0.00000173,0.00808891,0.
 00000031,0.00000008,-0.00036820,0.00000096,0.00000085,0.00808662,-0.00
 000026,-0.00000076,-0.00408489,-0.00000028,-0.00000043,-0.00310848,0.0
 0001426,-0.00003277,0.02549357,-0.00140677,0.00198387,-0.00000024,-0.0
 0109658,0.00353488,-0.00000009,0.01207250,0.01704789,-0.00000265,-0.11
 324645,-0.10977455,0.00001668,-0.00529771,-0.03082444,0.00000430,-0.00
 700542,-0.00094277,0.00000099,0.00084903,-0.00063050,-0.00000012,0.000
 14446,-0.00025594,-0.00000006,0.00042156,0.00089722,-0.00000019,0.1139
 6438,0.00090343,0.00045611,-0.00000017,0.00426070,-0.00229209,0.000001
 01,-0.01405451,-0.01807181,0.00000337,-0.10995371,-0.28385145,0.000034
 82,0.00198333,0.00144557,-0.00000015,-0.00039005,0.00187469,0.00000064
 ,0.00025811,0.00092130,-0.00000060,-0.00009616,-0.00001145,-0.00000021
 ,-0.00080701,-0.00081284,0.00000023,0.11839178,0.29993672,-0.00000004,
 -0.00000022,-0.00036818,-0.00000010,0.00000123,0.00808910,0.00000124,0
 .00000229,0.00276353,0.00001670,0.00003391,-0.03632666,0.00000004,0.00
 000156,0.00096643,0.00000114,0.00000104,0.00808658,-0.00000035,-0.0000
 0066,-0.00408490,-0.00000010,-0.00000025,-0.00189032,0.00000008,0.0000
 0012,0.00037913,-0.00001841,-0.00003858,0.02549387,0.00077820,-0.00440
 373,0.00000145,-0.00024617,-0.00114404,0.00000013,-0.00576439,-0.00189
 674,0.00000111,-0.01217705,0.02668282,-0.00000198,-0.15563887,0.131115
 66,-0.00000783,0.01411534,-0.01696688,0.00000088,-0.00073412,0.0013938
 1,-0.00000019,0.00031486,-0.00048803,0.00000012,0.00011804,0.00010560,
 -0.00000017,0.00060100,-0.00049591,-0.00000022,0.15863316,-0.00247818,
 -0.00215034,0.00000176,-0.00024380,-0.00007560,-0.00000003,-0.00085513
 ,0.00119906,0.00000075,-0.00308061,0.00521850,0.00000029,0.13093839,-0
 .22523241,0.00001263,0.00849164,-0.03477551,0.00000364,-0.00027784,0.0
 0014195,-0.00000005,0.00057017,-0.00080937,0.00000018,0.00026538,0.000
 01496,-0.00000026,0.00057255,0.00040524,-0.00000043,-0.13390257,0.2560
 6352,0.00000138,0.00000214,0.01078342,-0.00000019,-0.00000015,-0.00059
 353,0.00000069,0.00000106,0.00719399,0.00000147,-0.00000132,0.00669374
 ,-0.00000725,0.00001110,-0.04169464,-0.00000235,0.00000621,-0.00415736
 ,0.00000003,-0.00000012,-0.00035543,-0.00000008,0.00000023,0.00049178,
 -0.00000017,-0.00000031,-0.00189024,-0.00000021,-0.00000036,-0.0031085
 9,0.00000668,-0.00001848,0.02663687\\0.00029419,-0.00038164,0.00000304
 ,-0.00000496,-0.00011809,-0.00000126,-0.00007360,0.00000414,-0.0000004
 0,-0.00000846,0.00011123,0.00000008,0.00027133,0.00040833,-0.00000482,
 -0.00025646,-0.00001386,0.00000100,-0.00002350,-0.00000351,-0.00000029
 ,-0.00001619,0.00005174,-0.00000128,-0.00008614,0.00007402,0.00000085,
 -0.00008385,-0.00007793,0.00000143,-0.00001236,-0.00005442,0.00000164\
 \\@



 IN THIS SHORT LIFE

 THAT ONLY LASTS AN HOUR

 HOW MUCH, HOW LITTLE, IS WITHIN OUR POWER....


 EMILY DICKINSON BOLTS OF MELODY NO. 521
 Job cpu time:       0 days  0 hours  5 minutes 54.4 seconds.
 Elapsed time:       0 days  0 hours  0 minutes 36.1 seconds.
 File lengths (MBytes):  RWF=     26 Int=      0 D2E=      0 Chk=      3 Scr=      1
 Normal termination of Gaussian 16 at Wed Nov 23 18:53:46 2022.
