 Entering Gaussian System, Link 0=g16
 Initial command:
 /data0/home/software/g16/l1.exe "/data0/home/software/g16/scratch/Gau-327804.inp" -scrdir="/data0/home/software/g16/scratch/"
 Default is to use a total of  22 processors:
                               22 via shared-memory
                                1 via Linda
 Entering Link 1 = /data0/home/software/g16/l1.exe PID=    327805.
  
 Copyright (c) 1988,1990,1992,1993,1995,1998,2003,2009,2016,
            Gaussian, Inc.  All Rights Reserved.
  
 This is part of the Gaussian(R) 16 program.  It is based on
 the Gaussian(R) 09 system (copyright 2009, Gaussian, Inc.),
 the Gaussian(R) 03 system (copyright 2003, Gaussian, Inc.),
 the Gaussian(R) 98 system (copyright 1998, Gaussian, Inc.),
 the Gaussian(R) 94 system (copyright 1995, Gaussian, Inc.),
 the Gaussian 92(TM) system (copyright 1992, Gaussian, Inc.),
 the Gaussian 90(TM) system (copyright 1990, Gaussian, Inc.),
 the Gaussian 88(TM) system (copyright 1988, Gaussian, Inc.),
 the Gaussian 86(TM) system (copyright 1986, Carnegie Mellon
 University), and the Gaussian 82(TM) system (copyright 1983,
 Carnegie Mellon University). Gaussian is a federally registered
 trademark of Gaussian, Inc.
  
 This software contains proprietary and confidential information,
 including trade secrets, belonging to Gaussian, Inc.
  
 This software is provided under written license and may be
 used, copied, transmitted, or stored only in accord with that
 written license.
  
 The following legend is applicable only to US Government
 contracts under FAR:
  
                    RESTRICTED RIGHTS LEGEND
  
 Use, reproduction and disclosure by the US Government is
 subject to restrictions as set forth in subparagraphs (a)
 and (c) of the Commercial Computer Software - Restricted
 Rights clause in FAR 52.227-19.
  
 Gaussian, Inc.
 340 Quinnipiac St., Bldg. 40, Wallingford CT 06492
  
  
 ---------------------------------------------------------------
 Warning -- This program may not be used in any manner that
 competes with the business of Gaussian, Inc. or will provide
 assistance to any competitor of Gaussian, Inc.  The licensee
 of this program is prohibited from giving any competitor of
 Gaussian, Inc. access to this program.  By using this program,
 the user acknowledges that Gaussian, Inc. is engaged in the
 business of creating and licensing software in the field of
 computational chemistry and represents and warrants to the
 licensee that it is not a competitor of Gaussian, Inc. and that
 it will not use this program in any manner prohibited above.
 ---------------------------------------------------------------
  

 Cite this work as:
 Gaussian 16, Revision A.03,
 M. J. Frisch, G. W. Trucks, H. B. Schlegel, G. E. Scuseria, 
 M. A. Robb, J. R. Cheeseman, G. Scalmani, V. Barone, 
 G. A. Petersson, H. Nakatsuji, X. Li, M. Caricato, A. V. Marenich, 
 J. Bloino, B. G. Janesko, R. Gomperts, B. Mennucci, H. P. Hratchian, 
 J. V. Ortiz, A. F. Izmaylov, J. L. Sonnenberg, D. Williams-Young, 
 F. Ding, F. Lipparini, F. Egidi, J. Goings, B. Peng, A. Petrone, 
 T. Henderson, D. Ranasinghe, V. G. Zakrzewski, J. Gao, N. Rega, 
 G. Zheng, W. Liang, M. Hada, M. Ehara, K. Toyota, R. Fukuda, 
 J. Hasegawa, M. Ishida, T. Nakajima, Y. Honda, O. Kitao, H. Nakai, 
 T. Vreven, K. Throssell, J. A. Montgomery, Jr., J. E. Peralta, 
 F. Ogliaro, M. J. Bearpark, J. J. Heyd, E. N. Brothers, K. N. Kudin, 
 V. N. Staroverov, T. A. Keith, R. Kobayashi, J. Normand, 
 K. Raghavachari, A. P. Rendell, J. C. Burant, S. S. Iyengar, 
 J. Tomasi, M. Cossi, J. M. Millam, M. Klene, C. Adamo, R. Cammi, 
 J. W. Ochterski, R. L. Martin, K. Morokuma, O. Farkas, 
 J. B. Foresman, and D. J. Fox, Gaussian, Inc., Wallingford CT, 2016.
 
 ******************************************
 Gaussian 16:  ES64L-G16RevA.03 25-Dec-2016
                19-Feb-2023 
 ******************************************
 %nproc=24
 Will use up to   24 processors via shared memory.
 %mem=50GB
 ---------------------------------------------------
 #p M062X/6-311+G(2d,p) nosymm em=GD3 counterpoise=3
 ---------------------------------------------------
 1/38=1,62=3,172=1/1;
 2/12=2,15=1,17=6,18=5,40=1/2;
 1/38=1,53=2,62=3,63=1/22;
 3/5=4,6=6,7=112,11=2,25=1,30=1,74=-55,124=31/1,2,3;
 4//1;
 5/5=2,38=5/2;
 6/7=2,8=2,9=2,10=2,28=1/1;
 1/53=2,62=3,63=1/22;
 3/5=7,6=11,7=112,11=2,25=1,30=1,74=-55,82=7,124=31/1,2,3;
 4//1;
 5/5=2,38=5/2;
 6/7=2,8=2,9=2,10=2,28=1/1;
 1/53=2,62=3,63=1/22(-4);
 99/5=1,9=1/99;
 Leave Link    1 at Sun Feb 19 22:30:32 2023, MaxMem=  6710886400 cpu:               0.6 elap:               0.0
 (Enter /data0/home/software/g16/l101.exe)
 -------------------
 Title Card Required
 -------------------
 Symbolic Z-matrix:
 Charge =  0 Multiplicity = 1 in supermolecule
 Charge =  0 Multiplicity = 1 in fragment      1.
 Charge =  0 Multiplicity = 1 in fragment      2.
 Charge =  0 Multiplicity = 1 in fragment      3.
 P                     11.55887   8.70957   10.47477    
 O                     11.54232   10.18332   10.68773    
 O                     12.77813   8.22175   9.56362    
 H                     12.92472   8.96529   8.85133    
 O                     11.75425   7.83502   11.75755    
 H                     10.79599   7.88434   12.3111    
 O                     10.30035   8.22555   9.64994    
 H                     9.40842   8.3773    10.24516    
 O                     13.60554   11.90661   10.13699    
 H                     12.85495   11.31969   10.40536    
 H                     14.29888   11.6908   10.75656    
 O                     13.51943   10.4901   7.71541    
 H                     14.41657   10.35935   7.42085    
 H                     13.5928   11.04723   8.51414    
 
 ITRead=  0  0  0  0  0  0  0  0  0  0  0  0  0  0
 MicOpt= -1 -1 -1 -1 -1 -1 -1 -1 -1 -1 -1 -1 -1 -1
 NAtoms=     14 NQM=       14 NQMF=       0 NMMI=      0 NMMIF=      0
                NMic=       0 NMicF=      0.
                    Isotopes and Nuclear Properties:
 (Nuclear quadrupole moments (NQMom) in fm**2, nuclear magnetic moments (NMagM)
  in nuclear magnetons)

  Atom         1           2           3           4           5           6           7           8           9          10
 IAtWgt=          31          16          16           1          16           1          16           1          16           1
 AtmWgt=  30.9737634  15.9949146  15.9949146   1.0078250  15.9949146   1.0078250  15.9949146   1.0078250  15.9949146   1.0078250
 NucSpn=           1           0           0           1           0           1           0           1           0           1
 AtZEff=  -0.0000000  -0.0000000  -0.0000000  -0.0000000  -0.0000000  -0.0000000  -0.0000000  -0.0000000  -0.0000000  -0.0000000
 NQMom=    0.0000000   0.0000000   0.0000000   0.0000000   0.0000000   0.0000000   0.0000000   0.0000000   0.0000000   0.0000000
 NMagM=    1.1316000   0.0000000   0.0000000   2.7928460   0.0000000   2.7928460   0.0000000   2.7928460   0.0000000   2.7928460
 AtZNuc=  15.0000000   8.0000000   8.0000000   1.0000000   8.0000000   1.0000000   8.0000000   1.0000000   8.0000000   1.0000000

  Atom        11          12          13          14
 IAtWgt=           1          16           1           1
 AtmWgt=   1.0078250  15.9949146   1.0078250   1.0078250
 NucSpn=           1           0           1           1
 AtZEff=  -0.0000000  -0.0000000  -0.0000000  -0.0000000
 NQMom=    0.0000000   0.0000000   0.0000000   0.0000000
 NMagM=    2.7928460   0.0000000   2.7928460   2.7928460
 AtZNuc=   1.0000000   8.0000000   1.0000000   1.0000000
 Leave Link  101 at Sun Feb 19 22:30:32 2023, MaxMem=  6710886400 cpu:               2.0 elap:               0.1
 (Enter /data0/home/software/g16/l202.exe)
                          Input orientation:                          
 ---------------------------------------------------------------------
 Center     Atomic      Atomic             Coordinates (Angstroms)
 Number     Number       Type             X           Y           Z
 ---------------------------------------------------------------------
      1         15           0       11.558873    8.709567   10.474772
      2          8           0       11.542325   10.183315   10.687734
      3          8           0       12.778130    8.221746    9.563623
      4          1           0       12.924720    8.965293    8.851334
      5          8           0       11.754249    7.835016   11.757545
      6          1           0       10.795986    7.884341   12.311098
      7          8           0       10.300349    8.225548    9.649944
      8          1           0        9.408422    8.377296   10.245155
      9          8           0       13.605542   11.906612   10.136987
     10          1           0       12.854946   11.319687   10.405361
     11          1           0       14.298883   11.690803   10.756560
     12          8           0       13.519432   10.490105    7.715405
     13          1           0       14.416565   10.359347    7.420850
     14          1           0       13.592795   11.047230    8.514140
 ---------------------------------------------------------------------
                    Distance matrix (angstroms):
                    1          2          3          4          5
     1  P    0.000000
     2  O    1.489147   0.000000
     3  O    1.598358   2.576547   0.000000
     4  H    2.136933   2.601338   1.040051   0.000000
     5  O    1.564774   2.589192   2.451772   3.330704   0.000000
     6  H    2.152925   2.911634   3.404608   4.203562   1.107755
     7  O    1.580664   2.540150   2.479287   2.841184   2.590043
     8  H    2.188051   2.830393   3.441455   3.827901   2.843290
     9  O    3.811043   2.744073   3.819895   3.281430   4.757246
    10  H    2.915021   1.758991   3.211178   2.821886   3.896520
    11  H    4.058919   3.142590   3.971164   3.598140   4.726968
    12  O    3.824685   3.582989   3.018425   1.992252   5.148229
    13  H    4.496067   4.354856   3.441698   2.493045   5.680413
    14  H    3.666822   3.110512   3.122251   2.212348   4.921204
                    6          7          8          9         10
     6  H    0.000000
     7  O    2.728336   0.000000
     8  H    2.537018   1.082976   0.000000
     9  O    5.366473   4.971091   5.484851   0.000000
    10  H    4.435398   4.082930   4.534519   0.989899   0.000000
    11  H    5.401484   5.405633   5.929374   0.954550   1.531673
    12  O    5.943699   4.385562   5.269156   2.806772   2.892337
    13  H    6.568773   5.144433   6.081671   3.229425   3.502601
    14  H    5.678283   4.482426   5.256799   1.836391   2.048260
                   11         12         13         14
    11  H    0.000000
    12  O    3.361226   0.000000
    13  H    3.593548   0.953262   0.000000
    14  H    2.437456   0.976600   1.532013   0.000000
 Symmetry turned off by external request.
 Stoichiometry    H7O6P
 Framework group  C1[X(H7O6P)]
 Deg. of freedom    36
 Full point group                 C1      NOp   1
 Rotational constants (GHZ):           2.7257596           1.1185987           0.9728376
 Leave Link  202 at Sun Feb 19 22:30:32 2023, MaxMem=  6710886400 cpu:               0.1 elap:               0.0
 (Enter /data0/home/software/g16/l122.exe)
 Counterpoise: doing full-system calculation.
 Leave Link  122 at Sun Feb 19 22:30:32 2023, MaxMem=  6710886400 cpu:               0.0 elap:               0.0
 (Enter /data0/home/software/g16/l301.exe)
 Standard basis: 6-311+G(2d,p) (5D, 7F)
 Ernie: Thresh=  0.10000D-02 Tol=  0.10000D-05 Strict=F.
   239 basis functions,   364 primitive gaussians,   253 cartesian basis functions
    35 alpha electrons       35 beta electrons
       nuclear repulsion energy       455.0292621637 Hartrees.
 IExCor= 4336 DFT=T Ex+Corr=M062X ExCW=0 ScaHFX=  0.540000
 ScaDFX=  1.000000  1.000000  1.000000  1.000000 ScalE2=  1.000000  1.000000
 IRadAn=      5 IRanWt=     -1 IRanGd=            0 ICorTp=0 IEmpDi=131
 NAtoms=   14 NActive=   14 NUniq=   14 SFac= 1.00D+00 NAtFMM=   60 NAOKFM=F Big=F
 Integral buffers will be    131072 words long.
 Raffenetti 2 integral format.
 Two-electron integral symmetry is turned off.
 R6Disp:  Grimme-D3 Dispersion energy=       -0.0003294296 Hartrees.
 Nuclear repulsion after empirical dispersion term =      455.0289327341 Hartrees.
 Leave Link  301 at Sun Feb 19 22:30:33 2023, MaxMem=  6710886400 cpu:               1.1 elap:               0.1
 (Enter /data0/home/software/g16/l302.exe)
 NPDir=0 NMtPBC=     1 NCelOv=     1 NCel=       1 NClECP=     1 NCelD=      1
         NCelK=      1 NCelE2=     1 NClLst=     1 CellRange=     0.0.
 One-electron integrals computed using PRISM.
 NBasis=   239 RedAO= T EigKep=  4.43D-04  NBF=   239
 NBsUse=   239 1.00D-06 EigRej= -1.00D+00 NBFU=   239
 Precomputing XC quadrature grid using
 IXCGrd= 4 IRadAn=           5 IRanWt=          -1 IRanGd=           0 AccXCQ= 0.00D+00.
 Generated NRdTot=       0 NPtTot=           0 NUsed=           0 NTot=          32
 NSgBfM=   253   253   253   253   253 MxSgAt=    14 MxSgA2=    14.
 Leave Link  302 at Sun Feb 19 22:30:33 2023, MaxMem=  6710886400 cpu:               3.8 elap:               0.2
 (Enter /data0/home/software/g16/l303.exe)
 DipDrv:  MaxL=1.
 Leave Link  303 at Sun Feb 19 22:30:33 2023, MaxMem=  6710886400 cpu:               0.6 elap:               0.0
 (Enter /data0/home/software/g16/l401.exe)
 ExpMin= 3.48D-02 ExpMax= 7.75D+04 ExpMxC= 2.65D+03 IAcc=3 IRadAn=         5 AccDes= 0.00D+00
 Harris functional with IExCor= 1009 and IRadAn=       5 diagonalized for initial guess.
 HarFok:  IExCor= 1009 AccDes= 0.00D+00 IRadAn=         5 IDoV= 1 UseB2=F ITyADJ=14
 ICtDFT=  3500011 ScaDFX=  1.000000  1.000000  1.000000  1.000000
 FoFCou: FMM=F IPFlag=           0 FMFlag=      100000 FMFlg1=           0
         NFxFlg=           0 DoJE=T BraDBF=F KetDBF=T FulRan=T
         wScrn=  0.000000 ICntrl=       500 IOpCl=  0 I1Cent=   200000004 NGrid=           0
         NMat0=    1 NMatS0=      1 NMatT0=    0 NMatD0=    1 NMtDS0=    0 NMtDT0=    0
 Symmetry not used in FoFCou.
 Harris En= -796.767838392250    
 JPrj=0 DoOrth=F DoCkMO=F.
 Leave Link  401 at Sun Feb 19 22:30:33 2023, MaxMem=  6710886400 cpu:              10.6 elap:               0.5
 (Enter /data0/home/software/g16/l502.exe)
 Two-electron integral symmetry not used.
 Closed shell SCF:
 Using DIIS extrapolation, IDIIS=  1040.
 NGot=  6710886400 LenX=  6710750439 LenY=  6710685989
 Requested convergence on RMS density matrix=1.00D-08 within 128 cycles.
 Requested convergence on MAX density matrix=1.00D-06.
 Requested convergence on             energy=1.00D-06.
 No special actions if energy rises.
 Fock matrices will be formed incrementally for  20 cycles.

 Cycle   1  Pass 1  IDiag  1:
 FoFJK:  IHMeth= 1 ICntrl=       0 DoSepK=F KAlg= 0 I1Cent=           0 FoldK=F
 IRaf= 920000000 NMat=       1 IRICut=       1 DoRegI=T DoRafI=F ISym2E= 0 IDoP0=0 IntGTp=1.
 FoFCou: FMM=F IPFlag=           0 FMFlag=      100000 FMFlg1=           0
         NFxFlg=           0 DoJE=F BraDBF=F KetDBF=F FulRan=T
         wScrn=  0.000000 ICntrl=         0 IOpCl=  0 I1Cent=           0 NGrid=           0
         NMat0=    1 NMatS0=      1 NMatT0=    0 NMatD0=    1 NMtDS0=    0 NMtDT0=    0
 Symmetry not used in FoFCou.
 E= -796.607492773707    
 DIIS: error= 3.65D-02 at cycle   1 NSaved=   1.
 NSaved= 1 IEnMin= 1 EnMin= -796.607492773707     IErMin= 1 ErrMin= 3.65D-02
 ErrMax= 3.65D-02  0.00D+00 EMaxC= 1.00D-01 BMatC= 7.02D-01 BMatP= 7.02D-01
 IDIUse=3 WtCom= 6.35D-01 WtEn= 3.65D-01
 Coeff-Com:  0.100D+01
 Coeff-En:   0.100D+01
 Coeff:      0.100D+01
 Gap=     0.236 Goal=   None    Shift=    0.000
 GapD=    0.236 DampG=1.000 DampE=0.500 DampFc=0.5000 IDamp=-1.
 Damping current iteration by 5.00D-01
 RMSDP=5.34D-03 MaxDP=1.37D-01              OVMax= 1.89D-01

 Cycle   2  Pass 1  IDiag  1:
 RMSU=  2.67D-03    CP:  1.00D+00
 E= -796.781504897834     Delta-E=       -0.174012124128 Rises=F Damp=T
 DIIS: error= 9.18D-03 at cycle   2 NSaved=   2.
 NSaved= 2 IEnMin= 2 EnMin= -796.781504897834     IErMin= 2 ErrMin= 9.18D-03
 ErrMax= 9.18D-03  0.00D+00 EMaxC= 1.00D-01 BMatC= 3.06D-02 BMatP= 7.02D-01
 IDIUse=3 WtCom= 9.08D-01 WtEn= 9.18D-02
 Coeff-Com:  0.499D-01 0.950D+00
 Coeff-En:   0.155D+00 0.845D+00
 Coeff:      0.596D-01 0.940D+00
 Gap=     0.341 Goal=   None    Shift=    0.000
 RMSDP=1.07D-03 MaxDP=4.13D-02 DE=-1.74D-01 OVMax= 1.19D-01

 Cycle   3  Pass 1  IDiag  1:
 RMSU=  8.67D-04    CP:  9.94D-01  7.71D-01
 E= -797.006488744780     Delta-E=       -0.224983846945 Rises=F Damp=F
 DIIS: error= 3.35D-03 at cycle   3 NSaved=   3.
 NSaved= 3 IEnMin= 3 EnMin= -797.006488744780     IErMin= 3 ErrMin= 3.35D-03
 ErrMax= 3.35D-03  0.00D+00 EMaxC= 1.00D-01 BMatC= 5.11D-03 BMatP= 3.06D-02
 IDIUse=3 WtCom= 9.66D-01 WtEn= 3.35D-02
 Coeff-Com: -0.275D-01 0.205D+00 0.822D+00
 Coeff-En:   0.000D+00 0.000D+00 0.100D+01
 Coeff:     -0.265D-01 0.198D+00 0.828D+00
 Gap=     0.337 Goal=   None    Shift=    0.000
 RMSDP=3.70D-04 MaxDP=1.32D-02 DE=-2.25D-01 OVMax= 2.75D-02

 Cycle   4  Pass 1  IDiag  1:
 RMSU=  3.50D-04    CP:  9.93D-01  8.12D-01  9.40D-01
 E= -797.007597820134     Delta-E=       -0.001109075354 Rises=F Damp=F
 DIIS: error= 2.56D-03 at cycle   4 NSaved=   4.
 NSaved= 4 IEnMin= 4 EnMin= -797.007597820134     IErMin= 4 ErrMin= 2.56D-03
 ErrMax= 2.56D-03  0.00D+00 EMaxC= 1.00D-01 BMatC= 3.67D-03 BMatP= 5.11D-03
 IDIUse=3 WtCom= 9.74D-01 WtEn= 2.56D-02
 Coeff-Com: -0.204D-01 0.446D-01 0.498D+00 0.478D+00
 Coeff-En:   0.000D+00 0.000D+00 0.414D+00 0.586D+00
 Coeff:     -0.198D-01 0.435D-01 0.496D+00 0.481D+00
 Gap=     0.340 Goal=   None    Shift=    0.000
 RMSDP=1.80D-04 MaxDP=6.86D-03 DE=-1.11D-03 OVMax= 1.12D-02

 Cycle   5  Pass 1  IDiag  1:
 RMSU=  5.83D-05    CP:  9.93D-01  8.02D-01  1.01D+00  5.49D-01
 E= -797.010091350432     Delta-E=       -0.002493530299 Rises=F Damp=F
 DIIS: error= 1.69D-04 at cycle   5 NSaved=   5.
 NSaved= 5 IEnMin= 5 EnMin= -797.010091350432     IErMin= 5 ErrMin= 1.69D-04
 ErrMax= 1.69D-04  0.00D+00 EMaxC= 1.00D-01 BMatC= 2.04D-05 BMatP= 3.67D-03
 IDIUse=3 WtCom= 9.98D-01 WtEn= 1.69D-03
 Coeff-Com: -0.270D-02 0.167D-02 0.844D-01 0.119D+00 0.798D+00
 Coeff-En:   0.000D+00 0.000D+00 0.000D+00 0.000D+00 0.100D+01
 Coeff:     -0.270D-02 0.167D-02 0.843D-01 0.118D+00 0.798D+00
 Gap=     0.338 Goal=   None    Shift=    0.000
 RMSDP=2.05D-05 MaxDP=8.57D-04 DE=-2.49D-03 OVMax= 7.18D-04

 Cycle   6  Pass 1  IDiag  1:
 RMSU=  1.56D-05    CP:  9.92D-01  7.99D-01  1.01D+00  5.74D-01  9.61D-01
 E= -797.010105186380     Delta-E=       -0.000013835948 Rises=F Damp=F
 DIIS: error= 6.14D-05 at cycle   6 NSaved=   6.
 NSaved= 6 IEnMin= 6 EnMin= -797.010105186380     IErMin= 6 ErrMin= 6.14D-05
 ErrMax= 6.14D-05  0.00D+00 EMaxC= 1.00D-01 BMatC= 1.29D-06 BMatP= 2.04D-05
 IDIUse=1 WtCom= 1.00D+00 WtEn= 0.00D+00
 Coeff-Com:  0.887D-04-0.128D-02 0.144D-02 0.112D-01 0.197D+00 0.791D+00
 Coeff:      0.887D-04-0.128D-02 0.144D-02 0.112D-01 0.197D+00 0.791D+00
 Gap=     0.339 Goal=   None    Shift=    0.000
 RMSDP=7.66D-06 MaxDP=2.88D-04 DE=-1.38D-05 OVMax= 2.17D-04

 Cycle   7  Pass 1  IDiag  1:
 RMSU=  3.92D-06    CP:  9.92D-01  7.97D-01  1.01D+00  5.80D-01  1.05D+00
                    CP:  9.60D-01
 E= -797.010106217460     Delta-E=       -0.000001031080 Rises=F Damp=F
 DIIS: error= 2.04D-05 at cycle   7 NSaved=   7.
 NSaved= 7 IEnMin= 7 EnMin= -797.010106217460     IErMin= 7 ErrMin= 2.04D-05
 ErrMax= 2.04D-05  0.00D+00 EMaxC= 1.00D-01 BMatC= 2.33D-07 BMatP= 1.29D-06
 IDIUse=1 WtCom= 1.00D+00 WtEn= 0.00D+00
 Coeff-Com:  0.386D-03-0.651D-03-0.110D-01-0.112D-01-0.222D-01 0.287D+00
 Coeff-Com:  0.758D+00
 Coeff:      0.386D-03-0.651D-03-0.110D-01-0.112D-01-0.222D-01 0.287D+00
 Coeff:      0.758D+00
 Gap=     0.339 Goal=   None    Shift=    0.000
 RMSDP=2.44D-06 MaxDP=5.61D-05 DE=-1.03D-06 OVMax= 9.35D-05

 Cycle   8  Pass 1  IDiag  1:
 RMSU=  1.50D-06    CP:  9.92D-01  7.97D-01  1.01D+00  5.81D-01  1.06D+00
                    CP:  1.04D+00  9.29D-01
 E= -797.010106386890     Delta-E=       -0.000000169430 Rises=F Damp=F
 DIIS: error= 9.42D-06 at cycle   8 NSaved=   8.
 NSaved= 8 IEnMin= 8 EnMin= -797.010106386890     IErMin= 8 ErrMin= 9.42D-06
 ErrMax= 9.42D-06  0.00D+00 EMaxC= 1.00D-01 BMatC= 4.05D-08 BMatP= 2.33D-07
 IDIUse=1 WtCom= 1.00D+00 WtEn= 0.00D+00
 Coeff-Com:  0.170D-03-0.234D-03-0.537D-02-0.584D-02-0.195D-01 0.902D-01
 Coeff-Com:  0.373D+00 0.568D+00
 Coeff:      0.170D-03-0.234D-03-0.537D-02-0.584D-02-0.195D-01 0.902D-01
 Coeff:      0.373D+00 0.568D+00
 Gap=     0.339 Goal=   None    Shift=    0.000
 RMSDP=6.86D-07 MaxDP=2.58D-05 DE=-1.69D-07 OVMax= 3.03D-05

 Cycle   9  Pass 1  IDiag  1:
 RMSU=  4.52D-07    CP:  9.92D-01  7.97D-01  1.01D+00  5.81D-01  1.07D+00
                    CP:  1.06D+00  1.02D+00  8.23D-01
 E= -797.010106415438     Delta-E=       -0.000000028548 Rises=F Damp=F
 DIIS: error= 1.31D-06 at cycle   9 NSaved=   9.
 NSaved= 9 IEnMin= 9 EnMin= -797.010106415438     IErMin= 9 ErrMin= 1.31D-06
 ErrMax= 1.31D-06  0.00D+00 EMaxC= 1.00D-01 BMatC= 1.13D-09 BMatP= 4.05D-08
 IDIUse=1 WtCom= 1.00D+00 WtEn= 0.00D+00
 Coeff-Com: -0.357D-04 0.620D-04 0.679D-03 0.697D-03 0.110D-03-0.269D-01
 Coeff-Com: -0.488D-01 0.762D-01 0.998D+00
 Coeff:     -0.357D-04 0.620D-04 0.679D-03 0.697D-03 0.110D-03-0.269D-01
 Coeff:     -0.488D-01 0.762D-01 0.998D+00
 Gap=     0.339 Goal=   None    Shift=    0.000
 RMSDP=3.01D-07 MaxDP=8.38D-06 DE=-2.85D-08 OVMax= 1.25D-05

 Cycle  10  Pass 1  IDiag  1:
 RMSU=  1.08D-07    CP:  9.92D-01  7.97D-01  1.01D+00  5.81D-01  1.07D+00
                    CP:  1.06D+00  1.05D+00  9.45D-01  1.12D+00
 E= -797.010106416953     Delta-E=       -0.000000001515 Rises=F Damp=F
 DIIS: error= 4.35D-07 at cycle  10 NSaved=  10.
 NSaved=10 IEnMin=10 EnMin= -797.010106416953     IErMin=10 ErrMin= 4.35D-07
 ErrMax= 4.35D-07  0.00D+00 EMaxC= 1.00D-01 BMatC= 8.43D-11 BMatP= 1.13D-09
 IDIUse=1 WtCom= 1.00D+00 WtEn= 0.00D+00
 Coeff-Com: -0.142D-04 0.234D-04 0.359D-03 0.384D-03 0.647D-03-0.109D-01
 Coeff-Com: -0.280D-01 0.147D-02 0.299D+00 0.737D+00
 Coeff:     -0.142D-04 0.234D-04 0.359D-03 0.384D-03 0.647D-03-0.109D-01
 Coeff:     -0.280D-01 0.147D-02 0.299D+00 0.737D+00
 Gap=     0.339 Goal=   None    Shift=    0.000
 RMSDP=5.42D-08 MaxDP=1.45D-06 DE=-1.51D-09 OVMax= 2.30D-06

 Cycle  11  Pass 1  IDiag  1:
 RMSU=  4.00D-08    CP:  9.92D-01  7.97D-01  1.01D+00  5.81D-01  1.07D+00
                    CP:  1.06D+00  1.05D+00  9.57D-01  1.18D+00  1.05D+00
 E= -797.010106416991     Delta-E=       -0.000000000038 Rises=F Damp=F
 DIIS: error= 2.29D-07 at cycle  11 NSaved=  11.
 NSaved=11 IEnMin=11 EnMin= -797.010106416991     IErMin=11 ErrMin= 2.29D-07
 ErrMax= 2.29D-07  0.00D+00 EMaxC= 1.00D-01 BMatC= 2.77D-11 BMatP= 8.43D-11
 IDIUse=1 WtCom= 1.00D+00 WtEn= 0.00D+00
 Coeff-Com: -0.500D-06 0.660D-06 0.626D-04 0.718D-04 0.283D-03-0.103D-02
 Coeff-Com: -0.601D-02-0.119D-01-0.137D-01 0.374D+00 0.658D+00
 Coeff:     -0.500D-06 0.660D-06 0.626D-04 0.718D-04 0.283D-03-0.103D-02
 Coeff:     -0.601D-02-0.119D-01-0.137D-01 0.374D+00 0.658D+00
 Gap=     0.339 Goal=   None    Shift=    0.000
 RMSDP=2.27D-08 MaxDP=7.65D-07 DE=-3.80D-11 OVMax= 1.10D-06

 Cycle  12  Pass 1  IDiag  1:
 RMSU=  1.35D-08    CP:  9.92D-01  7.97D-01  1.01D+00  5.81D-01  1.07D+00
                    CP:  1.06D+00  1.05D+00  9.63D-01  1.19D+00  1.18D+00
                    CP:  8.92D-01
 E= -797.010106417007     Delta-E=       -0.000000000016 Rises=F Damp=F
 DIIS: error= 3.54D-08 at cycle  12 NSaved=  12.
 NSaved=12 IEnMin=12 EnMin= -797.010106417007     IErMin=12 ErrMin= 3.54D-08
 ErrMax= 3.54D-08  0.00D+00 EMaxC= 1.00D-01 BMatC= 8.60D-13 BMatP= 2.77D-11
 IDIUse=1 WtCom= 1.00D+00 WtEn= 0.00D+00
 Coeff-Com:  0.121D-05-0.197D-05-0.149D-04-0.154D-04 0.108D-04 0.721D-03
 Coeff-Com:  0.129D-02-0.291D-02-0.328D-01 0.164D-01 0.159D+00 0.859D+00
 Coeff:      0.121D-05-0.197D-05-0.149D-04-0.154D-04 0.108D-04 0.721D-03
 Coeff:      0.129D-02-0.291D-02-0.328D-01 0.164D-01 0.159D+00 0.859D+00
 Gap=     0.339 Goal=   None    Shift=    0.000
 RMSDP=7.76D-09 MaxDP=3.06D-07 DE=-1.59D-11 OVMax= 3.94D-07

 SCF Done:  E(RM062X) =  -797.010106417     A.U. after   12 cycles
            NFock= 12  Conv=0.78D-08     -V/T= 2.0027
 KE= 7.948271606324D+02 PE=-2.799193636842D+03 EE= 7.523274370590D+02
 Leave Link  502 at Sun Feb 19 22:30:45 2023, MaxMem=  6710886400 cpu:             281.0 elap:              11.8
 (Enter /data0/home/software/g16/l601.exe)
 Copying SCF densities to generalized density rwf, IOpCl= 0 IROHF=0.

 **********************************************************************

            Population analysis using the SCF density.

 **********************************************************************

 Alpha  occ. eigenvalues --  -78.17967 -19.70708 -19.69523 -19.66307 -19.61957
 Alpha  occ. eigenvalues --  -19.61354 -19.59946  -6.98689  -5.10603  -5.10590
 Alpha  occ. eigenvalues --   -5.10379  -1.24752  -1.17888  -1.15709  -1.13397
 Alpha  occ. eigenvalues --   -1.12105  -1.09555  -0.73221  -0.65954  -0.61805
 Alpha  occ. eigenvalues --   -0.61030  -0.59034  -0.57946  -0.55752  -0.52628
 Alpha  occ. eigenvalues --   -0.51402  -0.48557  -0.47181  -0.46623  -0.45645
 Alpha  occ. eigenvalues --   -0.44256  -0.40250  -0.39413  -0.38647  -0.38323
 Alpha virt. eigenvalues --   -0.04459   0.01811   0.02265   0.03775   0.06771
 Alpha virt. eigenvalues --    0.08454   0.09941   0.10651   0.11923   0.14542
 Alpha virt. eigenvalues --    0.15247   0.15923   0.16318   0.17205   0.17292
 Alpha virt. eigenvalues --    0.17831   0.19326   0.19617   0.20213   0.22117
 Alpha virt. eigenvalues --    0.22293   0.22631   0.23313   0.25070   0.26543
 Alpha virt. eigenvalues --    0.26770   0.28262   0.28717   0.29178   0.29743
 Alpha virt. eigenvalues --    0.30146   0.30890   0.33326   0.34003   0.35144
 Alpha virt. eigenvalues --    0.36209   0.37934   0.39248   0.40109   0.42103
 Alpha virt. eigenvalues --    0.42926   0.45217   0.46903   0.51446   0.52926
 Alpha virt. eigenvalues --    0.55228   0.56991   0.57571   0.60869   0.64800
 Alpha virt. eigenvalues --    0.68166   0.74567   0.76848   0.79833   0.83961
 Alpha virt. eigenvalues --    0.96422   1.00555   1.01182   1.01583   1.04618
 Alpha virt. eigenvalues --    1.04673   1.06082   1.06896   1.10552   1.12396
 Alpha virt. eigenvalues --    1.13492   1.13919   1.14735   1.17066   1.18195
 Alpha virt. eigenvalues --    1.18723   1.19527   1.21175   1.21493   1.22389
 Alpha virt. eigenvalues --    1.24564   1.25477   1.26402   1.28653   1.29180
 Alpha virt. eigenvalues --    1.34670   1.36390   1.37744   1.40654   1.42025
 Alpha virt. eigenvalues --    1.43101   1.46609   1.48058   1.52069   1.54005
 Alpha virt. eigenvalues --    1.55176   1.56188   1.58950   1.60063   1.61952
 Alpha virt. eigenvalues --    1.63547   1.67859   1.69423   1.71082   1.75329
 Alpha virt. eigenvalues --    1.76887   1.78460   1.80175   1.82861   1.86008
 Alpha virt. eigenvalues --    1.86316   1.89199   1.92607   1.94947   1.98737
 Alpha virt. eigenvalues --    1.99952   2.02528   2.06330   2.08642   2.09953
 Alpha virt. eigenvalues --    2.12093   2.13554   2.16111   2.18571   2.22286
 Alpha virt. eigenvalues --    2.24037   2.26756   2.30688   2.39183   2.41917
 Alpha virt. eigenvalues --    2.44288   2.46717   2.48211   2.53669   2.55561
 Alpha virt. eigenvalues --    2.60089   2.61106   2.61905   2.65727   2.67192
 Alpha virt. eigenvalues --    2.70520   2.78276   2.82426   2.84127   2.89563
 Alpha virt. eigenvalues --    2.93434   2.96713   3.01160   3.13615   3.16686
 Alpha virt. eigenvalues --    5.01786   5.03760   5.07298   5.08594   5.11105
 Alpha virt. eigenvalues --    5.13713   5.14432   5.16449   5.23797   5.26239
 Alpha virt. eigenvalues --    5.34244   5.38830   5.42686   5.51913   5.55578
 Alpha virt. eigenvalues --    5.60247   5.95397   5.97549   6.71403   6.74512
 Alpha virt. eigenvalues --    6.75993   6.76369   6.78352   6.78538   6.80565
 Alpha virt. eigenvalues --    6.81033   6.82639   6.82780   6.84760   6.89114
 Alpha virt. eigenvalues --    6.90315   6.90680   6.91766   6.93441   6.95637
 Alpha virt. eigenvalues --    6.96841   6.98849   7.00705   7.03188   7.04330
 Alpha virt. eigenvalues --    7.13454   7.17243   7.18607   7.22409   7.27043
 Alpha virt. eigenvalues --    7.29660   7.34113   7.38610   7.64807  14.23749
 Alpha virt. eigenvalues --   14.25149  14.31470  49.97610  49.99353  49.99796
 Alpha virt. eigenvalues --   50.04030  50.04289  50.09968 163.86588
          Condensed to atoms (all electrons):
               1          2          3          4          5          6
     1  P   12.459100   0.466527   0.329444   0.018448   0.232605   0.013428
     2  O    0.466527   8.309740  -0.067601  -0.006991  -0.001921  -0.005299
     3  O    0.329444  -0.067601   8.056734   0.241427  -0.010203   0.000783
     4  H    0.018448  -0.006991   0.241427   0.357276  -0.000937  -0.000797
     5  O    0.232605  -0.001921  -0.010203  -0.000937   8.021407   0.231989
     6  H    0.013428  -0.005299   0.000783  -0.000797   0.231989   0.445548
     7  O    0.265716   0.019330  -0.016061   0.002449   0.011293  -0.006051
     8  H    0.003400  -0.018795  -0.001780   0.002478  -0.010930  -0.004902
     9  O   -0.011655  -0.011130   0.008963  -0.003928  -0.005268   0.000219
    10  H    0.000957   0.042698  -0.003171   0.004614   0.002129  -0.000320
    11  H    0.003637  -0.002309  -0.002316   0.000698   0.000724  -0.000005
    12  O   -0.027722   0.007190   0.042230  -0.016243  -0.000609   0.000002
    13  H    0.001259   0.000330  -0.003732  -0.001742  -0.000034   0.000001
    14  H    0.009638   0.005482  -0.011764   0.008562   0.000448  -0.000004
               7          8          9         10         11         12
     1  P    0.265716   0.003400  -0.011655   0.000957   0.003637  -0.027722
     2  O    0.019330  -0.018795  -0.011130   0.042698  -0.002309   0.007190
     3  O   -0.016061  -0.001780   0.008963  -0.003171  -0.002316   0.042230
     4  H    0.002449   0.002478  -0.003928   0.004614   0.000698  -0.016243
     5  O    0.011293  -0.010930  -0.005268   0.002129   0.000724  -0.000609
     6  H   -0.006051  -0.004902   0.000219  -0.000320  -0.000005   0.000002
     7  O    7.983173   0.247050  -0.000352   0.000479  -0.000046  -0.004125
     8  H    0.247050   0.465247   0.000066  -0.000254  -0.000003  -0.000190
     9  O   -0.000352   0.000066   8.174906   0.259916   0.297383   0.018691
    10  H    0.000479  -0.000254   0.259916   0.315194  -0.014709  -0.012017
    11  H   -0.000046  -0.000003   0.297383  -0.014709   0.435637  -0.003709
    12  O   -0.004125  -0.000190   0.018691  -0.012017  -0.003709   8.052734
    13  H    0.000344   0.000009   0.001737  -0.000142  -0.000619   0.322726
    14  H    0.000174   0.000081  -0.031581   0.008068  -0.000884   0.291426
              13         14
     1  P    0.001259   0.009638
     2  O    0.000330   0.005482
     3  O   -0.003732  -0.011764
     4  H   -0.001742   0.008562
     5  O   -0.000034   0.000448
     6  H    0.000001  -0.000004
     7  O    0.000344   0.000174
     8  H    0.000009   0.000081
     9  O    0.001737  -0.031581
    10  H   -0.000142   0.008068
    11  H   -0.000619  -0.000884
    12  O    0.322726   0.291426
    13  H    0.421528  -0.027562
    14  H   -0.027562   0.348107
 Mulliken charges:
               1
     1  P    1.235219
     2  O   -0.737249
     3  O   -0.562954
     4  H    0.394686
     5  O   -0.470695
     6  H    0.325407
     7  O   -0.503373
     8  H    0.318523
     9  O   -0.697967
    10  H    0.396559
    11  H    0.286521
    12  O   -0.670384
    13  H    0.285896
    14  H    0.399811
 Sum of Mulliken charges =  -0.00000
 Mulliken charges with hydrogens summed into heavy atoms:
               1
     1  P    1.235219
     2  O   -0.737249
     3  O   -0.168268
     5  O   -0.145288
     7  O   -0.184850
     9  O   -0.014887
    12  O    0.015323
         Mulliken charges condensed to fragments:
      1     -0.000436
      2     -0.014887
      3      0.015323
 Electronic spatial extent (au):  <R**2>=          85101.9000
 Charge=              0.0000 electrons
 Dipole moment (field-independent basis, Debye):
    X=             -1.5746    Y=             -2.5611    Z=              2.9343  Tot=              4.2010
 Quadrupole moment (field-independent basis, Debye-Ang):
   XX=            -69.7703   YY=           -107.5549   ZZ=             12.4821
   XY=            -38.1674   XZ=             11.1319   YZ=             -0.1688
 Traceless Quadrupole moment (field-independent basis, Debye-Ang):
   XX=            -14.8226   YY=            -52.6072   ZZ=             67.4298
   XY=            -38.1674   XZ=             11.1319   YZ=             -0.1688
 Octapole moment (field-independent basis, Debye-Ang**2):
  XXX=          -1849.7055  YYY=          -2364.9078  ZZZ=           -493.0697  XYY=          -1307.1101
  XXY=           -845.6753  XXZ=           -473.1045  XZZ=           -179.5439  YZZ=           -188.8679
  YYZ=           -849.3475  XYZ=           -141.1432
 Hexadecapole moment (field-independent basis, Debye-Ang**3):
 XXXX=         -39653.9362 YYYY=         -41094.7374 ZZZZ=         -15878.8636 XXXY=         -18637.5744
 XXXZ=         -16920.7651 YYYX=         -28354.0158 YYYZ=         -21495.3149 ZZZX=         -10109.8930
 ZZZY=          -7982.5418 XXYY=         -18823.3307 XXZZ=          -9340.1535 YYZZ=         -10616.7482
 XXYZ=          -6320.2624 YYXZ=         -10811.1938 ZZXY=          -4376.5904
 N-N= 4.550289327341D+02 E-N=-2.799193643766D+03  KE= 7.948271606324D+02
 No NMR shielding tensors so no spin-rotation constants.
 Leave Link  601 at Sun Feb 19 22:30:45 2023, MaxMem=  6710886400 cpu:               2.1 elap:               0.1
 (Enter /data0/home/software/g16/l122.exe)
 CPIOFr:  IOpCl= 0 IRwI=-1 IRwCP=  731 ICalc= -1 LCPTot=       89292 Len1MO=      233639 IndFrg=       89292
 CPIOFr:  IOpCl= 0 IRwI=-1 IRwCP=  731 ICalc=  0 LCPTot=       89292 Len1MO=      233639 IndFrg=      322931
 Counterpoise: doing calculation for fragment   1 using the basis set of the full-system, NewBq=T
 Leave Link  122 at Sun Feb 19 22:30:45 2023, MaxMem=  6710886400 cpu:               0.1 elap:               0.0
 (Enter /data0/home/software/g16/l301.exe)
 Basis read from rwf:  (5D, 7F)
 No pseudopotential information found on rwf file.
   239 basis functions,   364 primitive gaussians,   253 cartesian basis functions
    25 alpha electrons       25 beta electrons
       nuclear repulsion energy       279.3895319884 Hartrees.
 IExCor= 4336 DFT=T Ex+Corr=M062X ExCW=0 ScaHFX=  0.540000
 ScaDFX=  1.000000  1.000000  1.000000  1.000000 ScalE2=  1.000000  1.000000
 IRadAn=      5 IRanWt=     -1 IRanGd=            0 ICorTp=0 IEmpDi=131
 NAtoms=   14 NActive=   14 NUniq=   14 SFac= 1.00D+00 NAtFMM=   60 NAOKFM=F Big=F
 Integral buffers will be    131072 words long.
 Raffenetti 2 integral format.
 Two-electron integral symmetry is turned off.
 R6Disp:  Grimme-D3 Dispersion energy=       -0.0000486156 Hartrees.
 Nuclear repulsion after empirical dispersion term =      279.3894833728 Hartrees.
 No density basis found on file   718.
 Leave Link  301 at Sun Feb 19 22:30:45 2023, MaxMem=  6710886400 cpu:               1.2 elap:               0.1
 (Enter /data0/home/software/g16/l302.exe)
 NPDir=0 NMtPBC=     1 NCelOv=     1 NCel=       1 NClECP=     1 NCelD=      1
         NCelK=      1 NCelE2=     1 NClLst=     1 CellRange=     0.0.
 One-electron integrals computed using PRISM.
 NBasis=   239 RedAO= T EigKep=  4.43D-04  NBF=   239
 NBsUse=   239 1.00D-06 EigRej= -1.00D+00 NBFU=   239
 Precomputing XC quadrature grid using
 IXCGrd= 4 IRadAn=           5 IRanWt=          -1 IRanGd=           0 AccXCQ= 0.00D+00.
 Generated NRdTot=       0 NPtTot=           0 NUsed=           0 NTot=          32
 NSgBfM=   253   253   253   253   253 MxSgAt=    14 MxSgA2=    14.
 Leave Link  302 at Sun Feb 19 22:30:45 2023, MaxMem=  6710886400 cpu:               3.8 elap:               0.2
 (Enter /data0/home/software/g16/l303.exe)
 DipDrv:  MaxL=1.
 Leave Link  303 at Sun Feb 19 22:30:45 2023, MaxMem=  6710886400 cpu:               0.6 elap:               0.0
 (Enter /data0/home/software/g16/l401.exe)
 ExpMin= 3.48D-02 ExpMax= 7.75D+04 ExpMxC= 2.65D+03 IAcc=3 IRadAn=         5 AccDes= 0.00D+00
 Harris functional with IExCor= 1009 and IRadAn=       5 diagonalized for initial guess.
 HarFok:  IExCor= 1009 AccDes= 0.00D+00 IRadAn=         5 IDoV= 1 UseB2=F ITyADJ=14
 ICtDFT=  3500011 ScaDFX=  1.000000  1.000000  1.000000  1.000000
 FoFCou: FMM=F IPFlag=           0 FMFlag=      100000 FMFlg1=           0
         NFxFlg=           0 DoJE=T BraDBF=F KetDBF=T FulRan=T
         wScrn=  0.000000 ICntrl=       500 IOpCl=  0 I1Cent=   200000004 NGrid=           0
         NMat0=    1 NMatS0=      1 NMatT0=    0 NMatD0=    1 NMtDS0=    0 NMtDT0=    0
 Symmetry not used in FoFCou.
 Harris En= -643.929534080539    
 JPrj=0 DoOrth=F DoCkMO=F.
 Leave Link  401 at Sun Feb 19 22:30:46 2023, MaxMem=  6710886400 cpu:              10.4 elap:               0.5
 (Enter /data0/home/software/g16/l502.exe)
 Two-electron integral symmetry not used.
 Closed shell SCF:
 Using DIIS extrapolation, IDIIS=  1040.
 NGot=  6710886400 LenX=  6710750439 LenY=  6710685989
 Requested convergence on RMS density matrix=1.00D-08 within 128 cycles.
 Requested convergence on MAX density matrix=1.00D-06.
 Requested convergence on             energy=1.00D-06.
 No special actions if energy rises.
 Fock matrices will be formed incrementally for  20 cycles.

 Cycle   1  Pass 1  IDiag  1:
 FoFJK:  IHMeth= 1 ICntrl=       0 DoSepK=F KAlg= 0 I1Cent=           0 FoldK=F
 IRaf= 920000000 NMat=       1 IRICut=       1 DoRegI=T DoRafI=F ISym2E= 0 IDoP0=0 IntGTp=1.
 FoFCou: FMM=F IPFlag=           0 FMFlag=      100000 FMFlg1=           0
         NFxFlg=           0 DoJE=F BraDBF=F KetDBF=F FulRan=T
         wScrn=  0.000000 ICntrl=         0 IOpCl=  0 I1Cent=           0 NGrid=           0
         NMat0=    1 NMatS0=      1 NMatT0=    0 NMatD0=    1 NMtDS0=    0 NMtDT0=    0
 Symmetry not used in FoFCou.
 E= -643.834610131852    
 DIIS: error= 3.45D-02 at cycle   1 NSaved=   1.
 NSaved= 1 IEnMin= 1 EnMin= -643.834610131852     IErMin= 1 ErrMin= 3.45D-02
 ErrMax= 3.45D-02  0.00D+00 EMaxC= 1.00D-01 BMatC= 5.07D-01 BMatP= 5.07D-01
 IDIUse=3 WtCom= 6.55D-01 WtEn= 3.45D-01
 Coeff-Com:  0.100D+01
 Coeff-En:   0.100D+01
 Coeff:      0.100D+01
 Gap=     0.202 Goal=   None    Shift=    0.000
 GapD=    0.202 DampG=1.000 DampE=0.500 DampFc=0.5000 IDamp=-1.
 Damping current iteration by 5.00D-01
 RMSDP=4.90D-03 MaxDP=1.70D-01              OVMax= 2.57D-01

 Cycle   2  Pass 1  IDiag  1:
 RMSU=  2.45D-03    CP:  1.00D+00
 E= -643.952870099957     Delta-E=       -0.118259968105 Rises=F Damp=T
 DIIS: error= 8.95D-03 at cycle   2 NSaved=   2.
 NSaved= 2 IEnMin= 2 EnMin= -643.952870099957     IErMin= 2 ErrMin= 8.95D-03
 ErrMax= 8.95D-03  0.00D+00 EMaxC= 1.00D-01 BMatC= 2.69D-02 BMatP= 5.07D-01
 IDIUse=3 WtCom= 9.11D-01 WtEn= 8.95D-02
 Coeff-Com:  0.735D-01 0.926D+00
 Coeff-En:   0.202D+00 0.798D+00
 Coeff:      0.851D-01 0.915D+00
 Gap=     0.326 Goal=   None    Shift=    0.000
 RMSDP=1.11D-03 MaxDP=5.63D-02 DE=-1.18D-01 OVMax= 1.64D-01

 Cycle   3  Pass 1  IDiag  1:
 RMSU=  8.24D-04    CP:  9.94D-01  6.97D-01
 E= -644.120982200765     Delta-E=       -0.168112100809 Rises=F Damp=F
 DIIS: error= 4.25D-03 at cycle   3 NSaved=   3.
 NSaved= 3 IEnMin= 3 EnMin= -644.120982200765     IErMin= 3 ErrMin= 4.25D-03
 ErrMax= 4.25D-03  0.00D+00 EMaxC= 1.00D-01 BMatC= 8.85D-03 BMatP= 2.69D-02
 IDIUse=3 WtCom= 9.58D-01 WtEn= 4.25D-02
 Coeff-Com: -0.156D-01 0.317D+00 0.699D+00
 Coeff-En:   0.000D+00 0.000D+00 0.100D+01
 Coeff:     -0.150D-01 0.303D+00 0.712D+00
 Gap=     0.314 Goal=   None    Shift=    0.000
 RMSDP=4.53D-04 MaxDP=1.46D-02 DE=-1.68D-01 OVMax= 3.46D-02

 Cycle   4  Pass 1  IDiag  1:
 RMSU=  4.08D-04    CP:  9.93D-01  7.65D-01  8.73D-01
 E= -644.124509311897     Delta-E=       -0.003527111132 Rises=F Damp=F
 DIIS: error= 2.54D-03 at cycle   4 NSaved=   4.
 NSaved= 4 IEnMin= 4 EnMin= -644.124509311897     IErMin= 4 ErrMin= 2.54D-03
 ErrMax= 2.54D-03  0.00D+00 EMaxC= 1.00D-01 BMatC= 4.06D-03 BMatP= 8.85D-03
 IDIUse=3 WtCom= 9.75D-01 WtEn= 2.54D-02
 Coeff-Com: -0.218D-01 0.500D-01 0.426D+00 0.546D+00
 Coeff-En:   0.000D+00 0.000D+00 0.318D+00 0.682D+00
 Coeff:     -0.212D-01 0.487D-01 0.423D+00 0.549D+00
 Gap=     0.323 Goal=   None    Shift=    0.000
 RMSDP=1.86D-04 MaxDP=6.24D-03 DE=-3.53D-03 OVMax= 1.19D-02

 Cycle   5  Pass 1  IDiag  1:
 RMSU=  5.80D-05    CP:  9.93D-01  7.46D-01  9.69D-01  6.28D-01
 E= -644.127244140351     Delta-E=       -0.002734828454 Rises=F Damp=F
 DIIS: error= 2.06D-04 at cycle   5 NSaved=   5.
 NSaved= 5 IEnMin= 5 EnMin= -644.127244140351     IErMin= 5 ErrMin= 2.06D-04
 ErrMax= 2.06D-04  0.00D+00 EMaxC= 1.00D-01 BMatC= 1.56D-05 BMatP= 4.06D-03
 IDIUse=3 WtCom= 9.98D-01 WtEn= 2.06D-03
 Coeff-Com: -0.267D-02 0.628D-03 0.629D-01 0.113D+00 0.826D+00
 Coeff-En:   0.000D+00 0.000D+00 0.000D+00 0.000D+00 0.100D+01
 Coeff:     -0.266D-02 0.627D-03 0.628D-01 0.113D+00 0.827D+00
 Gap=     0.322 Goal=   None    Shift=    0.000
 RMSDP=2.04D-05 MaxDP=7.04D-04 DE=-2.73D-03 OVMax= 9.28D-04

 Cycle   6  Pass 1  IDiag  1:
 RMSU=  1.36D-05    CP:  9.92D-01  7.43D-01  9.75D-01  6.53D-01  1.07D+00
 E= -644.127254454023     Delta-E=       -0.000010313672 Rises=F Damp=F
 DIIS: error= 5.68D-05 at cycle   6 NSaved=   6.
 NSaved= 6 IEnMin= 6 EnMin= -644.127254454023     IErMin= 6 ErrMin= 5.68D-05
 ErrMax= 5.68D-05  0.00D+00 EMaxC= 1.00D-01 BMatC= 1.74D-06 BMatP= 1.56D-05
 IDIUse=1 WtCom= 1.00D+00 WtEn= 0.00D+00
 Coeff-Com: -0.770D-04-0.161D-02 0.400D-02 0.149D-01 0.260D+00 0.723D+00
 Coeff:     -0.770D-04-0.161D-02 0.400D-02 0.149D-01 0.260D+00 0.723D+00
 Gap=     0.322 Goal=   None    Shift=    0.000
 RMSDP=7.62D-06 MaxDP=2.05D-04 DE=-1.03D-05 OVMax= 2.72D-04

 Cycle   7  Pass 1  IDiag  1:
 RMSU=  4.45D-06    CP:  9.92D-01  7.42D-01  9.76D-01  6.57D-01  1.15D+00
                    CP:  9.13D-01
 E= -644.127255603125     Delta-E=       -0.000001149102 Rises=F Damp=F
 DIIS: error= 3.02D-05 at cycle   7 NSaved=   7.
 NSaved= 7 IEnMin= 7 EnMin= -644.127255603125     IErMin= 7 ErrMin= 3.02D-05
 ErrMax= 3.02D-05  0.00D+00 EMaxC= 1.00D-01 BMatC= 4.39D-07 BMatP= 1.74D-06
 IDIUse=1 WtCom= 1.00D+00 WtEn= 0.00D+00
 Coeff-Com:  0.468D-03-0.796D-03-0.106D-01-0.151D-01-0.316D-01 0.333D+00
 Coeff-Com:  0.724D+00
 Coeff:      0.468D-03-0.796D-03-0.106D-01-0.151D-01-0.316D-01 0.333D+00
 Coeff:      0.724D+00
 Gap=     0.322 Goal=   None    Shift=    0.000
 RMSDP=3.26D-06 MaxDP=8.30D-05 DE=-1.15D-06 OVMax= 1.33D-04

 Cycle   8  Pass 1  IDiag  1:
 RMSU=  1.84D-06    CP:  9.92D-01  7.41D-01  9.77D-01  6.58D-01  1.18D+00
                    CP:  1.01D+00  8.27D-01
 E= -644.127255920432     Delta-E=       -0.000000317307 Rises=F Damp=F
 DIIS: error= 6.61D-06 at cycle   8 NSaved=   8.
 NSaved= 8 IEnMin= 8 EnMin= -644.127255920432     IErMin= 8 ErrMin= 6.61D-06
 ErrMax= 6.61D-06  0.00D+00 EMaxC= 1.00D-01 BMatC= 3.17D-08 BMatP= 4.39D-07
 IDIUse=1 WtCom= 1.00D+00 WtEn= 0.00D+00
 Coeff-Com:  0.182D-03-0.234D-03-0.453D-02-0.648D-02-0.205D-01 0.965D-01
 Coeff-Com:  0.303D+00 0.632D+00
 Coeff:      0.182D-03-0.234D-03-0.453D-02-0.648D-02-0.205D-01 0.965D-01
 Coeff:      0.303D+00 0.632D+00
 Gap=     0.322 Goal=   None    Shift=    0.000
 RMSDP=6.42D-07 MaxDP=2.77D-05 DE=-3.17D-07 OVMax= 3.44D-05

 Cycle   9  Pass 1  IDiag  1:
 RMSU=  4.21D-07    CP:  9.92D-01  7.41D-01  9.77D-01  6.58D-01  1.18D+00
                    CP:  1.02D+00  9.07D-01  8.90D-01
 E= -644.127255945077     Delta-E=       -0.000000024646 Rises=F Damp=F
 DIIS: error= 1.28D-06 at cycle   9 NSaved=   9.
 NSaved= 9 IEnMin= 9 EnMin= -644.127255945077     IErMin= 9 ErrMin= 1.28D-06
 ErrMax= 1.28D-06  0.00D+00 EMaxC= 1.00D-01 BMatC= 1.16D-09 BMatP= 3.17D-08
 IDIUse=1 WtCom= 1.00D+00 WtEn= 0.00D+00
 Coeff-Com: -0.249D-04 0.512D-04 0.225D-03 0.460D-03-0.802D-03-0.185D-01
 Coeff-Com: -0.220D-01 0.924D-01 0.948D+00
 Coeff:     -0.249D-04 0.512D-04 0.225D-03 0.460D-03-0.802D-03-0.185D-01
 Coeff:     -0.220D-01 0.924D-01 0.948D+00
 Gap=     0.322 Goal=   None    Shift=    0.000
 RMSDP=2.84D-07 MaxDP=9.46D-06 DE=-2.46D-08 OVMax= 1.32D-05

 Cycle  10  Pass 1  IDiag  1:
 RMSU=  1.28D-07    CP:  9.92D-01  7.41D-01  9.77D-01  6.59D-01  1.18D+00
                    CP:  1.02D+00  9.24D-01  9.85D-01  1.13D+00
 E= -644.127255946376     Delta-E=       -0.000000001299 Rises=F Damp=F
 DIIS: error= 8.80D-07 at cycle  10 NSaved=  10.
 NSaved=10 IEnMin=10 EnMin= -644.127255946376     IErMin=10 ErrMin= 8.80D-07
 ErrMax= 8.80D-07  0.00D+00 EMaxC= 1.00D-01 BMatC= 2.64D-10 BMatP= 1.16D-09
 IDIUse=1 WtCom= 1.00D+00 WtEn= 0.00D+00
 Coeff-Com: -0.204D-04 0.358D-04 0.332D-03 0.548D-03 0.640D-03-0.141D-01
 Coeff-Com: -0.272D-01 0.914D-02 0.453D+00 0.578D+00
 Coeff:     -0.204D-04 0.358D-04 0.332D-03 0.548D-03 0.640D-03-0.141D-01
 Coeff:     -0.272D-01 0.914D-02 0.453D+00 0.578D+00
 Gap=     0.322 Goal=   None    Shift=    0.000
 RMSDP=6.47D-08 MaxDP=2.36D-06 DE=-1.30D-09 OVMax= 3.22D-06

 Cycle  11  Pass 1  IDiag  1:
 RMSU=  4.88D-08    CP:  9.92D-01  7.41D-01  9.77D-01  6.59D-01  1.18D+00
                    CP:  1.02D+00  9.26D-01  9.96D-01  1.20D+00  9.49D-01
 E= -644.127255946557     Delta-E=       -0.000000000181 Rises=F Damp=F
 DIIS: error= 2.19D-07 at cycle  11 NSaved=  11.
 NSaved=11 IEnMin=11 EnMin= -644.127255946557     IErMin=11 ErrMin= 2.19D-07
 ErrMax= 2.19D-07  0.00D+00 EMaxC= 1.00D-01 BMatC= 1.80D-11 BMatP= 2.64D-10
 IDIUse=1 WtCom= 1.00D+00 WtEn= 0.00D+00
 Coeff-Com:  0.455D-06-0.140D-05 0.357D-04 0.488D-04 0.314D-03-0.463D-03
 Coeff-Com: -0.353D-02-0.141D-01-0.459D-01 0.175D+00 0.888D+00
 Coeff:      0.455D-06-0.140D-05 0.357D-04 0.488D-04 0.314D-03-0.463D-03
 Coeff:     -0.353D-02-0.141D-01-0.459D-01 0.175D+00 0.888D+00
 Gap=     0.322 Goal=   None    Shift=    0.000
 RMSDP=3.20D-08 MaxDP=1.09D-06 DE=-1.81D-10 OVMax= 1.74D-06

 Cycle  12  Pass 1  IDiag  1:
 RMSU=  1.36D-08    CP:  9.92D-01  7.41D-01  9.77D-01  6.59D-01  1.18D+00
                    CP:  1.02D+00  9.27D-01  1.00D+00  1.23D+00  1.10D+00
                    CP:  1.06D+00
 E= -644.127255946605     Delta-E=       -0.000000000048 Rises=F Damp=F
 DIIS: error= 2.32D-08 at cycle  12 NSaved=  12.
 NSaved=12 IEnMin=12 EnMin= -644.127255946605     IErMin=12 ErrMin= 2.32D-08
 ErrMax= 2.32D-08  0.00D+00 EMaxC= 1.00D-01 BMatC= 3.06D-13 BMatP= 1.80D-11
 IDIUse=1 WtCom= 1.00D+00 WtEn= 0.00D+00
 Coeff-Com:  0.847D-06-0.144D-05-0.114D-04-0.196D-04-0.264D-04 0.541D-03
 Coeff-Com:  0.130D-02-0.145D-03-0.220D-01-0.248D-01 0.214D-01 0.102D+01
 Coeff:      0.847D-06-0.144D-05-0.114D-04-0.196D-04-0.264D-04 0.541D-03
 Coeff:      0.130D-02-0.145D-03-0.220D-01-0.248D-01 0.214D-01 0.102D+01
 Gap=     0.322 Goal=   None    Shift=    0.000
 RMSDP=8.17D-09 MaxDP=3.14D-07 DE=-4.75D-11 OVMax= 4.33D-07

 SCF Done:  E(RM062X) =  -644.127255947     A.U. after   12 cycles
            NFock= 12  Conv=0.82D-08     -V/T= 2.0027
 KE= 6.423863419277D+02 PE=-2.086406880015D+03 EE= 5.205037987675D+02
 Leave Link  502 at Sun Feb 19 22:30:57 2023, MaxMem=  6710886400 cpu:             269.3 elap:              11.3
 (Enter /data0/home/software/g16/l601.exe)
 Copying SCF densities to generalized density rwf, IOpCl= 0 IROHF=0.

 **********************************************************************

            Population analysis using the SCF density.

 **********************************************************************

 Alpha  occ. eigenvalues --  -78.16896 -19.69911 -19.68940 -19.67497 -19.57851
 Alpha  occ. eigenvalues --   -6.97652  -5.09571  -5.09561  -5.09305  -1.24251
 Alpha  occ. eigenvalues --   -1.17277  -1.16178  -1.07377  -0.72966  -0.65465
 Alpha  occ. eigenvalues --   -0.60354  -0.57783  -0.55271  -0.51920  -0.50856
 Alpha  occ. eigenvalues --   -0.46312  -0.45327  -0.44048  -0.36994  -0.36316
 Alpha virt. eigenvalues --   -0.04076   0.00783   0.02411   0.04145   0.06555
 Alpha virt. eigenvalues --    0.08397   0.09335   0.10103   0.12856   0.13552
 Alpha virt. eigenvalues --    0.14490   0.14902   0.16281   0.17157   0.18303
 Alpha virt. eigenvalues --    0.18636   0.20303   0.21143   0.21398   0.22485
 Alpha virt. eigenvalues --    0.22936   0.24117   0.26245   0.27057   0.27290
 Alpha virt. eigenvalues --    0.28025   0.28813   0.29383   0.30394   0.31326
 Alpha virt. eigenvalues --    0.32041   0.32222   0.34603   0.36247   0.36829
 Alpha virt. eigenvalues --    0.37696   0.39510   0.40588   0.41839   0.42927
 Alpha virt. eigenvalues --    0.43878   0.45004   0.47066   0.50210   0.54183
 Alpha virt. eigenvalues --    0.57414   0.63336   0.64910   0.70016   0.73824
 Alpha virt. eigenvalues --    0.74973   0.76955   0.77757   0.79291   0.80457
 Alpha virt. eigenvalues --    0.80960   0.85635   0.87009   0.94741   0.97427
 Alpha virt. eigenvalues --    0.99085   1.01062   1.03551   1.04620   1.06574
 Alpha virt. eigenvalues --    1.06984   1.12370   1.13540   1.14417   1.16932
 Alpha virt. eigenvalues --    1.17666   1.20108   1.22278   1.22340   1.24134
 Alpha virt. eigenvalues --    1.24894   1.29265   1.30832   1.34213   1.41294
 Alpha virt. eigenvalues --    1.44846   1.50160   1.51550   1.53478   1.55454
 Alpha virt. eigenvalues --    1.56455   1.57235   1.60890   1.63622   1.65710
 Alpha virt. eigenvalues --    1.68390   1.69751   1.73327   1.76217   1.78074
 Alpha virt. eigenvalues --    1.81209   1.82779   1.86122   1.87097   1.89123
 Alpha virt. eigenvalues --    1.92905   1.93858   1.96467   1.99014   2.00329
 Alpha virt. eigenvalues --    2.01416   2.02894   2.08474   2.10780   2.13979
 Alpha virt. eigenvalues --    2.17610   2.18904   2.19937   2.23203   2.24056
 Alpha virt. eigenvalues --    2.30412   2.31386   2.40327   2.41799   2.43575
 Alpha virt. eigenvalues --    2.47584   2.51344   2.53887   2.54907   2.56138
 Alpha virt. eigenvalues --    2.58487   2.61726   2.61968   2.62899   2.65882
 Alpha virt. eigenvalues --    2.67199   2.69651   2.71510   2.74253   2.78176
 Alpha virt. eigenvalues --    2.80561   2.83096   2.85389   2.90647   2.92124
 Alpha virt. eigenvalues --    2.96010   2.99593   3.00876   3.07514   3.11622
 Alpha virt. eigenvalues --    3.53092   3.53640   3.67734   3.74184   4.57537
 Alpha virt. eigenvalues --    4.63551   5.02514   5.04505   5.07386   5.08282
 Alpha virt. eigenvalues --    5.10167   5.15385   5.15900   5.18217   5.25297
 Alpha virt. eigenvalues --    5.28271   5.35100   5.41106   5.43734   5.57378
 Alpha virt. eigenvalues --    6.72437   6.75888   6.75908   6.76759   6.79403
 Alpha virt. eigenvalues --    6.82087   6.83638   6.89826   6.91440   6.94561
 Alpha virt. eigenvalues --    6.96855   7.00129   7.01633   7.05505   7.13326
 Alpha virt. eigenvalues --    7.23186   7.27176   7.30383   7.34290   7.39993
 Alpha virt. eigenvalues --    7.65701   9.82302   9.87129   9.88786   9.91651
 Alpha virt. eigenvalues --    9.95473   9.96603  10.01758  10.06258  10.17816
 Alpha virt. eigenvalues --   10.25792  12.91915  13.02319  13.27516  13.37770
 Alpha virt. eigenvalues --   13.72100  13.87590  14.24799  14.26187  14.32538
 Alpha virt. eigenvalues --   17.71884  17.87362  49.98507  49.99987  50.02285
 Alpha virt. eigenvalues --   50.11366 134.33125 137.32534 163.87655
          Condensed to atoms (all electrons):
               1          2          3          4          5          6
     1  P   12.515137   0.490939   0.304431   0.007269   0.230952   0.007155
     2  O    0.490939   8.247114  -0.051839  -0.013206   0.008212  -0.008326
     3  O    0.304431  -0.051839   8.001360   0.279077  -0.016383   0.000738
     4  H    0.007269  -0.013206   0.279077   0.358200  -0.001201  -0.000895
     5  O    0.230952   0.008212  -0.016383  -0.001201   8.012252   0.239329
     6  H    0.007155  -0.008326   0.000738  -0.000895   0.239329   0.444401
     7  O    0.260168   0.016261  -0.007147   0.003901   0.012236  -0.004771
     8  H   -0.001883  -0.020167  -0.000581   0.002244  -0.009198  -0.005150
     9  O   -0.001678   0.027165  -0.000051  -0.000764  -0.001502   0.000212
    10  H    0.001651  -0.031803   0.003631   0.000588   0.001117  -0.000393
    11  H   -0.000002  -0.003285  -0.000454  -0.000001   0.000324  -0.000012
    12  O   -0.002526  -0.004085   0.023278   0.000866   0.000470   0.000000
    13  H    0.000089   0.000664  -0.003977   0.000484  -0.000046   0.000001
    14  H    0.002187   0.002808  -0.008285   0.002050  -0.000062  -0.000003
               7          8          9         10         11         12
     1  P    0.260168  -0.001883  -0.001678   0.001651  -0.000002  -0.002526
     2  O    0.016261  -0.020167   0.027165  -0.031803  -0.003285  -0.004085
     3  O   -0.007147  -0.000581  -0.000051   0.003631  -0.000454   0.023278
     4  H    0.003901   0.002244  -0.000764   0.000588  -0.000001   0.000866
     5  O    0.012236  -0.009198  -0.001502   0.001117   0.000324   0.000470
     6  H   -0.004771  -0.005150   0.000212  -0.000393  -0.000012   0.000000
     7  O    7.988986   0.253986   0.000991  -0.001136  -0.000099  -0.001756
     8  H    0.253986   0.458975   0.000130  -0.000333  -0.000005  -0.000193
     9  O    0.000991   0.000130   0.025761  -0.021233  -0.007020  -0.002842
    10  H   -0.001136  -0.000333  -0.021233   0.025786   0.003095   0.003350
    11  H   -0.000099  -0.000005  -0.007020   0.003095   0.003492   0.000183
    12  O   -0.001756  -0.000193  -0.002842   0.003350   0.000183   0.026572
    13  H    0.000242   0.000009   0.000777  -0.000651  -0.000093  -0.009920
    14  H    0.000474   0.000070   0.001140  -0.002388   0.000255  -0.010636
              13         14
     1  P    0.000089   0.002187
     2  O    0.000664   0.002808
     3  O   -0.003977  -0.008285
     4  H    0.000484   0.002050
     5  O   -0.000046  -0.000062
     6  H    0.000001  -0.000003
     7  O    0.000242   0.000474
     8  H    0.000009   0.000070
     9  O    0.000777   0.001140
    10  H   -0.000651  -0.002388
    11  H   -0.000093   0.000255
    12  O   -0.009920  -0.010636
    13  H    0.005033   0.003114
    14  H    0.003114   0.006265
 Mulliken charges:
               1
     1  P    1.186111
     2  O   -0.660451
     3  O   -0.523800
     4  H    0.361388
     5  O   -0.476500
     6  H    0.327715
     7  O   -0.522337
     8  H    0.322096
     9  O   -0.021085
    10  H    0.018720
    11  H    0.003622
    12  O   -0.022762
    13  H    0.004273
    14  H    0.003012
 Sum of Mulliken charges =  -0.00000
 Mulliken charges with hydrogens summed into heavy atoms:
               1
     1  P    1.186111
     2  O   -0.660451
     3  O   -0.162412
     5  O   -0.148785
     7  O   -0.200241
     9  O    0.001256
    12  O   -0.015477
         Mulliken charges condensed to fragments:
      1      0.014221
      2      0.001256
      3     -0.015477
 Electronic spatial extent (au):  <R**2>=          57038.5716
 Charge=             -0.0000 electrons
 Dipole moment (field-independent basis, Debye):
    X=             -2.7594    Y=             -1.9142    Z=              0.4585  Tot=              3.3895
 Quadrupole moment (field-independent basis, Debye-Ang):
   XX=            -92.5655   YY=            -76.7687   ZZ=            -21.1154
   XY=            -42.5874   XZ=            -30.5174   YZ=            -20.3994
 Traceless Quadrupole moment (field-independent basis, Debye-Ang):
   XX=            -29.0823   YY=            -13.2855   ZZ=             42.3678
   XY=            -42.5874   XZ=            -30.5174   YZ=            -20.3994
 Octapole moment (field-independent basis, Debye-Ang**2):
  XXX=          -2119.6907  YYY=          -1571.7833  ZZZ=           -809.2499  XYY=          -1034.9575
  XXY=           -976.7922  XXZ=          -1065.5326  XZZ=           -690.7064  YZZ=           -481.8730
  YYZ=           -844.1341  XYZ=           -509.3420
 Hexadecapole moment (field-independent basis, Debye-Ang**3):
 XXXX=         -40964.9896 YYYY=         -25050.5721 ZZZZ=         -18028.7514 XXXY=         -19886.6712
 XXXZ=         -24180.4915 YYYX=         -19189.7980 YYYZ=         -17127.6339 ZZZX=         -14794.6322
 ZZZY=         -10593.0665 XXYY=         -15860.8395 XXZZ=         -16292.2178 YYZZ=         -11592.2257
 XXYZ=         -11630.7526 YYXZ=         -11812.6376 ZZXY=          -9038.7909
 N-N= 2.793894833728D+02 E-N=-2.086406885736D+03  KE= 6.423863419277D+02
 No NMR shielding tensors so no spin-rotation constants.
 Leave Link  601 at Sun Feb 19 22:30:57 2023, MaxMem=  6710886400 cpu:               2.2 elap:               0.1
 (Enter /data0/home/software/g16/l122.exe)
 CPIOFr:  IOpCl= 0 IRwI=-1 IRwCP=  731 ICalc=  1 LCPTot=       89292 Len1MO=      233639 IndFrg=      556570
 Counterpoise: doing calculation for fragment   2 using the basis set of the full-system, NewBq=T
 Leave Link  122 at Sun Feb 19 22:30:57 2023, MaxMem=  6710886400 cpu:               0.1 elap:               0.0
 (Enter /data0/home/software/g16/l301.exe)
 Basis read from rwf:  (5D, 7F)
 No pseudopotential information found on rwf file.
   239 basis functions,   364 primitive gaussians,   253 cartesian basis functions
     5 alpha electrons        5 beta electrons
       nuclear repulsion energy         9.0570929728 Hartrees.
 IExCor= 4336 DFT=T Ex+Corr=M062X ExCW=0 ScaHFX=  0.540000
 ScaDFX=  1.000000  1.000000  1.000000  1.000000 ScalE2=  1.000000  1.000000
 IRadAn=      5 IRanWt=     -1 IRanGd=            0 ICorTp=0 IEmpDi=131
 NAtoms=   14 NActive=   14 NUniq=   14 SFac= 1.00D+00 NAtFMM=   60 NAOKFM=F Big=F
 Integral buffers will be    131072 words long.
 Raffenetti 2 integral format.
 Two-electron integral symmetry is turned off.
 R6Disp:  Grimme-D3 Dispersion energy=       -0.0000000080 Hartrees.
 Nuclear repulsion after empirical dispersion term =        9.0570929648 Hartrees.
 No density basis found on file   718.
 Leave Link  301 at Sun Feb 19 22:30:57 2023, MaxMem=  6710886400 cpu:               1.2 elap:               0.1
 (Enter /data0/home/software/g16/l302.exe)
 NPDir=0 NMtPBC=     1 NCelOv=     1 NCel=       1 NClECP=     1 NCelD=      1
         NCelK=      1 NCelE2=     1 NClLst=     1 CellRange=     0.0.
 One-electron integrals computed using PRISM.
 NBasis=   239 RedAO= T EigKep=  4.43D-04  NBF=   239
 NBsUse=   239 1.00D-06 EigRej= -1.00D+00 NBFU=   239
 Precomputing XC quadrature grid using
 IXCGrd= 4 IRadAn=           5 IRanWt=          -1 IRanGd=           0 AccXCQ= 0.00D+00.
 Generated NRdTot=       0 NPtTot=           0 NUsed=           0 NTot=          32
 NSgBfM=   253   253   253   253   253 MxSgAt=    14 MxSgA2=    14.
 Leave Link  302 at Sun Feb 19 22:30:58 2023, MaxMem=  6710886400 cpu:               3.8 elap:               0.2
 (Enter /data0/home/software/g16/l303.exe)
 DipDrv:  MaxL=1.
 Leave Link  303 at Sun Feb 19 22:30:58 2023, MaxMem=  6710886400 cpu:               0.6 elap:               0.0
 (Enter /data0/home/software/g16/l401.exe)
 ExpMin= 3.48D-02 ExpMax= 7.75D+04 ExpMxC= 2.65D+03 IAcc=3 IRadAn=         5 AccDes= 0.00D+00
 Harris functional with IExCor= 1009 and IRadAn=       5 diagonalized for initial guess.
 HarFok:  IExCor= 1009 AccDes= 0.00D+00 IRadAn=         5 IDoV= 1 UseB2=F ITyADJ=14
 ICtDFT=  3500011 ScaDFX=  1.000000  1.000000  1.000000  1.000000
 FoFCou: FMM=F IPFlag=           0 FMFlag=      100000 FMFlg1=           0
         NFxFlg=           0 DoJE=T BraDBF=F KetDBF=T FulRan=T
         wScrn=  0.000000 ICntrl=       500 IOpCl=  0 I1Cent=   200000004 NGrid=           0
         NMat0=    1 NMatS0=      1 NMatT0=    0 NMatD0=    1 NMtDS0=    0 NMtDT0=    0
 Symmetry not used in FoFCou.
 Harris En= -76.4165115363711    
 JPrj=0 DoOrth=F DoCkMO=F.
 Leave Link  401 at Sun Feb 19 22:30:58 2023, MaxMem=  6710886400 cpu:              10.0 elap:               0.4
 (Enter /data0/home/software/g16/l502.exe)
 Two-electron integral symmetry not used.
 Closed shell SCF:
 Using DIIS extrapolation, IDIIS=  1040.
 NGot=  6710886400 LenX=  6710750439 LenY=  6710685989
 Requested convergence on RMS density matrix=1.00D-08 within 128 cycles.
 Requested convergence on MAX density matrix=1.00D-06.
 Requested convergence on             energy=1.00D-06.
 No special actions if energy rises.
 Fock matrices will be formed incrementally for  20 cycles.

 Cycle   1  Pass 1  IDiag  1:
 FoFJK:  IHMeth= 1 ICntrl=       0 DoSepK=F KAlg= 0 I1Cent=           0 FoldK=F
 IRaf= 920000000 NMat=       1 IRICut=       1 DoRegI=T DoRafI=F ISym2E= 0 IDoP0=0 IntGTp=1.
 FoFCou: FMM=F IPFlag=           0 FMFlag=      100000 FMFlg1=           0
         NFxFlg=           0 DoJE=F BraDBF=F KetDBF=F FulRan=T
         wScrn=  0.000000 ICntrl=         0 IOpCl=  0 I1Cent=           0 NGrid=           0
         NMat0=    1 NMatS0=      1 NMatT0=    0 NMatD0=    1 NMtDS0=    0 NMtDT0=    0
 Symmetry not used in FoFCou.
 E= -76.3472422672176    
 DIIS: error= 2.33D-02 at cycle   1 NSaved=   1.
 NSaved= 1 IEnMin= 1 EnMin= -76.3472422672176     IErMin= 1 ErrMin= 2.33D-02
 ErrMax= 2.33D-02  0.00D+00 EMaxC= 1.00D-01 BMatC= 1.20D-01 BMatP= 1.20D-01
 IDIUse=3 WtCom= 7.67D-01 WtEn= 2.33D-01
 Coeff-Com:  0.100D+01
 Coeff-En:   0.100D+01
 Coeff:      0.100D+01
 Gap=     0.267 Goal=   None    Shift=    0.000
 GapD=    0.267 DampG=1.000 DampE=0.500 DampFc=0.5000 IDamp=-1.
 Damping current iteration by 5.00D-01
 RMSDP=2.09D-03 MaxDP=9.85D-02              OVMax= 1.71D-01

 Cycle   2  Pass 1  IDiag  1:
 RMSU=  1.04D-03    CP:  9.73D-01
 E= -76.3779248859536     Delta-E=       -0.030682618736 Rises=F Damp=T
 DIIS: error= 5.60D-03 at cycle   2 NSaved=   2.
 NSaved= 2 IEnMin= 2 EnMin= -76.3779248859536     IErMin= 2 ErrMin= 5.60D-03
 ErrMax= 5.60D-03  0.00D+00 EMaxC= 1.00D-01 BMatC= 5.08D-03 BMatP= 1.20D-01
 IDIUse=3 WtCom= 9.44D-01 WtEn= 5.60D-02
 Coeff-Com:  0.889D-01 0.911D+00
 Coeff-En:   0.199D+00 0.801D+00
 Coeff:      0.951D-01 0.905D+00
 Gap=     0.393 Goal=   None    Shift=    0.000
 RMSDP=3.13D-04 MaxDP=1.48D-02 DE=-3.07D-02 OVMax= 1.04D-01

 Cycle   3  Pass 1  IDiag  1:
 RMSU=  2.61D-04    CP:  9.79D-01  8.35D-01
 E= -76.4221031361103     Delta-E=       -0.044178250157 Rises=F Damp=F
 DIIS: error= 9.67D-04 at cycle   3 NSaved=   3.
 NSaved= 3 IEnMin= 3 EnMin= -76.4221031361103     IErMin= 3 ErrMin= 9.67D-04
 ErrMax= 9.67D-04  0.00D+00 EMaxC= 1.00D-01 BMatC= 1.51D-04 BMatP= 5.08D-03
 IDIUse=3 WtCom= 9.90D-01 WtEn= 9.67D-03
 Coeff-Com: -0.274D-01 0.512D-01 0.976D+00
 Coeff-En:   0.000D+00 0.000D+00 0.100D+01
 Coeff:     -0.272D-01 0.507D-01 0.976D+00
 Gap=     0.395 Goal=   None    Shift=    0.000
 RMSDP=3.24D-05 MaxDP=1.37D-03 DE=-4.42D-02 OVMax= 3.93D-03

 Cycle   4  Pass 1  IDiag  1:
 RMSU=  2.53D-05    CP:  9.77D-01  8.45D-01  1.06D+00
 E= -76.4222241213046     Delta-E=       -0.000120985194 Rises=F Damp=F
 DIIS: error= 8.65D-05 at cycle   4 NSaved=   4.
 NSaved= 4 IEnMin= 4 EnMin= -76.4222241213046     IErMin= 4 ErrMin= 8.65D-05
 ErrMax= 8.65D-05  0.00D+00 EMaxC= 1.00D-01 BMatC= 2.83D-06 BMatP= 1.51D-04
 IDIUse=1 WtCom= 1.00D+00 WtEn= 0.00D+00
 Coeff-Com: -0.306D-02 0.318D-03 0.148D+00 0.854D+00
 Coeff:     -0.306D-02 0.318D-03 0.148D+00 0.854D+00
 Gap=     0.395 Goal=   None    Shift=    0.000
 RMSDP=6.35D-06 MaxDP=3.21D-04 DE=-1.21D-04 OVMax= 5.31D-04

 Cycle   5  Pass 1  IDiag  1:
 RMSU=  3.89D-06    CP:  9.77D-01  8.41D-01  1.07D+00  1.10D+00
 E= -76.4222259453294     Delta-E=       -0.000001824025 Rises=F Damp=F
 DIIS: error= 2.23D-05 at cycle   5 NSaved=   5.
 NSaved= 5 IEnMin= 5 EnMin= -76.4222259453294     IErMin= 5 ErrMin= 2.23D-05
 ErrMax= 2.23D-05  0.00D+00 EMaxC= 1.00D-01 BMatC= 7.99D-08 BMatP= 2.83D-06
 IDIUse=1 WtCom= 1.00D+00 WtEn= 0.00D+00
 Coeff-Com:  0.147D-02-0.229D-02-0.372D-01-0.516D-01 0.109D+01
 Coeff:      0.147D-02-0.229D-02-0.372D-01-0.516D-01 0.109D+01
 Gap=     0.396 Goal=   None    Shift=    0.000
 RMSDP=4.05D-06 MaxDP=1.36D-04 DE=-1.82D-06 OVMax= 2.19D-04

 Cycle   6  Pass 1  IDiag  1:
 RMSU=  1.10D-06    CP:  9.77D-01  8.38D-01  1.07D+00  1.17D+00  1.33D+00
 E= -76.4222260862910     Delta-E=       -0.000000140962 Rises=F Damp=F
 DIIS: error= 2.85D-06 at cycle   6 NSaved=   6.
 NSaved= 6 IEnMin= 6 EnMin= -76.4222260862910     IErMin= 6 ErrMin= 2.85D-06
 ErrMax= 2.85D-06  0.00D+00 EMaxC= 1.00D-01 BMatC= 1.87D-09 BMatP= 7.99D-08
 IDIUse=1 WtCom= 1.00D+00 WtEn= 0.00D+00
 Coeff-Com: -0.257D-03 0.367D-03 0.325D-02-0.645D-02-0.145D+00 0.115D+01
 Coeff:     -0.257D-03 0.367D-03 0.325D-02-0.645D-02-0.145D+00 0.115D+01
 Gap=     0.396 Goal=   None    Shift=    0.000
 RMSDP=5.66D-07 MaxDP=2.38D-05 DE=-1.41D-07 OVMax= 3.99D-05

 Cycle   7  Pass 1  IDiag  1:
 RMSU=  1.46D-07    CP:  9.77D-01  8.38D-01  1.07D+00  1.18D+00  1.40D+00
                    CP:  1.24D+00
 E= -76.4222260900428     Delta-E=       -0.000000003752 Rises=F Damp=F
 DIIS: error= 3.37D-07 at cycle   7 NSaved=   7.
 NSaved= 7 IEnMin= 7 EnMin= -76.4222260900428     IErMin= 7 ErrMin= 3.37D-07
 ErrMax= 3.37D-07  0.00D+00 EMaxC= 1.00D-01 BMatC= 3.65D-11 BMatP= 1.87D-09
 IDIUse=1 WtCom= 1.00D+00 WtEn= 0.00D+00
 Coeff-Com: -0.171D-04 0.407D-04 0.372D-03 0.121D-02-0.231D-01 0.159D-01
 Coeff-Com:  0.101D+01
 Coeff:     -0.171D-04 0.407D-04 0.372D-03 0.121D-02-0.231D-01 0.159D-01
 Coeff:      0.101D+01
 Gap=     0.396 Goal=   None    Shift=    0.000
 RMSDP=6.78D-08 MaxDP=2.70D-06 DE=-3.75D-09 OVMax= 5.23D-06

 Cycle   8  Pass 1  IDiag  1:
 RMSU=  2.58D-08    CP:  9.77D-01  8.38D-01  1.07D+00  1.19D+00  1.41D+00
                    CP:  1.27D+00  1.10D+00
 E= -76.4222260901091     Delta-E=       -0.000000000066 Rises=F Damp=F
 DIIS: error= 1.19D-07 at cycle   8 NSaved=   8.
 NSaved= 8 IEnMin= 8 EnMin= -76.4222260901091     IErMin= 8 ErrMin= 1.19D-07
 ErrMax= 1.19D-07  0.00D+00 EMaxC= 1.00D-01 BMatC= 2.48D-12 BMatP= 3.65D-11
 IDIUse=1 WtCom= 1.00D+00 WtEn= 0.00D+00
 Coeff-Com:  0.135D-04-0.160D-04-0.140D-03 0.628D-03 0.452D-02-0.567D-01
 Coeff-Com:  0.127D+00 0.925D+00
 Coeff:      0.135D-04-0.160D-04-0.140D-03 0.628D-03 0.452D-02-0.567D-01
 Coeff:      0.127D+00 0.925D+00
 Gap=     0.396 Goal=   None    Shift=    0.000
 RMSDP=1.30D-08 MaxDP=6.23D-07 DE=-6.63D-11 OVMax= 9.92D-07

 Cycle   9  Pass 1  IDiag  1:
 RMSU=  4.55D-09    CP:  9.77D-01  8.38D-01  1.07D+00  1.19D+00  1.41D+00
                    CP:  1.27D+00  1.15D+00  1.02D+00
 E= -76.4222260901111     Delta-E=       -0.000000000002 Rises=F Damp=F
 DIIS: error= 1.63D-08 at cycle   9 NSaved=   9.
 NSaved= 9 IEnMin= 9 EnMin= -76.4222260901111     IErMin= 9 ErrMin= 1.63D-08
 ErrMax= 1.63D-08  0.00D+00 EMaxC= 1.00D-01 BMatC= 4.44D-14 BMatP= 2.48D-12
 IDIUse=1 WtCom= 1.00D+00 WtEn= 0.00D+00
 Coeff-Com: -0.103D-05 0.104D-06 0.185D-04-0.576D-04 0.388D-04 0.493D-02
 Coeff-Com: -0.384D-01-0.849D-01 0.112D+01
 Coeff:     -0.103D-05 0.104D-06 0.185D-04-0.576D-04 0.388D-04 0.493D-02
 Coeff:     -0.384D-01-0.849D-01 0.112D+01
 Gap=     0.396 Goal=   None    Shift=    0.000
 RMSDP=1.61D-09 MaxDP=6.70D-08 DE=-1.99D-12 OVMax= 1.60D-07

 SCF Done:  E(RM062X) =  -76.4222260901     A.U. after    9 cycles
            NFock=  9  Conv=0.16D-08     -V/T= 2.0033
 KE= 7.617006112986D+01 PE=-1.989481136279D+02 EE= 3.729873344317D+01
 Leave Link  502 at Sun Feb 19 22:31:06 2023, MaxMem=  6710886400 cpu:             189.5 elap:               7.9
 (Enter /data0/home/software/g16/l601.exe)
 Copying SCF densities to generalized density rwf, IOpCl= 0 IROHF=0.

 **********************************************************************

            Population analysis using the SCF density.

 **********************************************************************

 Alpha  occ. eigenvalues --  -19.62768  -1.13148  -0.60479  -0.47538  -0.39988
 Alpha virt. eigenvalues --   -0.00433   0.03935   0.04383   0.04515   0.10260
 Alpha virt. eigenvalues --    0.10581   0.11610   0.13312   0.14486   0.16143
 Alpha virt. eigenvalues --    0.16396   0.17847   0.18821   0.19049   0.19476
 Alpha virt. eigenvalues --    0.20261   0.21718   0.22633   0.24902   0.25850
 Alpha virt. eigenvalues --    0.26562   0.26713   0.28369   0.28769   0.30184
 Alpha virt. eigenvalues --    0.30293   0.33896   0.34311   0.35248   0.36573
 Alpha virt. eigenvalues --    0.37081   0.38366   0.39694   0.40788   0.41243
 Alpha virt. eigenvalues --    0.42528   0.44089   0.45913   0.50442   0.55779
 Alpha virt. eigenvalues --    0.62862   0.63564   0.69598   0.69953   0.70880
 Alpha virt. eigenvalues --    0.73245   0.73624   0.74196   0.74714   0.76487
 Alpha virt. eigenvalues --    0.78716   0.79375   0.85335   0.86238   0.86996
 Alpha virt. eigenvalues --    0.89257   0.90012   0.93504   0.96102   0.98397
 Alpha virt. eigenvalues --    0.99880   1.02630   1.04954   1.07575   1.08606
 Alpha virt. eigenvalues --    1.10420   1.12567   1.12677   1.13500   1.17339
 Alpha virt. eigenvalues --    1.18695   1.22712   1.23852   1.26768   1.28378
 Alpha virt. eigenvalues --    1.32721   1.34989   1.39800   1.45351   1.47064
 Alpha virt. eigenvalues --    1.52304   1.61625   1.73624   1.77034   1.78675
 Alpha virt. eigenvalues --    1.83465   1.84151   1.88771   1.91505   1.95027
 Alpha virt. eigenvalues --    1.98563   2.00931   2.05492   2.07545   2.09476
 Alpha virt. eigenvalues --    2.13144   2.16281   2.20822   2.26197   2.28029
 Alpha virt. eigenvalues --    2.28471   2.32902   2.34606   2.38020   2.40932
 Alpha virt. eigenvalues --    2.42206   2.45066   2.45609   2.50163   2.50688
 Alpha virt. eigenvalues --    2.52023   2.55806   2.56994   2.60194   2.60969
 Alpha virt. eigenvalues --    2.61685   2.63534   2.64845   2.65993   2.69312
 Alpha virt. eigenvalues --    2.70412   2.71347   2.72525   2.76197   2.77616
 Alpha virt. eigenvalues --    2.79593   2.83000   2.87370   2.88481   2.90961
 Alpha virt. eigenvalues --    2.93227   2.94669   2.95879   2.96638   2.99002
 Alpha virt. eigenvalues --    3.01662   3.02061   3.03220   3.04923   3.07217
 Alpha virt. eigenvalues --    3.14270   3.15270   3.17362   3.22367   3.26375
 Alpha virt. eigenvalues --    3.27386   3.31105   3.34147   3.42339   3.48591
 Alpha virt. eigenvalues --    3.52032   3.67821   3.76548   3.78296   3.81062
 Alpha virt. eigenvalues --    4.40838   4.45310   4.51184   4.53699   4.55707
 Alpha virt. eigenvalues --    4.61525   4.70267   4.88739   4.92470   4.93175
 Alpha virt. eigenvalues --    5.12047   5.15636   5.55136   5.96742   6.80735
 Alpha virt. eigenvalues --    6.85819   6.92280   7.00484   7.15414   9.71153
 Alpha virt. eigenvalues --    9.72351   9.77447   9.79488   9.83885   9.88236
 Alpha virt. eigenvalues --    9.89212   9.95532  10.03812  10.10416  10.16083
 Alpha virt. eigenvalues --   10.20581  10.24298  10.27544  10.29596  10.30726
 Alpha virt. eigenvalues --   10.32912  10.34405  10.37211  10.39761  10.44245
 Alpha virt. eigenvalues --   10.48451  10.54028  10.62164  10.66344  10.73529
 Alpha virt. eigenvalues --   10.84702  10.86174  12.81831  12.85998  12.91462
 Alpha virt. eigenvalues --   13.10974  13.20506  13.23895  13.38729  13.43218
 Alpha virt. eigenvalues --   13.46195  13.55092  13.67549  13.69088  13.72697
 Alpha virt. eigenvalues --   13.85469  13.87723  14.16352  17.65808  17.68107
 Alpha virt. eigenvalues --   18.24669  18.51231  18.54192  50.01969  52.72186
 Alpha virt. eigenvalues --   52.75485  52.81608  70.45042 135.03079 136.40157
 Alpha virt. eigenvalues --  138.83175 139.75651 139.77183 482.85152
          Condensed to atoms (all electrons):
               1          2          3          4          5          6
     1  P    0.014391  -0.007944  -0.006982   0.002515   0.001000  -0.000782
     2  O   -0.007944   0.011574   0.000509  -0.000736  -0.002451   0.000466
     3  O   -0.006982   0.000509   0.011858  -0.003617  -0.001051  -0.000489
     4  H    0.002515  -0.000736  -0.003617   0.002096   0.000228   0.000034
     5  O    0.001000  -0.002451  -0.001051   0.000228   0.002615  -0.000292
     6  H   -0.000782   0.000466  -0.000489   0.000034  -0.000292   0.000715
     7  O   -0.001193   0.001112  -0.001001   0.000178  -0.000604   0.000420
     8  H   -0.000190   0.000162   0.000043  -0.000009   0.000053  -0.000038
     9  O   -0.006268   0.030576   0.002708  -0.002872  -0.002026   0.000062
    10  H    0.004731   0.005286  -0.002586   0.001445   0.000344   0.000026
    11  H    0.003428  -0.002604  -0.000913   0.000050   0.000065   0.000008
    12  O   -0.003768   0.002924   0.003061  -0.002843  -0.000290  -0.000009
    13  H    0.000125  -0.000094  -0.000219   0.000302   0.000009   0.000000
    14  H    0.002839  -0.003413  -0.001230   0.001687   0.000331   0.000001
               7          8          9         10         11         12
     1  P   -0.001193  -0.000190  -0.006268   0.004731   0.003428  -0.003768
     2  O    0.001112   0.000162   0.030576   0.005286  -0.002604   0.002924
     3  O   -0.001001   0.000043   0.002708  -0.002586  -0.000913   0.003061
     4  H    0.000178  -0.000009  -0.002872   0.001445   0.000050  -0.002843
     5  O   -0.000604   0.000053  -0.002026   0.000344   0.000065  -0.000290
     6  H    0.000420  -0.000038   0.000062   0.000026   0.000008  -0.000009
     7  O    0.001344  -0.000115   0.000346   0.000163   0.000010  -0.000015
     8  H   -0.000115   0.000081   0.000001  -0.000007  -0.000001   0.000008
     9  O    0.000346   0.000001   8.049114   0.290788   0.306049   0.062670
    10  H    0.000163  -0.000007   0.290788   0.344249  -0.016562  -0.006997
    11  H    0.000010  -0.000001   0.306049  -0.016562   0.441593  -0.001441
    12  O   -0.000015   0.000008   0.062670  -0.006997  -0.001441   0.029935
    13  H    0.000002   0.000000  -0.003106   0.000273  -0.000109  -0.002865
    14  H   -0.000044  -0.000004  -0.096805   0.008257   0.002296  -0.034497
              13         14
     1  P    0.000125   0.002839
     2  O   -0.000094  -0.003413
     3  O   -0.000219  -0.001230
     4  H    0.000302   0.001687
     5  O    0.000009   0.000331
     6  H    0.000000   0.000001
     7  O    0.000002  -0.000044
     8  H    0.000000  -0.000004
     9  O   -0.003106  -0.096805
    10  H    0.000273   0.008257
    11  H   -0.000109   0.002296
    12  O   -0.002865  -0.034497
    13  H    0.000738   0.002231
    14  H    0.002231   0.048205
 Mulliken charges:
               1
     1  P   -0.001900
     2  O   -0.035368
     3  O   -0.000092
     4  H    0.001541
     5  O    0.002069
     6  H   -0.000124
     7  O   -0.000604
     8  H    0.000014
     9  O   -0.631239
    10  H    0.370588
    11  H    0.268131
    12  O   -0.045874
    13  H    0.002712
    14  H    0.070146
 Sum of Mulliken charges =  -0.00000
 Mulliken charges with hydrogens summed into heavy atoms:
               1
     1  P   -0.001900
     2  O   -0.035368
     3  O    0.001449
     5  O    0.001945
     7  O   -0.000590
     9  O    0.007480
    12  O    0.026984
         Mulliken charges condensed to fragments:
      1     -0.034464
      2      0.007480
      3      0.026984
 Electronic spatial extent (au):  <R**2>=          15356.4561
 Charge=              0.0000 electrons
 Dipole moment (field-independent basis, Debye):
    X=             -0.0877    Y=             -1.3626    Z=              1.5051  Tot=              2.0322
 Quadrupole moment (field-independent basis, Debye-Ang):
   XX=             -7.1688   YY=            -39.2165   ZZ=             24.0063
   XY=            -18.7918   XZ=             20.2892   YZ=              3.3704
 Traceless Quadrupole moment (field-independent basis, Debye-Ang):
   XX=              0.2909   YY=            -31.7568   ZZ=             31.4660
   XY=            -18.7918   XZ=             20.2892   YZ=              3.3704
 Octapole moment (field-independent basis, Debye-Ang**2):
  XXX=           -243.9515  YYY=           -820.3910  ZZZ=            265.2652  XYY=           -527.5909
  XXY=           -316.5376  XXZ=            225.4794  XZZ=            332.3324  YZZ=            131.0197
  YYZ=           -201.9309  XYZ=             51.6809
 Hexadecapole moment (field-independent basis, Debye-Ang**3):
 XXXX=          -6204.1322 YYYY=         -14922.6705 ZZZZ=           2218.5225 XXXY=          -5916.1290
 XXXZ=           1726.7006 YYYX=         -10988.9757 YYYZ=          -6096.7014 ZZZX=           3749.9081
 ZZZY=           1516.4792 XXYY=          -7788.5007 XXZZ=           4115.4274 YYZZ=           -985.6177
 XXYZ=            205.7490 YYXZ=          -2586.5471 ZZXY=           1932.7073
 N-N= 9.057092964808D+00 E-N=-1.989481143822D+02  KE= 7.617006112986D+01
 No NMR shielding tensors so no spin-rotation constants.
 Leave Link  601 at Sun Feb 19 22:31:06 2023, MaxMem=  6710886400 cpu:               2.1 elap:               0.1
 (Enter /data0/home/software/g16/l122.exe)
 CPIOFr:  IOpCl= 0 IRwI=-1 IRwCP=  731 ICalc=  2 LCPTot=       89292 Len1MO=      233639 IndFrg=      790209
 Counterpoise: doing calculation for fragment   3 using the basis set of the full-system, NewBq=T
 Leave Link  122 at Sun Feb 19 22:31:06 2023, MaxMem=  6710886400 cpu:               0.1 elap:               0.0
 (Enter /data0/home/software/g16/l301.exe)
 Basis read from rwf:  (5D, 7F)
 No pseudopotential information found on rwf file.
   239 basis functions,   364 primitive gaussians,   253 cartesian basis functions
     5 alpha electrons        5 beta electrons
       nuclear repulsion energy         9.1212468110 Hartrees.
 IExCor= 4336 DFT=T Ex+Corr=M062X ExCW=0 ScaHFX=  0.540000
 ScaDFX=  1.000000  1.000000  1.000000  1.000000 ScalE2=  1.000000  1.000000
 IRadAn=      5 IRanWt=     -1 IRanGd=            0 ICorTp=0 IEmpDi=131
 NAtoms=   14 NActive=   14 NUniq=   14 SFac= 1.00D+00 NAtFMM=   60 NAOKFM=F Big=F
 Integral buffers will be    131072 words long.
 Raffenetti 2 integral format.
 Two-electron integral symmetry is turned off.
 R6Disp:  Grimme-D3 Dispersion energy=       -0.0000000079 Hartrees.
 Nuclear repulsion after empirical dispersion term =        9.1212468031 Hartrees.
 No density basis found on file   718.
 Leave Link  301 at Sun Feb 19 22:31:06 2023, MaxMem=  6710886400 cpu:               1.3 elap:               0.1
 (Enter /data0/home/software/g16/l302.exe)
 NPDir=0 NMtPBC=     1 NCelOv=     1 NCel=       1 NClECP=     1 NCelD=      1
         NCelK=      1 NCelE2=     1 NClLst=     1 CellRange=     0.0.
 One-electron integrals computed using PRISM.
 NBasis=   239 RedAO= T EigKep=  4.43D-04  NBF=   239
 NBsUse=   239 1.00D-06 EigRej= -1.00D+00 NBFU=   239
 Precomputing XC quadrature grid using
 IXCGrd= 4 IRadAn=           5 IRanWt=          -1 IRanGd=           0 AccXCQ= 0.00D+00.
 Generated NRdTot=       0 NPtTot=           0 NUsed=           0 NTot=          32
 NSgBfM=   253   253   253   253   253 MxSgAt=    14 MxSgA2=    14.
 Leave Link  302 at Sun Feb 19 22:31:06 2023, MaxMem=  6710886400 cpu:               3.8 elap:               0.2
 (Enter /data0/home/software/g16/l303.exe)
 DipDrv:  MaxL=1.
 Leave Link  303 at Sun Feb 19 22:31:06 2023, MaxMem=  6710886400 cpu:               0.6 elap:               0.0
 (Enter /data0/home/software/g16/l401.exe)
 ExpMin= 3.48D-02 ExpMax= 7.75D+04 ExpMxC= 2.65D+03 IAcc=3 IRadAn=         5 AccDes= 0.00D+00
 Harris functional with IExCor= 1009 and IRadAn=       5 diagonalized for initial guess.
 HarFok:  IExCor= 1009 AccDes= 0.00D+00 IRadAn=         5 IDoV= 1 UseB2=F ITyADJ=14
 ICtDFT=  3500011 ScaDFX=  1.000000  1.000000  1.000000  1.000000
 FoFCou: FMM=F IPFlag=           0 FMFlag=      100000 FMFlg1=           0
         NFxFlg=           0 DoJE=T BraDBF=F KetDBF=T FulRan=T
         wScrn=  0.000000 ICntrl=       500 IOpCl=  0 I1Cent=   200000004 NGrid=           0
         NMat0=    1 NMatS0=      1 NMatT0=    0 NMatD0=    1 NMtDS0=    0 NMtDT0=    0
 Symmetry not used in FoFCou.
 Harris En= -76.4174377591255    
 JPrj=0 DoOrth=F DoCkMO=F.
 Leave Link  401 at Sun Feb 19 22:31:07 2023, MaxMem=  6710886400 cpu:               9.9 elap:               0.4
 (Enter /data0/home/software/g16/l502.exe)
 Two-electron integral symmetry not used.
 Closed shell SCF:
 Using DIIS extrapolation, IDIIS=  1040.
[...]
 KE= 7.617888521785D+01 PE=-1.989579689550D+02 EE= 3.730081095373D+01
 Leave Link  502 at Sun Feb 19 22:31:21 2023, MaxMem=  6710886400 cpu:               8.5 elap:               0.4
 (Enter /data0/home/software/g16/l601.exe)
 Copying SCF densities to generalized density rwf, IOpCl= 0 IROHF=0.

 **********************************************************************

            Population analysis using the SCF density.

 **********************************************************************

 Alpha  occ. eigenvalues --  -19.62690  -1.13150  -0.60481  -0.47488  -0.39948
 Alpha virt. eigenvalues --    0.06139   0.13241   0.17419   0.17952   0.18927
 Alpha virt. eigenvalues --    0.23348   0.50260   0.53552   0.97993   1.00419
 Alpha virt. eigenvalues --    1.06011   1.18266   1.19843   1.32225   1.34153
 Alpha virt. eigenvalues --    1.69510   1.73782   1.75493   2.06564   2.09696
 Alpha virt. eigenvalues --    2.35570   2.40618   2.54367   2.87231   3.00886
 Alpha virt. eigenvalues --    5.05630   5.47212   5.90425   6.78347   6.80219
 Alpha virt. eigenvalues --    6.87263   6.91376   7.09911  49.95333
          Condensed to atoms (all electrons):
               9         10         11
     9  O    7.920946   0.315200   0.321110
    10  H    0.315200   0.427439  -0.023901
    11  H    0.321110  -0.023901   0.426796
 Mulliken charges:
               1
     1  P    0.000000
     2  O    0.000000
     3  O    0.000000
     4  H    0.000000
     5  O    0.000000
     6  H    0.000000
     7  O    0.000000
     8  H    0.000000
     9  O   -0.557256
    10  H    0.281262
    11  H    0.275994
    12  O    0.000000
    13  H    0.000000
    14  H    0.000000
 Sum of Mulliken charges =  -0.00000
 Mulliken charges with hydrogens summed into heavy atoms:
               1
     1  P    0.000000
     2  O    0.000000
     3  O    0.000000
     5  O    0.000000
     7  O    0.000000
     9  O   -0.000000
    12  O    0.000000
         Mulliken charges condensed to fragments:
      1      0.000000
      2     -0.000000
      3      0.000000
 Electronic spatial extent (au):  <R**2>=          15356.1464
 Charge=             -0.0000 electrons
 Dipole moment (field-independent basis, Debye):
    X=             -0.0815    Y=             -1.4189    Z=              1.5801  Tot=              2.1252
 Quadrupole moment (field-independent basis, Debye-Ang):
   XX=             -6.9724   YY=            -40.5021   ZZ=             25.5121
   XY=            -19.4651   XZ=             21.3561   YZ=              3.6774
 Traceless Quadrupole moment (field-independent basis, Debye-Ang):
   XX=              0.3484   YY=            -33.1813   ZZ=             32.8329
   XY=            -19.4651   XZ=             21.3561   YZ=              3.6774
 Octapole moment (field-independent basis, Debye-Ang**2):
  XXX=           -239.4029  YYY=           -842.6217  ZZZ=            288.0972  XYY=           -543.7434
  XXY=           -324.1746  XXZ=            240.9506  XZZ=            353.0800  YZZ=            142.8060
  YYZ=           -204.6417  XYZ=             56.5990
 Hexadecapole moment (field-independent basis, Debye-Ang**3):
 XXXX=          -6112.1265 YYYY=         -15267.3805 ZZZZ=           2528.5533 XXXY=          -5995.8994
 XXXZ=           1954.2918 YYYX=         -11272.2867 YYYZ=          -6199.9268 ZZZX=           4060.6340
 ZZZY=           1723.5979 XXYY=          -7987.4717 XXZZ=           4405.0922 YYZZ=           -911.4852
 XXYZ=            286.0108 YYXZ=          -2612.1338 ZZXY=           2098.1840
 N-N= 9.057092964808D+00 E-N=-1.989579687860D+02  KE= 7.617888521785D+01
 No NMR shielding tensors so no spin-rotation constants.
 Leave Link  601 at Sun Feb 19 22:31:22 2023, MaxMem=  6710886400 cpu:               1.7 elap:               0.1
 (Enter /data0/home/software/g16/l122.exe)
 CPIOFr:  IOpCl= 0 IRwI=-1 IRwCP=  731 ICalc=  5 LCPTot=       89292 Len1MO=      233639 IndFrg=     1491126
 Counterpoise: doing calculation for fragment   3 using the basis set of the fragment.
 Leave Link  122 at Sun Feb 19 22:31:22 2023, MaxMem=  6710886400 cpu:               0.1 elap:               0.0
 (Enter /data0/home/software/g16/l301.exe)
 Basis read from rwf:  (5D, 7F)
 No pseudopotential information found on rwf file.
    39 basis functions,    58 primitive gaussians,    41 cartesian basis functions
     5 alpha electrons        5 beta electrons
       nuclear repulsion energy         9.1212468110 Hartrees.
 IExCor= 4336 DFT=T Ex+Corr=M062X ExCW=0 ScaHFX=  0.540000
 ScaDFX=  1.000000  1.000000  1.000000  1.000000 ScalE2=  1.000000  1.000000
 IRadAn=      5 IRanWt=     -1 IRanGd=            0 ICorTp=0 IEmpDi=131
 NAtoms=   14 NActive=    3 NUniq=    3 SFac= 1.00D+00 NAtFMM=   60 NAOKFM=F Big=F
 Integral buffers will be    131072 words long.
 Raffenetti 2 integral format.
 Two-electron integral symmetry is turned off.
 R6Disp:  Grimme-D3 Dispersion energy=       -0.0000000079 Hartrees.
 Nuclear repulsion after empirical dispersion term =        9.1212468031 Hartrees.
 No density basis found on file   718.
 Leave Link  301 at Sun Feb 19 22:31:22 2023, MaxMem=  6710886400 cpu:               1.2 elap:               0.1
 (Enter /data0/home/software/g16/l302.exe)
 NPDir=0 NMtPBC=     1 NCelOv=     1 NCel=       1 NClECP=     1 NCelD=      1
         NCelK=      1 NCelE2=     1 NClLst=     1 CellRange=     0.0.
 One-electron integrals computed using PRISM.
 NBasis=    39 RedAO= T EigKep=  3.06D-03  NBF=    39
 NBsUse=    39 1.00D-06 EigRej= -1.00D+00 NBFU=    39
 Precomputing XC quadrature grid using
 IXCGrd= 4 IRadAn=           5 IRanWt=          -1 IRanGd=           0 AccXCQ= 0.00D+00.
 Generated NRdTot=       0 NPtTot=           0 NUsed=           0 NTot=          32
 NSgBfM=    41    41    41    41    41 MxSgAt=     3 MxSgA2=     3.
 Leave Link  302 at Sun Feb 19 22:31:22 2023, MaxMem=  6710886400 cpu:               2.2 elap:               0.1
 (Enter /data0/home/software/g16/l303.exe)
 DipDrv:  MaxL=1.
 Leave Link  303 at Sun Feb 19 22:31:22 2023, MaxMem=  6710886400 cpu:               0.4 elap:               0.0
 (Enter /data0/home/software/g16/l401.exe)
 ExpMin= 8.45D-02 ExpMax= 8.59D+03 ExpMxC= 1.30D+03 IAcc=3 IRadAn=         5 AccDes= 0.00D+00
 Harris functional with IExCor= 1009 and IRadAn=       5 diagonalized for initial guess.
 HarFok:  IExCor= 1009 AccDes= 0.00D+00 IRadAn=         5 IDoV= 1 UseB2=F ITyADJ=14
 ICtDFT=  3500011 ScaDFX=  1.000000  1.000000  1.000000  1.000000
 FoFCou: FMM=F IPFlag=           0 FMFlag=      100000 FMFlg1=           0
         NFxFlg=           0 DoJE=T BraDBF=F KetDBF=T FulRan=T
         wScrn=  0.000000 ICntrl=       500 IOpCl=  0 I1Cent=   200000004 NGrid=           0
         NMat0=    1 NMatS0=      1 NMatT0=    0 NMatD0=    1 NMtDS0=    0 NMtDT0=    0
 Symmetry not used in FoFCou.
 Harris En= -76.4167477813238    
 JPrj=0 DoOrth=F DoCkMO=F.
 Leave Link  401 at Sun Feb 19 22:31:22 2023, MaxMem=  6710886400 cpu:               2.9 elap:               0.1
 (Enter /data0/home/software/g16/l502.exe)
 Keep R1 ints in memory in canonical form, NReq=21037771.
 FoFCou: FMM=F IPFlag=           0 FMFlag=           0 FMFlg1=           0
         NFxFlg=           0 DoJE=F BraDBF=F KetDBF=F FulRan=T
         wScrn=  0.000000 ICntrl=       600 IOpCl=  0 I1Cent=           0 NGrid=           0
         NMat0=    1 NMatS0=    780 NMatT0=    0 NMatD0=    1 NMtDS0=    0 NMtDT0=    0
 Symmetry not used in FoFCou.
 Two-electron integral symmetry not used.
 Closed shell SCF:
 Using DIIS extrapolation, IDIIS=  1040.
 NGot=  6710886400 LenX=  6710576653 LenY=  6710574531
 Requested convergence on RMS density matrix=1.00D-08 within 128 cycles.
 Requested convergence on MAX density matrix=1.00D-06.
 Requested convergence on             energy=1.00D-06.
 No special actions if energy rises.
 Integral accuracy reduced to 1.0D-05 until final iterations.

 Cycle   1  Pass 0  IDiag  1:
 E= -76.3459377751133    
 DIIS: error= 7.05D-02 at cycle   1 NSaved=   1.
 NSaved= 1 IEnMin= 1 EnMin= -76.3459377751133     IErMin= 1 ErrMin= 7.05D-02
 ErrMax= 7.05D-02  0.00D+00 EMaxC= 1.00D-01 BMatC= 1.21D-01 BMatP= 1.21D-01
 IDIUse=3 WtCom= 2.95D-01 WtEn= 7.05D-01
 Coeff-Com:  0.100D+01
 Coeff-En:   0.100D+01
 Coeff:      0.100D+01
 Gap=     0.325 Goal=   None    Shift=    0.000
 GapD=    0.325 DampG=1.000 DampE=0.500 DampFc=0.5000 IDamp=-1.
 Damping current iteration by 5.00D-01
 RMSDP=7.87D-03 MaxDP=1.01D-01              OVMax= 1.69D-01

 Cycle   2  Pass 0  IDiag  1:
 E= -76.3775995169061     Delta-E=       -0.031661741793 Rises=F Damp=T
 DIIS: error= 1.15D-02 at cycle   2 NSaved=   2.
 NSaved= 2 IEnMin= 2 EnMin= -76.3775995169061     IErMin= 2 ErrMin= 1.15D-02
 ErrMax= 1.15D-02  0.00D+00 EMaxC= 1.00D-01 BMatC= 4.81D-03 BMatP= 1.21D-01
 IDIUse=3 WtCom= 8.85D-01 WtEn= 1.15D-01
 Coeff-Com:  0.811D-01 0.919D+00
 Coeff-En:   0.186D+00 0.814D+00
 Coeff:      0.931D-01 0.907D+00
 Gap=     0.458 Goal=   None    Shift=    0.000
 RMSDP=9.34D-04 MaxDP=1.38D-02 DE=-3.17D-02 OVMax= 1.01D-01

 Cycle   3  Pass 0  IDiag  1:
 E= -76.4216671438640     Delta-E=       -0.044067626958 Rises=F Damp=F
 DIIS: error= 2.18D-03 at cycle   3 NSaved=   3.
 NSaved= 3 IEnMin= 3 EnMin= -76.4216671438640     IErMin= 3 ErrMin= 2.18D-03
 ErrMax= 2.18D-03  0.00D+00 EMaxC= 1.00D-01 BMatC= 9.17D-05 BMatP= 4.81D-03
 IDIUse=3 WtCom= 9.78D-01 WtEn= 2.18D-02
 Coeff-Com: -0.200D-01 0.399D-01 0.980D+00
 Coeff-En:   0.000D+00 0.000D+00 0.100D+01
 Coeff:     -0.196D-01 0.390D-01 0.981D+00
 Gap=     0.462 Goal=   None    Shift=    0.000
 RMSDP=1.15D-04 MaxDP=9.64D-04 DE=-4.41D-02 OVMax= 3.30D-03

 Cycle   4  Pass 0  IDiag  1:
 E= -76.4217450401011     Delta-E=       -0.000077896237 Rises=F Damp=F
 DIIS: error= 4.11D-04 at cycle   4 NSaved=   4.
 NSaved= 4 IEnMin= 4 EnMin= -76.4217450401011     IErMin= 4 ErrMin= 4.11D-04
 ErrMax= 4.11D-04  0.00D+00 EMaxC= 1.00D-01 BMatC= 3.30D-06 BMatP= 9.17D-05
 IDIUse=3 WtCom= 9.96D-01 WtEn= 4.11D-03
 Coeff-Com: -0.192D-02-0.212D-02 0.164D+00 0.840D+00
 Coeff-En:   0.000D+00 0.000D+00 0.000D+00 0.100D+01
 Coeff:     -0.191D-02-0.211D-02 0.163D+00 0.841D+00
 Gap=     0.463 Goal=   None    Shift=    0.000
 RMSDP=2.20D-05 MaxDP=3.52D-04 DE=-7.79D-05 OVMax= 5.29D-04

 Cycle   5  Pass 0  IDiag  1:
 E= -76.4217470645060     Delta-E=       -0.000002024405 Rises=F Damp=F
 DIIS: error= 8.86D-05 at cycle   5 NSaved=   5.
 NSaved= 5 IEnMin= 5 EnMin= -76.4217470645060     IErMin= 5 ErrMin= 8.86D-05
 ErrMax= 8.86D-05  0.00D+00 EMaxC= 1.00D-01 BMatC= 8.26D-08 BMatP= 3.30D-06
 IDIUse=1 WtCom= 1.00D+00 WtEn= 0.00D+00
 Coeff-Com:  0.117D-02-0.178D-02-0.362D-01-0.672D-01 0.110D+01
 Coeff:      0.117D-02-0.178D-02-0.362D-01-0.672D-01 0.110D+01
 Gap=     0.463 Goal=   None    Shift=    0.000
 RMSDP=8.94D-06 MaxDP=1.03D-04 DE=-2.02D-06 OVMax= 2.00D-04

 Initial convergence to 1.0D-05 achieved.  Increase integral accuracy.
 Cycle   6  Pass 1  IDiag  1:
 E= -76.4217412520177     Delta-E=        0.000005812488 Rises=F Damp=F
 DIIS: error= 1.85D-05 at cycle   1 NSaved=   1.
 NSaved= 1 IEnMin= 1 EnMin= -76.4217412520177     IErMin= 1 ErrMin= 1.85D-05
 ErrMax= 1.85D-05  0.00D+00 EMaxC= 1.00D-01 BMatC= 1.54D-08 BMatP= 1.54D-08
 IDIUse=1 WtCom= 1.00D+00 WtEn= 0.00D+00
 Coeff-Com:  0.100D+01
 Coeff:      0.100D+01
 Gap=     0.463 Goal=   None    Shift=    0.000
 RMSDP=8.94D-06 MaxDP=1.03D-04 DE= 5.81D-06 OVMax= 4.76D-05

 Cycle   7  Pass 1  IDiag  1:
 E= -76.4217412660717     Delta-E=       -0.000000014054 Rises=F Damp=F
 DIIS: error= 9.11D-06 at cycle   2 NSaved=   2.
 NSaved= 2 IEnMin= 2 EnMin= -76.4217412660717     IErMin= 2 ErrMin= 9.11D-06
 ErrMax= 9.11D-06  0.00D+00 EMaxC= 1.00D-01 BMatC= 1.07D-09 BMatP= 1.54D-08
 IDIUse=1 WtCom= 1.00D+00 WtEn= 0.00D+00
 Coeff-Com:  0.237D-01 0.976D+00
 Coeff:      0.237D-01 0.976D+00
 Gap=     0.463 Goal=   None    Shift=    0.000
 RMSDP=8.24D-07 MaxDP=1.30D-05 DE=-1.41D-08 OVMax= 2.09D-05

 Cycle   8  Pass 1  IDiag  1:
 E= -76.4217412663526     Delta-E=       -0.000000000281 Rises=F Damp=F
 DIIS: error= 6.47D-06 at cycle   3 NSaved=   3.
 NSaved= 3 IEnMin= 3 EnMin= -76.4217412663526     IErMin= 3 ErrMin= 6.47D-06
 ErrMax= 6.47D-06  0.00D+00 EMaxC= 1.00D-01 BMatC= 1.09D-09 BMatP= 1.07D-09
 IDIUse=1 WtCom= 1.00D+00 WtEn= 0.00D+00
 Coeff-Com: -0.527D-01 0.526D+00 0.527D+00
 Coeff:     -0.527D-01 0.526D+00 0.527D+00
 Gap=     0.463 Goal=   None    Shift=    0.000
 RMSDP=3.73D-07 MaxDP=4.77D-06 DE=-2.81D-10 OVMax= 8.97D-06

 Cycle   9  Pass 1  IDiag  1:
 E= -76.4217412670722     Delta-E=       -0.000000000720 Rises=F Damp=F
 DIIS: error= 6.14D-07 at cycle   4 NSaved=   4.
 NSaved= 4 IEnMin= 4 EnMin= -76.4217412670722     IErMin= 4 ErrMin= 6.14D-07
 ErrMax= 6.14D-07  0.00D+00 EMaxC= 1.00D-01 BMatC= 4.96D-12 BMatP= 1.07D-09
 IDIUse=1 WtCom= 1.00D+00 WtEn= 0.00D+00
 Coeff-Com:  0.475D-02-0.978D-01-0.557D-01 0.115D+01
 Coeff:      0.475D-02-0.978D-01-0.557D-01 0.115D+01
 Gap=     0.463 Goal=   None    Shift=    0.000
 RMSDP=1.03D-07 MaxDP=6.04D-07 DE=-7.20D-10 OVMax= 1.89D-06

 Cycle  10  Pass 1  IDiag  1:
 E= -76.4217412670826     Delta-E=       -0.000000000010 Rises=F Damp=F
 DIIS: error= 8.53D-08 at cycle   5 NSaved=   5.
 NSaved= 5 IEnMin= 5 EnMin= -76.4217412670826     IErMin= 5 ErrMin= 8.53D-08
 ErrMax= 8.53D-08  0.00D+00 EMaxC= 1.00D-01 BMatC= 2.73D-13 BMatP= 4.96D-12
 IDIUse=1 WtCom= 1.00D+00 WtEn= 0.00D+00
 Coeff-Com:  0.296D-02-0.396D-01-0.312D-01 0.203D+00 0.865D+00
 Coeff:      0.296D-02-0.396D-01-0.312D-01 0.203D+00 0.865D+00
 Gap=     0.463 Goal=   None    Shift=    0.000
 RMSDP=2.11D-08 MaxDP=1.31D-07 DE=-1.04D-11 OVMax= 3.65D-07

 Cycle  11  Pass 1  IDiag  1:
 E= -76.4217412670829     Delta-E=       -0.000000000000 Rises=F Damp=F
 DIIS: error= 1.30D-08 at cycle   6 NSaved=   6.
 NSaved= 6 IEnMin= 6 EnMin= -76.4217412670829     IErMin= 6 ErrMin= 1.30D-08
 ErrMax= 1.30D-08  0.00D+00 EMaxC= 1.00D-01 BMatC= 6.11D-15 BMatP= 2.73D-13
 IDIUse=1 WtCom= 1.00D+00 WtEn= 0.00D+00
 Coeff-Com:  0.113D-03 0.274D-03-0.258D-03-0.327D-01 0.516D-02 0.103D+01
 Coeff:      0.113D-03 0.274D-03-0.258D-03-0.327D-01 0.516D-02 0.103D+01
 Gap=     0.463 Goal=   None    Shift=    0.000
 RMSDP=4.99D-09 MaxDP=3.46D-08 DE=-2.84D-13 OVMax= 9.60D-08

 SCF Done:  E(RM062X) =  -76.4217412671     A.U. after   11 cycles
            NFock= 11  Conv=0.50D-08     -V/T= 2.0029
 KE= 7.620181501234D+01 PE=-1.990978007834D+02 EE= 3.735299770092D+01
 Leave Link  502 at Sun Feb 19 22:31:22 2023, MaxMem=  6710886400 cpu:               8.5 elap:               0.4
 (Enter /data0/home/software/g16/l601.exe)
 Copying SCF densities to generalized density rwf, IOpCl= 0 IROHF=0.

 **********************************************************************

            Population analysis using the SCF density.

 **********************************************************************

 Alpha  occ. eigenvalues --  -19.62533  -1.13382  -0.61003  -0.47366  -0.39980
 Alpha virt. eigenvalues --    0.06321   0.13350   0.17378   0.17949   0.18959
 Alpha virt. eigenvalues --    0.23198   0.51218   0.53646   0.97762   1.00208
 Alpha virt. eigenvalues --    1.06052   1.19122   1.19796   1.32718   1.33761
 Alpha virt. eigenvalues --    1.69270   1.74049   1.76053   2.07598   2.09626
 Alpha virt. eigenvalues --    2.34848   2.43307   2.54232   2.88834   3.01379
 Alpha virt. eigenvalues --    5.05718   5.47503   5.93972   6.78161   6.80366
 Alpha virt. eigenvalues --    6.86874   6.91531   7.09491  49.96128
          Condensed to atoms (all electrons):
              12         13         14
    12  O    7.913735   0.324507   0.320541
    13  H    0.324507   0.422666  -0.024768
    14  H    0.320541  -0.024768   0.423040
 Mulliken charges:
               1
     1  P    0.000000
     2  O    0.000000
     3  O    0.000000
     4  H    0.000000
     5  O    0.000000
     6  H    0.000000
     7  O    0.000000
     8  H    0.000000
     9  O    0.000000
    10  H    0.000000
    11  H    0.000000
    12  O   -0.558783
    13  H    0.277595
    14  H    0.281188
 Sum of Mulliken charges =  -0.00000
 Mulliken charges with hydrogens summed into heavy atoms:
               1
     1  P    0.000000
     2  O    0.000000
     3  O    0.000000
     5  O    0.000000
     7  O    0.000000
     9  O    0.000000
    12  O   -0.000000
         Mulliken charges condensed to fragments:
      1      0.000000
      2      0.000000
      3     -0.000000
 Electronic spatial extent (au):  <R**2>=          12698.7941
 Charge=             -0.0000 electrons
 Dipole moment (field-independent basis, Debye):
    X=              1.7449    Y=              0.7571    Z=              0.8928  Tot=              2.1012
 Quadrupole moment (field-independent basis, Debye-Ang):
   XX=             41.6939   YY=              9.0660   ZZ=              8.0908
   XY=             28.2680   XZ=             24.8744   YZ=             16.5697
 Traceless Quadrupole moment (field-independent basis, Debye-Ang):
   XX=             22.0770   YY=            -10.5509   ZZ=            -11.5261
   XY=             28.2680   XZ=             24.8744   YZ=             16.5697
 Octapole moment (field-independent basis, Debye-Ang**2):
  XXX=            734.5096  YYY=             35.1331  ZZZ=             28.1441  XYY=            308.5314
  XXY=            567.9956  XXZ=            466.3587  XZZ=            202.9363  YZZ=            151.4875
  YYZ=            197.0504  XYZ=            356.3675
 Hexadecapole moment (field-independent basis, Debye-Ang**3):
 XXXX=          11237.0335 YYYY=          -1022.9417 ZZZZ=           -387.8782 XXXY=           9410.0091
 XXXZ=           7482.8240 YYYX=           2388.7309 YYYZ=           1760.1140 ZZZX=           1060.6430
 ZZZY=            898.7776 XXYY=           6070.5638 XXZZ=           3668.3483 YYZZ=           1884.0952
 XXYZ=           6152.6511 YYXZ=           4029.2321 ZZXY=           3015.2920
 N-N= 9.121246803074D+00 E-N=-1.990978008973D+02  KE= 7.620181501234D+01
 No NMR shielding tensors so no spin-rotation constants.
 Leave Link  601 at Sun Feb 19 22:31:22 2023, MaxMem=  6710886400 cpu:               1.8 elap:               0.1
 (Enter /data0/home/software/g16/l122.exe)
 CPIOFr:  IOpCl= 0 IRwI=-1 IRwCP=  731 ICalc=  6 LCPTot=       89292 Len1MO=      233639 IndFrg=     1724765
 Restoring MOs from calculation   1 to rwf.
 CPIOFr:  IOpCl= 0 IRwI=-2 IRwCP=  731 ICalc=  0 LCPTot=       89292 Len1MO=      233639 IndFrg=      322931
 Counterpoise corrected energy =    -797.007491810321
                   BSSE energy =       0.002614606686
              sum of fragments =    -796.969516096137
           complexation energy =     -25.47 kcal/mole (raw)
           complexation energy =     -23.83 kcal/mole (corrected)
 Leave Link  122 at Sun Feb 19 22:31:22 2023, MaxMem=  6710886400 cpu:               0.1 elap:               0.0
 (Enter /data0/home/software/g16/l9999.exe)
 1\1\GINC-LOCALHOST\SP\RM062X\6-311+G(2d,p)\H7O6P1\WUHANYU\19-Feb-2023\
 0\\#p M062X/6-311+G(2d,p) nosymm em=GD3 counterpoise=3\\Title Card Req
 uired\\0,1\P,0,11.558873,8.709567,10.474772\O,0,11.542325,10.183315,10
 .687734\O,0,12.77813,8.221746,9.563623\H,0,12.92472,8.965293,8.851334\
 O,0,11.754249,7.835016,11.757545\H,0,10.795986,7.884341,12.311098\O,0,
 10.300349,8.225548,9.649944\H,0,9.408422,8.377296,10.245155\O,0,13.605
 542,11.906612,10.136987\H,0,12.854946,11.319687,10.405361\H,0,14.29888
 3,11.690803,10.75656\O,0,13.519432,10.490105,7.715405\H,0,14.416565,10
 .359347,7.42085\H,0,13.592795,11.04723,8.51414\\Version=ES64L-G16RevA.
 03\HF=-76.4217413\RMSD=4.988e-09\Dipole=-0.591475,-1.0163942,1.1943464
 \Quadrupole=-10.3574101,-40.396063,50.7534731,-28.0362884,9.6920088,0.
 5100688\PG=C01 [X(H7O6P1)]\\@


 YOU ARE IN A MAZE OF TWISTY LITTLE PASSAGES.
 Job cpu time:       0 days  0 hours 19 minutes  0.5 seconds.
 Elapsed time:       0 days  0 hours  0 minutes 50.0 seconds.
 File lengths (MBytes):  RWF=     53 Int=      0 D2E=      0 Chk=     17 Scr=      1
 Normal termination of Gaussian 16 at Sun Feb 19 22:31:22 2023.
