          29
 Energy =     -0.01659100 a.u.  #Cluster:    1
C           5.55585500      1.42129200      7.18361400
C           5.61164500      0.82285500      8.45122300
C           6.08809900      1.56461900      9.53399500
C           6.55948000      2.86617100      9.31460300
C           6.50092600      3.42116400      8.04703100
H           6.07847600      1.14370300     10.54511700
H           5.11483600      0.89408400      6.32382500
H           6.91872800      3.46445600     10.15362900
H           6.80577400      4.45546000      7.85219600
C           5.03561400     -0.53320000      8.62514600
H           5.39794800     -1.25812900      7.88690700
H           5.21575700     -0.94977200      9.62605400
H           3.92841700     -0.47349200      8.51417900
N           6.01464900      2.69081600      6.99585800
C           5.83739400      3.34637500      5.67826000
H           6.80168700      3.81463400      5.37811600
H           5.59889400      2.57335600      4.91113300
C           4.71310500      4.40088100      5.71233300
H           4.90365300      5.15235400      6.51051000
H           4.72542900      4.96231500      4.75741900
C           3.33490800      3.78675400      5.93997600
H           2.54038600      4.54714700      5.83490700
H           3.10513000      2.98678200      5.22025400
C           3.28242300      3.23600700      7.38091500
O           3.37313400      4.04505700      8.30830100
O           3.27103400      1.98792900      7.49554800
O           3.82760200      2.09943800     10.18709600
H           3.68834900      3.05711500     10.11214400
H           3.47067000      1.82382900      9.30971700
          29
 Energy =     -0.01547600 a.u.  #Cluster:    2
C           5.26195400      1.16466800      7.76107400
C           5.69396700      1.07240600      9.08465900
C           6.58406700      2.03336200      9.57960100
C           7.02295100      3.04938500      8.74060600
C           6.53310300      3.13671200      7.43456300
H           6.90406700      2.00028500     10.62316000
H           4.53930600      0.43458700      7.34526500
H           7.68671700      3.83539900      9.10724000
H           6.79862700      3.97838100      6.77872900
C           5.12409300      0.01243600      9.95239700
H           4.09698900      0.30320800     10.26181100
H           5.03188100     -0.95710400      9.44307600
H           5.70032800     -0.15175300     10.87218000
N           5.67016400      2.19270200      6.96281600
C           5.03693600      2.35821600      5.62963000
H           5.80176400      2.15893600      4.84766600
H           4.22663400      1.58973700      5.51645500
C           4.41352300      3.75543000      5.44035100
H           5.17366600      4.55338100      5.57516600
H           4.06609100      3.84096800      4.39086300
C           3.24963000      4.01429800      6.39205400
H           2.81625600      5.01562700      6.22896000
H           2.43181400      3.28904400      6.24654300
C           3.75985900      3.95896300      7.85509200
O           4.76751700      4.62661100      8.11516100
O           3.17826200      3.15630000      8.61448500
O           2.56341100      0.95503500      7.35021100
H           1.68461000      0.71079700      7.59635000
H           2.74181600      1.81198400      7.86384300
          29
 Energy =     -0.01473800 a.u.  #Cluster:    3
C           5.27926900      1.40236200      7.51223900
C           5.63296000      1.15763600      8.83884700
C           6.55878000      2.00488600      9.46505500
C           7.09029300      3.07414100      8.75819300
C           6.66457300      3.32650100      7.44947200
H           6.82471900      1.84428500     10.51216600
H           4.53560900      0.76951000      6.99373300
H           7.77617900      3.77833700      9.23357000
H           6.98880000      4.22211400      6.90219100
C           4.93999200      0.08060900      9.58462100
H           4.50808500     -0.69150700      8.92868200
H           5.57342700     -0.41612300     10.32778200
H           4.06614400      0.51749300     10.11917000
N           5.79113100      2.47607500      6.84138600
C           5.22954400      2.82505700      5.51453700
H           6.06357800      2.93009500      4.78578600
H           4.58333400      1.98811700      5.15750000
C           4.39770800      4.12326400      5.57576100
H           5.04840200      4.99174800      5.81994900
H           3.98820000      4.32386500      4.56598600
C           3.26608700      4.05237900      6.59393100
H           2.60638900      4.93430100      6.51625000
H           2.62444100      3.17002100      6.43640500
C           3.82521900      4.04133300      8.04360700
O           4.87198800      4.67185900      8.24140700
O           3.21399800      3.32827300      8.86175100
O           2.60551400      0.97769000      7.84435200
H           1.69318900      0.82368200      8.04033400
H           2.80245000      1.87199800      8.26534800
          29
 Energy =     -0.01431600 a.u.  #Cluster:    4
C           5.14299000      1.27645400      7.80486300
C           5.68738300      1.14706600      9.09922300
C           6.83262500      1.86187400      9.42449900
C           7.42532600      2.68603200      8.45957300
C           6.83706700      2.82434200      7.21311500
H           7.25347500      1.81001500     10.43061600
H           4.23735900      0.70463900      7.50869500
H           8.32026200      3.26158100      8.70267600
H           7.23002700      3.51732500      6.46129700
C           4.94008200      0.33721600     10.08980900
H           4.01955900      0.89838200     10.38097900
H           4.60138000     -0.62957300      9.69362000
H           5.50163100      0.14422900     11.01200600
N           5.70318900      2.11907800      6.90216500
C           4.98749200      2.42135600      5.63792300
H           5.66536400      2.21721100      4.78159900
H           4.10557700      1.73444300      5.53534400
C           4.49123800      3.88192700      5.61345500
H           5.31922700      4.58418800      5.84610900
H           4.16406600      4.12219100      4.58176400
C           3.34377200      4.13627900      6.58791800
H           3.01317200      5.18831400      6.54355400
H           2.46063300      3.51858000      6.35273200
C           3.84138300      3.84735400      8.02423100
O           4.69250400      4.59025500      8.49844800
O           3.41075700      2.78148100      8.54553700
O           2.24601900      1.07625300      6.98728100
H           1.39225700      0.86493400      7.32979400
H           2.60418900      1.79657500      7.61118600
          29
 Energy =     -0.01394400 a.u.  #Cluster:    5
C           5.27382400      1.66037900      8.02691100
C           6.01461500      1.45025500      9.21762100
C           7.34246500      1.83462800      9.25770200
C           7.92254800      2.42750900      8.12285300
C           7.15683800      2.66358300      6.99759300
H           7.93533200      1.70370600     10.16397800
H           4.22299000      1.30272600      7.94720800
H           8.97013100      2.72862700      8.14223500
H           7.55838300      3.17062700      6.11523700
C           5.27762200      0.91889100     10.38689400
H           5.90045100      0.79592000     11.28082300
H           4.46345200      1.63737000     10.65547500
H           4.78360800     -0.04208000     10.18409500
N           5.84027200      2.27087900      6.96098200
C           4.99342900      2.70152900      5.82314900
H           5.55049900      2.55545700      4.87459500
H           4.08213900      2.04541500      5.76046200
C           4.57139400      4.17606500      6.00229600
H           5.36631700      4.74153000      6.53522400
H           4.47181700      4.64485700      5.00461400
C           3.26443600      4.32629500      6.77638800
H           3.03540000      5.38882100      6.96864400
H           2.40815100      3.91882300      6.21076000
C           3.35971800      3.61587900      8.14388900
O           4.44722900      3.68186900      8.74234000
O           2.37907200      2.92660000      8.48366100
O           2.45679000      0.96607800      6.69672900
H           1.64778800      0.47513400      6.67270200
H           2.29329200      1.69262700      7.36494600
          29
 Energy =     -0.01376700 a.u.  #Cluster:    6
C           5.16703600      1.68260600      7.79591800
C           5.71346800      1.45222600      9.08723800
C           6.96523200      1.95782100      9.38475200
C           7.67104500      2.68157400      8.40686500
C           7.09578000      2.92116900      7.17590800
H           7.40338400      1.81534600     10.37367100
H           4.19260500      1.22671000      7.50998600
H           8.66291400      3.07373100      8.63172500
H           7.59360400      3.51570200      6.40489900
C           4.86814200      0.74191800     10.06936100
H           4.48750300     -0.22382500      9.69157500
H           5.35563800      0.56402900     11.03267500
H           3.94387900      1.33858600     10.26561400
N           5.85050400      2.41403300      6.88308700
C           5.18005900      2.85141000      5.63422500
H           5.87415700      2.70844500      4.77920900
H           4.28730900      2.20372600      5.44442300
C           4.73321200      4.32832600      5.74775100
H           5.40009900      4.87667500      6.44656900
H           4.84464200      4.81862900      4.76265000
C           3.29316600      4.46791100      6.24022900
H           3.08452800      5.49564700      6.58393900
H           2.56180600      4.24978000      5.44313400
C           3.06951500      3.51007600      7.42445000
O           3.94398500      3.49926800      8.31311400
O           2.10762400      2.72923500      7.34178200
O           2.41819500      0.36898700      8.49756600
H           1.56432100     -0.01731800      8.35979900
H           2.29665300      1.31757900      8.19789700
          29
 Energy =     -0.01357100 a.u.  #Cluster:    7
C           5.12273700      1.54949800      7.71946900
C           5.82427200      1.22651600      8.91224900
C           7.15619200      1.58096200      9.02217900
C           7.78760600      2.24528500      7.95554400
C           7.06778300      2.57824300      6.82644300
H           7.71665800      1.36553200      9.93317000
H           4.07286800      1.21531600      7.57767800
H           8.84009900      2.51840000      8.03235400
H           7.51085300      3.13223400      5.99421300
C           5.05937000      0.59390800     10.00624900
H           4.47977400     -0.28760900      9.67875300
H           5.66793600      0.30070600     10.86693800
H           4.27891500      1.30536000     10.37391100
N           5.74336000      2.22121800      6.71935900
C           4.95023500      2.76042500      5.58767600
H           5.49412300      2.56976500      4.63839700
H           3.97502500      2.21529200      5.52273200
C           4.68558900      4.27213000      5.78364000
H           5.50375300      4.72922100      6.37985100
H           4.70077900      4.77456900      4.79846100
C           3.35804400      4.54659500      6.48920000
H           3.31219400      5.58180400      6.86898500
H           2.49689000      4.42371500      5.81014100
C           3.21505500      3.58865100      7.68580700
O           4.20600000      3.47159200      8.43454500
O           2.17962800      2.90707100      7.74048800
O           2.26772400      0.60605700      9.08014100
H           1.34498500      0.43804300      9.21345000
H           2.28155600      1.51950300      8.67798600
          29
 Energy =     -0.01352500 a.u.  #Cluster:    8
C           5.10710300      1.60404700      8.00979800
C           5.90376700      1.37177800      9.15971800
C           7.25804100      1.64725900      9.10390000
C           7.80949100      2.15392200      7.91451000
C           6.99428600      2.41598900      6.83036700
H           7.89535800      1.49711400      9.97645200
H           4.03036800      1.33182100      8.01004300
H           8.87689300      2.36850900      7.85811200
H           7.37787300      2.85986200      5.90679100
C           5.20395100      0.93924900     10.39082200
H           4.46202700      1.72566300     10.67830300
H           4.63014600      0.01110900     10.25708800
H           5.87042100      0.80250900     11.25070700
N           5.65090300      2.13194800      6.88875300
C           4.77070800      2.59658800      5.79020000
H           5.25217700      2.37581300      4.81505500
H           3.80627500      2.01784000      5.80512600
C           4.48229000      4.10596900      5.94245800
H           5.35296900      4.61923000      6.40494000
H           4.35705300      4.55066900      4.93659300
C           3.24395700      4.38800000      6.78934800
H           3.12141300      5.47020700      6.96775400
H           2.32218800      4.04644300      6.28605600
C           3.36448400      3.69839000      8.16537100
O           4.48459000      3.70538400      8.70550700
O           2.36322900      3.07823000      8.56983200
O           2.01701300      1.21752700      6.69143900
H           1.11917400      0.91852900      6.66613500
H           2.03185300      1.91040100      7.40883000
          29
 Energy =     -0.01160500 a.u.  #Cluster:    9
C           5.53555500      1.51652700      7.32171300
C           5.60990300      0.70822700      8.47462500
C           6.16181900      1.23435700      9.63415100
C           6.62834800      2.55485300      9.63475600
C           6.50706500      3.33387400      8.49452400
H           6.20711300      0.64081700     10.54834900
H           5.11019000      1.11464600      6.37983500
H           7.03109400      2.99769500     10.54622300
H           6.78587300      4.39302500      8.48636000
C           4.99763600     -0.64063800      8.41197200
H           5.40282900     -1.25828000      7.59820300
H           5.09962700     -1.20966800      9.34426900
H           3.90489000     -0.53586800      8.21602600
N           5.97354700      2.80137900      7.34925900
C           5.72485800      3.68936300      6.18580500
H           6.67503900      4.19813200      5.91508800
H           5.41630700      3.07166200      5.30277600
C           4.61881000      4.72123600      6.49355000
H           4.70319600      5.07451700      7.54358200
H           4.78874600      5.61784500      5.86501600
C           3.20330900      4.19351600      6.25281400
H           2.47914600      4.68667100      6.92317700
H           2.86887000      4.39729500      5.22015000
C           3.14109000      2.67273100      6.50226500
O           3.34964900      2.28949200      7.68482000
O           3.01954200      1.93390700      5.52897700
O           4.27338800      3.86329600      9.57274300
H           3.88044700      3.27193300      8.85521800
H           3.54211500      4.04745600     10.14375800
          29
 Energy =     -0.01155800 a.u.  #Cluster:   10
C           5.17918900      1.61853200      7.93291800
C           5.99758600      1.41949500      9.07369000
C           7.33596000      1.76197800      9.00541700
C           7.84871100      2.30320600      7.81388100
C           7.01071100      2.53080200      6.73932300
H           7.98904100      1.63944900      9.87061300
H           4.11643500      1.29662000      7.94243600
H           8.90317500      2.57268400      7.74889200
H           7.36144500      3.00085900      5.81584700
C           5.33023500      0.95045400     10.30920600
H           4.55245300      1.69988700     10.60353500
H           4.80143100     -0.00430900     10.17864700
H           6.00903900      0.84651400     11.16393900
N           5.68446500      2.17781600      6.80923700
C           4.76760900      2.60220000      5.72424100
H           5.26225900      2.44414100      4.74288200
H           3.85291200      1.95375600      5.72737500
C           4.36684000      4.08184800      5.91243800
H           5.20746200      4.65350100      6.36285400
H           4.18185300      4.53198100      4.91816800
C           3.13283100      4.25202300      6.79396000
H           2.90034300      5.31987000      6.95046900
H           2.23671700      3.80246200      6.33016800
C           3.36200500      3.62045500      8.18448400
O           4.51148000      3.69095300      8.65473500
O           2.41222400      2.98192400      8.67290700
O           1.96611600      1.03394700      6.89672800
H           1.11137600      0.65253900      7.04124100
H           2.02810200      1.76441200      7.56977600
          29
 Energy =     -0.01117800 a.u.  #Cluster:   11
C           5.14529000      1.22678300      7.48800600
C           5.56050700      1.04464300      8.80440700
C           6.60781400      1.83653100      9.30529500
C           7.19658300      2.78524100      8.48541000
C           6.71252500      2.98290200      7.18469500
H           6.92342100      1.72625600     10.34528700
H           4.31615200      0.64014300      7.06291400
H           7.97886300      3.44897200      8.85975800
H           7.09616500      3.79016900      6.54488200
C           4.82790000      0.09797700      9.67768500
H           4.09524400      0.66405600     10.29619300
H           4.21155100     -0.62280000      9.11702200
H           5.47878300     -0.46313000     10.35730000
N           5.72040200      2.18687200      6.70070100
C           5.10509700      2.49750500      5.38883000
H           5.89922900      2.50610200      4.60937700
H           4.38894700      1.68759900      5.11634900
C           4.36607700      3.85234900      5.41937400
H           5.09448800      4.68835500      5.51300200
H           3.86147800      3.99664000      4.44364900
C           3.35206100      3.95256500      6.55216500
H           2.72210000      4.85286300      6.44069100
H           2.66140300      3.09355300      6.56706100
C           4.05674300      4.07612800      7.93211200
O           5.18758100      4.58457600      7.93750800
O           3.45407200      3.58396200      8.90148500
O           2.38928700      1.21665400      8.37039100
H           1.49539600      1.27863000      8.67667300
H           2.78484600      2.10790300      8.60178900
