          29
 G =       -0.015439 Gcorr = 0.180301 a.u. Nimag =   0 Frame:     1 Step:     1 Geom:     1
C           4.91928300      1.21201500      7.82228600
C           5.52345400      1.05703200      9.07045500
C           6.70550100      1.75496700      9.34688800
C           7.25363300      2.57692500      8.37082500
C           6.59621200      2.74358800      7.14878500
H           7.17266900      1.67658600     10.33082300
H           3.97037700      0.69328900      7.58006200
H           8.15303400      3.16405000      8.56879300
H           6.96358000      3.45303500      6.39330500
C           4.84433600      0.23019200     10.09825300
H           5.50350100     -0.06000200     10.92667100
H           4.00489400      0.80923800     10.54008100
H           4.40430800     -0.68988300      9.68862400
N           5.44835100      2.05536300      6.88975300
C           4.67134200      2.33535600      5.65539700
H           5.21659300      1.90244600      4.78853500
H           3.67909100      1.81546100      5.72707100
C           4.41838600      3.84146000      5.44460900
H           5.37435900      4.40427000      5.39928100
H           3.93851700      3.97731100      4.45430000
C           3.53760100      4.44821800      6.53249300
H           3.36546200      5.52301300      6.35285900
H           2.54395900      3.97140600      6.56906600
C           4.24741600      4.31165800      7.90407800
O           5.42455000      4.68620600      7.95749100
O           3.60643600      3.72973300      8.80392000
O           2.23060500      1.73554200      7.82782700
H           1.37076700      1.75241500      8.21889200
H           2.71178600      2.52911300      8.23858500
          29
 G =       -0.011178 Gcorr = 0.184267 a.u. Nimag =   0 Frame:     2 Step:     2 Geom:     2
C           5.14529000      1.22678300      7.48800600
C           5.56050700      1.04464300      8.80440700
C           6.60781400      1.83653100      9.30529500
C           7.19658300      2.78524100      8.48541000
C           6.71252500      2.98290200      7.18469500
H           6.92342100      1.72625600     10.34528700
H           4.31615200      0.64014300      7.06291400
H           7.97886300      3.44897200      8.85975800
H           7.09616500      3.79016900      6.54488200
C           4.82790000      0.09797700      9.67768500
H           4.09524400      0.66405600     10.29619300
H           4.21155100     -0.62280000      9.11702200
H           5.47878300     -0.46313000     10.35730000
N           5.72040200      2.18687200      6.70070100
C           5.10509700      2.49750500      5.38883000
H           5.89922900      2.50610200      4.60937700
H           4.38894700      1.68759900      5.11634900
C           4.36607700      3.85234900      5.41937400
H           5.09448800      4.68835500      5.51300200
H           3.86147800      3.99664000      4.44364900
C           3.35206100      3.95256500      6.55216500
H           2.72210000      4.85286300      6.44069100
H           2.66140300      3.09355300      6.56706100
C           4.05674300      4.07612800      7.93211200
O           5.18758100      4.58457600      7.93750800
O           3.45407200      3.58396200      8.90148500
O           2.38928700      1.21665400      8.37039100
H           1.49539600      1.27863000      8.67667300
H           2.78484600      2.10790300      8.60178900
          29
 G =       -0.013571 Gcorr = 0.182908 a.u. Nimag =   0 Frame:     3 Step:     3 Geom:     3
C           5.12273700      1.54949800      7.71946900
C           5.82427200      1.22651600      8.91224900
C           7.15619200      1.58096200      9.02217900
C           7.78760600      2.24528500      7.95554400
C           7.06778300      2.57824300      6.82644300
H           7.71665800      1.36553200      9.93317000
H           4.07286800      1.21531600      7.57767800
H           8.84009900      2.51840000      8.03235400
H           7.51085300      3.13223400      5.99421300
C           5.05937000      0.59390800     10.00624900
H           4.47977400     -0.28760900      9.67875300
H           5.66793600      0.30070600     10.86693800
H           4.27891500      1.30536000     10.37391100
N           5.74336000      2.22121800      6.71935900
C           4.95023500      2.76042500      5.58767600
H           5.49412300      2.56976500      4.63839700
H           3.97502500      2.21529200      5.52273200
C           4.68558900      4.27213000      5.78364000
H           5.50375300      4.72922100      6.37985100
H           4.70077900      4.77456900      4.79846100
C           3.35804400      4.54659500      6.48920000
H           3.31219400      5.58180400      6.86898500
H           2.49689000      4.42371500      5.81014100
C           3.21505500      3.58865100      7.68580700
O           4.20600000      3.47159200      8.43454500
O           2.17962800      2.90707100      7.74048800
O           2.26772400      0.60605700      9.08014100
H           1.34498500      0.43804300      9.21345000
H           2.28155600      1.51950300      8.67798600
          29
 G =       -0.016586 Gcorr = 0.182001 a.u. Nimag =   0 Frame:     4 Step:     4 Geom:     4
C           5.11547600      1.33995500      7.11015200
C           5.28377400      0.72731700      8.36095400
C           6.13629000      1.31492400      9.29771400
C           6.85209700      2.46593500      8.94108200
C           6.67073900      3.03704700      7.69243600
H           6.23293100      0.89409900     10.30427400
H           4.39393000      0.94855200      6.37677100
H           7.50880200      2.94656000      9.66821900
H           7.16918400      3.96897600      7.40305100
C           4.44632900     -0.45056200      8.69602900
H           3.38727100     -0.12246000      8.80753900
H           4.46589700     -1.23154800      7.92693800
H           4.72076100     -0.91217300      9.65493100
N           5.81820500      2.46238200      6.78811800
C           5.53841100      3.16060000      5.51081600
H           6.50462800      3.38441600      5.00535400
H           4.96856700      2.48018300      4.83603900
C           4.73314100      4.45640300      5.73349500
H           5.25845000      5.12717600      6.44912500
H           4.68468300      5.01186000      4.77621800
C           3.32428300      4.19257100      6.25685100
H           2.73213000      5.12476400      6.28721600
H           2.76628500      3.48296700      5.62780000
C           3.43699400      3.65038500      7.69766600
O           3.90825600      4.39955700      8.55759700
O           3.14863700      2.44113600      7.85729300
O           4.25517600      2.37454900     10.37446700
H           4.33867200      3.33827900     10.29353100
H           3.67000300      2.20615100      9.59833200
          29
 G =       -0.011558 Gcorr = 0.183824 a.u. Nimag =   0 Frame:     5 Step:     5 Geom:     5
C           5.17918900      1.61853200      7.93291800
C           5.99758600      1.41949500      9.07369000
C           7.33596000      1.76197800      9.00541700
C           7.84871100      2.30320600      7.81388100
C           7.01071100      2.53080200      6.73932300
H           7.98904100      1.63944900      9.87061300
H           4.11643500      1.29662000      7.94243600
H           8.90317500      2.57268400      7.74889200
H           7.36144500      3.00085900      5.81584700
C           5.33023500      0.95045400     10.30920600
H           4.55245300      1.69988700     10.60353500
H           4.80143100     -0.00430900     10.17864700
H           6.00903900      0.84651400     11.16393900
N           5.68446500      2.17781600      6.80923700
C           4.76760900      2.60220000      5.72424100
H           5.26225900      2.44414100      4.74288200
H           3.85291200      1.95375600      5.72737500
C           4.36684000      4.08184800      5.91243800
H           5.20746200      4.65350100      6.36285400
H           4.18185300      4.53198100      4.91816800
C           3.13283100      4.25202300      6.79396000
H           2.90034300      5.31987000      6.95046900
H           2.23671700      3.80246200      6.33016800
C           3.36200500      3.62045500      8.18448400
O           4.51148000      3.69095300      8.65473500
O           2.41222400      2.98192400      8.67290700
O           1.96611600      1.03394700      6.89672800
H           1.11137600      0.65253900      7.04124100
H           2.02810200      1.76441200      7.56977600
          29
 G =       -0.013767 Gcorr = 0.182504 a.u. Nimag =   0 Frame:     6 Step:     6 Geom:     6
C           5.16703600      1.68260600      7.79591800
C           5.71346800      1.45222600      9.08723800
C           6.96523200      1.95782100      9.38475200
C           7.67104500      2.68157400      8.40686500
C           7.09578000      2.92116900      7.17590800
H           7.40338400      1.81534600     10.37367100
H           4.19260500      1.22671000      7.50998600
H           8.66291400      3.07373100      8.63172500
H           7.59360400      3.51570200      6.40489900
C           4.86814200      0.74191800     10.06936100
H           4.48750300     -0.22382500      9.69157500
H           5.35563800      0.56402900     11.03267500
H           3.94387900      1.33858600     10.26561400
N           5.85050400      2.41403300      6.88308700
C           5.18005900      2.85141000      5.63422500
H           5.87415700      2.70844500      4.77920900
H           4.28730900      2.20372600      5.44442300
C           4.73321200      4.32832600      5.74775100
H           5.40009900      4.87667500      6.44656900
H           4.84464200      4.81862900      4.76265000
C           3.29316600      4.46791100      6.24022900
H           3.08452800      5.49564700      6.58393900
H           2.56180600      4.24978000      5.44313400
C           3.06951500      3.51007600      7.42445000
O           3.94398500      3.49926800      8.31311400
O           2.10762400      2.72923500      7.34178200
O           2.41819500      0.36898700      8.49756600
H           1.56432100     -0.01731800      8.35979900
H           2.29665300      1.31757900      8.19789700
          29
 G =       -0.014721 Gcorr = 0.180938 a.u. Nimag =   0 Frame:     7 Step:     7 Geom:     7
C           5.14608200      1.29768900      7.62809500
C           5.52692300      1.16772400      8.96332200
C           6.53858900      1.99799000      9.46771100
C           7.12692900      2.93827600      8.63399800
C           6.67562900      3.08359700      7.31756000
H           6.82859300      1.92866100     10.51845700
H           4.33666000      0.67648600      7.20228400
H           7.88286000      3.63040200      9.01063000
H           7.04973500      3.88581800      6.66693800
C           4.77887800      0.23685900      9.84101300
H           5.39829400     -0.22958300     10.61499600
H           3.96314300      0.79862100     10.35000000
H           4.26272200     -0.56172000      9.28522400
N           5.71657800      2.24784800      6.83011100
C           5.13714800      2.49791800      5.48869100
H           5.95017200      2.45486400      4.73046200
H           4.41419900      1.68388900      5.24324800
C           4.41358700      3.85955700      5.42950900
H           5.13946500      4.69237400      5.55918400
H           3.98529800      3.98387800      4.41524500
C           3.31714700      3.99210700      6.47948500
H           2.72676800      4.91189200      6.32296500
H           2.60264400      3.15376700      6.43753300
C           3.92495800      4.09104800      7.90605500
O           5.02565900      4.64889400      8.00483000
O           3.28745200      3.52516100      8.81416700
O           2.46197000      1.13540500      8.07956700
H           1.54702400      1.08105200      8.31291600
H           2.74489500      2.04952500      8.39581300
          29
 G =       -0.015476 Gcorr = 0.180265 a.u. Nimag =   0 Frame:     8 Step:     8 Geom:     8
C           5.26195400      1.16466800      7.76107400
C           5.69396700      1.07240600      9.08465900
C           6.58406700      2.03336200      9.57960100
C           7.02295100      3.04938500      8.74060600
C           6.53310300      3.13671200      7.43456300
H           6.90406700      2.00028500     10.62316000
H           4.53930600      0.43458700      7.34526500
H           7.68671700      3.83539900      9.10724000
H           6.79862700      3.97838100      6.77872900
C           5.12409300      0.01243600      9.95239700
H           4.09698900      0.30320800     10.26181100
H           5.03188100     -0.95710400      9.44307600
H           5.70032800     -0.15175300     10.87218000
N           5.67016400      2.19270200      6.96281600
C           5.03693600      2.35821600      5.62963000
H           5.80176400      2.15893600      4.84766600
H           4.22663400      1.58973700      5.51645500
C           4.41352300      3.75543000      5.44035100
H           5.17366600      4.55338100      5.57516600
H           4.06609100      3.84096800      4.39086300
C           3.24963000      4.01429800      6.39205400
H           2.81625600      5.01562700      6.22896000
H           2.43181400      3.28904400      6.24654300
C           3.75985900      3.95896300      7.85509200
O           4.76751700      4.62661100      8.11516100
O           3.17826200      3.15630000      8.61448500
O           2.56341100      0.95503500      7.35021100
H           1.68461000      0.71079700      7.59635000
H           2.74181600      1.81198400      7.86384300
          29
 G =       -0.014316 Gcorr = 0.181543 a.u. Nimag =   0 Frame:     9 Step:     9 Geom:     9
C           5.14299000      1.27645400      7.80486300
C           5.68738300      1.14706600      9.09922300
C           6.83262500      1.86187400      9.42449900
C           7.42532600      2.68603200      8.45957300
C           6.83706700      2.82434200      7.21311500
H           7.25347500      1.81001500     10.43061600
H           4.23735900      0.70463900      7.50869500
H           8.32026200      3.26158100      8.70267600
H           7.23002700      3.51732500      6.46129700
C           4.94008200      0.33721600     10.08980900
H           4.01955900      0.89838200     10.38097900
H           4.60138000     -0.62957300      9.69362000
H           5.50163100      0.14422900     11.01200600
N           5.70318900      2.11907800      6.90216500
C           4.98749200      2.42135600      5.63792300
H           5.66536400      2.21721100      4.78159900
H           4.10557700      1.73444300      5.53534400
C           4.49123800      3.88192700      5.61345500
H           5.31922700      4.58418800      5.84610900
H           4.16406600      4.12219100      4.58176400
C           3.34377200      4.13627900      6.58791800
H           3.01317200      5.18831400      6.54355400
H           2.46063300      3.51858000      6.35273200
C           3.84138300      3.84735400      8.02423100
O           4.69250400      4.59025500      8.49844800
O           3.41075700      2.78148100      8.54553700
O           2.24601900      1.07625300      6.98728100
H           1.39225700      0.86493400      7.32979400
H           2.60418900      1.79657500      7.61118600
          29
 G =       -0.013525 Gcorr = 0.181852 a.u. Nimag =   0 Frame:    10 Step:    10 Geom:    10
C           5.10710300      1.60404700      8.00979800
C           5.90376700      1.37177800      9.15971800
C           7.25804100      1.64725900      9.10390000
C           7.80949100      2.15392200      7.91451000
C           6.99428600      2.41598900      6.83036700
H           7.89535800      1.49711400      9.97645200
H           4.03036800      1.33182100      8.01004300
H           8.87689300      2.36850900      7.85811200
H           7.37787300      2.85986200      5.90679100
C           5.20395100      0.93924900     10.39082200
H           4.46202700      1.72566300     10.67830300
H           4.63014600      0.01110900     10.25708800
H           5.87042100      0.80250900     11.25070700
N           5.65090300      2.13194800      6.88875300
C           4.77070800      2.59658800      5.79020000
H           5.25217700      2.37581300      4.81505500
H           3.80627500      2.01784000      5.80512600
C           4.48229000      4.10596900      5.94245800
H           5.35296900      4.61923000      6.40494000
H           4.35705300      4.55066900      4.93659300
C           3.24395700      4.38800000      6.78934800
H           3.12141300      5.47020700      6.96775400
H           2.32218800      4.04644300      6.28605600
C           3.36448400      3.69839000      8.16537100
O           4.48459000      3.70538400      8.70550700
O           2.36322900      3.07823000      8.56983200
O           2.01701300      1.21752700      6.69143900
H           1.11917400      0.91852900      6.66613500
H           2.03185300      1.91040100      7.40883000
          29
 G =       -0.016576 Gcorr = 0.182012 a.u. Nimag =   0 Frame:    11 Step:    11 Geom:    11
C           5.50902000      1.35875200      7.34261900
C           5.48346800      0.89820500      8.66764700
C           5.95399900      1.72890700      9.68639100
C           6.49959500      2.97607500      9.35243300
C           6.51976100      3.39376200      8.03218200
H           5.88277800      1.42011000     10.73481300
H           5.07691200      0.76290600      6.52412500
H           6.85544300      3.64355700     10.13907500
H           6.88447700      4.38579600      7.74321400
C           4.83169200     -0.40264900      8.95738400
H           3.73546600     -0.30597700      8.78270300
H           5.19178200     -1.22084000      8.32279100
H           4.94265200     -0.71266500     10.00597600
N           6.03906000      2.57799500      7.04295400
C           5.94786000      3.09593500      5.65710900
H           6.94564700      3.48482400      5.35321400
H           5.70173400      2.25679400      4.96548300
C           4.87739900      4.19814100      5.52917200
H           5.07288500      5.02121000      6.25188900
H           4.95647500      4.65304200      4.52215200
C           3.46198800      3.67538600      5.75687100
H           2.71155100      4.45533700      5.53538300
H           3.22209900      2.81366500      5.11613100
C           3.32315800      3.28646200      7.24408400
O           3.41365000      4.18598600      8.08384500
O           3.24725700      2.05956200      7.48964300
O           3.69854200      2.43348700     10.17661700
H           3.60863500      3.38307000      9.99748500
H           3.36502200      2.08316400      9.31662300
          29
 G =       -0.014721 Gcorr = 0.180938 a.u. Nimag =   0 Frame:    12 Step:    12 Geom:    12
C           5.25916600      1.30754900      7.55314200
C           5.63455700      1.11672700      8.88262500
C           6.58790400      1.97376300      9.45164000
C           7.12456700      2.99950900      8.68661300
C           6.67750300      3.20022600      7.37604200
H           6.87166400      1.85581100     10.49974600
H           4.49412200      0.66597800      7.07829300
H           7.83252700      3.71129200      9.11605200
H           7.00681700      4.06380200      6.78233800
C           4.93719000      0.08812800      9.69011000
H           4.08414500      0.56597000     10.22324500
H           4.47549500     -0.70291000      9.07842500
H           5.57705900     -0.38847300     10.44086300
N           5.77708100      2.33969400      6.82418300
C           5.19579500      2.63864500      5.49357600
H           6.01711200      2.69510500      4.74526800
H           4.52804100      1.79853200      5.18725400
C           4.38849800      3.95352300      5.51132900
H           5.05915400      4.81986200      5.70357200
H           3.96296400      4.11601400      4.50129000
C           3.27595300      3.94976000      6.55267100
H           2.63034200      4.83919400      6.44711900
H           2.61606500      3.07306400      6.44778300
C           3.86262700      3.99434700      7.99081100
O           4.92527300      4.61156300      8.13984400
O           3.25275400      3.33315600      8.85238300
O           2.58519400      0.94929800      7.95667800
H           1.67306000      0.82390000      8.17287000
H           2.80737500      1.85697200      8.33424500
          29
 G =       -0.015442 Gcorr = 0.180299 a.u. Nimag =   0 Frame:    13 Step:    13 Geom:    13
C           5.11181800      1.24265600      7.62610000
C           5.69636000      1.00199300      8.86998400
C           6.74804400      1.82110200      9.29878900
C           7.19063600      2.84674200      8.47366400
C           6.55087600      3.08725800      7.25450700
H           7.19311100      1.67283200     10.28491400
H           4.26199400      0.62854400      7.26732400
H           7.98257900      3.52660900      8.79530100
H           6.82621800      3.94419500      6.62291300
C           5.12364300     -0.05552300      9.73885000
H           4.18958200      0.32082300     10.20907000
H           4.84776300     -0.96431800      9.18572200
H           5.79345500     -0.35666600     10.55470800
N           5.53089500      2.28036300      6.84607500
C           4.75553900      2.61577800      5.62456700
H           5.38539000      2.39714500      4.73482200
H           3.85349600      1.94959600      5.57475200
C           4.27993300      4.08216700      5.60998400
H           5.13878500      4.78121500      5.69005300
H           3.81331700      4.28568200      4.62495500
C           3.28559200      4.38943600      6.72546700
H           2.95443300      5.44102300      6.68598200
H           2.37700800      3.76944500      6.64722700
C           3.96884200      4.16627500      8.09922700
O           5.07278300      4.69918600      8.26106500
O           3.39913200      3.37483400      8.87907200
O           2.37699300      1.35605800      7.57358800
H           1.51385000      1.18950800      7.91971200
H           2.71793400      2.14604300      8.11161800
          29
 G =       -0.013548 Gcorr = 0.182930 a.u. Nimag =   0 Frame:    14 Step:    14 Geom:    14
C           5.19827200      1.63345000      7.72770400
C           5.76395200      1.30999600      8.99030600
C           7.02410100      1.78693800      9.30109300
C           7.71841900      2.57359200      8.36487700
C           7.12488000      2.90152400      7.16308300
H           7.47719200      1.57307100     10.27032500
H           4.21818200      1.20657100      7.42564400
H           8.71619700      2.94427400      8.60002200
H           7.61410800      3.54604800      6.42748100
C           4.93114100      0.54013100      9.93674900
H           5.44668700      0.25735400     10.85945300
H           4.03738900      1.14744600     10.22461700
H           4.49748600     -0.37302500      9.49144100
N           5.87223600      2.42260300      6.85610200
C           5.18514900      2.94794500      5.65095500
H           5.86827700      2.86912200      4.77893600
H           4.29058700      2.31423600      5.42582200
C           4.73815800      4.41173200      5.87738500
H           5.41633700      4.91072200      6.60186800
H           4.83157200      4.97135900      4.92797300
C           3.30674600      4.51118600      6.40335300
H           3.10150600      5.51186900      6.82108600
H           2.56185000      4.34569800      5.60614000
C           3.10727200      3.47278500      7.52229700
O           3.99472500      3.40984400      8.39659600
O           2.15325900      2.68890400      7.39875900
O           2.30399200      0.33288000      8.63135900
H           1.39534600      0.06505000      8.61934100
H           2.27498700      1.26669800      8.27924100
          29
 G =       -0.013554 Gcorr = 0.182924 a.u. Nimag =   0 Frame:    15 Step:    15 Geom:    15
C           5.28088100      1.67541700      7.76337800
C           5.83085800      1.38973800      9.04192000
C           7.05863200      1.92969200      9.37818700
C           7.73657200      2.74164600      8.45164200
C           7.15709600      3.03091100      7.23316000
H           7.49795700      1.74572400     10.35983200
H           4.33014500      1.19913300      7.44192000
H           8.70935000      3.16205400      8.70700500
H           7.63226000      3.69254300      6.50355300
C           5.01361900      0.58787400      9.97529100
H           5.51985200      0.33770700     10.91245400
H           4.08494500      1.15346600     10.23634000
H           4.63545000     -0.34876700      9.52812300
N           5.93679000      2.48943600      6.90090800
C           5.25434500      2.97139300      5.67512100
H           5.96133500      2.91903400      4.82028700
H           4.39711600      2.29330300      5.43453900
C           4.73174200      4.41341800      5.87791400
H           5.36706900      4.95032700      6.61406200
H           4.82103700      4.96966800      4.92612800
C           3.28478200      4.44701200      6.36846300
H           3.02084600      5.43980600      6.77170200
H           2.56850200      4.23869200      5.55520700
C           3.10879800      3.40939200      7.49214300
O           3.97729600      3.39631500      8.38738200
O           2.19632300      2.57989100      7.35381700
O           2.43222300      0.24275900      8.60991700
H           1.53802100     -0.06878200      8.58045700
H           2.36615900      1.17119800      8.24915800
          29
 G =       -0.016591 Gcorr = 0.181997 a.u. Nimag =   0 Frame:    16 Step:    16 Geom:    16
C           5.55585500      1.42129200      7.18361400
C           5.61164500      0.82285500      8.45122300
C           6.08809900      1.56461900      9.53399500
C           6.55948000      2.86617100      9.31460300
C           6.50092600      3.42116400      8.04703100
H           6.07847600      1.14370300     10.54511700
H           5.11483600      0.89408400      6.32382500
H           6.91872800      3.46445600     10.15362900
H           6.80577400      4.45546000      7.85219600
C           5.03561400     -0.53320000      8.62514600
H           5.39794800     -1.25812900      7.88690700
H           5.21575700     -0.94977200      9.62605400
H           3.92841700     -0.47349200      8.51417900
N           6.01464900      2.69081600      6.99585800
C           5.83739400      3.34637500      5.67826000
H           6.80168700      3.81463400      5.37811600
H           5.59889400      2.57335600      4.91113300
C           4.71310500      4.40088100      5.71233300
H           4.90365300      5.15235400      6.51051000
H           4.72542900      4.96231500      4.75741900
C           3.33490800      3.78675400      5.93997600
H           2.54038600      4.54714700      5.83490700
H           3.10513000      2.98678200      5.22025400
C           3.28242300      3.23600700      7.38091500
O           3.37313400      4.04505700      8.30830100
O           3.27103400      1.98792900      7.49554800
O           3.82760200      2.09943800     10.18709600
H           3.68834900      3.05711500     10.11214400
H           3.47067000      1.82382900      9.30971700
          29
 G =       -0.013549 Gcorr = 0.182930 a.u. Nimag =   0 Frame:    17 Step:    17 Geom:    17
C           5.29126000      1.63340100      7.78209500
C           5.69470000      1.35152800      9.11496800
C           6.86356700      1.91424000      9.59369300
C           7.62781300      2.74483800      8.75498300
C           7.18822500      3.02909100      7.47822300
H           7.18934800      1.73372000     10.61923800
H           4.39439200      1.13997300      7.35064500
H           8.55531900      3.18342100      9.12324000
H           7.73144100      3.70402100      6.81094000
C           4.79123700      0.52797400      9.94423900
H           4.48729000     -0.41355100      9.45299800
H           5.19004700      0.28279900     10.93319600
H           3.82695000      1.07311300     10.09734900
N           6.02623700      2.46512700      7.00443700
C           5.48115500      2.94037800      5.70925100
H           6.28368800      2.90733100      4.94233700
H           4.67210300      2.24644900      5.36813900
C           4.90876500      4.37035000      5.85478000
H           5.44309500      4.91571100      6.66153400
H           5.09645700      4.93379000      4.92173000
C           3.41425600      4.37210400      6.17409400
H           3.08501400      5.35710400      6.54737900
H           2.80166800      4.15427900      5.28242800
C           3.13025600      3.32475300      7.26610900
O           3.88918900      3.32379800      8.25610300
O           2.25720300      2.47800000      7.02017700
O           2.39337300      0.13849800      8.28736300
H           1.51467800     -0.18970700      8.15392800
H           2.35127500      1.06746600      7.92441000
          29
 G =       -0.011605 Gcorr = 0.186408 a.u. Nimag =   0 Frame:    18 Step:    18 Geom:    18
C           5.53555500      1.51652700      7.32171300
C           5.60990300      0.70822700      8.47462500
C           6.16181900      1.23435700      9.63415100
C           6.62834800      2.55485300      9.63475600
C           6.50706500      3.33387400      8.49452400
H           6.20711300      0.64081700     10.54834900
H           5.11019000      1.11464600      6.37983500
H           7.03109400      2.99769500     10.54622300
H           6.78587300      4.39302500      8.48636000
C           4.99763600     -0.64063800      8.41197200
H           5.40282900     -1.25828000      7.59820300
H           5.09962700     -1.20966800      9.34426900
H           3.90489000     -0.53586800      8.21602600
N           5.97354700      2.80137900      7.34925900
C           5.72485800      3.68936300      6.18580500
H           6.67503900      4.19813200      5.91508800
H           5.41630700      3.07166200      5.30277600
C           4.61881000      4.72123600      6.49355000