 Entering Gaussian System, Link 0=g16
 Initial command:
 /data0/home/software/g16/l1.exe "/data0/home/software/g16/scratch/Gau-390772.inp" -scrdir="/data0/home/software/g16/scratch/"
 Default is to use a total of  22 processors:
                               22 via shared-memory
                                1 via Linda
 Entering Link 1 = /data0/home/software/g16/l1.exe PID=    390773.
  
 Copyright (c) 1988,1990,1992,1993,1995,1998,2003,2009,2016,
            Gaussian, Inc.  All Rights Reserved.
  
 This is part of the Gaussian(R) 16 program.  It is based on
 the Gaussian(R) 09 system (copyright 2009, Gaussian, Inc.),
 the Gaussian(R) 03 system (copyright 2003, Gaussian, Inc.),
 the Gaussian(R) 98 system (copyright 1998, Gaussian, Inc.),
 the Gaussian(R) 94 system (copyright 1995, Gaussian, Inc.),
 the Gaussian 92(TM) system (copyright 1992, Gaussian, Inc.),
 the Gaussian 90(TM) system (copyright 1990, Gaussian, Inc.),
 the Gaussian 88(TM) system (copyright 1988, Gaussian, Inc.),
 the Gaussian 86(TM) system (copyright 1986, Carnegie Mellon
 University), and the Gaussian 82(TM) system (copyright 1983,
 Carnegie Mellon University). Gaussian is a federally registered
 trademark of Gaussian, Inc.
  
 This software contains proprietary and confidential information,
 including trade secrets, belonging to Gaussian, Inc.
  
 This software is provided under written license and may be
 used, copied, transmitted, or stored only in accord with that
 written license.
  
 The following legend is applicable only to US Government
 contracts under FAR:
  
                    RESTRICTED RIGHTS LEGEND
  
 Use, reproduction and disclosure by the US Government is
 subject to restrictions as set forth in subparagraphs (a)
 and (c) of the Commercial Computer Software - Restricted
 Rights clause in FAR 52.227-19.
  
 Gaussian, Inc.
 340 Quinnipiac St., Bldg. 40, Wallingford CT 06492
  
  
 ---------------------------------------------------------------
 Warning -- This program may not be used in any manner that
 competes with the business of Gaussian, Inc. or will provide
 assistance to any competitor of Gaussian, Inc.  The licensee
 of this program is prohibited from giving any competitor of
 Gaussian, Inc. access to this program.  By using this program,
 the user acknowledges that Gaussian, Inc. is engaged in the
 business of creating and licensing software in the field of
 computational chemistry and represents and warrants to the
 licensee that it is not a competitor of Gaussian, Inc. and that
 it will not use this program in any manner prohibited above.
 ---------------------------------------------------------------
  

 Cite this work as:
 Gaussian 16, Revision A.03,
 M. J. Frisch, G. W. Trucks, H. B. Schlegel, G. E. Scuseria, 
 M. A. Robb, J. R. Cheeseman, G. Scalmani, V. Barone, 
 G. A. Petersson, H. Nakatsuji, X. Li, M. Caricato, A. V. Marenich, 
 J. Bloino, B. G. Janesko, R. Gomperts, B. Mennucci, H. P. Hratchian, 
 J. V. Ortiz, A. F. Izmaylov, J. L. Sonnenberg, D. Williams-Young, 
 F. Ding, F. Lipparini, F. Egidi, J. Goings, B. Peng, A. Petrone, 
 T. Henderson, D. Ranasinghe, V. G. Zakrzewski, J. Gao, N. Rega, 
 G. Zheng, W. Liang, M. Hada, M. Ehara, K. Toyota, R. Fukuda, 
 J. Hasegawa, M. Ishida, T. Nakajima, Y. Honda, O. Kitao, H. Nakai, 
 T. Vreven, K. Throssell, J. A. Montgomery, Jr., J. E. Peralta, 
 F. Ogliaro, M. J. Bearpark, J. J. Heyd, E. N. Brothers, K. N. Kudin, 
 V. N. Staroverov, T. A. Keith, R. Kobayashi, J. Normand, 
 K. Raghavachari, A. P. Rendell, J. C. Burant, S. S. Iyengar, 
 J. Tomasi, M. Cossi, J. M. Millam, M. Klene, C. Adamo, R. Cammi, 
 J. W. Ochterski, R. L. Martin, K. Morokuma, O. Farkas, 
 J. B. Foresman, and D. J. Fox, Gaussian, Inc., Wallingford CT, 2016.
 
 ******************************************
 Gaussian 16:  ES64L-G16RevA.03 25-Dec-2016
                20-Feb-2023 
 ******************************************
 %nproc=24
 Will use up to   24 processors via shared memory.
 %mem=50GB
 ---------------------------------------------------
 #p M062X/6-311+G(2d,p) nosymm em=GD3 counterpoise=2
 ---------------------------------------------------
 1/38=1,62=2,172=1/1;
 2/12=2,15=1,17=6,18=5,40=1/2;
 1/38=1,53=2,62=2,63=1/22;
 3/5=4,6=6,7=112,11=2,25=1,30=1,74=-55,124=31/1,2,3;
 4//1;
 5/5=2,38=5/2;
 6/7=2,8=2,9=2,10=2,28=1/1;
 1/53=2,62=2,63=1/22;
 3/5=7,6=11,7=112,11=2,25=1,30=1,74=-55,82=7,124=31/1,2,3;
 4//1;
 5/5=2,38=5/2;
 6/7=2,8=2,9=2,10=2,28=1/1;
 1/53=2,62=2,63=1/22(-4);
 99/5=1,9=1/99;
 Leave Link    1 at Mon Feb 20 09:17:08 2023, MaxMem=  6710886400 cpu:               0.7 elap:               0.0
 (Enter /data0/home/software/g16/l101.exe)
 -------------------
 Title Card Required
 -------------------
 Symbolic Z-matrix:
 Charge =  0 Multiplicity = 1 in supermolecule
 Charge =  0 Multiplicity = 1 in fragment      1.
 Charge =  0 Multiplicity = 1 in fragment      2.
 O                     16.85168   13.4263   10.79038    
 H                     16.80323   13.64601   9.82243    
 H                     17.20893   14.20179   11.2026    
 O                     15.30982   11.37528   5.11148    
 H                     15.16866   12.27278   5.46157    
 H                     16.17138   11.45138   4.68665    
 
 ITRead=  0  0  0  0  0  0
 MicOpt= -1 -1 -1 -1 -1 -1
 NAtoms=      6 NQM=        6 NQMF=       0 NMMI=      0 NMMIF=      0
                NMic=       0 NMicF=      0.
                    Isotopes and Nuclear Properties:
 (Nuclear quadrupole moments (NQMom) in fm**2, nuclear magnetic moments (NMagM)
  in nuclear magnetons)

  Atom         1           2           3           4           5           6
 IAtWgt=          16           1           1          16           1           1
 AtmWgt=  15.9949146   1.0078250   1.0078250  15.9949146   1.0078250   1.0078250
 NucSpn=           0           1           1           0           1           1
 AtZEff=  -0.0000000  -0.0000000  -0.0000000  -0.0000000  -0.0000000  -0.0000000
 NQMom=    0.0000000   0.0000000   0.0000000   0.0000000   0.0000000   0.0000000
 NMagM=    0.0000000   2.7928460   2.7928460   0.0000000   2.7928460   2.7928460
 AtZNuc=   8.0000000   1.0000000   1.0000000   8.0000000   1.0000000   1.0000000
 Leave Link  101 at Mon Feb 20 09:17:08 2023, MaxMem=  6710886400 cpu:               1.9 elap:               0.1
 (Enter /data0/home/software/g16/l202.exe)
                          Input orientation:                          
 ---------------------------------------------------------------------
 Center     Atomic      Atomic             Coordinates (Angstroms)
 Number     Number       Type             X           Y           Z
 ---------------------------------------------------------------------
      1          8           0       16.851678   13.426299   10.790383
      2          1           0       16.803231   13.646007    9.822427
      3          1           0       17.208931   14.201785   11.202601
      4          8           0       15.309820   11.375279    5.111479
      5          1           0       15.168660   12.272782    5.461565
      6          1           0       16.171375   11.451377    4.686646
 ---------------------------------------------------------------------
                    Distance matrix (angstroms):
                    1          2          3          4          5
     1  O    0.000000
     2  H    0.993759   0.000000
     3  H    0.948120   1.542194   0.000000
     4  O    6.231690   5.438705   6.978361   0.000000
     5  H    5.706089   4.855377   6.390873   0.973652   0.000000
     6  H    6.451258   5.620666   7.148352   0.963614   1.510180
                    6
     6  H    0.000000
 Symmetry turned off by external request.
 Stoichiometry    H4O2
 Framework group  C1[X(H4O2)]
 Deg. of freedom    12
 Full point group                 C1      NOp   1
 Rotational constants (GHZ):         243.4951589           1.4487981           1.4476285
 Leave Link  202 at Mon Feb 20 09:17:08 2023, MaxMem=  6710886400 cpu:               0.1 elap:               0.0
 (Enter /data0/home/software/g16/l122.exe)
 Counterpoise: doing full-system calculation.
 Leave Link  122 at Mon Feb 20 09:17:08 2023, MaxMem=  6710886400 cpu:               0.1 elap:               0.0
 (Enter /data0/home/software/g16/l301.exe)
 Standard basis: 6-311+G(2d,p) (5D, 7F)
 Ernie: Thresh=  0.10000D-02 Tol=  0.10000D-05 Strict=F.
    78 basis functions,   116 primitive gaussians,    82 cartesian basis functions
    10 alpha electrons       10 beta electrons
       nuclear repulsion energy        26.7376859824 Hartrees.
 IExCor= 4336 DFT=T Ex+Corr=M062X ExCW=0 ScaHFX=  0.540000
 ScaDFX=  1.000000  1.000000  1.000000  1.000000 ScalE2=  1.000000  1.000000
 IRadAn=      5 IRanWt=     -1 IRanGd=            0 ICorTp=0 IEmpDi=131
 NAtoms=    6 NActive=    6 NUniq=    6 SFac= 1.00D+00 NAtFMM=   60 NAOKFM=F Big=F
 Integral buffers will be    131072 words long.
 Raffenetti 2 integral format.
 Two-electron integral symmetry is turned off.
 R6Disp:  Grimme-D3 Dispersion energy=       -0.0000230336 Hartrees.
 Nuclear repulsion after empirical dispersion term =       26.7376629488 Hartrees.
 Leave Link  301 at Mon Feb 20 09:17:08 2023, MaxMem=  6710886400 cpu:               1.1 elap:               0.1
 (Enter /data0/home/software/g16/l302.exe)
 NPDir=0 NMtPBC=     1 NCelOv=     1 NCel=       1 NClECP=     1 NCelD=      1
         NCelK=      1 NCelE2=     1 NClLst=     1 CellRange=     0.0.
 One-electron integrals computed using PRISM.
 NBasis=    78 RedAO= T EigKep=  2.94D-03  NBF=    78
 NBsUse=    78 1.00D-06 EigRej= -1.00D+00 NBFU=    78
 Precomputing XC quadrature grid using
 IXCGrd= 4 IRadAn=           5 IRanWt=          -1 IRanGd=           0 AccXCQ= 0.00D+00.
 Generated NRdTot=       0 NPtTot=           0 NUsed=           0 NTot=          32
 NSgBfM=    72    72    72    72    72 MxSgAt=     6 MxSgA2=     6.
 Leave Link  302 at Mon Feb 20 09:17:08 2023, MaxMem=  6710886400 cpu:               2.5 elap:               0.1
 (Enter /data0/home/software/g16/l303.exe)
 DipDrv:  MaxL=1.
 Leave Link  303 at Mon Feb 20 09:17:09 2023, MaxMem=  6710886400 cpu:               0.4 elap:               0.0
 (Enter /data0/home/software/g16/l401.exe)
 ExpMin= 8.45D-02 ExpMax= 8.59D+03 ExpMxC= 1.30D+03 IAcc=3 IRadAn=         5 AccDes= 0.00D+00
 Harris functional with IExCor= 1009 and IRadAn=       5 diagonalized for initial guess.
 HarFok:  IExCor= 1009 AccDes= 0.00D+00 IRadAn=         5 IDoV= 1 UseB2=F ITyADJ=14
 ICtDFT=  3500011 ScaDFX=  1.000000  1.000000  1.000000  1.000000
 FoFCou: FMM=F IPFlag=           0 FMFlag=      100000 FMFlg1=           0
         NFxFlg=           0 DoJE=T BraDBF=F KetDBF=T FulRan=T
         wScrn=  0.000000 ICntrl=       500 IOpCl=  0 I1Cent=   200000004 NGrid=           0
         NMat0=    1 NMatS0=      1 NMatT0=    0 NMatD0=    1 NMtDS0=    0 NMtDT0=    0
 Symmetry not used in FoFCou.
 Harris En= -152.831880617623    
 JPrj=0 DoOrth=F DoCkMO=F.
 Leave Link  401 at Mon Feb 20 09:17:09 2023, MaxMem=  6710886400 cpu:               3.4 elap:               0.2
 (Enter /data0/home/software/g16/l502.exe)
 Keep R1 ints in memory in canonical form, NReq=26476721.
 FoFCou: FMM=F IPFlag=           0 FMFlag=           0 FMFlg1=           0
         NFxFlg=           0 DoJE=F BraDBF=F KetDBF=F FulRan=T
         wScrn=  0.000000 ICntrl=       600 IOpCl=  0 I1Cent=           0 NGrid=           0
         NMat0=    1 NMatS0=   3081 NMatT0=    0 NMatD0=    1 NMtDS0=    0 NMtDT0=    0
 Symmetry not used in FoFCou.
 Two-electron integral symmetry not used.
 Closed shell SCF:
 Using DIIS extrapolation, IDIIS=  1040.
 NGot=  6710886400 LenX=  6706122419 LenY=  6706115254
 Requested convergence on RMS density matrix=1.00D-08 within 128 cycles.
 Requested convergence on MAX density matrix=1.00D-06.
 Requested convergence on             energy=1.00D-06.
 No special actions if energy rises.
 Integral accuracy reduced to 1.0D-05 until final iterations.

 Cycle   1  Pass 0  IDiag  1:
 E= -152.691060587691    
 DIIS: error= 6.48D-02 at cycle   1 NSaved=   1.
 NSaved= 1 IEnMin= 1 EnMin= -152.691060587691     IErMin= 1 ErrMin= 6.48D-02
 ErrMax= 6.48D-02  0.00D+00 EMaxC= 1.00D-01 BMatC= 2.41D-01 BMatP= 2.41D-01
 IDIUse=3 WtCom= 3.52D-01 WtEn= 6.48D-01
 Coeff-Com:  0.100D+01
 Coeff-En:   0.100D+01
 Coeff:      0.100D+01
 Gap=     0.315 Goal=   None    Shift=    0.000
 GapD=    0.315 DampG=1.000 DampE=0.500 DampFc=0.5000 IDamp=-1.
 Damping current iteration by 5.00D-01
 RMSDP=5.65D-03 MaxDP=1.01D-01              OVMax= 1.68D-01

 Cycle   2  Pass 0  IDiag  1:
 E= -152.753723262671     Delta-E=       -0.062662674981 Rises=F Damp=T
 DIIS: error= 9.84D-03 at cycle   2 NSaved=   2.
 NSaved= 2 IEnMin= 2 EnMin= -152.753723262671     IErMin= 2 ErrMin= 9.84D-03
 ErrMax= 9.84D-03  0.00D+00 EMaxC= 1.00D-01 BMatC= 9.80D-03 BMatP= 2.41D-01
 IDIUse=3 WtCom= 9.02D-01 WtEn= 9.84D-02
 Coeff-Com:  0.843D-01 0.916D+00
 Coeff-En:   0.190D+00 0.810D+00
 Coeff:      0.947D-01 0.905D+00
 Gap=     0.449 Goal=   None    Shift=    0.000
 RMSDP=6.86D-04 MaxDP=1.44D-02 DE=-6.27D-02 OVMax= 1.01D-01

 Cycle   3  Pass 0  IDiag  1:
 E= -152.841878081125     Delta-E=       -0.088154818454 Rises=F Damp=F
 DIIS: error= 2.33D-03 at cycle   3 NSaved=   3.
 NSaved= 3 IEnMin= 3 EnMin= -152.841878081125     IErMin= 3 ErrMin= 2.33D-03
 ErrMax= 2.33D-03  0.00D+00 EMaxC= 1.00D-01 BMatC= 2.09D-04 BMatP= 9.80D-03
 IDIUse=3 WtCom= 9.77D-01 WtEn= 2.33D-02
 Coeff-Com: -0.215D-01 0.431D-01 0.978D+00
 Coeff-En:   0.000D+00 0.000D+00 0.100D+01
 Coeff:     -0.210D-01 0.421D-01 0.979D+00
 Gap=     0.453 Goal=   None    Shift=    0.000
 RMSDP=8.59D-05 MaxDP=1.19D-03 DE=-8.82D-02 OVMax= 3.58D-03

 Cycle   4  Pass 0  IDiag  1:
 E= -152.842053160079     Delta-E=       -0.000175078954 Rises=F Damp=F
 DIIS: error= 4.49D-04 at cycle   4 NSaved=   4.
 NSaved= 4 IEnMin= 4 EnMin= -152.842053160079     IErMin= 4 ErrMin= 4.49D-04
 ErrMax= 4.49D-04  0.00D+00 EMaxC= 1.00D-01 BMatC= 7.03D-06 BMatP= 2.09D-04
 IDIUse=3 WtCom= 9.96D-01 WtEn= 4.49D-03
 Coeff-Com: -0.229D-02-0.163D-02 0.167D+00 0.837D+00
 Coeff-En:   0.000D+00 0.000D+00 0.000D+00 0.100D+01
 Coeff:     -0.228D-02-0.162D-02 0.166D+00 0.838D+00
 Gap=     0.454 Goal=   None    Shift=    0.000
 RMSDP=1.63D-05 MaxDP=4.33D-04 DE=-1.75D-04 OVMax= 6.41D-04

 Cycle   5  Pass 0  IDiag  1:
 E= -152.842057435897     Delta-E=       -0.000004275818 Rises=F Damp=F
 DIIS: error= 1.29D-04 at cycle   5 NSaved=   5.
 NSaved= 5 IEnMin= 5 EnMin= -152.842057435897     IErMin= 5 ErrMin= 1.29D-04
 ErrMax= 1.29D-04  0.00D+00 EMaxC= 1.00D-01 BMatC= 2.63D-07 BMatP= 7.03D-06
 IDIUse=3 WtCom= 9.99D-01 WtEn= 1.29D-03
 Coeff-Com:  0.111D-02-0.207D-02-0.279D-01-0.111D-01 0.104D+01
 Coeff-En:   0.000D+00 0.000D+00 0.000D+00 0.000D+00 0.100D+01
 Coeff:      0.111D-02-0.206D-02-0.279D-01-0.110D-01 0.104D+01
 Gap=     0.454 Goal=   None    Shift=    0.000
 RMSDP=7.14D-06 MaxDP=1.74D-04 DE=-4.28D-06 OVMax= 2.97D-04

 Initial convergence to 1.0D-05 achieved.  Increase integral accuracy.
 Cycle   6  Pass 1  IDiag  1:
 E= -152.842049840439     Delta-E=        0.000007595458 Rises=F Damp=F
 DIIS: error= 6.33D-05 at cycle   1 NSaved=   1.
 NSaved= 1 IEnMin= 1 EnMin= -152.842049840439     IErMin= 1 ErrMin= 6.33D-05
 ErrMax= 6.33D-05  0.00D+00 EMaxC= 1.00D-01 BMatC= 1.69D-07 BMatP= 1.69D-07
 IDIUse=1 WtCom= 1.00D+00 WtEn= 0.00D+00
 Coeff-Com:  0.100D+01
 Coeff:      0.100D+01
 Gap=     0.454 Goal=   None    Shift=    0.000
 RMSDP=7.14D-06 MaxDP=1.74D-04 DE= 7.60D-06 OVMax= 1.55D-04

 Cycle   7  Pass 1  IDiag  1:
 E= -152.842049833743     Delta-E=        0.000000006697 Rises=F Damp=F
 DIIS: error= 7.66D-05 at cycle   2 NSaved=   2.
 NSaved= 2 IEnMin= 1 EnMin= -152.842049840439     IErMin= 1 ErrMin= 6.33D-05
 ErrMax= 7.66D-05  0.00D+00 EMaxC= 1.00D-01 BMatC= 2.02D-07 BMatP= 1.69D-07
 IDIUse=1 WtCom= 1.00D+00 WtEn= 0.00D+00
 Coeff-Com:  0.523D+00 0.477D+00
 Coeff:      0.523D+00 0.477D+00
 Gap=     0.454 Goal=   None    Shift=    0.000
 RMSDP=2.42D-06 MaxDP=5.90D-05 DE= 6.70D-09 OVMax= 8.18D-05

 Cycle   8  Pass 1  IDiag  1:
 E= -152.842049963006     Delta-E=       -0.000000129263 Rises=F Damp=F
 DIIS: error= 4.97D-06 at cycle   3 NSaved=   3.
 NSaved= 3 IEnMin= 3 EnMin= -152.842049963006     IErMin= 3 ErrMin= 4.97D-06
 ErrMax= 4.97D-06  0.00D+00 EMaxC= 1.00D-01 BMatC= 6.44D-10 BMatP= 1.69D-07
 IDIUse=1 WtCom= 1.00D+00 WtEn= 0.00D+00
 Coeff-Com: -0.562D-01 0.295D-02 0.105D+01
 Coeff:     -0.562D-01 0.295D-02 0.105D+01
 Gap=     0.454 Goal=   None    Shift=    0.000
 RMSDP=3.13D-07 MaxDP=5.92D-06 DE=-1.29D-07 OVMax= 1.06D-05

 Cycle   9  Pass 1  IDiag  1:
 E= -152.842049963731     Delta-E=       -0.000000000725 Rises=F Damp=F
 DIIS: error= 5.19D-07 at cycle   4 NSaved=   4.
 NSaved= 4 IEnMin= 4 EnMin= -152.842049963731     IErMin= 4 ErrMin= 5.19D-07
 ErrMax= 5.19D-07  0.00D+00 EMaxC= 1.00D-01 BMatC= 8.50D-12 BMatP= 6.44D-10
 IDIUse=1 WtCom= 1.00D+00 WtEn= 0.00D+00
 Coeff-Com:  0.200D-02-0.401D-02-0.122D+00 0.112D+01
 Coeff:      0.200D-02-0.401D-02-0.122D+00 0.112D+01
 Gap=     0.454 Goal=   None    Shift=    0.000
 RMSDP=6.65D-08 MaxDP=9.18D-07 DE=-7.25D-10 OVMax= 1.94D-06

 Cycle  10  Pass 1  IDiag  1:
 E= -152.842049963751     Delta-E=       -0.000000000020 Rises=F Damp=F
 DIIS: error= 1.20D-07 at cycle   5 NSaved=   5.
 NSaved= 5 IEnMin= 5 EnMin= -152.842049963751     IErMin= 5 ErrMin= 1.20D-07
 ErrMax= 1.20D-07  0.00D+00 EMaxC= 1.00D-01 BMatC= 6.01D-13 BMatP= 8.50D-12
 IDIUse=1 WtCom= 1.00D+00 WtEn= 0.00D+00
 Coeff-Com:  0.290D-02-0.832D-03-0.693D-01 0.164D+00 0.904D+00
 Coeff:      0.290D-02-0.832D-03-0.693D-01 0.164D+00 0.904D+00
 Gap=     0.454 Goal=   None    Shift=    0.000
 RMSDP=1.43D-08 MaxDP=1.62D-07 DE=-1.97D-11 OVMax= 4.66D-07

 Cycle  11  Pass 1  IDiag  1:
 E= -152.842049963752     Delta-E=       -0.000000000001 Rises=F Damp=F
 DIIS: error= 2.39D-08 at cycle   6 NSaved=   6.
 NSaved= 6 IEnMin= 6 EnMin= -152.842049963752     IErMin= 6 ErrMin= 2.39D-08
 ErrMax= 2.39D-08  0.00D+00 EMaxC= 1.00D-01 BMatC= 2.67D-14 BMatP= 6.01D-13
 IDIUse=1 WtCom= 1.00D+00 WtEn= 0.00D+00
 Coeff-Com:  0.442D-03-0.471D-04-0.824D-02-0.536D-02 0.111D+00 0.902D+00
 Coeff:      0.442D-03-0.471D-04-0.824D-02-0.536D-02 0.111D+00 0.902D+00
 Gap=     0.454 Goal=   None    Shift=    0.000
 RMSDP=2.90D-09 MaxDP=4.07D-08 DE=-5.12D-13 OVMax= 1.07D-07

 SCF Done:  E(RM062X) =  -152.842049964     A.U. after   11 cycles
            NFock= 11  Conv=0.29D-08     -V/T= 2.0031
 KE= 1.523760627491D+02 PE=-4.151322776793D+02 EE= 8.317650201768D+01
 Leave Link  502 at Mon Feb 20 09:17:09 2023, MaxMem=  6710886400 cpu:              16.4 elap:               0.8
 (Enter /data0/home/software/g16/l601.exe)
 Copying SCF densities to generalized density rwf, IOpCl= 0 IROHF=0.

 **********************************************************************

            Population analysis using the SCF density.

 **********************************************************************

 Alpha  occ. eigenvalues --  -19.62890 -19.62808  -1.13583  -1.13332  -0.60942
 Alpha  occ. eigenvalues --   -0.60550  -0.47988  -0.47453  -0.40190  -0.40111
 Alpha virt. eigenvalues --    0.05281   0.06349   0.12136   0.13617   0.16738
 Alpha virt. eigenvalues --    0.17298   0.17786   0.17936   0.18611   0.19604
 Alpha virt. eigenvalues --    0.22940   0.23897   0.48910   0.51616   0.53275
 Alpha virt. eigenvalues --    0.53944   0.97156   0.98354   1.00250   1.00297
 Alpha virt. eigenvalues --    1.05846   1.06211   1.16940   1.19021   1.19425
 Alpha virt. eigenvalues --    1.20074   1.31580   1.32489   1.33851   1.34030
 Alpha virt. eigenvalues --    1.68455   1.70621   1.73316   1.74313   1.75099
 Alpha virt. eigenvalues --    1.75843   2.05958   2.07071   2.09577   2.09939
 Alpha virt. eigenvalues --    2.34197   2.36209   2.39002   2.42749   2.53610
 Alpha virt. eigenvalues --    2.55177   2.87175   2.87602   3.00803   3.01556
 Alpha virt. eigenvalues --    5.05471   5.05581   5.46068   5.49099   5.90101
 Alpha virt. eigenvalues --    5.91875   6.77979   6.78392   6.79773   6.80225
 Alpha virt. eigenvalues --    6.86723   6.87148   6.91228   6.91620   7.09236
 Alpha virt. eigenvalues --    7.09787  49.95296  49.95475
          Condensed to atoms (all electrons):
               1          2          3          4          5          6
     1  O    7.917950   0.315367   0.324596  -0.000004  -0.000001  -0.000000
     2  H    0.315367   0.428149  -0.024582   0.000019   0.000003  -0.000000
     3  H    0.324596  -0.024582   0.423135   0.000001   0.000000  -0.000000
     4  O   -0.000004   0.000019   0.000001   7.916471   0.314763   0.317536
     5  H   -0.000001   0.000003   0.000000   0.314763   0.435112  -0.023963
     6  H   -0.000000  -0.000000  -0.000000   0.317536  -0.023963   0.431716
 Mulliken charges:
               1
     1  O   -0.557907
     2  H    0.281044
     3  H    0.276850
     4  O   -0.548785
     5  H    0.274086
     6  H    0.274712
 Sum of Mulliken charges =   0.00000
 Mulliken charges with hydrogens summed into heavy atoms:
               1
     1  O   -0.000013
     4  O    0.000013
         Mulliken charges condensed to fragments:
      1     -0.000013
      2      0.000013
 Electronic spatial extent (au):  <R**2>=          34854.6460
 Charge=              0.0000 electrons
 Dipole moment (field-independent basis, Debye):
    X=              1.8315    Y=              3.4839    Z=             -1.0953  Tot=              4.0855
 Quadrupole moment (field-independent basis, Debye-Ang):
   XX=             44.8150   YY=             75.0536   ZZ=            -33.5682
   XY=             78.5432   XZ=             -6.3270   YZ=             14.6983
 Traceless Quadrupole moment (field-independent basis, Debye-Ang):
   XX=             16.0482   YY=             46.2868   ZZ=            -62.3350
   XY=             78.5432   XZ=             -6.3270   YZ=             14.6983
 Octapole moment (field-independent basis, Debye-Ang**2):
  XXX=            740.3502  YYY=           1194.3951  ZZZ=           -601.3802  XYY=           1492.7121
  XXY=           1454.6239  XXZ=            -27.4284  XZZ=           -454.4695  YZZ=           -165.0763
  YYZ=            461.0651  XYZ=            391.3506
 Hexadecapole moment (field-independent basis, Debye-Ang**3):
 XXXX=           8489.8090 YYYY=          16482.6756 ZZZZ=          -9251.2918 XXXY=          23688.3486
 XXXZ=          -1066.4192 YYYX=          22918.3161 YYYZ=           8261.4751 ZZZX=          -8978.3943
 ZZZY=          -5165.7109 XXYY=          26513.0237 XXZZ=          -6877.6743 YYZZ=            544.3608
 XXYZ=           7451.8942 YYXZ=           9573.4170 ZZXY=          -1355.2815
 N-N= 2.673766294882D+01 E-N=-4.151322755986D+02  KE= 1.523760627491D+02
 No NMR shielding tensors so no spin-rotation constants.
 Leave Link  601 at Mon Feb 20 09:17:10 2023, MaxMem=  6710886400 cpu:               1.8 elap:               0.1
 (Enter /data0/home/software/g16/l122.exe)
 CPIOFr:  IOpCl= 0 IRwI=-1 IRwCP=  731 ICalc= -1 LCPTot=       10496 Len1MO=       26312 IndFrg=       10496
 CPIOFr:  IOpCl= 0 IRwI=-1 IRwCP=  731 ICalc=  0 LCPTot=       10496 Len1MO=       26312 IndFrg=       36808
 Counterpoise: doing calculation for fragment   1 using the basis set of the full-system, NewBq=T
 Leave Link  122 at Mon Feb 20 09:17:10 2023, MaxMem=  6710886400 cpu:               0.1 elap:               0.0
 (Enter /data0/home/software/g16/l301.exe)
 Basis read from rwf:  (5D, 7F)
 No pseudopotential information found on rwf file.
    78 basis functions,   116 primitive gaussians,    82 cartesian basis functions
     5 alpha electrons        5 beta electrons
       nuclear repulsion energy         9.0682001657 Hartrees.
 IExCor= 4336 DFT=T Ex+Corr=M062X ExCW=0 ScaHFX=  0.540000
 ScaDFX=  1.000000  1.000000  1.000000  1.000000 ScalE2=  1.000000  1.000000
 IRadAn=      5 IRanWt=     -1 IRanGd=            0 ICorTp=0 IEmpDi=131
 NAtoms=    6 NActive=    6 NUniq=    6 SFac= 1.00D+00 NAtFMM=   60 NAOKFM=F Big=F
 Integral buffers will be    131072 words long.
 Raffenetti 2 integral format.
 Two-electron integral symmetry is turned off.
 R6Disp:  Grimme-D3 Dispersion energy=       -0.0000000084 Hartrees.
 Nuclear repulsion after empirical dispersion term =        9.0682001573 Hartrees.
 No density basis found on file   718.
 Leave Link  301 at Mon Feb 20 09:17:10 2023, MaxMem=  6710886400 cpu:               1.2 elap:               0.1
 (Enter /data0/home/software/g16/l302.exe)
 NPDir=0 NMtPBC=     1 NCelOv=     1 NCel=       1 NClECP=     1 NCelD=      1
         NCelK=      1 NCelE2=     1 NClLst=     1 CellRange=     0.0.
 One-electron integrals computed using PRISM.
 NBasis=    78 RedAO= T EigKep=  2.94D-03  NBF=    78
 NBsUse=    78 1.00D-06 EigRej= -1.00D+00 NBFU=    78
 Precomputing XC quadrature grid using
 IXCGrd= 4 IRadAn=           5 IRanWt=          -1 IRanGd=           0 AccXCQ= 0.00D+00.
 Generated NRdTot=       0 NPtTot=           0 NUsed=           0 NTot=          32
 NSgBfM=    72    72    72    72    72 MxSgAt=     6 MxSgA2=     6.
 Leave Link  302 at Mon Feb 20 09:17:10 2023, MaxMem=  6710886400 cpu:               2.4 elap:               0.1
 (Enter /data0/home/software/g16/l303.exe)
 DipDrv:  MaxL=1.
 Leave Link  303 at Mon Feb 20 09:17:10 2023, MaxMem=  6710886400 cpu:               0.4 elap:               0.0
 (Enter /data0/home/software/g16/l401.exe)
 ExpMin= 8.45D-02 ExpMax= 8.59D+03 ExpMxC= 1.30D+03 IAcc=3 IRadAn=         5 AccDes= 0.00D+00
 Harris functional with IExCor= 1009 and IRadAn=       5 diagonalized for initial guess.
 HarFok:  IExCor= 1009 AccDes= 0.00D+00 IRadAn=         5 IDoV= 1 UseB2=F ITyADJ=14
 ICtDFT=  3500011 ScaDFX=  1.000000  1.000000  1.000000  1.000000
 FoFCou: FMM=F IPFlag=           0 FMFlag=      100000 FMFlg1=           0
         NFxFlg=           0 DoJE=T BraDBF=F KetDBF=T FulRan=T
         wScrn=  0.000000 ICntrl=       500 IOpCl=  0 I1Cent=   200000004 NGrid=           0
         NMat0=    1 NMatS0=      1 NMatT0=    0 NMatD0=    1 NMtDS0=    0 NMtDT0=    0
 Symmetry not used in FoFCou.
 Harris En= -76.4156718067002    
 JPrj=0 DoOrth=F DoCkMO=F.
 Leave Link  401 at Mon Feb 20 09:17:10 2023, MaxMem=  6710886400 cpu:               3.3 elap:               0.2
 (Enter /data0/home/software/g16/l502.exe)
 Keep R1 ints in memory in canonical form, NReq=26476721.
 FoFCou: FMM=F IPFlag=           0 FMFlag=           0 FMFlg1=           0
         NFxFlg=           0 DoJE=F BraDBF=F KetDBF=F FulRan=T
         wScrn=  0.000000 ICntrl=       600 IOpCl=  0 I1Cent=           0 NGrid=           0
         NMat0=    1 NMatS0=   3081 NMatT0=    0 NMatD0=    1 NMtDS0=    0 NMtDT0=    0
 Symmetry not used in FoFCou.
 Two-electron integral symmetry not used.
 Closed shell SCF:
 Using DIIS extrapolation, IDIIS=  1040.
 NGot=  6710886400 LenX=  6706122419 LenY=  6706115254
 Requested convergence on RMS density matrix=1.00D-08 within 128 cycles.
 Requested convergence on MAX density matrix=1.00D-06.
 Requested convergence on             energy=1.00D-06.
 No special actions if energy rises.
 Integral accuracy reduced to 1.0D-05 until final iterations.

 Cycle   1  Pass 0  IDiag  1:
 E= -76.3453764313707    
 DIIS: error= 6.61D-02 at cycle   1 NSaved=   1.
 NSaved= 1 IEnMin= 1 EnMin= -76.3453764313707     IErMin= 1 ErrMin= 6.61D-02
 ErrMax= 6.61D-02  0.00D+00 EMaxC= 1.00D-01 BMatC= 1.21D-01 BMatP= 1.21D-01
 IDIUse=3 WtCom= 3.39D-01 WtEn= 6.61D-01
 Coeff-Com:  0.100D+01
 Coeff-En:   0.100D+01
 Coeff:      0.100D+01
 Gap=     0.323 Goal=   None    Shift=    0.000
 GapD=    0.323 DampG=1.000 DampE=0.500 DampFc=0.5000 IDamp=-1.
 Damping current iteration by 5.00D-01
 RMSDP=3.94D-03 MaxDP=1.01D-01              OVMax= 1.68D-01

 Cycle   2  Pass 0  IDiag  1:
 E= -76.3766980348738     Delta-E=       -0.031321603503 Rises=F Damp=T
 DIIS: error= 9.95D-03 at cycle   2 NSaved=   2.
 NSaved= 2 IEnMin= 2 EnMin= -76.3766980348738     IErMin= 2 ErrMin= 9.95D-03
 ErrMax= 9.95D-03  0.00D+00 EMaxC= 1.00D-01 BMatC= 4.90D-03 BMatP= 1.21D-01
 IDIUse=3 WtCom= 9.00D-01 WtEn= 9.95D-02
 Coeff-Com:  0.840D-01 0.916D+00
 Coeff-En:   0.190D+00 0.810D+00
 Coeff:      0.946D-01 0.905D+00
 Gap=     0.456 Goal=   None    Shift=    0.000
 RMSDP=4.77D-04 MaxDP=1.42D-02 DE=-3.13D-02 OVMax= 1.01D-01

 Cycle   3  Pass 0  IDiag  1:
 E= -76.4207660849268     Delta-E=       -0.044068050053 Rises=F Damp=F
 DIIS: error= 2.18D-03 at cycle   3 NSaved=   3.
 NSaved= 3 IEnMin= 3 EnMin= -76.4207660849268     IErMin= 3 ErrMin= 2.18D-03
 ErrMax= 2.18D-03  0.00D+00 EMaxC= 1.00D-01 BMatC= 1.05D-04 BMatP= 4.90D-03
 IDIUse=3 WtCom= 9.78D-01 WtEn= 2.18D-02
 Coeff-Com: -0.215D-01 0.439D-01 0.978D+00
 Coeff-En:   0.000D+00 0.000D+00 0.100D+01
 Coeff:     -0.210D-01 0.429D-01 0.978D+00
 Gap=     0.459 Goal=   None    Shift=    0.000
 RMSDP=6.05D-05 MaxDP=1.15D-03 DE=-4.41D-02 OVMax= 3.47D-03

 Cycle   4  Pass 0  IDiag  1:
 E= -76.4208539685535     Delta-E=       -0.000087883627 Rises=F Damp=F
 DIIS: error= 3.96D-04 at cycle   4 NSaved=   4.
 NSaved= 4 IEnMin= 4 EnMin= -76.4208539685535     IErMin= 4 ErrMin= 3.96D-04
 ErrMax= 3.96D-04  0.00D+00 EMaxC= 1.00D-01 BMatC= 3.46D-06 BMatP= 1.05D-04
 IDIUse=3 WtCom= 9.96D-01 WtEn= 3.96D-03
 Coeff-Com: -0.230D-02-0.157D-02 0.166D+00 0.838D+00
 Coeff-En:   0.000D+00 0.000D+00 0.000D+00 0.100D+01
 Coeff:     -0.229D-02-0.157D-02 0.166D+00 0.838D+00
 Gap=     0.460 Goal=   None    Shift=    0.000
 RMSDP=1.12D-05 MaxDP=3.54D-04 DE=-8.79D-05 OVMax= 5.42D-04

 Cycle   5  Pass 0  IDiag  1:
 E= -76.4208560949367     Delta-E=       -0.000002126383 Rises=F Damp=F
 DIIS: error= 8.69D-05 at cycle   5 NSaved=   5.
 NSaved= 5 IEnMin= 5 EnMin= -76.4208560949367     IErMin= 5 ErrMin= 8.69D-05
 ErrMax= 8.69D-05  0.00D+00 EMaxC= 1.00D-01 BMatC= 8.78D-08 BMatP= 3.46D-06
 IDIUse=1 WtCom= 1.00D+00 WtEn= 0.00D+00
 Coeff-Com:  0.125D-02-0.193D-02-0.371D-01-0.725D-01 0.111D+01
 Coeff:      0.125D-02-0.193D-02-0.371D-01-0.725D-01 0.111D+01
 Gap=     0.460 Goal=   None    Shift=    0.000
 RMSDP=4.63D-06 MaxDP=1.05D-04 DE=-2.13D-06 OVMax= 2.09D-04

 Initial convergence to 1.0D-05 achieved.  Increase integral accuracy.
 Cycle   6  Pass 1  IDiag  1:
 E= -76.4208557427007     Delta-E=        0.000000352236 Rises=F Damp=F
 DIIS: error= 2.18D-05 at cycle   1 NSaved=   1.
 NSaved= 1 IEnMin= 1 EnMin= -76.4208557427007     IErMin= 1 ErrMin= 2.18D-05
 ErrMax= 2.18D-05  0.00D+00 EMaxC= 1.00D-01 BMatC= 2.43D-08 BMatP= 2.43D-08
 IDIUse=1 WtCom= 1.00D+00 WtEn= 0.00D+00
 Coeff-Com:  0.100D+01
 Coeff:      0.100D+01
 Gap=     0.460 Goal=   None    Shift=    0.000
 RMSDP=4.63D-06 MaxDP=1.05D-04 DE= 3.52D-07 OVMax= 4.85D-05

 Cycle   7  Pass 1  IDiag  1:
 E= -76.4208557629290     Delta-E=       -0.000000020228 Rises=F Damp=F
 DIIS: error= 1.07D-05 at cycle   2 NSaved=   2.
 NSaved= 2 IEnMin= 2 EnMin= -76.4208557629290     IErMin= 2 ErrMin= 1.07D-05
 ErrMax= 1.07D-05  0.00D+00 EMaxC= 1.00D-01 BMatC= 1.96D-09 BMatP= 2.43D-08
 IDIUse=1 WtCom= 1.00D+00 WtEn= 0.00D+00
 Coeff-Com:  0.656D-01 0.934D+00
 Coeff:      0.656D-01 0.934D+00
 Gap=     0.460 Goal=   None    Shift=    0.000
 RMSDP=4.88D-07 MaxDP=1.34D-05 DE=-2.02D-08 OVMax= 2.53D-05

 Cycle   8  Pass 1  IDiag  1:
 E= -76.4208557632616     Delta-E=       -0.000000000333 Rises=F Damp=F
 DIIS: error= 7.98D-06 at cycle   3 NSaved=   3.
 NSaved= 3 IEnMin= 3 EnMin= -76.4208557632616     IErMin= 3 ErrMin= 7.98D-06
 ErrMax= 7.98D-06  0.00D+00 EMaxC= 1.00D-01 BMatC= 1.86D-09 BMatP= 1.96D-09
 IDIUse=1 WtCom= 1.00D+00 WtEn= 0.00D+00
 Coeff-Com: -0.438D-01 0.505D+00 0.539D+00
 Coeff:     -0.438D-01 0.505D+00 0.539D+00
 Gap=     0.460 Goal=   None    Shift=    0.000
 RMSDP=2.44D-07 MaxDP=6.82D-06 DE=-3.33D-10 OVMax= 1.10D-05

 Cycle   9  Pass 1  IDiag  1:
 E= -76.4208557644768     Delta-E=       -0.000000001215 Rises=F Damp=F
 DIIS: error= 7.61D-07 at cycle   4 NSaved=   4.
 NSaved= 4 IEnMin= 4 EnMin= -76.4208557644768     IErMin= 4 ErrMin= 7.61D-07
 ErrMax= 7.61D-07  0.00D+00 EMaxC= 1.00D-01 BMatC= 7.05D-12 BMatP= 1.86D-09
 IDIUse=1 WtCom= 1.00D+00 WtEn= 0.00D+00
 Coeff-Com: -0.496D-02 0.976D-02 0.408D-01 0.954D+00
 Coeff:     -0.496D-02 0.976D-02 0.408D-01 0.954D+00
 Gap=     0.460 Goal=   None    Shift=    0.000
 RMSDP=4.38D-08 MaxDP=5.60D-07 DE=-1.22D-09 OVMax= 1.79D-06

 Cycle  10  Pass 1  IDiag  1:
 E= -76.4208557644866     Delta-E=       -0.000000000010 Rises=F Damp=F
 DIIS: error= 1.18D-07 at cycle   5 NSaved=   5.
 NSaved= 5 IEnMin= 5 EnMin= -76.4208557644866     IErMin= 5 ErrMin= 1.18D-07
 ErrMax= 1.18D-07  0.00D+00 EMaxC= 1.00D-01 BMatC= 3.75D-13 BMatP= 7.05D-12
 IDIUse=1 WtCom= 1.00D+00 WtEn= 0.00D+00
 Coeff-Com:  0.264D-02-0.333D-01-0.332D-01 0.248D-01 0.104D+01
 Coeff:      0.264D-02-0.333D-01-0.332D-01 0.248D-01 0.104D+01
 Gap=     0.460 Goal=   None    Shift=    0.000
 RMSDP=1.76D-08 MaxDP=2.34D-07 DE=-9.81D-12 OVMax= 6.23D-07

 Cycle  11  Pass 1  IDiag  1:
 E= -76.4208557644875     Delta-E=       -0.000000000001 Rises=F Damp=F
 DIIS: error= 1.56D-08 at cycle   6 NSaved=   6.
 NSaved= 6 IEnMin= 6 EnMin= -76.4208557644875     IErMin= 6 ErrMin= 1.56D-08
 ErrMax= 1.56D-08  0.00D+00 EMaxC= 1.00D-01 BMatC= 6.78D-15 BMatP= 3.75D-13
 IDIUse=1 WtCom= 1.00D+00 WtEn= 0.00D+00
 Coeff-Com:  0.941D-04-0.592D-04-0.565D-03-0.246D-01-0.565D-01 0.108D+01
 Coeff:      0.941D-04-0.592D-04-0.565D-03-0.246D-01-0.565D-01 0.108D+01
 Gap=     0.460 Goal=   None    Shift=    0.000
 RMSDP=2.92D-09 MaxDP=5.21D-08 DE=-9.66D-13 OVMax= 1.18D-07

 SCF Done:  E(RM062X) =  -76.4208557645     A.U. after   11 cycles
            NFock= 11  Conv=0.29D-08     -V/T= 2.0031
 KE= 7.618256579847D+01 PE=-1.989835670417D+02 EE= 3.731194532139D+01
 Leave Link  502 at Mon Feb 20 09:17:11 2023, MaxMem=  6710886400 cpu:              13.7 elap:               0.7
 (Enter /data0/home/software/g16/l601.exe)
 Copying SCF densities to generalized density rwf, IOpCl= 0 IROHF=0.

 **********************************************************************

            Population analysis using the SCF density.

 **********************************************************************

 Alpha  occ. eigenvalues --  -19.62616  -1.13142  -0.60751  -0.47279  -0.39930
 Alpha virt. eigenvalues --    0.06048   0.10160   0.13034   0.17092   0.17888
 Alpha virt. eigenvalues --    0.18229   0.18667   0.18766   0.19876   0.23464
 Alpha virt. eigenvalues --    0.29623   0.31554   0.50145   0.53808   0.56521
 Alpha virt. eigenvalues --    0.78991   0.80164   0.81123   0.98039   1.00465
 Alpha virt. eigenvalues --    1.03514   1.06023   1.12589   1.19187   1.19627
 Alpha virt. eigenvalues --    1.32668   1.34066   1.68745   1.73712   1.75941
 Alpha virt. eigenvalues --    1.83660   1.89709   1.97714   2.06178   2.10110
 Alpha virt. eigenvalues --    2.20612   2.33154   2.34607   2.42936   2.53901
 Alpha virt. eigenvalues --    2.54151   2.59651   2.70898   2.72342   2.75438
 Alpha virt. eigenvalues --    2.77008   2.87506   3.00422   3.02006   3.09775
 Alpha virt. eigenvalues --    3.60274   3.63229   4.67404   5.05688   5.25129
 Alpha virt. eigenvalues --    5.46263   5.92062   6.78158   6.80405   6.86905
 Alpha virt. eigenvalues --    6.91408   7.09948  10.26110  10.28774  10.35698
 Alpha virt. eigenvalues --   10.42225  10.58694  13.39284  13.80986  14.28073
 Alpha virt. eigenvalues --   18.38869  49.95662 139.75537
          Condensed to atoms (all electrons):
               1          2          3          4          5          6
     1  O    7.919429   0.316813   0.324516   0.000001  -0.000000  -0.000000
     2  H    0.316813   0.423702  -0.024376   0.000002  -0.000001  -0.000000
     3  H    0.324516  -0.024376   0.422960  -0.000000   0.000000   0.000000
     4  O    0.000001   0.000002  -0.000000   0.000004  -0.000002  -0.000002
     5  H   -0.000000  -0.000001   0.000000  -0.000002   0.000002   0.000001
     6  H   -0.000000  -0.000000   0.000000  -0.000002   0.000001   0.000001
 Mulliken charges:
               1
     1  O   -0.560759
     2  H    0.283860
     3  H    0.276900
     4  O   -0.000003
     5  H    0.000000
     6  H    0.000000
 Sum of Mulliken charges =  -0.00000
 Mulliken charges with hydrogens summed into heavy atoms:
               1
     1  O    0.000002
     4  O   -0.000002
         Mulliken charges condensed to fragments:
      1      0.000002
      2     -0.000002
 Electronic spatial extent (au):  <R**2>=          20812.1284
 Charge=             -0.0000 electrons
 Dipole moment (field-independent basis, Debye):
    X=              0.5580    Y=              1.7851    Z=             -0.9673  Tot=              2.1056
 Quadrupole moment (field-independent basis, Debye-Ang):
   XX=             11.4241   YY=             41.9661   ZZ=            -25.5111
   XY=             38.3192   XZ=             -9.6965   YZ=              6.6705
 Traceless Quadrupole moment (field-independent basis, Debye-Ang):
   XX=              2.1311   YY=             32.6731   ZZ=            -34.8041
   XY=             38.3192   XZ=             -9.6965   YZ=              6.6705
 Octapole moment (field-independent basis, Debye-Ang**2):
  XXX=            101.8715  YYY=            724.6421  ZZZ=           -488.8670  XYY=            828.0949
  XXY=            685.2036  XXZ=           -131.3961  XZZ=           -352.4540  YZZ=           -125.8787
  YYZ=            289.7709  XYZ=            209.3718
 Hexadecapole moment (field-independent basis, Debye-Ang**3):
 XXXX=          -1924.3758 YYYY=          10801.9669 ZZZZ=          -8145.4542 XXXY=          10533.7603
 XXXZ=          -3014.1072 YYYX=          13977.3647 YYYZ=           5720.2730 ZZZX=          -7336.6624
 ZZZY=          -4174.6302 XXYY=          14652.9012 XXZZ=          -5488.2790 YYZZ=            536.1847
 XXYZ=           4095.4765 YYXZ=           6299.8571 ZZXY=           -989.0464
 N-N= 9.068200157329D+00 E-N=-1.989835671079D+02  KE= 7.618256579847D+01
 No NMR shielding tensors so no spin-rotation constants.
 Leave Link  601 at Mon Feb 20 09:17:11 2023, MaxMem=  6710886400 cpu:               1.8 elap:               0.1
 (Enter /data0/home/software/g16/l122.exe)
 CPIOFr:  IOpCl= 0 IRwI=-1 IRwCP=  731 ICalc=  1 LCPTot=       10496 Len1MO=       26312 IndFrg=       63120
 Counterpoise: doing calculation for fragment   2 using the basis set of the full-system, NewBq=T
 Leave Link  122 at Mon Feb 20 09:17:11 2023, MaxMem=  6710886400 cpu:               0.1 elap:               0.0
 (Enter /data0/home/software/g16/l301.exe)
 Basis read from rwf:  (5D, 7F)
 No pseudopotential information found on rwf file.
    78 basis functions,   116 primitive gaussians,    82 cartesian basis functions
     5 alpha electrons        5 beta electrons
       nuclear repulsion energy         9.0916589827 Hartrees.
 IExCor= 4336 DFT=T Ex+Corr=M062X ExCW=0 ScaHFX=  0.540000
 ScaDFX=  1.000000  1.000000  1.000000  1.000000 ScalE2=  1.000000  1.000000
 IRadAn=      5 IRanWt=     -1 IRanGd=            0 ICorTp=0 IEmpDi=131
 NAtoms=    6 NActive=    6 NUniq=    6 SFac= 1.00D+00 NAtFMM=   60 NAOKFM=F Big=F
 Integral buffers will be    131072 words long.
 Raffenetti 2 integral format.
 Two-electron integral symmetry is turned off.
 R6Disp:  Grimme-D3 Dispersion energy=       -0.0000000072 Hartrees.
 Nuclear repulsion after empirical dispersion term =        9.0916589755 Hartrees.
 No density basis found on file   718.
 Leave Link  301 at Mon Feb 20 09:17:11 2023, MaxMem=  6710886400 cpu:               1.2 elap:               0.1
 (Enter /data0/home/software/g16/l302.exe)
 NPDir=0 NMtPBC=     1 NCelOv=     1 NCel=       1 NClECP=     1 NCelD=      1
         NCelK=      1 NCelE2=     1 NClLst=     1 CellRange=     0.0.
 One-electron integrals computed using PRISM.
 NBasis=    78 RedAO= T EigKep=  2.94D-03  NBF=    78
 NBsUse=    78 1.00D-06 EigRej= -1.00D+00 NBFU=    78
 Precomputing XC quadrature grid using
 IXCGrd= 4 IRadAn=           5 IRanWt=          -1 IRanGd=           0 AccXCQ= 0.00D+00.
 Generated NRdTot=       0 NPtTot=           0 NUsed=           0 NTot=          32
 NSgBfM=    72    72    72    72    72 MxSgAt=     6 MxSgA2=     6.
 Leave Link  302 at Mon Feb 20 09:17:11 2023, MaxMem=  6710886400 cpu:               2.4 elap:               0.1
 (Enter /data0/home/software/g16/l303.exe)
 DipDrv:  MaxL=1.
 Leave Link  303 at Mon Feb 20 09:17:11 2023, MaxMem=  6710886400 cpu:               0.4 elap:               0.0
 (Enter /data0/home/software/g16/l401.exe)
 ExpMin= 8.45D-02 ExpMax= 8.59D+03 ExpMxC= 1.30D+03 IAcc=3 IRadAn=         5 AccDes= 0.00D+00
 Harris functional with IExCor= 1009 and IRadAn=       5 diagonalized for initial guess.
 HarFok:  IExCor= 1009 AccDes= 0.00D+00 IRadAn=         5 IDoV= 1 UseB2=F ITyADJ=14
 ICtDFT=  3500011 ScaDFX=  1.000000  1.000000  1.000000  1.000000
 FoFCou: FMM=F IPFlag=           0 FMFlag=      100000 FMFlg1=           0
         NFxFlg=           0 DoJE=T BraDBF=F KetDBF=T FulRan=T
         wScrn=  0.000000 ICntrl=       500 IOpCl=  0 I1Cent=   200000004 NGrid=           0
         NMat0=    1 NMatS0=      1 NMatT0=    0 NMatD0=    1 NMtDS0=    0 NMtDT0=    0
 Symmetry not used in FoFCou.
 Harris En= -76.4161938203207    
 JPrj=0 DoOrth=F DoCkMO=F.
 Leave Link  401 at Mon Feb 20 09:17:11 2023, MaxMem=  6710886400 cpu:               3.3 elap:               0.2
 (Enter /data0/home/software/g16/l502.exe)
 Keep R1 ints in memory in canonical form, NReq=26476721.
 FoFCou: FMM=F IPFlag=           0 FMFlag=           0 FMFlg1=           0
         NFxFlg=           0 DoJE=F BraDBF=F KetDBF=F FulRan=T
         wScrn=  0.000000 ICntrl=       600 IOpCl=  0 I1Cent=           0 NGrid=           0
         NMat0=    1 NMatS0=   3081 NMatT0=    0 NMatD0=    1 NMtDS0=    0 NMtDT0=    0
 Symmetry not used in FoFCou.
 Two-electron integral symmetry not used.
 Closed shell SCF:
 Using DIIS extrapolation, IDIIS=  1040.
 NGot=  6710886400 LenX=  6706122419 LenY=  6706115254
 Requested convergence on RMS density matrix=1.00D-08 within 128 cycles.
 Requested convergence on MAX density matrix=1.00D-06.
 Requested convergence on             energy=1.00D-06.
 No special actions if energy rises.
 Integral accuracy reduced to 1.0D-05 until final iterations.

 Cycle   1  Pass 0  IDiag  1:
 E= -76.3466926433313    
 DIIS: error= 6.57D-02 at cycle   1 NSaved=   1.
 NSaved= 1 IEnMin= 1 EnMin= -76.3466926433313     IErMin= 1 ErrMin= 6.57D-02
 ErrMax= 6.57D-02  0.00D+00 EMaxC= 1.00D-01 BMatC= 1.20D-01 BMatP= 1.20D-01
 IDIUse=3 WtCom= 3.43D-01 WtEn= 6.57D-01
 Coeff-Com:  0.100D+01
 Coeff-En:   0.100D+01
 Coeff:      0.100D+01
 Gap=     0.324 Goal=   None    Shift=    0.000
 GapD=    0.324 DampG=1.000 DampE=0.500 DampFc=0.5000 IDamp=-1.
 Damping current iteration by 5.00D-01
 RMSDP=4.00D-03 MaxDP=1.00D-01              OVMax= 1.67D-01

 Cycle   2  Pass 0  IDiag  1:
 E= -76.3778976060302     Delta-E=       -0.031204962699 Rises=F Damp=T
 DIIS: error= 9.78D-03 at cycle   2 NSaved=   2.
 NSaved= 2 IEnMin= 2 EnMin= -76.3778976060302     IErMin= 2 ErrMin= 9.78D-03
 ErrMax= 9.78D-03  0.00D+00 EMaxC= 1.00D-01 BMatC= 4.84D-03 BMatP= 1.20D-01
 IDIUse=3 WtCom= 9.02D-01 WtEn= 9.78D-02
 Coeff-Com:  0.834D-01 0.917D+00
 Coeff-En:   0.189D+00 0.811D+00
 Coeff:      0.937D-01 0.906D+00
 Gap=     0.457 Goal=   None    Shift=    0.000
 RMSDP=4.81D-04 MaxDP=1.42D-02 DE=-3.12D-02 OVMax= 1.00D-01

 Cycle   3  Pass 0  IDiag  1:
 E= -76.4216334251493     Delta-E=       -0.043735819119 Rises=F Damp=F
 DIIS: error= 2.14D-03 at cycle   3 NSaved=   3.
 NSaved= 3 IEnMin= 3 EnMin= -76.4216334251493     IErMin= 3 ErrMin= 2.14D-03
 ErrMax= 2.14D-03  0.00D+00 EMaxC= 1.00D-01 BMatC= 1.02D-04 BMatP= 4.84D-03
 IDIUse=3 WtCom= 9.79D-01 WtEn= 2.14D-02
 Coeff-Com: -0.217D-01 0.423D-01 0.979D+00
 Coeff-En:   0.000D+00 0.000D+00 0.100D+01
 Coeff:     -0.212D-01 0.414D-01 0.980D+00
 Gap=     0.461 Goal=   None    Shift=    0.000
 RMSDP=5.97D-05 MaxDP=1.04D-03 DE=-4.37D-02 OVMax= 3.45D-03

 Cycle   4  Pass 0  IDiag  1:
 E= -76.4217191848054     Delta-E=       -0.000085759656 Rises=F Damp=F
 DIIS: error= 3.87D-04 at cycle   4 NSaved=   4.
 NSaved= 4 IEnMin= 4 EnMin= -76.4217191848054     IErMin= 4 ErrMin= 3.87D-04
 ErrMax= 3.87D-04  0.00D+00 EMaxC= 1.00D-01 BMatC= 3.23D-06 BMatP= 1.02D-04
 IDIUse=3 WtCom= 9.96D-01 WtEn= 3.87D-03
 Coeff-Com: -0.215D-02-0.171D-02 0.160D+00 0.844D+00
 Coeff-En:   0.000D+00 0.000D+00 0.000D+00 0.100D+01
 Coeff:     -0.214D-02-0.170D-02 0.160D+00 0.844D+00
 Gap=     0.461 Goal=   None    Shift=    0.000
 RMSDP=1.11D-05 MaxDP=3.53D-04 DE=-8.58D-05 OVMax= 5.38D-04

 Cycle   5  Pass 0  IDiag  1:
 E= -76.4217211848615     Delta-E=       -0.000002000056 Rises=F Damp=F
 DIIS: error= 8.29D-05 at cycle   5 NSaved=   5.
 NSaved= 5 IEnMin= 5 EnMin= -76.4217211848615     IErMin= 5 ErrMin= 8.29D-05
 ErrMax= 8.29D-05  0.00D+00 EMaxC= 1.00D-01 BMatC= 8.12D-08 BMatP= 3.23D-06
 IDIUse=1 WtCom= 1.00D+00 WtEn= 0.00D+00
 Coeff-Com:  0.125D-02-0.191D-02-0.370D-01-0.621D-01 0.110D+01
 Coeff:      0.125D-02-0.191D-02-0.370D-01-0.621D-01 0.110D+01
 Gap=     0.461 Goal=   None    Shift=    0.000
 RMSDP=4.50D-06 MaxDP=1.00D-04 DE=-2.00D-06 OVMax= 2.03D-04

 Initial convergence to 1.0D-05 achieved.  Increase integral accuracy.
 Cycle   6  Pass 1  IDiag  1:
 E= -76.4217137090875     Delta-E=        0.000007475774 Rises=F Damp=F
 DIIS: error= 1.37D-05 at cycle   1 NSaved=   1.
 NSaved= 1 IEnMin= 1 EnMin= -76.4217137090875     IErMin= 1 ErrMin= 1.37D-05
 ErrMax= 1.37D-05  0.00D+00 EMaxC= 1.00D-01 BMatC= 9.43D-09 BMatP= 9.43D-09
 IDIUse=1 WtCom= 1.00D+00 WtEn= 0.00D+00
 Coeff-Com:  0.100D+01
 Coeff:      0.100D+01
 Gap=     0.461 Goal=   None    Shift=    0.000
 RMSDP=4.50D-06 MaxDP=1.00D-04 DE= 7.48D-06 OVMax= 4.40D-05

 Cycle   7  Pass 1  IDiag  1:
 E= -76.4217137173136     Delta-E=       -0.000000008226 Rises=F Damp=F
 DIIS: error= 1.26D-05 at cycle   2 NSaved=   2.
 NSaved= 2 IEnMin= 2 EnMin= -76.4217137173136     IErMin= 2 ErrMin= 1.26D-05
 ErrMax= 1.26D-05  0.00D+00 EMaxC= 1.00D-01 BMatC= 2.47D-09 BMatP= 9.43D-09
 IDIUse=1 WtCom= 1.00D+00 WtEn= 0.00D+00
 Coeff-Com:  0.246D+00 0.754D+00
 Coeff:      0.246D+00 0.754D+00
 Gap=     0.461 Goal=   None    Shift=    0.000
 RMSDP=4.31D-07 MaxDP=1.37D-05 DE=-8.23D-09 OVMax= 2.30D-05

 Cycle   8  Pass 1  IDiag  1:
 E= -76.4217137184552     Delta-E=       -0.000000001142 Rises=F Damp=F
 DIIS: error= 5.36D-06 at cycle   3 NSaved=   3.
 NSaved= 3 IEnMin= 3 EnMin= -76.4217137184552     IErMin= 3 ErrMin= 5.36D-06
 ErrMax= 5.36D-06  0.00D+00 EMaxC= 1.00D-01 BMatC= 1.02D-09 BMatP= 2.47D-09
 IDIUse=1 WtCom= 1.00D+00 WtEn= 0.00D+00
 Coeff-Com: -0.624D-01 0.388D+00 0.675D+00
 Coeff:     -0.624D-01 0.388D+00 0.675D+00
 Gap=     0.461 Goal=   None    Shift=    0.000
 RMSDP=1.91D-07 MaxDP=5.78D-06 DE=-1.14D-09 OVMax= 9.19D-06

 Cycle   9  Pass 1  IDiag  1:
 E= -76.4217137191562     Delta-E=       -0.000000000701 Rises=F Damp=F
 DIIS: error= 4.38D-07 at cycle   4 NSaved=   4.
 NSaved= 4 IEnMin= 4 EnMin= -76.4217137191562     IErMin= 4 ErrMin= 4.38D-07
 ErrMax= 4.38D-07  0.00D+00 EMaxC= 1.00D-01 BMatC= 2.72D-12 BMatP= 1.02D-09
 IDIUse=1 WtCom= 1.00D+00 WtEn= 0.00D+00
 Coeff-Com: -0.150D-02-0.284D-01-0.367D-01 0.107D+01
 Coeff:     -0.150D-02-0.284D-01-0.367D-01 0.107D+01
 Gap=     0.461 Goal=   None    Shift=    0.000
 RMSDP=3.15D-08 MaxDP=5.65D-07 DE=-7.01D-10 OVMax= 1.34D-06

 Cycle  10  Pass 1  IDiag  1:
 E= -76.4217137191620     Delta-E=       -0.000000000006 Rises=F Damp=F
 DIIS: error= 7.45D-08 at cycle   5 NSaved=   5.
 NSaved= 5 IEnMin= 5 EnMin= -76.4217137191620     IErMin= 5 ErrMin= 7.45D-08
 ErrMax= 7.45D-08  0.00D+00 EMaxC= 1.00D-01 BMatC= 2.15D-13 BMatP= 2.72D-12
 IDIUse=1 WtCom= 1.00D+00 WtEn= 0.00D+00
 Coeff-Com:  0.354D-02-0.293D-01-0.473D-01 0.153D+00 0.920D+00
 Coeff:      0.354D-02-0.293D-01-0.473D-01 0.153D+00 0.920D+00
 Gap=     0.461 Goal=   None    Shift=    0.000
 RMSDP=7.50D-09 MaxDP=1.20D-07 DE=-5.87D-12 OVMax= 3.33D-07

 SCF Done:  E(RM062X) =  -76.4217137192     A.U. after   10 cycles
            NFock= 10  Conv=0.75D-08     -V/T= 2.0030
 KE= 7.619258148485D+01 PE=-1.990300557124D+02 EE= 3.732410153286D+01
 Leave Link  502 at Mon Feb 20 09:17:12 2023, MaxMem=  6710886400 cpu:              14.3 elap:               0.7
 (Enter /data0/home/software/g16/l601.exe)
 Copying SCF densities to generalized density rwf, IOpCl= 0 IROHF=0.

 **********************************************************************

            Population analysis using the SCF density.

 **********************************************************************

 Alpha  occ. eigenvalues --  -19.62701  -1.13393  -0.60362  -0.47816  -0.40013
 Alpha virt. eigenvalues --    0.06119   0.09991   0.13202   0.16570   0.17454
 Alpha virt. eigenvalues --    0.18508   0.18707   0.18936   0.19566   0.23624
 Alpha virt. eigenvalues --    0.29248   0.31530   0.50967   0.53428   0.56037
 Alpha virt. eigenvalues --    0.78474   0.80008   0.80914   0.98215   1.00274
 Alpha virt. eigenvalues --    1.03164   1.05934   1.12608   1.17107   1.20273
 Alpha virt. eigenvalues --    1.31763   1.34190   1.70892   1.74426   1.75182
 Alpha virt. eigenvalues --    1.85272   1.88450   1.98405   2.07265   2.09767
 Alpha virt. eigenvalues --    2.20522   2.30904   2.36274   2.39193   2.51138
 Alpha virt. eigenvalues --    2.55149   2.59698   2.68672   2.73396   2.74785
 Alpha virt. eigenvalues --    2.78399   2.87689   3.00622   3.01371   3.09939
 Alpha virt. eigenvalues --    3.59512   3.65257   4.61840   5.05730   5.26590
 Alpha virt. eigenvalues --    5.49282   5.90300   6.78569   6.79949   6.87322
 Alpha virt. eigenvalues --    6.91798   7.09427  10.25024  10.28729  10.33839
 Alpha virt. eigenvalues --   10.42252  10.58352  13.38652  13.77188  14.29149
 Alpha virt. eigenvalues --   18.38385  49.95491 139.74208
          Condensed to atoms (all electrons):
               1          2          3          4          5          6
     1  O    0.000018  -0.000008  -0.000011  -0.000001  -0.000000  -0.000000
     2  H   -0.000008   0.000006   0.000004   0.000008   0.000001   0.000000
     3  H   -0.000011   0.000004   0.000007   0.000000   0.000000  -0.000000
     4  O   -0.000001   0.000008   0.000000   7.918448   0.315573   0.317246
     5  H   -0.000000   0.000001   0.000000   0.315573   0.431617  -0.023567
     6  H   -0.000000   0.000000  -0.000000   0.317246  -0.023567   0.431415
 Mulliken charges:
               1
     1  O    0.000003
     2  H   -0.000011
     3  H   -0.000001
     4  O   -0.551274
     5  H    0.276377
     6  H    0.274906
 Sum of Mulliken charges =  -0.00000
 Mulliken charges with hydrogens summed into heavy atoms:
               1
     1  O   -0.000009
     4  O    0.000009
         Mulliken charges condensed to fragments:
      1     -0.000009
      2      0.000009
 Electronic spatial extent (au):  <R**2>=          14042.2322
 Charge=             -0.0000 electrons
 Dipole moment (field-independent basis, Debye):
    X=              1.2775    Y=              1.7175    Z=             -0.1355  Tot=              2.1448
 Quadrupole moment (field-independent basis, Debye-Ang):
   XX=             33.5135   YY=             33.5457   ZZ=             -8.2542
   XY=             40.5681   XZ=              3.2633   YZ=              8.0536
 Traceless Quadrupole moment (field-independent basis, Debye-Ang):
   XX=             13.9118   YY=             13.9440   ZZ=            -27.8559
   XY=             40.5681   XZ=              3.2633   YZ=              8.0536
 Octapole moment (field-independent basis, Debye-Ang**2):
  XXX=            641.3323  YYY=            478.2360  ZZZ=           -115.9360  XYY=            672.4748
  XXY=            775.6090  XXZ=            102.4443  XZZ=           -105.2136  YZZ=            -40.8597
  YYZ=            173.0995  XYZ=            182.5507
 Hexadecapole moment (field-independent basis, Debye-Ang**3):
 XXXX=          10473.3026 YYYY=           5821.4235 ZZZZ=          -1156.1805 XXXY=          13264.1606
 XXXZ=           1925.6746 YYYX=           9083.2032 YYYZ=           2582.7781 ZZZX=          -1698.3122
 ZZZY=          -1028.2706 XXYY=          11994.1326 XXZZ=          -1441.5903 YYZZ=             -2.1573
 XXYZ=           3367.8948 YYXZ=           3304.6369 ZZXY=           -393.1696
 N-N= 9.091658975548D+00 E-N=-1.990300555936D+02  KE= 7.619258148485D+01
 No NMR shielding tensors so no spin-rotation constants.
 Leave Link  601 at Mon Feb 20 09:17:12 2023, MaxMem=  6710886400 cpu:               1.9 elap:               0.1
 (Enter /data0/home/software/g16/l122.exe)
 CPIOFr:  IOpCl= 0 IRwI=-1 IRwCP=  731 ICalc=  2 LCPTot=       10496 Len1MO=       26312 IndFrg=       89432
 Counterpoise: doing calculation for fragment   1 using the basis set of the fragment.
 Leave Link  122 at Mon Feb 20 09:17:12 2023, MaxMem=  6710886400 cpu:               0.1 elap:               0.0
 (Enter /data0/home/software/g16/l301.exe)
 Basis read from rwf:  (5D, 7F)
 No pseudopotential information found on rwf file.
    39 basis functions,    58 primitive gaussians,    41 cartesian basis functions
     5 alpha electrons        5 beta electrons
       nuclear repulsion energy         9.0682001657 Hartrees.
 IExCor= 4336 DFT=T Ex+Corr=M062X ExCW=0 ScaHFX=  0.540000
 ScaDFX=  1.000000  1.000000  1.000000  1.000000 ScalE2=  1.000000  1.000000
 IRadAn=      5 IRanWt=     -1 IRanGd=            0 ICorTp=0 IEmpDi=131
 NAtoms=    6 NActive=    3 NUniq=    3 SFac= 1.00D+00 NAtFMM=   60 NAOKFM=F Big=F
 Integral buffers will be    131072 words long.
 Raffenetti 2 integral format.
 Two-electron integral symmetry is turned off.
 R6Disp:  Grimme-D3 Dispersion energy=       -0.0000000084 Hartrees.
 Nuclear repulsion after empirical dispersion term =        9.0682001573 Hartrees.
 No density basis found on file   718.
 Leave Link  301 at Mon Feb 20 09:17:12 2023, MaxMem=  6710886400 cpu:               1.3 elap:               0.1
 (Enter /data0/home/software/g16/l302.exe)
 NPDir=0 NMtPBC=     1 NCelOv=     1 NCel=       1 NClECP=     1 NCelD=      1
         NCelK=      1 NCelE2=     1 NClLst=     1 CellRange=     0.0.
 One-electron integrals computed using PRISM.
 NBasis=    39 RedAO= T EigKep=  3.13D-03  NBF=    39
 NBsUse=    39 1.00D-06 EigRej= -1.00D+00 NBFU=    39
 Precomputing XC quadrature grid using
 IXCGrd= 4 IRadAn=           5 IRanWt=          -1 IRanGd=           0 AccXCQ= 0.00D+00.
 Generated NRdTot=       0 NPtTot=           0 NUsed=           0 NTot=          32
 NSgBfM=    41    41    41    41    41 MxSgAt=     3 MxSgA2=     3.
 Leave Link  302 at Mon Feb 20 09:17:12 2023, MaxMem=  6710886400 cpu:               2.3 elap:               0.1
 (Enter /data0/home/software/g16/l303.exe)
 DipDrv:  MaxL=1.
 Leave Link  303 at Mon Feb 20 09:17:12 2023, MaxMem=  6710886400 cpu:               0.4 elap:               0.0
 (Enter /data0/home/software/g16/l401.exe)
 ExpMin= 8.45D-02 ExpMax= 8.59D+03 ExpMxC= 1.30D+03 IAcc=3 IRadAn=         5 AccDes= 0.00D+00
 Harris functional with IExCor= 1009 and IRadAn=       5 diagonalized for initial guess.
 HarFok:  IExCor= 1009 AccDes= 0.00D+00 IRadAn=         5 IDoV= 1 UseB2=F ITyADJ=14
 ICtDFT=  3500011 ScaDFX=  1.000000  1.000000  1.000000  1.000000
 FoFCou: FMM=F IPFlag=           0 FMFlag=      100000 FMFlg1=           0
         NFxFlg=           0 DoJE=T BraDBF=F KetDBF=T FulRan=T
         wScrn=  0.000000 ICntrl=       500 IOpCl=  0 I1Cent=   200000004 NGrid=           0
         NMat0=    1 NMatS0=      1 NMatT0=    0 NMatD0=    1 NMtDS0=    0 NMtDT0=    0
 Symmetry not used in FoFCou.
 Harris En= -76.4156716688074    
 JPrj=0 DoOrth=F DoCkMO=F.
 Leave Link  401 at Mon Feb 20 09:17:12 2023, MaxMem=  6710886400 cpu:               2.9 elap:               0.1
 (Enter /data0/home/software/g16/l502.exe)
 Keep R1 ints in memory in canonical form, NReq=21036027.
 FoFCou: FMM=F IPFlag=           0 FMFlag=           0 FMFlg1=           0
         NFxFlg=           0 DoJE=F BraDBF=F KetDBF=F FulRan=T
         wScrn=  0.000000 ICntrl=       600 IOpCl=  0 I1Cent=           0 NGrid=           0
         NMat0=    1 NMatS0=    780 NMatT0=    0 NMatD0=    1 NMtDS0=    0 NMtDT0=    0
 Symmetry not used in FoFCou.
 Two-electron integral symmetry not used.
 Closed shell SCF:
 Using DIIS extrapolation, IDIIS=  1040.
 NGot=  6710886400 LenX=  6710576925 LenY=  6710574803
 Requested convergence on RMS density matrix=1.00D-08 within 128 cycles.
 Requested convergence on MAX density matrix=1.00D-06.
 Requested convergence on             energy=1.00D-06.
 No special actions if energy rises.
 Integral accuracy reduced to 1.0D-05 until final iterations.

 Cycle   1  Pass 0  IDiag  1:
 E= -76.3453764256750    
 DIIS: error= 7.00D-02 at cycle   1 NSaved=   1.
 NSaved= 1 IEnMin= 1 EnMin= -76.3453764256750     IErMin= 1 ErrMin= 7.00D-02
 ErrMax= 7.00D-02  0.00D+00 EMaxC= 1.00D-01 BMatC= 1.21D-01 BMatP= 1.21D-01
 IDIUse=3 WtCom= 3.00D-01 WtEn= 7.00D-01
 Coeff-Com:  0.100D+01
 Coeff-En:   0.100D+01
 Coeff:      0.100D+01
 Gap=     0.323 Goal=   None    Shift=    0.000
 GapD=    0.323 DampG=1.000 DampE=0.500 DampFc=0.5000 IDamp=-1.
 Damping current iteration by 5.00D-01
 RMSDP=7.88D-03 MaxDP=1.01D-01              OVMax= 1.68D-01

 Cycle   2  Pass 0  IDiag  1:
 E= -76.3766983385564     Delta-E=       -0.031321912881 Rises=F Damp=T
 DIIS: error= 1.10D-02 at cycle   2 NSaved=   2.
 NSaved= 2 IEnMin= 2 EnMin= -76.3766983385564     IErMin= 2 ErrMin= 1.10D-02
 ErrMax= 1.10D-02  0.00D+00 EMaxC= 1.00D-01 BMatC= 4.90D-03 BMatP= 1.21D-01
 IDIUse=3 WtCom= 8.90D-01 WtEn= 1.10D-01
 Coeff-Com:  0.840D-01 0.916D+00
 Coeff-En:   0.190D+00 0.810D+00
 Coeff:      0.958D-01 0.904D+00
 Gap=     0.456 Goal=   None    Shift=    0.000
 RMSDP=9.49D-04 MaxDP=1.41D-02 DE=-3.13D-02 OVMax= 1.01D-01

 Cycle   3  Pass 0  IDiag  1:
 E= -76.4207724271575     Delta-E=       -0.044074088601 Rises=F Damp=F
 DIIS: error= 2.23D-03 at cycle   3 NSaved=   3.
 NSaved= 3 IEnMin= 3 EnMin= -76.4207724271575     IErMin= 3 ErrMin= 2.23D-03
 ErrMax= 2.23D-03  0.00D+00 EMaxC= 1.00D-01 BMatC= 9.59D-05 BMatP= 4.90D-03
 IDIUse=3 WtCom= 9.78D-01 WtEn= 2.23D-02
 Coeff-Com: -0.202D-01 0.415D-01 0.979D+00
 Coeff-En:   0.000D+00 0.000D+00 0.100D+01
 Coeff:     -0.198D-01 0.406D-01 0.979D+00
 Gap=     0.460 Goal=   None    Shift=    0.000
 RMSDP=1.17D-04 MaxDP=1.11D-03 DE=-4.41D-02 OVMax= 3.38D-03

 Cycle   4  Pass 0  IDiag  1:
 E= -76.4208538502236     Delta-E=       -0.000081423066 Rises=F Damp=F
 DIIS: error= 4.22D-04 at cycle   4 NSaved=   4.
 NSaved= 4 IEnMin= 4 EnMin= -76.4208538502236     IErMin= 4 ErrMin= 4.22D-04
 ErrMax= 4.22D-04  0.00D+00 EMaxC= 1.00D-01 BMatC= 3.48D-06 BMatP= 9.59D-05
 IDIUse=3 WtCom= 9.96D-01 WtEn= 4.22D-03
 Coeff-Com: -0.207D-02-0.204D-02 0.167D+00 0.838D+00
 Coeff-En:   0.000D+00 0.000D+00 0.000D+00 0.100D+01
 Coeff:     -0.206D-02-0.203D-02 0.166D+00 0.838D+00
 Gap=     0.461 Goal=   None    Shift=    0.000
 RMSDP=2.25D-05 MaxDP=3.57D-04 DE=-8.14D-05 OVMax= 5.44D-04

 Cycle   5  Pass 0  IDiag  1:
 E= -76.4208559922222     Delta-E=       -0.000002141999 Rises=F Damp=F
 DIIS: error= 9.23D-05 at cycle   5 NSaved=   5.
 NSaved= 5 IEnMin= 5 EnMin= -76.4208559922222     IErMin= 5 ErrMin= 9.23D-05
 ErrMax= 9.23D-05  0.00D+00 EMaxC= 1.00D-01 BMatC= 8.84D-08 BMatP= 3.48D-06
 IDIUse=1 WtCom= 1.00D+00 WtEn= 0.00D+00
 Coeff-Com:  0.121D-02-0.185D-02-0.370D-01-0.721D-01 0.111D+01
 Coeff:      0.121D-02-0.185D-02-0.370D-01-0.721D-01 0.111D+01
 Gap=     0.461 Goal=   None    Shift=    0.000
 RMSDP=9.24D-06 MaxDP=1.05D-04 DE=-2.14D-06 OVMax= 2.09D-04

 Initial convergence to 1.0D-05 achieved.  Increase integral accuracy.
 Cycle   6  Pass 1  IDiag  1:
 E= -76.4208556492815     Delta-E=        0.000000342941 Rises=F Damp=F
 DIIS: error= 2.23D-05 at cycle   1 NSaved=   1.
 NSaved= 1 IEnMin= 1 EnMin= -76.4208556492815     IErMin= 1 ErrMin= 2.23D-05
 ErrMax= 2.23D-05  0.00D+00 EMaxC= 1.00D-01 BMatC= 2.44D-08 BMatP= 2.44D-08
 IDIUse=1 WtCom= 1.00D+00 WtEn= 0.00D+00
 Coeff-Com:  0.100D+01
 Coeff:      0.100D+01
 Gap=     0.461 Goal=   None    Shift=    0.000
 RMSDP=9.24D-06 MaxDP=1.05D-04 DE= 3.43D-07 OVMax= 4.87D-05

 Cycle   7  Pass 1  IDiag  1:
 E= -76.4208556695059     Delta-E=       -0.000000020224 Rises=F Damp=F
 DIIS: error= 1.16D-05 at cycle   2 NSaved=   2.
 NSaved= 2 IEnMin= 2 EnMin= -76.4208556695059     IErMin= 2 ErrMin= 1.16D-05
 ErrMax= 1.16D-05  0.00D+00 EMaxC= 1.00D-01 BMatC= 2.05D-09 BMatP= 2.44D-08
 IDIUse=1 WtCom= 1.00D+00 WtEn= 0.00D+00
 Coeff-Com:  0.709D-01 0.929D+00
 Coeff:      0.709D-01 0.929D+00
 Gap=     0.461 Goal=   None    Shift=    0.000
 RMSDP=9.90D-07 MaxDP=1.37D-05 DE=-2.02D-08 OVMax= 2.56D-05

 Cycle   8  Pass 1  IDiag  1:
 E= -76.4208556698605     Delta-E=       -0.000000000355 Rises=F Damp=F
 DIIS: error= 8.58D-06 at cycle   3 NSaved=   3.
 NSaved= 3 IEnMin= 3 EnMin= -76.4208556698605     IErMin= 3 ErrMin= 8.58D-06
 ErrMax= 8.58D-06  0.00D+00 EMaxC= 1.00D-01 BMatC= 1.91D-09 BMatP= 2.05D-09
 IDIUse=1 WtCom= 1.00D+00 WtEn= 0.00D+00
 Coeff-Com: -0.438D-01 0.503D+00 0.541D+00
 Coeff:     -0.438D-01 0.503D+00 0.541D+00
 Gap=     0.461 Goal=   None    Shift=    0.000
 RMSDP=4.95D-07 MaxDP=6.91D-06 DE=-3.55D-10 OVMax= 1.12D-05

 Cycle   9  Pass 1  IDiag  1:
 E= -76.4208556711122     Delta-E=       -0.000000001252 Rises=F Damp=F
 DIIS: error= 8.01D-07 at cycle   4 NSaved=   4.
 NSaved= 4 IEnMin= 4 EnMin= -76.4208556711122     IErMin= 4 ErrMin= 8.01D-07
 ErrMax= 8.01D-07  0.00D+00 EMaxC= 1.00D-01 BMatC= 6.99D-12 BMatP= 1.91D-09
 IDIUse=1 WtCom= 1.00D+00 WtEn= 0.00D+00
 Coeff-Com: -0.497D-02 0.967D-02 0.397D-01 0.956D+00
 Coeff:     -0.497D-02 0.967D-02 0.397D-01 0.956D+00
 Gap=     0.461 Goal=   None    Shift=    0.000
 RMSDP=8.78D-08 MaxDP=5.67D-07 DE=-1.25D-09 OVMax= 1.79D-06

 Cycle  10  Pass 1  IDiag  1:
 E= -76.4208556711228     Delta-E=       -0.000000000011 Rises=F Damp=F
 DIIS: error= 1.19D-07 at cycle   5 NSaved=   5.
 NSaved= 5 IEnMin= 5 EnMin= -76.4208556711228     IErMin= 5 ErrMin= 1.19D-07
 ErrMax= 1.19D-07  0.00D+00 EMaxC= 1.00D-01 BMatC= 3.76D-13 BMatP= 6.99D-12
 IDIUse=1 WtCom= 1.00D+00 WtEn= 0.00D+00
 Coeff-Com:  0.265D-02-0.331D-01-0.334D-01 0.246D-01 0.104D+01
 Coeff:      0.265D-02-0.331D-01-0.334D-01 0.246D-01 0.104D+01
 Gap=     0.461 Goal=   None    Shift=    0.000
 RMSDP=3.53D-08 MaxDP=2.34D-07 DE=-1.05D-11 OVMax= 6.24D-07

 Cycle  11  Pass 1  IDiag  1:
 E= -76.4208556711236     Delta-E=       -0.000000000001 Rises=F Damp=F
 DIIS: error= 1.67D-08 at cycle   6 NSaved=   6.
 NSaved= 6 IEnMin= 6 EnMin= -76.4208556711236     IErMin= 6 ErrMin= 1.67D-08
 ErrMax= 1.67D-08  0.00D+00 EMaxC= 1.00D-01 BMatC= 6.79D-15 BMatP= 3.76D-13
 IDIUse=1 WtCom= 1.00D+00 WtEn= 0.00D+00
 Coeff-Com:  0.941D-04-0.607D-04-0.532D-03-0.245D-01-0.564D-01 0.108D+01
 Coeff:      0.941D-04-0.607D-04-0.532D-03-0.245D-01-0.564D-01 0.108D+01
 Gap=     0.461 Goal=   None    Shift=    0.000
 RMSDP=5.84D-09 MaxDP=5.20D-08 DE=-7.96D-13 OVMax= 1.17D-07

 SCF Done:  E(RM062X) =  -76.4208556711     A.U. after   11 cycles
            NFock= 11  Conv=0.58D-08     -V/T= 2.0031
 KE= 7.618256695390D+01 PE=-1.989835712632D+02 EE= 3.731194848088D+01
 Leave Link  502 at Mon Feb 20 09:17:13 2023, MaxMem=  6710886400 cpu:               8.8 elap:               0.4
 (Enter /data0/home/software/g16/l601.exe)
 Copying SCF densities to generalized density rwf, IOpCl= 0 IROHF=0.

 **********************************************************************

            Population analysis using the SCF density.

 **********************************************************************

 Alpha  occ. eigenvalues --  -19.62616  -1.13142  -0.60751  -0.47279  -0.39930
 Alpha virt. eigenvalues --    0.06167   0.13257   0.17398   0.17957   0.18965
 Alpha virt. eigenvalues --    0.23235   0.50105   0.53926   0.97763   1.00464
 Alpha virt. eigenvalues --    1.06030   1.19168   1.19627   1.32667   1.34048
 Alpha virt. eigenvalues --    1.68724   1.73572   1.75931   2.06178   2.10110
 Alpha virt. eigenvalues --    2.34444   2.42860   2.53985   2.87471   3.01185
 Alpha virt. eigenvalues --    5.05684   5.46243   5.92050   6.78158   6.80405
 Alpha virt. eigenvalues --    6.86895   6.91408   7.09943  49.95661
          Condensed to atoms (all electrons):
               1          2          3
     1  O    7.919411   0.316795   0.324523
     2  H    0.316795   0.423727  -0.024364
     3  H    0.324523  -0.024364   0.422956
 Mulliken charges:
               1
     1  O   -0.560729
     2  H    0.283843
     3  H    0.276886
     4  O    0.000000
     5  H    0.000000
     6  H    0.000000
 Sum of Mulliken charges =  -0.00000
 Mulliken charges with hydrogens summed into heavy atoms:
               1
     1  O   -0.000000
     4  O    0.000000
         Mulliken charges condensed to fragments:
      1     -0.000000
      2      0.000000
 Electronic spatial extent (au):  <R**2>=          20812.1290
 Charge=             -0.0000 electrons
 Dipole moment (field-independent basis, Debye):
    X=              0.5580    Y=              1.7851    Z=             -0.9673  Tot=              2.1056
 Quadrupole moment (field-independent basis, Debye-Ang):
   XX=             11.4240   YY=             41.9659   ZZ=            -25.5116
   XY=             38.3190   XZ=             -9.6969   YZ=              6.6700
 Traceless Quadrupole moment (field-independent basis, Debye-Ang):
   XX=              2.1312   YY=             32.6731   ZZ=            -34.8043
   XY=             38.3190   XZ=             -9.6969   YZ=              6.6700
 Octapole moment (field-independent basis, Debye-Ang**2):
  XXX=            101.8695  YYY=            724.6373  ZZZ=           -488.8742  XYY=            828.0903
  XXY=            685.1999  XXZ=           -131.4043  XZZ=           -352.4626  YZZ=           -125.8861
  YYZ=            289.7639  XYZ=            209.3642
 Hexadecapole moment (field-independent basis, Debye-Ang**3):
 XXXX=          -1924.4181 YYYY=          10801.8815 ZZZZ=          -8145.5455 XXXY=          10533.6912
 XXXZ=          -3014.2473 YYYX=          13977.2785 YYYZ=           5720.1664 ZZZX=          -7336.7812
 ZZZY=          -4174.7313 XXYY=          14652.8193 XXZZ=          -5488.4220 YYZZ=            536.0768
 XXYZ=           4095.3466 YYXZ=           6299.7388 ZZXY=           -989.1707
 N-N= 9.068200157329D+00 E-N=-1.989835713323D+02  KE= 7.618256695390D+01
 No NMR shielding tensors so no spin-rotation constants.
 Leave Link  601 at Mon Feb 20 09:17:13 2023, MaxMem=  6710886400 cpu:               1.8 elap:               0.1
 (Enter /data0/home/software/g16/l122.exe)
 CPIOFr:  IOpCl= 0 IRwI=-1 IRwCP=  731 ICalc=  3 LCPTot=       10496 Len1MO=       26312 IndFrg=      115744
 Counterpoise: doing calculation for fragment   2 using the basis set of the fragment.
 Leave Link  122 at Mon Feb 20 09:17:13 2023, MaxMem=  6710886400 cpu:               0.1 elap:               0.0
 (Enter /data0/home/software/g16/l301.exe)
 Basis read from rwf:  (5D, 7F)
 No pseudopotential information found on rwf file.
    39 basis functions,    58 primitive gaussians,    41 cartesian basis functions
     5 alpha electrons        5 beta electrons
       nuclear repulsion energy         9.0916589827 Hartrees.
 IExCor= 4336 DFT=T Ex+Corr=M062X ExCW=0 ScaHFX=  0.540000
 ScaDFX=  1.000000  1.000000  1.000000  1.000000 ScalE2=  1.000000  1.000000
 IRadAn=      5 IRanWt=     -1 IRanGd=            0 ICorTp=0 IEmpDi=131
 NAtoms=    6 NActive=    3 NUniq=    3 SFac= 1.00D+00 NAtFMM=   60 NAOKFM=F Big=F
 Integral buffers will be    131072 words long.
 Raffenetti 2 integral format.
 Two-electron integral symmetry is turned off.
 R6Disp:  Grimme-D3 Dispersion energy=       -0.0000000072 Hartrees.
 Nuclear repulsion after empirical dispersion term =        9.0916589755 Hartrees.
 No density basis found on file   718.
 Leave Link  301 at Mon Feb 20 09:17:13 2023, MaxMem=  6710886400 cpu:               1.2 elap:               0.1
 (Enter /data0/home/software/g16/l302.exe)
 NPDir=0 NMtPBC=     1 NCelOv=     1 NCel=       1 NClECP=     1 NCelD=      1
         NCelK=      1 NCelE2=     1 NClLst=     1 CellRange=     0.0.
 One-electron integrals computed using PRISM.
 NBasis=    39 RedAO= T EigKep=  2.98D-03  NBF=    39
 NBsUse=    39 1.00D-06 EigRej= -1.00D+00 NBFU=    39
 Precomputing XC quadrature grid using
 IXCGrd= 4 IRadAn=           5 IRanWt=          -1 IRanGd=           0 AccXCQ= 0.00D+00.
 Generated NRdTot=       0 NPtTot=           0 NUsed=           0 NTot=          32
 NSgBfM=    41    41    41    41    41 MxSgAt=     3 MxSgA2=     3.
 Leave Link  302 at Mon Feb 20 09:17:13 2023, MaxMem=  6710886400 cpu:               2.2 elap:               0.1
 (Enter /data0/home/software/g16/l303.exe)
 DipDrv:  MaxL=1.
 Leave Link  303 at Mon Feb 20 09:17:13 2023, MaxMem=  6710886400 cpu:               0.4 elap:               0.0
 (Enter /data0/home/software/g16/l401.exe)
 ExpMin= 8.45D-02 ExpMax= 8.59D+03 ExpMxC= 1.30D+03 IAcc=3 IRadAn=         5 AccDes= 0.00D+00
 Harris functional with IExCor= 1009 and IRadAn=       5 diagonalized for initial guess.
 HarFok:  IExCor= 1009 AccDes= 0.00D+00 IRadAn=         5 IDoV= 1 UseB2=F ITyADJ=14
 ICtDFT=  3500011 ScaDFX=  1.000000  1.000000  1.000000  1.000000
 FoFCou: FMM=F IPFlag=           0 FMFlag=      100000 FMFlg1=           0
         NFxFlg=           0 DoJE=T BraDBF=F KetDBF=T FulRan=T
         wScrn=  0.000000 ICntrl=       500 IOpCl=  0 I1Cent=   200000004 NGrid=           0
         NMat0=    1 NMatS0=      1 NMatT0=    0 NMatD0=    1 NMtDS0=    0 NMtDT0=    0
 Symmetry not used in FoFCou.
 Harris En= -76.4161932878363    
 JPrj=0 DoOrth=F DoCkMO=F.
 Leave Link  401 at Mon Feb 20 09:17:13 2023, MaxMem=  6710886400 cpu:               2.9 elap:               0.1
 (Enter /data0/home/software/g16/l502.exe)
 Keep R1 ints in memory in canonical form, NReq=21036027.
 FoFCou: FMM=F IPFlag=           0 FMFlag=           0 FMFlg1=           0
         NFxFlg=           0 DoJE=F BraDBF=F KetDBF=F FulRan=T
         wScrn=  0.000000 ICntrl=       600 IOpCl=  0 I1Cent=           0 NGrid=           0
         NMat0=    1 NMatS0=    780 NMatT0=    0 NMatD0=    1 NMtDS0=    0 NMtDT0=    0
 Symmetry not used in FoFCou.
 Two-electron integral symmetry not used.
 Closed shell SCF:
 Using DIIS extrapolation, IDIIS=  1040.
 NGot=  6710886400 LenX=  6710576925 LenY=  6710574803
 Requested convergence on RMS density matrix=1.00D-08 within 128 cycles.
 Requested convergence on MAX density matrix=1.00D-06.
 Requested convergence on             energy=1.00D-06.
 No special actions if energy rises.
 Integral accuracy reduced to 1.0D-05 until final iterations.

 Cycle   1  Pass 0  IDiag  1:
 E= -76.3466922899491    
 DIIS: error= 6.98D-02 at cycle   1 NSaved=   1.
 NSaved= 1 IEnMin= 1 EnMin= -76.3466922899491     IErMin= 1 ErrMin= 6.98D-02
 ErrMax= 6.98D-02  0.00D+00 EMaxC= 1.00D-01 BMatC= 1.20D-01 BMatP= 1.20D-01
 IDIUse=3 WtCom= 3.02D-01 WtEn= 6.98D-01
 Coeff-Com:  0.100D+01
 Coeff-En:   0.100D+01
 Coeff:      0.100D+01
 Gap=     0.325 Goal=   None    Shift=    0.000
 GapD=    0.325 DampG=1.000 DampE=0.500 DampFc=0.5000 IDamp=-1.
 Damping current iteration by 5.00D-01
 RMSDP=8.00D-03 MaxDP=1.00D-01              OVMax= 1.67D-01

 Cycle   2  Pass 0  IDiag  1:
 E= -76.3779006690756     Delta-E=       -0.031208379127 Rises=F Damp=T
 DIIS: error= 1.13D-02 at cycle   2 NSaved=   2.
 NSaved= 2 IEnMin= 2 EnMin= -76.3779006690756     IErMin= 2 ErrMin= 1.13D-02
 ErrMax= 1.13D-02  0.00D+00 EMaxC= 1.00D-01 BMatC= 4.84D-03 BMatP= 1.20D-01
 IDIUse=3 WtCom= 8.87D-01 WtEn= 1.13D-01
 Coeff-Com:  0.833D-01 0.917D+00
 Coeff-En:   0.189D+00 0.811D+00
 Coeff:      0.953D-01 0.905D+00
 Gap=     0.457 Goal=   None    Shift=    0.000
 RMSDP=9.51D-04 MaxDP=1.41D-02 DE=-3.12D-02 OVMax= 1.00D-01

 Cycle   3  Pass 0  IDiag  1:
 E= -76.4216417513734     Delta-E=       -0.043741082298 Rises=F Damp=F
 DIIS: error= 2.15D-03 at cycle   3 NSaved=   3.
 NSaved= 3 IEnMin= 3 EnMin= -76.4216417513734     IErMin= 3 ErrMin= 2.15D-03
 ErrMax= 2.15D-03  0.00D+00 EMaxC= 1.00D-01 BMatC= 9.00D-05 BMatP= 4.84D-03
 IDIUse=3 WtCom= 9.78D-01 WtEn= 2.15D-02
 Coeff-Com: -0.199D-01 0.389D-01 0.981D+00
 Coeff-En:   0.000D+00 0.000D+00 0.100D+01
 Coeff:     -0.195D-01 0.381D-01 0.981D+00
 Gap=     0.461 Goal=   None    Shift=    0.000
 RMSDP=1.14D-04 MaxDP=9.82D-04 DE=-4.37D-02 OVMax= 3.31D-03

 Cycle   4  Pass 0  IDiag  1:
 E= -76.4217186575869     Delta-E=       -0.000076906214 Rises=F Damp=F
 DIIS: error= 4.13D-04 at cycle   4 NSaved=   4.
 NSaved= 4 IEnMin= 4 EnMin= -76.4217186575869     IErMin= 4 ErrMin= 4.13D-04
 ErrMax= 4.13D-04  0.00D+00 EMaxC= 1.00D-01 BMatC= 3.24D-06 BMatP= 9.00D-05
 IDIUse=3 WtCom= 9.96D-01 WtEn= 4.13D-03
 Coeff-Com: -0.185D-02-0.231D-02 0.161D+00 0.844D+00
 Coeff-En:   0.000D+00 0.000D+00 0.000D+00 0.100D+01
 Coeff:     -0.185D-02-0.230D-02 0.160D+00 0.844D+00
 Gap=     0.462 Goal=   None    Shift=    0.000
 RMSDP=2.22D-05 MaxDP=3.55D-04 DE=-7.69D-05 OVMax= 5.38D-04

 Cycle   5  Pass 0  IDiag  1:
 E= -76.4217206705179     Delta-E=       -0.000002012931 Rises=F Damp=F
 DIIS: error= 8.83D-05 at cycle   5 NSaved=   5.
 NSaved= 5 IEnMin= 5 EnMin= -76.4217206705179     IErMin= 5 ErrMin= 8.83D-05
 ErrMax= 8.83D-05  0.00D+00 EMaxC= 1.00D-01 BMatC= 8.18D-08 BMatP= 3.24D-06
 IDIUse=1 WtCom= 1.00D+00 WtEn= 0.00D+00
 Coeff-Com:  0.118D-02-0.180D-02-0.369D-01-0.617D-01 0.110D+01
 Coeff:      0.118D-02-0.180D-02-0.369D-01-0.617D-01 0.110D+01
 Gap=     0.462 Goal=   None    Shift=    0.000
 RMSDP=8.97D-06 MaxDP=1.01D-04 DE=-2.01D-06 OVMax= 2.02D-04

 Initial convergence to 1.0D-05 achieved.  Increase integral accuracy.
 Cycle   6  Pass 1  IDiag  1:
 E= -76.4217131788636     Delta-E=        0.000007491654 Rises=F Damp=F
 DIIS: error= 1.47D-05 at cycle   1 NSaved=   1.
 NSaved= 1 IEnMin= 1 EnMin= -76.4217131788636     IErMin= 1 ErrMin= 1.47D-05
 ErrMax= 1.47D-05  0.00D+00 EMaxC= 1.00D-01 BMatC= 9.51D-09 BMatP= 9.51D-09
 IDIUse=1 WtCom= 1.00D+00 WtEn= 0.00D+00
 Coeff-Com:  0.100D+01
 Coeff:      0.100D+01
 Gap=     0.462 Goal=   None    Shift=    0.000
 RMSDP=8.97D-06 MaxDP=1.01D-04 DE= 7.49D-06 OVMax= 4.44D-05

 Cycle   7  Pass 1  IDiag  1:
 E= -76.4217131870763     Delta-E=       -0.000000008213 Rises=F Damp=F
 DIIS: error= 1.36D-05 at cycle   2 NSaved=   2.
 NSaved= 2 IEnMin= 2 EnMin= -76.4217131870763     IErMin= 2 ErrMin= 1.36D-05
 ErrMax= 1.36D-05  0.00D+00 EMaxC= 1.00D-01 BMatC= 2.61D-09 BMatP= 9.51D-09
 IDIUse=1 WtCom= 1.00D+00 WtEn= 0.00D+00
 Coeff-Com:  0.256D+00 0.744D+00
 Coeff:      0.256D+00 0.744D+00
 Gap=     0.462 Goal=   None    Shift=    0.000
 RMSDP=8.74D-07 MaxDP=1.39D-05 DE=-8.21D-09 OVMax= 2.31D-05

 Cycle   8  Pass 1  IDiag  1:
 E= -76.4217131883082     Delta-E=       -0.000000001232 Rises=F Damp=F
 DIIS: error= 5.65D-06 at cycle   3 NSaved=   3.
 NSaved= 3 IEnMin= 3 EnMin= -76.4217131883082     IErMin= 3 ErrMin= 5.65D-06
 ErrMax= 5.65D-06  0.00D+00 EMaxC= 1.00D-01 BMatC= 1.01D-09 BMatP= 2.61D-09
 IDIUse=1 WtCom= 1.00D+00 WtEn= 0.00D+00
 Coeff-Com: -0.624D-01 0.379D+00 0.683D+00
 Coeff:     -0.624D-01 0.379D+00 0.683D+00
 Gap=     0.462 Goal=   None    Shift=    0.000
 RMSDP=3.83D-07 MaxDP=5.82D-06 DE=-1.23D-09 OVMax= 9.23D-06

 Cycle   9  Pass 1  IDiag  1:
 E= -76.4217131890068     Delta-E=       -0.000000000699 Rises=F Damp=F
 DIIS: error= 4.61D-07 at cycle   4 NSaved=   4.
 NSaved= 4 IEnMin= 4 EnMin= -76.4217131890068     IErMin= 4 ErrMin= 4.61D-07
 ErrMax= 4.61D-07  0.00D+00 EMaxC= 1.00D-01 BMatC= 2.72D-12 BMatP= 1.01D-09
 IDIUse=1 WtCom= 1.00D+00 WtEn= 0.00D+00
 Coeff-Com: -0.156D-02-0.276D-01-0.373D-01 0.107D+01
 Coeff:     -0.156D-02-0.276D-01-0.373D-01 0.107D+01
 Gap=     0.462 Goal=   None    Shift=    0.000
 RMSDP=6.29D-08 MaxDP=5.70D-07 DE=-6.99D-10 OVMax= 1.33D-06

 Cycle  10  Pass 1  IDiag  1:
 E= -76.4217131890125     Delta-E=       -0.000000000006 Rises=F Damp=F
 DIIS: error= 7.96D-08 at cycle   5 NSaved=   5.
 NSaved= 5 IEnMin= 5 EnMin= -76.4217131890125     IErMin= 5 ErrMin= 7.96D-08
 ErrMax= 7.96D-08  0.00D+00 EMaxC= 1.00D-01 BMatC= 2.15D-13 BMatP= 2.72D-12
 IDIUse=1 WtCom= 1.00D+00 WtEn= 0.00D+00
 Coeff-Com:  0.353D-02-0.286D-01-0.478D-01 0.152D+00 0.921D+00
 Coeff:      0.353D-02-0.286D-01-0.478D-01 0.152D+00 0.921D+00
 Gap=     0.462 Goal=   None    Shift=    0.000
 RMSDP=1.50D-08 MaxDP=1.21D-07 DE=-5.67D-12 OVMax= 3.34D-07

 Cycle  11  Pass 1  IDiag  1:
 E= -76.4217131890130     Delta-E=       -0.000000000000 Rises=F Damp=F
 DIIS: error= 1.47D-08 at cycle   6 NSaved=   6.
 NSaved= 6 IEnMin= 6 EnMin= -76.4217131890130     IErMin= 6 ErrMin= 1.47D-08
 ErrMax= 1.47D-08  0.00D+00 EMaxC= 1.00D-01 BMatC= 2.89D-15 BMatP= 2.15D-13
 IDIUse=1 WtCom= 1.00D+00 WtEn= 0.00D+00
 Coeff-Com: -0.672D-04 0.132D-02 0.301D-02-0.270D-01-0.458D-01 0.107D+01
 Coeff:     -0.672D-04 0.132D-02 0.301D-02-0.270D-01-0.458D-01 0.107D+01
 Gap=     0.462 Goal=   None    Shift=    0.000
 RMSDP=1.82D-09 MaxDP=1.40D-08 DE=-4.69D-13 OVMax= 4.03D-08

 SCF Done:  E(RM062X) =  -76.4217131890     A.U. after   11 cycles
            NFock= 11  Conv=0.18D-08     -V/T= 2.0030
 KE= 7.619259499413D+01 PE=-1.990300919545D+02 EE= 3.732412479577D+01
 Leave Link  502 at Mon Feb 20 09:17:14 2023, MaxMem=  6710886400 cpu:               8.8 elap:               0.4
 (Enter /data0/home/software/g16/l601.exe)
 Copying SCF densities to generalized density rwf, IOpCl= 0 IROHF=0.

 **********************************************************************

            Population analysis using the SCF density.

 **********************************************************************

 Alpha  occ. eigenvalues --  -19.62701  -1.13393  -0.60362  -0.47815  -0.40013
 Alpha virt. eigenvalues --    0.06206   0.13309   0.17428   0.17939   0.18889
 Alpha virt. eigenvalues --    0.23451   0.50877   0.53418   0.98190   1.00253
 Alpha virt. eigenvalues --    1.05997   1.17105   1.20271   1.31748   1.34024
 Alpha virt. eigenvalues --    1.70854   1.74410   1.75142   2.07265   2.09762
 Alpha virt. eigenvalues --    2.36252   2.39192   2.55115   2.87638   3.01339
 Alpha virt. eigenvalues --    5.05610   5.49274   5.90282   6.78569   6.79949
 Alpha virt. eigenvalues --    6.87320   6.91798   7.09420  49.95478
          Condensed to atoms (all electrons):
               4          5          6
     4  O    7.918560   0.315569   0.317225
     5  H    0.315569   0.431600  -0.023577
     6  H    0.317225  -0.023577   0.431405
 Mulliken charges:
               1
     1  O    0.000000
     2  H    0.000000
     3  H    0.000000
     4  O   -0.551354
     5  H    0.276407
     6  H    0.274947
 Sum of Mulliken charges =   0.00000
 Mulliken charges with hydrogens summed into heavy atoms:
               1
     1  O    0.000000
     4  O    0.000000
         Mulliken charges condensed to fragments:
      1      0.000000
      2      0.000000
 Electronic spatial extent (au):  <R**2>=          14042.2286
 Charge=              0.0000 electrons
 Dipole moment (field-independent basis, Debye):
    X=              1.2775    Y=              1.7175    Z=             -0.1353  Tot=              2.1448
 Quadrupole moment (field-independent basis, Debye-Ang):
   XX=             33.5147   YY=             33.5474   ZZ=             -8.2522
   XY=             40.5696   XZ=              3.2659   YZ=              8.0559
 Traceless Quadrupole moment (field-independent basis, Debye-Ang):
   XX=             13.9114   YY=             13.9441   ZZ=            -27.8555
   XY=             40.5696   XZ=              3.2659   YZ=              8.0559
 Octapole moment (field-independent basis, Debye-Ang**2):
  XXX=            641.3594  YYY=            478.2661  ZZZ=           -115.9149  XYY=            672.5064
  XXY=            775.6402  XXZ=            102.4903  XZZ=           -105.1797  YZZ=            -40.8321
  YYZ=            173.1325  XYZ=            182.5897
 Hexadecapole moment (field-independent basis, Debye-Ang**3):
 XXXX=          10473.8770 YYYY=           5821.9065 ZZZZ=          -1155.9799 XXXY=          13264.7631
 XXXZ=           1926.4665 YYYX=           9083.7412 YYYZ=           2583.2412 ZZZX=          -1697.9655
 ZZZY=          -1027.9953 XXYY=          11994.7151 XXZZ=          -1441.0249 YYZZ=             -1.7884
 XXYZ=           3368.5600 YYXZ=           3305.1928 ZZXY=           -392.7134
 N-N= 9.091658975548D+00 E-N=-1.990300921488D+02  KE= 7.619259499413D+01
 No NMR shielding tensors so no spin-rotation constants.
 Leave Link  601 at Mon Feb 20 09:17:14 2023, MaxMem=  6710886400 cpu:               1.8 elap:               0.1
 (Enter /data0/home/software/g16/l122.exe)
 CPIOFr:  IOpCl= 0 IRwI=-1 IRwCP=  731 ICalc=  4 LCPTot=       10496 Len1MO=       26312 IndFrg=      142056
 Restoring MOs from calculation   1 to rwf.
 CPIOFr:  IOpCl= 0 IRwI=-2 IRwCP=  731 ICalc=  0 LCPTot=       10496 Len1MO=       26312 IndFrg=       36808
 Counterpoise corrected energy =    -152.842049340239
                   BSSE energy =       0.000000623513
              sum of fragments =    -152.842568860137
           complexation energy =       0.33 kcal/mole (raw)
           complexation energy =       0.33 kcal/mole (corrected)
 Leave Link  122 at Mon Feb 20 09:17:14 2023, MaxMem=  6710886400 cpu:               0.1 elap:               0.0
 (Enter /data0/home/software/g16/l9999.exe)
 1\1\GINC-LOCALHOST\SP\RM062X\6-311+G(2d,p)\H4O2\WUHANYU\20-Feb-2023\0\
 \#p M062X/6-311+G(2d,p) nosymm em=GD3 counterpoise=2\\Title Card Requi
 red\\0,1\O,0,16.851678,13.426299,10.790383\H,0,16.803231,13.646007,9.8
 22427\H,0,17.208931,14.201785,11.202601\O,0,15.30982,11.375279,5.11147
 9\H,0,15.16866,12.272782,5.461565\H,0,16.171375,11.451377,4.686646\\Ve
 rsion=ES64L-G16RevA.03\HF=-76.4217132\RMSD=1.821e-09\Dipole=0.7205844,
 1.3706917,-0.4308942\Quadrupole=11.9312111,34.4131731,-46.3443842,58.3
 959731,-4.7023813,10.9291829\PG=C01 [X(H4O2)]\\@


 LOGIC IS A SYSTEMATIC METHOD OF COMING TO THE
 WRONG CONCLUSION WITH CONFIDENCE.
 Job cpu time:       0 days  0 hours  1 minutes 50.6 seconds.
 Elapsed time:       0 days  0 hours  0 minutes  5.5 seconds.
 File lengths (MBytes):  RWF=     10 Int=      0 D2E=      0 Chk=      3 Scr=      1
 Normal termination of Gaussian 16 at Mon Feb 20 09:17:14 2023.
