 Entering Gaussian System, Link 0=g16
 Initial command:
 /data0/home/software/g16/l1.exe "/data0/home/software/g16/scratch/Gau-3817964.inp" -scrdir="/data0/home/software/g16/scratch/"
 Default is to use a total of  22 processors:
                               22 via shared-memory
                                1 via Linda
 Entering Link 1 = /data0/home/software/g16/l1.exe PID=   3817965.
  
 Copyright (c) 1988,1990,1992,1993,1995,1998,2003,2009,2016,
            Gaussian, Inc.  All Rights Reserved.
  
 This is part of the Gaussian(R) 16 program.  It is based on
 the Gaussian(R) 09 system (copyright 2009, Gaussian, Inc.),
 the Gaussian(R) 03 system (copyright 2003, Gaussian, Inc.),
 the Gaussian(R) 98 system (copyright 1998, Gaussian, Inc.),
 the Gaussian(R) 94 system (copyright 1995, Gaussian, Inc.),
 the Gaussian 92(TM) system (copyright 1992, Gaussian, Inc.),
 the Gaussian 90(TM) system (copyright 1990, Gaussian, Inc.),
 the Gaussian 88(TM) system (copyright 1988, Gaussian, Inc.),
 the Gaussian 86(TM) system (copyright 1986, Carnegie Mellon
 University), and the Gaussian 82(TM) system (copyright 1983,
 Carnegie Mellon University). Gaussian is a federally registered
 trademark of Gaussian, Inc.
  
 This software contains proprietary and confidential information,
 including trade secrets, belonging to Gaussian, Inc.
  
 This software is provided under written license and may be
 used, copied, transmitted, or stored only in accord with that
 written license.
  
 The following legend is applicable only to US Government
 contracts under FAR:
  
                    RESTRICTED RIGHTS LEGEND
  
 Use, reproduction and disclosure by the US Government is
 subject to restrictions as set forth in subparagraphs (a)
 and (c) of the Commercial Computer Software - Restricted
 Rights clause in FAR 52.227-19.
  
 Gaussian, Inc.
 340 Quinnipiac St., Bldg. 40, Wallingford CT 06492
  
  
 ---------------------------------------------------------------
 Warning -- This program may not be used in any manner that
 competes with the business of Gaussian, Inc. or will provide
 assistance to any competitor of Gaussian, Inc.  The licensee
 of this program is prohibited from giving any competitor of
 Gaussian, Inc. access to this program.  By using this program,
 the user acknowledges that Gaussian, Inc. is engaged in the
 business of creating and licensing software in the field of
 computational chemistry and represents and warrants to the
 licensee that it is not a competitor of Gaussian, Inc. and that
 it will not use this program in any manner prohibited above.
 ---------------------------------------------------------------
  

 Cite this work as:
 Gaussian 16, Revision A.03,
 M. J. Frisch, G. W. Trucks, H. B. Schlegel, G. E. Scuseria, 
 M. A. Robb, J. R. Cheeseman, G. Scalmani, V. Barone, 
 G. A. Petersson, H. Nakatsuji, X. Li, M. Caricato, A. V. Marenich, 
 J. Bloino, B. G. Janesko, R. Gomperts, B. Mennucci, H. P. Hratchian, 
 J. V. Ortiz, A. F. Izmaylov, J. L. Sonnenberg, D. Williams-Young, 
 F. Ding, F. Lipparini, F. Egidi, J. Goings, B. Peng, A. Petrone, 
 T. Henderson, D. Ranasinghe, V. G. Zakrzewski, J. Gao, N. Rega, 
 G. Zheng, W. Liang, M. Hada, M. Ehara, K. Toyota, R. Fukuda, 
 J. Hasegawa, M. Ishida, T. Nakajima, Y. Honda, O. Kitao, H. Nakai, 
 T. Vreven, K. Throssell, J. A. Montgomery, Jr., J. E. Peralta, 
 F. Ogliaro, M. J. Bearpark, J. J. Heyd, E. N. Brothers, K. N. Kudin, 
 V. N. Staroverov, T. A. Keith, R. Kobayashi, J. Normand, 
 K. Raghavachari, A. P. Rendell, J. C. Burant, S. S. Iyengar, 
 J. Tomasi, M. Cossi, J. M. Millam, M. Klene, C. Adamo, R. Cammi, 
 J. W. Ochterski, R. L. Martin, K. Morokuma, O. Farkas, 
 J. B. Foresman, and D. J. Fox, Gaussian, Inc., Wallingford CT, 2016.
 
 ******************************************
 Gaussian 16:  ES64L-G16RevA.03 25-Dec-2016
                17-Dec-2022 
 ******************************************
 %nproc=24
 Will use up to   24 processors via shared memory.
 %mem=50GB
 ---------------------------------------------------
 #p M062X/6-311+G(2d,p) nosymm em=GD3 counterpoise=2
 ---------------------------------------------------
 1/38=1,62=2,172=1/1;
 2/12=2,15=1,17=6,18=5,40=1/2;
 1/38=1,53=2,62=2,63=1/22;
 3/5=4,6=6,7=112,11=2,25=1,30=1,74=-55,124=31/1,2,3;
 4//1;
 5/5=2,38=5/2;
 6/7=2,8=2,9=2,10=2,28=1/1;
 1/53=2,62=2,63=1/22;
 3/5=7,6=11,7=112,11=2,25=1,30=1,74=-55,82=7,124=31/1,2,3;
 4//1;
 5/5=2,38=5/2;
 6/7=2,8=2,9=2,10=2,28=1/1;
 1/53=2,62=2,63=1/22(-4);
 99/5=1,9=1/99;
 Leave Link    1 at Sat Dec 17 22:55:51 2022, MaxMem=  6710886400 cpu:               0.7 elap:               0.0
 (Enter /data0/home/software/g16/l101.exe)
 -------------------
 Title Card Required
 -------------------
 Symbolic Z-matrix:
 Charge =  0 Multiplicity = 1 in supermolecule
 Charge =  0 Multiplicity = 1 in fragment      1.
 Charge =  0 Multiplicity = 1 in fragment      2.
 C                     9.5491    11.94159   11.40796    
 C                     9.94576   10.571    11.5716    
 C                     11.25804   10.26036   11.94457    
 C                     12.13146   11.31325   12.14935    
 C                     11.73071   12.65918   11.98991    
 C                     10.44275   12.99571   11.61505    
 H                     11.56274   9.22187   12.05753    
 H                     13.16078   11.1103   12.44315    
 H                     12.46331   13.44571   12.16968    
 H                     10.12339   14.0271   11.47978    
 H                     7.66446   12.73158   10.76456    
 C                     7.83993   10.56747   10.9412    
 H                     6.85648   10.24462   10.62578    
 N                     8.20657   11.91168   11.02454    
 N                     8.85118   9.7521    11.27836    
 P                     9.41381   8.81613   8.09069    
 O                     8.60825   10.04555   8.06453    
 O                     9.10924   7.77639   9.24323    
 H                     9.07446   8.30175   10.16682    
 O                     9.16513   7.9479    6.78004    
 H                     9.73589   7.08973   6.86635    
 O                     10.99585   8.96347   8.12533    
 H                     11.27348   9.94604   8.31308    
 
 ITRead=  0  0  0  0  0  0  0  0  0  0  0  0  0  0  0  0  0  0  0  0
 ITRead=  0  0  0
 MicOpt= -1 -1 -1 -1 -1 -1 -1 -1 -1 -1 -1 -1 -1 -1 -1 -1 -1 -1 -1 -1
 MicOpt= -1 -1 -1
 NAtoms=     23 NQM=       23 NQMF=       0 NMMI=      0 NMMIF=      0
                NMic=       0 NMicF=      0.
                    Isotopes and Nuclear Properties:
 (Nuclear quadrupole moments (NQMom) in fm**2, nuclear magnetic moments (NMagM)
  in nuclear magnetons)

  Atom         1           2           3           4           5           6           7           8           9          10
 IAtWgt=          12          12          12          12          12          12           1           1           1           1
 AtmWgt=  12.0000000  12.0000000  12.0000000  12.0000000  12.0000000  12.0000000   1.0078250   1.0078250   1.0078250   1.0078250
 NucSpn=           0           0           0           0           0           0           1           1           1           1
 AtZEff=  -0.0000000  -0.0000000  -0.0000000  -0.0000000  -0.0000000  -0.0000000  -0.0000000  -0.0000000  -0.0000000  -0.0000000
 NQMom=    0.0000000   0.0000000   0.0000000   0.0000000   0.0000000   0.0000000   0.0000000   0.0000000   0.0000000   0.0000000
 NMagM=    0.0000000   0.0000000   0.0000000   0.0000000   0.0000000   0.0000000   2.7928460   2.7928460   2.7928460   2.7928460
 AtZNuc=   6.0000000   6.0000000   6.0000000   6.0000000   6.0000000   6.0000000   1.0000000   1.0000000   1.0000000   1.0000000

  Atom        11          12          13          14          15          16          17          18          19          20
 IAtWgt=           1          12           1          14          14          31          16          16           1          16
 AtmWgt=   1.0078250  12.0000000   1.0078250  14.0030740  14.0030740  30.9737634  15.9949146  15.9949146   1.0078250  15.9949146
 NucSpn=           1           0           1           2           2           1           0           0           1           0
 AtZEff=  -0.0000000  -0.0000000  -0.0000000  -0.0000000  -0.0000000  -0.0000000  -0.0000000  -0.0000000  -0.0000000  -0.0000000
 NQMom=    0.0000000   0.0000000   0.0000000   2.0440000   2.0440000   0.0000000   0.0000000   0.0000000   0.0000000   0.0000000
 NMagM=    2.7928460   0.0000000   2.7928460   0.4037610   0.4037610   1.1316000   0.0000000   0.0000000   2.7928460   0.0000000
 AtZNuc=   1.0000000   6.0000000   1.0000000   7.0000000   7.0000000  15.0000000   8.0000000   8.0000000   1.0000000   8.0000000

  Atom        21          22          23
 IAtWgt=           1          16           1
 AtmWgt=   1.0078250  15.9949146   1.0078250
 NucSpn=           1           0           1
 AtZEff=  -0.0000000  -0.0000000  -0.0000000
 NQMom=    0.0000000   0.0000000   0.0000000
 NMagM=    2.7928460   0.0000000   2.7928460
 AtZNuc=   1.0000000   8.0000000   1.0000000
 Leave Link  101 at Sat Dec 17 22:55:51 2022, MaxMem=  6710886400 cpu:               2.1 elap:               0.1
 (Enter /data0/home/software/g16/l202.exe)
                          Input orientation:                          
 ---------------------------------------------------------------------
 Center     Atomic      Atomic             Coordinates (Angstroms)
 Number     Number       Type             X           Y           Z
 ---------------------------------------------------------------------
      1          6           0        9.549098   11.941592   11.407958
      2          6           0        9.945762   10.570998   11.571605
      3          6           0       11.258038   10.260358   11.944571
      4          6           0       12.131459   11.313252   12.149349
      5          6           0       11.730713   12.659179   11.989909
      6          6           0       10.442750   12.995708   11.615049
      7          1           0       11.562743    9.221868   12.057530
      8          1           0       13.160784   11.110297   12.443149
      9          1           0       12.463315   13.445708   12.169676
     10          1           0       10.123394   14.027101   11.479776
     11          1           0        7.664455   12.731579   10.764559
     12          6           0        7.839934   10.567471   10.941198
     13          1           0        6.856480   10.244616   10.625775
     14          7           0        8.206568   11.911678   11.024535
     15          7           0        8.851178    9.752102   11.278363
     16         15           0        9.413813    8.816127    8.090691
     17          8           0        8.608246   10.045547    8.064532
     18          8           0        9.109237    7.776393    9.243230
     19          1           0        9.074463    8.301755   10.166820
     20          8           0        9.165128    7.947900    6.780038
     21          1           0        9.735893    7.089734    6.866354
     22          8           0       10.995854    8.963474    8.125328
     23          1           0       11.273483    9.946037    8.313078
 ---------------------------------------------------------------------
                    Distance matrix (angstroms):
                    1          2          3          4          5
     1  C    0.000000
     2  C    1.436193   0.000000
     3  C    2.456619   1.399167   0.000000
     4  C    2.759177   2.379496   1.383251   0.000000
     5  C    2.369186   2.778764   2.445367   1.413343   0.000000
     6  C    1.397377   2.475501   2.873224   2.442923   1.382975
     7  H    3.445810   2.161227   1.088148   2.169275   3.442077
     8  H    3.847980   3.374433   2.142760   1.089504   2.156285
     9  H    3.366785   3.867780   3.413183   2.158219   1.089793
    10  H    2.164329   3.461883   3.961288   3.441748   2.171387
    11  H    2.142410   3.244040   4.518097   4.887067   4.247491
    12  C    2.242167   2.198167   3.575543   4.520288   4.540176
    13  H    3.277458   3.247273   4.594908   5.593627   5.607952
    14  N    1.396530   2.263074   3.589539   4.126511   3.729652
    15  N    2.301685   1.398104   2.548555   3.735780   4.153206
    16  P    4.559725   3.934375   4.509918   5.485794   5.944828
    17  O    3.957106   3.790067   4.703429   5.541285   5.655922
    18  O    4.714701   3.732415   4.252608   5.485319   6.185304
    19  H    3.874805   2.807498   3.429945   4.727024   5.419083
    20  O    6.124921   5.518075   6.033252   6.996729   7.478043
    21  H    6.648427   5.856845   6.177222   7.175436   7.826164
    22  O    4.662397   3.945079   4.041938   4.796228   5.397522
    23  H    4.066205   3.573712   3.645103   4.162016   4.592307
                    6          7          8          9         10
     6  C    0.000000
     7  H    3.961318   0.000000
     8  H    3.410020   2.503717   0.000000
     9  H    2.143080   4.320235   2.452630   0.000000
    10  H    1.088145   5.049336   4.319904   2.507830   0.000000
    11  H    2.917537   5.402453   5.971252   5.051078   2.869894
    12  C    3.622853   4.112925   5.555354   5.582926   4.180107
    13  H    4.626932   5.024425   6.617892   6.638314   5.070428
    14  N    2.554278   4.423355   5.215260   4.667386   2.890758
    15  N    3.628697   2.870685   4.666275   5.242585   4.464831
    16  P    5.563156   4.529717   6.184408   6.882630   6.256489
    17  O    4.967396   5.035031   6.405590   6.578363   5.460068
    18  O    5.886003   4.003670   6.145684   7.207986   6.715802
    19  H    5.099291   3.257749   5.455969   6.477345   5.966883
    20  O    7.105633   5.934937   7.618192   8.375687   7.743545
    21  H    7.611194   5.901837   7.680849   8.715645   8.340317
    22  O    5.361249   3.981249   5.285769   6.212939   6.136271
    23  H    4.570954   3.824789   4.687739   5.341980   5.292047
                   11         12         13         14         15
    11  H    0.000000
    12  C    2.178384   0.000000
    13  H    2.618601   1.082085   0.000000
    14  N    1.016716   1.395800   2.181936   0.000000
    15  N    3.248013   1.342059   2.155751   2.267977   0.000000
    16  P    5.053770   3.697255   3.873911   4.432529   3.369549
    17  O    3.923730   3.022898   3.109386   3.522131   3.236331
    18  O    5.381051   3.504903   3.616417   4.592215   2.848120
    19  H    4.687084   2.693918   2.984091   3.810572   1.840894
    20  O    6.404062   5.092499   5.039291   5.886096   4.856813
    21  H    7.163608   5.682752   5.690127   6.548316   5.228456
    22  O    5.679998   4.523468   5.002797   4.987727   3.893995
    23  H    5.176300   4.368347   4.994760   4.541113   3.833808
                   16         17         18         19         20
    16  P    0.000000
    17  O    1.470067   0.000000
    18  O    1.581822   2.605644   0.000000
    19  H    2.165652   2.770881   1.063124   0.000000
    20  O    1.591689   2.521937   2.469788   3.406424   0.000000
    21  H    2.140834   3.382905   2.552203   3.577647   1.034249
    22  O    1.589265   2.622070   2.493630   2.880504   2.488524
    23  H    2.187356   2.678650   3.202577   3.312961   3.284498
                   21         22         23
    21  H    0.000000
    22  O    2.585231   0.000000
    23  H    3.551853   1.038151   0.000000
 Symmetry turned off by external request.
 Stoichiometry    C7H9N2O4P
 Framework group  C1[X(C7H9N2O4P)]
 Deg. of freedom    63
 Full point group                 C1      NOp   1
 Rotational constants (GHZ):           1.1663002           0.3794214           0.3410235
 Leave Link  202 at Sat Dec 17 22:55:51 2022, MaxMem=  6710886400 cpu:               0.1 elap:               0.0
 (Enter /data0/home/software/g16/l122.exe)
 Counterpoise: doing full-system calculation.
 Leave Link  122 at Sat Dec 17 22:55:51 2022, MaxMem=  6710886400 cpu:               0.1 elap:               0.0
 (Enter /data0/home/software/g16/l301.exe)
 Standard basis: 6-311+G(2d,p) (5D, 7F)
 Ernie: Thresh=  0.10000D-02 Tol=  0.10000D-05 Strict=F.
   440 basis functions,   674 primitive gaussians,   468 cartesian basis functions
    56 alpha electrons       56 beta electrons
       nuclear repulsion energy      1038.1792731382 Hartrees.
 IExCor= 4336 DFT=T Ex+Corr=M062X ExCW=0 ScaHFX=  0.540000
 ScaDFX=  1.000000  1.000000  1.000000  1.000000 ScalE2=  1.000000  1.000000
 IRadAn=      5 IRanWt=     -1 IRanGd=            0 ICorTp=0 IEmpDi=131
 NAtoms=   23 NActive=   23 NUniq=   23 SFac= 1.00D+00 NAtFMM=   60 NAOKFM=F Big=F
 Integral buffers will be    131072 words long.
 Raffenetti 2 integral format.
 Two-electron integral symmetry is turned off.
 R6Disp:  Grimme-D3 Dispersion energy=       -0.0010861188 Hartrees.
 Nuclear repulsion after empirical dispersion term =     1038.1781870194 Hartrees.
 Leave Link  301 at Sat Dec 17 22:55:51 2022, MaxMem=  6710886400 cpu:               1.1 elap:               0.1
 (Enter /data0/home/software/g16/l302.exe)
 NPDir=0 NMtPBC=     1 NCelOv=     1 NCel=       1 NClECP=     1 NCelD=      1
         NCelK=      1 NCelE2=     1 NClLst=     1 CellRange=     0.0.
 One-electron integrals computed using PRISM.
 NBasis=   440 RedAO= T EigKep=  1.13D-06  NBF=   440
 NBsUse=   440 1.00D-06 EigRej= -1.00D+00 NBFU=   440
 Precomputing XC quadrature grid using
 IXCGrd= 4 IRadAn=           5 IRanWt=          -1 IRanGd=           0 AccXCQ= 0.00D+00.
 Generated NRdTot=       0 NPtTot=           0 NUsed=           0 NTot=          32
 NSgBfM=   467   467   467   467   467 MxSgAt=    23 MxSgA2=    23.
 Leave Link  302 at Sat Dec 17 22:55:52 2022, MaxMem=  6710886400 cpu:               8.0 elap:               0.4
 (Enter /data0/home/software/g16/l303.exe)
 DipDrv:  MaxL=1.
 Leave Link  303 at Sat Dec 17 22:55:52 2022, MaxMem=  6710886400 cpu:               0.9 elap:               0.1
 (Enter /data0/home/software/g16/l401.exe)
 ExpMin= 3.48D-02 ExpMax= 7.75D+04 ExpMxC= 2.65D+03 IAcc=3 IRadAn=         5 AccDes= 0.00D+00
 Harris functional with IExCor= 1009 and IRadAn=       5 diagonalized for initial guess.
 HarFok:  IExCor= 1009 AccDes= 0.00D+00 IRadAn=         5 IDoV= 1 UseB2=F ITyADJ=14
 ICtDFT=  3500011 ScaDFX=  1.000000  1.000000  1.000000  1.000000
 FoFCou: FMM=F IPFlag=           0 FMFlag=      100000 FMFlg1=           0
         NFxFlg=           0 DoJE=T BraDBF=F KetDBF=T FulRan=T
         wScrn=  0.000000 ICntrl=       500 IOpCl=  0 I1Cent=   200000004 NGrid=           0
         NMat0=    1 NMatS0=      1 NMatT0=    0 NMatD0=    1 NMtDS0=    0 NMtDT0=    0
 Symmetry not used in FoFCou.
 Harris En= -1023.56379491264    
 JPrj=0 DoOrth=F DoCkMO=F.
 Leave Link  401 at Sat Dec 17 22:55:53 2022, MaxMem=  6710886400 cpu:              29.6 elap:               1.3
 (Enter /data0/home/software/g16/l502.exe)
 Two-electron integral symmetry not used.
 Closed shell SCF:
 Using DIIS extrapolation, IDIIS=  1040.
 NGot=  6710886400 LenX=  6710433895 LenY=  6710214403
 Requested convergence on RMS density matrix=1.00D-08 within 128 cycles.
 Requested convergence on MAX density matrix=1.00D-06.
 Requested convergence on             energy=1.00D-06.
 No special actions if energy rises.
 Fock matrices will be formed incrementally for  20 cycles.

 Cycle   1  Pass 1  IDiag  1:
 FoFJK:  IHMeth= 1 ICntrl=       0 DoSepK=F KAlg= 0 I1Cent=           0 FoldK=F
 IRaf= 870000000 NMat=       1 IRICut=       1 DoRegI=T DoRafI=F ISym2E= 0 IDoP0=0 IntGTp=1.
 FoFCou: FMM=F IPFlag=           0 FMFlag=      100000 FMFlg1=           0
         NFxFlg=           0 DoJE=F BraDBF=F KetDBF=F FulRan=T
         wScrn=  0.000000 ICntrl=         0 IOpCl=  0 I1Cent=           0 NGrid=           0
         NMat0=    1 NMatS0=      1 NMatT0=    0 NMatD0=    1 NMtDS0=    0 NMtDT0=    0
 Symmetry not used in FoFCou.
 E= -1023.52523100820    
 DIIS: error= 2.42D-02 at cycle   1 NSaved=   1.
 NSaved= 1 IEnMin= 1 EnMin= -1023.52523100820     IErMin= 1 ErrMin= 2.42D-02
 ErrMax= 2.42D-02  0.00D+00 EMaxC= 1.00D-01 BMatC= 7.39D-01 BMatP= 7.39D-01
 IDIUse=3 WtCom= 7.58D-01 WtEn= 2.42D-01
 Coeff-Com:  0.100D+01
 Coeff-En:   0.100D+01
 Coeff:      0.100D+01
 Gap=     0.308 Goal=   None    Shift=    0.000
 GapD=    0.308 DampG=1.000 DampE=0.500 DampFc=0.5000 IDamp=-1.
 Damping current iteration by 5.00D-01
 RMSDP=1.69D-02 MaxDP=2.55D+00              OVMax= 2.32D-01

 Cycle   2  Pass 1  IDiag  1:
 RMSU=  7.14D-03    CP:  1.16D+00
 E= -1023.73602004167     Delta-E=       -0.210789033470 Rises=F Damp=T
 DIIS: error= 6.42D-03 at cycle   2 NSaved=   2.
 NSaved= 2 IEnMin= 2 EnMin= -1023.73602004167     IErMin= 2 ErrMin= 6.42D-03
 ErrMax= 6.42D-03  0.00D+00 EMaxC= 1.00D-01 BMatC= 4.85D-02 BMatP= 7.39D-01
 IDIUse=3 WtCom= 9.36D-01 WtEn= 6.42D-02
 Coeff-Com:  0.104D-01 0.990D+00
 Coeff-En:   0.882D-01 0.912D+00
 Coeff:      0.154D-01 0.985D+00
 Gap=     0.315 Goal=   None    Shift=    0.000
 RMSDP=7.04D-03 MaxDP=1.09D+00 DE=-2.11D-01 OVMax= 1.44D-01

 Cycle   3  Pass 1  IDiag  1:
 RMSU=  3.99D-03    CP:  9.78D-01  6.26D-01
 E= -1023.98133112266     Delta-E=       -0.245311080992 Rises=F Damp=F
 DIIS: error= 4.33D-03 at cycle   3 NSaved=   3.
 NSaved= 3 IEnMin= 3 EnMin= -1023.98133112266     IErMin= 3 ErrMin= 4.33D-03
 ErrMax= 4.33D-03  0.00D+00 EMaxC= 1.00D-01 BMatC= 1.83D-02 BMatP= 4.85D-02
 IDIUse=3 WtCom= 9.57D-01 WtEn= 4.33D-02
 Coeff-Com: -0.609D-01 0.358D+00 0.703D+00
 Coeff-En:   0.000D+00 0.000D+00 0.100D+01
 Coeff:     -0.583D-01 0.342D+00 0.716D+00
 Gap=     0.282 Goal=   None    Shift=    0.000
 RMSDP=1.73D-03 MaxDP=2.70D-01 DE=-2.45D-01 OVMax= 3.90D-02

 Cycle   4  Pass 1  IDiag  1:
 RMSU=  1.32D-03    CP:  9.49D-01  5.22D-01  9.62D-01
 E= -1023.99197274380     Delta-E=       -0.010641621134 Rises=F Damp=F
 DIIS: error= 2.20D-03 at cycle   4 NSaved=   4.
 NSaved= 4 IEnMin= 4 EnMin= -1023.99197274380     IErMin= 4 ErrMin= 2.20D-03
 ErrMax= 2.20D-03  0.00D+00 EMaxC= 1.00D-01 BMatC= 4.47D-03 BMatP= 1.83D-02
 IDIUse=3 WtCom= 9.78D-01 WtEn= 2.20D-02
 Coeff-Com: -0.330D-01 0.913D-01 0.382D+00 0.560D+00
 Coeff-En:   0.000D+00 0.000D+00 0.158D+00 0.842D+00
 Coeff:     -0.323D-01 0.893D-01 0.377D+00 0.566D+00
 Gap=     0.281 Goal=   None    Shift=    0.000
 RMSDP=6.33D-04 MaxDP=9.49D-02 DE=-1.06D-02 OVMax= 1.25D-02

 Cycle   5  Pass 1  IDiag  1:
 RMSU=  3.57D-04    CP:  9.53D-01  5.67D-01  9.38D-01  7.08D-01
 E= -1023.99509336733     Delta-E=       -0.003120623536 Rises=F Damp=F
 DIIS: error= 3.82D-04 at cycle   5 NSaved=   5.
 NSaved= 5 IEnMin= 5 EnMin= -1023.99509336733     IErMin= 5 ErrMin= 3.82D-04
 ErrMax= 3.82D-04  0.00D+00 EMaxC= 1.00D-01 BMatC= 1.37D-04 BMatP= 4.47D-03
 IDIUse=3 WtCom= 9.96D-01 WtEn= 3.82D-03
 Coeff-Com: -0.986D-02 0.186D-01 0.117D+00 0.237D+00 0.638D+00
 Coeff-En:   0.000D+00 0.000D+00 0.000D+00 0.000D+00 0.100D+01
 Coeff:     -0.982D-02 0.185D-01 0.116D+00 0.236D+00 0.639D+00
 Gap=     0.281 Goal=   None    Shift=    0.000
 RMSDP=1.08D-04 MaxDP=8.00D-03 DE=-3.12D-03 OVMax= 2.07D-03

 Cycle   6  Pass 1  IDiag  1:
 RMSU=  9.09D-05    CP:  9.52D-01  5.65D-01  9.44D-01  7.02D-01  8.69D-01
 E= -1023.99519248854     Delta-E=       -0.000099121209 Rises=F Damp=F
 DIIS: error= 1.43D-04 at cycle   6 NSaved=   6.
 NSaved= 6 IEnMin= 6 EnMin= -1023.99519248854     IErMin= 6 ErrMin= 1.43D-04
 ErrMax= 1.43D-04  0.00D+00 EMaxC= 1.00D-01 BMatC= 9.19D-06 BMatP= 1.37D-04
 IDIUse=3 WtCom= 9.99D-01 WtEn= 1.43D-03
 Coeff-Com: -0.139D-02 0.912D-03 0.174D-01 0.486D-01 0.251D+00 0.683D+00
 Coeff-En:   0.000D+00 0.000D+00 0.000D+00 0.000D+00 0.000D+00 0.100D+01
 Coeff:     -0.139D-02 0.911D-03 0.174D-01 0.486D-01 0.251D+00 0.683D+00
 Gap=     0.281 Goal=   None    Shift=    0.000
 RMSDP=4.70D-05 MaxDP=7.23D-03 DE=-9.91D-05 OVMax= 1.30D-03

 Cycle   7  Pass 1  IDiag  1:
 RMSU=  2.84D-05    CP:  9.52D-01  5.63D-01  9.42D-01  7.16D-01  9.28D-01
                    CP:  8.61D-01
 E= -1023.99520113999     Delta-E=       -0.000008651454 Rises=F Damp=F
 DIIS: error= 5.92D-05 at cycle   7 NSaved=   7.
 NSaved= 7 IEnMin= 7 EnMin= -1023.99520113999     IErMin= 7 ErrMin= 5.92D-05
 ErrMax= 5.92D-05  0.00D+00 EMaxC= 1.00D-01 BMatC= 7.79D-07 BMatP= 9.19D-06
 IDIUse=1 WtCom= 1.00D+00 WtEn= 0.00D+00
 Coeff-Com:  0.518D-03-0.155D-02-0.572D-02-0.855D-02 0.170D-01 0.210D+00
 Coeff-Com:  0.788D+00
 Coeff:      0.518D-03-0.155D-02-0.572D-02-0.855D-02 0.170D-01 0.210D+00
 Coeff:      0.788D+00
 Gap=     0.281 Goal=   None    Shift=    0.000
 RMSDP=1.24D-05 MaxDP=1.11D-03 DE=-8.65D-06 OVMax= 5.10D-04

 Cycle   8  Pass 1  IDiag  1:
 RMSU=  7.78D-06    CP:  9.52D-01  5.63D-01  9.42D-01  7.12D-01  9.36D-01
                    CP:  9.45D-01  1.01D+00
 E= -1023.99520199963     Delta-E=       -0.000000859634 Rises=F Damp=F
 DIIS: error= 2.45D-05 at cycle   8 NSaved=   8.
 NSaved= 8 IEnMin= 8 EnMin= -1023.99520199963     IErMin= 8 ErrMin= 2.45D-05
 ErrMax= 2.45D-05  0.00D+00 EMaxC= 1.00D-01 BMatC= 2.51D-07 BMatP= 7.79D-07
 IDIUse=1 WtCom= 1.00D+00 WtEn= 0.00D+00
 Coeff-Com:  0.500D-03-0.963D-03-0.581D-02-0.125D-01-0.307D-01-0.596D-03
 Coeff-Com:  0.411D+00 0.639D+00
 Coeff:      0.500D-03-0.963D-03-0.581D-02-0.125D-01-0.307D-01-0.596D-03
 Coeff:      0.411D+00 0.639D+00
 Gap=     0.281 Goal=   None    Shift=    0.000
 RMSDP=6.77D-06 MaxDP=1.14D-03 DE=-8.60D-07 OVMax= 3.10D-04

 Cycle   9  Pass 1  IDiag  1:
 RMSU=  2.67D-06    CP:  9.51D-01  5.63D-01  9.41D-01  7.13D-01  9.45D-01
                    CP:  9.57D-01  1.08D+00  8.53D-01
 E= -1023.99520230865     Delta-E=       -0.000000309024 Rises=F Damp=F
 DIIS: error= 8.29D-06 at cycle   9 NSaved=   9.
 NSaved= 9 IEnMin= 9 EnMin= -1023.99520230865     IErMin= 9 ErrMin= 8.29D-06
 ErrMax= 8.29D-06  0.00D+00 EMaxC= 1.00D-01 BMatC= 7.84D-09 BMatP= 2.51D-07
 IDIUse=1 WtCom= 1.00D+00 WtEn= 0.00D+00
 Coeff-Com:  0.423D-04-0.576D-04-0.516D-03-0.146D-02-0.578D-02-0.124D-01
 Coeff-Com:  0.879D-02 0.121D+00 0.890D+00
 Coeff:      0.423D-04-0.576D-04-0.516D-03-0.146D-02-0.578D-02-0.124D-01
 Coeff:      0.879D-02 0.121D+00 0.890D+00
 Gap=     0.281 Goal=   None    Shift=    0.000
 RMSDP=1.33D-06 MaxDP=1.10D-04 DE=-3.09D-07 OVMax= 7.54D-05

 Cycle  10  Pass 1  IDiag  1:
 RMSU=  8.42D-07    CP:  9.52D-01  5.63D-01  9.41D-01  7.13D-01  9.46D-01
                    CP:  9.61D-01  1.09D+00  8.91D-01  1.20D+00
 E= -1023.99520232345     Delta-E=       -0.000000014799 Rises=F Damp=F
 DIIS: error= 3.09D-06 at cycle  10 NSaved=  10.
 NSaved=10 IEnMin=10 EnMin= -1023.99520232345     IErMin=10 ErrMin= 3.09D-06
 ErrMax= 3.09D-06  0.00D+00 EMaxC= 1.00D-01 BMatC= 3.80D-09 BMatP= 7.84D-09
 IDIUse=1 WtCom= 1.00D+00 WtEn= 0.00D+00
 Coeff-Com: -0.477D-04 0.106D-03 0.553D-03 0.955D-03 0.100D-02-0.669D-02
 Coeff-Com: -0.553D-01-0.233D-01 0.477D+00 0.605D+00
 Coeff:     -0.477D-04 0.106D-03 0.553D-03 0.955D-03 0.100D-02-0.669D-02
 Coeff:     -0.553D-01-0.233D-01 0.477D+00 0.605D+00
 Gap=     0.281 Goal=   None    Shift=    0.000
 RMSDP=5.80D-07 MaxDP=5.23D-05 DE=-1.48D-08 OVMax= 3.69D-05

 Cycle  11  Pass 1  IDiag  1:
 RMSU=  3.50D-07    CP:  9.52D-01  5.63D-01  9.41D-01  7.12D-01  9.46D-01
                    CP:  9.61D-01  1.09D+00  9.23D-01  1.26D+00  9.38D-01
 E= -1023.99520232852     Delta-E=       -0.000000005070 Rises=F Damp=F
 DIIS: error= 1.24D-06 at cycle  11 NSaved=  11.
 NSaved=11 IEnMin=11 EnMin= -1023.99520232852     IErMin=11 ErrMin= 1.24D-06
 ErrMax= 1.24D-06  0.00D+00 EMaxC= 1.00D-01 BMatC= 2.44D-10 BMatP= 3.80D-09
 IDIUse=1 WtCom= 1.00D+00 WtEn= 0.00D+00
 Coeff-Com: -0.197D-04 0.396D-04 0.259D-03 0.517D-03 0.107D-02-0.648D-03
 Coeff-Com: -0.211D-01-0.252D-01 0.273D-01 0.196D+00 0.822D+00
 Coeff:     -0.197D-04 0.396D-04 0.259D-03 0.517D-03 0.107D-02-0.648D-03
 Coeff:     -0.211D-01-0.252D-01 0.273D-01 0.196D+00 0.822D+00
 Gap=     0.281 Goal=   None    Shift=    0.000
 RMSDP=2.47D-07 MaxDP=3.54D-05 DE=-5.07D-09 OVMax= 1.73D-05

 Cycle  12  Pass 1  IDiag  1:
 RMSU=  1.42D-07    CP:  9.52D-01  5.63D-01  9.41D-01  7.12D-01  9.46D-01
                    CP:  9.62D-01  1.09D+00  9.30D-01  1.29D+00  1.02D+00
                    CP:  1.07D+00
 E= -1023.99520232908     Delta-E=       -0.000000000558 Rises=F Damp=F
 DIIS: error= 4.70D-07 at cycle  12 NSaved=  12.
 NSaved=12 IEnMin=12 EnMin= -1023.99520232908     IErMin=12 ErrMin= 4.70D-07
 ErrMax= 4.70D-07  0.00D+00 EMaxC= 1.00D-01 BMatC= 5.29D-11 BMatP= 2.44D-10
 IDIUse=1 WtCom= 1.00D+00 WtEn= 0.00D+00
 Coeff-Com: -0.243D-05 0.381D-05 0.490D-04 0.112D-03 0.345D-03 0.525D-03
 Coeff-Com: -0.268D-02-0.862D-02-0.475D-01 0.304D-02 0.349D+00 0.706D+00
 Coeff:     -0.243D-05 0.381D-05 0.490D-04 0.112D-03 0.345D-03 0.525D-03
 Coeff:     -0.268D-02-0.862D-02-0.475D-01 0.304D-02 0.349D+00 0.706D+00
 Gap=     0.281 Goal=   None    Shift=    0.000
 RMSDP=1.78D-07 MaxDP=2.83D-05 DE=-5.58D-10 OVMax= 7.28D-06

 Cycle  13  Pass 1  IDiag  1:
 RMSU=  7.88D-08    CP:  9.52D-01  5.63D-01  9.41D-01  7.12D-01  9.46D-01
                    CP:  9.62D-01  1.09D+00  9.26D-01  1.30D+00  1.07D+00
                    CP:  1.26D+00  8.68D-01
 E= -1023.99520232916     Delta-E=       -0.000000000078 Rises=F Damp=F
 DIIS: error= 1.60D-07 at cycle  13 NSaved=  13.
 NSaved=13 IEnMin=13 EnMin= -1023.99520232916     IErMin=13 ErrMin= 1.60D-07
 ErrMax= 1.60D-07  0.00D+00 EMaxC= 1.00D-01 BMatC= 1.60D-11 BMatP= 5.29D-11
 IDIUse=1 WtCom= 1.00D+00 WtEn= 0.00D+00
 Coeff-Com:  0.344D-05-0.723D-05-0.331D-04-0.601D-04-0.557D-04 0.519D-03
 Coeff-Com:  0.370D-02 0.163D-02-0.297D-01-0.447D-01 0.663D-02 0.411D+00
 Coeff-Com:  0.651D+00
 Coeff:      0.344D-05-0.723D-05-0.331D-04-0.601D-04-0.557D-04 0.519D-03
 Coeff:      0.370D-02 0.163D-02-0.297D-01-0.447D-01 0.663D-02 0.411D+00
 Coeff:      0.651D+00
 Gap=     0.281 Goal=   None    Shift=    0.000
 RMSDP=4.57D-08 MaxDP=4.41D-06 DE=-7.78D-11 OVMax= 3.08D-06

 Cycle  14  Pass 1  IDiag  1:
 RMSU=  2.41D-08    CP:  9.52D-01  5.63D-01  9.41D-01  7.12D-01  9.46D-01
                    CP:  9.62D-01  1.09D+00  9.26D-01  1.30D+00  1.08D+00
                    CP:  1.31D+00  1.03D+00  1.09D+00
 E= -1023.99520232916     Delta-E=       -0.000000000008 Rises=F Damp=F
 DIIS: error= 7.82D-08 at cycle  14 NSaved=  14.
 NSaved=14 IEnMin=14 EnMin= -1023.99520232916     IErMin=14 ErrMin= 7.82D-08
 ErrMax= 7.82D-08  0.00D+00 EMaxC= 1.00D-01 BMatC= 5.64D-13 BMatP= 1.60D-11
 IDIUse=1 WtCom= 1.00D+00 WtEn= 0.00D+00
 Coeff-Com:  0.812D-06-0.165D-05-0.113D-04-0.237D-04-0.600D-04 0.177D-04
 Coeff-Com:  0.866D-03 0.133D-02 0.104D-02-0.956D-02-0.458D-01-0.413D-02
 Coeff-Com:  0.112D+00 0.945D+00
 Coeff:      0.812D-06-0.165D-05-0.113D-04-0.237D-04-0.600D-04 0.177D-04
 Coeff:      0.866D-03 0.133D-02 0.104D-02-0.956D-02-0.458D-01-0.413D-02
 Coeff:      0.112D+00 0.945D+00
 Gap=     0.281 Goal=   None    Shift=    0.000
 RMSDP=1.41D-08 MaxDP=1.31D-06 DE=-7.73D-12 OVMax= 1.20D-06

 Cycle  15  Pass 1  IDiag  1:
 RMSU=  6.52D-09    CP:  9.52D-01  5.63D-01  9.41D-01  7.12D-01  9.46D-01
                    CP:  9.62D-01  1.09D+00  9.26D-01  1.30D+00  1.08D+00
                    CP:  1.32D+00  1.05D+00  1.18D+00  1.13D+00
 E= -1023.99520232918     Delta-E=       -0.000000000013 Rises=F Damp=F
 DIIS: error= 1.75D-08 at cycle  15 NSaved=  15.
 NSaved=15 IEnMin=15 EnMin= -1023.99520232918     IErMin=15 ErrMin= 1.75D-08
 ErrMax= 1.75D-08  0.00D+00 EMaxC= 1.00D-01 BMatC= 1.08D-13 BMatP= 5.64D-13
 IDIUse=1 WtCom= 1.00D+00 WtEn= 0.00D+00
 Coeff-Com: -0.132D-06 0.256D-06-0.871D-07-0.513D-06-0.950D-05-0.279D-04
 Coeff-Com: -0.110D-03 0.243D-03 0.317D-02 0.152D-02-0.139D-01-0.442D-01
 Coeff-Com: -0.464D-01 0.323D+00 0.777D+00
 Coeff:     -0.132D-06 0.256D-06-0.871D-07-0.513D-06-0.950D-05-0.279D-04
 Coeff:     -0.110D-03 0.243D-03 0.317D-02 0.152D-02-0.139D-01-0.442D-01
 Coeff:     -0.464D-01 0.323D+00 0.777D+00
 Gap=     0.281 Goal=   None    Shift=    0.000
 RMSDP=4.86D-09 MaxDP=3.81D-07 DE=-1.27D-11 OVMax= 2.95D-07

 SCF Done:  E(RM062X) =  -1023.99520233     A.U. after   15 cycles
            NFock= 15  Conv=0.49D-08     -V/T= 2.0035
 KE= 1.020470693300D+03 PE=-4.487074334726D+03 EE= 1.404430252077D+03
 Leave Link  502 at Sat Dec 17 22:56:55 2022, MaxMem=  6710886400 cpu:            1474.9 elap:              61.7
 (Enter /data0/home/software/g16/l601.exe)
 Copying SCF densities to generalized density rwf, IOpCl= 0 IROHF=0.

 **********************************************************************

            Population analysis using the SCF density.

 **********************************************************************

 Alpha  occ. eigenvalues --  -78.14549 -19.66242 -19.65392 -19.63599 -19.57327
 Alpha  occ. eigenvalues --  -14.82775 -14.76736 -10.64284 -10.60218 -10.58863
 Alpha  occ. eigenvalues --  -10.56590 -10.56000 -10.55885 -10.55547  -6.95293
 Alpha  occ. eigenvalues --   -5.07204  -5.07148  -5.07033  -1.21563  -1.14424
 Alpha  occ. eigenvalues --   -1.13933  -1.12857  -1.07382  -1.00078  -0.96519
 Alpha  occ. eigenvalues --   -0.85891  -0.84812  -0.73257  -0.72496  -0.70389
 Alpha  occ. eigenvalues --   -0.69673  -0.63994  -0.62693  -0.60767  -0.58898
 Alpha  occ. eigenvalues --   -0.57338  -0.55313  -0.53430  -0.52823  -0.52184
 Alpha  occ. eigenvalues --   -0.51203  -0.50153  -0.48988  -0.46675  -0.44831
 Alpha  occ. eigenvalues --   -0.44578  -0.44043  -0.43609  -0.42677  -0.40012
 Alpha  occ. eigenvalues --   -0.39233  -0.37475  -0.37071  -0.36148  -0.30187
 Alpha  occ. eigenvalues --   -0.29510
 Alpha virt. eigenvalues --   -0.01423  -0.00449   0.00511   0.01252   0.02327
 Alpha virt. eigenvalues --    0.02474   0.02606   0.03325   0.04003   0.04517
 Alpha virt. eigenvalues --    0.04951   0.05988   0.06453   0.06767   0.07993
 Alpha virt. eigenvalues --    0.08553   0.08783   0.10216   0.10768   0.11119
 Alpha virt. eigenvalues --    0.11361   0.12290   0.12960   0.13449   0.13753
 Alpha virt. eigenvalues --    0.14974   0.15415   0.15620   0.16134   0.16325
 Alpha virt. eigenvalues --    0.17593   0.17869   0.18277   0.18479   0.18733
 Alpha virt. eigenvalues --    0.19345   0.19966   0.20091   0.20683   0.20795
 Alpha virt. eigenvalues --    0.21321   0.21701   0.22237   0.22392   0.23058
 Alpha virt. eigenvalues --    0.23534   0.23708   0.24154   0.24398   0.24992
 Alpha virt. eigenvalues --    0.25650   0.25885   0.26086   0.26689   0.27118
 Alpha virt. eigenvalues --    0.27672   0.27857   0.28527   0.29153   0.29753
 Alpha virt. eigenvalues --    0.30252   0.30963   0.31226   0.31977   0.32391
 Alpha virt. eigenvalues --    0.32737   0.33608   0.34043   0.35165   0.35493
 Alpha virt. eigenvalues --    0.36254   0.37462   0.37783   0.38558   0.39296
 Alpha virt. eigenvalues --    0.39653   0.41231   0.42543   0.43649   0.44074
 Alpha virt. eigenvalues --    0.45169   0.45421   0.47999   0.49593   0.49842
 Alpha virt. eigenvalues --    0.51740   0.52716   0.53264   0.54193   0.54613
 Alpha virt. eigenvalues --    0.55053   0.55725   0.56302   0.58046   0.59154
 Alpha virt. eigenvalues --    0.59572   0.59900   0.61163   0.62777   0.63796
 Alpha virt. eigenvalues --    0.65307   0.65664   0.66069   0.66652   0.67929
 Alpha virt. eigenvalues --    0.68761   0.69175   0.70132   0.70984   0.72758
 Alpha virt. eigenvalues --    0.72809   0.73867   0.74962   0.75759   0.76812
 Alpha virt. eigenvalues --    0.77555   0.78799   0.79636   0.81078   0.82504
 Alpha virt. eigenvalues --    0.82626   0.83589   0.84134   0.84739   0.84919
 Alpha virt. eigenvalues --    0.85453   0.85546   0.87307   0.87996   0.88341
 Alpha virt. eigenvalues --    0.89589   0.90879   0.91638   0.94073   0.94264
 Alpha virt. eigenvalues --    0.96127   0.98302   1.00593   1.01399   1.02280
 Alpha virt. eigenvalues --    1.03713   1.04917   1.06355   1.08353   1.08967
 Alpha virt. eigenvalues --    1.10981   1.11853   1.13935   1.15605   1.16261
 Alpha virt. eigenvalues --    1.17182   1.17774   1.18681   1.19532   1.20432
 Alpha virt. eigenvalues --    1.21394   1.22243   1.23463   1.24228   1.25757
 Alpha virt. eigenvalues --    1.26782   1.28100   1.30071   1.31596   1.32434
 Alpha virt. eigenvalues --    1.33019   1.33926   1.34744   1.35018   1.35617
 Alpha virt. eigenvalues --    1.36419   1.37425   1.38551   1.41085   1.41548
 Alpha virt. eigenvalues --    1.42860   1.43387   1.44435   1.46800   1.47206
 Alpha virt. eigenvalues --    1.48584   1.49775   1.51360   1.53596   1.54479
 Alpha virt. eigenvalues --    1.56280   1.57438   1.57748   1.59513   1.61295
 Alpha virt. eigenvalues --    1.61943   1.62974   1.64032   1.65327   1.66939
 Alpha virt. eigenvalues --    1.67312   1.68135   1.69577   1.72681   1.73364
 Alpha virt. eigenvalues --    1.74380   1.76736   1.77675   1.79989   1.80923
 Alpha virt. eigenvalues --    1.83237   1.84231   1.84745   1.85961   1.88373
 Alpha virt. eigenvalues --    1.89676   1.91726   1.93779   1.94472   1.95554
 Alpha virt. eigenvalues --    1.97877   1.98906   2.00143   2.04042   2.04818
 Alpha virt. eigenvalues --    2.06924   2.08790   2.10114   2.12320   2.13433
 Alpha virt. eigenvalues --    2.14913   2.17575   2.19144   2.20513   2.27759
 Alpha virt. eigenvalues --    2.28705   2.30193   2.31547   2.35808   2.36822
 Alpha virt. eigenvalues --    2.42536   2.43790   2.48792   2.50977   2.56082
 Alpha virt. eigenvalues --    2.59659   2.61234   2.62775   2.63678   2.67466
 Alpha virt. eigenvalues --    2.67511   2.70025   2.70833   2.72841   2.76067
 Alpha virt. eigenvalues --    2.76395   2.77605   2.78562   2.82246   2.82536
 Alpha virt. eigenvalues --    2.84702   2.85798   2.89071   2.89626   2.90502
 Alpha virt. eigenvalues --    2.93162   2.94611   2.96053   2.97009   2.99760
 Alpha virt. eigenvalues --    3.02595   3.07632   3.09916   3.11747   3.15371
 Alpha virt. eigenvalues --    3.15617   3.17905   3.22015   3.27542   3.28235
 Alpha virt. eigenvalues --    3.28981   3.29253   3.33668   3.34950   3.37112
 Alpha virt. eigenvalues --    3.37819   3.38486   3.41442   3.42181   3.44576
 Alpha virt. eigenvalues --    3.47384   3.48349   3.49026   3.52406   3.54706
 Alpha virt. eigenvalues --    3.57307   3.58103   3.58614   3.59629   3.61351
 Alpha virt. eigenvalues --    3.63057   3.67557   3.71448   3.71710   3.73743
 Alpha virt. eigenvalues --    3.75797   3.78186   3.79758   3.86105   3.91548
 Alpha virt. eigenvalues --    3.93335   3.94765   3.94912   3.98058   4.00253
 Alpha virt. eigenvalues --    4.00993   4.03357   4.08674   4.13445   4.25070
 Alpha virt. eigenvalues --    4.42734   4.57072   4.65652   4.70577   4.73649
 Alpha virt. eigenvalues --    4.89958   4.98618   4.99403   5.03110   5.06558
 Alpha virt. eigenvalues --    5.09211   5.11092   5.12045   5.12766   5.15157
 Alpha virt. eigenvalues --    5.17439   5.17878   5.21104   5.22567   5.26053
 Alpha virt. eigenvalues --    5.26880   5.29619   5.35169   5.39212   5.40299
 Alpha virt. eigenvalues --    5.42078   5.53638   5.54979   5.57783   5.63764
 Alpha virt. eigenvalues --    5.68347   6.73848   6.77158   6.79600   6.81266
 Alpha virt. eigenvalues --    6.82938   6.84004   6.87250   6.89587   6.93248
 Alpha virt. eigenvalues --    6.95195   6.98397   7.00158   7.04376   7.11753
 Alpha virt. eigenvalues --    7.15988   7.25944   7.28469   7.33122   7.35978
 Alpha virt. eigenvalues --    7.43746   7.68963  14.27241  14.29230  14.38927
 Alpha virt. eigenvalues --   23.77501  24.01941  24.06202  24.10874  24.12265
 Alpha virt. eigenvalues --   24.23462  24.27109  35.73003  35.79748  50.03732
 Alpha virt. eigenvalues --   50.04125  50.07958  50.13727 163.92890
          Condensed to atoms (all electrons):
               1          2          3          4          5          6
     1  C   13.676181  -5.475914  -3.200494  -0.401712   0.200939  -0.381668
     2  C   -5.475914  15.257220  -2.764687   0.517558  -1.379275  -0.205891
     3  C   -3.200494  -2.764687  14.911349  -1.012278   1.161545  -1.714544
     4  C   -0.401712   0.517558  -1.012278   5.936530   0.195672   0.531842
     5  C    0.200939  -1.379275   1.161545   0.195672   5.440575   0.223611
     6  C   -0.381668  -0.205891  -1.714544   0.531842   0.223611   8.227685
     7  H    0.040374  -0.038624   0.361545  -0.019118   0.012588  -0.017416
     8  H   -0.006827   0.041182  -0.060157   0.391005  -0.040548   0.018281
     9  H    0.043383   0.001781   0.008286  -0.033506   0.384871  -0.061937
    10  H   -0.029098  -0.024501  -0.011354   0.014664   0.028417   0.361367
    11  H   -0.099995   0.133140   0.016236  -0.000816  -0.007742  -0.071054
    12  C   -0.146528  -0.319112  -0.431553   0.033382  -0.033955  -0.144540
    13  H   -0.007854   0.038999   0.025029   0.000152   0.001169  -0.000336
    14  N    0.195729   0.137682   0.068893  -0.003944  -0.003777  -0.221016
    15  N    1.279678  -0.514297  -0.947573  -0.022922   0.016363   0.070804
    16  P   -0.004660   0.033103   0.007118   0.003036   0.003030   0.025016
    17  O    0.018267  -0.005250  -0.020359  -0.002758   0.003466   0.005543
    18  O   -0.085780  -0.040555   0.129563   0.007334   0.003889  -0.011672
    19  H    0.056366   0.056157  -0.148774   0.008321  -0.004918   0.011283
    20  O    0.001743  -0.010323   0.006983  -0.000677   0.000365  -0.000222
    21  H   -0.001331   0.000208   0.001069   0.000013   0.000002  -0.000065
    22  O   -0.027380  -0.011174   0.074170  -0.024405  -0.000126  -0.002637
    23  H   -0.018318   0.012199  -0.000234   0.002621  -0.002890   0.007710
               7          8          9         10         11         12
     1  C    0.040374  -0.006827   0.043383  -0.029098  -0.099995  -0.146528
     2  C   -0.038624   0.041182   0.001781  -0.024501   0.133140  -0.319112
     3  C    0.361545  -0.060157   0.008286  -0.011354   0.016236  -0.431553
     4  C   -0.019118   0.391005  -0.033506   0.014664  -0.000816   0.033382
     5  C    0.012588  -0.040548   0.384871   0.028417  -0.007742  -0.033955
     6  C   -0.017416   0.018281  -0.061937   0.361367  -0.071054  -0.144540
     7  H    0.508228  -0.004538  -0.000235   0.000076   0.000012   0.003371
     8  H   -0.004538   0.536687  -0.004841  -0.000269  -0.000001   0.000621
     9  H   -0.000235  -0.004841   0.537566  -0.004592  -0.000012   0.000441
    10  H    0.000076  -0.000269  -0.004592   0.531296   0.002263   0.004603
    11  H    0.000012  -0.000001  -0.000012   0.002263   0.391703  -0.009010
    12  C    0.003371   0.000621   0.000441   0.004603  -0.009010   5.680644
    13  H   -0.000016  -0.000000  -0.000000  -0.000007  -0.002542   0.375794
    14  N   -0.001523   0.000455  -0.000479  -0.002369   0.368569   0.406729
    15  N    0.009689  -0.000414   0.000325  -0.000195  -0.009605   0.471379
    16  P   -0.000309   0.000015   0.000003   0.000037  -0.000135  -0.069164
    17  O    0.000031   0.000003   0.000001   0.000012  -0.000299   0.055257
    18  O   -0.000720   0.000005  -0.000000  -0.000004   0.000098  -0.006940
    19  H    0.001772  -0.000008   0.000000   0.000005  -0.000052   0.009499
    20  O   -0.000018   0.000000  -0.000000   0.000000   0.000012  -0.000213
    21  H   -0.000001  -0.000000   0.000000  -0.000000   0.000000   0.000311
    22  O   -0.001030   0.000000   0.000003  -0.000003  -0.000019   0.016515
    23  H   -0.000061  -0.000010  -0.000002  -0.000001   0.000012   0.006271
              13         14         15         16         17         18
     1  C   -0.007854   0.195729   1.279678  -0.004660   0.018267  -0.085780
     2  C    0.038999   0.137682  -0.514297   0.033103  -0.005250  -0.040555
     3  C    0.025029   0.068893  -0.947573   0.007118  -0.020359   0.129563
     4  C    0.000152  -0.003944  -0.022922   0.003036  -0.002758   0.007334
     5  C    0.001169  -0.003777   0.016363   0.003030   0.003466   0.003889
     6  C   -0.000336  -0.221016   0.070804   0.025016   0.005543  -0.011672
     7  H   -0.000016  -0.001523   0.009689  -0.000309   0.000031  -0.000720
     8  H   -0.000000   0.000455  -0.000414   0.000015   0.000003   0.000005
     9  H   -0.000000  -0.000479   0.000325   0.000003   0.000001  -0.000000
    10  H   -0.000007  -0.002369  -0.000195   0.000037   0.000012  -0.000004
    11  H   -0.002542   0.368569  -0.009605  -0.000135  -0.000299   0.000098
    12  C    0.375794   0.406729   0.471379  -0.069164   0.055257  -0.006940
    13  H    0.482438  -0.035726  -0.048668   0.001084  -0.004980   0.000832
    14  N   -0.035726   6.436146  -0.079605  -0.000284  -0.008450   0.002848
    15  N   -0.048668  -0.079605   7.136589   0.007333  -0.020589  -0.027537
    16  P    0.001084  -0.000284   0.007333  12.463482   0.511719   0.305948
    17  O   -0.004980  -0.008450  -0.020589   0.511719   8.175985  -0.038875
    18  O    0.000832   0.002848  -0.027537   0.305948  -0.038875   8.124252
    19  H   -0.000808   0.002819   0.062851   0.002848  -0.010275   0.238269
    20  O    0.000010  -0.000032   0.001484   0.246598  -0.009281  -0.010458
    21  H    0.000007   0.000016  -0.000235   0.017342  -0.005295  -0.008928
    22  O   -0.000202  -0.001376   0.006176   0.276053  -0.033680   0.013210
    23  H   -0.000033   0.000562  -0.004737  -0.003910  -0.009203  -0.002202
              19         20         21         22         23
     1  C    0.056366   0.001743  -0.001331  -0.027380  -0.018318
     2  C    0.056157  -0.010323   0.000208  -0.011174   0.012199
     3  C   -0.148774   0.006983   0.001069   0.074170  -0.000234
     4  C    0.008321  -0.000677   0.000013  -0.024405   0.002621
     5  C   -0.004918   0.000365   0.000002  -0.000126  -0.002890
     6  C    0.011283  -0.000222  -0.000065  -0.002637   0.007710
     7  H    0.001772  -0.000018  -0.000001  -0.001030  -0.000061
     8  H   -0.000008   0.000000  -0.000000   0.000000  -0.000010
     9  H    0.000000  -0.000000   0.000000   0.000003  -0.000002
    10  H    0.000005   0.000000  -0.000000  -0.000003  -0.000001
    11  H   -0.000052   0.000012   0.000000  -0.000019   0.000012
    12  C    0.009499  -0.000213   0.000311   0.016515   0.006271
    13  H   -0.000808   0.000010   0.000007  -0.000202  -0.000033
    14  N    0.002819  -0.000032   0.000016  -0.001376   0.000562
    15  N    0.062851   0.001484  -0.000235   0.006176  -0.004737
    16  P    0.002848   0.246598   0.017342   0.276053  -0.003910
    17  O   -0.010275  -0.009281  -0.005295  -0.033680  -0.009203
    18  O    0.238269  -0.010458  -0.008928   0.013210  -0.002202
    19  H    0.318663  -0.000562   0.002026  -0.010430   0.000631
    20  O   -0.000562   7.981059   0.237123  -0.008023   0.004887
    21  H    0.002026   0.237123   0.456772  -0.008049   0.001380
    22  O   -0.010430  -0.008023  -0.008049   7.993144   0.283059
    23  H    0.000631   0.004887   0.001380   0.283059   0.389983
 Mulliken charges:
               1
     1  C    0.374896
     2  C    0.560373
     3  C   -0.459780
     4  C   -0.119995
     5  C   -0.203270
     6  C   -0.650146
     7  H    0.145921
     8  H    0.129357
     9  H    0.128944
    10  H    0.129653
    11  H    0.289237
    12  C    0.096198
    13  H    0.175658
    14  N   -0.261867
    15  N   -0.386291
    16  P    1.174697
    17  O   -0.600992
    18  O   -0.592577
    19  H    0.404317
    20  O   -0.440456
    21  H    0.307633
    22  O   -0.533796
    23  H    0.332285
 Sum of Mulliken charges =  -0.00000
 Mulliken charges with hydrogens summed into heavy atoms:
               1
     1  C    0.374896
     2  C    0.560373
     3  C   -0.313859
     4  C    0.009362
     5  C   -0.074326
     6  C   -0.520494
    12  C    0.271856
    14  N    0.027370
    15  N   -0.386291
    16  P    1.174697
    17  O   -0.600992
    18  O   -0.188260
    20  O   -0.132823
    22  O   -0.201511
         Mulliken charges condensed to fragments:
      1     -0.051111
      2      0.051111
 Electronic spatial extent (au):  <R**2>=         122669.1547
 Charge=              0.0000 electrons
 Dipole moment (field-independent basis, Debye):
    X=              1.0645    Y=              3.0964    Z=              2.4030  Tot=              4.0615
 Quadrupole moment (field-independent basis, Debye-Ang):
   XX=            -57.7005   YY=            -12.4388   ZZ=            -50.0540
   XY=             34.9478   XZ=             28.5918   YZ=             60.1112
 Traceless Quadrupole moment (field-independent basis, Debye-Ang):
   XX=            -17.6361   YY=             27.6256   ZZ=             -9.9895
   XY=             34.9478   XZ=             28.5918   YZ=             60.1112
 Octapole moment (field-independent basis, Debye-Ang**2):
  XXX=          -2013.0550  YYY=          -1342.7740  ZZZ=          -2258.3456  XYY=           -140.1871
  XXY=           -396.1565  XXZ=           -443.6535  XZZ=           -469.3891  YZZ=           -128.2393
  YYZ=            200.5083  XYZ=            580.7558
 Hexadecapole moment (field-independent basis, Debye-Ang**3):
 XXXX=         -42508.7748 YYYY=         -35167.5735 ZZZZ=         -52658.9887 XXXY=         -19069.2875
 XXXZ=         -19324.2234 YYYX=         -14234.6489 YYYZ=         -10496.7057 ZZZX=         -22213.9993
 ZZZY=         -19753.2983 XXYY=          -9744.8259 XXZZ=         -12472.8534 YYZZ=          -5851.0645
 XXYZ=          -2293.1080 YYXZ=           1174.5536 ZZXY=          -1679.8285
 N-N= 1.038178187019D+03 E-N=-4.487074333266D+03  KE= 1.020470693300D+03
 No NMR shielding tensors so no spin-rotation constants.
 Leave Link  601 at Sat Dec 17 22:56:55 2022, MaxMem=  6710886400 cpu:               3.0 elap:               0.2
 (Enter /data0/home/software/g16/l122.exe)
 CPIOFr:  IOpCl= 0 IRwI=-1 IRwCP=  731 ICalc= -1 LCPTot=      297221 Len1MO=      783136 IndFrg=      297221
 CPIOFr:  IOpCl= 0 IRwI=-1 IRwCP=  731 ICalc=  0 LCPTot=      297221 Len1MO=      783136 IndFrg=     1080357
 Counterpoise: doing calculation for fragment   1 using the basis set of the full-system, NewBq=T
 Leave Link  122 at Sat Dec 17 22:56:55 2022, MaxMem=  6710886400 cpu:               0.3 elap:               0.0
 (Enter /data0/home/software/g16/l301.exe)
 Basis read from rwf:  (5D, 7F)
 No pseudopotential information found on rwf file.
   440 basis functions,   674 primitive gaussians,   468 cartesian basis functions
    31 alpha electrons       31 beta electrons
       nuclear repulsion energy       401.5231121484 Hartrees.
 IExCor= 4336 DFT=T Ex+Corr=M062X ExCW=0 ScaHFX=  0.540000
 ScaDFX=  1.000000  1.000000  1.000000  1.000000 ScalE2=  1.000000  1.000000
 IRadAn=      5 IRanWt=     -1 IRanGd=            0 ICorTp=0 IEmpDi=131
 NAtoms=   23 NActive=   23 NUniq=   23 SFac= 1.00D+00 NAtFMM=   60 NAOKFM=F Big=F
 Integral buffers will be    131072 words long.
 Raffenetti 2 integral format.
 Two-electron integral symmetry is turned off.
 R6Disp:  Grimme-D3 Dispersion energy=       -0.0002902515 Hartrees.
 Nuclear repulsion after empirical dispersion term =      401.5228218969 Hartrees.
 No density basis found on file   718.
 Leave Link  301 at Sat Dec 17 22:56:55 2022, MaxMem=  6710886400 cpu:               1.3 elap:               0.1
 (Enter /data0/home/software/g16/l302.exe)
 NPDir=0 NMtPBC=     1 NCelOv=     1 NCel=       1 NClECP=     1 NCelD=      1
         NCelK=      1 NCelE2=     1 NClLst=     1 CellRange=     0.0.
 One-electron integrals computed using PRISM.
 NBasis=   440 RedAO= T EigKep=  1.13D-06  NBF=   440
 NBsUse=   440 1.00D-06 EigRej= -1.00D+00 NBFU=   440
 Precomputing XC quadrature grid using
 IXCGrd= 4 IRadAn=           5 IRanWt=          -1 IRanGd=           0 AccXCQ= 0.00D+00.
 Generated NRdTot=       0 NPtTot=           0 NUsed=           0 NTot=          32
 NSgBfM=   467   467   467   467   467 MxSgAt=    23 MxSgA2=    23.
 Leave Link  302 at Sat Dec 17 22:56:55 2022, MaxMem=  6710886400 cpu:               7.6 elap:               0.3
 (Enter /data0/home/software/g16/l303.exe)
 DipDrv:  MaxL=1.
 Leave Link  303 at Sat Dec 17 22:56:55 2022, MaxMem=  6710886400 cpu:               1.0 elap:               0.1
 (Enter /data0/home/software/g16/l401.exe)
 ExpMin= 3.48D-02 ExpMax= 7.75D+04 ExpMxC= 2.65D+03 IAcc=3 IRadAn=         5 AccDes= 0.00D+00
 Harris functional with IExCor= 1009 and IRadAn=       5 diagonalized for initial guess.
 HarFok:  IExCor= 1009 AccDes= 0.00D+00 IRadAn=         5 IDoV= 1 UseB2=F ITyADJ=14
 ICtDFT=  3500011 ScaDFX=  1.000000  1.000000  1.000000  1.000000
 FoFCou: FMM=F IPFlag=           0 FMFlag=      100000 FMFlg1=           0
         NFxFlg=           0 DoJE=T BraDBF=F KetDBF=T FulRan=T
         wScrn=  0.000000 ICntrl=       500 IOpCl=  0 I1Cent=   200000004 NGrid=           0
         NMat0=    1 NMatS0=      1 NMatT0=    0 NMatD0=    1 NMtDS0=    0 NMtDT0=    0
 Symmetry not used in FoFCou.
 Harris En= -379.613883671347    
 JPrj=0 DoOrth=F DoCkMO=F.
 Leave Link  401 at Sat Dec 17 22:56:57 2022, MaxMem=  6710886400 cpu:              29.7 elap:               1.3
 (Enter /data0/home/software/g16/l502.exe)
 Two-electron integral symmetry not used.
 Closed shell SCF:
 Using DIIS extrapolation, IDIIS=  1040.
 NGot=  6710886400 LenX=  6710433895 LenY=  6710214403
 Requested convergence on RMS density matrix=1.00D-08 within 128 cycles.
 Requested convergence on MAX density matrix=1.00D-06.
 Requested convergence on             energy=1.00D-06.
 No special actions if energy rises.
 Fock matrices will be formed incrementally for  20 cycles.

 Cycle   1  Pass 1  IDiag  1:
 FoFJK:  IHMeth= 1 ICntrl=       0 DoSepK=F KAlg= 0 I1Cent=           0 FoldK=F
 IRaf= 870000000 NMat=       1 IRICut=       1 DoRegI=T DoRafI=F ISym2E= 0 IDoP0=0 IntGTp=1.
 FoFCou: FMM=F IPFlag=           0 FMFlag=      100000 FMFlg1=           0
         NFxFlg=           0 DoJE=F BraDBF=F KetDBF=F FulRan=T
         wScrn=  0.000000 ICntrl=         0 IOpCl=  0 I1Cent=           0 NGrid=           0
         NMat0=    1 NMatS0=      1 NMatT0=    0 NMatD0=    1 NMtDS0=    0 NMtDT0=    0
 Symmetry not used in FoFCou.
 E= -379.610914737315    
 DIIS: error= 1.78D-02 at cycle   1 NSaved=   1.
 NSaved= 1 IEnMin= 1 EnMin= -379.610914737315     IErMin= 1 ErrMin= 1.78D-02
 ErrMax= 1.78D-02  0.00D+00 EMaxC= 1.00D-01 BMatC= 2.49D-01 BMatP= 2.49D-01
 IDIUse=3 WtCom= 8.22D-01 WtEn= 1.78D-01
 Coeff-Com:  0.100D+01
 Coeff-En:   0.100D+01
 Coeff:      0.100D+01
 Gap=     0.306 Goal=   None    Shift=    0.000
 GapD=    0.306 DampG=1.000 DampE=0.500 DampFc=0.5000 IDamp=-1.
 Damping current iteration by 5.00D-01
 RMSDP=1.04D-02 MaxDP=2.01D+00              OVMax= 2.13D-01

 Cycle   2  Pass 1  IDiag  1:
 RMSU=  5.15D-03    CP:  1.04D+00
 E= -379.707696986750     Delta-E=       -0.096782249435 Rises=F Damp=T
 DIIS: error= 5.12D-03 at cycle   2 NSaved=   2.
 NSaved= 2 IEnMin= 2 EnMin= -379.707696986750     IErMin= 2 ErrMin= 5.12D-03
 ErrMax= 5.12D-03  0.00D+00 EMaxC= 1.00D-01 BMatC= 2.63D-02 BMatP= 2.49D-01
 IDIUse=3 WtCom= 9.49D-01 WtEn= 5.12D-02
 Coeff-Com: -0.899D-01 0.109D+01
 Coeff-En:   0.000D+00 0.100D+01
 Coeff:     -0.853D-01 0.109D+01
 Gap=     0.301 Goal=   None    Shift=    0.000
 RMSDP=4.12D-03 MaxDP=4.64D-01 DE=-9.68D-02 OVMax= 1.77D-01

 Cycle   3  Pass 1  IDiag  1:
 RMSU=  3.07D-03    CP:  8.80D-01  1.10D+00
 E= -379.799890814605     Delta-E=       -0.092193827856 Rises=F Damp=F
 DIIS: error= 5.98D-03 at cycle   3 NSaved=   3.
 NSaved= 3 IEnMin= 3 EnMin= -379.799890814605     IErMin= 2 ErrMin= 5.12D-03
 ErrMax= 5.98D-03  0.00D+00 EMaxC= 1.00D-01 BMatC= 1.80D-02 BMatP= 2.63D-02
 IDIUse=3 WtCom= 9.40D-01 WtEn= 5.98D-02
 Coeff-Com: -0.138D+00 0.539D+00 0.598D+00
 Coeff-En:   0.000D+00 0.000D+00 0.100D+01
 Coeff:     -0.129D+00 0.507D+00 0.622D+00
 Gap=     0.279 Goal=   None    Shift=    0.000
 RMSDP=9.63D-04 MaxDP=1.37D-01 DE=-9.22D-02 OVMax= 6.08D-02

 Cycle   4  Pass 1  IDiag  1:
 RMSU=  7.99D-04    CP:  8.50D-01  1.12D+00  9.46D-01
 E= -379.814899418956     Delta-E=       -0.015008604351 Rises=F Damp=F
 DIIS: error= 1.97D-03 at cycle   4 NSaved=   4.
 NSaved= 4 IEnMin= 4 EnMin= -379.814899418956     IErMin= 4 ErrMin= 1.97D-03
 ErrMax= 1.97D-03  0.00D+00 EMaxC= 1.00D-01 BMatC= 2.56D-03 BMatP= 1.80D-02
 IDIUse=3 WtCom= 9.80D-01 WtEn= 1.97D-02
 Coeff-Com: -0.576D-01 0.148D+00 0.331D+00 0.578D+00
 Coeff-En:   0.000D+00 0.000D+00 0.733D-01 0.927D+00
 Coeff:     -0.564D-01 0.145D+00 0.326D+00 0.585D+00
 Gap=     0.278 Goal=   None    Shift=    0.000
 RMSDP=4.55D-04 MaxDP=6.56D-02 DE=-1.50D-02 OVMax= 1.33D-02

 Cycle   5  Pass 1  IDiag  1:
 RMSU=  2.46D-04    CP:  8.54D-01  1.07D+00  9.28D-01  6.82D-01
 E= -379.817084584353     Delta-E=       -0.002185165397 Rises=F Damp=F
 DIIS: error= 4.12D-04 at cycle   5 NSaved=   5.
 NSaved= 5 IEnMin= 5 EnMin= -379.817084584353     IErMin= 5 ErrMin= 4.12D-04
 ErrMax= 4.12D-04  0.00D+00 EMaxC= 1.00D-01 BMatC= 9.72D-05 BMatP= 2.56D-03
 IDIUse=3 WtCom= 9.96D-01 WtEn= 4.12D-03
 Coeff-Com: -0.196D-01 0.418D-01 0.119D+00 0.265D+00 0.595D+00
 Coeff-En:   0.000D+00 0.000D+00 0.000D+00 0.000D+00 0.100D+01
 Coeff:     -0.196D-01 0.417D-01 0.118D+00 0.264D+00 0.596D+00
 Gap=     0.278 Goal=   None    Shift=    0.000
 RMSDP=7.63D-05 MaxDP=1.21D-02 DE=-2.19D-03 OVMax= 4.02D-03

 Cycle   6  Pass 1  IDiag  1:
 RMSU=  6.71D-05    CP:  8.54D-01  1.08D+00  9.26D-01  6.94D-01  9.37D-01
 E= -379.817173958405     Delta-E=       -0.000089374051 Rises=F Damp=F
 DIIS: error= 1.88D-04 at cycle   6 NSaved=   6.
 NSaved= 6 IEnMin= 6 EnMin= -379.817173958405     IErMin= 6 ErrMin= 1.88D-04
 ErrMax= 1.88D-04  0.00D+00 EMaxC= 1.00D-01 BMatC= 1.16D-05 BMatP= 9.72D-05
 IDIUse=3 WtCom= 9.98D-01 WtEn= 1.88D-03
 Coeff-Com: -0.269D-02 0.320D-02 0.188D-01 0.537D-01 0.286D+00 0.641D+00
 Coeff-En:   0.000D+00 0.000D+00 0.000D+00 0.000D+00 0.253D-01 0.975D+00
 Coeff:     -0.269D-02 0.319D-02 0.187D-01 0.536D-01 0.286D+00 0.641D+00
 Gap=     0.278 Goal=   None    Shift=    0.000
 RMSDP=4.74D-05 MaxDP=6.89D-03 DE=-8.94D-05 OVMax= 1.47D-03

 Cycle   7  Pass 1  IDiag  1:
 RMSU=  2.81D-05    CP:  8.55D-01  1.07D+00  9.29D-01  6.96D-01  9.61D-01
                    CP:  9.96D-01
 E= -379.817186725566     Delta-E=       -0.000012767161 Rises=F Damp=F
 DIIS: error= 4.37D-05 at cycle   7 NSaved=   7.
 NSaved= 7 IEnMin= 7 EnMin= -379.817186725566     IErMin= 7 ErrMin= 4.37D-05
 ErrMax= 4.37D-05  0.00D+00 EMaxC= 1.00D-01 BMatC= 4.12D-07 BMatP= 1.16D-05
 IDIUse=1 WtCom= 1.00D+00 WtEn= 0.00D+00
 Coeff-Com:  0.144D-02-0.355D-02-0.662D-02-0.164D-01-0.336D-02 0.977D-01
 Coeff-Com:  0.931D+00
 Coeff:      0.144D-02-0.355D-02-0.662D-02-0.164D-01-0.336D-02 0.977D-01
 Coeff:      0.931D+00
 Gap=     0.278 Goal=   None    Shift=    0.000
 RMSDP=1.70D-05 MaxDP=2.21D-03 DE=-1.28D-05 OVMax= 4.65D-04

 Cycle   8  Pass 1  IDiag  1:
 RMSU=  4.17D-06    CP:  8.55D-01  1.07D+00  9.29D-01  6.92D-01  9.88D-01
                    CP:  1.08D+00  1.19D+00
 E= -379.817187384912     Delta-E=       -0.000000659346 Rises=F Damp=F
 DIIS: error= 1.69D-05 at cycle   8 NSaved=   8.
 NSaved= 8 IEnMin= 8 EnMin= -379.817187384912     IErMin= 8 ErrMin= 1.69D-05
 ErrMax= 1.69D-05  0.00D+00 EMaxC= 1.00D-01 BMatC= 1.78D-07 BMatP= 4.12D-07
 IDIUse=1 WtCom= 1.00D+00 WtEn= 0.00D+00
 Coeff-Com:  0.105D-02-0.217D-02-0.520D-02-0.147D-01-0.326D-01-0.205D-01
 Coeff-Com:  0.495D+00 0.580D+00
 Coeff:      0.105D-02-0.217D-02-0.520D-02-0.147D-01-0.326D-01-0.205D-01
 Coeff:      0.495D+00 0.580D+00
 Gap=     0.278 Goal=   None    Shift=    0.000
 RMSDP=3.49D-06 MaxDP=3.23D-04 DE=-6.59D-07 OVMax= 2.17D-04

 Cycle   9  Pass 1  IDiag  1:
 RMSU=  2.92D-06    CP:  8.54D-01  1.07D+00  9.29D-01  6.92D-01  9.89D-01
                    CP:  1.10D+00  1.21D+00  1.04D+00
 E= -379.817187604542     Delta-E=       -0.000000219630 Rises=F Damp=F
 DIIS: error= 9.03D-06 at cycle   9 NSaved=   9.
 NSaved= 9 IEnMin= 9 EnMin= -379.817187604542     IErMin= 9 ErrMin= 9.03D-06
 ErrMax= 9.03D-06  0.00D+00 EMaxC= 1.00D-01 BMatC= 8.84D-09 BMatP= 1.78D-07
 IDIUse=1 WtCom= 1.00D+00 WtEn= 0.00D+00
 Coeff-Com: -0.553D-04 0.173D-03 0.435D-03 0.375D-03-0.267D-02-0.150D-01
 Coeff-Com: -0.677D-01 0.109D+00 0.976D+00
 Coeff:     -0.553D-04 0.173D-03 0.435D-03 0.375D-03-0.267D-02-0.150D-01
 Coeff:     -0.677D-01 0.109D+00 0.976D+00
 Gap=     0.278 Goal=   None    Shift=    0.000
 RMSDP=1.53D-06 MaxDP=1.32D-04 DE=-2.20D-07 OVMax= 9.40D-05

 Cycle  10  Pass 1  IDiag  1:
 RMSU=  7.30D-07    CP:  8.54D-01  1.07D+00  9.29D-01  6.91D-01  9.91D-01
                    CP:  1.10D+00  1.21D+00  1.20D+00  1.20D+00
 E= -379.817187626642     Delta-E=       -0.000000022100 Rises=F Damp=F
 DIIS: error= 2.75D-06 at cycle  10 NSaved=  10.
 NSaved=10 IEnMin=10 EnMin= -379.817187626642     IErMin=10 ErrMin= 2.75D-06
 ErrMax= 2.75D-06  0.00D+00 EMaxC= 1.00D-01 BMatC= 9.52D-10 BMatP= 8.84D-09
 IDIUse=1 WtCom= 1.00D+00 WtEn= 0.00D+00
 Coeff-Com: -0.973D-04 0.218D-03 0.587D-03 0.127D-02 0.163D-02-0.264D-02
 Coeff-Com: -0.620D-01-0.209D-01 0.274D+00 0.808D+00
 Coeff:     -0.973D-04 0.218D-03 0.587D-03 0.127D-02 0.163D-02-0.264D-02
 Coeff:     -0.620D-01-0.209D-01 0.274D+00 0.808D+00
 Gap=     0.278 Goal=   None    Shift=    0.000
 RMSDP=4.93D-07 MaxDP=8.17D-05 DE=-2.21D-08 OVMax= 3.55D-05

 Cycle  11  Pass 1  IDiag  1:
 RMSU=  1.76D-07    CP:  8.54D-01  1.07D+00  9.29D-01  6.91D-01  9.90D-01
                    CP:  1.10D+00  1.21D+00  1.24D+00  1.28D+00  1.04D+00
 E= -379.817187628724     Delta-E=       -0.000000002082 Rises=F Damp=F
 DIIS: error= 1.13D-06 at cycle  11 NSaved=  11.
 NSaved=11 IEnMin=11 EnMin= -379.817187628724     IErMin=11 ErrMin= 1.13D-06
 ErrMax= 1.13D-06  0.00D+00 EMaxC= 1.00D-01 BMatC= 2.70D-10 BMatP= 9.52D-10
 IDIUse=1 WtCom= 1.00D+00 WtEn= 0.00D+00
 Coeff-Com: -0.328D-04 0.692D-04 0.206D-03 0.509D-03 0.985D-03 0.850D-03
 Coeff-Com: -0.195D-01-0.274D-01-0.997D-02 0.392D+00 0.662D+00
 Coeff:     -0.328D-04 0.692D-04 0.206D-03 0.509D-03 0.985D-03 0.850D-03
 Coeff:     -0.195D-01-0.274D-01-0.997D-02 0.392D+00 0.662D+00
 Gap=     0.278 Goal=   None    Shift=    0.000
 RMSDP=1.53D-07 MaxDP=1.45D-05 DE=-2.08D-09 OVMax= 1.42D-05

 Cycle  12  Pass 1  IDiag  1:
 RMSU=  9.00D-08    CP:  8.54D-01  1.07D+00  9.29D-01  6.91D-01  9.90D-01
                    CP:  1.10D+00  1.21D+00  1.25D+00  1.30D+00  1.11D+00
                    CP:  9.99D-01
 E= -379.817187629166     Delta-E=       -0.000000000442 Rises=F Damp=F
 DIIS: error= 3.17D-07 at cycle  12 NSaved=  12.
 NSaved=12 IEnMin=12 EnMin= -379.817187629166     IErMin=12 ErrMin= 3.17D-07
 ErrMax= 3.17D-07  0.00D+00 EMaxC= 1.00D-01 BMatC= 1.46D-11 BMatP= 2.70D-10
 IDIUse=1 WtCom= 1.00D+00 WtEn= 0.00D+00
 Coeff-Com:  0.883D-05-0.200D-04-0.497D-04-0.882D-04-0.879D-04 0.703D-03
 Coeff-Com:  0.598D-02-0.440D-02-0.452D-01-0.358D-01 0.125D+00 0.954D+00
 Coeff:      0.883D-05-0.200D-04-0.497D-04-0.882D-04-0.879D-04 0.703D-03
 Coeff:      0.598D-02-0.440D-02-0.452D-01-0.358D-01 0.125D+00 0.954D+00
 Gap=     0.278 Goal=   None    Shift=    0.000
 RMSDP=9.90D-08 MaxDP=1.14D-05 DE=-4.42D-10 OVMax= 6.28D-06

 Cycle  13  Pass 1  IDiag  1:
 RMSU=  4.76D-08    CP:  8.54D-01  1.07D+00  9.29D-01  6.91D-01  9.91D-01
                    CP:  1.10D+00  1.21D+00  1.24D+00  1.30D+00  1.14D+00
                    CP:  1.07D+00  1.37D+00
 E= -379.817187629207     Delta-E=       -0.000000000040 Rises=F Damp=F
 DIIS: error= 1.34D-07 at cycle  13 NSaved=  13.
 NSaved=13 IEnMin=13 EnMin= -379.817187629207     IErMin=13 ErrMin= 1.34D-07
 ErrMax= 1.34D-07  0.00D+00 EMaxC= 1.00D-01 BMatC= 2.76D-12 BMatP= 1.46D-11
 IDIUse=1 WtCom= 1.00D+00 WtEn= 0.00D+00
 Coeff-Com:  0.508D-05-0.113D-04-0.317D-04-0.630D-04-0.111D-03 0.202D-03
 Coeff-Com:  0.343D-02 0.376D-03-0.123D-01-0.379D-01-0.239D-01 0.307D+00
 Coeff-Com:  0.763D+00
 Coeff:      0.508D-05-0.113D-04-0.317D-04-0.630D-04-0.111D-03 0.202D-03
 Coeff:      0.343D-02 0.376D-03-0.123D-01-0.379D-01-0.239D-01 0.307D+00
 Coeff:      0.763D+00
 Gap=     0.278 Goal=   None    Shift=    0.000
 RMSDP=1.82D-08 MaxDP=1.89D-06 DE=-4.04D-11 OVMax= 1.85D-06

 Cycle  14  Pass 1  IDiag  1:
 RMSU=  8.77D-09    CP:  8.54D-01  1.07D+00  9.29D-01  6.91D-01  9.91D-01
                    CP:  1.10D+00  1.21D+00  1.24D+00  1.30D+00  1.15D+00
                    CP:  1.08D+00  1.46D+00  1.12D+00
 E= -379.817187629208     Delta-E=       -0.000000000001 Rises=F Damp=F
 DIIS: error= 4.83D-08 at cycle  14 NSaved=  14.
 NSaved=14 IEnMin=14 EnMin= -379.817187629208     IErMin=14 ErrMin= 4.83D-08
 ErrMax= 4.83D-08  0.00D+00 EMaxC= 1.00D-01 BMatC= 8.47D-13 BMatP= 2.76D-12
 IDIUse=1 WtCom= 1.00D+00 WtEn= 0.00D+00
 Coeff-Com:  0.230D-06-0.544D-06-0.375D-05-0.696D-05-0.352D-04-0.498D-04
 Coeff-Com:  0.192D-03 0.100D-02 0.512D-02-0.847D-02-0.486D-01-0.840D-01
 Coeff-Com:  0.384D+00 0.751D+00
 Coeff:      0.230D-06-0.544D-06-0.375D-05-0.696D-05-0.352D-04-0.498D-04
 Coeff:      0.192D-03 0.100D-02 0.512D-02-0.847D-02-0.486D-01-0.840D-01
 Coeff:      0.384D+00 0.751D+00
 Gap=     0.278 Goal=   None    Shift=    0.000
 RMSDP=1.23D-08 MaxDP=1.21D-06 DE=-1.25D-12 OVMax= 7.75D-07

 Cycle  15  Pass 1  IDiag  1:
 RMSU=  4.68D-09    CP:  8.54D-01  1.07D+00  9.29D-01  6.91D-01  9.91D-01
                    CP:  1.10D+00  1.21D+00  1.24D+00  1.30D+00  1.15D+00
                    CP:  1.08D+00  1.53D+00  1.23D+00  1.12D+00
 E= -379.817187629233     Delta-E=       -0.000000000026 Rises=F Damp=F
 DIIS: error= 9.42D-09 at cycle  15 NSaved=  15.
 NSaved=15 IEnMin=15 EnMin= -379.817187629233     IErMin=15 ErrMin= 9.42D-09
 ErrMax= 9.42D-09  0.00D+00 EMaxC= 1.00D-01 BMatC= 3.38D-14 BMatP= 8.47D-13
 IDIUse=1 WtCom= 1.00D+00 WtEn= 0.00D+00
 Coeff-Com: -0.247D-06 0.523D-06 0.536D-06 0.163D-05-0.733D-05-0.266D-04
 Coeff-Com: -0.132D-03 0.246D-03 0.244D-02-0.731D-04-0.158D-01-0.447D-01
 Coeff-Com:  0.856D-01 0.246D+00 0.726D+00
 Coeff:     -0.247D-06 0.523D-06 0.536D-06 0.163D-05-0.733D-05-0.266D-04
 Coeff:     -0.132D-03 0.246D-03 0.244D-02-0.731D-04-0.158D-01-0.447D-01
 Coeff:      0.856D-01 0.246D+00 0.726D+00
 Gap=     0.278 Goal=   None    Shift=    0.000
 RMSDP=1.44D-09 MaxDP=1.48D-07 DE=-2.56D-11 OVMax= 1.29D-07

 SCF Done:  E(RM062X) =  -379.817187629     A.U. after   15 cycles
            NFock= 15  Conv=0.14D-08     -V/T= 2.0050
 KE= 3.779369479082D+02 PE=-1.685771566834D+03 EE= 5.264946093999D+02
 Leave Link  502 at Sat Dec 17 22:57:57 2022, MaxMem=  6710886400 cpu:            1438.2 elap:              60.1
 (Enter /data0/home/software/g16/l601.exe)
 Copying SCF densities to generalized density rwf, IOpCl= 0 IROHF=0.

 **********************************************************************

            Population analysis using the SCF density.

 **********************************************************************

 Alpha  occ. eigenvalues --  -14.81354 -14.74267 -10.62246 -10.58708 -10.57001
 Alpha  occ. eigenvalues --  -10.55283 -10.54592 -10.54470 -10.54136  -1.12218
 Alpha  occ. eigenvalues --   -0.98075  -0.95025  -0.84456  -0.83267  -0.71866
 Alpha  occ. eigenvalues --   -0.70758  -0.68129  -0.62597  -0.57372  -0.55918
 Alpha  occ. eigenvalues --   -0.51803  -0.51281  -0.50705  -0.48579  -0.43168
 Alpha  occ. eigenvalues --   -0.42172  -0.41452  -0.37291  -0.34431  -0.28690
 Alpha  occ. eigenvalues --   -0.28024
 Alpha virt. eigenvalues --   -0.00224  -0.00060   0.01668   0.02158   0.03304
 Alpha virt. eigenvalues --    0.03649   0.03720   0.04381   0.05152   0.05647
 Alpha virt. eigenvalues --    0.06178   0.06550   0.07459   0.07527   0.09035
 Alpha virt. eigenvalues --    0.09573   0.10003   0.10644   0.11577   0.12094
 Alpha virt. eigenvalues --    0.12644   0.13365   0.14026   0.14622   0.15510
 Alpha virt. eigenvalues --    0.15974   0.16529   0.16901   0.17473   0.18114
 Alpha virt. eigenvalues --    0.18705   0.18862   0.19339   0.20103   0.20488
 Alpha virt. eigenvalues --    0.20661   0.20918   0.21357   0.22241   0.22450
 Alpha virt. eigenvalues --    0.23311   0.23610   0.23809   0.24508   0.24564
 Alpha virt. eigenvalues --    0.25217   0.25621   0.26288   0.26323   0.26513
 Alpha virt. eigenvalues --    0.27345   0.28169   0.28415   0.28958   0.29209
 Alpha virt. eigenvalues --    0.29590   0.30517   0.30852   0.31648   0.32382
 Alpha virt. eigenvalues --    0.33540   0.33889   0.34560   0.35240   0.36305
 Alpha virt. eigenvalues --    0.37319   0.37600   0.37906   0.38096   0.38447
 Alpha virt. eigenvalues --    0.39453   0.40405   0.41261   0.42987   0.43591
 Alpha virt. eigenvalues --    0.44377   0.46145   0.46517   0.48774   0.50260
 Alpha virt. eigenvalues --    0.50355   0.52082   0.54064   0.55213   0.55613
 Alpha virt. eigenvalues --    0.56119   0.56840   0.58461   0.59553   0.59987
 Alpha virt. eigenvalues --    0.61235   0.62625   0.64604   0.65502   0.66760
 Alpha virt. eigenvalues --    0.67150   0.67914   0.68394   0.69350   0.70442
 Alpha virt. eigenvalues --    0.70935   0.71171   0.72609   0.73135   0.73740
 Alpha virt. eigenvalues --    0.74159   0.74621   0.74999   0.76225   0.77211
 Alpha virt. eigenvalues --    0.77406   0.78351   0.78563   0.80044   0.81083
 Alpha virt. eigenvalues --    0.81839   0.82750   0.83916   0.84758   0.84940
 Alpha virt. eigenvalues --    0.85451   0.85568   0.86471   0.86681   0.86838
 Alpha virt. eigenvalues --    0.87739   0.88131   0.89326   0.90056   0.91145
 Alpha virt. eigenvalues --    0.92358   0.93025   0.93483   0.94918   0.96116
 Alpha virt. eigenvalues --    0.96844   0.97391   0.99598   1.00652   1.01312
 Alpha virt. eigenvalues --    1.02783   1.03482   1.03825   1.08460   1.09228
 Alpha virt. eigenvalues --    1.10057   1.10664   1.12199   1.14161   1.15989
 Alpha virt. eigenvalues --    1.16451   1.17956   1.18975   1.20188   1.21556
 Alpha virt. eigenvalues --    1.23107   1.23949   1.25546   1.27100   1.27381
 Alpha virt. eigenvalues --    1.28565   1.31101   1.32476   1.34248   1.34779
 Alpha virt. eigenvalues --    1.36003   1.36610   1.37347   1.38044   1.40647
 Alpha virt. eigenvalues --    1.43666   1.44103   1.44837   1.46480   1.47479
 Alpha virt. eigenvalues --    1.48325   1.49548   1.51547   1.53943   1.55433
 Alpha virt. eigenvalues --    1.57125   1.58875   1.59744   1.62564   1.64787
 Alpha virt. eigenvalues --    1.65219   1.66065   1.69666   1.71671   1.74733
 Alpha virt. eigenvalues --    1.75663   1.78828   1.85719   1.86084   1.89881
 Alpha virt. eigenvalues --    1.91832   1.94489   1.95721   1.97133   1.99020
 Alpha virt. eigenvalues --    1.99757   2.00215   2.04732   2.06268   2.07866
 Alpha virt. eigenvalues --    2.10423   2.12243   2.14623   2.16649   2.16833
 Alpha virt. eigenvalues --    2.20376   2.24267   2.27295   2.30097   2.32694
 Alpha virt. eigenvalues --    2.35425   2.37300   2.38936   2.39461   2.44068
 Alpha virt. eigenvalues --    2.46006   2.47561   2.49208   2.51434   2.51860
 Alpha virt. eigenvalues --    2.56970   2.59794   2.61064   2.62408   2.63760
 Alpha virt. eigenvalues --    2.65070   2.65325   2.67188   2.68097   2.69671
 Alpha virt. eigenvalues --    2.71075   2.71653   2.74494   2.76074   2.77054
 Alpha virt. eigenvalues --    2.77381   2.78180   2.79239   2.79849   2.81301
 Alpha virt. eigenvalues --    2.83303   2.84657   2.86931   2.89104   2.90584
 Alpha virt. eigenvalues --    2.91501   2.92147   2.93658   2.94368   2.95166
 Alpha virt. eigenvalues --    2.97065   2.97395   2.99922   3.01416   3.03844
 Alpha virt. eigenvalues --    3.04839   3.07678   3.09144   3.10497   3.12205
 Alpha virt. eigenvalues --    3.13469   3.14864   3.16848   3.17310   3.18245
 Alpha virt. eigenvalues --    3.19920   3.21500   3.23479   3.25696   3.28958
 Alpha virt. eigenvalues --    3.29223   3.29804   3.30350   3.31730   3.33506
 Alpha virt. eigenvalues --    3.34500   3.36618   3.38930   3.39421   3.40511
 Alpha virt. eigenvalues --    3.40929   3.43059   3.43622   3.44918   3.46814
 Alpha virt. eigenvalues --    3.48962   3.50271   3.50892   3.53267   3.56260
 Alpha virt. eigenvalues --    3.58688   3.59481   3.60032   3.61068   3.62187
 Alpha virt. eigenvalues --    3.64797   3.68870   3.69528   3.72593   3.73451
 Alpha virt. eigenvalues --    3.74603   3.76870   3.78653   3.79962   3.81256
 Alpha virt. eigenvalues --    3.84068   3.87973   3.93059   3.94815   3.96336
 Alpha virt. eigenvalues --    3.96568   3.99609   4.01820   4.02543   4.05253
 Alpha virt. eigenvalues --    4.10257   4.16286   4.26835   4.41055   4.42684
 Alpha virt. eigenvalues --    4.43691   4.44590   4.55436   4.58499   4.61446
 Alpha virt. eigenvalues --    4.68283   4.72623   4.74857   4.75875   4.88224
 Alpha virt. eigenvalues --    4.89823   4.91372   4.92452   5.00501   5.00975
 Alpha virt. eigenvalues --    5.06735   5.13444   5.19411   5.23080   5.26605
 Alpha virt. eigenvalues --    5.31589   5.32114   5.42118   5.50827   5.59631
 Alpha virt. eigenvalues --    5.66195   9.74395   9.78028   9.79252   9.79489
 Alpha virt. eigenvalues --    9.87348   9.89900   9.97806  10.03573  10.07721
 Alpha virt. eigenvalues --   10.12894  10.13389  10.20482  10.26383  10.28871
 Alpha virt. eigenvalues --   10.29067  10.30950  10.38002  10.38696  10.45623
 Alpha virt. eigenvalues --   10.53195  10.61965  10.66767  10.83194  12.71150
 Alpha virt. eigenvalues --   12.83309  12.92286  13.00793  13.12835  13.21903
 Alpha virt. eigenvalues --   13.29879  13.41619  13.44561  13.58047  13.74951
 Alpha virt. eigenvalues --   13.88876  13.96598  17.53570  17.76419  18.27782
 Alpha virt. eigenvalues --   18.51825  23.79022  24.03699  24.07735  24.12365
 Alpha virt. eigenvalues --   24.13852  24.25048  24.28592  35.74730  35.81957
 Alpha virt. eigenvalues --   51.60888  51.62939  51.73549  68.92001 130.72857
 Alpha virt. eigenvalues --  135.14821 138.93942 139.69790 471.55095
          Condensed to atoms (all electrons):
               1          2          3          4          5          6
     1  C   10.022861  -3.056613  -1.311905  -0.406916   0.047549  -0.262540
     2  C   -3.056613  10.378036  -1.343280   0.240335  -0.782844  -0.146313
     3  C   -1.311905  -1.343280   9.576789   0.216453   0.537814  -0.664878
     4  C   -0.406916   0.240335   0.216453   5.072758   0.463474   0.221924
     5  C    0.047549  -0.782844   0.537814   0.463474   5.118511   0.453115
     6  C   -0.262540  -0.146313  -0.664878   0.221924   0.453115   7.036577
     7  H    0.021392  -0.042802   0.404836  -0.036206   0.016626  -0.017606
     8  H   -0.007692   0.045637  -0.064398   0.390199  -0.042718   0.020427
     9  H    0.045920   0.001050   0.010213  -0.033914   0.382520  -0.064246
    10  H   -0.019750  -0.031453  -0.013013   0.014840   0.031880   0.355466
    11  H   -0.098576   0.117588   0.013446  -0.000345  -0.007373  -0.052806
    12  C   -0.418836  -0.075391  -0.121702   0.025316  -0.009748  -0.095290
    13  H   -0.027547   0.045218   0.030846  -0.000330   0.001379  -0.002018
    14  N    0.477842  -0.131243  -0.053807   0.000701   0.001577  -0.192052
    15  N    0.704094   0.183735  -0.854200  -0.025239  -0.006267   0.032656
    16  P   -0.010430   0.004390  -0.003603   0.002296  -0.000062   0.000754
    17  O    0.015355  -0.007664  -0.002722  -0.000141   0.000086   0.002383
    18  O    0.008785   0.002776  -0.003589  -0.000978  -0.000201  -0.000082
    19  H   -0.005082  -0.007810   0.005554   0.001314   0.000229   0.000944
    20  O    0.002806  -0.006507  -0.002171   0.000214   0.000031   0.000085
    21  H   -0.000113   0.000096   0.000115   0.000008  -0.000002   0.000007
    22  O   -0.002518  -0.000204  -0.001746   0.001652  -0.000118   0.000704
    23  H    0.004025  -0.007056   0.005759  -0.000755   0.000963  -0.001457
               7          8          9         10         11         12
     1  C    0.021392  -0.007692   0.045920  -0.019750  -0.098576  -0.418836
     2  C   -0.042802   0.045637   0.001050  -0.031453   0.117588  -0.075391
     3  C    0.404836  -0.064398   0.010213  -0.013013   0.013446  -0.121702
     4  C   -0.036206   0.390199  -0.033914   0.014840  -0.000345   0.025316
     5  C    0.016626  -0.042718   0.382520   0.031880  -0.007373  -0.009748
     6  C   -0.017606   0.020427  -0.064246   0.355466  -0.052806  -0.095290
     7  H    0.512922  -0.004693  -0.000250   0.000083   0.000016   0.000655
     8  H   -0.004693   0.543588  -0.004893  -0.000291  -0.000001   0.000726
     9  H   -0.000250  -0.004893   0.543906  -0.004695  -0.000013   0.000452
    10  H    0.000083  -0.000291  -0.004695   0.539419   0.002167   0.004263
    11  H    0.000016  -0.000001  -0.000013   0.002167   0.399816  -0.015645
    12  C    0.000655   0.000726   0.000452   0.004263  -0.015645   5.416250
    13  H   -0.000029  -0.000000  -0.000001  -0.000015  -0.001269   0.415563
    14  N   -0.001058   0.000454  -0.000490  -0.002793   0.373772   0.407117
    15  N    0.007103  -0.000347   0.000314   0.000354  -0.008639   0.410680
    16  P   -0.000292   0.000008   0.000002   0.000055   0.000487   0.006286
    17  O   -0.000016   0.000000   0.000001  -0.000008  -0.000482  -0.009867
    18  O    0.000222  -0.000000   0.000000   0.000001  -0.000059  -0.010628
    19  H   -0.000302   0.000000  -0.000000  -0.000000   0.000065   0.007723
    20  O    0.000005  -0.000000  -0.000000   0.000000   0.000007   0.004671
    21  H    0.000000  -0.000000  -0.000000   0.000000   0.000000  -0.000108
    22  O   -0.000124  -0.000001   0.000003  -0.000003  -0.000000   0.002975
    23  H    0.000054   0.000001  -0.000003   0.000001  -0.000003  -0.000931
              13         14         15         16         17         18
     1  C   -0.027547   0.477842   0.704094  -0.010430   0.015355   0.008785
     2  C    0.045218  -0.131243   0.183735   0.004390  -0.007664   0.002776
     3  C    0.030846  -0.053807  -0.854200  -0.003603  -0.002722  -0.003589
     4  C   -0.000330   0.000701  -0.025239   0.002296  -0.000141  -0.000978
     5  C    0.001379   0.001577  -0.006267  -0.000062   0.000086  -0.000201
     6  C   -0.002018  -0.192052   0.032656   0.000754   0.002383  -0.000082
     7  H   -0.000029  -0.001058   0.007103  -0.000292  -0.000016   0.000222
     8  H   -0.000000   0.000454  -0.000347   0.000008   0.000000  -0.000000
     9  H   -0.000001  -0.000490   0.000314   0.000002   0.000001   0.000000
    10  H   -0.000015  -0.002793   0.000354   0.000055  -0.000008   0.000001
    11  H   -0.001269   0.373772  -0.008639   0.000487  -0.000482  -0.000059
    12  C    0.415563   0.407117   0.410680   0.006286  -0.009867  -0.010628
    13  H    0.500921  -0.053112  -0.062123  -0.000036   0.000141  -0.000050
    14  N   -0.053112   6.462767   0.005724   0.003682  -0.008423  -0.002025
    15  N   -0.062123   0.005724   6.890498  -0.015868   0.009343   0.020395
    16  P   -0.000036   0.003682  -0.015868   0.021998  -0.005906  -0.002278
    17  O    0.000141  -0.008423   0.009343  -0.005906   0.006615   0.000477
    18  O   -0.000050  -0.002025   0.020395  -0.002278   0.000477   0.006681
    19  H   -0.000034   0.002426  -0.025579   0.002664  -0.000445  -0.005448
    20  O   -0.000056   0.000558  -0.001205  -0.010489   0.001511  -0.002114
    21  H    0.000001  -0.000007   0.000031   0.000447  -0.000112   0.000127
    22  O    0.000081  -0.001095   0.004370  -0.002855   0.000725   0.000463
    23  H   -0.000009   0.000073   0.000132   0.000751  -0.000351   0.000154
              19         20         21         22         23
     1  C   -0.005082   0.002806  -0.000113  -0.002518   0.004025
     2  C   -0.007810  -0.006507   0.000096  -0.000204  -0.007056
     3  C    0.005554  -0.002171   0.000115  -0.001746   0.005759
     4  C    0.001314   0.000214   0.000008   0.001652  -0.000755
     5  C    0.000229   0.000031  -0.000002  -0.000118   0.000963
     6  C    0.000944   0.000085   0.000007   0.000704  -0.001457
     7  H   -0.000302   0.000005   0.000000  -0.000124   0.000054
     8  H    0.000000  -0.000000  -0.000000  -0.000001   0.000001
     9  H   -0.000000  -0.000000  -0.000000   0.000003  -0.000003
    10  H   -0.000000   0.000000   0.000000  -0.000003   0.000001
    11  H    0.000065   0.000007   0.000000  -0.000000  -0.000003
    12  C    0.007723   0.004671  -0.000108   0.002975  -0.000931
    13  H   -0.000034  -0.000056   0.000001   0.000081  -0.000009
    14  N    0.002426   0.000558  -0.000007  -0.001095   0.000073
    15  N   -0.025579  -0.001205   0.000031   0.004370   0.000132
    16  P    0.002664  -0.010489   0.000447  -0.002855   0.000751
    17  O   -0.000445   0.001511  -0.000112   0.000725  -0.000351
    18  O   -0.005448  -0.002114   0.000127   0.000463   0.000154
[...]
 Two-electron integral symmetry is turned off.
 R6Disp:  Grimme-D3 Dispersion energy=       -0.0000467693 Hartrees.
 Nuclear repulsion after empirical dispersion term =      280.0298685584 Hartrees.
 No density basis found on file   718.
 Leave Link  301 at Sat Dec 17 22:59:10 2022, MaxMem=  6710886400 cpu:               1.2 elap:               0.1
 (Enter /data0/home/software/g16/l302.exe)
 NPDir=0 NMtPBC=     1 NCelOv=     1 NCel=       1 NClECP=     1 NCelD=      1
         NCelK=      1 NCelE2=     1 NClLst=     1 CellRange=     0.0.
 One-electron integrals computed using PRISM.
 NBasis=   161 RedAO= T EigKep=  4.34D-04  NBF=   161
 NBsUse=   161 1.00D-06 EigRej= -1.00D+00 NBFU=   161
 Precomputing XC quadrature grid using
 IXCGrd= 4 IRadAn=           5 IRanWt=          -1 IRanGd=           0 AccXCQ= 0.00D+00.
 Generated NRdTot=       0 NPtTot=           0 NUsed=           0 NTot=          32
 NSgBfM=   171   171   171   171   171 MxSgAt=     8 MxSgA2=     8.
 Leave Link  302 at Sat Dec 17 22:59:10 2022, MaxMem=  6710886400 cpu:               3.0 elap:               0.1
 (Enter /data0/home/software/g16/l303.exe)
 DipDrv:  MaxL=1.
 Leave Link  303 at Sat Dec 17 22:59:10 2022, MaxMem=  6710886400 cpu:               0.5 elap:               0.0
 (Enter /data0/home/software/g16/l401.exe)
 ExpMin= 3.48D-02 ExpMax= 7.75D+04 ExpMxC= 2.65D+03 IAcc=3 IRadAn=         5 AccDes= 0.00D+00
 Harris functional with IExCor= 1009 and IRadAn=       5 diagonalized for initial guess.
 HarFok:  IExCor= 1009 AccDes= 0.00D+00 IRadAn=         5 IDoV= 1 UseB2=F ITyADJ=14
 ICtDFT=  3500011 ScaDFX=  1.000000  1.000000  1.000000  1.000000
 FoFCou: FMM=F IPFlag=           0 FMFlag=      100000 FMFlg1=           0
         NFxFlg=           0 DoJE=T BraDBF=F KetDBF=T FulRan=T
         wScrn=  0.000000 ICntrl=       500 IOpCl=  0 I1Cent=   200000004 NGrid=           0
         NMat0=    1 NMatS0=      1 NMatT0=    0 NMatD0=    1 NMtDS0=    0 NMtDT0=    0
 Symmetry not used in FoFCou.
 Harris En= -643.941201486975    
 JPrj=0 DoOrth=F DoCkMO=F.
 Leave Link  401 at Sat Dec 17 22:59:11 2022, MaxMem=  6710886400 cpu:               5.9 elap:               0.3
 (Enter /data0/home/software/g16/l502.exe)
 Keep R1 ints in memory in canonical form, NReq=108963383.
 FoFCou: FMM=F IPFlag=           0 FMFlag=           0 FMFlg1=           0
         NFxFlg=           0 DoJE=F BraDBF=F KetDBF=F FulRan=T
         wScrn=  0.000000 ICntrl=       600 IOpCl=  0 I1Cent=           0 NGrid=           0
         NMat0=    1 NMatS0=  13041 NMatT0=    0 NMatD0=    1 NMtDS0=    0 NMtDT0=    0
 Symmetry not used in FoFCou.
 Two-electron integral symmetry not used.
 Closed shell SCF:
 Using DIIS extrapolation, IDIIS=  1040.
 NGot=  6710886400 LenX=  6625781713 LenY=  6625752031
 Requested convergence on RMS density matrix=1.00D-08 within 128 cycles.
 Requested convergence on MAX density matrix=1.00D-06.
 Requested convergence on             energy=1.00D-06.
 No special actions if energy rises.

 Cycle   1  Pass 1  IDiag  1:
 E= -643.863791509512    
 DIIS: error= 3.82D-02 at cycle   1 NSaved=   1.
 NSaved= 1 IEnMin= 1 EnMin= -643.863791509512     IErMin= 1 ErrMin= 3.82D-02
 ErrMax= 3.82D-02  0.00D+00 EMaxC= 1.00D-01 BMatC= 5.05D-01 BMatP= 5.05D-01
 IDIUse=3 WtCom= 6.18D-01 WtEn= 3.82D-01
 Coeff-Com:  0.100D+01
 Coeff-En:   0.100D+01
 Coeff:      0.100D+01
 Gap=     0.310 Goal=   None    Shift=    0.000
 GapD=    0.310 DampG=1.000 DampE=0.500 DampFc=0.5000 IDamp=-1.
 Damping current iteration by 5.00D-01
 RMSDP=6.69D-03 MaxDP=1.46D-01              OVMax= 2.55D-01

 Cycle   2  Pass 1  IDiag  1:
 E= -643.980086616455     Delta-E=       -0.116295106943 Rises=F Damp=T
 DIIS: error= 1.04D-02 at cycle   2 NSaved=   2.
 NSaved= 2 IEnMin= 2 EnMin= -643.980086616455     IErMin= 2 ErrMin= 1.04D-02
 ErrMax= 1.04D-02  0.00D+00 EMaxC= 1.00D-01 BMatC= 2.64D-02 BMatP= 5.05D-01
 IDIUse=3 WtCom= 8.96D-01 WtEn= 1.04D-01
 Coeff-Com:  0.682D-01 0.932D+00
 Coeff-En:   0.197D+00 0.803D+00
 Coeff:      0.816D-01 0.918D+00
 Gap=     0.364 Goal=   None    Shift=    0.000
 RMSDP=1.54D-03 MaxDP=4.63D-02 DE=-1.16D-01 OVMax= 1.61D-01

 Cycle   3  Pass 1  IDiag  1:
 E= -644.142461463529     Delta-E=       -0.162374847074 Rises=F Damp=F
 DIIS: error= 6.14D-03 at cycle   3 NSaved=   3.
 NSaved= 3 IEnMin= 3 EnMin= -644.142461463529     IErMin= 3 ErrMin= 6.14D-03
 ErrMax= 6.14D-03  0.00D+00 EMaxC= 1.00D-01 BMatC= 9.61D-03 BMatP= 2.64D-02
 IDIUse=3 WtCom= 9.39D-01 WtEn= 6.14D-02
 Coeff-Com: -0.151D-01 0.334D+00 0.681D+00
 Coeff-En:   0.000D+00 0.000D+00 0.100D+01
 Coeff:     -0.142D-01 0.313D+00 0.701D+00
 Gap=     0.356 Goal=   None    Shift=    0.000
 RMSDP=6.41D-04 MaxDP=1.48D-02 DE=-1.62D-01 OVMax= 3.43D-02

 Cycle   4  Pass 1  IDiag  1:
 E= -644.146626029625     Delta-E=       -0.004164566095 Rises=F Damp=F
 DIIS: error= 3.58D-03 at cycle   4 NSaved=   4.
 NSaved= 4 IEnMin= 4 EnMin= -644.146626029625     IErMin= 4 ErrMin= 3.58D-03
 ErrMax= 3.58D-03  0.00D+00 EMaxC= 1.00D-01 BMatC= 3.89D-03 BMatP= 9.61D-03
 IDIUse=3 WtCom= 9.64D-01 WtEn= 3.58D-02
 Coeff-Com: -0.202D-01 0.472D-01 0.409D+00 0.564D+00
 Coeff-En:   0.000D+00 0.000D+00 0.291D+00 0.709D+00
 Coeff:     -0.195D-01 0.455D-01 0.405D+00 0.569D+00
 Gap=     0.360 Goal=   None    Shift=    0.000
 RMSDP=2.55D-04 MaxDP=6.21D-03 DE=-4.16D-03 OVMax= 1.15D-02

 Cycle   5  Pass 1  IDiag  1:
 E= -644.149212671058     Delta-E=       -0.002586641433 Rises=F Damp=F
 DIIS: error= 2.67D-04 at cycle   5 NSaved=   5.
 NSaved= 5 IEnMin= 5 EnMin= -644.149212671058     IErMin= 5 ErrMin= 2.67D-04
 ErrMax= 2.67D-04  0.00D+00 EMaxC= 1.00D-01 BMatC= 1.47D-05 BMatP= 3.89D-03
 IDIUse=3 WtCom= 9.97D-01 WtEn= 2.67D-03
 Coeff-Com: -0.226D-02 0.222D-03 0.614D-01 0.118D+00 0.822D+00
 Coeff-En:   0.000D+00 0.000D+00 0.000D+00 0.000D+00 0.100D+01
 Coeff:     -0.225D-02 0.221D-03 0.612D-01 0.118D+00 0.823D+00
 Gap=     0.359 Goal=   None    Shift=    0.000
 RMSDP=2.43D-05 MaxDP=8.50D-04 DE=-2.59D-03 OVMax= 7.47D-04

 Cycle   6  Pass 1  IDiag  1:
 E= -644.149222702554     Delta-E=       -0.000010031496 Rises=F Damp=F
 DIIS: error= 5.93D-05 at cycle   6 NSaved=   6.
 NSaved= 6 IEnMin= 6 EnMin= -644.149222702554     IErMin= 6 ErrMin= 5.93D-05
 ErrMax= 5.93D-05  0.00D+00 EMaxC= 1.00D-01 BMatC= 9.90D-07 BMatP= 1.47D-05
 IDIUse=1 WtCom= 1.00D+00 WtEn= 0.00D+00
 Coeff-Com:  0.609D-04-0.146D-02 0.178D-02 0.975D-02 0.205D+00 0.785D+00
 Coeff:      0.609D-04-0.146D-02 0.178D-02 0.975D-02 0.205D+00 0.785D+00
 Gap=     0.359 Goal=   None    Shift=    0.000
 RMSDP=8.94D-06 MaxDP=2.25D-04 DE=-1.00D-05 OVMax= 2.21D-04

 Cycle   7  Pass 1  IDiag  1:
 E= -644.149223437045     Delta-E=       -0.000000734491 Rises=F Damp=F
 DIIS: error= 2.63D-05 at cycle   7 NSaved=   7.
 NSaved= 7 IEnMin= 7 EnMin= -644.149223437045     IErMin= 7 ErrMin= 2.63D-05
 ErrMax= 2.63D-05  0.00D+00 EMaxC= 1.00D-01 BMatC= 1.80D-07 BMatP= 9.90D-07
 IDIUse=1 WtCom= 1.00D+00 WtEn= 0.00D+00
 Coeff-Com:  0.332D-03-0.569D-03-0.811D-02-0.127D-01-0.247D-01 0.288D+00
 Coeff-Com:  0.758D+00
 Coeff:      0.332D-03-0.569D-03-0.811D-02-0.127D-01-0.247D-01 0.288D+00
 Coeff:      0.758D+00
 Gap=     0.359 Goal=   None    Shift=    0.000
 RMSDP=2.97D-06 MaxDP=6.21D-05 DE=-7.34D-07 OVMax= 8.77D-05

 Cycle   8  Pass 1  IDiag  1:
 E= -644.149223557163     Delta-E=       -0.000000120118 Rises=F Damp=F
 DIIS: error= 1.07D-05 at cycle   8 NSaved=   8.
 NSaved= 8 IEnMin= 8 EnMin= -644.149223557163     IErMin= 8 ErrMin= 1.07D-05
 ErrMax= 1.07D-05  0.00D+00 EMaxC= 1.00D-01 BMatC= 3.19D-08 BMatP= 1.80D-07
 IDIUse=1 WtCom= 1.00D+00 WtEn= 0.00D+00
 Coeff-Com:  0.143D-03-0.185D-03-0.389D-02-0.614D-02-0.188D-01 0.940D-01
 Coeff-Com:  0.377D+00 0.558D+00
 Coeff:      0.143D-03-0.185D-03-0.389D-02-0.614D-02-0.188D-01 0.940D-01
 Coeff:      0.377D+00 0.558D+00
 Gap=     0.359 Goal=   None    Shift=    0.000
 RMSDP=8.06D-07 MaxDP=1.92D-05 DE=-1.20D-07 OVMax= 3.06D-05

 Cycle   9  Pass 1  IDiag  1:
 E= -644.149223579464     Delta-E=       -0.000000022301 Rises=F Damp=F
 DIIS: error= 1.27D-06 at cycle   9 NSaved=   9.
 NSaved= 9 IEnMin= 9 EnMin= -644.149223579464     IErMin= 9 ErrMin= 1.27D-06
 ErrMax= 1.27D-06  0.00D+00 EMaxC= 1.00D-01 BMatC= 7.28D-10 BMatP= 3.19D-08
 IDIUse=1 WtCom= 1.00D+00 WtEn= 0.00D+00
 Coeff-Com: -0.225D-04 0.440D-04 0.237D-03 0.495D-03-0.513D-03-0.183D-01
 Coeff-Com: -0.258D-01 0.818D-01 0.962D+00
 Coeff:     -0.225D-04 0.440D-04 0.237D-03 0.495D-03-0.513D-03-0.183D-01
 Coeff:     -0.258D-01 0.818D-01 0.962D+00
 Gap=     0.359 Goal=   None    Shift=    0.000
 RMSDP=2.98D-07 MaxDP=7.16D-06 DE=-2.23D-08 OVMax= 8.09D-06

 Cycle  10  Pass 1  IDiag  1:
 E= -644.149223580295     Delta-E=       -0.000000000831 Rises=F Damp=F
 DIIS: error= 2.75D-07 at cycle  10 NSaved=  10.
 NSaved=10 IEnMin=10 EnMin= -644.149223580295     IErMin=10 ErrMin= 2.75D-07
 ErrMax= 2.75D-07  0.00D+00 EMaxC= 1.00D-01 BMatC= 1.09D-11 BMatP= 7.28D-10
 IDIUse=1 WtCom= 1.00D+00 WtEn= 0.00D+00
 Coeff-Com: -0.291D-05 0.448D-05 0.103D-03 0.158D-03 0.482D-03-0.358D-02
 Coeff-Com: -0.135D-01-0.145D-01 0.163D-01 0.101D+01
 Coeff:     -0.291D-05 0.448D-05 0.103D-03 0.158D-03 0.482D-03-0.358D-02
 Coeff:     -0.135D-01-0.145D-01 0.163D-01 0.101D+01
 Gap=     0.359 Goal=   None    Shift=    0.000
 RMSDP=5.65D-08 MaxDP=6.42D-07 DE=-8.31D-10 OVMax= 1.91D-06

 Cycle  11  Pass 1  IDiag  1:
 E= -644.149223580303     Delta-E=       -0.000000000008 Rises=F Damp=F
 DIIS: error= 7.57D-08 at cycle  11 NSaved=  11.
 NSaved=11 IEnMin=11 EnMin= -644.149223580303     IErMin=11 ErrMin= 7.57D-08
 ErrMax= 7.57D-08  0.00D+00 EMaxC= 1.00D-01 BMatC= 1.10D-12 BMatP= 1.09D-11
 IDIUse=1 WtCom= 1.00D+00 WtEn= 0.00D+00
 Coeff-Com:  0.835D-06-0.165D-05 0.647D-05 0.355D-05 0.998D-04 0.207D-03
 Coeff-Com: -0.721D-03-0.542D-02-0.430D-01 0.177D+00 0.871D+00
 Coeff:      0.835D-06-0.165D-05 0.647D-05 0.355D-05 0.998D-04 0.207D-03
 Coeff:     -0.721D-03-0.542D-02-0.430D-01 0.177D+00 0.871D+00
 Gap=     0.359 Goal=   None    Shift=    0.000
 RMSDP=1.17D-08 MaxDP=2.06D-07 DE=-7.50D-12 OVMax= 4.36D-07

 Cycle  12  Pass 1  IDiag  1:
 E= -644.149223580323     Delta-E=       -0.000000000020 Rises=F Damp=F
 DIIS: error= 3.18D-08 at cycle  12 NSaved=  12.
 NSaved=12 IEnMin=12 EnMin= -644.149223580323     IErMin=12 ErrMin= 3.18D-08
 ErrMax= 3.18D-08  0.00D+00 EMaxC= 1.00D-01 BMatC= 3.16D-13 BMatP= 1.10D-12
 IDIUse=1 WtCom= 1.00D+00 WtEn= 0.00D+00
 Coeff-Com:  0.591D-06-0.108D-05-0.478D-05-0.996D-05 0.764D-05 0.378D-03
 Coeff-Com:  0.812D-03-0.120D-02-0.206D-01-0.221D-02 0.385D+00 0.637D+00
 Coeff:      0.591D-06-0.108D-05-0.478D-05-0.996D-05 0.764D-05 0.378D-03
 Coeff:      0.812D-03-0.120D-02-0.206D-01-0.221D-02 0.385D+00 0.637D+00
 Gap=     0.359 Goal=   None    Shift=    0.000
 RMSDP=3.42D-09 MaxDP=8.47D-08 DE=-1.98D-11 OVMax= 1.30D-07

 SCF Done:  E(RM062X) =  -644.149223580     A.U. after   12 cycles
            NFock= 12  Conv=0.34D-08     -V/T= 2.0025
 KE= 6.425234821709D+02 PE=-2.087787103066D+03 EE= 5.210845287567D+02
 Leave Link  502 at Sat Dec 17 22:59:16 2022, MaxMem=  6710886400 cpu:              98.9 elap:               5.4
 (Enter /data0/home/software/g16/l601.exe)
 Copying SCF densities to generalized density rwf, IOpCl= 0 IROHF=0.

 **********************************************************************

            Population analysis using the SCF density.

 **********************************************************************

 Alpha  occ. eigenvalues --  -78.16850 -19.68544 -19.68352 -19.67445 -19.59091
 Alpha  occ. eigenvalues --   -6.97621  -5.09514  -5.09492  -5.09347  -1.24213
 Alpha  occ. eigenvalues --   -1.16900  -1.16180  -1.09153  -0.72975  -0.64805
 Alpha  occ. eigenvalues --   -0.63926  -0.57681  -0.53780  -0.51392  -0.49124
 Alpha  occ. eigenvalues --   -0.47220  -0.46023  -0.42641  -0.38823  -0.38108
 Alpha virt. eigenvalues --   -0.02198   0.01412   0.02008   0.04690   0.09045
 Alpha virt. eigenvalues --    0.10471   0.10696   0.13117   0.15901   0.16992
 Alpha virt. eigenvalues --    0.17960   0.19192   0.19510   0.20357   0.21337
 Alpha virt. eigenvalues --    0.21766   0.23749   0.24701   0.25803   0.27098
 Alpha virt. eigenvalues --    0.28350   0.29374   0.30674   0.31268   0.31819
 Alpha virt. eigenvalues --    0.34841   0.36340   0.37489   0.40990   0.42949
 Alpha virt. eigenvalues --    0.46402   0.48193   0.50907   0.56419   0.57474
 Alpha virt. eigenvalues --    0.74589   0.76201   0.77078   0.85826   0.96757
 Alpha virt. eigenvalues --    1.00568   1.02182   1.05427   1.08163   1.11018
 Alpha virt. eigenvalues --    1.11890   1.14450   1.17467   1.19220   1.20507
 Alpha virt. eigenvalues --    1.22253   1.25258   1.25837   1.29088   1.33153
 Alpha virt. eigenvalues --    1.38012   1.40774   1.43940   1.46951   1.49657
 Alpha virt. eigenvalues --    1.52291   1.56289   1.57694   1.62978   1.64173
 Alpha virt. eigenvalues --    1.65928   1.70595   1.73669   1.76233   1.79198
 Alpha virt. eigenvalues --    1.82998   1.85118   1.87216   1.91266   1.95404
 Alpha virt. eigenvalues --    2.00989   2.04277   2.06927   2.11275   2.11945
 Alpha virt. eigenvalues --    2.23045   2.23952   2.26672   2.36728   2.44072
 Alpha virt. eigenvalues --    2.50590   2.56318   2.60577   2.61210   2.71747
 Alpha virt. eigenvalues --    2.74476   2.80861   2.84673   2.90089   2.94324
 Alpha virt. eigenvalues --    5.01934   5.06170   5.07025   5.07471   5.10273
 Alpha virt. eigenvalues --    5.11440   5.18859   5.21883   5.34479   5.45811
 Alpha virt. eigenvalues --    5.50512   5.52110   6.70608   6.74323   6.76110
 Alpha virt. eigenvalues --    6.76799   6.78860   6.80280   6.84051   6.86137
 Alpha virt. eigenvalues --    6.90164   6.92406   6.94727   6.96183   6.99958
 Alpha virt. eigenvalues --    7.07356   7.11216   7.22633   7.25345   7.27449
 Alpha virt. eigenvalues --    7.31500   7.39527   7.64054  14.22875  14.23856
 Alpha virt. eigenvalues --   14.35207  49.98965  49.99950  50.01002  50.09425
 Alpha virt. eigenvalues --  163.85549
          Condensed to atoms (all electrons):
              16         17         18         19         20         21
    16  P   12.450837   0.571266   0.237468  -0.002023   0.187812   0.039525
    17  O    0.571266   8.107533  -0.011627  -0.010142  -0.025935   0.001658
    18  O    0.237468  -0.011627   8.061994   0.267928  -0.016331  -0.012682
    19  H   -0.002023  -0.010142   0.267928   0.419677   0.001412   0.001213
    20  O    0.187812  -0.025935  -0.016331   0.001412   8.122305   0.231873
    21  H    0.039525   0.001658  -0.012682   0.001213   0.231873   0.441095
    22  O    0.318648  -0.038060   0.008014  -0.006577  -0.006678  -0.011284
    23  H   -0.004424  -0.002745  -0.002466  -0.000593   0.003024   0.000855
              22         23
    16  P    0.318648  -0.004424
    17  O   -0.038060  -0.002745
    18  O    0.008014  -0.002466
    19  H   -0.006577  -0.000593
    20  O   -0.006678   0.003024
    21  H   -0.011284   0.000855
    22  O    8.009673   0.283440
    23  H    0.283440   0.381744
 Mulliken charges:
               1
     1  C    0.000000
     2  C    0.000000
     3  C    0.000000
     4  C    0.000000
     5  C    0.000000
     6  C    0.000000
     7  H    0.000000
     8  H    0.000000
     9  H    0.000000
    10  H    0.000000
    11  H    0.000000
    12  C    0.000000
    13  H    0.000000
    14  N    0.000000
    15  N    0.000000
    16  P    1.200890
    17  O   -0.591947
    18  O   -0.532298
    19  H    0.329104
    20  O   -0.497482
    21  H    0.307745
    22  O   -0.557178
    23  H    0.341165
 Sum of Mulliken charges =  -0.00000
 Mulliken charges with hydrogens summed into heavy atoms:
               1
     1  C    0.000000
     2  C    0.000000
     3  C    0.000000
     4  C    0.000000
     5  C    0.000000
     6  C    0.000000
    12  C    0.000000
    14  N    0.000000
    15  N    0.000000
    16  P    1.200890
    17  O   -0.591947
    18  O   -0.203193
    20  O   -0.189737
    22  O   -0.216013
         Mulliken charges condensed to fragments:
      1      0.000000
      2     -0.000000
 Electronic spatial extent (au):  <R**2>=          41641.5269
 Charge=             -0.0000 electrons
 Dipole moment (field-independent basis, Debye):
    X=              3.0210    Y=             -1.3254    Z=              2.1840  Tot=              3.9564
 Quadrupole moment (field-independent basis, Debye-Ang):
   XX=             20.2476   YY=            -58.1761   ZZ=              4.2522
   XY=             18.4676   XZ=             43.6565   YZ=             11.5038
 Traceless Quadrupole moment (field-independent basis, Debye-Ang):
   XX=             31.4731   YY=            -46.9507   ZZ=             15.4776
   XY=             18.4676   XZ=             43.6565   YZ=             11.5038
 Octapole moment (field-independent basis, Debye-Ang**2):
  XXX=           -233.5284  YYY=          -1228.5592  ZZZ=           -307.0586  XYY=           -226.5734
  XXY=            151.1770  XXZ=            333.4660  XZZ=            213.5524  YZZ=              0.2817
  YYZ=           -255.2432  XYZ=            350.1198
 Hexadecapole moment (field-independent basis, Debye-Ang**3):
 XXXX=          -9631.3928 YYYY=         -19979.2077 ZZZZ=          -7101.2769 XXXY=          -1746.4802
 XXXZ=           -381.6832 YYYX=          -8211.6698 YYYZ=          -7912.4754 ZZZX=          -1622.4980
 ZZZY=          -2794.1138 XXYY=          -1845.0839 XXZZ=           1216.6197 YYZZ=          -2761.8948
 XXYZ=           3047.3228 YYXZ=            147.3876 ZZXY=           1867.4523
 N-N= 2.800298685584D+02 E-N=-2.087787104423D+03  KE= 6.425234821709D+02
 No NMR shielding tensors so no spin-rotation constants.
 Leave Link  601 at Sat Dec 17 22:59:16 2022, MaxMem=  6710886400 cpu:               2.0 elap:               0.1
 (Enter /data0/home/software/g16/l122.exe)
 CPIOFr:  IOpCl= 0 IRwI=-1 IRwCP=  731 ICalc=  4 LCPTot=      297221 Len1MO=      783136 IndFrg=     4212901
 Restoring MOs from calculation   1 to rwf.
 CPIOFr:  IOpCl= 0 IRwI=-2 IRwCP=  731 ICalc=  0 LCPTot=      297221 Len1MO=      783136 IndFrg=     1080357
 Counterpoise corrected energy =   -1023.993675515162
                   BSSE energy =       0.001526814015
              sum of fragments =   -1023.966059538147
           complexation energy =     -18.29 kcal/mole (raw)
           complexation energy =     -17.33 kcal/mole (corrected)
 Leave Link  122 at Sat Dec 17 22:59:16 2022, MaxMem=  6710886400 cpu:               0.3 elap:               0.0
 (Enter /data0/home/software/g16/l9999.exe)
 1\1\GINC-LOCALHOST\SP\RM062X\6-311+G(2d,p)\C7H9N2O4P1\WUHANYU\17-Dec-2
 022\0\\#p M062X/6-311+G(2d,p) nosymm em=GD3 counterpoise=2\\Title Card
  Required\\0,1\C,0,9.549098,11.941592,11.407958\C,0,9.945762,10.570998
 ,11.571605\C,0,11.258038,10.260358,11.944571\C,0,12.131459,11.313252,1
 2.149349\C,0,11.730713,12.659179,11.989909\C,0,10.44275,12.995708,11.6
 15049\H,0,11.562743,9.221868,12.05753\H,0,13.160784,11.110297,12.44314
 9\H,0,12.463315,13.445708,12.169676\H,0,10.123394,14.027101,11.479776\
 H,0,7.664455,12.731579,10.764559\C,0,7.839934,10.567471,10.941198\H,0,
 6.85648,10.244616,10.625775\N,0,8.206568,11.911678,11.024535\N,0,8.851
 178,9.752102,11.278363\P,0,9.413813,8.816127,8.090691\O,0,8.608246,10.
 045547,8.064532\O,0,9.109237,7.776393,9.24323\H,0,9.074463,8.301755,10
 .16682\O,0,9.165128,7.9479,6.780038\H,0,9.735893,7.089734,6.866354\O,0
 ,10.995854,8.963474,8.125328\H,0,11.273483,9.946037,8.313078\\Version=
 ES64L-G16RevA.03\HF=-644.1492236\RMSD=3.420e-09\Dipole=0.4164976,1.237
 0433,0.9607223\Quadrupole=-13.5647307,20.8559892,-7.2912585,26.2739418
 ,21.4812279,45.3088248\PG=C01 [X(C7H9N2O4P1)]\\@


 THE WISE MAN HAS THE POWER TO REASON AWAY
 WHAT A FOOL BELIEVES.
                     - DOOBIE BROTHERS
 Job cpu time:       0 days  1 hours 20 minutes 59.4 seconds.
 Elapsed time:       0 days  0 hours  3 minutes 25.2 seconds.
 File lengths (MBytes):  RWF=    149 Int=      0 D2E=      0 Chk=     44 Scr=      1
 Normal termination of Gaussian 16 at Sat Dec 17 22:59:16 2022.
