 Entering Gaussian System, Link 0=g16
 Initial command:
 /data0/home/software/g16/l1.exe "/data0/home/software/g16/scratch/Gau-3815681.inp" -scrdir="/data0/home/software/g16/scratch/"
 Default is to use a total of  22 processors:
                               22 via shared-memory
                                1 via Linda
 Entering Link 1 = /data0/home/software/g16/l1.exe PID=   3815682.
  
 Copyright (c) 1988,1990,1992,1993,1995,1998,2003,2009,2016,
            Gaussian, Inc.  All Rights Reserved.
  
 This is part of the Gaussian(R) 16 program.  It is based on
 the Gaussian(R) 09 system (copyright 2009, Gaussian, Inc.),
 the Gaussian(R) 03 system (copyright 2003, Gaussian, Inc.),
 the Gaussian(R) 98 system (copyright 1998, Gaussian, Inc.),
 the Gaussian(R) 94 system (copyright 1995, Gaussian, Inc.),
 the Gaussian 92(TM) system (copyright 1992, Gaussian, Inc.),
 the Gaussian 90(TM) system (copyright 1990, Gaussian, Inc.),
 the Gaussian 88(TM) system (copyright 1988, Gaussian, Inc.),
 the Gaussian 86(TM) system (copyright 1986, Carnegie Mellon
 University), and the Gaussian 82(TM) system (copyright 1983,
 Carnegie Mellon University). Gaussian is a federally registered
 trademark of Gaussian, Inc.
  
 This software contains proprietary and confidential information,
 including trade secrets, belonging to Gaussian, Inc.
  
 This software is provided under written license and may be
 used, copied, transmitted, or stored only in accord with that
 written license.
  
 The following legend is applicable only to US Government
 contracts under FAR:
  
                    RESTRICTED RIGHTS LEGEND
  
 Use, reproduction and disclosure by the US Government is
 subject to restrictions as set forth in subparagraphs (a)
 and (c) of the Commercial Computer Software - Restricted
 Rights clause in FAR 52.227-19.
  
 Gaussian, Inc.
 340 Quinnipiac St., Bldg. 40, Wallingford CT 06492
  
  
 ---------------------------------------------------------------
 Warning -- This program may not be used in any manner that
 competes with the business of Gaussian, Inc. or will provide
 assistance to any competitor of Gaussian, Inc.  The licensee
 of this program is prohibited from giving any competitor of
 Gaussian, Inc. access to this program.  By using this program,
 the user acknowledges that Gaussian, Inc. is engaged in the
 business of creating and licensing software in the field of
 computational chemistry and represents and warrants to the
 licensee that it is not a competitor of Gaussian, Inc. and that
 it will not use this program in any manner prohibited above.
 ---------------------------------------------------------------
  

 Cite this work as:
 Gaussian 16, Revision A.03,
 M. J. Frisch, G. W. Trucks, H. B. Schlegel, G. E. Scuseria, 
 M. A. Robb, J. R. Cheeseman, G. Scalmani, V. Barone, 
 G. A. Petersson, H. Nakatsuji, X. Li, M. Caricato, A. V. Marenich, 
 J. Bloino, B. G. Janesko, R. Gomperts, B. Mennucci, H. P. Hratchian, 
 J. V. Ortiz, A. F. Izmaylov, J. L. Sonnenberg, D. Williams-Young, 
 F. Ding, F. Lipparini, F. Egidi, J. Goings, B. Peng, A. Petrone, 
 T. Henderson, D. Ranasinghe, V. G. Zakrzewski, J. Gao, N. Rega, 
 G. Zheng, W. Liang, M. Hada, M. Ehara, K. Toyota, R. Fukuda, 
 J. Hasegawa, M. Ishida, T. Nakajima, Y. Honda, O. Kitao, H. Nakai, 
 T. Vreven, K. Throssell, J. A. Montgomery, Jr., J. E. Peralta, 
 F. Ogliaro, M. J. Bearpark, J. J. Heyd, E. N. Brothers, K. N. Kudin, 
 V. N. Staroverov, T. A. Keith, R. Kobayashi, J. Normand, 
 K. Raghavachari, A. P. Rendell, J. C. Burant, S. S. Iyengar, 
 J. Tomasi, M. Cossi, J. M. Millam, M. Klene, C. Adamo, R. Cammi, 
 J. W. Ochterski, R. L. Martin, K. Morokuma, O. Farkas, 
 J. B. Foresman, and D. J. Fox, Gaussian, Inc., Wallingford CT, 2016.
 
 ******************************************
 Gaussian 16:  ES64L-G16RevA.03 25-Dec-2016
                17-Dec-2022 
 ******************************************
 %nproc=24
 Will use up to   24 processors via shared memory.
 %mem=50GB
 ---------------------------------------------------
 #p M062X/6-311+G(2d,p) nosymm em=GD3 counterpoise=2
 ---------------------------------------------------
 1/38=1,62=2,172=1/1;
 2/12=2,15=1,17=6,18=5,40=1/2;
 1/38=1,53=2,62=2,63=1/22;
 3/5=4,6=6,7=112,11=2,25=1,30=1,74=-55,124=31/1,2,3;
 4//1;
 5/5=2,38=5/2;
 6/7=2,8=2,9=2,10=2,28=1/1;
 1/53=2,62=2,63=1/22;
 3/5=7,6=11,7=112,11=2,25=1,30=1,74=-55,82=7,124=31/1,2,3;
 4//1;
 5/5=2,38=5/2;
 6/7=2,8=2,9=2,10=2,28=1/1;
 1/53=2,62=2,63=1/22(-4);
 99/5=1,9=1/99;
 Leave Link    1 at Sat Dec 17 22:48:40 2022, MaxMem=  6710886400 cpu:               0.8 elap:               0.0
 (Enter /data0/home/software/g16/l101.exe)
 -------------------
 Title Card Required
 -------------------
 Symbolic Z-matrix:
 Charge =  0 Multiplicity = 1 in supermolecule
 Charge =  0 Multiplicity = 1 in fragment      1.
 Charge =  0 Multiplicity = 1 in fragment      2.
 C                     6.63533   14.60377   11.17031    
 C                     6.12067   15.45263   10.1324    
 C                     5.17017   14.96601   9.23012    
 C                     4.75611   13.65426   9.3819     
 C                     5.26141   12.82867   10.40878    
 C                     6.20208   13.2843   11.31725    
 H                     4.7825    15.61077   8.44368    
 H                     4.0157    13.23927   8.69817    
 H                     4.89432   11.80414   10.48294    
 H                     6.586     12.64705   12.10783    
 H                     8.14556   15.05992   12.6127    
 C                     7.59743   16.63715   11.24939    
 H                     8.26211   17.42959   11.57457    
 N                     7.56119   15.38174   11.87457    
 N                     6.73857   16.70551   10.22659    
 P                     9.54794   16.89918   8.24962    
 O                     9.6077    16.01979   9.42286    
 O                     8.09883   17.38428   7.81141    
 H                     7.4687    17.40694   8.65348    
 O                     10.39019   18.22559   8.50029    
 H                     10.37003   18.78139   7.63218    
 O                     10.14559   16.37055   6.87947    
 H                     9.67948   15.45716   6.64839    
 
 ITRead=  0  0  0  0  0  0  0  0  0  0  0  0  0  0  0  0  0  0  0  0
 ITRead=  0  0  0
 MicOpt= -1 -1 -1 -1 -1 -1 -1 -1 -1 -1 -1 -1 -1 -1 -1 -1 -1 -1 -1 -1
 MicOpt= -1 -1 -1
 NAtoms=     23 NQM=       23 NQMF=       0 NMMI=      0 NMMIF=      0
                NMic=       0 NMicF=      0.
                    Isotopes and Nuclear Properties:
 (Nuclear quadrupole moments (NQMom) in fm**2, nuclear magnetic moments (NMagM)
  in nuclear magnetons)

  Atom         1           2           3           4           5           6           7           8           9          10
 IAtWgt=          12          12          12          12          12          12           1           1           1           1
 AtmWgt=  12.0000000  12.0000000  12.0000000  12.0000000  12.0000000  12.0000000   1.0078250   1.0078250   1.0078250   1.0078250
 NucSpn=           0           0           0           0           0           0           1           1           1           1
 AtZEff=  -0.0000000  -0.0000000  -0.0000000  -0.0000000  -0.0000000  -0.0000000  -0.0000000  -0.0000000  -0.0000000  -0.0000000
 NQMom=    0.0000000   0.0000000   0.0000000   0.0000000   0.0000000   0.0000000   0.0000000   0.0000000   0.0000000   0.0000000
 NMagM=    0.0000000   0.0000000   0.0000000   0.0000000   0.0000000   0.0000000   2.7928460   2.7928460   2.7928460   2.7928460
 AtZNuc=   6.0000000   6.0000000   6.0000000   6.0000000   6.0000000   6.0000000   1.0000000   1.0000000   1.0000000   1.0000000

  Atom        11          12          13          14          15          16          17          18          19          20
 IAtWgt=           1          12           1          14          14          31          16          16           1          16
 AtmWgt=   1.0078250  12.0000000   1.0078250  14.0030740  14.0030740  30.9737634  15.9949146  15.9949146   1.0078250  15.9949146
 NucSpn=           1           0           1           2           2           1           0           0           1           0
 AtZEff=  -0.0000000  -0.0000000  -0.0000000  -0.0000000  -0.0000000  -0.0000000  -0.0000000  -0.0000000  -0.0000000  -0.0000000
 NQMom=    0.0000000   0.0000000   0.0000000   2.0440000   2.0440000   0.0000000   0.0000000   0.0000000   0.0000000   0.0000000
 NMagM=    2.7928460   0.0000000   2.7928460   0.4037610   0.4037610   1.1316000   0.0000000   0.0000000   2.7928460   0.0000000
 AtZNuc=   1.0000000   6.0000000   1.0000000   7.0000000   7.0000000  15.0000000   8.0000000   8.0000000   1.0000000   8.0000000

  Atom        21          22          23
 IAtWgt=           1          16           1
 AtmWgt=   1.0078250  15.9949146   1.0078250
 NucSpn=           1           0           1
 AtZEff=  -0.0000000  -0.0000000  -0.0000000
 NQMom=    0.0000000   0.0000000   0.0000000
 NMagM=    2.7928460   0.0000000   2.7928460
 AtZNuc=   1.0000000   8.0000000   1.0000000
 Leave Link  101 at Sat Dec 17 22:48:41 2022, MaxMem=  6710886400 cpu:               2.2 elap:               0.1
 (Enter /data0/home/software/g16/l202.exe)
                          Input orientation:                          
 ---------------------------------------------------------------------
 Center     Atomic      Atomic             Coordinates (Angstroms)
 Number     Number       Type             X           Y           Z
 ---------------------------------------------------------------------
      1          6           0        6.635329   14.603765   11.170309
      2          6           0        6.120670   15.452629   10.132403
      3          6           0        5.170173   14.966014    9.230123
      4          6           0        4.756111   13.654264    9.381903
      5          6           0        5.261407   12.828667   10.408784
      6          6           0        6.202080   13.284302   11.317248
      7          1           0        4.782497   15.610770    8.443678
      8          1           0        4.015704   13.239272    8.698169
      9          1           0        4.894323   11.804143   10.482939
     10          1           0        6.585999   12.647051   12.107827
     11          1           0        8.145565   15.059925   12.612696
     12          6           0        7.597426   16.637153   11.249394
     13          1           0        8.262109   17.429595   11.574569
     14          7           0        7.561187   15.381739   11.874571
     15          7           0        6.738567   16.705510   10.226588
     16         15           0        9.547939   16.899181    8.249616
     17          8           0        9.607698   16.019786    9.422860
     18          8           0        8.098830   17.384281    7.811414
     19          1           0        7.468700   17.406937    8.653482
     20          8           0       10.390186   18.225593    8.500291
     21          1           0       10.370026   18.781395    7.632182
     22          8           0       10.145594   16.370554    6.879466
     23          1           0        9.679480   15.457157    6.648388
 ---------------------------------------------------------------------
                    Distance matrix (angstroms):
                    1          2          3          4          5
     1  C    0.000000
     2  C    1.436208   0.000000
     3  C    2.458094   1.397980   0.000000
     4  C    2.762500   2.378947   1.383898   0.000000
     5  C    2.370349   2.774869   2.442502   1.411176   0.000000
     6  C    1.396524   2.472272   2.872121   2.444025   1.384838
     7  H    3.446964   2.160442   1.088347   2.169995   3.439636
     8  H    3.851721   3.374442   2.144158   1.089914   2.155592
     9  H    3.367709   3.865004   3.412194   2.157390   1.090825
    10  H    2.170277   3.462672   3.957693   3.434185   2.162007
    11  H    2.137610   3.225875   4.505949   4.888998   4.260764
    12  C    2.250900   2.198084   3.572355   4.523076   4.546227
    13  H    3.285598   3.251768   4.596273   5.599369   5.615319
    14  N    1.399443   2.261695   3.589273   4.131103   3.735732
    15  N    2.306209   1.400135   2.545319   3.735469   4.152723
    16  P    4.720453   4.169361   4.885014   5.896878   6.293286
    17  O    3.727421   3.603399   4.564998   5.397710   5.481380
    18  O    4.599487   3.609901   4.054354   5.249117   5.962459
    19  H    3.858328   2.797090   3.402036   4.687354   5.377154
    20  O    5.860511   5.346203   6.197261   7.308700   7.685931
    21  H    6.627133   5.948850   6.644473   7.801605   8.321206
    22  O    5.818491   5.255873   5.679184   6.533525   6.989730
    23  H    5.517509   4.980312   5.219236   5.912875   6.369373
                    6          7          8          9         10
     6  C    0.000000
     7  H    3.960439   0.000000
     8  H    3.412014   2.505342   0.000000
     9  H    2.144101   4.319896   2.452951   0.000000
    10  H    1.085586   5.046012   4.310790   2.492493   0.000000
    11  H    2.933966   5.384642   5.974450   5.070163   2.917036
    12  C    3.632245   4.104793   5.557254   5.590367   4.204855
    13  H    4.636096   5.021783   6.623023   6.646755   5.095727
    14  N    2.560668   4.420928   5.220167   4.674184   2.912717
    15  N    3.630705   2.864164   4.665282   5.243124   4.475872
    16  P    5.802800   4.940354   6.648440   7.252812   6.460611
    17  O    4.761283   4.940512   6.287037   6.411811   5.264509
    18  O    5.718248   3.813550   5.885521   6.967342   6.571847
    19  H    5.069132   3.238197   5.412450   6.431612   5.947115
    20  O    7.063415   6.187623   8.095466   8.681614   7.655474
    21  H    7.821094   6.475482   8.498757   9.316232   8.484128
    22  O    6.691051   5.637982   7.119562   7.836643   7.339683
    23  H    6.213844   5.217960   6.418643   7.137648   6.875449
                   11         12         13         14         15
    11  H    0.000000
    12  C    2.155620   0.000000
    13  H    2.589715   1.084208   0.000000
    14  N    0.994932   1.402934   2.185179   0.000000
    15  N    3.221972   1.337327   2.159290   2.268242   0.000000
    16  P    4.938217   3.587733   3.604166   4.403421   3.440712
    17  O    3.637887   2.785420   2.903106   3.256716   3.057468
    18  O    5.334522   3.553774   3.766968   4.561631   2.853789
    19  H    4.652095   2.710700   3.027005   3.805968   1.870764
    20  O    5.654348   4.228501   3.822762   5.241804   4.315678
    21  H    6.603263   5.036795   4.670449   6.119240   4.922168
    22  O    6.211907   5.065620   5.168469   5.710340   4.787824
    23  H    6.171196   5.186193   5.492423   5.639667   4.796965
                   16         17         18         19         20
    16  P    0.000000
    17  O    1.467450   0.000000
    18  O    1.589736   2.595243   0.000000
    19  H    2.178109   2.662976   1.051977   0.000000
    20  O    1.591096   2.515751   2.536271   3.037885   0.000000
    21  H    2.144710   3.378484   2.672524   3.368958   1.030988
    22  O    1.585544   2.623209   2.466863   3.374461   2.475494
    23  H    2.158858   2.831854   2.750435   3.565052   3.405714
                   21         22         23
    21  H    0.000000
    22  O    2.535568   0.000000
    23  H    3.534864   1.051168   0.000000
 Symmetry turned off by external request.
 Stoichiometry    C7H9N2O4P
 Framework group  C1[X(C7H9N2O4P)]
 Deg. of freedom    63
 Full point group                 C1      NOp   1
 Rotational constants (GHZ):           1.2644076           0.3428749           0.3160655
 Leave Link  202 at Sat Dec 17 22:48:41 2022, MaxMem=  6710886400 cpu:               0.1 elap:               0.0
 (Enter /data0/home/software/g16/l122.exe)
 Counterpoise: doing full-system calculation.
 Leave Link  122 at Sat Dec 17 22:48:41 2022, MaxMem=  6710886400 cpu:               0.1 elap:               0.0
 (Enter /data0/home/software/g16/l301.exe)
 Standard basis: 6-311+G(2d,p) (5D, 7F)
 Ernie: Thresh=  0.10000D-02 Tol=  0.10000D-05 Strict=F.
   440 basis functions,   674 primitive gaussians,   468 cartesian basis functions
    56 alpha electrons       56 beta electrons
       nuclear repulsion energy      1028.8155139918 Hartrees.
 IExCor= 4336 DFT=T Ex+Corr=M062X ExCW=0 ScaHFX=  0.540000
 ScaDFX=  1.000000  1.000000  1.000000  1.000000 ScalE2=  1.000000  1.000000
 IRadAn=      5 IRanWt=     -1 IRanGd=            0 ICorTp=0 IEmpDi=131
 NAtoms=   23 NActive=   23 NUniq=   23 SFac= 1.00D+00 NAtFMM=   60 NAOKFM=F Big=F
 Integral buffers will be    131072 words long.
 Raffenetti 2 integral format.
 Two-electron integral symmetry is turned off.
 R6Disp:  Grimme-D3 Dispersion energy=       -0.0010213438 Hartrees.
 Nuclear repulsion after empirical dispersion term =     1028.8144926480 Hartrees.
 Leave Link  301 at Sat Dec 17 22:48:41 2022, MaxMem=  6710886400 cpu:               1.1 elap:               0.1
 (Enter /data0/home/software/g16/l302.exe)
 NPDir=0 NMtPBC=     1 NCelOv=     1 NCel=       1 NClECP=     1 NCelD=      1
         NCelK=      1 NCelE2=     1 NClLst=     1 CellRange=     0.0.
 One-electron integrals computed using PRISM.
 NBasis=   440 RedAO= T EigKep=  1.17D-06  NBF=   440
 NBsUse=   440 1.00D-06 EigRej= -1.00D+00 NBFU=   440
 Precomputing XC quadrature grid using
 IXCGrd= 4 IRadAn=           5 IRanWt=          -1 IRanGd=           0 AccXCQ= 0.00D+00.
 Generated NRdTot=       0 NPtTot=           0 NUsed=           0 NTot=          32
 NSgBfM=   466   466   466   466   466 MxSgAt=    23 MxSgA2=    23.
 Leave Link  302 at Sat Dec 17 22:48:41 2022, MaxMem=  6710886400 cpu:               8.0 elap:               0.4
 (Enter /data0/home/software/g16/l303.exe)
 DipDrv:  MaxL=1.
 Leave Link  303 at Sat Dec 17 22:48:41 2022, MaxMem=  6710886400 cpu:               1.0 elap:               0.1
 (Enter /data0/home/software/g16/l401.exe)
 ExpMin= 3.48D-02 ExpMax= 7.75D+04 ExpMxC= 2.65D+03 IAcc=3 IRadAn=         5 AccDes= 0.00D+00
 Harris functional with IExCor= 1009 and IRadAn=       5 diagonalized for initial guess.
 HarFok:  IExCor= 1009 AccDes= 0.00D+00 IRadAn=         5 IDoV= 1 UseB2=F ITyADJ=14
 ICtDFT=  3500011 ScaDFX=  1.000000  1.000000  1.000000  1.000000
 FoFCou: FMM=F IPFlag=           0 FMFlag=      100000 FMFlg1=           0
         NFxFlg=           0 DoJE=T BraDBF=F KetDBF=T FulRan=T
         wScrn=  0.000000 ICntrl=       500 IOpCl=  0 I1Cent=   200000004 NGrid=           0
         NMat0=    1 NMatS0=      1 NMatT0=    0 NMatD0=    1 NMtDS0=    0 NMtDT0=    0
 Symmetry not used in FoFCou.
 Harris En= -1023.56170097377    
 JPrj=0 DoOrth=F DoCkMO=F.
 Leave Link  401 at Sat Dec 17 22:48:42 2022, MaxMem=  6710886400 cpu:              29.7 elap:               1.3
 (Enter /data0/home/software/g16/l502.exe)
 Two-electron integral symmetry not used.
 Closed shell SCF:
 Using DIIS extrapolation, IDIIS=  1040.
 NGot=  6710886400 LenX=  6710433895 LenY=  6710214403
 Requested convergence on RMS density matrix=1.00D-08 within 128 cycles.
 Requested convergence on MAX density matrix=1.00D-06.
 Requested convergence on             energy=1.00D-06.
 No special actions if energy rises.
 Fock matrices will be formed incrementally for  20 cycles.

 Cycle   1  Pass 1  IDiag  1:
 FoFJK:  IHMeth= 1 ICntrl=       0 DoSepK=F KAlg= 0 I1Cent=           0 FoldK=F
 IRaf= 860000000 NMat=       1 IRICut=       1 DoRegI=T DoRafI=F ISym2E= 0 IDoP0=0 IntGTp=1.
 FoFCou: FMM=F IPFlag=           0 FMFlag=      100000 FMFlg1=           0
         NFxFlg=           0 DoJE=F BraDBF=F KetDBF=F FulRan=T
         wScrn=  0.000000 ICntrl=         0 IOpCl=  0 I1Cent=           0 NGrid=           0
         NMat0=    1 NMatS0=      1 NMatT0=    0 NMatD0=    1 NMtDS0=    0 NMtDT0=    0
 Symmetry not used in FoFCou.
 E= -1023.52333601758    
 DIIS: error= 2.58D-02 at cycle   1 NSaved=   1.
 NSaved= 1 IEnMin= 1 EnMin= -1023.52333601758     IErMin= 1 ErrMin= 2.58D-02
 ErrMax= 2.58D-02  0.00D+00 EMaxC= 1.00D-01 BMatC= 7.39D-01 BMatP= 7.39D-01
 IDIUse=3 WtCom= 7.42D-01 WtEn= 2.58D-01
 Coeff-Com:  0.100D+01
 Coeff-En:   0.100D+01
 Coeff:      0.100D+01
 Gap=     0.306 Goal=   None    Shift=    0.000
 GapD=    0.306 DampG=1.000 DampE=0.500 DampFc=0.5000 IDamp=-1.
 Damping current iteration by 5.00D-01
 RMSDP=1.12D-02 MaxDP=2.00D+00              OVMax= 2.32D-01

 Cycle   2  Pass 1  IDiag  1:
 RMSU=  4.90D-03    CP:  1.10D+00
 E= -1023.73417534124     Delta-E=       -0.210839323665 Rises=F Damp=T
 DIIS: error= 6.57D-03 at cycle   2 NSaved=   2.
 NSaved= 2 IEnMin= 2 EnMin= -1023.73417534124     IErMin= 2 ErrMin= 6.57D-03
 ErrMax= 6.57D-03  0.00D+00 EMaxC= 1.00D-01 BMatC= 4.83D-02 BMatP= 7.39D-01
 IDIUse=3 WtCom= 9.34D-01 WtEn= 6.57D-02
 Coeff-Com:  0.103D-01 0.990D+00
 Coeff-En:   0.890D-01 0.911D+00
 Coeff:      0.154D-01 0.985D+00
 Gap=     0.292 Goal=   None    Shift=    0.000
 RMSDP=4.71D-03 MaxDP=6.38D-01 DE=-2.11D-01 OVMax= 1.32D-01

 Cycle   3  Pass 1  IDiag  1:
 RMSU=  3.41D-03    CP:  9.83D-01  8.68D-01
 E= -1023.98013659663     Delta-E=       -0.245961255388 Rises=F Damp=F
 DIIS: error= 5.95D-03 at cycle   3 NSaved=   3.
 NSaved= 3 IEnMin= 3 EnMin= -1023.98013659663     IErMin= 3 ErrMin= 5.95D-03
 ErrMax= 5.95D-03  0.00D+00 EMaxC= 1.00D-01 BMatC= 1.81D-02 BMatP= 4.83D-02
 IDIUse=3 WtCom= 9.40D-01 WtEn= 5.95D-02
 Coeff-Com: -0.610D-01 0.355D+00 0.706D+00
 Coeff-En:   0.000D+00 0.000D+00 0.100D+01
 Coeff:     -0.574D-01 0.334D+00 0.723D+00
 Gap=     0.282 Goal=   None    Shift=    0.000
 RMSDP=2.14D-03 MaxDP=3.39D-01 DE=-2.46D-01 OVMax= 3.90D-02

 Cycle   4  Pass 1  IDiag  1:
 RMSU=  1.53D-03    CP:  9.31D-01  8.03D-01  8.37D-01
 E= -1023.99027740688     Delta-E=       -0.010140810245 Rises=F Damp=F
 DIIS: error= 2.41D-03 at cycle   4 NSaved=   4.
 NSaved= 4 IEnMin= 4 EnMin= -1023.99027740688     IErMin= 4 ErrMin= 2.41D-03
 ErrMax= 2.41D-03  0.00D+00 EMaxC= 1.00D-01 BMatC= 4.70D-03 BMatP= 1.81D-02
 IDIUse=3 WtCom= 9.76D-01 WtEn= 2.41D-02
 Coeff-Com: -0.326D-01 0.904D-01 0.389D+00 0.553D+00
 Coeff-En:   0.000D+00 0.000D+00 0.173D+00 0.827D+00
 Coeff:     -0.318D-01 0.883D-01 0.384D+00 0.560D+00
 Gap=     0.279 Goal=   None    Shift=    0.000
 RMSDP=7.26D-04 MaxDP=8.65D-02 DE=-1.01D-02 OVMax= 1.27D-02

 Cycle   5  Pass 1  IDiag  1:
 RMSU=  4.67D-04    CP:  9.41D-01  8.45D-01  8.42D-01  7.01D-01
 E= -1023.99351388699     Delta-E=       -0.003236480112 Rises=F Damp=F
 DIIS: error= 3.58D-04 at cycle   5 NSaved=   5.
 NSaved= 5 IEnMin= 5 EnMin= -1023.99351388699     IErMin= 5 ErrMin= 3.58D-04
 ErrMax= 3.58D-04  0.00D+00 EMaxC= 1.00D-01 BMatC= 1.37D-04 BMatP= 4.70D-03
 IDIUse=3 WtCom= 9.96D-01 WtEn= 3.58D-03
 Coeff-Com: -0.958D-02 0.181D-01 0.119D+00 0.234D+00 0.639D+00
 Coeff-En:   0.000D+00 0.000D+00 0.000D+00 0.000D+00 0.100D+01
 Coeff:     -0.954D-02 0.180D-01 0.118D+00 0.233D+00 0.640D+00
 Gap=     0.279 Goal=   None    Shift=    0.000
 RMSDP=1.22D-04 MaxDP=1.50D-02 DE=-3.24D-03 OVMax= 2.26D-03

 Cycle   6  Pass 1  IDiag  1:
 RMSU=  9.31D-05    CP:  9.40D-01  8.42D-01  8.53D-01  6.85D-01  8.76D-01
 E= -1023.99361339556     Delta-E=       -0.000099508571 Rises=F Damp=F
 DIIS: error= 1.53D-04 at cycle   6 NSaved=   6.
 NSaved= 6 IEnMin= 6 EnMin= -1023.99361339556     IErMin= 6 ErrMin= 1.53D-04
 ErrMax= 1.53D-04  0.00D+00 EMaxC= 1.00D-01 BMatC= 9.89D-06 BMatP= 1.37D-04
 IDIUse=3 WtCom= 9.98D-01 WtEn= 1.53D-03
 Coeff-Com: -0.146D-02 0.103D-02 0.194D-01 0.517D-01 0.261D+00 0.668D+00
 Coeff-En:   0.000D+00 0.000D+00 0.000D+00 0.000D+00 0.000D+00 0.100D+01
 Coeff:     -0.146D-02 0.103D-02 0.194D-01 0.516D-01 0.261D+00 0.668D+00
 Gap=     0.278 Goal=   None    Shift=    0.000
 RMSDP=6.05D-05 MaxDP=1.08D-02 DE=-9.95D-05 OVMax= 1.39D-03

 Cycle   7  Pass 1  IDiag  1:
 RMSU=  3.03D-05    CP:  9.39D-01  8.41D-01  8.47D-01  7.03D-01  9.42D-01
                    CP:  7.83D-01
 E= -1023.99362263842     Delta-E=       -0.000009242857 Rises=F Damp=F
 DIIS: error= 4.93D-05 at cycle   7 NSaved=   7.
 NSaved= 7 IEnMin= 7 EnMin= -1023.99362263842     IErMin= 7 ErrMin= 4.93D-05
 ErrMax= 4.93D-05  0.00D+00 EMaxC= 1.00D-01 BMatC= 9.13D-07 BMatP= 9.89D-06
 IDIUse=1 WtCom= 1.00D+00 WtEn= 0.00D+00
 Coeff-Com:  0.392D-03-0.137D-02-0.438D-02-0.472D-02 0.322D-01 0.235D+00
 Coeff-Com:  0.743D+00
 Coeff:      0.392D-03-0.137D-02-0.438D-02-0.472D-02 0.322D-01 0.235D+00
 Coeff:      0.743D+00
 Gap=     0.279 Goal=   None    Shift=    0.000
 RMSDP=1.25D-05 MaxDP=1.20D-03 DE=-9.24D-06 OVMax= 5.13D-04

 Cycle   8  Pass 1  IDiag  1:
 RMSU=  7.20D-06    CP:  9.39D-01  8.41D-01  8.47D-01  6.99D-01  9.46D-01
                    CP:  8.62D-01  1.04D+00
 E= -1023.99362359432     Delta-E=       -0.000000955905 Rises=F Damp=F
 DIIS: error= 1.87D-05 at cycle   8 NSaved=   8.
 NSaved= 8 IEnMin= 8 EnMin= -1023.99362359432     IErMin= 8 ErrMin= 1.87D-05
 ErrMax= 1.87D-05  0.00D+00 EMaxC= 1.00D-01 BMatC= 2.73D-07 BMatP= 9.13D-07
 IDIUse=1 WtCom= 1.00D+00 WtEn= 0.00D+00
 Coeff-Com:  0.485D-03-0.946D-03-0.598D-02-0.123D-01-0.302D-01 0.105D-03
 Coeff-Com:  0.392D+00 0.657D+00
 Coeff:      0.485D-03-0.946D-03-0.598D-02-0.123D-01-0.302D-01 0.105D-03
 Coeff:      0.392D+00 0.657D+00
 Gap=     0.279 Goal=   None    Shift=    0.000
 RMSDP=8.04D-06 MaxDP=1.26D-03 DE=-9.56D-07 OVMax= 2.91D-04

 Cycle   9  Pass 1  IDiag  1:
 RMSU=  2.72D-06    CP:  9.39D-01  8.41D-01  8.47D-01  6.99D-01  9.60D-01
                    CP:  8.68D-01  1.12D+00  8.19D-01
 E= -1023.99362391305     Delta-E=       -0.000000318726 Rises=F Damp=F
 DIIS: error= 8.02D-06 at cycle   9 NSaved=   9.
 NSaved= 9 IEnMin= 9 EnMin= -1023.99362391305     IErMin= 9 ErrMin= 8.02D-06
 ErrMax= 8.02D-06  0.00D+00 EMaxC= 1.00D-01 BMatC= 1.15D-08 BMatP= 2.73D-07
 IDIUse=1 WtCom= 1.00D+00 WtEn= 0.00D+00
 Coeff-Com:  0.113D-03-0.192D-03-0.142D-02-0.322D-02-0.988D-02-0.115D-01
 Coeff-Com:  0.707D-01 0.200D+00 0.755D+00
 Coeff:      0.113D-03-0.192D-03-0.142D-02-0.322D-02-0.988D-02-0.115D-01
 Coeff:      0.707D-01 0.200D+00 0.755D+00
 Gap=     0.279 Goal=   None    Shift=    0.000
 RMSDP=1.50D-06 MaxDP=2.15D-04 DE=-3.19D-07 OVMax= 8.66D-05

 Cycle  10  Pass 1  IDiag  1:
 RMSU=  9.03D-07    CP:  9.39D-01  8.41D-01  8.47D-01  6.99D-01  9.60D-01
                    CP:  8.70D-01  1.12D+00  8.71D-01  1.07D+00
 E= -1023.99362392821     Delta-E=       -0.000000015162 Rises=F Damp=F
 DIIS: error= 3.81D-06 at cycle  10 NSaved=  10.
 NSaved=10 IEnMin=10 EnMin= -1023.99362392821     IErMin=10 ErrMin= 3.81D-06
 ErrMax= 3.81D-06  0.00D+00 EMaxC= 1.00D-01 BMatC= 6.40D-09 BMatP= 1.15D-08
 IDIUse=1 WtCom= 1.00D+00 WtEn= 0.00D+00
 Coeff-Com: -0.423D-04 0.970D-04 0.507D-03 0.805D-03 0.536D-03-0.755D-02
 Coeff-Com: -0.484D-01-0.318D-01 0.454D+00 0.632D+00
 Coeff:     -0.423D-04 0.970D-04 0.507D-03 0.805D-03 0.536D-03-0.755D-02
 Coeff:     -0.484D-01-0.318D-01 0.454D+00 0.632D+00
 Gap=     0.279 Goal=   None    Shift=    0.000
 RMSDP=7.84D-07 MaxDP=7.29D-05 DE=-1.52D-08 OVMax= 4.09D-05

 Cycle  11  Pass 1  IDiag  1:
 RMSU=  3.43D-07    CP:  9.39D-01  8.41D-01  8.47D-01  6.99D-01  9.61D-01
                    CP:  8.72D-01  1.13D+00  8.83D-01  1.23D+00  7.85D-01
 E= -1023.99362393623     Delta-E=       -0.000000008017 Rises=F Damp=F
 DIIS: error= 7.37D-07 at cycle  11 NSaved=  11.
 NSaved=11 IEnMin=11 EnMin= -1023.99362393623     IErMin=11 ErrMin= 7.37D-07
 ErrMax= 7.37D-07  0.00D+00 EMaxC= 1.00D-01 BMatC= 2.42D-10 BMatP= 6.40D-09
 IDIUse=1 WtCom= 1.00D+00 WtEn= 0.00D+00
 Coeff-Com: -0.231D-04 0.480D-04 0.311D-03 0.579D-03 0.112D-02-0.130D-02
 Coeff-Com: -0.233D-01-0.321D-01 0.669D-01 0.179D+00 0.808D+00
 Coeff:     -0.231D-04 0.480D-04 0.311D-03 0.579D-03 0.112D-02-0.130D-02
 Coeff:     -0.233D-01-0.321D-01 0.669D-01 0.179D+00 0.808D+00
 Gap=     0.279 Goal=   None    Shift=    0.000
 RMSDP=2.97D-07 MaxDP=5.03D-05 DE=-8.02D-09 OVMax= 1.97D-05

 Cycle  12  Pass 1  IDiag  1:
 RMSU=  1.45D-07    CP:  9.39D-01  8.41D-01  8.47D-01  6.98D-01  9.61D-01
                    CP:  8.73D-01  1.13D+00  8.95D-01  1.25D+00  8.59D-01
                    CP:  1.02D+00
 E= -1023.99362393682     Delta-E=       -0.000000000592 Rises=F Damp=F
 DIIS: error= 6.75D-07 at cycle  12 NSaved=  12.
 NSaved=12 IEnMin=12 EnMin= -1023.99362393682     IErMin=12 ErrMin= 6.75D-07
 ErrMax= 6.75D-07  0.00D+00 EMaxC= 1.00D-01 BMatC= 8.30D-11 BMatP= 2.42D-10
 IDIUse=1 WtCom= 1.00D+00 WtEn= 0.00D+00
 Coeff-Com: -0.491D-05 0.885D-05 0.849D-04 0.175D-03 0.465D-03 0.313D-03
 Coeff-Com: -0.526D-02-0.123D-01-0.311D-01-0.837D-02 0.385D+00 0.671D+00
 Coeff:     -0.491D-05 0.885D-05 0.849D-04 0.175D-03 0.465D-03 0.313D-03
 Coeff:     -0.526D-02-0.123D-01-0.311D-01-0.837D-02 0.385D+00 0.671D+00
 Gap=     0.279 Goal=   None    Shift=    0.000
 RMSDP=1.40D-07 MaxDP=1.78D-05 DE=-5.92D-10 OVMax= 8.13D-06

 Cycle  13  Pass 1  IDiag  1:
 RMSU=  5.14D-08    CP:  9.39D-01  8.41D-01  8.47D-01  6.98D-01  9.61D-01
                    CP:  8.73D-01  1.13D+00  8.91D-01  1.27D+00  8.72D-01
                    CP:  1.14D+00  9.26D-01
 E= -1023.99362393691     Delta-E=       -0.000000000089 Rises=F Damp=F
 DIIS: error= 1.72D-07 at cycle  13 NSaved=  13.
 NSaved=13 IEnMin=13 EnMin= -1023.99362393691     IErMin=13 ErrMin= 1.72D-07
 ErrMax= 1.72D-07  0.00D+00 EMaxC= 1.00D-01 BMatC= 1.10D-11 BMatP= 8.30D-11
 IDIUse=1 WtCom= 1.00D+00 WtEn= 0.00D+00
 Coeff-Com:  0.303D-05-0.647D-05-0.290D-04-0.496D-04-0.307D-04 0.510D-03
 Coeff-Com:  0.305D-02 0.216D-02-0.250D-01-0.413D-01-0.888D-02 0.284D+00
 Coeff-Com:  0.785D+00
 Coeff:      0.303D-05-0.647D-05-0.290D-04-0.496D-04-0.307D-04 0.510D-03
 Coeff:      0.305D-02 0.216D-02-0.250D-01-0.413D-01-0.888D-02 0.284D+00
 Coeff:      0.785D+00
 Gap=     0.279 Goal=   None    Shift=    0.000
 RMSDP=4.92D-08 MaxDP=4.12D-06 DE=-8.87D-11 OVMax= 3.36D-06

 Cycle  14  Pass 1  IDiag  1:
 RMSU=  2.59D-08    CP:  9.39D-01  8.41D-01  8.47D-01  6.98D-01  9.61D-01
                    CP:  8.73D-01  1.13D+00  8.91D-01  1.27D+00  8.74D-01
                    CP:  1.18D+00  1.06D+00  1.23D+00
 E= -1023.99362393691     Delta-E=       -0.000000000003 Rises=F Damp=F
 DIIS: error= 7.47D-08 at cycle  14 NSaved=  14.
 NSaved=14 IEnMin=14 EnMin= -1023.99362393691     IErMin=14 ErrMin= 7.47D-08
 ErrMax= 7.47D-08  0.00D+00 EMaxC= 1.00D-01 BMatC= 5.69D-13 BMatP= 1.10D-11
 IDIUse=1 WtCom= 1.00D+00 WtEn= 0.00D+00
 Coeff-Com:  0.874D-06-0.178D-05-0.123D-04-0.243D-04-0.581D-04 0.443D-04
 Coeff-Com:  0.886D-03 0.157D-02-0.293D-03-0.544D-02-0.444D-01-0.169D-01
 Coeff-Com:  0.132D+00 0.932D+00
 Coeff:      0.874D-06-0.178D-05-0.123D-04-0.243D-04-0.581D-04 0.443D-04
 Coeff:      0.886D-03 0.157D-02-0.293D-03-0.544D-02-0.444D-01-0.169D-01
 Coeff:      0.132D+00 0.932D+00
 Gap=     0.279 Goal=   None    Shift=    0.000
 RMSDP=1.54D-08 MaxDP=1.50D-06 DE=-2.73D-12 OVMax= 1.18D-06

 Cycle  15  Pass 1  IDiag  1:
 RMSU=  6.79D-09    CP:  9.39D-01  8.41D-01  8.47D-01  6.98D-01  9.61D-01
                    CP:  8.73D-01  1.13D+00  8.91D-01  1.27D+00  8.74D-01
                    CP:  1.19D+00  1.08D+00  1.37D+00  1.16D+00
 E= -1023.99362393692     Delta-E=       -0.000000000014 Rises=F Damp=F
 DIIS: error= 1.81D-08 at cycle  15 NSaved=  15.
 NSaved=15 IEnMin=15 EnMin= -1023.99362393692     IErMin=15 ErrMin= 1.81D-08
 ErrMax= 1.81D-08  0.00D+00 EMaxC= 1.00D-01 BMatC= 1.46D-13 BMatP= 5.69D-13
 IDIUse=1 WtCom= 1.00D+00 WtEn= 0.00D+00
 Coeff-Com: -0.814D-07 0.164D-06-0.853D-06-0.203D-05-0.141D-04-0.274D-04
 Coeff-Com: -0.590D-04 0.311D-03 0.279D-02 0.299D-02-0.151D-01-0.404D-01
 Coeff-Com: -0.599D-01 0.359D+00 0.751D+00
 Coeff:     -0.814D-07 0.164D-06-0.853D-06-0.203D-05-0.141D-04-0.274D-04
 Coeff:     -0.590D-04 0.311D-03 0.279D-02 0.299D-02-0.151D-01-0.404D-01
 Coeff:     -0.599D-01 0.359D+00 0.751D+00
 Gap=     0.279 Goal=   None    Shift=    0.000
 RMSDP=5.40D-09 MaxDP=5.34D-07 DE=-1.41D-11 OVMax= 3.41D-07

 SCF Done:  E(RM062X) =  -1023.99362394     A.U. after   15 cycles
            NFock= 15  Conv=0.54D-08     -V/T= 2.0034
 KE= 1.020494534937D+03 PE=-4.468703074347D+03 EE= 1.395400422825D+03
 Leave Link  502 at Sat Dec 17 22:49:42 2022, MaxMem=  6710886400 cpu:            1436.0 elap:              60.0
 (Enter /data0/home/software/g16/l601.exe)
 Copying SCF densities to generalized density rwf, IOpCl= 0 IROHF=0.

 **********************************************************************

            Population analysis using the SCF density.

 **********************************************************************

 Alpha  occ. eigenvalues --  -78.15060 -19.67146 -19.66315 -19.64108 -19.57539
 Alpha  occ. eigenvalues --  -14.81430 -14.75640 -10.63353 -10.59254 -10.57797
 Alpha  occ. eigenvalues --  -10.55570 -10.54983 -10.54897 -10.54541  -6.95810
 Alpha  occ. eigenvalues --   -5.07730  -5.07678  -5.07527  -1.22257  -1.15154
 Alpha  occ. eigenvalues --   -1.13590  -1.12649  -1.07801  -0.99091  -0.95505
 Alpha  occ. eigenvalues --   -0.84900  -0.83821  -0.72308  -0.71713  -0.70705
 Alpha  occ. eigenvalues --   -0.68649  -0.63432  -0.63057  -0.61721  -0.57901
 Alpha  occ. eigenvalues --   -0.56441  -0.54908  -0.53107  -0.52074  -0.51733
 Alpha  occ. eigenvalues --   -0.51163  -0.49475  -0.49229  -0.46895  -0.45859
 Alpha  occ. eigenvalues --   -0.44286  -0.43582  -0.42778  -0.41717  -0.40959
 Alpha  occ. eigenvalues --   -0.38189  -0.37361  -0.36827  -0.36145  -0.29120
 Alpha  occ. eigenvalues --   -0.28414
 Alpha virt. eigenvalues --   -0.00560  -0.00321   0.00817   0.01480   0.02300
 Alpha virt. eigenvalues --    0.02817   0.03349   0.03775   0.04195   0.05308
 Alpha virt. eigenvalues --    0.05497   0.06031   0.06455   0.06893   0.08452
 Alpha virt. eigenvalues --    0.08652   0.09446   0.10418   0.10738   0.11692
 Alpha virt. eigenvalues --    0.12337   0.12702   0.13590   0.13917   0.14299
 Alpha virt. eigenvalues --    0.14709   0.15377   0.16186   0.16569   0.16829
 Alpha virt. eigenvalues --    0.17810   0.18189   0.18497   0.18789   0.19184
 Alpha virt. eigenvalues --    0.19741   0.19824   0.20084   0.20907   0.21033
 Alpha virt. eigenvalues --    0.21228   0.21634   0.21954   0.22650   0.22879
 Alpha virt. eigenvalues --    0.23503   0.23788   0.24372   0.24661   0.25034
 Alpha virt. eigenvalues --    0.25869   0.26096   0.26465   0.26532   0.27160
 Alpha virt. eigenvalues --    0.27597   0.27866   0.28772   0.29392   0.29917
 Alpha virt. eigenvalues --    0.30303   0.30571   0.31040   0.31547   0.32892
 Alpha virt. eigenvalues --    0.33096   0.33448   0.33964   0.35492   0.35771
 Alpha virt. eigenvalues --    0.36641   0.37411   0.38031   0.38773   0.39604
 Alpha virt. eigenvalues --    0.40744   0.41082   0.41865   0.43802   0.44387
 Alpha virt. eigenvalues --    0.45538   0.45731   0.46757   0.47902   0.50109
 Alpha virt. eigenvalues --    0.51566   0.52712   0.53768   0.54840   0.55216
 Alpha virt. eigenvalues --    0.55350   0.56519   0.57156   0.58422   0.58818
 Alpha virt. eigenvalues --    0.59460   0.59582   0.61737   0.63477   0.64665
 Alpha virt. eigenvalues --    0.65702   0.66692   0.66866   0.67543   0.67783
 Alpha virt. eigenvalues --    0.69042   0.70282   0.70882   0.72416   0.72976
 Alpha virt. eigenvalues --    0.74028   0.74621   0.75475   0.77079   0.77722
 Alpha virt. eigenvalues --    0.78690   0.79219   0.80840   0.82110   0.82743
 Alpha virt. eigenvalues --    0.83534   0.83836   0.85052   0.85497   0.85689
 Alpha virt. eigenvalues --    0.86130   0.86439   0.86911   0.88631   0.89172
 Alpha virt. eigenvalues --    0.90704   0.91644   0.92443   0.92875   0.94727
 Alpha virt. eigenvalues --    0.96244   0.99071   1.00030   1.02000   1.02433
 Alpha virt. eigenvalues --    1.03635   1.03834   1.05125   1.07032   1.08793
 Alpha virt. eigenvalues --    1.10214   1.10753   1.14410   1.16546   1.17236
 Alpha virt. eigenvalues --    1.17881   1.18621   1.19756   1.20697   1.21188
 Alpha virt. eigenvalues --    1.22483   1.23070   1.23890   1.24407   1.25225
 Alpha virt. eigenvalues --    1.25998   1.27368   1.27982   1.31450   1.32068
 Alpha virt. eigenvalues --    1.33147   1.34279   1.34528   1.35840   1.36762
 Alpha virt. eigenvalues --    1.38082   1.39059   1.39981   1.40784   1.41837
 Alpha virt. eigenvalues --    1.42692   1.44680   1.45767   1.47123   1.48804
 Alpha virt. eigenvalues --    1.49732   1.50439   1.51733   1.52720   1.55045
 Alpha virt. eigenvalues --    1.56947   1.58274   1.58721   1.61010   1.61438
 Alpha virt. eigenvalues --    1.62373   1.63169   1.64799   1.65414   1.66334
 Alpha virt. eigenvalues --    1.66971   1.67854   1.69108   1.70539   1.74367
 Alpha virt. eigenvalues --    1.74729   1.75864   1.77132   1.78450   1.82089
 Alpha virt. eigenvalues --    1.84439   1.85501   1.87446   1.88030   1.88134
 Alpha virt. eigenvalues --    1.88676   1.91467   1.93515   1.95237   1.97292
 Alpha virt. eigenvalues --    1.98823   1.99040   2.00596   2.02399   2.06213
 Alpha virt. eigenvalues --    2.08076   2.09192   2.09343   2.11502   2.14211
 Alpha virt. eigenvalues --    2.15750   2.18678   2.18719   2.21500   2.26120
 Alpha virt. eigenvalues --    2.29109   2.30427   2.31494   2.33938   2.36340
 Alpha virt. eigenvalues --    2.42058   2.44503   2.49659   2.50919   2.54047
 Alpha virt. eigenvalues --    2.60640   2.62043   2.63625   2.64496   2.65357
 Alpha virt. eigenvalues --    2.68521   2.70934   2.71774   2.72951   2.75029
 Alpha virt. eigenvalues --    2.77039   2.78032   2.79643   2.80570   2.83189
 Alpha virt. eigenvalues --    2.84838   2.85845   2.89924   2.90598   2.91015
 Alpha virt. eigenvalues --    2.93584   2.96557   2.97248   2.97854   2.99747
 Alpha virt. eigenvalues --    3.00856   3.08469   3.11181   3.12694   3.16361
 Alpha virt. eigenvalues --    3.16525   3.18515   3.22544   3.28496   3.29210
 Alpha virt. eigenvalues --    3.29967   3.30161   3.35385   3.36562   3.38108
 Alpha virt. eigenvalues --    3.39073   3.40155   3.42649   3.43078   3.44958
 Alpha virt. eigenvalues --    3.48361   3.50123   3.50191   3.53304   3.55576
 Alpha virt. eigenvalues --    3.58274   3.59108   3.59225   3.60332   3.61818
 Alpha virt. eigenvalues --    3.64216   3.68671   3.71742   3.72626   3.74743
 Alpha virt. eigenvalues --    3.76775   3.79009   3.80405   3.87082   3.92183
 Alpha virt. eigenvalues --    3.94270   3.95382   3.95881   3.98868   4.01270
 Alpha virt. eigenvalues --    4.02179   4.04547   4.09944   4.14425   4.26143
 Alpha virt. eigenvalues --    4.43710   4.58175   4.66223   4.71622   4.74790
 Alpha virt. eigenvalues --    4.91523   4.99360   5.02976   5.04315   5.06505
 Alpha virt. eigenvalues --    5.07088   5.08682   5.10528   5.13412   5.14365
 Alpha virt. eigenvalues --    5.17731   5.20659   5.22147   5.23758   5.26055
 Alpha virt. eigenvalues --    5.28934   5.31244   5.33695   5.41886   5.43824
 Alpha virt. eigenvalues --    5.44836   5.50320   5.54875   5.58173   5.64738
 Alpha virt. eigenvalues --    5.66971   6.74743   6.76845   6.78799   6.80407
 Alpha virt. eigenvalues --    6.81447   6.83570   6.86844   6.89098   6.92012
 Alpha virt. eigenvalues --    6.97545   6.98875   7.00285   7.03955   7.08341
 Alpha virt. eigenvalues --    7.14315   7.24446   7.29201   7.33804   7.36019
 Alpha virt. eigenvalues --    7.43952   7.68678  14.25278  14.27934  14.39840
 Alpha virt. eigenvalues --   23.77675  24.02580  24.07468  24.12041  24.13428
 Alpha virt. eigenvalues --   24.24079  24.28275  35.75568  35.80970  50.02163
 Alpha virt. eigenvalues --   50.04336  50.06407  50.12778 163.92414
          Condensed to atoms (all electrons):
               1          2          3          4          5          6
     1  C   12.925712  -5.949084  -0.988528  -1.027081   0.409845  -0.570678
     2  C   -5.949084  15.693945  -2.998488   0.783997  -1.531274  -0.346337
     3  C   -0.988528  -2.998488  11.777329  -0.361010   0.948447  -1.413868
     4  C   -1.027081   0.783997  -0.361010   5.680103   0.315274   0.501713
     5  C    0.409845  -1.531274   0.948447   0.315274   5.377287   0.273311
     6  C   -0.570678  -0.346337  -1.413868   0.501713   0.273311   8.251437
     7  H    0.005104  -0.008043   0.365980  -0.013159   0.010816  -0.014564
     8  H   -0.004442   0.041352  -0.058280   0.383675  -0.037929   0.017183
     9  H    0.047547   0.001682   0.010868  -0.034980   0.383582  -0.066879
    10  H   -0.009384  -0.017682  -0.011247   0.013506   0.021233   0.342797
    11  H   -0.104964   0.145640   0.018067   0.000137  -0.008950  -0.074579
    12  C   -0.399462  -0.151870  -0.231512  -0.006811  -0.013522  -0.077754
    13  H   -0.024379   0.054677   0.026989   0.000419   0.000744  -0.004305
    14  N    0.095547   0.308518  -0.144456   0.036747  -0.037643  -0.143267
    15  N    1.232031  -0.600018  -0.612869  -0.111155   0.054111   0.042522
    16  P   -0.080484   0.093679  -0.000868   0.015596  -0.000558  -0.007396
    17  O    0.079908  -0.087593  -0.031779   0.002543  -0.000335   0.030054
    18  O   -0.060205  -0.092604   0.166469  -0.007592   0.006424  -0.009571
    19  H    0.015748   0.076573  -0.111105   0.007998  -0.004278   0.005855
    20  O    0.018776  -0.027554   0.010290  -0.000289   0.000458  -0.000586
    21  H   -0.003105   0.002495   0.001249  -0.000015   0.000016  -0.000265
    22  O   -0.019235   0.023316  -0.004319   0.000935  -0.000587  -0.000133
    23  H   -0.001464   0.004157  -0.003257   0.000247  -0.000194  -0.000306
               7          8          9         10         11         12
     1  C    0.005104  -0.004442   0.047547  -0.009384  -0.104964  -0.399462
     2  C   -0.008043   0.041352   0.001682  -0.017682   0.145640  -0.151870
     3  C    0.365980  -0.058280   0.010868  -0.011247   0.018067  -0.231512
     4  C   -0.013159   0.383675  -0.034980   0.013506   0.000137  -0.006811
     5  C    0.010816  -0.037929   0.383582   0.021233  -0.008950  -0.013522
     6  C   -0.014564   0.017183  -0.066879   0.342797  -0.074579  -0.077754
     7  H    0.516977  -0.004684  -0.000251   0.000079   0.000016   0.000974
     8  H   -0.004684   0.542593  -0.004960  -0.000286  -0.000001   0.000677
     9  H   -0.000251  -0.004960   0.542817  -0.004710  -0.000011   0.000430
    10  H    0.000079  -0.000286  -0.004710   0.535385   0.002119   0.004392
    11  H    0.000016  -0.000001  -0.000011   0.002119   0.394814  -0.016321
    12  C    0.000974   0.000677   0.000430   0.004392  -0.016321   5.575041
    13  H   -0.000014  -0.000000  -0.000000  -0.000006  -0.001965   0.378448
    14  N   -0.000172   0.000437  -0.000439  -0.002669   0.373364   0.434053
    15  N    0.002772  -0.000317   0.000305  -0.000183  -0.009366   0.395436
    16  P    0.000556  -0.000009   0.000001   0.000057   0.000545  -0.059534
    17  O   -0.000035  -0.000002   0.000001  -0.000006  -0.001206   0.074849
    18  O   -0.002202   0.000007  -0.000000  -0.000006   0.000184   0.006886
    19  H    0.001840  -0.000007   0.000000   0.000007  -0.000053  -0.006127
    20  O   -0.000010   0.000000  -0.000000  -0.000000  -0.000049  -0.010050
    21  H   -0.000001   0.000000  -0.000000   0.000000   0.000001   0.000110
    22  O    0.000012   0.000000  -0.000000   0.000000   0.000002   0.002257
    23  H    0.000014  -0.000000   0.000000  -0.000000   0.000001   0.000061
              13         14         15         16         17         18
     1  C   -0.024379   0.095547   1.232031  -0.080484   0.079908  -0.060205
     2  C    0.054677   0.308518  -0.600018   0.093679  -0.087593  -0.092604
     3  C    0.026989  -0.144456  -0.612869  -0.000868  -0.031779   0.166469
     4  C    0.000419   0.036747  -0.111155   0.015596   0.002543  -0.007592
     5  C    0.000744  -0.037643   0.054111  -0.000558  -0.000335   0.006424
     6  C   -0.004305  -0.143267   0.042522  -0.007396   0.030054  -0.009571
     7  H   -0.000014  -0.000172   0.002772   0.000556  -0.000035  -0.002202
     8  H   -0.000000   0.000437  -0.000317  -0.000009  -0.000002   0.000007
     9  H   -0.000000  -0.000439   0.000305   0.000001   0.000001  -0.000000
    10  H   -0.000006  -0.002669  -0.000183   0.000057  -0.000006  -0.000006
    11  H   -0.001965   0.373364  -0.009366   0.000545  -0.001206   0.000184
    12  C    0.378448   0.434053   0.395436  -0.059534   0.074849   0.006886
    13  H    0.484672  -0.034425  -0.048334   0.003403  -0.008504   0.001258
    14  N   -0.034425   6.518958  -0.120324   0.023480  -0.031033  -0.003264
    15  N   -0.048334  -0.120324   7.120473  -0.016300  -0.020025  -0.036616
    16  P    0.003403   0.023480  -0.016300  12.608678   0.468703   0.361244
    17  O   -0.008504  -0.031033  -0.020025   0.468703   8.205496  -0.052554
    18  O    0.001258  -0.003264  -0.036616   0.361244  -0.052554   8.049388
    19  H   -0.001436   0.009732   0.063175   0.009511  -0.016464   0.250684
    20  O    0.000682  -0.003279   0.009107   0.184647   0.004682   0.005971
    21  H    0.000004   0.000099   0.000419   0.033784  -0.001899  -0.010494
    22  O   -0.000047   0.002257  -0.007873   0.212193   0.005467   0.011394
    23  H   -0.000007   0.000349  -0.000622  -0.000693  -0.010981  -0.008333
              19         20         21         22         23
     1  C    0.015748   0.018776  -0.003105  -0.019235  -0.001464
     2  C    0.076573  -0.027554   0.002495   0.023316   0.004157
     3  C   -0.111105   0.010290   0.001249  -0.004319  -0.003257
     4  C    0.007998  -0.000289  -0.000015   0.000935   0.000247
     5  C   -0.004278   0.000458   0.000016  -0.000587  -0.000194
     6  C    0.005855  -0.000586  -0.000265  -0.000133  -0.000306
     7  H    0.001840  -0.000010  -0.000001   0.000012   0.000014
     8  H   -0.000007   0.000000   0.000000   0.000000  -0.000000
     9  H    0.000000  -0.000000  -0.000000  -0.000000   0.000000
    10  H    0.000007  -0.000000   0.000000   0.000000  -0.000000
    11  H   -0.000053  -0.000049   0.000001   0.000002   0.000001
    12  C   -0.006127  -0.010050   0.000110   0.002257   0.000061
    13  H   -0.001436   0.000682   0.000004  -0.000047  -0.000007
    14  N    0.009732  -0.003279   0.000099   0.002257   0.000349
    15  N    0.063175   0.009107   0.000419  -0.007873  -0.000622
    16  P    0.009511   0.184647   0.033784   0.212193  -0.000693
    17  O   -0.016464   0.004682  -0.001899   0.005467  -0.010981
    18  O    0.250684   0.005971  -0.010494   0.011394  -0.008333
    19  H    0.319988  -0.005523  -0.001053   0.005953   0.000403
    20  O   -0.005523   8.068129   0.222648  -0.011539   0.001128
    21  H   -0.001053   0.222648   0.456262  -0.012388   0.001421
    22  O    0.005953  -0.011539  -0.012388   8.048914   0.266564
    23  H    0.000403   0.001128   0.001421   0.266564   0.420986
 Mulliken charges:
               1
     1  C    0.412276
     2  C    0.580518
     3  C   -0.354102
     4  C   -0.180798
     5  C   -0.166278
     6  C   -0.734381
     7  H    0.137995
     8  H    0.124994
     9  H    0.124999
    10  H    0.126604
    11  H    0.282574
    12  C    0.099349
    13  H    0.172128
    14  N   -0.282569
    15  N   -0.336349
    16  P    1.149764
    17  O   -0.609290
    18  O   -0.576466
    19  H    0.378579
    20  O   -0.467641
    21  H    0.310711
    22  O   -0.523142
    23  H    0.330524
 Sum of Mulliken charges =  -0.00000
 Mulliken charges with hydrogens summed into heavy atoms:
               1
     1  C    0.412276
     2  C    0.580518
     3  C   -0.216107
     4  C   -0.055804
     5  C   -0.041279
     6  C   -0.607777
    12  C    0.271478
    14  N    0.000005
    15  N   -0.336349
    16  P    1.149764
    17  O   -0.609290
    18  O   -0.197887
    20  O   -0.156930
    22  O   -0.192618
         Mulliken charges condensed to fragments:
      1      0.006961
      2     -0.006961
 Electronic spatial extent (au):  <R**2>=         163054.6078
 Charge=             -0.0000 electrons
 Dipole moment (field-independent basis, Debye):
    X=             -0.4556    Y=             -1.0388    Z=              0.8111  Tot=              1.3945
 Quadrupole moment (field-independent basis, Debye-Ang):
   XX=           -101.7646   YY=           -111.7806   ZZ=            -56.6903
   XY=            -10.5413   XZ=              3.6836   YZ=             -0.0003
 Traceless Quadrupole moment (field-independent basis, Debye-Ang):
   XX=            -11.6861   YY=            -21.7021   ZZ=             33.3882
   XY=            -10.5413   XZ=              3.6836   YZ=             -0.0003
 Octapole moment (field-independent basis, Debye-Ang**2):
  XXX=          -2256.3735  YYY=          -4490.5608  ZZZ=          -1831.6150  XYY=           -810.2247
  XXY=          -1594.3948  XXZ=           -921.6110  XZZ=           -407.5497  YZZ=          -1047.1082
  YYZ=           -962.9429  XYZ=             -4.3278
 Hexadecapole moment (field-independent basis, Debye-Ang**3):
 XXXX=         -36181.2398 YYYY=        -134030.3937 ZZZZ=         -37214.1679 XXXY=         -35808.7961
 XXXZ=         -21005.8044 YYYX=         -32567.7303 YYYZ=         -41944.3609 ZZZX=         -12567.1581
 ZZZY=         -30376.9713 XXYY=         -29889.5866 XXZZ=         -12561.4008 YYZZ=         -26621.0579
 XXYZ=         -14638.8631 YYXZ=          -6675.6068 ZZXY=          -7528.7184
 N-N= 1.028814492648D+03 E-N=-4.468703073336D+03  KE= 1.020494534937D+03
 No NMR shielding tensors so no spin-rotation constants.
 Leave Link  601 at Sat Dec 17 22:49:43 2022, MaxMem=  6710886400 cpu:               3.0 elap:               0.2
 (Enter /data0/home/software/g16/l122.exe)
 CPIOFr:  IOpCl= 0 IRwI=-1 IRwCP=  731 ICalc= -1 LCPTot=      297221 Len1MO=      783136 IndFrg=      297221
 CPIOFr:  IOpCl= 0 IRwI=-1 IRwCP=  731 ICalc=  0 LCPTot=      297221 Len1MO=      783136 IndFrg=     1080357
 Counterpoise: doing calculation for fragment   1 using the basis set of the full-system, NewBq=T
 Leave Link  122 at Sat Dec 17 22:49:43 2022, MaxMem=  6710886400 cpu:               0.3 elap:               0.0
 (Enter /data0/home/software/g16/l301.exe)
 Basis read from rwf:  (5D, 7F)
 No pseudopotential information found on rwf file.
   440 basis functions,   674 primitive gaussians,   468 cartesian basis functions
    31 alpha electrons       31 beta electrons
       nuclear repulsion energy       401.4620850755 Hartrees.
 IExCor= 4336 DFT=T Ex+Corr=M062X ExCW=0 ScaHFX=  0.540000
 ScaDFX=  1.000000  1.000000  1.000000  1.000000 ScalE2=  1.000000  1.000000
 IRadAn=      5 IRanWt=     -1 IRanGd=            0 ICorTp=0 IEmpDi=131
 NAtoms=   23 NActive=   23 NUniq=   23 SFac= 1.00D+00 NAtFMM=   60 NAOKFM=F Big=F
 Integral buffers will be    131072 words long.
 Raffenetti 2 integral format.
 Two-electron integral symmetry is turned off.
 R6Disp:  Grimme-D3 Dispersion energy=       -0.0002903656 Hartrees.
 Nuclear repulsion after empirical dispersion term =      401.4617947099 Hartrees.
 No density basis found on file   718.
 Leave Link  301 at Sat Dec 17 22:49:43 2022, MaxMem=  6710886400 cpu:               1.3 elap:               0.1
 (Enter /data0/home/software/g16/l302.exe)
 NPDir=0 NMtPBC=     1 NCelOv=     1 NCel=       1 NClECP=     1 NCelD=      1
         NCelK=      1 NCelE2=     1 NClLst=     1 CellRange=     0.0.
 One-electron integrals computed using PRISM.
 NBasis=   440 RedAO= T EigKep=  1.17D-06  NBF=   440
 NBsUse=   440 1.00D-06 EigRej= -1.00D+00 NBFU=   440
 Precomputing XC quadrature grid using
 IXCGrd= 4 IRadAn=           5 IRanWt=          -1 IRanGd=           0 AccXCQ= 0.00D+00.
 Generated NRdTot=       0 NPtTot=           0 NUsed=           0 NTot=          32
 NSgBfM=   466   466   466   466   466 MxSgAt=    23 MxSgA2=    23.
 Leave Link  302 at Sat Dec 17 22:49:43 2022, MaxMem=  6710886400 cpu:               8.1 elap:               0.4
 (Enter /data0/home/software/g16/l303.exe)
 DipDrv:  MaxL=1.
 Leave Link  303 at Sat Dec 17 22:49:43 2022, MaxMem=  6710886400 cpu:               1.0 elap:               0.1
 (Enter /data0/home/software/g16/l401.exe)
 ExpMin= 3.48D-02 ExpMax= 7.75D+04 ExpMxC= 2.65D+03 IAcc=3 IRadAn=         5 AccDes= 0.00D+00
 Harris functional with IExCor= 1009 and IRadAn=       5 diagonalized for initial guess.
 HarFok:  IExCor= 1009 AccDes= 0.00D+00 IRadAn=         5 IDoV= 1 UseB2=F ITyADJ=14
 ICtDFT=  3500011 ScaDFX=  1.000000  1.000000  1.000000  1.000000
 FoFCou: FMM=F IPFlag=           0 FMFlag=      100000 FMFlg1=           0
         NFxFlg=           0 DoJE=T BraDBF=F KetDBF=T FulRan=T
         wScrn=  0.000000 ICntrl=       500 IOpCl=  0 I1Cent=   200000004 NGrid=           0
         NMat0=    1 NMatS0=      1 NMatT0=    0 NMatD0=    1 NMtDS0=    0 NMtDT0=    0
 Symmetry not used in FoFCou.
 Harris En= -379.613472882952    
 JPrj=0 DoOrth=F DoCkMO=F.
 Leave Link  401 at Sat Dec 17 22:49:44 2022, MaxMem=  6710886400 cpu:              28.7 elap:               1.2
 (Enter /data0/home/software/g16/l502.exe)
 Two-electron integral symmetry not used.
 Closed shell SCF:
 Using DIIS extrapolation, IDIIS=  1040.
 NGot=  6710886400 LenX=  6710433895 LenY=  6710214403
 Requested convergence on RMS density matrix=1.00D-08 within 128 cycles.
 Requested convergence on MAX density matrix=1.00D-06.
 Requested convergence on             energy=1.00D-06.
 No special actions if energy rises.
 Fock matrices will be formed incrementally for  20 cycles.

 Cycle   1  Pass 1  IDiag  1:
 FoFJK:  IHMeth= 1 ICntrl=       0 DoSepK=F KAlg= 0 I1Cent=           0 FoldK=F
 IRaf= 860000000 NMat=       1 IRICut=       1 DoRegI=T DoRafI=F ISym2E= 0 IDoP0=0 IntGTp=1.
 FoFCou: FMM=F IPFlag=           0 FMFlag=      100000 FMFlg1=           0
         NFxFlg=           0 DoJE=F BraDBF=F KetDBF=F FulRan=T
         wScrn=  0.000000 ICntrl=         0 IOpCl=  0 I1Cent=           0 NGrid=           0
         NMat0=    1 NMatS0=      1 NMatT0=    0 NMatD0=    1 NMtDS0=    0 NMtDT0=    0
 Symmetry not used in FoFCou.
 E= -379.612236187850    
 DIIS: error= 1.60D-02 at cycle   1 NSaved=   1.
 NSaved= 1 IEnMin= 1 EnMin= -379.612236187850     IErMin= 1 ErrMin= 1.60D-02
 ErrMax= 1.60D-02  0.00D+00 EMaxC= 1.00D-01 BMatC= 2.48D-01 BMatP= 2.48D-01
 IDIUse=3 WtCom= 8.40D-01 WtEn= 1.60D-01
 Coeff-Com:  0.100D+01
 Coeff-En:   0.100D+01
 Coeff:      0.100D+01
 Gap=     0.308 Goal=   None    Shift=    0.000
 GapD=    0.308 DampG=1.000 DampE=0.500 DampFc=0.5000 IDamp=-1.
 Damping current iteration by 5.00D-01
 RMSDP=9.25D-03 MaxDP=1.70D+00              OVMax= 2.13D-01

 Cycle   2  Pass 1  IDiag  1:
 RMSU=  4.57D-03    CP:  1.04D+00
 E= -379.708764791303     Delta-E=       -0.096528603453 Rises=F Damp=T
 DIIS: error= 5.00D-03 at cycle   2 NSaved=   2.
 NSaved= 2 IEnMin= 2 EnMin= -379.708764791303     IErMin= 2 ErrMin= 5.00D-03
 ErrMax= 5.00D-03  0.00D+00 EMaxC= 1.00D-01 BMatC= 2.62D-02 BMatP= 2.48D-01
 IDIUse=3 WtCom= 9.50D-01 WtEn= 5.00D-02
 Coeff-Com: -0.936D-01 0.109D+01
 Coeff-En:   0.000D+00 0.100D+01
 Coeff:     -0.889D-01 0.109D+01
 Gap=     0.302 Goal=   None    Shift=    0.000
 RMSDP=3.21D-03 MaxDP=3.19D-01 DE=-9.65D-02 OVMax= 1.74D-01

 Cycle   3  Pass 1  IDiag  1:
 RMSU=  2.51D-03    CP:  9.19D-01  1.12D+00
 E= -379.800331143110     Delta-E=       -0.091566351807 Rises=F Damp=F
 DIIS: error= 5.12D-03 at cycle   3 NSaved=   3.
 NSaved= 3 IEnMin= 3 EnMin= -379.800331143110     IErMin= 2 ErrMin= 5.00D-03
 ErrMax= 5.12D-03  0.00D+00 EMaxC= 1.00D-01 BMatC= 1.75D-02 BMatP= 2.62D-02
 IDIUse=3 WtCom= 9.49D-01 WtEn= 5.12D-02
 Coeff-Com: -0.138D+00 0.538D+00 0.600D+00
 Coeff-En:   0.000D+00 0.000D+00 0.100D+01
 Coeff:     -0.131D+00 0.511D+00 0.621D+00
 Gap=     0.280 Goal=   None    Shift=    0.000
 RMSDP=9.78D-04 MaxDP=1.35D-01 DE=-9.16D-02 OVMax= 5.98D-02

 Cycle   4  Pass 1  IDiag  1:
 RMSU=  8.14D-04    CP:  8.85D-01  1.14D+00  9.62D-01
 E= -379.815142566267     Delta-E=       -0.014811423157 Rises=F Damp=F
 DIIS: error= 1.86D-03 at cycle   4 NSaved=   4.
 NSaved= 4 IEnMin= 4 EnMin= -379.815142566267     IErMin= 4 ErrMin= 1.86D-03
 ErrMax= 1.86D-03  0.00D+00 EMaxC= 1.00D-01 BMatC= 2.41D-03 BMatP= 1.75D-02
 IDIUse=3 WtCom= 9.81D-01 WtEn= 1.86D-02
 Coeff-Com: -0.584D-01 0.150D+00 0.328D+00 0.581D+00
 Coeff-En:   0.000D+00 0.000D+00 0.627D-01 0.937D+00
 Coeff:     -0.573D-01 0.147D+00 0.323D+00 0.587D+00
 Gap=     0.278 Goal=   None    Shift=    0.000
 RMSDP=4.13D-04 MaxDP=5.64D-02 DE=-1.48D-02 OVMax= 1.31D-02

 Cycle   5  Pass 1  IDiag  1:
 RMSU=  2.40D-04    CP:  8.86D-01  1.08D+00  9.54D-01  7.19D-01
 E= -379.817193447907     Delta-E=       -0.002050881640 Rises=F Damp=F
 DIIS: error= 4.11D-04 at cycle   5 NSaved=   5.
 NSaved= 5 IEnMin= 5 EnMin= -379.817193447907     IErMin= 5 ErrMin= 4.11D-04
 ErrMax= 4.11D-04  0.00D+00 EMaxC= 1.00D-01 BMatC= 9.61D-05 BMatP= 2.41D-03
 IDIUse=3 WtCom= 9.96D-01 WtEn= 4.11D-03
 Coeff-Com: -0.200D-01 0.426D-01 0.117D+00 0.266D+00 0.594D+00
 Coeff-En:   0.000D+00 0.000D+00 0.000D+00 0.000D+00 0.100D+01
 Coeff:     -0.199D-01 0.424D-01 0.117D+00 0.265D+00 0.596D+00
 Gap=     0.278 Goal=   None    Shift=    0.000
 RMSDP=8.12D-05 MaxDP=1.17D-02 DE=-2.05D-03 OVMax= 3.97D-03

 Cycle   6  Pass 1  IDiag  1:
 RMSU=  7.35D-05    CP:  8.87D-01  1.09D+00  9.50D-01  7.21D-01  9.15D-01
 E= -379.817281785207     Delta-E=       -0.000088337300 Rises=F Damp=F
 DIIS: error= 1.75D-04 at cycle   6 NSaved=   6.
 NSaved= 6 IEnMin= 6 EnMin= -379.817281785207     IErMin= 6 ErrMin= 1.75D-04
 ErrMax= 1.75D-04  0.00D+00 EMaxC= 1.00D-01 BMatC= 1.12D-05 BMatP= 9.61D-05
 IDIUse=3 WtCom= 9.98D-01 WtEn= 1.75D-03
 Coeff-Com: -0.276D-02 0.340D-02 0.186D-01 0.543D-01 0.285D+00 0.641D+00
 Coeff-En:   0.000D+00 0.000D+00 0.000D+00 0.000D+00 0.227D-01 0.977D+00
 Coeff:     -0.276D-02 0.339D-02 0.186D-01 0.542D-01 0.285D+00 0.642D+00
 Gap=     0.279 Goal=   None    Shift=    0.000
 RMSDP=4.38D-05 MaxDP=6.63D-03 DE=-8.83D-05 OVMax= 1.45D-03

 Cycle   7  Pass 1  IDiag  1:
 RMSU=  2.79D-05    CP:  8.87D-01  1.08D+00  9.54D-01  7.27D-01  9.34D-01
                    CP:  9.64D-01
 E= -379.817294201995     Delta-E=       -0.000012416788 Rises=F Damp=F
 DIIS: error= 4.50D-05 at cycle   7 NSaved=   7.
 NSaved= 7 IEnMin= 7 EnMin= -379.817294201995     IErMin= 7 ErrMin= 4.50D-05
 ErrMax= 4.50D-05  0.00D+00 EMaxC= 1.00D-01 BMatC= 4.06D-07 BMatP= 1.12D-05
 IDIUse=1 WtCom= 1.00D+00 WtEn= 0.00D+00
 Coeff-Com:  0.143D-02-0.352D-02-0.633D-02-0.160D-01-0.202D-02 0.100D+00
 Coeff-Com:  0.926D+00
 Coeff:      0.143D-02-0.352D-02-0.633D-02-0.160D-01-0.202D-02 0.100D+00
 Coeff:      0.926D+00
 Gap=     0.279 Goal=   None    Shift=    0.000
 RMSDP=1.50D-05 MaxDP=1.95D-03 DE=-1.24D-05 OVMax= 4.64D-04

 Cycle   8  Pass 1  IDiag  1:
 RMSU=  3.96D-06    CP:  8.87D-01  1.08D+00  9.55D-01  7.24D-01  9.58D-01
                    CP:  1.04D+00  1.17D+00
 E= -379.817294846822     Delta-E=       -0.000000644828 Rises=F Damp=F
 DIIS: error= 2.27D-05 at cycle   8 NSaved=   8.
 NSaved= 8 IEnMin= 8 EnMin= -379.817294846822     IErMin= 8 ErrMin= 2.27D-05
 ErrMax= 2.27D-05  0.00D+00 EMaxC= 1.00D-01 BMatC= 1.79D-07 BMatP= 4.06D-07
 IDIUse=1 WtCom= 1.00D+00 WtEn= 0.00D+00
 Coeff-Com:  0.107D-02-0.222D-02-0.515D-02-0.149D-01-0.330D-01-0.214D-01
 Coeff-Com:  0.495D+00 0.580D+00
 Coeff:      0.107D-02-0.222D-02-0.515D-02-0.149D-01-0.330D-01-0.214D-01
 Coeff:      0.495D+00 0.580D+00
 Gap=     0.279 Goal=   None    Shift=    0.000
 RMSDP=3.40D-06 MaxDP=3.20D-04 DE=-6.45D-07 OVMax= 2.17D-04

 Cycle   9  Pass 1  IDiag  1:
 RMSU=  2.77D-06    CP:  8.87D-01  1.08D+00  9.55D-01  7.24D-01  9.59D-01
                    CP:  1.05D+00  1.18D+00  1.03D+00
 E= -379.817295067551     Delta-E=       -0.000000220729 Rises=F Damp=F
 DIIS: error= 9.04D-06 at cycle   9 NSaved=   9.
 NSaved= 9 IEnMin= 9 EnMin= -379.817295067551     IErMin= 9 ErrMin= 9.04D-06
 ErrMax= 9.04D-06  0.00D+00 EMaxC= 1.00D-01 BMatC= 8.36D-09 BMatP= 1.79D-07
 IDIUse=1 WtCom= 1.00D+00 WtEn= 0.00D+00
 Coeff-Com: -0.539D-04 0.168D-03 0.419D-03 0.353D-03-0.269D-02-0.149D-01
 Coeff-Com: -0.670D-01 0.102D+00 0.981D+00
 Coeff:     -0.539D-04 0.168D-03 0.419D-03 0.353D-03-0.269D-02-0.149D-01
 Coeff:     -0.670D-01 0.102D+00 0.981D+00
 Gap=     0.279 Goal=   None    Shift=    0.000
 RMSDP=1.60D-06 MaxDP=2.01D-04 DE=-2.21D-07 OVMax= 9.35D-05

 Cycle  10  Pass 1  IDiag  1:
 RMSU=  6.50D-07    CP:  8.87D-01  1.08D+00  9.55D-01  7.23D-01  9.61D-01
                    CP:  1.06D+00  1.18D+00  1.18D+00  1.23D+00
 E= -379.817295089049     Delta-E=       -0.000000021498 Rises=F Damp=F
 DIIS: error= 2.39D-06 at cycle  10 NSaved=  10.
 NSaved=10 IEnMin=10 EnMin= -379.817295089049     IErMin=10 ErrMin= 2.39D-06
 ErrMax= 2.39D-06  0.00D+00 EMaxC= 1.00D-01 BMatC= 9.65D-10 BMatP= 8.36D-09
 IDIUse=1 WtCom= 1.00D+00 WtEn= 0.00D+00
 Coeff-Com: -0.101D-03 0.226D-03 0.589D-03 0.130D-02 0.166D-02-0.260D-02
 Coeff-Com: -0.625D-01-0.221D-01 0.284D+00 0.799D+00
 Coeff:     -0.101D-03 0.226D-03 0.589D-03 0.130D-02 0.166D-02-0.260D-02
 Coeff:     -0.625D-01-0.221D-01 0.284D+00 0.799D+00
 Gap=     0.279 Goal=   None    Shift=    0.000
 RMSDP=4.99D-07 MaxDP=8.25D-05 DE=-2.15D-08 OVMax= 3.54D-05

 Cycle  11  Pass 1  IDiag  1:
 RMSU=  1.76D-07    CP:  8.87D-01  1.08D+00  9.55D-01  7.22D-01  9.60D-01
                    CP:  1.06D+00  1.18D+00  1.22D+00  1.32D+00  1.04D+00
 E= -379.817295091179     Delta-E=       -0.000000002129 Rises=F Damp=F
 DIIS: error= 1.16D-06 at cycle  11 NSaved=  11.
 NSaved=11 IEnMin=11 EnMin= -379.817295091179     IErMin=11 ErrMin= 1.16D-06
 ErrMax= 1.16D-06  0.00D+00 EMaxC= 1.00D-01 BMatC= 2.66D-10 BMatP= 9.65D-10
 IDIUse=1 WtCom= 1.00D+00 WtEn= 0.00D+00
 Coeff-Com: -0.331D-04 0.699D-04 0.201D-03 0.510D-03 0.989D-03 0.904D-03
 Coeff-Com: -0.193D-01-0.275D-01-0.122D-01 0.383D+00 0.673D+00
 Coeff:     -0.331D-04 0.699D-04 0.201D-03 0.510D-03 0.989D-03 0.904D-03
 Coeff:     -0.193D-01-0.275D-01-0.122D-01 0.383D+00 0.673D+00
 Gap=     0.279 Goal=   None    Shift=    0.000
 RMSDP=1.58D-07 MaxDP=1.53D-05 DE=-2.13D-09 OVMax= 1.46D-05

 Cycle  12  Pass 1  IDiag  1:
 RMSU=  9.64D-08    CP:  8.87D-01  1.08D+00  9.55D-01  7.22D-01  9.60D-01
                    CP:  1.06D+00  1.17D+00  1.23D+00  1.34D+00  1.11D+00
                    CP:  9.68D-01
 E= -379.817295091574     Delta-E=       -0.000000000396 Rises=F Damp=F
 DIIS: error= 2.90D-07 at cycle  12 NSaved=  12.
 NSaved=12 IEnMin=12 EnMin= -379.817295091574     IErMin=12 ErrMin= 2.90D-07
 ErrMax= 2.90D-07  0.00D+00 EMaxC= 1.00D-01 BMatC= 1.48D-11 BMatP= 2.66D-10
 IDIUse=1 WtCom= 1.00D+00 WtEn= 0.00D+00
 Coeff-Com:  0.846D-05-0.192D-04-0.465D-04-0.810D-04-0.769D-04 0.704D-03
 Coeff-Com:  0.563D-02-0.440D-02-0.456D-01-0.299D-01 0.133D+00 0.941D+00
 Coeff:      0.846D-05-0.192D-04-0.465D-04-0.810D-04-0.769D-04 0.704D-03
 Coeff:      0.563D-02-0.440D-02-0.456D-01-0.299D-01 0.133D+00 0.941D+00
 Gap=     0.279 Goal=   None    Shift=    0.000
 RMSDP=9.65D-08 MaxDP=1.08D-05 DE=-3.96D-10 OVMax= 6.19D-06

 Cycle  13  Pass 1  IDiag  1:
 RMSU=  4.50D-08    CP:  8.87D-01  1.08D+00  9.55D-01  7.22D-01  9.60D-01
                    CP:  1.06D+00  1.17D+00  1.23D+00  1.34D+00  1.15D+00
                    CP:  1.04D+00  1.38D+00
 E= -379.817295091621     Delta-E=       -0.000000000047 Rises=F Damp=F
 DIIS: error= 1.23D-07 at cycle  13 NSaved=  13.
 NSaved=13 IEnMin=13 EnMin= -379.817295091621     IErMin=13 ErrMin= 1.23D-07
 ErrMax= 1.23D-07  0.00D+00 EMaxC= 1.00D-01 BMatC= 3.16D-12 BMatP= 1.48D-11
 IDIUse=1 WtCom= 1.00D+00 WtEn= 0.00D+00
 Coeff-Com:  0.553D-05-0.123D-04-0.334D-04-0.672D-04-0.116D-03 0.221D-03
 Coeff-Com:  0.366D-02 0.445D-03-0.139D-01-0.394D-01-0.210D-01 0.337D+00
 Coeff-Com:  0.733D+00
 Coeff:      0.553D-05-0.123D-04-0.334D-04-0.672D-04-0.116D-03 0.221D-03
 Coeff:      0.366D-02 0.445D-03-0.139D-01-0.394D-01-0.210D-01 0.337D+00
 Coeff:      0.733D+00
 Gap=     0.279 Goal=   None    Shift=    0.000
 RMSDP=1.95D-08 MaxDP=1.79D-06 DE=-4.70D-11 OVMax= 1.85D-06

 Cycle  14  Pass 1  IDiag  1:
 RMSU=  8.90D-09    CP:  8.87D-01  1.08D+00  9.55D-01  7.22D-01  9.60D-01
                    CP:  1.06D+00  1.17D+00  1.23D+00  1.34D+00  1.15D+00
                    CP:  1.04D+00  1.48D+00  1.13D+00
 E= -379.817295091619     Delta-E=        0.000000000002 Rises=F Damp=F
 DIIS: error= 3.81D-08 at cycle  14 NSaved=  14.
 NSaved=14 IEnMin=13 EnMin= -379.817295091621     IErMin=14 ErrMin= 3.81D-08
 ErrMax= 3.81D-08  0.00D+00 EMaxC= 1.00D-01 BMatC= 7.69D-13 BMatP= 3.16D-12
 IDIUse=1 WtCom= 1.00D+00 WtEn= 0.00D+00
 Coeff-Com:  0.282D-06-0.663D-06-0.389D-05-0.731D-05-0.357D-04-0.475D-04
 Coeff-Com:  0.210D-03 0.973D-03 0.503D-02-0.846D-02-0.480D-01-0.806D-01
 Coeff-Com:  0.336D+00 0.795D+00
 Coeff:      0.282D-06-0.663D-06-0.389D-05-0.731D-05-0.357D-04-0.475D-04
 Coeff:      0.210D-03 0.973D-03 0.503D-02-0.846D-02-0.480D-01-0.806D-01
 Coeff:      0.336D+00 0.795D+00
 Gap=     0.279 Goal=   None    Shift=    0.000
 RMSDP=1.26D-08 MaxDP=1.11D-06 DE= 2.05D-12 OVMax= 7.86D-07

 Cycle  15  Pass 1  IDiag  1:
 RMSU=  4.71D-09    CP:  8.87D-01  1.08D+00  9.55D-01  7.22D-01  9.60D-01
                    CP:  1.06D+00  1.17D+00  1.23D+00  1.34D+00  1.16D+00
                    CP:  1.04D+00  1.55D+00  1.25D+00  1.18D+00
 E= -379.817295091636     Delta-E=       -0.000000000017 Rises=F Damp=F
 DIIS: error= 8.51D-09 at cycle  15 NSaved=  15.
 NSaved=15 IEnMin=15 EnMin= -379.817295091636     IErMin=15 ErrMin= 8.51D-09
 ErrMax= 8.51D-09  0.00D+00 EMaxC= 1.00D-01 BMatC= 4.06D-14 BMatP= 7.69D-13
 IDIUse=1 WtCom= 1.00D+00 WtEn= 0.00D+00
 Coeff-Com: -0.243D-06 0.508D-06 0.440D-06 0.147D-05-0.845D-05-0.282D-04
 Coeff-Com: -0.129D-03 0.271D-03 0.269D-02-0.322D-03-0.175D-01-0.477D-01
 Coeff-Com:  0.857D-01 0.292D+00 0.685D+00
 Coeff:     -0.243D-06 0.508D-06 0.440D-06 0.147D-05-0.845D-05-0.282D-04
 Coeff:     -0.129D-03 0.271D-03 0.269D-02-0.322D-03-0.175D-01-0.477D-01
 Coeff:      0.857D-01 0.292D+00 0.685D+00
 Gap=     0.279 Goal=   None    Shift=    0.000
 RMSDP=1.52D-09 MaxDP=1.42D-07 DE=-1.67D-11 OVMax= 1.29D-07

 SCF Done:  E(RM062X) =  -379.817295092     A.U. after   15 cycles
            NFock= 15  Conv=0.15D-08     -V/T= 2.0049
 KE= 3.779609684815D+02 PE=-1.685658365783D+03 EE= 5.264183075001D+02
 Leave Link  502 at Sat Dec 17 22:50:42 2022, MaxMem=  6710886400 cpu:            1387.1 elap:              58.0
 (Enter /data0/home/software/g16/l601.exe)
 Copying SCF densities to generalized density rwf, IOpCl= 0 IROHF=0.

 **********************************************************************

            Population analysis using the SCF density.

 **********************************************************************

 Alpha  occ. eigenvalues --  -14.81094 -14.74302 -10.62283 -10.58826 -10.57037
 Alpha  occ. eigenvalues --  -10.55276 -10.54601 -10.54483 -10.54132  -1.12128
 Alpha  occ. eigenvalues --   -0.98205  -0.95066  -0.84503  -0.83308  -0.71893
 Alpha  occ. eigenvalues --   -0.70989  -0.68062  -0.62704  -0.57328  -0.55959
 Alpha  occ. eigenvalues --   -0.51738  -0.51318  -0.50750  -0.48642  -0.43152
 Alpha  occ. eigenvalues --   -0.42190  -0.41440  -0.37317  -0.34488  -0.28690
 Alpha  occ. eigenvalues --   -0.28104
 Alpha virt. eigenvalues --   -0.00229  -0.00017   0.01638   0.02232   0.03329
 Alpha virt. eigenvalues --    0.03600   0.03683   0.04298   0.05142   0.05717
 Alpha virt. eigenvalues --    0.06129   0.06606   0.07236   0.07661   0.09010
 Alpha virt. eigenvalues --    0.09632   0.10023   0.10492   0.11334   0.12198
 Alpha virt. eigenvalues --    0.13231   0.13493   0.14128   0.14686   0.15325
 Alpha virt. eigenvalues --    0.15803   0.16485   0.16943   0.17654   0.18258
 Alpha virt. eigenvalues --    0.18415   0.18902   0.19371   0.19635   0.20031
 Alpha virt. eigenvalues --    0.20746   0.21051   0.21341   0.21418   0.22426
 Alpha virt. eigenvalues --    0.22806   0.23350   0.23960   0.24275   0.24404
 Alpha virt. eigenvalues --    0.24967   0.25030   0.26145   0.26206   0.26561
 Alpha virt. eigenvalues --    0.27433   0.27724   0.27849   0.28765   0.29499
 Alpha virt. eigenvalues --    0.29754   0.30628   0.31289   0.31804   0.32364
 Alpha virt. eigenvalues --    0.32552   0.33688   0.34920   0.35090   0.36011
 Alpha virt. eigenvalues --    0.36162   0.37007   0.38298   0.39191   0.39566
 Alpha virt. eigenvalues --    0.39706   0.40536   0.41456   0.42508   0.43510
 Alpha virt. eigenvalues --    0.44793   0.45782   0.46261   0.47226   0.48640
 Alpha virt. eigenvalues --    0.49339   0.51251   0.53812   0.54457   0.55418
 Alpha virt. eigenvalues --    0.55713   0.56821   0.57470   0.59105   0.59726
 Alpha virt. eigenvalues --    0.61811   0.63267   0.64385   0.65662   0.66746
 Alpha virt. eigenvalues --    0.67029   0.67593   0.67926   0.69679   0.70211
 Alpha virt. eigenvalues --    0.71086   0.71605   0.72662   0.73097   0.73769
 Alpha virt. eigenvalues --    0.74253   0.74531   0.75319   0.75525   0.76358
 Alpha virt. eigenvalues --    0.77327   0.77679   0.78665   0.79493   0.80996
 Alpha virt. eigenvalues --    0.82092   0.82557   0.83206   0.84025   0.84660
 Alpha virt. eigenvalues --    0.85257   0.85429   0.86114   0.86609   0.86852
 Alpha virt. eigenvalues --    0.87328   0.89055   0.89260   0.89492   0.90981
 Alpha virt. eigenvalues --    0.92115   0.93358   0.94518   0.95131   0.96132
 Alpha virt. eigenvalues --    0.97705   0.98489   0.98949   1.01199   1.01719
 Alpha virt. eigenvalues --    1.02938   1.03437   1.04071   1.05568   1.08709
 Alpha virt. eigenvalues --    1.10399   1.11670   1.12548   1.13198   1.15450
 Alpha virt. eigenvalues --    1.16789   1.17903   1.18917   1.20234   1.21605
 Alpha virt. eigenvalues --    1.21942   1.23405   1.24117   1.26774   1.28165
 Alpha virt. eigenvalues --    1.28940   1.30507   1.32420   1.34481   1.34623
 Alpha virt. eigenvalues --    1.34989   1.35867   1.37506   1.37868   1.39647
 Alpha virt. eigenvalues --    1.42284   1.44299   1.44957   1.46422   1.47252
 Alpha virt. eigenvalues --    1.48311   1.48746   1.51362   1.54477   1.55873
 Alpha virt. eigenvalues --    1.56641   1.58925   1.59231   1.62935   1.64407
 Alpha virt. eigenvalues --    1.65980   1.66964   1.69765   1.71178   1.74629
 Alpha virt. eigenvalues --    1.75741   1.79381   1.86253   1.86461   1.89571
 Alpha virt. eigenvalues --    1.91667   1.94152   1.95017   1.97075   1.98682
 Alpha virt. eigenvalues --    1.99222   2.00949   2.04598   2.06789   2.09774
 Alpha virt. eigenvalues --    2.10604   2.12663   2.15134   2.16441   2.19965
 Alpha virt. eigenvalues --    2.21752   2.24822   2.29620   2.31717   2.32472
 Alpha virt. eigenvalues --    2.35824   2.36899   2.37859   2.41791   2.43497
 Alpha virt. eigenvalues --    2.45215   2.48130   2.49564   2.51687   2.52916
 Alpha virt. eigenvalues --    2.54524   2.59101   2.60739   2.63075   2.64265
 Alpha virt. eigenvalues --    2.64684   2.65299   2.68097   2.68809   2.68953
 Alpha virt. eigenvalues --    2.71539   2.72378   2.74170   2.74301   2.76864
 Alpha virt. eigenvalues --    2.77379   2.77728   2.78297   2.80168   2.81514
 Alpha virt. eigenvalues --    2.83169   2.84530   2.85738   2.88633   2.90706
 Alpha virt. eigenvalues --    2.91113   2.92772   2.94439   2.95135   2.96335
 Alpha virt. eigenvalues --    2.97246   2.98511   2.99471   3.00190   3.03062
 Alpha virt. eigenvalues --    3.04478   3.05173   3.09348   3.11189   3.12891
 Alpha virt. eigenvalues --    3.13396   3.15820   3.16644   3.16917   3.18534
 Alpha virt. eigenvalues --    3.19182   3.22003   3.23058   3.24988   3.28965
 Alpha virt. eigenvalues --    3.29589   3.29690   3.30366   3.31299   3.31499
 Alpha virt. eigenvalues --    3.35403   3.37462   3.38783   3.39208   3.39815
 Alpha virt. eigenvalues --    3.41647   3.43531   3.43784   3.45871   3.46307
 Alpha virt. eigenvalues --    3.48991   3.50835   3.51746   3.53175   3.56251
 Alpha virt. eigenvalues --    3.58597   3.59492   3.59637   3.60673   3.61754
 Alpha virt. eigenvalues --    3.64919   3.69175   3.71762   3.72834   3.73835
 Alpha virt. eigenvalues --    3.75270   3.77034   3.79413   3.80085   3.80934
 Alpha virt. eigenvalues --    3.83408   3.87748   3.92928   3.94773   3.95907
 Alpha virt. eigenvalues --    3.96611   3.99506   4.01821   4.02576   4.05402
 Alpha virt. eigenvalues --    4.10473   4.16270   4.26714   4.38814   4.40857
 Alpha virt. eigenvalues --    4.44059   4.45001   4.57019   4.58601   4.60348
 Alpha virt. eigenvalues --    4.67455   4.72122   4.75211   4.78399   4.87277
 Alpha virt. eigenvalues --    4.89525   4.90242   4.93293   5.00343   5.03655
 Alpha virt. eigenvalues --    5.06543   5.12492   5.18733   5.22968   5.25981
 Alpha virt. eigenvalues --    5.32380   5.33052   5.43121   5.49604   5.58450
 Alpha virt. eigenvalues --    5.66119   9.71424   9.76398   9.79052   9.80516
 Alpha virt. eigenvalues --    9.84859   9.88445   9.95072  10.01762  10.07403
 Alpha virt. eigenvalues --   10.11389  10.15478  10.19304  10.20053  10.26007
 Alpha virt. eigenvalues --   10.28516  10.32559  10.35222  10.40928  10.44218
 Alpha virt. eigenvalues --   10.50869  10.59319  10.69400  10.80578  12.74987
 Alpha virt. eigenvalues --   12.84187  12.85658  12.95376  13.11714  13.22549
 Alpha virt. eigenvalues --   13.24518  13.38190  13.42695  13.57273  13.71158
 Alpha virt. eigenvalues --   13.84401  13.95169  17.54089  17.63925  18.22714
 Alpha virt. eigenvalues --   18.46946  23.78165  24.03357  24.07978  24.12495
 Alpha virt. eigenvalues --   24.13945  24.24636  24.28735  35.76269  35.81987
 Alpha virt. eigenvalues --   51.53272  51.57393  51.69391  68.82795 131.29885
 Alpha virt. eigenvalues --  133.64081 138.66431 139.66287 472.47935
          Condensed to atoms (all electrons):
               1          2          3          4          5          6
     1  C    9.348602  -2.380252  -1.209835  -0.415227  -0.044029  -0.186444
     2  C   -2.380252   9.855540  -1.475892   0.260595  -0.779810  -0.329736
     3  C   -1.209835  -1.475892   9.534992   0.224542   0.586476  -0.738435
     4  C   -0.415227   0.260595   0.224542   5.055800   0.466627   0.264668
     5  C   -0.044029  -0.779810   0.586476   0.466627   5.096918   0.493107
     6  C   -0.186444  -0.329736  -0.738435   0.264668   0.493107   7.161567
     7  H    0.017908  -0.023890   0.383768  -0.029324   0.013864  -0.015632
     8  H   -0.006854   0.044766  -0.063034   0.388370  -0.041510   0.019871
     9  H    0.050535   0.000849   0.011127  -0.035600   0.384046  -0.069382
    10  H   -0.011186  -0.023731  -0.012985   0.015002   0.023476   0.347961
    11  H   -0.103697   0.123995   0.016129  -0.000297  -0.007881  -0.051364
    12  C   -0.510154   0.033728  -0.078017   0.011914  -0.016035  -0.062548
    13  H   -0.033887   0.052820   0.034323  -0.000642   0.001506  -0.005532
    14  N    0.510166  -0.169725  -0.090693   0.002287  -0.002194  -0.154507
    15  N    0.569551   0.345380  -0.874964  -0.024150  -0.017076   0.053207
    16  P   -0.002529   0.002407  -0.000493   0.001800   0.000092   0.000845
    17  O    0.008281  -0.002937  -0.000880   0.000480  -0.000492   0.004539
    18  O    0.003971   0.005590  -0.009853   0.000501  -0.000568   0.001347
    19  H   -0.002118  -0.008913   0.010668   0.000523   0.000311   0.000929
    20  O   -0.001758  -0.001218   0.002811   0.000036   0.000068  -0.000113
    21  H   -0.000032   0.000267  -0.000071  -0.000003  -0.000001  -0.000008
    22  O    0.000345   0.003232  -0.003082   0.000001  -0.000170   0.000075
    23  H    0.000025  -0.000150   0.000464  -0.000095   0.000031  -0.000105
               7          8          9         10         11         12
     1  C    0.017908  -0.006854   0.050535  -0.011186  -0.103697  -0.510154
     2  C   -0.023890   0.044766   0.000849  -0.023731   0.123995   0.033728
     3  C    0.383768  -0.063034   0.011127  -0.012985   0.016129  -0.078017
     4  C   -0.029324   0.388370  -0.035600   0.015002  -0.000297   0.011914
     5  C    0.013864  -0.041510   0.384046   0.023476  -0.007881  -0.016035
     6  C   -0.015632   0.019871  -0.069382   0.347961  -0.051364  -0.062548
     7  H    0.514365  -0.004726  -0.000252   0.000082   0.000016   0.000370
     8  H   -0.004726   0.543463  -0.004949  -0.000296  -0.000001   0.000632
     9  H   -0.000252  -0.004949   0.544092  -0.004736  -0.000011   0.000475
    10  H    0.000082  -0.000296  -0.004736   0.538510   0.001994   0.004396
    11  H    0.000016  -0.000001  -0.000011   0.001994   0.398896  -0.018643
    12  C    0.000370   0.000632   0.000475   0.004396  -0.018643   5.381052
    13  H   -0.000031  -0.000000  -0.000001  -0.000015  -0.001101   0.411165
    14  N   -0.000857   0.000451  -0.000458  -0.002935   0.376009   0.390444
    15  N    0.006223  -0.000332   0.000327   0.000272  -0.008594   0.406119
    16  P   -0.000002   0.000003  -0.000001   0.000040   0.000198  -0.009627
    17  O   -0.000019   0.000000   0.000001  -0.000006  -0.000553  -0.008802
    18  O    0.000066  -0.000003   0.000000   0.000001  -0.000022  -0.001220
    19  H   -0.000174   0.000001  -0.000000  -0.000000   0.000030   0.000327
    20  O   -0.000004   0.000000   0.000000  -0.000000   0.000000   0.000069
    21  H    0.000000  -0.000000   0.000000   0.000000  -0.000000  -0.000312
    22  O    0.000008  -0.000000   0.000000   0.000000  -0.000004  -0.000206
    23  H    0.000000  -0.000000   0.000000   0.000000  -0.000000  -0.000139
              13         14         15         16         17         18
     1  C   -0.033887   0.510166   0.569551  -0.002529   0.008281   0.003971
     2  C    0.052820  -0.169725   0.345380   0.002407  -0.002937   0.005590
     3  C    0.034323  -0.090693  -0.874964  -0.000493  -0.000880  -0.009853
     4  C   -0.000642   0.002287  -0.024150   0.001800   0.000480   0.000501
     5  C    0.001506  -0.002194  -0.017076   0.000092  -0.000492  -0.000568
     6  C   -0.005532  -0.154507   0.053207   0.000845   0.004539   0.001347
     7  H   -0.000031  -0.000857   0.006223  -0.000002  -0.000019   0.000066
     8  H   -0.000000   0.000451  -0.000332   0.000003   0.000000  -0.000003
     9  H   -0.000001  -0.000458   0.000327  -0.000001   0.000001   0.000000
    10  H   -0.000015  -0.002935   0.000272   0.000040  -0.000006   0.000001
    11  H   -0.001101   0.376009  -0.008594   0.000198  -0.000553  -0.000022
    12  C    0.411165   0.390444   0.406119  -0.009627  -0.008802  -0.001220
    13  H    0.499599  -0.050670  -0.062704  -0.000138  -0.000120   0.000129
    14  N   -0.050670   6.488430   0.014702  -0.000695  -0.009802  -0.001466
    15  N   -0.062704   0.014702   6.847421  -0.001858   0.001978   0.018969
    16  P   -0.000138  -0.000695  -0.001858   0.012103  -0.002310  -0.000607
    17  O   -0.000120  -0.009802   0.001978  -0.002310   0.007165  -0.000488
    18  O    0.000129  -0.001466   0.018969  -0.000607  -0.000488   0.006235
    19  H   -0.000158   0.001404  -0.022940   0.000751   0.000543  -0.004036
    20  O    0.000335  -0.000508  -0.000775  -0.000977   0.000159   0.000004
    21  H    0.000007  -0.000014   0.000217   0.000236  -0.000326   0.000278
    22  O   -0.000012  -0.000022   0.001017  -0.001496   0.000022   0.000136
    23  H    0.000000   0.000015  -0.000061  -0.000324  -0.000040  -0.000020
              19         20         21         22         23
     1  C   -0.002118  -0.001758  -0.000032   0.000345   0.000025
     2  C   -0.008913  -0.001218   0.000267   0.003232  -0.000150
     3  C    0.010668   0.002811  -0.000071  -0.003082   0.000464
     4  C    0.000523   0.000036  -0.000003   0.000001  -0.000095
     5  C    0.000311   0.000068  -0.000001  -0.000170   0.000031
     6  C    0.000929  -0.000113  -0.000008   0.000075  -0.000105
     7  H   -0.000174  -0.000004   0.000000   0.000008   0.000000
     8  H    0.000001   0.000000  -0.000000  -0.000000  -0.000000
     9  H   -0.000000   0.000000   0.000000   0.000000   0.000000
    10  H   -0.000000  -0.000000   0.000000   0.000000   0.000000
    11  H    0.000030   0.000000  -0.000000  -0.000004  -0.000000
    12  C    0.000327   0.000069  -0.000312  -0.000206  -0.000139
    13  H   -0.000158   0.000335   0.000007  -0.000012   0.000000
    14  N    0.001404  -0.000508  -0.000014  -0.000022   0.000015
    15  N   -0.022940  -0.000775   0.000217   0.001017  -0.000061
    16  P    0.000751  -0.000977   0.000236  -0.001496  -0.000324
    17  O    0.000543   0.000159  -0.000326   0.000022  -0.000040
    18  O   -0.004036   0.000004   0.000278   0.000136  -0.000020
[...]
 Two-electron integral symmetry is turned off.
 R6Disp:  Grimme-D3 Dispersion energy=       -0.0000463369 Hartrees.
 Nuclear repulsion after empirical dispersion term =      280.0207416048 Hartrees.
 No density basis found on file   718.
 Leave Link  301 at Sat Dec 17 22:51:54 2022, MaxMem=  6710886400 cpu:               1.2 elap:               0.1
 (Enter /data0/home/software/g16/l302.exe)
 NPDir=0 NMtPBC=     1 NCelOv=     1 NCel=       1 NClECP=     1 NCelD=      1
         NCelK=      1 NCelE2=     1 NClLst=     1 CellRange=     0.0.
 One-electron integrals computed using PRISM.
 NBasis=   161 RedAO= T EigKep=  5.62D-04  NBF=   161
 NBsUse=   161 1.00D-06 EigRej= -1.00D+00 NBFU=   161
 Precomputing XC quadrature grid using
 IXCGrd= 4 IRadAn=           5 IRanWt=          -1 IRanGd=           0 AccXCQ= 0.00D+00.
 Generated NRdTot=       0 NPtTot=           0 NUsed=           0 NTot=          32
 NSgBfM=   171   171   171   171   171 MxSgAt=     8 MxSgA2=     8.
 Leave Link  302 at Sat Dec 17 22:51:54 2022, MaxMem=  6710886400 cpu:               2.9 elap:               0.1
 (Enter /data0/home/software/g16/l303.exe)
 DipDrv:  MaxL=1.
 Leave Link  303 at Sat Dec 17 22:51:54 2022, MaxMem=  6710886400 cpu:               0.5 elap:               0.0
 (Enter /data0/home/software/g16/l401.exe)
 ExpMin= 3.48D-02 ExpMax= 7.75D+04 ExpMxC= 2.65D+03 IAcc=3 IRadAn=         5 AccDes= 0.00D+00
 Harris functional with IExCor= 1009 and IRadAn=       5 diagonalized for initial guess.
 HarFok:  IExCor= 1009 AccDes= 0.00D+00 IRadAn=         5 IDoV= 1 UseB2=F ITyADJ=14
 ICtDFT=  3500011 ScaDFX=  1.000000  1.000000  1.000000  1.000000
 FoFCou: FMM=F IPFlag=           0 FMFlag=      100000 FMFlg1=           0
         NFxFlg=           0 DoJE=T BraDBF=F KetDBF=T FulRan=T
         wScrn=  0.000000 ICntrl=       500 IOpCl=  0 I1Cent=   200000004 NGrid=           0
         NMat0=    1 NMatS0=      1 NMatT0=    0 NMatD0=    1 NMtDS0=    0 NMtDT0=    0
 Symmetry not used in FoFCou.
 Harris En= -643.942510708745    
 JPrj=0 DoOrth=F DoCkMO=F.
 Leave Link  401 at Sat Dec 17 22:51:55 2022, MaxMem=  6710886400 cpu:               5.9 elap:               0.3
 (Enter /data0/home/software/g16/l502.exe)
 Keep R1 ints in memory in canonical form, NReq=108963383.
 FoFCou: FMM=F IPFlag=           0 FMFlag=           0 FMFlg1=           0
         NFxFlg=           0 DoJE=F BraDBF=F KetDBF=F FulRan=T
         wScrn=  0.000000 ICntrl=       600 IOpCl=  0 I1Cent=           0 NGrid=           0
         NMat0=    1 NMatS0=  13041 NMatT0=    0 NMatD0=    1 NMtDS0=    0 NMtDT0=    0
 Symmetry not used in FoFCou.
 Two-electron integral symmetry not used.
 Closed shell SCF:
 Using DIIS extrapolation, IDIIS=  1040.
 NGot=  6710886400 LenX=  6625781713 LenY=  6625752031
 Requested convergence on RMS density matrix=1.00D-08 within 128 cycles.
 Requested convergence on MAX density matrix=1.00D-06.
 Requested convergence on             energy=1.00D-06.
 No special actions if energy rises.

 Cycle   1  Pass 1  IDiag  1:
 E= -643.868775806840    
 DIIS: error= 3.98D-02 at cycle   1 NSaved=   1.
 NSaved= 1 IEnMin= 1 EnMin= -643.868775806840     IErMin= 1 ErrMin= 3.98D-02
 ErrMax= 3.98D-02  0.00D+00 EMaxC= 1.00D-01 BMatC= 5.02D-01 BMatP= 5.02D-01
 IDIUse=3 WtCom= 6.02D-01 WtEn= 3.98D-01
 Coeff-Com:  0.100D+01
 Coeff-En:   0.100D+01
 Coeff:      0.100D+01
 Gap=     0.310 Goal=   None    Shift=    0.000
 GapD=    0.310 DampG=1.000 DampE=0.500 DampFc=0.5000 IDamp=-1.
 Damping current iteration by 5.00D-01
 RMSDP=6.79D-03 MaxDP=1.60D-01              OVMax= 2.49D-01

 Cycle   2  Pass 1  IDiag  1:
 E= -643.984691150831     Delta-E=       -0.115915343991 Rises=F Damp=T
 DIIS: error= 1.03D-02 at cycle   2 NSaved=   2.
 NSaved= 2 IEnMin= 2 EnMin= -643.984691150831     IErMin= 2 ErrMin= 1.03D-02
 ErrMax= 1.03D-02  0.00D+00 EMaxC= 1.00D-01 BMatC= 2.62D-02 BMatP= 5.02D-01
 IDIUse=3 WtCom= 8.97D-01 WtEn= 1.03D-01
 Coeff-Com:  0.665D-01 0.934D+00
 Coeff-En:   0.194D+00 0.806D+00
 Coeff:      0.796D-01 0.920D+00
 Gap=     0.365 Goal=   None    Shift=    0.000
 RMSDP=1.53D-03 MaxDP=4.56D-02 DE=-1.16D-01 OVMax= 1.54D-01

 Cycle   3  Pass 1  IDiag  1:
 E= -644.145335949486     Delta-E=       -0.160644798654 Rises=F Damp=F
 DIIS: error= 6.28D-03 at cycle   3 NSaved=   3.
 NSaved= 3 IEnMin= 3 EnMin= -644.145335949486     IErMin= 3 ErrMin= 6.28D-03
 ErrMax= 6.28D-03  0.00D+00 EMaxC= 1.00D-01 BMatC= 9.43D-03 BMatP= 2.62D-02
 IDIUse=3 WtCom= 9.37D-01 WtEn= 6.28D-02
 Coeff-Com: -0.160D-01 0.332D+00 0.684D+00
 Coeff-En:   0.000D+00 0.000D+00 0.100D+01
 Coeff:     -0.149D-01 0.311D+00 0.704D+00
 Gap=     0.354 Goal=   None    Shift=    0.000
 RMSDP=6.40D-04 MaxDP=1.48D-02 DE=-1.61D-01 OVMax= 3.38D-02

 Cycle   4  Pass 1  IDiag  1:
 E= -644.149398578339     Delta-E=       -0.004062628853 Rises=F Damp=F
 DIIS: error= 3.39D-03 at cycle   4 NSaved=   4.
 NSaved= 4 IEnMin= 4 EnMin= -644.149398578339     IErMin= 4 ErrMin= 3.39D-03
 ErrMax= 3.39D-03  0.00D+00 EMaxC= 1.00D-01 BMatC= 3.84D-03 BMatP= 9.43D-03
 IDIUse=3 WtCom= 9.66D-01 WtEn= 3.39D-02
 Coeff-Com: -0.202D-01 0.473D-01 0.410D+00 0.562D+00
 Coeff-En:   0.000D+00 0.000D+00 0.292D+00 0.708D+00
 Coeff:     -0.195D-01 0.457D-01 0.406D+00 0.567D+00
 Gap=     0.361 Goal=   None    Shift=    0.000
 RMSDP=2.54D-04 MaxDP=6.22D-03 DE=-4.06D-03 OVMax= 1.15D-02

 Cycle   5  Pass 1  IDiag  1:
 E= -644.151951673126     Delta-E=       -0.002553094787 Rises=F Damp=F
 DIIS: error= 2.14D-04 at cycle   5 NSaved=   5.
 NSaved= 5 IEnMin= 5 EnMin= -644.151951673126     IErMin= 5 ErrMin= 2.14D-04
 ErrMax= 2.14D-04  0.00D+00 EMaxC= 1.00D-01 BMatC= 1.46D-05 BMatP= 3.84D-03
 IDIUse=3 WtCom= 9.98D-01 WtEn= 2.14D-03
 Coeff-Com: -0.237D-02 0.513D-03 0.636D-01 0.120D+00 0.818D+00
 Coeff-En:   0.000D+00 0.000D+00 0.000D+00 0.000D+00 0.100D+01
 Coeff:     -0.237D-02 0.512D-03 0.635D-01 0.120D+00 0.818D+00
 Gap=     0.360 Goal=   None    Shift=    0.000
 RMSDP=2.35D-05 MaxDP=8.95D-04 DE=-2.55D-03 OVMax= 7.51D-04

 Cycle   6  Pass 1  IDiag  1:
 E= -644.151961722819     Delta-E=       -0.000010049694 Rises=F Damp=F
 DIIS: error= 7.37D-05 at cycle   6 NSaved=   6.
 NSaved= 6 IEnMin= 6 EnMin= -644.151961722819     IErMin= 6 ErrMin= 7.37D-05
 ErrMax= 7.37D-05  0.00D+00 EMaxC= 1.00D-01 BMatC= 9.84D-07 BMatP= 1.46D-05
 IDIUse=1 WtCom= 1.00D+00 WtEn= 0.00D+00
 Coeff-Com:  0.453D-04-0.144D-02 0.211D-02 0.102D-01 0.206D+00 0.784D+00
 Coeff:      0.453D-04-0.144D-02 0.211D-02 0.102D-01 0.206D+00 0.784D+00
 Gap=     0.361 Goal=   None    Shift=    0.000
 RMSDP=8.94D-06 MaxDP=2.42D-04 DE=-1.00D-05 OVMax= 2.10D-04

 Cycle   7  Pass 1  IDiag  1:
 E= -644.151962485400     Delta-E=       -0.000000762580 Rises=F Damp=F
 DIIS: error= 1.93D-05 at cycle   7 NSaved=   7.
 NSaved= 7 IEnMin= 7 EnMin= -644.151962485400     IErMin= 7 ErrMin= 1.93D-05
 ErrMax= 1.93D-05  0.00D+00 EMaxC= 1.00D-01 BMatC= 1.38D-07 BMatP= 9.84D-07
 IDIUse=1 WtCom= 1.00D+00 WtEn= 0.00D+00
 Coeff-Com:  0.321D-03-0.537D-03-0.785D-02-0.122D-01-0.245D-01 0.254D+00
 Coeff-Com:  0.791D+00
 Coeff:      0.321D-03-0.537D-03-0.785D-02-0.122D-01-0.245D-01 0.254D+00
 Coeff:      0.791D+00
 Gap=     0.361 Goal=   None    Shift=    0.000
 RMSDP=2.65D-06 MaxDP=5.34D-05 DE=-7.63D-07 OVMax= 7.88D-05

 Cycle   8  Pass 1  IDiag  1:
 E= -644.151962581637     Delta-E=       -0.000000096237 Rises=F Damp=F
 DIIS: error= 9.95D-06 at cycle   8 NSaved=   8.
 NSaved= 8 IEnMin= 8 EnMin= -644.151962581637     IErMin= 8 ErrMin= 9.95D-06
 ErrMax= 9.95D-06  0.00D+00 EMaxC= 1.00D-01 BMatC= 2.86D-08 BMatP= 1.38D-07
 IDIUse=1 WtCom= 1.00D+00 WtEn= 0.00D+00
 Coeff-Com:  0.142D-03-0.183D-03-0.389D-02-0.609D-02-0.188D-01 0.849D-01
 Coeff-Com:  0.397D+00 0.547D+00
 Coeff:      0.142D-03-0.183D-03-0.389D-02-0.609D-02-0.188D-01 0.849D-01
 Coeff:      0.397D+00 0.547D+00
 Gap=     0.361 Goal=   None    Shift=    0.000
 RMSDP=7.26D-07 MaxDP=2.30D-05 DE=-9.62D-08 OVMax= 2.92D-05

 Cycle   9  Pass 1  IDiag  1:
 E= -644.151962601105     Delta-E=       -0.000000019468 Rises=F Damp=F
 DIIS: error= 1.30D-06 at cycle   9 NSaved=   9.
 NSaved= 9 IEnMin= 9 EnMin= -644.151962601105     IErMin= 9 ErrMin= 1.30D-06
 ErrMax= 1.30D-06  0.00D+00 EMaxC= 1.00D-01 BMatC= 7.27D-10 BMatP= 2.86D-08
 IDIUse=1 WtCom= 1.00D+00 WtEn= 0.00D+00
 Coeff-Com: -0.244D-04 0.465D-04 0.285D-03 0.555D-03-0.295D-03-0.190D-01
 Coeff-Com: -0.336D-01 0.849D-01 0.967D+00
 Coeff:     -0.244D-04 0.465D-04 0.285D-03 0.555D-03-0.295D-03-0.190D-01
 Coeff:     -0.336D-01 0.849D-01 0.967D+00
 Gap=     0.361 Goal=   None    Shift=    0.000
 RMSDP=2.79D-07 MaxDP=6.88D-06 DE=-1.95D-08 OVMax= 8.02D-06

 Cycle  10  Pass 1  IDiag  1:
 E= -644.151962601927     Delta-E=       -0.000000000822 Rises=F Damp=F
 DIIS: error= 2.19D-07 at cycle  10 NSaved=  10.
 NSaved=10 IEnMin=10 EnMin= -644.151962601927     IErMin=10 ErrMin= 2.19D-07
 ErrMax= 2.19D-07  0.00D+00 EMaxC= 1.00D-01 BMatC= 1.03D-11 BMatP= 7.27D-10
 IDIUse=1 WtCom= 1.00D+00 WtEn= 0.00D+00
 Coeff-Com: -0.220D-05 0.322D-05 0.957D-04 0.142D-03 0.520D-03-0.274D-02
 Coeff-Com: -0.128D-01-0.179D-01-0.227D-02 0.103D+01
 Coeff:     -0.220D-05 0.322D-05 0.957D-04 0.142D-03 0.520D-03-0.274D-02
 Coeff:     -0.128D-01-0.179D-01-0.227D-02 0.103D+01
 Gap=     0.361 Goal=   None    Shift=    0.000
 RMSDP=5.47D-08 MaxDP=7.88D-07 DE=-8.22D-10 OVMax= 1.74D-06

 Cycle  11  Pass 1  IDiag  1:
 E= -644.151962601952     Delta-E=       -0.000000000025 Rises=F Damp=F
 DIIS: error= 3.73D-08 at cycle  11 NSaved=  11.
 NSaved=11 IEnMin=11 EnMin= -644.151962601952     IErMin=11 ErrMin= 3.73D-08
 ErrMax= 3.73D-08  0.00D+00 EMaxC= 1.00D-01 BMatC= 6.79D-13 BMatP= 1.03D-11
 IDIUse=1 WtCom= 1.00D+00 WtEn= 0.00D+00
 Coeff-Com:  0.116D-05-0.213D-05-0.366D-05-0.124D-04 0.523D-04 0.539D-03
 Coeff-Com:  0.719D-03-0.485D-02-0.459D-01 0.997D-01 0.950D+00
 Coeff:      0.116D-05-0.213D-05-0.366D-05-0.124D-04 0.523D-04 0.539D-03
 Coeff:      0.719D-03-0.485D-02-0.459D-01 0.997D-01 0.950D+00
 Gap=     0.361 Goal=   None    Shift=    0.000
 RMSDP=1.11D-08 MaxDP=2.25D-07 DE=-2.48D-11 OVMax= 3.71D-07

 Cycle  12  Pass 1  IDiag  1:
 E= -644.151962601963     Delta-E=       -0.000000000011 Rises=F Damp=F
 DIIS: error= 1.38D-08 at cycle  12 NSaved=  12.
 NSaved=12 IEnMin=12 EnMin= -644.151962601963     IErMin=12 ErrMin= 1.38D-08
 ErrMax= 1.38D-08  0.00D+00 EMaxC= 1.00D-01 BMatC= 5.99D-14 BMatP= 6.79D-13
 IDIUse=1 WtCom= 1.00D+00 WtEn= 0.00D+00
 Coeff-Com:  0.256D-06-0.477D-06-0.418D-05-0.691D-05-0.110D-04 0.229D-03
 Coeff-Com:  0.784D-03 0.110D-03-0.777D-02-0.361D-01 0.181D+00 0.861D+00
 Coeff:      0.256D-06-0.477D-06-0.418D-05-0.691D-05-0.110D-04 0.229D-03
 Coeff:      0.784D-03 0.110D-03-0.777D-02-0.361D-01 0.181D+00 0.861D+00
 Gap=     0.361 Goal=   None    Shift=    0.000
 RMSDP=2.88D-09 MaxDP=5.54D-08 DE=-1.11D-11 OVMax= 8.15D-08

 SCF Done:  E(RM062X) =  -644.151962602     A.U. after   12 cycles
            NFock= 12  Conv=0.29D-08     -V/T= 2.0025
 KE= 6.425204552293D+02 PE=-2.087752431318D+03 EE= 5.210592718819D+02
 Leave Link  502 at Sat Dec 17 22:52:00 2022, MaxMem=  6710886400 cpu:             102.7 elap:               5.5
 (Enter /data0/home/software/g16/l601.exe)
 Copying SCF densities to generalized density rwf, IOpCl= 0 IROHF=0.

 **********************************************************************

            Population analysis using the SCF density.

 **********************************************************************

 Alpha  occ. eigenvalues --  -78.16824 -19.68755 -19.68448 -19.67659 -19.58844
 Alpha  occ. eigenvalues --   -6.97598  -5.09496  -5.09484  -5.09303  -1.24281
 Alpha  occ. eigenvalues --   -1.16842  -1.16477  -1.09073  -0.72833  -0.65264
 Alpha  occ. eigenvalues --   -0.63929  -0.56629  -0.55116  -0.51282  -0.48464
 Alpha  occ. eigenvalues --   -0.47872  -0.45835  -0.43302  -0.38518  -0.38020
 Alpha virt. eigenvalues --   -0.01963   0.01427   0.01774   0.04678   0.09311
 Alpha virt. eigenvalues --    0.10321   0.11616   0.14430   0.15460   0.16785
 Alpha virt. eigenvalues --    0.17530   0.18348   0.19060   0.20234   0.21451
 Alpha virt. eigenvalues --    0.21964   0.23774   0.25299   0.25781   0.28101
 Alpha virt. eigenvalues --    0.28517   0.29031   0.29734   0.30873   0.33578
 Alpha virt. eigenvalues --    0.34777   0.36196   0.37643   0.40749   0.42626
 Alpha virt. eigenvalues --    0.44507   0.48037   0.53016   0.56123   0.56994
 Alpha virt. eigenvalues --    0.74334   0.76684   0.76843   0.85706   0.96643
 Alpha virt. eigenvalues --    0.99313   1.01450   1.06076   1.08128   1.11645
 Alpha virt. eigenvalues --    1.13364   1.15402   1.18402   1.19226   1.20622
 Alpha virt. eigenvalues --    1.21933   1.23069   1.25431   1.26167   1.33109
 Alpha virt. eigenvalues --    1.38141   1.41259   1.44425   1.46803   1.49388
 Alpha virt. eigenvalues --    1.53146   1.56287   1.60994   1.63065   1.64651
 Alpha virt. eigenvalues --    1.65540   1.68348   1.70532   1.74926   1.81227
 Alpha virt. eigenvalues --    1.83626   1.84721   1.87285   1.91283   1.95301
 Alpha virt. eigenvalues --    2.01424   2.05027   2.06519   2.11029   2.14501
 Alpha virt. eigenvalues --    2.20216   2.23892   2.26450   2.36789   2.45086
 Alpha virt. eigenvalues --    2.49157   2.57490   2.61311   2.62869   2.70463
 Alpha virt. eigenvalues --    2.74932   2.81933   2.83915   2.88763   2.94615
 Alpha virt. eigenvalues --    5.01892   5.05156   5.07050   5.07848   5.08885
 Alpha virt. eigenvalues --    5.12512   5.19420   5.21749   5.34594   5.47162
 Alpha virt. eigenvalues --    5.48883   5.52629   6.71767   6.74037   6.76163
 Alpha virt. eigenvalues --    6.77804   6.78332   6.79453   6.81316   6.85753
 Alpha virt. eigenvalues --    6.89451   6.94658   6.96170   6.97011   7.00228
 Alpha virt. eigenvalues --    7.04912   7.09573   7.21618   7.25761   7.28633
 Alpha virt. eigenvalues --    7.32874   7.39430   7.64069  14.22201  14.24249
 Alpha virt. eigenvalues --   14.35319  49.98756  49.99477  50.01385  50.09157
 Alpha virt. eigenvalues --  163.85514
          Condensed to atoms (all electrons):
              16         17         18         19         20         21
    16  P   12.460074   0.531751   0.288901   0.002807   0.194121   0.039484
    17  O    0.531751   8.174461  -0.025326  -0.015564  -0.011010   0.003143
    18  O    0.288901  -0.025326   8.027400   0.268003   0.015391  -0.012137
    19  H    0.002807  -0.015564   0.268003   0.401646  -0.004874   0.000902
    20  O    0.194121  -0.011010   0.015391  -0.004874   8.062822   0.232335
    21  H    0.039484   0.003143  -0.012137   0.000902   0.232335   0.442686
    22  O    0.244076  -0.022977   0.012410   0.004475  -0.003382  -0.014528
    23  H   -0.004947  -0.016326  -0.007657   0.001160   0.001441   0.001270
              22         23
    16  P    0.244076  -0.004947
    17  O   -0.022977  -0.016326
    18  O    0.012410  -0.007657
    19  H    0.004475   0.001160
    20  O   -0.003382   0.001441
    21  H   -0.014528   0.001270
    22  O    8.058759   0.271570
    23  H    0.271570   0.423131
 Mulliken charges:
               1
     1  C    0.000000
     2  C    0.000000
     3  C    0.000000
     4  C    0.000000
     5  C    0.000000
     6  C    0.000000
     7  H    0.000000
     8  H    0.000000
     9  H    0.000000
    10  H    0.000000
    11  H    0.000000
    12  C    0.000000
    13  H    0.000000
    14  N    0.000000
    15  N    0.000000
    16  P    1.243734
    17  O   -0.618152
    18  O   -0.566985
    19  H    0.341444
    20  O   -0.486843
    21  H    0.306846
    22  O   -0.550404
    23  H    0.330359
 Sum of Mulliken charges =  -0.00000
 Mulliken charges with hydrogens summed into heavy atoms:
               1
     1  C    0.000000
     2  C    0.000000
     3  C    0.000000
     4  C    0.000000
     5  C    0.000000
     6  C    0.000000
    12  C    0.000000
    14  N    0.000000
    15  N    0.000000
    16  P    1.243734
    17  O   -0.618152
    18  O   -0.225541
    20  O   -0.179997
    22  O   -0.220044
         Mulliken charges condensed to fragments:
      1      0.000000
      2     -0.000000
 Electronic spatial extent (au):  <R**2>=          80027.1120
 Charge=             -0.0000 electrons
 Dipole moment (field-independent basis, Debye):
    X=             -2.0162    Y=              1.1302    Z=             -2.8746  Tot=              3.6886
 Quadrupole moment (field-independent basis, Debye-Ang):
   XX=            -71.7885   YY=              6.7524   ZZ=            -85.2965
   XY=            -22.6330   XZ=            -47.6317   YZ=            -35.5943
 Traceless Quadrupole moment (field-independent basis, Debye-Ang):
   XX=            -21.6776   YY=             56.8632   ZZ=            -35.1856
   XY=            -22.6330   XZ=            -47.6317   YZ=            -35.5943
 Octapole moment (field-independent basis, Debye-Ang**2):
  XXX=          -1515.9900  YYY=           -630.9165  ZZZ=          -1521.4592  XYY=           -486.9158
  XXY=          -1097.5712  XXZ=           -912.3623  XZZ=          -1011.6990  YZZ=          -1307.2191
  YYZ=           -653.3366  XYZ=           -680.9130
 Hexadecapole moment (field-independent basis, Debye-Ang**3):
 XXXX=         -25780.7058 YYYY=         -32530.3151 ZZZZ=         -21998.2408 XXXY=         -24459.7299
 XXXZ=         -15713.4012 YYYX=         -15065.7251 YYYZ=         -16536.4628 ZZZX=         -16418.4426
 ZZZY=         -24391.4008 XXYY=         -19463.6662 XXZZ=         -13702.4800 YYZZ=         -22199.8779
 XXYZ=         -14230.4601 YYXZ=         -11986.0246 ZZXY=         -15856.9535
 N-N= 2.800207416048D+02 E-N=-2.087752431954D+03  KE= 6.425204552293D+02
 No NMR shielding tensors so no spin-rotation constants.
 Leave Link  601 at Sat Dec 17 22:52:00 2022, MaxMem=  6710886400 cpu:               1.9 elap:               0.1
 (Enter /data0/home/software/g16/l122.exe)
 CPIOFr:  IOpCl= 0 IRwI=-1 IRwCP=  731 ICalc=  4 LCPTot=      297221 Len1MO=      783136 IndFrg=     4212901
 Restoring MOs from calculation   1 to rwf.
 CPIOFr:  IOpCl= 0 IRwI=-2 IRwCP=  731 ICalc=  0 LCPTot=      297221 Len1MO=      783136 IndFrg=     1080357
 Counterpoise corrected energy =   -1023.992235265419
                   BSSE energy =       0.001388671505
              sum of fragments =   -1023.968929629508
           complexation energy =     -15.50 kcal/mole (raw)
           complexation energy =     -14.62 kcal/mole (corrected)
 Leave Link  122 at Sat Dec 17 22:52:00 2022, MaxMem=  6710886400 cpu:               0.3 elap:               0.0
 (Enter /data0/home/software/g16/l9999.exe)
 1\1\GINC-LOCALHOST\SP\RM062X\6-311+G(2d,p)\C7H9N2O4P1\WUHANYU\17-Dec-2
 022\0\\#p M062X/6-311+G(2d,p) nosymm em=GD3 counterpoise=2\\Title Card
  Required\\0,1\C,0,6.635329,14.603765,11.170309\C,0,6.12067,15.452629,
 10.132403\C,0,5.170173,14.966014,9.230123\C,0,4.756111,13.654264,9.381
 903\C,0,5.261407,12.828667,10.408784\C,0,6.20208,13.284302,11.317248\H
 ,0,4.782497,15.61077,8.443678\H,0,4.015704,13.239272,8.698169\H,0,4.89
 4323,11.804143,10.482939\H,0,6.585999,12.647051,12.107827\H,0,8.145565
 ,15.059925,12.612696\C,0,7.597426,16.637153,11.249394\H,0,8.262109,17.
 429595,11.574569\N,0,7.561187,15.381739,11.874571\N,0,6.738567,16.7055
 1,10.226588\P,0,9.547939,16.899181,8.249616\O,0,9.607698,16.019786,9.4
 2286\O,0,8.09883,17.384281,7.811414\H,0,7.4687,17.406937,8.653482\O,0,
 10.390186,18.225593,8.500291\H,0,10.370026,18.781395,7.632182\O,0,10.1
 45594,16.370554,6.879466\H,0,9.67948,15.457157,6.648388\\Version=ES64L
 -G16RevA.03\HF=-644.1519626\RMSD=2.876e-09\Dipole=-0.1878528,-0.412572
 7,0.3322584\Quadrupole=-8.9775912,-16.3322202,25.3098114,-8.1570571,2.
 792453,0.3244649\PG=C01 [X(C7H9N2O4P1)]\\@


 We make a living by what we get,
 we make a life by what we give.
                   -- Sir Winston Churchill
 Job cpu time:       0 days  1 hours 18 minutes 49.7 seconds.
 Elapsed time:       0 days  0 hours  3 minutes 19.8 seconds.
 File lengths (MBytes):  RWF=    149 Int=      0 D2E=      0 Chk=     44 Scr=      1
 Normal termination of Gaussian 16 at Sat Dec 17 22:52:00 2022.
