 Entering Gaussian System, Link 0=g16
 Initial command:
 /data0/home/wuhanyu/software/g16/l1.exe "/data0/home/wuhanyu/software/g16/scratch/Gau-1280763.inp" -scrdir="/data0/home/wuhanyu/software/g16/scratch/"
 Default is to use a total of  22 processors:
                               22 via shared-memory
                                1 via Linda
 Entering Link 1 = /data0/home/wuhanyu/software/g16/l1.exe PID=   1280764.
  
 Copyright (c) 1988,1990,1992,1993,1995,1998,2003,2009,2016,
            Gaussian, Inc.  All Rights Reserved.
  
 This is part of the Gaussian(R) 16 program.  It is based on
 the Gaussian(R) 09 system (copyright 2009, Gaussian, Inc.),
 the Gaussian(R) 03 system (copyright 2003, Gaussian, Inc.),
 the Gaussian(R) 98 system (copyright 1998, Gaussian, Inc.),
 the Gaussian(R) 94 system (copyright 1995, Gaussian, Inc.),
 the Gaussian 92(TM) system (copyright 1992, Gaussian, Inc.),
 the Gaussian 90(TM) system (copyright 1990, Gaussian, Inc.),
 the Gaussian 88(TM) system (copyright 1988, Gaussian, Inc.),
 the Gaussian 86(TM) system (copyright 1986, Carnegie Mellon
 University), and the Gaussian 82(TM) system (copyright 1983,
 Carnegie Mellon University). Gaussian is a federally registered
 trademark of Gaussian, Inc.
  
 This software contains proprietary and confidential information,
 including trade secrets, belonging to Gaussian, Inc.
  
 This software is provided under written license and may be
 used, copied, transmitted, or stored only in accord with that
 written license.
  
 The following legend is applicable only to US Government
 contracts under FAR:
  
                    RESTRICTED RIGHTS LEGEND
  
 Use, reproduction and disclosure by the US Government is
 subject to restrictions as set forth in subparagraphs (a)
 and (c) of the Commercial Computer Software - Restricted
 Rights clause in FAR 52.227-19.
  
 Gaussian, Inc.
 340 Quinnipiac St., Bldg. 40, Wallingford CT 06492
  
  
 ---------------------------------------------------------------
 Warning -- This program may not be used in any manner that
 competes with the business of Gaussian, Inc. or will provide
 assistance to any competitor of Gaussian, Inc.  The licensee
 of this program is prohibited from giving any competitor of
 Gaussian, Inc. access to this program.  By using this program,
 the user acknowledges that Gaussian, Inc. is engaged in the
 business of creating and licensing software in the field of
 computational chemistry and represents and warrants to the
 licensee that it is not a competitor of Gaussian, Inc. and that
 it will not use this program in any manner prohibited above.
 ---------------------------------------------------------------
  

 Cite this work as:
 Gaussian 16, Revision A.03,
 M. J. Frisch, G. W. Trucks, H. B. Schlegel, G. E. Scuseria, 
 M. A. Robb, J. R. Cheeseman, G. Scalmani, V. Barone, 
 G. A. Petersson, H. Nakatsuji, X. Li, M. Caricato, A. V. Marenich, 
 J. Bloino, B. G. Janesko, R. Gomperts, B. Mennucci, H. P. Hratchian, 
 J. V. Ortiz, A. F. Izmaylov, J. L. Sonnenberg, D. Williams-Young, 
 F. Ding, F. Lipparini, F. Egidi, J. Goings, B. Peng, A. Petrone, 
 T. Henderson, D. Ranasinghe, V. G. Zakrzewski, J. Gao, N. Rega, 
 G. Zheng, W. Liang, M. Hada, M. Ehara, K. Toyota, R. Fukuda, 
 J. Hasegawa, M. Ishida, T. Nakajima, Y. Honda, O. Kitao, H. Nakai, 
 T. Vreven, K. Throssell, J. A. Montgomery, Jr., J. E. Peralta, 
 F. Ogliaro, M. J. Bearpark, J. J. Heyd, E. N. Brothers, K. N. Kudin, 
 V. N. Staroverov, T. A. Keith, R. Kobayashi, J. Normand, 
 K. Raghavachari, A. P. Rendell, J. C. Burant, S. S. Iyengar, 
 J. Tomasi, M. Cossi, J. M. Millam, M. Klene, C. Adamo, R. Cammi, 
 J. W. Ochterski, R. L. Martin, K. Morokuma, O. Farkas, 
 J. B. Foresman, and D. J. Fox, Gaussian, Inc., Wallingford CT, 2016.
 
 ******************************************
 Gaussian 16:  ES64L-G16RevA.03 25-Dec-2016
                20-May-2022 
 ******************************************
 %nproc=22
 Will use up to   22 processors via shared memory.
 %mem=100GB
 ---------------------------------------------------
 #p M062X/6-311+G(2d,p) nosymm em=GD3 counterpoise=6
 ---------------------------------------------------
 1/38=1,62=6,172=1/1;
 2/12=2,15=1,17=6,18=5,40=1/2;
 1/38=1,53=2,62=6,63=1/22;
 3/5=4,6=6,7=112,11=2,25=1,30=1,74=-55,124=31/1,2,3;
 4//1;
 5/5=2,38=5/2;
 6/7=2,8=2,9=2,10=2,28=1/1;
 1/53=2,62=6,63=1/22;
 3/5=7,6=11,7=112,11=2,25=1,30=1,74=-55,82=7,124=31/1,2,3;
 4//1;
 5/5=2,38=5/2;
 6/7=2,8=2,9=2,10=2,28=1/1;
 1/53=2,62=6,63=1/22(-4);
 99/5=1,9=1/99;
 Leave Link    1 at Fri May 20 14:51:01 2022, MaxMem= 13421772800 cpu:               0.6 elap:               0.0
 (Enter /data0/home/wuhanyu/software/g16/l101.exe)
 -------------------
 Title Card Required
 -------------------
 Symbolic Z-matrix:
 Charge =  0 Multiplicity = 1 in supermolecule
 Charge =  0 Multiplicity = 1 in fragment      1.
 Charge =  0 Multiplicity = 1 in fragment      2.
 Charge =  0 Multiplicity = 1 in fragment      3.
 Charge =  0 Multiplicity = 1 in fragment      4.
 Charge =  0 Multiplicity = 1 in fragment      5.
 Charge =  0 Multiplicity = 1 in fragment      6.
 C                     10.91838   11.57016   10.31977    
 H                     10.57198   11.7826   9.28608    
 H                     11.38169   12.49488   10.69822    
 H                     11.71031   10.80011   10.2236    
 C                     10.36341   10.13111   12.21308    
 H                     9.60787   9.84637   12.96624    
 H                     10.68316   9.18732   11.7149    
 H                     11.2384   10.55567   12.72564    
 C                     9.193     12.25825   11.93517    
 H                     9.94525   12.78405   12.54525    
 H                     8.78232   13.00299   11.22382    
 H                     8.37311   11.92757   12.59236    
 C                     8.72361   10.37591   10.41026    
 H                     7.97258   9.95837   11.12517    
 H                     9.20617   9.48679   9.92558    
 C                     8.01902   11.25764   9.37271    
 H                     8.64201   12.13395   9.08436    
 H                     7.09282   11.69129   9.79518    
 C                     7.68635   10.45095   8.11695    
 H                     7.22317   11.09849   7.34817    
 H                     6.95524   9.6498    8.33177    
 N                     9.79997   11.09693   11.20396    
 C                     8.97106   9.84949   7.54449    
 O                     9.88654   10.64434   7.22598    
 O                     9.05548   8.61152   7.48145    
 P                     12.3315   8.36617   8.37773    
 O                     11.80419   8.15305   9.73153    
 O                     13.83544   7.86209   8.27414    
 H                     14.15246   8.05023   7.30707    
 O                     11.58198   7.62237   7.19976    
 H                     10.56783   7.9691    7.19081    
 O                     12.42256   9.90032   7.96193    
 H                     11.48941   10.19761   7.56886    
 O                     8.97168   6.98664   9.7837     
 H                     8.81679   7.45536   8.93864    
 H                     9.93684   6.96581   9.84247    
 O                     8.19389   8.09873   12.12015    
 H                     7.66818   7.43889   12.55892    
 H                     8.4599    7.67729   11.26945    
 O                     10.04712   14.27124   9.62856    
 H                     9.92677   13.92094   8.7192     
 H                     10.03113   15.21643   9.52471    
 O                     9.66143   13.2604   7.12081    
 H                     10.26453   13.48418   6.42128    
 H                     9.67352   12.2566   7.14013    
 
 ITRead=  0  0  0  0  0  0  0  0  0  0  0  0  0  0  0  0  0  0  0  0
 ITRead=  0  0  0  0  0  0  0  0  0  0  0  0  0  0  0  0  0  0  0  0
 ITRead=  0  0  0  0  0
 MicOpt= -1 -1 -1 -1 -1 -1 -1 -1 -1 -1 -1 -1 -1 -1 -1 -1 -1 -1 -1 -1
 MicOpt= -1 -1 -1 -1 -1 -1 -1 -1 -1 -1 -1 -1 -1 -1 -1 -1 -1 -1 -1 -1
 MicOpt= -1 -1 -1 -1 -1
 NAtoms=     45 NQM=       45 NQMF=       0 NMMI=      0 NMMIF=      0
                NMic=       0 NMicF=      0.
                    Isotopes and Nuclear Properties:
 (Nuclear quadrupole moments (NQMom) in fm**2, nuclear magnetic moments (NMagM)
  in nuclear magnetons)

  Atom         1           2           3           4           5           6           7           8           9          10
 IAtWgt=          12           1           1           1          12           1           1           1          12           1
 AtmWgt=  12.0000000   1.0078250   1.0078250   1.0078250  12.0000000   1.0078250   1.0078250   1.0078250  12.0000000   1.0078250
 NucSpn=           0           1           1           1           0           1           1           1           0           1
 AtZEff=  -0.0000000  -0.0000000  -0.0000000  -0.0000000  -0.0000000  -0.0000000  -0.0000000  -0.0000000  -0.0000000  -0.0000000
 NQMom=    0.0000000   0.0000000   0.0000000   0.0000000   0.0000000   0.0000000   0.0000000   0.0000000   0.0000000   0.0000000
 NMagM=    0.0000000   2.7928460   2.7928460   2.7928460   0.0000000   2.7928460   2.7928460   2.7928460   0.0000000   2.7928460
 AtZNuc=   6.0000000   1.0000000   1.0000000   1.0000000   6.0000000   1.0000000   1.0000000   1.0000000   6.0000000   1.0000000

  Atom        11          12          13          14          15          16          17          18          19          20
 IAtWgt=           1           1          12           1           1          12           1           1          12           1
 AtmWgt=   1.0078250   1.0078250  12.0000000   1.0078250   1.0078250  12.0000000   1.0078250   1.0078250  12.0000000   1.0078250
 NucSpn=           1           1           0           1           1           0           1           1           0           1
 AtZEff=  -0.0000000  -0.0000000  -0.0000000  -0.0000000  -0.0000000  -0.0000000  -0.0000000  -0.0000000  -0.0000000  -0.0000000
 NQMom=    0.0000000   0.0000000   0.0000000   0.0000000   0.0000000   0.0000000   0.0000000   0.0000000   0.0000000   0.0000000
 NMagM=    2.7928460   2.7928460   0.0000000   2.7928460   2.7928460   0.0000000   2.7928460   2.7928460   0.0000000   2.7928460
 AtZNuc=   1.0000000   1.0000000   6.0000000   1.0000000   1.0000000   6.0000000   1.0000000   1.0000000   6.0000000   1.0000000

  Atom        21          22          23          24          25          26          27          28          29          30
 IAtWgt=           1          14          12          16          16          31          16          16           1          16
 AtmWgt=   1.0078250  14.0030740  12.0000000  15.9949146  15.9949146  30.9737634  15.9949146  15.9949146   1.0078250  15.9949146
 NucSpn=           1           2           0           0           0           1           0           0           1           0
 AtZEff=  -0.0000000  -0.0000000  -0.0000000  -0.0000000  -0.0000000  -0.0000000  -0.0000000  -0.0000000  -0.0000000  -0.0000000
 NQMom=    0.0000000   2.0440000   0.0000000   0.0000000   0.0000000   0.0000000   0.0000000   0.0000000   0.0000000   0.0000000
 NMagM=    2.7928460   0.4037610   0.0000000   0.0000000   0.0000000   1.1316000   0.0000000   0.0000000   2.7928460   0.0000000
 AtZNuc=   1.0000000   7.0000000   6.0000000   8.0000000   8.0000000  15.0000000   8.0000000   8.0000000   1.0000000   8.0000000

  Atom        31          32          33          34          35          36          37          38          39          40
 IAtWgt=           1          16           1          16           1           1          16           1           1          16
 AtmWgt=   1.0078250  15.9949146   1.0078250  15.9949146   1.0078250   1.0078250  15.9949146   1.0078250   1.0078250  15.9949146
 NucSpn=           1           0           1           0           1           1           0           1           1           0
 AtZEff=  -0.0000000  -0.0000000  -0.0000000  -0.0000000  -0.0000000  -0.0000000  -0.0000000  -0.0000000  -0.0000000  -0.0000000
 NQMom=    0.0000000   0.0000000   0.0000000   0.0000000   0.0000000   0.0000000   0.0000000   0.0000000   0.0000000   0.0000000
 NMagM=    2.7928460   0.0000000   2.7928460   0.0000000   2.7928460   2.7928460   0.0000000   2.7928460   2.7928460   0.0000000
 AtZNuc=   1.0000000   8.0000000   1.0000000   8.0000000   1.0000000   1.0000000   8.0000000   1.0000000   1.0000000   8.0000000

  Atom        41          42          43          44          45
 IAtWgt=           1           1          16           1           1
 AtmWgt=   1.0078250   1.0078250  15.9949146   1.0078250   1.0078250
 NucSpn=           1           1           0           1           1
 AtZEff=  -0.0000000  -0.0000000  -0.0000000  -0.0000000  -0.0000000
 NQMom=    0.0000000   0.0000000   0.0000000   0.0000000   0.0000000
 NMagM=    2.7928460   2.7928460   0.0000000   2.7928460   2.7928460
 AtZNuc=   1.0000000   1.0000000   8.0000000   1.0000000   1.0000000
 Leave Link  101 at Fri May 20 14:51:01 2022, MaxMem= 13421772800 cpu:               2.0 elap:               0.1
 (Enter /data0/home/wuhanyu/software/g16/l202.exe)
                          Input orientation:                          
 ---------------------------------------------------------------------
 Center     Atomic      Atomic             Coordinates (Angstroms)
 Number     Number       Type             X           Y           Z
 ---------------------------------------------------------------------
      1          6           0       10.918377   11.570162   10.319769
      2          1           0       10.571976   11.782602    9.286075
      3          1           0       11.381685   12.494884   10.698216
      4          1           0       11.710315   10.800112   10.223603
      5          6           0       10.363414   10.131106   12.213085
      6          1           0        9.607868    9.846370   12.966241
      7          1           0       10.683162    9.187320   11.714905
      8          1           0       11.238396   10.555670   12.725644
      9          6           0        9.193000   12.258253   11.935173
     10          1           0        9.945250   12.784053   12.545249
     11          1           0        8.782320   13.002994   11.223819
     12          1           0        8.373106   11.927571   12.592360
     13          6           0        8.723614   10.375906   10.410262
     14          1           0        7.972577    9.958372   11.125168
     15          1           0        9.206166    9.486785    9.925582
     16          6           0        8.019023   11.257643    9.372715
     17          1           0        8.642005   12.133954    9.084360
     18          1           0        7.092820   11.691291    9.795182
     19          6           0        7.686354   10.450946    8.116954
     20          1           0        7.223172   11.098492    7.348171
     21          1           0        6.955237    9.649802    8.331770
     22          7           0        9.799967   11.096932   11.203960
     23          6           0        8.971061    9.849487    7.544492
     24          8           0        9.886542   10.644345    7.225976
     25          8           0        9.055481    8.611523    7.481450
     26         15           0       12.331504    8.366173    8.377732
     27          8           0       11.804191    8.153048    9.731525
     28          8           0       13.835438    7.862094    8.274144
     29          1           0       14.152457    8.050226    7.307068
     30          8           0       11.581978    7.622375    7.199756
     31          1           0       10.567826    7.969103    7.190807
     32          8           0       12.422562    9.900322    7.961929
     33          1           0       11.489410   10.197611    7.568859
     34          8           0        8.971676    6.986636    9.783701
     35          1           0        8.816789    7.455358    8.938644
     36          1           0        9.936841    6.965810    9.842465
     37          8           0        8.193887    8.098726   12.120152
     38          1           0        7.668177    7.438887   12.558922
     39          1           0        8.459897    7.677293   11.269446
     40          8           0       10.047120   14.271240    9.628559
     41          1           0        9.926767   13.920936    8.719202
     42          1           0       10.031131   15.216428    9.524709
     43          8           0        9.661425   13.260403    7.120808
     44          1           0       10.264529   13.484184    6.421278
     45          1           0        9.673518   12.256597    7.140135
 ---------------------------------------------------------------------
                    Distance matrix (angstroms):
                    1          2          3          4          5
     1  C    0.000000
     2  H    1.110697   0.000000
     3  H    1.101357   1.776828   0.000000
     4  H    1.108779   1.772022   1.790393   0.000000
     5  C    2.442030   3.367243   2.986495   2.493943   0.000000
     6  H    3.419460   4.268738   3.912159   3.584964   1.104160
     7  H    2.771221   3.556271   3.530095   2.424896   1.114071
     8  H    2.630559   3.712157   2.809190   2.557864   1.099347
     9  C    2.461692   3.024159   2.525153   3.375281   2.443739
    10  H    2.715376   3.466685   2.357646   3.527253   2.706164
    11  H    2.726363   2.906386   2.700210   3.798194   3.424361
    12  H    3.430862   3.973357   3.600163   4.244895   2.707852
    13  C    2.500284   2.580510   3.411499   3.022445   2.449294
    14  H    3.453154   3.669735   4.270620   3.935992   2.632395
    15  H    2.725346   2.746849   3.791900   2.843309   2.643301
    16  C    3.066078   2.607807   3.820368   3.815623   3.851358
    17  H    2.650654   1.972036   3.200101   3.534337   4.094334
    18  H    3.863256   3.517393   4.455962   4.722182   4.356285
    19  C    4.068293   3.386291   4.949350   4.555453   4.903798
    20  H    4.765229   3.929118   5.519596   5.337752   5.870634
    21  H    4.831811   4.305849   5.769575   5.245285   5.187671
    22  N    1.502192   2.178170   2.170686   2.167633   1.506196
    23  C    3.801963   3.054992   4.770242   3.947763   4.879930
    24  O    3.390188   2.451419   4.209085   3.512290   5.036078
    25  O    4.503330   3.951224   5.553314   4.399712   5.138890
    26  P    4.004245   3.948799   4.830430   3.117238   4.658143
    27  O    3.578738   3.858814   4.468170   2.694049   3.485210
    28  O    5.142334   5.200440   5.775792   4.116854   5.720019
    29  H    5.650273   5.537774   6.239555   4.693837   6.538800
    30  O    5.075418   4.762386   6.001723   4.388409   5.736907
    31  H    4.783400   4.351200   5.783336   4.303225   5.471683
    32  O    3.257353   2.953135   3.911834   2.536156   4.729237
    33  H    3.126896   2.510520   3.883548   2.731203   4.779239
    34  O    5.008565   5.080343   6.081552   4.715534   4.210289
    35  H    4.822426   4.682567   5.922129   4.605539   4.502626
    36  H    4.731944   4.890240   5.778455   4.241739   3.977550
    37  O    4.766035   5.220943   5.613391   4.822826   2.974231
    38  H    5.713584   6.165342   6.543353   5.752428   3.825173
    39  H    4.701110   5.024759   5.663244   4.627203   3.245771
    40  O    2.921076   2.566338   2.465902   3.894743   4.890861
    41  H    3.011851   2.304368   2.840230   3.896641   5.173074
    42  H    3.835959   3.484339   3.256980   4.776187   5.761795
    43  O    3.830169   2.775136   4.042668   4.458511   6.018021
    44  H    4.391951   3.346187   4.529785   4.873624   6.693126
    45  H    3.482950   2.374228   3.954056   3.972111   5.543328
                    6          7          8          9         10
     6  H    0.000000
     7  H    1.776639   0.000000
     8  H    1.794329   1.789486   0.000000
     9  C    2.655635   3.420487   2.776198   0.000000
    10  H    2.986811   3.764369   2.582723   1.102061   0.000000
    11  H    3.698897   4.291123   3.778516   1.108748   1.773843
    12  H    2.448637   3.689886   3.179585   1.101577   1.790926
    13  C    2.755965   2.637169   3.423074   2.467571   3.442345
    14  H    2.465009   2.879163   3.685629   2.726718   3.727270
    15  H    3.088086   2.339417   3.621163   3.423400   4.275614
    16  C    4.174871   4.107277   4.700985   2.990925   4.013135
    17  H    4.608138   4.446205   4.742486   2.906231   3.754841
    18  H    4.448012   4.779724   5.202215   3.051518   4.110153
    19  C    5.251030   4.850037   5.819621   4.484990   5.491429
    20  H    6.230353   5.890032   6.733045   5.125022   6.104133
    21  H    5.343539   5.055385   6.202594   4.979570   6.042939
    22  N    2.169433   2.165113   2.162768   1.500583   2.160218
    23  C    5.459020   4.556545   5.699459   5.012932   5.879481
    24  O    5.802160   4.786231   5.664073   5.026155   5.733800
    25  O    5.649151   4.571983   6.003865   5.757882   6.621462
    26  P    5.537472   3.811566   4.989301   6.136276   6.525341
    27  O    4.260817   2.502043   3.880395   5.341076   5.728779
    28  O    6.620081   4.850969   5.815138   7.367603   7.589571
    29  H    7.477009   5.723462   6.643039   7.982673   8.218774
    30  O    6.488113   4.862458   6.265597   7.044342   7.608948
    31  H    6.148275   4.686664   6.146089   6.541862   7.227821
    32  O    5.741825   4.197465   4.952243   5.637072   5.954813
    33  H    5.726718   4.342859   5.175292   5.346442   5.817093
    34  O    4.325665   3.391422   5.150830   5.698049   6.494924
    35  H    4.750188   3.767050   5.460539   5.673493   6.532688
    36  H    4.261904   2.999689   4.784753   5.739571   6.415377
    37  O    2.401972   2.746953   3.958817   4.281835   5.019987
    38  H    3.118378   3.586017   4.742214   5.093175   5.809996
    39  H    2.983596   2.724247   4.257420   4.686771   5.469273
    40  O    5.559904   5.532055   4.981620   3.178381   3.275543
    41  H    5.894160   5.652742   5.394160   3.693968   3.991426
    42  H    6.392247   6.447654   5.781534   3.906866   3.879109
    43  O    6.769607   6.224121   6.420016   4.939822   5.452708
    44  H    7.516744   6.830870   7.019234   5.749271   6.172126
    45  H    6.305316   5.600747   6.044825   4.819055   5.437583
                   11         12         13         14         15
    11  H    0.000000
    12  H    1.787986   0.000000
    13  C    2.750802   2.700384   0.000000
    14  H    3.152006   2.488136   1.117802   0.000000
    15  H    3.772107   3.709869   1.121743   1.784136   0.000000
    16  C    2.656211   3.307611   1.533105   2.182053   2.202478
    17  H    2.313483   3.524339   2.203499   3.057154   2.834332
    18  H    2.572154   3.085314   2.183587   2.354961   3.056646
    19  C    4.167337   4.762490   2.518095   3.061683   2.551582
    20  H    4.591156   5.432425   3.485665   4.015867   3.629451
    21  H    4.790206   5.034999   2.823918   2.988857   2.762878
    22  N    2.160804   2.157208   1.519332   2.154503   2.139959
    23  C    4.849503   5.491535   2.924207   3.718880   2.420003
    24  O    4.771298   5.721471   3.400609   4.397445   3.015084
    25  O    5.776241   6.130515   3.435276   4.032786   2.600494
    26  P    6.495924   6.790844   4.602942   5.392935   3.663243
    27  O    5.905982   5.848397   3.858981   4.459002   2.926815
    28  O    7.788674   8.063012   6.083831   6.848055   5.176585
    29  H    8.289103   8.738937   6.671652   7.510647   5.778072
    30  O    7.278889   7.609977   5.104853   5.821814   4.068247
    31  H    6.692778   7.047201   4.422523   5.115829   3.411227
    32  O    5.789461   6.476783   4.461248   5.460020   3.791062
    33  H    5.343898   6.159519   3.969255   5.007263   3.357472
    34  O    6.189213   5.714866   3.455613   3.410124   2.515126
    35  H    5.999957   5.791993   3.271688   3.429090   2.291802
    36  H    6.299893   5.884408   3.663751   3.802511   2.626044
    37  O    5.020111   3.862014   2.896530   2.120673   2.787033
    38  H    5.829503   4.543823   3.789033   2.914810   3.673388
    39  H    5.335647   4.452246   2.844338   2.337011   2.374268
    40  O    2.398546   4.132702   4.187643   5.014419   4.866871
    41  H    2.902668   4.624794   4.107858   5.030849   4.651485
    42  H    3.057089   4.793340   5.091607   5.869094   5.802592
    43  O    4.204020   5.777031   4.474407   5.458069   4.723792
    44  H    5.049048   6.639486   5.286568   6.309594   5.420284
    45  H    4.245918   5.614810   3.890122   4.904643   3.955881
                   16         17         18         19         20
    16  C    0.000000
    17  H    1.113183   0.000000
    18  H    1.106517   1.761020   0.000000
    19  C    1.529171   2.163714   2.169605   0.000000
    20  H    2.181166   2.469741   2.521163   1.106743   0.000000
    21  H    2.190972   3.095576   2.515588   1.105672   1.771428
    22  N    2.559501   2.628497   3.109110   3.796612   4.637562
    23  C    2.496333   2.774574   3.462028   1.529686   2.157237
    24  O    2.910713   2.687266   3.937232   2.381611   2.704574
    25  O    3.413661   3.892018   4.323235   2.379464   3.091947
    26  P    5.286595   5.320517   6.364698   5.098206   5.883929
    27  O    4.908640   5.125022   5.892388   4.984351   5.944893
    28  O    6.824023   6.773255   7.901848   6.673687   7.419822
    29  H    7.223118   7.085244   8.323854   6.944772   7.570245
    30  O    5.534580   5.705219   6.591271   4.900811   5.577150
    31  H    4.698044   4.963901   5.719538   3.914099   4.583072
    32  O    4.819107   4.532281   5.913927   4.770627   5.370844
    33  H    4.052302   3.762165   5.149524   3.850691   4.365899
    34  O    4.395220   5.205059   5.065966   4.053584   5.088854
    35  H    3.909248   4.684127   4.652833   3.305542   4.282715
    36  H    4.724248   5.381546   5.515511   4.493134   5.537559
    37  O    4.190196   5.069508   4.418637   4.670773   5.719501
    38  H    4.985770   5.921535   5.104139   5.366927   6.382998
    39  H    4.075643   4.966849   4.489380   4.269628   5.348877
    40  O    3.641483   2.615051   3.925785   4.738440   4.820911
    41  H    3.340613   2.230977   3.763018   4.174085   4.141901
    42  H    4.443384   3.409578   4.597110   5.494504   5.438690
    43  O    3.432145   2.482668   4.026428   3.575788   3.266593
    44  H    4.325594   3.398192   4.965625   4.326989   3.974985
    45  H    2.952910   2.204330   3.745510   2.857161   2.718213
                   21         22         23         24         25
    21  H    0.000000
    22  N    4.293734   0.000000
    23  C    2.173299   3.954100   0.000000
    24  O    3.287012   4.004583   1.253538   0.000000
    25  O    2.492407   4.537466   1.242439   2.210949   0.000000
    26  P    5.527573   4.674750   3.766575   3.534749   3.405267
    27  O    5.264213   3.853756   3.960763   4.020163   3.581682
    28  O    7.108895   5.944159   5.305119   4.943011   4.902856
    29  H    7.443698   6.588805   5.490043   4.993402   5.130753
    30  O    5.176741   5.593010   3.449023   3.465183   2.727811
    31  H    4.144556   5.145709   2.492107   2.760852   1.668641
    32  O    5.485543   4.338277   3.477024   2.743464   3.637183
    33  H    4.630427   4.108157   2.542413   1.698919   2.906428
    34  O    3.642332   4.426933   3.634553   4.556070   2.819156
    35  H    2.940962   4.399927   2.774764   3.774552   1.875395
    36  H    4.286721   4.351847   3.811693   4.514440   3.009910
    37  O    4.276906   3.522519   4.960426   5.770461   4.745826
    38  H    4.823406   4.445418   5.714281   6.605787   5.392625
    39  H    3.845092   3.673419   4.342234   5.214246   3.946697
    40  O    5.709561   3.552352   5.005311   4.353454   6.133989
    41  H    5.217536   3.763655   4.343963   3.601026   5.520963
    42  H    6.470823   4.454612   5.817995   5.119475   6.982232
    43  O    4.671865   4.622979   3.505775   2.627831   4.702054
    44  H    5.413306   5.365523   4.018170   2.975752   5.131139
    45  H    3.950244   4.227941   2.539907   1.628528   3.712820
                   26         27         28         29         30
    26  P    0.000000
    27  O    1.468413   0.000000
    28  O    1.589542   2.516859   0.000000
    29  H    2.135887   3.376821   1.034954   0.000000
    30  O    1.581977   2.596314   2.507959   2.608052   0.000000
    31  H    2.162641   2.831551   3.444177   3.587433   1.071823
    32  O    1.592105   2.562581   2.499614   2.616149   2.544903
    33  H    2.171995   2.992733   3.384659   3.430979   2.603199
    34  O    3.894652   3.063720   5.167337   5.839985   3.727548
    35  H    3.673885   3.168596   5.078763   5.611173   3.270764
    36  H    3.137016   2.215590   4.296745   5.037421   3.181425
    37  O    5.585437   4.329294   6.831901   7.659810   5.993027
    38  H    6.331574   5.060713   7.521538   8.366695   6.638687
    39  H    4.881179   3.711583   6.156495   6.945845   5.129599
    40  O    6.453898   6.366331   7.567228   7.806672   7.243085
    41  H    6.062570   6.149638   7.223943   7.369926   6.687325
    42  H    7.316643   7.285455   8.373941   8.559072   8.091982
    43  O    5.715126   6.123101   6.920571   6.881134   5.956687
    44  H    5.856119   6.461370   6.913205   6.740067   6.058259
    45  H    4.871543   5.300395   6.157858   6.146732   5.012164
                   31         32         33         34         35
    31  H    0.000000
    32  O    2.786446   0.000000
    33  H    2.441001   1.055300   0.000000
    34  O    3.199380   4.870014   4.642722   0.000000
    35  H    2.526855   4.464686   4.066837   0.978679   0.000000
    36  H    2.904484   4.280956   4.245503   0.967177   1.520219
    37  O    5.472735   6.198246   5.998338   2.701981   3.305136
    38  H    6.124194   7.056570   6.863899   3.099273   3.798157
    39  H    4.600415   5.619986   5.405950   1.716497   2.368389
    40  O    6.777219   5.246456   4.787172   7.365195   6.960312
    41  H    6.178290   4.792472   4.198606   7.080245   6.563833
    42  H    7.632749   6.035081   5.580363   8.301747   7.877329
    43  O    5.368828   4.429617   3.594854   6.850322   6.141375
    44  H    5.576763   4.458114   3.690371   7.429367   6.691773
    45  H    4.380064   3.712764   2.778613   5.937467   5.198126
                   36         37         38         39         40
    36  H    0.000000
    37  O    3.083706   0.000000
    38  H    3.570683   0.950935   0.000000
    39  H    2.173441   0.985935   1.531798   0.000000
    40  O    7.309393   6.909590   7.805603   6.977960   0.000000
    41  H    7.045254   6.961858   7.865217   6.902067   0.981900
    42  H    8.257273   7.795734   8.676413   7.896293   0.951010
    43  O    6.863321   7.334168   8.211953   7.058752   2.731184
    44  H    7.368928   8.109740   8.997629   7.776980   3.309588
    45  H    5.946794   6.654154   7.522963   6.284434   3.223448
                   41         42         43         44         45
    41  H    0.000000
    42  H    1.529063   0.000000
    43  O    1.749735   3.121131   0.000000
    44  H    2.363322   3.561801   0.950344   0.000000
    45  H    2.308162   3.817680   1.004065   1.540461   0.000000
 Symmetry turned off by external request.
 Stoichiometry    C7H26NO10P
 Framework group  C1[X(C7H26NO10P)]
 Deg. of freedom   129
 Full point group                 C1      NOp   1
 Rotational constants (GHZ):           0.3275449           0.2384623           0.2052399
 Leave Link  202 at Fri May 20 14:51:01 2022, MaxMem= 13421772800 cpu:               0.1 elap:               0.0
 (Enter /data0/home/wuhanyu/software/g16/l122.exe)
 Counterpoise: doing full-system calculation.
 Leave Link  122 at Fri May 20 14:51:01 2022, MaxMem= 13421772800 cpu:               0.1 elap:               0.0
 (Enter /data0/home/wuhanyu/software/g16/l301.exe)
 Standard basis: 6-311+G(2d,p) (5D, 7F)
 Ernie: Thresh=  0.10000D-02 Tol=  0.10000D-05 Strict=F.
   677 basis functions,  1020 primitive gaussians,   715 cartesian basis functions
    85 alpha electrons       85 beta electrons
       nuclear repulsion energy      2065.1176297487 Hartrees.
 IExCor= 4336 DFT=T Ex+Corr=M062X ExCW=0 ScaHFX=  0.540000
 ScaDFX=  1.000000  1.000000  1.000000  1.000000 ScalE2=  1.000000  1.000000
 IRadAn=      5 IRanWt=     -1 IRanGd=            0 ICorTp=0 IEmpDi=131
 NAtoms=   45 NActive=   45 NUniq=   45 SFac= 1.00D+00 NAtFMM=   60 NAOKFM=F Big=F
 Integral buffers will be    131072 words long.
 Raffenetti 2 integral format.
 Two-electron integral symmetry is turned off.
 R6Disp:  Grimme-D3 Dispersion energy=       -0.0043392105 Hartrees.
 Nuclear repulsion after empirical dispersion term =     2065.1132905382 Hartrees.
 Leave Link  301 at Fri May 20 14:51:01 2022, MaxMem= 13421772800 cpu:               1.1 elap:               0.1
 (Enter /data0/home/wuhanyu/software/g16/l302.exe)
 NPDir=0 NMtPBC=     1 NCelOv=     1 NCel=       1 NClECP=     1 NCelD=      1
         NCelK=      1 NCelE2=     1 NClLst=     1 CellRange=     0.0.
 One-electron integrals computed using PRISM.
 NBasis=   677 RedAO= T EigKep=  4.54D-06  NBF=   677
 NBsUse=   677 1.00D-06 EigRej= -1.00D+00 NBFU=   677
 Precomputing XC quadrature grid using
 IXCGrd= 4 IRadAn=           5 IRanWt=          -1 IRanGd=           0 AccXCQ= 0.00D+00.
 Generated NRdTot=       0 NPtTot=           0 NUsed=           0 NTot=          32
 NSgBfM=   705   703   704   704   705 MxSgAt=    45 MxSgA2=    45.
 Leave Link  302 at Fri May 20 14:51:02 2022, MaxMem= 13421772800 cpu:              21.2 elap:               1.0
 (Enter /data0/home/wuhanyu/software/g16/l303.exe)
 DipDrv:  MaxL=1.
 Leave Link  303 at Fri May 20 14:51:02 2022, MaxMem= 13421772800 cpu:               1.8 elap:               0.1
 (Enter /data0/home/wuhanyu/software/g16/l401.exe)
 ExpMin= 3.48D-02 ExpMax= 7.75D+04 ExpMxC= 2.65D+03 IAcc=3 IRadAn=         5 AccDes= 0.00D+00
 Harris functional with IExCor= 1009 and IRadAn=       5 diagonalized for initial guess.
 HarFok:  IExCor= 1009 AccDes= 0.00D+00 IRadAn=         5 IDoV= 1 UseB2=F ITyADJ=14
 ICtDFT=  3500011 ScaDFX=  1.000000  1.000000  1.000000  1.000000
 FoFCou: FMM=F IPFlag=           0 FMFlag=      100000 FMFlg1=           0
         NFxFlg=           0 DoJE=T BraDBF=F KetDBF=T FulRan=T
         wScrn=  0.000000 ICntrl=       500 IOpCl=  0 I1Cent=   200000004 NGrid=           0
         NMat0=    1 NMatS0=      1 NMatT0=    0 NMatD0=    1 NMtDS0=    0 NMtDT0=    0
 Symmetry not used in FoFCou.
 Harris En= -1430.34175484339    
 JPrj=0 DoOrth=F DoCkMO=F.
 Leave Link  401 at Fri May 20 14:51:06 2022, MaxMem= 13421772800 cpu:              86.9 elap:               4.0
 (Enter /data0/home/wuhanyu/software/g16/l502.exe)
 Two-electron integral symmetry not used.
 Closed shell SCF:
 Using DIIS extrapolation, IDIIS=  1040.
 NGot= 13421772800 LenX= 13420729478 LenY= 13420217538
 Requested convergence on RMS density matrix=1.00D-08 within 128 cycles.
 Requested convergence on MAX density matrix=1.00D-06.
 Requested convergence on             energy=1.00D-06.
 No special actions if energy rises.
 Fock matrices will be formed incrementally for  20 cycles.

 Cycle   1  Pass 1  IDiag  1:
 FoFJK:  IHMeth= 1 ICntrl=       0 DoSepK=F KAlg= 0 I1Cent=           0 FoldK=F
 IRaf= 840000000 NMat=       1 IRICut=       1 DoRegI=T DoRafI=F ISym2E= 0 IDoP0=0 IntGTp=1.
 FoFCou: FMM=F IPFlag=           0 FMFlag=      100000 FMFlg1=           0
         NFxFlg=           0 DoJE=F BraDBF=F KetDBF=F FulRan=T
         wScrn=  0.000000 ICntrl=         0 IOpCl=  0 I1Cent=           0 NGrid=           0
         NMat0=    1 NMatS0=      1 NMatT0=    0 NMatD0=    1 NMtDS0=    0 NMtDT0=    0
 Symmetry not used in FoFCou.
 E= -1430.03956454935    
 DIIS: error= 3.45D-02 at cycle   1 NSaved=   1.
 NSaved= 1 IEnMin= 1 EnMin= -1430.03956454935     IErMin= 1 ErrMin= 3.45D-02
 ErrMax= 3.45D-02  0.00D+00 EMaxC= 1.00D-01 BMatC= 1.35D+00 BMatP= 1.35D+00
 IDIUse=3 WtCom= 6.55D-01 WtEn= 3.45D-01
 Coeff-Com:  0.100D+01
 Coeff-En:   0.100D+01
 Coeff:      0.100D+01
 Gap=     0.346 Goal=   None    Shift=    0.000
 GapD=    0.346 DampG=1.000 DampE=0.500 DampFc=0.5000 IDamp=-1.
 Damping current iteration by 5.00D-01
 RMSDP=4.72D-03 MaxDP=2.82D-01              OVMax= 2.20D-01

 Cycle   2  Pass 1  IDiag  1:
 RMSU=  2.35D-03    CP:  9.84D-01
 E= -1430.41828364384     Delta-E=       -0.378719094490 Rises=F Damp=T
 DIIS: error= 6.70D-03 at cycle   2 NSaved=   2.
 NSaved= 2 IEnMin= 2 EnMin= -1430.41828364384     IErMin= 2 ErrMin= 6.70D-03
 ErrMax= 6.70D-03  0.00D+00 EMaxC= 1.00D-01 BMatC= 7.02D-02 BMatP= 1.35D+00
 IDIUse=3 WtCom= 9.33D-01 WtEn= 6.70D-02
 Coeff-Com:  0.178D-01 0.982D+00
 Coeff-En:   0.791D-01 0.921D+00
 Coeff:      0.219D-01 0.978D+00
 Gap=     0.358 Goal=   None    Shift=    0.000
 RMSDP=2.80D-03 MaxDP=7.69D-01 DE=-3.79D-01 OVMax= 1.28D-01

 Cycle   3  Pass 1  IDiag  1:
 RMSU=  1.99D-03    CP:  8.26D-01  9.67D-01
 E= -1430.85142627152     Delta-E=       -0.433142627680 Rises=F Damp=F
 DIIS: error= 3.76D-03 at cycle   3 NSaved=   3.
 NSaved= 3 IEnMin= 3 EnMin= -1430.85142627152     IErMin= 3 ErrMin= 3.76D-03
 ErrMax= 3.76D-03  0.00D+00 EMaxC= 1.00D-01 BMatC= 1.74D-02 BMatP= 7.02D-02
 IDIUse=3 WtCom= 9.62D-01 WtEn= 3.76D-02
 Coeff-Com: -0.424D-01 0.281D+00 0.762D+00
 Coeff-En:   0.000D+00 0.000D+00 0.100D+01
 Coeff:     -0.408D-01 0.270D+00 0.771D+00
 Gap=     0.352 Goal=   None    Shift=    0.000
 RMSDP=3.66D-04 MaxDP=2.93D-02 DE=-4.33D-01 OVMax= 3.92D-02

 Cycle   4  Pass 1  IDiag  1:
 RMSU=  3.28D-04    CP:  8.29D-01  1.02D+00  9.55D-01
 E= -1430.85967681875     Delta-E=       -0.008250547231 Rises=F Damp=F
 DIIS: error= 2.30D-03 at cycle   4 NSaved=   4.
 NSaved= 4 IEnMin= 4 EnMin= -1430.85967681875     IErMin= 4 ErrMin= 2.30D-03
 ErrMax= 2.30D-03  0.00D+00 EMaxC= 1.00D-01 BMatC= 6.21D-03 BMatP= 1.74D-02
 IDIUse=3 WtCom= 9.77D-01 WtEn= 2.30D-02
 Coeff-Com: -0.230D-01 0.633D-01 0.416D+00 0.544D+00
 Coeff-En:   0.000D+00 0.000D+00 0.249D+00 0.751D+00
 Coeff:     -0.225D-01 0.618D-01 0.412D+00 0.549D+00
 Gap=     0.352 Goal=   None    Shift=    0.000
 RMSDP=1.74D-04 MaxDP=2.67D-02 DE=-8.25D-03 OVMax= 1.61D-02

 Cycle   5  Pass 1  IDiag  1:
 RMSU=  9.71D-05    CP:  8.24D-01  1.01D+00  9.79D-01  6.46D-01
 E= -1430.86406040125     Delta-E=       -0.004383582496 Rises=F Damp=F
 DIIS: error= 4.14D-04 at cycle   5 NSaved=   5.
 NSaved= 5 IEnMin= 5 EnMin= -1430.86406040125     IErMin= 5 ErrMin= 4.14D-04
 ErrMax= 4.14D-04  0.00D+00 EMaxC= 1.00D-01 BMatC= 2.17D-04 BMatP= 6.21D-03
 IDIUse=3 WtCom= 9.96D-01 WtEn= 4.14D-03
 Coeff-Com: -0.764D-02 0.141D-01 0.147D+00 0.250D+00 0.597D+00
 Coeff-En:   0.000D+00 0.000D+00 0.000D+00 0.000D+00 0.100D+01
 Coeff:     -0.761D-02 0.141D-01 0.146D+00 0.249D+00 0.598D+00
 Gap=     0.344 Goal=   None    Shift=    0.000
 RMSDP=3.31D-05 MaxDP=3.55D-03 DE=-4.38D-03 OVMax= 2.66D-03

 Cycle   6  Pass 1  IDiag  1:
 RMSU=  2.81D-05    CP:  8.24D-01  1.01D+00  9.79D-01  6.62D-01  8.30D-01
 E= -1430.86420791590     Delta-E=       -0.000147514656 Rises=F Damp=F
 DIIS: error= 7.20D-05 at cycle   6 NSaved=   6.
 NSaved= 6 IEnMin= 6 EnMin= -1430.86420791590     IErMin= 6 ErrMin= 7.20D-05
 ErrMax= 7.20D-05  0.00D+00 EMaxC= 1.00D-01 BMatC= 1.25D-05 BMatP= 2.17D-04
 IDIUse=1 WtCom= 1.00D+00 WtEn= 0.00D+00
 Coeff-Com: -0.106D-02 0.600D-03 0.234D-01 0.532D-01 0.240D+00 0.684D+00
 Coeff:     -0.106D-02 0.600D-03 0.234D-01 0.532D-01 0.240D+00 0.684D+00
 Gap=     0.344 Goal=   None    Shift=    0.000
 RMSDP=1.52D-05 MaxDP=3.90D-03 DE=-1.48D-04 OVMax= 6.73D-04

 Cycle   7  Pass 1  IDiag  1:
 RMSU=  1.35D-05    CP:  8.24D-01  1.01D+00  9.80D-01  6.69D-01  8.18D-01
                    CP:  8.38D-01
 E= -1430.86421809208     Delta-E=       -0.000010176175 Rises=F Damp=F
 DIIS: error= 2.13D-05 at cycle   7 NSaved=   7.
 NSaved= 7 IEnMin= 7 EnMin= -1430.86421809208     IErMin= 7 ErrMin= 2.13D-05
 ErrMax= 2.13D-05  0.00D+00 EMaxC= 1.00D-01 BMatC= 9.29D-07 BMatP= 1.25D-05
 IDIUse=1 WtCom= 1.00D+00 WtEn= 0.00D+00
 Coeff-Com:  0.254D-03-0.970D-03-0.378D-02-0.188D-02 0.355D-01 0.230D+00
 Coeff-Com:  0.741D+00
 Coeff:      0.254D-03-0.970D-03-0.378D-02-0.188D-02 0.355D-01 0.230D+00
 Coeff:      0.741D+00
 Gap=     0.344 Goal=   None    Shift=    0.000
 RMSDP=4.85D-06 MaxDP=1.03D-03 DE=-1.02D-05 OVMax= 3.47D-04

 Cycle   8  Pass 1  IDiag  1:
 RMSU=  2.76D-06    CP:  8.24D-01  1.01D+00  9.80D-01  6.70D-01  8.38D-01
                    CP:  8.90D-01  8.97D-01
 E= -1430.86421869622     Delta-E=       -0.000000604140 Rises=F Damp=F
 DIIS: error= 1.36D-05 at cycle   8 NSaved=   8.
 NSaved= 8 IEnMin= 8 EnMin= -1430.86421869622     IErMin= 8 ErrMin= 1.36D-05
 ErrMax= 1.36D-05  0.00D+00 EMaxC= 1.00D-01 BMatC= 3.49D-07 BMatP= 9.29D-07
 IDIUse=1 WtCom= 1.00D+00 WtEn= 0.00D+00
 Coeff-Com:  0.316D-03-0.610D-03-0.603D-02-0.994D-02-0.193D-01 0.152D-01
 Coeff-Com:  0.414D+00 0.606D+00
 Coeff:      0.316D-03-0.610D-03-0.603D-02-0.994D-02-0.193D-01 0.152D-01
 Coeff:      0.414D+00 0.606D+00
 Gap=     0.344 Goal=   None    Shift=    0.000
 RMSDP=1.78D-06 MaxDP=2.68D-04 DE=-6.04D-07 OVMax= 1.44D-04

 Cycle   9  Pass 1  IDiag  1:
 RMSU=  1.33D-06    CP:  8.24D-01  1.01D+00  9.80D-01  6.70D-01  8.42D-01
                    CP:  9.03D-01  9.39D-01  9.16D-01
 E= -1430.86421894641     Delta-E=       -0.000000250187 Rises=F Damp=F
 DIIS: error= 3.14D-06 at cycle   9 NSaved=   9.
 NSaved= 9 IEnMin= 9 EnMin= -1430.86421894641     IErMin= 9 ErrMin= 3.14D-06
 ErrMax= 3.14D-06  0.00D+00 EMaxC= 1.00D-01 BMatC= 1.89D-08 BMatP= 3.49D-07
 IDIUse=1 WtCom= 1.00D+00 WtEn= 0.00D+00
 Coeff-Com:  0.988D-04-0.157D-03-0.209D-02-0.378D-02-0.990D-02-0.100D-01
 Coeff-Com:  0.111D+00 0.249D+00 0.666D+00
 Coeff:      0.988D-04-0.157D-03-0.209D-02-0.378D-02-0.990D-02-0.100D-01
 Coeff:      0.111D+00 0.249D+00 0.666D+00
 Gap=     0.344 Goal=   None    Shift=    0.000
 RMSDP=6.03D-07 MaxDP=1.04D-04 DE=-2.50D-07 OVMax= 4.43D-05

 Cycle  10  Pass 1  IDiag  1:
 RMSU=  4.15D-07    CP:  8.24D-01  1.01D+00  9.80D-01  6.71D-01  8.40D-01
                    CP:  9.03D-01  9.61D-01  9.56D-01  8.54D-01
 E= -1430.86421896136     Delta-E=       -0.000000014958 Rises=F Damp=F
 DIIS: error= 1.23D-06 at cycle  10 NSaved=  10.
 NSaved=10 IEnMin=10 EnMin= -1430.86421896136     IErMin=10 ErrMin= 1.23D-06
 ErrMax= 1.23D-06  0.00D+00 EMaxC= 1.00D-01 BMatC= 2.81D-09 BMatP= 1.89D-08
 IDIUse=1 WtCom= 1.00D+00 WtEn= 0.00D+00
 Coeff-Com: -0.834D-05 0.228D-04 0.163D-04-0.137D-03-0.153D-02-0.743D-02
 Coeff-Com: -0.154D-01 0.805D-02 0.278D+00 0.738D+00
 Coeff:     -0.834D-05 0.228D-04 0.163D-04-0.137D-03-0.153D-02-0.743D-02
 Coeff:     -0.154D-01 0.805D-02 0.278D+00 0.738D+00
 Gap=     0.344 Goal=   None    Shift=    0.000
 RMSDP=2.00D-07 MaxDP=2.60D-05 DE=-1.50D-08 OVMax= 1.22D-05

 Cycle  11  Pass 1  IDiag  1:
 RMSU=  1.06D-07    CP:  8.24D-01  1.01D+00  9.80D-01  6.71D-01  8.41D-01
                    CP:  9.04D-01  9.60D-01  9.71D-01  9.51D-01  1.08D+00
 E= -1430.86421896372     Delta-E=       -0.000000002354 Rises=F Damp=F
 DIIS: error= 6.18D-07 at cycle  11 NSaved=  11.
 NSaved=11 IEnMin=11 EnMin= -1430.86421896372     IErMin=11 ErrMin= 6.18D-07
 ErrMax= 6.18D-07  0.00D+00 EMaxC= 1.00D-01 BMatC= 3.47D-10 BMatP= 2.81D-09
 IDIUse=1 WtCom= 1.00D+00 WtEn= 0.00D+00
 Coeff-Com: -0.137D-04 0.273D-04 0.227D-03 0.335D-03 0.428D-03-0.185D-02
 Coeff-Com: -0.181D-01-0.269D-01 0.425D-01 0.324D+00 0.679D+00
 Coeff:     -0.137D-04 0.273D-04 0.227D-03 0.335D-03 0.428D-03-0.185D-02
 Coeff:     -0.181D-01-0.269D-01 0.425D-01 0.324D+00 0.679D+00
 Gap=     0.344 Goal=   None    Shift=    0.000
 RMSDP=7.88D-08 MaxDP=9.41D-06 DE=-2.35D-09 OVMax= 3.55D-06

 Cycle  12  Pass 1  IDiag  1:
 RMSU=  4.94D-08    CP:  8.24D-01  1.01D+00  9.80D-01  6.71D-01  8.41D-01
                    CP:  9.03D-01  9.59D-01  9.83D-01  9.78D-01  1.06D+00
                    CP:  9.43D-01
 E= -1430.86421896388     Delta-E=       -0.000000000167 Rises=F Damp=F
 DIIS: error= 9.29D-08 at cycle  12 NSaved=  12.
 NSaved=12 IEnMin=12 EnMin= -1430.86421896388     IErMin=12 ErrMin= 9.29D-08
 ErrMax= 9.29D-08  0.00D+00 EMaxC= 1.00D-01 BMatC= 1.89D-11 BMatP= 3.47D-10
 IDIUse=1 WtCom= 1.00D+00 WtEn= 0.00D+00
 Coeff-Com: -0.341D-05 0.634D-05 0.735D-04 0.119D-03 0.256D-03 0.882D-05
 Coeff-Com: -0.435D-02-0.103D-01-0.108D-01 0.387D-01 0.208D+00 0.778D+00
 Coeff:     -0.341D-05 0.634D-05 0.735D-04 0.119D-03 0.256D-03 0.882D-05
 Coeff:     -0.435D-02-0.103D-01-0.108D-01 0.387D-01 0.208D+00 0.778D+00
 Gap=     0.344 Goal=   None    Shift=    0.000
 RMSDP=1.65D-08 MaxDP=1.50D-06 DE=-1.67D-10 OVMax= 1.30D-06

 Cycle  13  Pass 1  IDiag  1:
 RMSU=  1.16D-08    CP:  8.24D-01  1.01D+00  9.80D-01  6.71D-01  8.41D-01
                    CP:  9.03D-01  9.59D-01  9.82D-01  9.82D-01  1.09D+00
                    CP:  9.75D-01  9.77D-01
 E= -1430.86421896406     Delta-E=       -0.000000000175 Rises=F Damp=F
 DIIS: error= 3.62D-08 at cycle  13 NSaved=  13.
 NSaved=13 IEnMin=13 EnMin= -1430.86421896406     IErMin=13 ErrMin= 3.62D-08
 ErrMax= 3.62D-08  0.00D+00 EMaxC= 1.00D-01 BMatC= 2.84D-12 BMatP= 1.89D-11
 IDIUse=1 WtCom= 1.00D+00 WtEn= 0.00D+00
 Coeff-Com:  0.680D-06-0.129D-05-0.253D-05-0.221D-05 0.318D-04 0.226D-03
 Coeff-Com:  0.777D-03-0.587D-03-0.859D-02-0.256D-01-0.100D-01 0.290D+00
 Coeff-Com:  0.754D+00
 Coeff:      0.680D-06-0.129D-05-0.253D-05-0.221D-05 0.318D-04 0.226D-03
 Coeff:      0.777D-03-0.587D-03-0.859D-02-0.256D-01-0.100D-01 0.290D+00
 Coeff:      0.754D+00
 Gap=     0.344 Goal=   None    Shift=    0.000
 RMSDP=6.35D-09 MaxDP=9.52D-07 DE=-1.75D-10 OVMax= 4.59D-07

 SCF Done:  E(RM062X) =  -1430.86421896     A.U. after   13 cycles
            NFock= 13  Conv=0.63D-08     -V/T= 2.0033
 KE= 1.426115404150D+03 PE=-7.503062094410D+03 EE= 2.580969180757D+03
 Leave Link  502 at Fri May 20 14:55:18 2022, MaxMem= 13421772800 cpu:            5510.3 elap:             251.4
 (Enter /data0/home/wuhanyu/software/g16/l601.exe)
 Copying SCF densities to generalized density rwf, IOpCl= 0 IROHF=0.

 **********************************************************************

            Population analysis using the SCF density.

 **********************************************************************

 Alpha  occ. eigenvalues --  -78.13947 -19.65361 -19.63052 -19.62846 -19.61981
 Alpha  occ. eigenvalues --  -19.61286 -19.61139 -19.61070 -19.60822 -19.60386
 Alpha  occ. eigenvalues --  -19.57247 -14.89668 -10.66425 -10.61208 -10.60654
 Alpha  occ. eigenvalues --  -10.59916 -10.59285 -10.56785 -10.55625  -6.94673
 Alpha  occ. eigenvalues --   -5.06604  -5.06546  -5.06391  -1.21007  -1.20140
 Alpha  occ. eigenvalues --   -1.14153  -1.13665  -1.13133  -1.12745  -1.12209
 Alpha  occ. eigenvalues --   -1.11820  -1.11101  -1.10142  -1.07435  -0.92032
 Alpha  occ. eigenvalues --   -0.85509  -0.84484  -0.83174  -0.75219  -0.70427
 Alpha  occ. eigenvalues --   -0.68868  -0.64315  -0.62659  -0.61948  -0.61349
 Alpha  occ. eigenvalues --   -0.60967  -0.60594  -0.60301  -0.60006  -0.59482
 Alpha  occ. eigenvalues --   -0.58732  -0.56669  -0.55205  -0.54938  -0.53204
 Alpha  occ. eigenvalues --   -0.52663  -0.52020  -0.50495  -0.49946  -0.49301
 Alpha  occ. eigenvalues --   -0.49034  -0.48409  -0.47901  -0.47531  -0.47320
 Alpha  occ. eigenvalues --   -0.47163  -0.46540  -0.45936  -0.45481  -0.44762
 Alpha  occ. eigenvalues --   -0.43865  -0.43580  -0.43354  -0.41942  -0.41534
 Alpha  occ. eigenvalues --   -0.40548  -0.40184  -0.39184  -0.38855  -0.38300
 Alpha  occ. eigenvalues --   -0.37051  -0.36605  -0.36113  -0.35441  -0.35014
 Alpha virt. eigenvalues --   -0.00575   0.00921   0.01173   0.01935   0.02396
 Alpha virt. eigenvalues --    0.03602   0.03992   0.04150   0.04426   0.05150
 Alpha virt. eigenvalues --    0.05716   0.06252   0.06489   0.07151   0.07290
 Alpha virt. eigenvalues --    0.08001   0.08196   0.08369   0.09273   0.09942
 Alpha virt. eigenvalues --    0.10384   0.10917   0.11506   0.11532   0.12484
 Alpha virt. eigenvalues --    0.12798   0.13275   0.13881   0.14119   0.14352
 Alpha virt. eigenvalues --    0.14552   0.14813   0.15122   0.15460   0.16105
 Alpha virt. eigenvalues --    0.16213   0.16709   0.17010   0.17247   0.17471
 Alpha virt. eigenvalues --    0.18258   0.18546   0.18740   0.19189   0.19451
 Alpha virt. eigenvalues --    0.19792   0.20357   0.20627   0.21143   0.21472
 Alpha virt. eigenvalues --    0.21760   0.22068   0.22441   0.22642   0.22937
 Alpha virt. eigenvalues --    0.23075   0.23400   0.23660   0.23856   0.24169
 Alpha virt. eigenvalues --    0.24866   0.25435   0.25876   0.25947   0.26146
 Alpha virt. eigenvalues --    0.26426   0.26835   0.27318   0.27728   0.27855
 Alpha virt. eigenvalues --    0.28106   0.28560   0.28683   0.28924   0.29477
 Alpha virt. eigenvalues --    0.29640   0.29795   0.30263   0.30449   0.31227
 Alpha virt. eigenvalues --    0.31547   0.31746   0.32096   0.32378   0.32649
 Alpha virt. eigenvalues --    0.33680   0.34106   0.34166   0.34354   0.35140
 Alpha virt. eigenvalues --    0.35489   0.36131   0.36349   0.36811   0.37343
 Alpha virt. eigenvalues --    0.37406   0.38397   0.38711   0.39182   0.39349
 Alpha virt. eigenvalues --    0.40412   0.40535   0.40855   0.41081   0.41323
 Alpha virt. eigenvalues --    0.41941   0.42947   0.43965   0.44964   0.45700
 Alpha virt. eigenvalues --    0.46280   0.46543   0.46839   0.47975   0.48612
 Alpha virt. eigenvalues --    0.49370   0.50604   0.51182   0.51883   0.52175
 Alpha virt. eigenvalues --    0.52845   0.53934   0.54211   0.54449   0.55226
 Alpha virt. eigenvalues --    0.56423   0.56558   0.56840   0.57673   0.58191
 Alpha virt. eigenvalues --    0.58599   0.59263   0.59676   0.60028   0.60470
 Alpha virt. eigenvalues --    0.60889   0.61539   0.62299   0.62467   0.63659
 Alpha virt. eigenvalues --    0.64085   0.64280   0.65246   0.65784   0.66079
 Alpha virt. eigenvalues --    0.66663   0.67297   0.68248   0.68557   0.68931
 Alpha virt. eigenvalues --    0.69487   0.69621   0.70793   0.71755   0.72361
 Alpha virt. eigenvalues --    0.73071   0.73658   0.74234   0.74471   0.75987
 Alpha virt. eigenvalues --    0.76189   0.76615   0.77675   0.78437   0.78824
 Alpha virt. eigenvalues --    0.79276   0.79776   0.80776   0.81607   0.81931
 Alpha virt. eigenvalues --    0.83098   0.84249   0.84350   0.85228   0.85662
 Alpha virt. eigenvalues --    0.86675   0.87797   0.89080   0.89673   0.91581
 Alpha virt. eigenvalues --    0.92417   0.93635   0.96437   0.96778   0.99483
 Alpha virt. eigenvalues --    1.00684   1.01337   1.03041   1.03875   1.05897
 Alpha virt. eigenvalues --    1.06488   1.08538   1.08977   1.09834   1.09896
 Alpha virt. eigenvalues --    1.10107   1.12085   1.12439   1.13153   1.13595
 Alpha virt. eigenvalues --    1.14047   1.14424   1.15158   1.15674   1.16547
 Alpha virt. eigenvalues --    1.16781   1.17047   1.17331   1.18046   1.18550
 Alpha virt. eigenvalues --    1.18863   1.19736   1.20275   1.20718   1.21600
 Alpha virt. eigenvalues --    1.22132   1.23209   1.23726   1.23978   1.24436
 Alpha virt. eigenvalues --    1.25015   1.25585   1.26390   1.27180   1.27623
 Alpha virt. eigenvalues --    1.28480   1.28619   1.29043   1.29310   1.30572
 Alpha virt. eigenvalues --    1.30964   1.31185   1.32836   1.32900   1.33358
 Alpha virt. eigenvalues --    1.33908   1.34141   1.35230   1.35715   1.35899
 Alpha virt. eigenvalues --    1.36543   1.37128   1.38185   1.38604   1.39346
 Alpha virt. eigenvalues --    1.39390   1.39852   1.40519   1.41654   1.42193
 Alpha virt. eigenvalues --    1.42712   1.43225   1.43858   1.44324   1.45293
 Alpha virt. eigenvalues --    1.45810   1.46171   1.47606   1.47938   1.48365
 Alpha virt. eigenvalues --    1.48698   1.49622   1.51875   1.52210   1.53028
 Alpha virt. eigenvalues --    1.55437   1.56063   1.56854   1.57706   1.59314
 Alpha virt. eigenvalues --    1.60232   1.60646   1.61394   1.61798   1.63325
 Alpha virt. eigenvalues --    1.63901   1.64344   1.65957   1.66254   1.68328
 Alpha virt. eigenvalues --    1.69270   1.69957   1.71042   1.72836   1.73625
 Alpha virt. eigenvalues --    1.73782   1.75158   1.75365   1.76064   1.76253
 Alpha virt. eigenvalues --    1.77598   1.77790   1.78250   1.78710   1.79755
 Alpha virt. eigenvalues --    1.80058   1.81214   1.81649   1.82725   1.84187
 Alpha virt. eigenvalues --    1.84685   1.85023   1.86032   1.86678   1.87615
 Alpha virt. eigenvalues --    1.88555   1.89551   1.89825   1.90864   1.91813
 Alpha virt. eigenvalues --    1.93983   1.94703   1.95574   1.96548   1.97011
 Alpha virt. eigenvalues --    1.97404   1.98505   2.00713   2.01079   2.03017
 Alpha virt. eigenvalues --    2.03363   2.04379   2.05437   2.06029   2.06685
 Alpha virt. eigenvalues --    2.08013   2.08375   2.09616   2.10549   2.11640
 Alpha virt. eigenvalues --    2.12467   2.13529   2.13801   2.14908   2.16668
 Alpha virt. eigenvalues --    2.16895   2.17454   2.18503   2.19217   2.19911
 Alpha virt. eigenvalues --    2.21279   2.22272   2.23851   2.24590   2.25391
 Alpha virt. eigenvalues --    2.26310   2.27500   2.28716   2.29787   2.30040
 Alpha virt. eigenvalues --    2.31357   2.31583   2.31929   2.32357   2.33648
 Alpha virt. eigenvalues --    2.34150   2.34727   2.36512   2.37427   2.38399
 Alpha virt. eigenvalues --    2.39693   2.40826   2.41778   2.42512   2.43654
 Alpha virt. eigenvalues --    2.44088   2.44387   2.45332   2.45725   2.46675
 Alpha virt. eigenvalues --    2.47782   2.48003   2.49598   2.49941   2.51967
 Alpha virt. eigenvalues --    2.52575   2.52734   2.54361   2.55337   2.56330
 Alpha virt. eigenvalues --    2.57765   2.59258   2.61590   2.62794   2.63044
 Alpha virt. eigenvalues --    2.64775   2.67259   2.68409   2.69061   2.70148
 Alpha virt. eigenvalues --    2.70940   2.72201   2.73572   2.75844   2.76405
 Alpha virt. eigenvalues --    2.77289   2.77977   2.79963   2.81217   2.84728
 Alpha virt. eigenvalues --    2.85838   2.86682   2.87730   2.88925   2.90988
 Alpha virt. eigenvalues --    2.91778   2.93918   2.95684   2.97579   2.98836
 Alpha virt. eigenvalues --    3.00494   3.01185   3.03937   3.04428   3.05364
 Alpha virt. eigenvalues --    3.06197   3.07873   3.08480   3.09687   3.11279
 Alpha virt. eigenvalues --    3.12770   3.13330   3.15881   3.16759   3.17612
 Alpha virt. eigenvalues --    3.20484   3.21783   3.24061   3.25030   3.26266
 Alpha virt. eigenvalues --    3.29747   3.32033   3.34707   3.35991   3.36484
 Alpha virt. eigenvalues --    3.37958   3.40500   3.42261   3.42722   3.44127
 Alpha virt. eigenvalues --    3.45499   3.46098   3.48055   3.50425   3.53248
 Alpha virt. eigenvalues --    3.55849   3.58151   3.59431   3.60484   3.60998
 Alpha virt. eigenvalues --    3.63146   3.63870   3.67836   3.68395   3.68921
 Alpha virt. eigenvalues --    3.70824   3.71265   3.72641   3.74234   3.77093
 Alpha virt. eigenvalues --    3.77325   3.81282   3.83754   3.86420   3.87891
 Alpha virt. eigenvalues --    3.91291   3.95784   4.00478   4.07963   4.15116
 Alpha virt. eigenvalues --    4.16350   4.16646   4.17609   4.19552   4.21913
 Alpha virt. eigenvalues --    4.23810   4.25454   4.27275   4.39264   4.41659
 Alpha virt. eigenvalues --    4.53156   4.81120   4.82090   4.84758   5.11061
 Alpha virt. eigenvalues --    5.12195   5.14539   5.15866   5.17380   5.17637
 Alpha virt. eigenvalues --    5.19069   5.20850   5.22518   5.25430   5.26475
 Alpha virt. eigenvalues --    5.27396   5.31379   5.33030   5.36281   5.37738
 Alpha virt. eigenvalues --    5.42814   5.46195   5.46787   5.48965   5.50302
 Alpha virt. eigenvalues --    5.54023   5.55900   5.59069   5.62166   5.62896
 Alpha virt. eigenvalues --    5.66167   5.66694   5.68510   5.92378   5.96495
 Alpha virt. eigenvalues --    5.99098   5.99781   6.00792   6.22309   6.77264
 Alpha virt. eigenvalues --    6.78477   6.79501   6.80448   6.80815   6.81571
 Alpha virt. eigenvalues --    6.82532   6.83546   6.84030   6.84967   6.85434
 Alpha virt. eigenvalues --    6.85917   6.86675   6.88408   6.88538   6.89335
 Alpha virt. eigenvalues --    6.90535   6.91020   6.92474   6.92870   6.93953
 Alpha virt. eigenvalues --    6.94268   6.95801   6.98015   6.99817   7.00413
 Alpha virt. eigenvalues --    7.00511   7.02236   7.02666   7.03706   7.05348
 Alpha virt. eigenvalues --    7.05908   7.06914   7.07472   7.09684   7.14428
 Alpha virt. eigenvalues --    7.16457   7.19061   7.21344   7.22869   7.24643
 Alpha virt. eigenvalues --    7.27187   7.29241   7.30792   7.31450   7.34331
 Alpha virt. eigenvalues --    7.37861   7.39253   7.45186   7.46070   7.72661
 Alpha virt. eigenvalues --   14.29484  14.33292  14.41685  23.97056  24.01149
 Alpha virt. eigenvalues --   24.07256  24.08462  24.13143  24.13930  24.23347
 Alpha virt. eigenvalues --   35.55239  50.04209  50.05310  50.06882  50.08784
 Alpha virt. eigenvalues --   50.09721  50.10497  50.11031  50.15446  50.17871
 Alpha virt. eigenvalues --   50.20628 163.98604
          Condensed to atoms (all electrons):
               1          2          3          4          5          6
     1  C    6.488749   0.225409   0.414484   0.373530  -0.316408   0.040859
     2  H    0.225409   0.585457  -0.016896  -0.009291   0.039496  -0.000490
     3  H    0.414484  -0.016896   0.434833  -0.020696  -0.010394  -0.000086
     4  H    0.373530  -0.009291  -0.020696   0.429721   0.018363   0.000369
     5  C   -0.316408   0.039496  -0.010394   0.018363   5.917071   0.412447
     6  H    0.040859  -0.000490  -0.000086   0.000369   0.412447   0.437630
     7  H   -0.030447   0.000316   0.000094  -0.000255   0.395868  -0.016786
     8  H   -0.012250   0.000378  -0.000674  -0.002104   0.370554  -0.019779
     9  C   -0.326133  -0.001999  -0.011023   0.008572  -0.186009   0.002380
    10  H   -0.023318   0.000249   0.000086   0.000249  -0.014404   0.000442
    11  H   -0.014128   0.001005   0.000116   0.000200   0.024653   0.000184
    12  H    0.032101  -0.000462   0.000401  -0.000206  -0.026680   0.001200
    13  C   -0.485063   0.095291   0.020795  -0.004997  -0.589378  -0.068734
    14  H    0.014838   0.000100  -0.000201   0.000008   0.003294   0.001866
    15  H   -0.008662   0.000598   0.000392   0.000858   0.024172  -0.001039
    16  C    0.115760  -0.086342  -0.002909  -0.012416  -0.117091   0.000558
    17  H   -0.038237   0.017262  -0.000501   0.000899   0.011786  -0.000036
    18  H    0.005212   0.000122   0.000036  -0.000042  -0.001366   0.000020
    19  C   -0.046213   0.027196   0.002847   0.002744  -0.055778  -0.001338
    20  H    0.001564  -0.000124  -0.000002  -0.000013   0.000095  -0.000001
    21  H   -0.001260  -0.000120   0.000001   0.000008   0.000914  -0.000003
    22  N   -0.025211  -0.009538  -0.028900  -0.023492   0.496555  -0.009268
    23  C    0.043159  -0.016637  -0.003705  -0.003854   0.019942   0.001790
    24  O    0.013991  -0.003021   0.001343  -0.003002  -0.000960  -0.000038
    25  O    0.005629  -0.001093  -0.000100  -0.000155   0.006454   0.000018
    26  P    0.011672  -0.001325   0.000759   0.004554   0.003163  -0.000213
    27  O   -0.047671  -0.001117   0.000657   0.003214   0.008495   0.000096
    28  O    0.007144  -0.000252  -0.000040  -0.002538  -0.003467   0.000003
    29  H    0.000758   0.000011  -0.000002   0.000102   0.000094   0.000000
    30  O   -0.006528   0.000367   0.000024   0.000943   0.003361  -0.000007
    31  H   -0.000632   0.000196   0.000011   0.000120   0.000228  -0.000003
    32  O    0.023753  -0.009549   0.000769  -0.011480  -0.011255  -0.000001
    33  H    0.019837   0.001808  -0.000638   0.000571  -0.003594   0.000003
    34  O   -0.005675   0.000055   0.000037   0.000309   0.038297  -0.000970
    35  H    0.001834   0.000012  -0.000005   0.000040  -0.008950   0.000091
    36  H    0.002006   0.000003  -0.000009  -0.000181  -0.010292   0.000194
    37  O   -0.002055   0.000108   0.000015  -0.000071  -0.019284  -0.019676
    38  H    0.000249   0.000001  -0.000000  -0.000005   0.000749   0.000334
    39  H    0.003156  -0.000034  -0.000004   0.000001  -0.022313   0.002674
    40  O   -0.003674   0.016158  -0.014018   0.002288   0.011152  -0.000046
    41  H    0.020788  -0.008016   0.000979  -0.000242  -0.002602   0.000002
    42  H   -0.001794  -0.001354   0.000436  -0.000031   0.000129  -0.000000
    43  O   -0.056846   0.033629  -0.000069   0.000173   0.000940  -0.000000
    44  H    0.003719  -0.003215   0.000000  -0.000036  -0.000073   0.000000
    45  H   -0.000437   0.000133   0.000091   0.000645   0.000988   0.000000
               7          8          9         10         11         12
     1  C   -0.030447  -0.012250  -0.326133  -0.023318  -0.014128   0.032101
     2  H    0.000316   0.000378  -0.001999   0.000249   0.001005  -0.000462
     3  H    0.000094  -0.000674  -0.011023   0.000086   0.000116   0.000401
     4  H   -0.000255  -0.002104   0.008572   0.000249   0.000200  -0.000206
     5  C    0.395868   0.370554  -0.186009  -0.014404   0.024653  -0.026680
     6  H   -0.016786  -0.019779   0.002380   0.000442   0.000184   0.001200
     7  H    0.382198  -0.014222   0.015612  -0.000008  -0.000231   0.000151
     8  H   -0.014222   0.464558  -0.024795  -0.000164  -0.000168   0.000352
     9  C    0.015612  -0.024795   5.695422   0.399690   0.408143   0.408126
    10  H   -0.000008  -0.000164   0.399690   0.453680  -0.015614  -0.018578
    11  H   -0.000231  -0.000168   0.408143  -0.015614   0.426663  -0.020452
    12  H    0.000151   0.000352   0.408126  -0.018578  -0.020452   0.454752
    13  C    0.028621   0.064528  -0.250541   0.048357  -0.069342  -0.024949
    14  H   -0.000553   0.000022  -0.002208  -0.000155  -0.000038  -0.000202
    15  H    0.001298  -0.000058  -0.001632  -0.000299   0.000044   0.000407
    16  C   -0.002056   0.004058   0.058094  -0.004089   0.037687   0.010286
    17  H    0.000029  -0.000023   0.004685  -0.000241  -0.001580  -0.000128
    18  H    0.000003   0.000006  -0.010252   0.000006  -0.001272   0.000441
    19  C   -0.003373   0.000709  -0.099438   0.003179  -0.004106  -0.001863
    20  H    0.000001  -0.000000   0.000511  -0.000002  -0.000009  -0.000003
    21  H    0.000002  -0.000001   0.000955  -0.000002  -0.000005   0.000008
    22  N   -0.029598  -0.032344   0.299432  -0.036511  -0.012681  -0.025283
    23  C   -0.001481   0.000114   0.024861  -0.000181   0.002767   0.000293
    24  O   -0.000195  -0.000066  -0.001591  -0.000057   0.000006   0.000013
    25  O    0.000022  -0.000008  -0.000556   0.000004  -0.000010  -0.000009
    26  P    0.000420  -0.000150  -0.004257   0.000112  -0.000014   0.000017
    27  O    0.002477  -0.001356   0.002362   0.000013   0.000015   0.000003
    28  O    0.000140   0.000014  -0.000049  -0.000000   0.000000   0.000000
    29  H   -0.000005  -0.000000   0.000002  -0.000000  -0.000000  -0.000000
    30  O    0.000040  -0.000016  -0.000071   0.000001   0.000000  -0.000000
    31  H    0.000005  -0.000001   0.000060  -0.000000   0.000000   0.000000
    32  O   -0.000163   0.000031   0.002396   0.000004   0.000016   0.000002
    33  H    0.000065   0.000034   0.000034  -0.000009  -0.000017  -0.000002
    34  O   -0.001748  -0.000399  -0.004423   0.000022   0.000028   0.000040
    35  H    0.000051   0.000037   0.000064  -0.000003  -0.000006  -0.000009
    36  H    0.000113   0.000113   0.000148  -0.000002  -0.000002  -0.000004
    37  O   -0.002899   0.001388  -0.014582   0.000047   0.000067  -0.000059
    38  H   -0.000069   0.000015  -0.000097  -0.000003  -0.000001  -0.000009
    39  H   -0.000100   0.000079   0.002156  -0.000018  -0.000014  -0.000029
    40  O   -0.000031  -0.000123  -0.049775   0.001900  -0.013844   0.000995
    41  H    0.000003  -0.000010   0.002885   0.000057   0.000338   0.000020
    42  H   -0.000000  -0.000004   0.006704  -0.000215   0.000910  -0.000053
    43  O   -0.000006   0.000011   0.006993  -0.000026  -0.000659  -0.000012
    44  H    0.000000   0.000000  -0.000135  -0.000001  -0.000032  -0.000000
    45  H    0.000004  -0.000002   0.001025   0.000014  -0.000013   0.000000
              13         14         15         16         17         18
     1  C   -0.485063   0.014838  -0.008662   0.115760  -0.038237   0.005212
     2  H    0.095291   0.000100   0.000598  -0.086342   0.017262   0.000122
     3  H    0.020795  -0.000201   0.000392  -0.002909  -0.000501   0.000036
     4  H   -0.004997   0.000008   0.000858  -0.012416   0.000899  -0.000042
     5  C   -0.589378   0.003294   0.024172  -0.117091   0.011786  -0.001366
     6  H   -0.068734   0.001866  -0.001039   0.000558  -0.000036   0.000020
     7  H    0.028621  -0.000553   0.001298  -0.002056   0.000029   0.000003
     8  H    0.064528   0.000022  -0.000058   0.004058  -0.000023   0.000006
     9  C   -0.250541  -0.002208  -0.001632   0.058094   0.004685  -0.010252
    10  H    0.048357  -0.000155  -0.000299  -0.004089  -0.000241   0.000006
    11  H   -0.069342  -0.000038   0.000044   0.037687  -0.001580  -0.001272
    12  H   -0.024949  -0.000202   0.000407   0.010286  -0.000128   0.000441
    13  C    9.587293   0.305931   0.409009  -2.159042  -0.044746   0.038124
    14  H    0.305931   0.417732  -0.026834   0.018379   0.004107  -0.009723
    15  H    0.409009  -0.026834   0.512833  -0.081718  -0.001325   0.004944
    16  C   -2.159042   0.018379  -0.081718   8.297358   0.399663   0.329794
    17  H   -0.044746   0.004107  -0.001325   0.399663   0.591062  -0.037177
    18  H    0.038124  -0.009723   0.004944   0.329794  -0.037177   0.505115
    19  C    0.736245  -0.008454   0.009255  -1.187400  -0.006008  -0.008966
    20  H    0.030472  -0.000223   0.000000  -0.054679  -0.008820  -0.002145
    21  H    0.011471  -0.000428  -0.000006  -0.035859   0.006289  -0.005062
    22  N   -0.633732   0.017110  -0.017888   0.096694   0.038458  -0.011865
    23  C   -0.601695   0.014410  -0.034933   0.539073  -0.051487   0.026624
    24  O    0.152430  -0.000573   0.010943  -0.139198  -0.009174   0.000562
    25  O   -0.034808  -0.000111  -0.002658   0.021010   0.000769  -0.001439
    26  P   -0.017849   0.000192   0.002359  -0.015636  -0.000231   0.000210
    27  O   -0.018141   0.000071  -0.004799   0.028274  -0.000077  -0.000025
    28  O   -0.000725   0.000001  -0.000193   0.000926  -0.000007   0.000000
    29  H   -0.000078   0.000000   0.000027  -0.000366   0.000000   0.000000
    30  O    0.010286   0.000019  -0.003837  -0.014745   0.000074  -0.000007
    31  H   -0.007963  -0.000031   0.003050   0.001995  -0.000044   0.000011
    32  O    0.019763  -0.000039  -0.001548  -0.014213  -0.000363   0.000015
    33  H   -0.036475  -0.000026   0.001609   0.037152   0.000358  -0.000048
    34  O   -0.065655  -0.002936   0.012054   0.006613  -0.000165  -0.000176
    35  H    0.035273  -0.000105   0.004418  -0.026718  -0.000013   0.000074
    36  H    0.022374  -0.000306   0.000093   0.006202   0.000000   0.000005
    37  O    0.005964  -0.027996   0.000716   0.004593  -0.000489   0.000204
    38  H    0.001857   0.001515   0.000858   0.002754   0.000003  -0.000020
    39  H    0.056469  -0.001057  -0.003067  -0.005195   0.000046   0.000078
    40  O    0.014464  -0.000075  -0.000133  -0.048466   0.012613   0.001542
    41  H   -0.007318  -0.000005   0.000019   0.017574  -0.001005  -0.000443
    42  H   -0.000442   0.000002  -0.000001   0.001310  -0.001985   0.000026
    43  O    0.031291  -0.000110   0.000159  -0.052608   0.000399   0.001830
    44  H   -0.003961   0.000001  -0.000030   0.003020  -0.001778   0.000019
    45  H   -0.008188   0.000062  -0.000334   0.050270   0.011491  -0.000674
              19         20         21         22         23         24
     1  C   -0.046213   0.001564  -0.001260  -0.025211   0.043159   0.013991
     2  H    0.027196  -0.000124  -0.000120  -0.009538  -0.016637  -0.003021
     3  H    0.002847  -0.000002   0.000001  -0.028900  -0.003705   0.001343
     4  H    0.002744  -0.000013   0.000008  -0.023492  -0.003854  -0.003002
     5  C   -0.055778   0.000095   0.000914   0.496555   0.019942  -0.000960
     6  H   -0.001338  -0.000001  -0.000003  -0.009268   0.001790  -0.000038
     7  H   -0.003373   0.000001   0.000002  -0.029598  -0.001481  -0.000195
     8  H    0.000709  -0.000000  -0.000001  -0.032344   0.000114  -0.000066
     9  C   -0.099438   0.000511   0.000955   0.299432   0.024861  -0.001591
    10  H    0.003179  -0.000002  -0.000002  -0.036511  -0.000181  -0.000057
    11  H   -0.004106  -0.000009  -0.000005  -0.012681   0.002767   0.000006
    12  H   -0.001863  -0.000003   0.000008  -0.025283   0.000293   0.000013
    13  C    0.736245   0.030472   0.011471  -0.633732  -0.601695   0.152430
    14  H   -0.008454  -0.000223  -0.000428   0.017110   0.014410  -0.000573
    15  H    0.009255   0.000000  -0.000006  -0.017888  -0.034933   0.010943
    16  C   -1.187400  -0.054679  -0.035859   0.096694   0.539073  -0.139198
    17  H   -0.006008  -0.008820   0.006289   0.038458  -0.051487  -0.009174
    18  H   -0.008966  -0.002145  -0.005062  -0.011865   0.026624   0.000562
    19  C    8.365464   0.437743   0.445051  -0.231050  -1.841548   0.163869
    20  H    0.437743   0.482696  -0.029037  -0.001015  -0.064574  -0.005317
    21  H    0.445051  -0.029037   0.476048   0.001514  -0.068238   0.007530
    22  N   -0.231050  -0.001015   0.001514   7.017566   0.207050  -0.050738
    23  C   -1.841548  -0.064574  -0.068238   0.207050   7.004956   0.006989
    24  O    0.163869  -0.005317   0.007530  -0.050738   0.006989   8.528235
    25  O   -0.171483   0.008006  -0.009886   0.013940   0.445945  -0.085021
    26  P   -0.012186  -0.000012   0.000046   0.014137  -0.016171   0.020340
    27  O   -0.013685  -0.000034   0.000027   0.037508   0.031932  -0.017206
    28  O   -0.001901   0.000002   0.000002  -0.000140  -0.001902   0.002463
    29  H    0.000499  -0.000000   0.000000  -0.000113  -0.001929   0.000498
    30  O    0.025493  -0.000000  -0.000078   0.001689  -0.009109  -0.009066
    31  H    0.017845  -0.000119   0.000005  -0.000708  -0.020568   0.027563
    32  O    0.004698   0.000034  -0.000006  -0.006993  -0.009918   0.007262
    33  H   -0.017390  -0.000120  -0.000003  -0.000807   0.050468   0.009149
    34  O    0.010630   0.000047  -0.000280   0.017403  -0.062681   0.002799
    35  H    0.023312  -0.000078  -0.001059  -0.011113   0.026314  -0.000301
    36  H   -0.000472  -0.000001  -0.000017  -0.005489  -0.000817  -0.000411
    37  O   -0.005401   0.000006  -0.000124   0.012271  -0.009814   0.000070
    38  H   -0.000606  -0.000000   0.000014  -0.001091   0.000271   0.000002
    39  H    0.005396  -0.000003  -0.000110  -0.012794   0.003994   0.000066
    40  O    0.002391   0.000398  -0.000016   0.006199   0.006965  -0.002209
    41  H   -0.003863  -0.000300   0.000003  -0.007129  -0.000023  -0.002737
    42  H   -0.001815   0.000001  -0.000000  -0.000580   0.000802   0.000196
    43  O    0.019883   0.002338  -0.000066   0.008915  -0.030501  -0.029947
    44  H   -0.005377   0.000054  -0.000001   0.000713   0.008257   0.009435
    45  H   -0.066533  -0.002372   0.000204  -0.000442   0.063449   0.025046
              25         26         27         28         29         30
     1  C    0.005629   0.011672  -0.047671   0.007144   0.000758  -0.006528
     2  H   -0.001093  -0.001325  -0.001117  -0.000252   0.000011   0.000367
     3  H   -0.000100   0.000759   0.000657  -0.000040  -0.000002   0.000024
     4  H   -0.000155   0.004554   0.003214  -0.002538   0.000102   0.000943
     5  C    0.006454   0.003163   0.008495  -0.003467   0.000094   0.003361
     6  H    0.000018  -0.000213   0.000096   0.000003   0.000000  -0.000007
     7  H    0.000022   0.000420   0.002477   0.000140  -0.000005   0.000040
     8  H   -0.000008  -0.000150  -0.001356   0.000014  -0.000000  -0.000016
     9  C   -0.000556  -0.004257   0.002362  -0.000049   0.000002  -0.000071
    10  H    0.000004   0.000112   0.000013  -0.000000  -0.000000   0.000001
    11  H   -0.000010  -0.000014   0.000015   0.000000  -0.000000   0.000000
    12  H   -0.000009   0.000017   0.000003   0.000000  -0.000000  -0.000000
    13  C   -0.034808  -0.017849  -0.018141  -0.000725  -0.000078   0.010286
    14  H   -0.000111   0.000192   0.000071   0.000001   0.000000   0.000019
    15  H   -0.002658   0.002359  -0.004799  -0.000193   0.000027  -0.003837
    16  C    0.021010  -0.015636   0.028274   0.000926  -0.000366  -0.014745
    17  H    0.000769  -0.000231  -0.000077  -0.000007   0.000000   0.000074
    18  H   -0.001439   0.000210  -0.000025   0.000000   0.000000  -0.000007
    19  C   -0.171483  -0.012186  -0.013685  -0.001901   0.000499   0.025493
    20  H    0.008006  -0.000012  -0.000034   0.000002  -0.000000  -0.000000
    21  H   -0.009886   0.000046   0.000027   0.000002   0.000000  -0.000078
    22  N    0.013940   0.014137   0.037508  -0.000140  -0.000113   0.001689
    23  C    0.445945  -0.016171   0.031932  -0.001902  -0.001929  -0.009109
    24  O   -0.085021   0.020340  -0.017206   0.002463   0.000498  -0.009066
    25  O    8.316063   0.048121   0.012297   0.005805  -0.000269  -0.016327
    26  P    0.048121  12.489424   0.430633   0.208529   0.012923   0.277242
    27  O    0.012297   0.430633   8.310707  -0.022288  -0.008041  -0.006578
    28  O    0.005805   0.208529  -0.022288   7.996081   0.237219   0.000275
    29  H   -0.000269   0.012923  -0.008041   0.237219   0.461849  -0.008294
    30  O   -0.016327   0.277242  -0.006578   0.000275  -0.008294   8.177777
    31  H    0.034557  -0.002555  -0.012440  -0.002683   0.002050   0.206163
    32  O   -0.018077   0.272823  -0.024085   0.020614  -0.008008   0.017115
    33  H   -0.001609   0.019569  -0.005393  -0.003038   0.001310  -0.009436
    34  O    0.058901  -0.029972   0.011699   0.000181  -0.000096   0.031531
    35  H   -0.003011   0.005128  -0.009653  -0.000369   0.000039  -0.013645
    36  H   -0.012026   0.018096   0.021565   0.000882   0.000087  -0.008374
    37  O    0.003868   0.000698  -0.000130  -0.000012  -0.000000   0.000262
    38  H    0.000022  -0.000166   0.000187  -0.000001   0.000000  -0.000008
    39  H   -0.007290   0.002166  -0.003795   0.000031   0.000001  -0.000508
    40  O    0.000089   0.000324  -0.000005  -0.000002  -0.000000   0.000003
    41  H   -0.000191  -0.000199   0.000019  -0.000002  -0.000000   0.000004
    42  H   -0.000002  -0.000028   0.000001  -0.000000  -0.000000   0.000000
    43  O    0.002220   0.002906  -0.000287   0.000067   0.000004  -0.000307
    44  H    0.000121  -0.000388  -0.000001   0.000002  -0.000000   0.000020
    45  H   -0.000137  -0.001172   0.000165  -0.000114  -0.000001   0.000620
              31         32         33         34         35         36
     1  C   -0.000632   0.023753   0.019837  -0.005675   0.001834   0.002006
     2  H    0.000196  -0.009549   0.001808   0.000055   0.000012   0.000003
     3  H    0.000011   0.000769  -0.000638   0.000037  -0.000005  -0.000009
     4  H    0.000120  -0.011480   0.000571   0.000309   0.000040  -0.000181
     5  C    0.000228  -0.011255  -0.003594   0.038297  -0.008950  -0.010292
     6  H   -0.000003  -0.000001   0.000003  -0.000970   0.000091   0.000194
     7  H    0.000005  -0.000163   0.000065  -0.001748   0.000051   0.000113
     8  H   -0.000001   0.000031   0.000034  -0.000399   0.000037   0.000113
     9  C    0.000060   0.002396   0.000034  -0.004423   0.000064   0.000148
    10  H   -0.000000   0.000004  -0.000009   0.000022  -0.000003  -0.000002
    11  H    0.000000   0.000016  -0.000017   0.000028  -0.000006  -0.000002
    12  H    0.000000   0.000002  -0.000002   0.000040  -0.000009  -0.000004
    13  C   -0.007963   0.019763  -0.036475  -0.065655   0.035273   0.022374
    14  H   -0.000031  -0.000039  -0.000026  -0.002936  -0.000105  -0.000306
    15  H    0.003050  -0.001548   0.001609   0.012054   0.004418   0.000093
    16  C    0.001995  -0.014213   0.037152   0.006613  -0.026718   0.006202
    17  H   -0.000044  -0.000363   0.000358  -0.000165  -0.000013   0.000000
    18  H    0.000011   0.000015  -0.000048  -0.000176   0.000074   0.000005
    19  C    0.017845   0.004698  -0.017390   0.010630   0.023312  -0.000472
    20  H   -0.000119   0.000034  -0.000120   0.000047  -0.000078  -0.000001
    21  H    0.000005  -0.000006  -0.000003  -0.000280  -0.001059  -0.000017
    22  N   -0.000708  -0.006993  -0.000807   0.017403  -0.011113  -0.005489
    23  C   -0.020568  -0.009918   0.050468  -0.062681   0.026314  -0.000817
    24  O    0.027563   0.007262   0.009149   0.002799  -0.000301  -0.000411
    25  O    0.034557  -0.018077  -0.001609   0.058901  -0.003011  -0.012026
    26  P   -0.002555   0.272823   0.019569  -0.029972   0.005128   0.018096
    27  O   -0.012440  -0.024085  -0.005393   0.011699  -0.009653   0.021565
    28  O   -0.002683   0.020614  -0.003038   0.000181  -0.000369   0.000882
    29  H    0.002050  -0.008008   0.001310  -0.000096   0.000039   0.000087
    30  O    0.206163   0.017115  -0.009436   0.031531  -0.013645  -0.008374
    31  H    0.311453  -0.011729   0.003986  -0.016877   0.011571   0.001353
    32  O   -0.011729   8.148906   0.221918   0.001462  -0.000558  -0.000074
    33  H    0.003986   0.221918   0.316604  -0.002677   0.000984   0.000608
    34  O   -0.016877   0.001462  -0.002677   8.124572   0.211340   0.255632
    35  H    0.011571  -0.000558   0.000984   0.211340   0.383257   0.020067
    36  H    0.001353  -0.000074   0.000608   0.255632   0.020067   0.387818
    37  O   -0.000209   0.000067  -0.000011   0.003695  -0.012386  -0.011195
    38  H    0.000002   0.000003   0.000001   0.006767   0.000107   0.000160
    39  H    0.000466  -0.000059   0.000040  -0.053995   0.027979   0.022439
    40  O   -0.000001  -0.000109  -0.000250  -0.000009   0.000001   0.000000
    41  H    0.000001  -0.000239   0.000455   0.000010  -0.000002  -0.000001
    42  H   -0.000000   0.000041  -0.000038   0.000000  -0.000000  -0.000000
    43  O    0.000281   0.001677  -0.005688  -0.000169   0.000109   0.000016
    44  H   -0.000013   0.000368  -0.001109  -0.000000  -0.000000   0.000000
    45  H   -0.000345  -0.003376   0.007666   0.000199  -0.000185  -0.000024
              37         38         39         40         41         42
     1  C   -0.002055   0.000249   0.003156  -0.003674   0.020788  -0.001794
     2  H    0.000108   0.000001  -0.000034   0.016158  -0.008016  -0.001354
     3  H    0.000015  -0.000000  -0.000004  -0.014018   0.000979   0.000436
     4  H   -0.000071  -0.000005   0.000001   0.002288  -0.000242  -0.000031
     5  C   -0.019284   0.000749  -0.022313   0.011152  -0.002602   0.000129
     6  H   -0.019676   0.000334   0.002674  -0.000046   0.000002  -0.000000
     7  H   -0.002899  -0.000069  -0.000100  -0.000031   0.000003  -0.000000
     8  H    0.001388   0.000015   0.000079  -0.000123  -0.000010  -0.000004
     9  C   -0.014582  -0.000097   0.002156  -0.049775   0.002885   0.006704
    10  H    0.000047  -0.000003  -0.000018   0.001900   0.000057  -0.000215
    11  H    0.000067  -0.000001  -0.000014  -0.013844   0.000338   0.000910
    12  H   -0.000059  -0.000009  -0.000029   0.000995   0.000020  -0.000053
    13  C    0.005964   0.001857   0.056469   0.014464  -0.007318  -0.000442
    14  H   -0.027996   0.001515  -0.001057  -0.000075  -0.000005   0.000002
    15  H    0.000716   0.000858  -0.003067  -0.000133   0.000019  -0.000001
    16  C    0.004593   0.002754  -0.005195  -0.048466   0.017574   0.001310
    17  H   -0.000489   0.000003   0.000046   0.012613  -0.001005  -0.001985
    18  H    0.000204  -0.000020   0.000078   0.001542  -0.000443   0.000026
    19  C   -0.005401  -0.000606   0.005396   0.002391  -0.003863  -0.001815
    20  H    0.000006  -0.000000  -0.000003   0.000398  -0.000300   0.000001
    21  H   -0.000124   0.000014  -0.000110  -0.000016   0.000003  -0.000000
    22  N    0.012271  -0.001091  -0.012794   0.006199  -0.007129  -0.000580
    23  C   -0.009814   0.000271   0.003994   0.006965  -0.000023   0.000802
[...]
 Charge=             -0.0000 electrons
 Dipole moment (field-independent basis, Debye):
    X=             -0.2421    Y=              1.0775    Z=             -1.7988  Tot=              2.1108
 Quadrupole moment (field-independent basis, Debye-Ang):
   XX=            -12.5647   YY=             25.9292   ZZ=            -40.1073
   XY=              7.4559   XZ=            -20.1031   YZ=            -14.6046
 Traceless Quadrupole moment (field-independent basis, Debye-Ang):
   XX=             -3.6505   YY=             34.8435   ZZ=            -31.1930
   XY=              7.4559   XZ=            -20.1031   YZ=            -14.6046
 Octapole moment (field-independent basis, Debye-Ang**2):
  XXX=           -305.2199  YYY=            452.6991  ZZZ=           -658.3984  XYY=            213.6493
  XXY=            -69.0809  XXZ=           -296.0845  XZZ=           -419.7502  YZZ=           -459.9786
  YYZ=            -96.9031  XYZ=           -174.9562
 Hexadecapole moment (field-independent basis, Debye-Ang**3):
 XXXX=          -5645.7029 YYYY=           6677.6904 ZZZZ=          -9477.3658 XXXY=          -3244.7610
 XXXZ=          -4659.2197 YYYX=           3896.9630 YYYZ=           -445.1532 ZZZX=          -6751.3128
 ZZZY=          -8264.9886 XXYY=             97.7848 XXZZ=          -5094.1300 YYZZ=          -5409.3787
 XXYZ=          -3095.7405 YYXZ=          -1365.6658 ZZXY=          -4854.4988
 N-N= 9.109028366112D+00 E-N=-1.990707187143D+02  KE= 7.619792776541D+01
 No NMR shielding tensors so no spin-rotation constants.
 Leave Link  601 at Fri May 20 15:13:22 2022, MaxMem= 13421772800 cpu:               1.6 elap:               0.1
 (Enter /data0/home/wuhanyu/software/g16/l122.exe)
 CPIOFr:  IOpCl= 0 IRwI=-1 IRwCP=  731 ICalc= 11 LCPTot=      705130 Len1MO=     1847911 IndFrg=    22880062
 Counterpoise: doing calculation for fragment   6 using the basis set of the fragment.
 Leave Link  122 at Fri May 20 15:13:22 2022, MaxMem= 13421772800 cpu:               0.3 elap:               0.0
 (Enter /data0/home/wuhanyu/software/g16/l301.exe)
 Basis read from rwf:  (5D, 7F)
 No pseudopotential information found on rwf file.
    39 basis functions,    58 primitive gaussians,    41 cartesian basis functions
     5 alpha electrons        5 beta electrons
       nuclear repulsion energy         9.0144118156 Hartrees.
 IExCor= 4336 DFT=T Ex+Corr=M062X ExCW=0 ScaHFX=  0.540000
 ScaDFX=  1.000000  1.000000  1.000000  1.000000 ScalE2=  1.000000  1.000000
 IRadAn=      5 IRanWt=     -1 IRanGd=            0 ICorTp=0 IEmpDi=131
 NAtoms=   45 NActive=    3 NUniq=    3 SFac= 1.00D+00 NAtFMM=   60 NAOKFM=F Big=F
 Integral buffers will be    131072 words long.
 Raffenetti 2 integral format.
 Two-electron integral symmetry is turned off.
 R6Disp:  Grimme-D3 Dispersion energy=       -0.0000000083 Hartrees.
 Nuclear repulsion after empirical dispersion term =        9.0144118072 Hartrees.
 No density basis found on file   718.
 Leave Link  301 at Fri May 20 15:13:22 2022, MaxMem= 13421772800 cpu:               1.2 elap:               0.1
 (Enter /data0/home/wuhanyu/software/g16/l302.exe)
 NPDir=0 NMtPBC=     1 NCelOv=     1 NCel=       1 NClECP=     1 NCelD=      1
         NCelK=      1 NCelE2=     1 NClLst=     1 CellRange=     0.0.
 One-electron integrals computed using PRISM.
 NBasis=    39 RedAO= T EigKep=  3.15D-03  NBF=    39
 NBsUse=    39 1.00D-06 EigRej= -1.00D+00 NBFU=    39
 Precomputing XC quadrature grid using
 IXCGrd= 4 IRadAn=           5 IRanWt=          -1 IRanGd=           0 AccXCQ= 0.00D+00.
 Generated NRdTot=       0 NPtTot=           0 NUsed=           0 NTot=          32
 NSgBfM=    41    41    41    41    41 MxSgAt=     3 MxSgA2=     3.
 Leave Link  302 at Fri May 20 15:13:22 2022, MaxMem= 13421772800 cpu:               2.1 elap:               0.1
 (Enter /data0/home/wuhanyu/software/g16/l303.exe)
 DipDrv:  MaxL=1.
 Leave Link  303 at Fri May 20 15:13:22 2022, MaxMem= 13421772800 cpu:               0.4 elap:               0.0
 (Enter /data0/home/wuhanyu/software/g16/l401.exe)
 ExpMin= 8.45D-02 ExpMax= 8.59D+03 ExpMxC= 1.30D+03 IAcc=3 IRadAn=         5 AccDes= 0.00D+00
 Harris functional with IExCor= 1009 and IRadAn=       5 diagonalized for initial guess.
 HarFok:  IExCor= 1009 AccDes= 0.00D+00 IRadAn=         5 IDoV= 1 UseB2=F ITyADJ=14
 ICtDFT=  3500011 ScaDFX=  1.000000  1.000000  1.000000  1.000000
 FoFCou: FMM=F IPFlag=           0 FMFlag=      100000 FMFlg1=           0
         NFxFlg=           0 DoJE=T BraDBF=F KetDBF=T FulRan=T
         wScrn=  0.000000 ICntrl=       500 IOpCl=  0 I1Cent=   200000004 NGrid=           0
         NMat0=    1 NMatS0=      1 NMatT0=    0 NMatD0=    1 NMtDS0=    0 NMtDT0=    0
 Symmetry not used in FoFCou.
 Harris En= -76.4146415829910    
 JPrj=0 DoOrth=F DoCkMO=F.
 Leave Link  401 at Fri May 20 15:13:22 2022, MaxMem= 13421772800 cpu:               2.6 elap:               0.1
 (Enter /data0/home/wuhanyu/software/g16/l502.exe)
 Keep R1 ints in memory in canonical form, NReq=19322320.
 FoFCou: FMM=F IPFlag=           0 FMFlag=           0 FMFlg1=           0
         NFxFlg=           0 DoJE=F BraDBF=F KetDBF=F FulRan=T
         wScrn=  0.000000 ICntrl=       600 IOpCl=  0 I1Cent=           0 NGrid=           0
         NMat0=    1 NMatS0=    780 NMatT0=    0 NMatD0=    1 NMtDS0=    0 NMtDT0=    0
 Symmetry not used in FoFCou.
 Two-electron integral symmetry not used.
 Closed shell SCF:
 Using DIIS extrapolation, IDIIS=  1040.
 NGot= 13421772800 LenX= 13421462174 LenY= 13421460052
 Requested convergence on RMS density matrix=1.00D-08 within 128 cycles.
 Requested convergence on MAX density matrix=1.00D-06.
 Requested convergence on             energy=1.00D-06.
 No special actions if energy rises.
 Integral accuracy reduced to 1.0D-05 until final iterations.

 Cycle   1  Pass 0  IDiag  1:
 E= -76.3453087583707    
 DIIS: error= 6.93D-02 at cycle   1 NSaved=   1.
 NSaved= 1 IEnMin= 1 EnMin= -76.3453087583707     IErMin= 1 ErrMin= 6.93D-02
 ErrMax= 6.93D-02  0.00D+00 EMaxC= 1.00D-01 BMatC= 1.19D-01 BMatP= 1.19D-01
 IDIUse=3 WtCom= 3.07D-01 WtEn= 6.93D-01
 Coeff-Com:  0.100D+01
 Coeff-En:   0.100D+01
 Coeff:      0.100D+01
 Gap=     0.322 Goal=   None    Shift=    0.000
 GapD=    0.322 DampG=1.000 DampE=0.500 DampFc=0.5000 IDamp=-1.
 Damping current iteration by 5.00D-01
 RMSDP=7.93D-03 MaxDP=9.99D-02              OVMax= 1.67D-01

 Cycle   2  Pass 0  IDiag  1:
 E= -76.3761669581515     Delta-E=       -0.030858199781 Rises=F Damp=T
 DIIS: error= 1.09D-02 at cycle   2 NSaved=   2.
 NSaved= 2 IEnMin= 2 EnMin= -76.3761669581515     IErMin= 2 ErrMin= 1.09D-02
 ErrMax= 1.09D-02  0.00D+00 EMaxC= 1.00D-01 BMatC= 4.99D-03 BMatP= 1.19D-01
 IDIUse=3 WtCom= 8.91D-01 WtEn= 1.09D-01
 Coeff-Com:  0.874D-01 0.913D+00
 Coeff-En:   0.196D+00 0.804D+00
 Coeff:      0.991D-01 0.901D+00
 Gap=     0.454 Goal=   None    Shift=    0.000
 RMSDP=9.67D-04 MaxDP=1.45D-02 DE=-3.09D-02 OVMax= 1.01D-01

 Cycle   3  Pass 0  IDiag  1:
 E= -76.4201126672079     Delta-E=       -0.043945709056 Rises=F Damp=F
 DIIS: error= 2.22D-03 at cycle   3 NSaved=   3.
 NSaved= 3 IEnMin= 3 EnMin= -76.4201126672079     IErMin= 3 ErrMin= 2.22D-03
 ErrMax= 2.22D-03  0.00D+00 EMaxC= 1.00D-01 BMatC= 9.62D-05 BMatP= 4.99D-03
 IDIUse=3 WtCom= 9.78D-01 WtEn= 2.22D-02
 Coeff-Com: -0.201D-01 0.417D-01 0.978D+00
 Coeff-En:   0.000D+00 0.000D+00 0.100D+01
 Coeff:     -0.196D-01 0.408D-01 0.979D+00
 Gap=     0.458 Goal=   None    Shift=    0.000
 RMSDP=1.18D-04 MaxDP=1.13D-03 DE=-4.39D-02 OVMax= 3.42D-03

 Cycle   4  Pass 0  IDiag  1:
 E= -76.4201948174754     Delta-E=       -0.000082150268 Rises=F Damp=F
 DIIS: error= 4.32D-04 at cycle   4 NSaved=   4.
 NSaved= 4 IEnMin= 4 EnMin= -76.4201948174754     IErMin= 4 ErrMin= 4.32D-04
 ErrMax= 4.32D-04  0.00D+00 EMaxC= 1.00D-01 BMatC= 3.58D-06 BMatP= 9.62D-05
 IDIUse=3 WtCom= 9.96D-01 WtEn= 4.32D-03
 Coeff-Com: -0.211D-02-0.217D-02 0.167D+00 0.837D+00
 Coeff-En:   0.000D+00 0.000D+00 0.000D+00 0.100D+01
 Coeff:     -0.210D-02-0.216D-02 0.167D+00 0.838D+00
 Gap=     0.459 Goal=   None    Shift=    0.000
 RMSDP=2.29D-05 MaxDP=3.62D-04 DE=-8.22D-05 OVMax= 5.59D-04

 Cycle   5  Pass 0  IDiag  1:
 E= -76.4201970419961     Delta-E=       -0.000002224521 Rises=F Damp=F
 DIIS: error= 9.49D-05 at cycle   5 NSaved=   5.
 NSaved= 5 IEnMin= 5 EnMin= -76.4201970419961     IErMin= 5 ErrMin= 9.49D-05
 ErrMax= 9.49D-05  0.00D+00 EMaxC= 1.00D-01 BMatC= 9.24D-08 BMatP= 3.58D-06
 IDIUse=1 WtCom= 1.00D+00 WtEn= 0.00D+00
 Coeff-Com:  0.123D-02-0.188D-02-0.378D-01-0.734D-01 0.111D+01
 Coeff:      0.123D-02-0.188D-02-0.378D-01-0.734D-01 0.111D+01
 Gap=     0.459 Goal=   None    Shift=    0.000
 RMSDP=9.47D-06 MaxDP=1.06D-04 DE=-2.22D-06 OVMax= 2.18D-04

 Initial convergence to 1.0D-05 achieved.  Increase integral accuracy.
 Cycle   6  Pass 1  IDiag  1:
 E= -76.4202092770028     Delta-E=       -0.000012235007 Rises=F Damp=F
 DIIS: error= 1.62D-05 at cycle   1 NSaved=   1.
 NSaved= 1 IEnMin= 1 EnMin= -76.4202092770028     IErMin= 1 ErrMin= 1.62D-05
 ErrMax= 1.62D-05  0.00D+00 EMaxC= 1.00D-01 BMatC= 1.72D-08 BMatP= 1.72D-08
 IDIUse=1 WtCom= 1.00D+00 WtEn= 0.00D+00
 Coeff-Com:  0.100D+01
 Coeff:      0.100D+01
 Gap=     0.459 Goal=   None    Shift=    0.000
 RMSDP=9.47D-06 MaxDP=1.06D-04 DE=-1.22D-05 OVMax= 3.29D-05

 Cycle   7  Pass 1  IDiag  1:
 E= -76.4202092893780     Delta-E=       -0.000000012375 Rises=F Damp=F
 DIIS: error= 4.93D-06 at cycle   2 NSaved=   2.
 NSaved= 2 IEnMin= 2 EnMin= -76.4202092893780     IErMin= 2 ErrMin= 4.93D-06
 ErrMax= 4.93D-06  0.00D+00 EMaxC= 1.00D-01 BMatC= 3.53D-10 BMatP= 1.72D-08
 IDIUse=1 WtCom= 1.00D+00 WtEn= 0.00D+00
 Coeff-Com: -0.419D-01 0.104D+01
 Coeff:     -0.419D-01 0.104D+01
 Gap=     0.459 Goal=   None    Shift=    0.000
 RMSDP=4.22D-07 MaxDP=4.84D-06 DE=-1.24D-08 OVMax= 1.14D-05

 Cycle   8  Pass 1  IDiag  1:
 E= -76.4202092895110     Delta-E=       -0.000000000133 Rises=F Damp=F
 DIIS: error= 3.34D-06 at cycle   3 NSaved=   3.
 NSaved= 3 IEnMin= 3 EnMin= -76.4202092895110     IErMin= 3 ErrMin= 3.34D-06
 ErrMax= 3.34D-06  0.00D+00 EMaxC= 1.00D-01 BMatC= 2.97D-10 BMatP= 3.53D-10
 IDIUse=1 WtCom= 1.00D+00 WtEn= 0.00D+00
 Coeff-Com: -0.442D-01 0.516D+00 0.529D+00
 Coeff:     -0.442D-01 0.516D+00 0.529D+00
 Gap=     0.459 Goal=   None    Shift=    0.000
 RMSDP=2.10D-07 MaxDP=3.04D-06 DE=-1.33D-10 OVMax= 4.69D-06

 Cycle   9  Pass 1  IDiag  1:
 E= -76.4202092897014     Delta-E=       -0.000000000190 Rises=F Damp=F
 DIIS: error= 7.10D-07 at cycle   4 NSaved=   4.
 NSaved= 4 IEnMin= 4 EnMin= -76.4202092897014     IErMin= 4 ErrMin= 7.10D-07
 ErrMax= 7.10D-07  0.00D+00 EMaxC= 1.00D-01 BMatC= 5.30D-12 BMatP= 2.97D-10
 IDIUse=1 WtCom= 1.00D+00 WtEn= 0.00D+00
 Coeff-Com:  0.156D-02-0.520D-01 0.725D-01 0.978D+00
 Coeff:      0.156D-02-0.520D-01 0.725D-01 0.978D+00
 Gap=     0.459 Goal=   None    Shift=    0.000
 RMSDP=4.85D-08 MaxDP=3.99D-07 DE=-1.90D-10 OVMax= 1.29D-06

 Cycle  10  Pass 1  IDiag  1:
 E= -76.4202092897067     Delta-E=       -0.000000000005 Rises=F Damp=F
 DIIS: error= 4.53D-08 at cycle   5 NSaved=   5.
 NSaved= 5 IEnMin= 5 EnMin= -76.4202092897067     IErMin= 5 ErrMin= 4.53D-08
 ErrMax= 4.53D-08  0.00D+00 EMaxC= 1.00D-01 BMatC= 9.23D-14 BMatP= 5.30D-12
 IDIUse=1 WtCom= 1.00D+00 WtEn= 0.00D+00
 Coeff-Com:  0.129D-02-0.171D-01-0.218D-01 0.236D-01 0.101D+01
 Coeff:      0.129D-02-0.171D-01-0.218D-01 0.236D-01 0.101D+01
 Gap=     0.459 Goal=   None    Shift=    0.000
 RMSDP=1.34D-08 MaxDP=1.16D-07 DE=-5.26D-12 OVMax= 2.39D-07

 Cycle  11  Pass 1  IDiag  1:
 E= -76.4202092897068     Delta-E=       -0.000000000000 Rises=F Damp=F
 DIIS: error= 9.14D-09 at cycle   6 NSaved=   6.
 NSaved= 6 IEnMin= 6 EnMin= -76.4202092897068     IErMin= 6 ErrMin= 9.14D-09
 ErrMax= 9.14D-09  0.00D+00 EMaxC= 1.00D-01 BMatC= 4.22D-15 BMatP= 9.23D-14
 IDIUse=1 WtCom= 1.00D+00 WtEn= 0.00D+00
 Coeff-Com:  0.224D-04 0.132D-02-0.656D-02-0.486D-01 0.796D-01 0.974D+00
 Coeff:      0.224D-04 0.132D-02-0.656D-02-0.486D-01 0.796D-01 0.974D+00
 Gap=     0.459 Goal=   None    Shift=    0.000
 RMSDP=2.90D-09 MaxDP=2.58D-08 DE=-1.14D-13 OVMax= 5.36D-08

 SCF Done:  E(RM062X) =  -76.4202092897     A.U. after   11 cycles
            NFock= 11  Conv=0.29D-08     -V/T= 2.0034
 KE= 7.616378452686D+01 PE=-1.988660273862D+02 EE= 3.726762176240D+01
 Leave Link  502 at Fri May 20 15:13:22 2022, MaxMem= 13421772800 cpu:               8.0 elap:               0.4
 (Enter /data0/home/wuhanyu/software/g16/l601.exe)
 Copying SCF densities to generalized density rwf, IOpCl= 0 IROHF=0.

 **********************************************************************

            Population analysis using the SCF density.

 **********************************************************************

 Alpha  occ. eigenvalues --  -19.62756  -1.12959  -0.60284  -0.47409  -0.39907
 Alpha virt. eigenvalues --    0.06002   0.13162   0.17433   0.17958   0.18939
 Alpha virt. eigenvalues --    0.23377   0.49349   0.53798   0.97959   1.00656
 Alpha virt. eigenvalues --    1.05990   1.18341   1.19701   1.32206   1.34384
 Alpha virt. eigenvalues --    1.69010   1.73264   1.75497   2.05418   2.10063
 Alpha virt. eigenvalues --    2.35214   2.40291   2.54168   2.86137   3.00824
 Alpha virt. eigenvalues --    5.05609   5.46022   5.89050   6.78332   6.80247
 Alpha virt. eigenvalues --    6.87289   6.91228   7.10261  49.95020
          Condensed to atoms (all electrons):
              43         44         45
    43  O    7.925533   0.321179   0.312229
    44  H    0.321179   0.426901  -0.023579
    45  H    0.312229  -0.023579   0.427909
 Mulliken charges:
               1
     1  C    0.000000
     2  H    0.000000
     3  H    0.000000
     4  H    0.000000
     5  C    0.000000
     6  H    0.000000
     7  H    0.000000
     8  H    0.000000
     9  C    0.000000
    10  H    0.000000
    11  H    0.000000
    12  H    0.000000
    13  C    0.000000
    14  H    0.000000
    15  H    0.000000
    16  C    0.000000
    17  H    0.000000
    18  H    0.000000
    19  C    0.000000
    20  H    0.000000
    21  H    0.000000
    22  N    0.000000
    23  C    0.000000
    24  O    0.000000
    25  O    0.000000
    26  P    0.000000
    27  O    0.000000
    28  O    0.000000
    29  H    0.000000
    30  O    0.000000
    31  H    0.000000
    32  O    0.000000
    33  H    0.000000
    34  O    0.000000
    35  H    0.000000
    36  H    0.000000
    37  O    0.000000
    38  H    0.000000
    39  H    0.000000
    40  O    0.000000
    41  H    0.000000
    42  H    0.000000
    43  O   -0.558941
    44  H    0.275499
    45  H    0.283442
 Sum of Mulliken charges =   0.00000
 Mulliken charges with hydrogens summed into heavy atoms:
               1
     1  C    0.000000
     5  C    0.000000
     9  C    0.000000
    13  C    0.000000
    16  C    0.000000
    19  C    0.000000
    22  N    0.000000
    23  C    0.000000
    24  O    0.000000
    25  O    0.000000
    26  P    0.000000
    27  O    0.000000
    28  O    0.000000
    30  O    0.000000
    32  O    0.000000
    34  O    0.000000
    37  O    0.000000
    40  O    0.000000
    43  O    0.000000
         Mulliken charges condensed to fragments:
      1      0.000000
      2      0.000000
      3      0.000000
      4      0.000000
      5      0.000000
      6      0.000000
 Electronic spatial extent (au):  <R**2>=          11401.3557
 Charge=              0.0000 electrons
 Dipole moment (field-independent basis, Debye):
    X=              1.1008    Y=             -1.3542    Z=             -1.2185  Tot=              2.1285
 Quadrupole moment (field-independent basis, Debye-Ang):
   XX=             14.5251   YY=            -40.7698   ZZ=            -23.7418
   XY=              1.9288   XZ=             -5.1159   YZ=            -26.3732
 Traceless Quadrupole moment (field-independent basis, Debye-Ang):
   XX=             31.1873   YY=            -24.1076   ZZ=             -7.0797
   XY=              1.9288   XZ=             -5.1159   YZ=            -26.3732
 Octapole moment (field-independent basis, Debye-Ang**2):
  XXX=            112.4010  YYY=           -908.4402  ZZZ=           -321.6585  XYY=           -189.5074
  XXY=             74.7703  XXZ=            -33.3774  XZZ=           -190.0580  YZZ=           -391.0399
  YYZ=           -519.4897  XYZ=           -163.7740
 Hexadecapole moment (field-independent basis, Debye-Ang**3):
 XXXX=            172.6044 YYYY=         -17807.9019 ZZZZ=          -3705.7195 XXXY=            401.4342
 XXXZ=           -636.3200 YYYX=          -5998.4322 YYYZ=          -9601.4986 ZZZX=          -2883.1213
 ZZZY=          -4828.6497 XXYY=          -1030.5246 XXZZ=          -1803.7392 YYZZ=          -6441.0217
 XXYZ=          -1339.0728 YYXZ=          -3776.6560 ZZXY=          -3238.1525
 N-N= 9.014411807208D+00 E-N=-1.988660272306D+02  KE= 7.616378452686D+01
 No NMR shielding tensors so no spin-rotation constants.
 Leave Link  601 at Fri May 20 15:13:23 2022, MaxMem= 13421772800 cpu:               1.6 elap:               0.1
 (Enter /data0/home/wuhanyu/software/g16/l122.exe)
 CPIOFr:  IOpCl= 0 IRwI=-1 IRwCP=  731 ICalc= 12 LCPTot=      705130 Len1MO=     1847911 IndFrg=    24727973
 Restoring MOs from calculation   1 to rwf.
 CPIOFr:  IOpCl= 0 IRwI=-2 IRwCP=  731 ICalc=  0 LCPTot=      705130 Len1MO=     1847911 IndFrg=     2553041
 Counterpoise corrected energy =   -1430.854692510629
                   BSSE energy =       0.009526453429
              sum of fragments =   -1430.669012871437
           complexation energy =    -122.49 kcal/mole (raw)
           complexation energy =    -116.52 kcal/mole (corrected)
 Leave Link  122 at Fri May 20 15:13:23 2022, MaxMem= 13421772800 cpu:               0.6 elap:               0.0
 (Enter /data0/home/wuhanyu/software/g16/l9999.exe)
 1\1\GINC-LOCALHOST\SP\RM062X\6-311+G(2d,p)\C7H26N1O10P1\WUHANYU\20-May
 -2022\0\\#p M062X/6-311+G(2d,p) nosymm em=GD3 counterpoise=6\\Title Ca
 rd Required\\0,1\C,0,10.918377,11.570162,10.319769\H,0,10.571976,11.78
 2602,9.286075\H,0,11.381685,12.494884,10.698216\H,0,11.710315,10.80011
 2,10.223603\C,0,10.363414,10.131106,12.213085\H,0,9.607868,9.84637,12.
 966241\H,0,10.683162,9.18732,11.714905\H,0,11.238396,10.55567,12.72564
 4\C,0,9.193,12.258253,11.935173\H,0,9.94525,12.784053,12.545249\H,0,8.
 78232,13.002994,11.223819\H,0,8.373106,11.927571,12.59236\C,0,8.723614
 ,10.375906,10.410262\H,0,7.972577,9.958372,11.125168\H,0,9.206166,9.48
 6785,9.925582\C,0,8.019023,11.257643,9.372715\H,0,8.642005,12.133954,9
 .08436\H,0,7.09282,11.691291,9.795182\C,0,7.686354,10.450946,8.116954\
 H,0,7.223172,11.098492,7.348171\H,0,6.955237,9.649802,8.33177\N,0,9.79
 9967,11.096932,11.20396\C,0,8.971061,9.849487,7.544492\O,0,9.886542,10
 .644345,7.225976\O,0,9.055481,8.611523,7.48145\P,0,12.331504,8.366173,
 8.377732\O,0,11.804191,8.153048,9.731525\O,0,13.835438,7.862094,8.2741
 44\H,0,14.152457,8.050226,7.307068\O,0,11.581978,7.622375,7.199756\H,0
 ,10.567826,7.969103,7.190807\O,0,12.422562,9.900322,7.961929\H,0,11.48
 941,10.197611,7.568859\O,0,8.971676,6.986636,9.783701\H,0,8.816789,7.4
 55358,8.938644\H,0,9.936841,6.96581,9.842465\O,0,8.193887,8.098726,12.
 120152\H,0,7.668177,7.438887,12.558922\H,0,8.459897,7.677293,11.269446
 \O,0,10.04712,14.27124,9.628559\H,0,9.926767,13.920936,8.719202\H,0,10
 .031131,15.216428,9.524709\O,0,9.661425,13.260403,7.120808\H,0,10.2645
 29,13.484184,6.421278\H,0,9.673518,12.256597,7.140135\\Version=ES64L-G
 16RevA.03\HF=-76.4202093\RMSD=2.900e-09\Dipole=-0.8233355,2.4862366,1.
 3100956\Quadrupole=-69.2454002,52.7625744,16.4828258,34.5275079,3.7032
 396,69.6035206\PG=C01 [X(C7H26N1O10P1)]\\@


 THE ATTENTION SPAN OF A COMPUTER IS AS LONG
 AS ITS EXTENSION CORD.
 Job cpu time:       0 days  8 hours  8 minutes 53.7 seconds.
 Elapsed time:       0 days  0 hours 22 minutes 21.3 seconds.
 File lengths (MBytes):  RWF=    476 Int=      0 D2E=      0 Chk=    215 Scr=      1
 Normal termination of Gaussian 16 at Fri May 20 15:13:23 2022.
