 Entering Gaussian System, Link 0=g16
 Initial command:
 /data0/home/software/g16/l1.exe "/data0/home/software/g16/scratch/Gau-2496367.inp" -scrdir="/data0/home/software/g16/scratch/"
 Default is to use a total of  22 processors:
                               22 via shared-memory
                                1 via Linda
 Entering Link 1 = /data0/home/software/g16/l1.exe PID=   2496368.
  
 Copyright (c) 1988,1990,1992,1993,1995,1998,2003,2009,2016,
            Gaussian, Inc.  All Rights Reserved.
  
 This is part of the Gaussian(R) 16 program.  It is based on
 the Gaussian(R) 09 system (copyright 2009, Gaussian, Inc.),
 the Gaussian(R) 03 system (copyright 2003, Gaussian, Inc.),
 the Gaussian(R) 98 system (copyright 1998, Gaussian, Inc.),
 the Gaussian(R) 94 system (copyright 1995, Gaussian, Inc.),
 the Gaussian 92(TM) system (copyright 1992, Gaussian, Inc.),
 the Gaussian 90(TM) system (copyright 1990, Gaussian, Inc.),
 the Gaussian 88(TM) system (copyright 1988, Gaussian, Inc.),
 the Gaussian 86(TM) system (copyright 1986, Carnegie Mellon
 University), and the Gaussian 82(TM) system (copyright 1983,
 Carnegie Mellon University). Gaussian is a federally registered
 trademark of Gaussian, Inc.
  
 This software contains proprietary and confidential information,
 including trade secrets, belonging to Gaussian, Inc.
  
 This software is provided under written license and may be
 used, copied, transmitted, or stored only in accord with that
 written license.
  
 The following legend is applicable only to US Government
 contracts under FAR:
  
                    RESTRICTED RIGHTS LEGEND
  
 Use, reproduction and disclosure by the US Government is
 subject to restrictions as set forth in subparagraphs (a)
 and (c) of the Commercial Computer Software - Restricted
 Rights clause in FAR 52.227-19.
  
 Gaussian, Inc.
 340 Quinnipiac St., Bldg. 40, Wallingford CT 06492
  
  
 ---------------------------------------------------------------
 Warning -- This program may not be used in any manner that
 competes with the business of Gaussian, Inc. or will provide
 assistance to any competitor of Gaussian, Inc.  The licensee
 of this program is prohibited from giving any competitor of
 Gaussian, Inc. access to this program.  By using this program,
 the user acknowledges that Gaussian, Inc. is engaged in the
 business of creating and licensing software in the field of
 computational chemistry and represents and warrants to the
 licensee that it is not a competitor of Gaussian, Inc. and that
 it will not use this program in any manner prohibited above.
 ---------------------------------------------------------------
  

 Cite this work as:
 Gaussian 16, Revision A.03,
 M. J. Frisch, G. W. Trucks, H. B. Schlegel, G. E. Scuseria, 
 M. A. Robb, J. R. Cheeseman, G. Scalmani, V. Barone, 
 G. A. Petersson, H. Nakatsuji, X. Li, M. Caricato, A. V. Marenich, 
 J. Bloino, B. G. Janesko, R. Gomperts, B. Mennucci, H. P. Hratchian, 
 J. V. Ortiz, A. F. Izmaylov, J. L. Sonnenberg, D. Williams-Young, 
 F. Ding, F. Lipparini, F. Egidi, J. Goings, B. Peng, A. Petrone, 
 T. Henderson, D. Ranasinghe, V. G. Zakrzewski, J. Gao, N. Rega, 
 G. Zheng, W. Liang, M. Hada, M. Ehara, K. Toyota, R. Fukuda, 
 J. Hasegawa, M. Ishida, T. Nakajima, Y. Honda, O. Kitao, H. Nakai, 
 T. Vreven, K. Throssell, J. A. Montgomery, Jr., J. E. Peralta, 
 F. Ogliaro, M. J. Bearpark, J. J. Heyd, E. N. Brothers, K. N. Kudin, 
 V. N. Staroverov, T. A. Keith, R. Kobayashi, J. Normand, 
 K. Raghavachari, A. P. Rendell, J. C. Burant, S. S. Iyengar, 
 J. Tomasi, M. Cossi, J. M. Millam, M. Klene, C. Adamo, R. Cammi, 
 J. W. Ochterski, R. L. Martin, K. Morokuma, O. Farkas, 
 J. B. Foresman, and D. J. Fox, Gaussian, Inc., Wallingford CT, 2016.
 
 ******************************************
 Gaussian 16:  ES64L-G16RevA.03 25-Dec-2016
                11-Oct-2023 
 ******************************************
 %mem=50GB
 %nprocshared=24
 Will use up to   24 processors via shared memory.
 -----------------------------------------------------------------
 #p opt freq b3lyp/6-311+g(2d,p) scrf=(smd,solvent=water) em=gd3bj
 -----------------------------------------------------------------
 1/18=20,19=15,26=3,38=1/1,3;
 2/9=110,12=2,17=6,18=5,40=1/2;
 3/5=4,6=6,7=112,11=2,25=1,30=1,70=32201,71=1,72=1,74=-5,124=41/1,2,3;
 4//1;
 5/5=2,38=5,53=1/2;
 6/7=2,8=2,9=2,10=2,28=1/1;
 7//1,2,3,16;
 1/18=20,19=15,26=3/3(2);
 2/9=110/2;
 99//99;
 2/9=110/2;
 3/5=4,6=6,7=112,11=2,25=1,30=1,70=32205,71=1,72=1,74=-5,124=41/1,2,3;
 4/5=5,16=3,69=1/1;
 5/5=2,38=5,53=1/2;
 7//1,2,3,16;
 1/18=20,19=15,26=3/3(-5);
 2/9=110/2;
 6/7=2,8=2,9=2,10=2,19=2,28=1/1;
 99/9=1/99;
 Leave Link    1 at Wed Oct 11 15:08:09 2023, MaxMem=  6710886400 cpu:               0.9 elap:               0.0
 (Enter /data0/home/software/g16/l101.exe)
 -------------------
 Title Card Required
 -------------------
 Symbolic Z-matrix:
 Charge =  0 Multiplicity = 1
 C                    -3.12298  -1.25029  -0.74102 
 H                    -3.09368  -1.04004  -1.80765 
 H                    -4.15256  -1.34042  -0.40288 
 H                    -2.57166  -2.16124  -0.51971 
 C                    -1.03938  -0.00923  -0.49597 
 H                    -1.1006    0.13371  -1.57468 
 H                    -0.59808  -0.98286  -0.29965 
 C                    -2.52741  -0.39083   1.46397 
 H                    -2.132     0.46116   2.00859 
 H                    -3.56519  -0.55598   1.74399 
 H                    -1.93505  -1.2803    1.66646 
 C                    -3.24466   1.14705  -0.30681 
 H                    -4.28498   0.98147  -0.03637 
 H                    -2.84076   1.96725   0.27886 
 H                    -3.16058   1.36093  -1.37007 
 C                    -0.21519   1.10188   0.1389 
 H                    -0.13595   0.96956   1.21784 
 H                    -0.68547   2.06989  -0.04007 
 C                     1.1881    1.17975  -0.46075 
 H                     1.68868   2.08599  -0.12016 
 H                     1.17199   1.18283  -1.5518 
 N                    -2.47719  -0.10761  -0.00904 
 S                     2.30578  -0.16325   0.01682 
 O                     2.27347  -0.22321   1.49888 
 O                     1.79573  -1.40647  -0.61036 
 O                     3.6324    0.23508  -0.51209 
 
 ITRead=  0  0  0  0  0  0  0  0  0  0  0  0  0  0  0  0  0  0  0  0
 ITRead=  0  0  0  0  0  0
 MicOpt= -1 -1 -1 -1 -1 -1 -1 -1 -1 -1 -1 -1 -1 -1 -1 -1 -1 -1 -1 -1
 MicOpt= -1 -1 -1 -1 -1 -1
 NAtoms=     26 NQM=       26 NQMF=       0 NMMI=      0 NMMIF=      0
                NMic=       0 NMicF=      0.
                    Isotopes and Nuclear Properties:
 (Nuclear quadrupole moments (NQMom) in fm**2, nuclear magnetic moments (NMagM)
  in nuclear magnetons)

  Atom         1           2           3           4           5           6           7           8           9          10
 IAtWgt=          12           1           1           1          12           1           1          12           1           1
 AtmWgt=  12.0000000   1.0078250   1.0078250   1.0078250  12.0000000   1.0078250   1.0078250  12.0000000   1.0078250   1.0078250
 NucSpn=           0           1           1           1           0           1           1           0           1           1
 AtZEff=  -0.0000000  -0.0000000  -0.0000000  -0.0000000  -0.0000000  -0.0000000  -0.0000000  -0.0000000  -0.0000000  -0.0000000
 NQMom=    0.0000000   0.0000000   0.0000000   0.0000000   0.0000000   0.0000000   0.0000000   0.0000000   0.0000000   0.0000000
 NMagM=    0.0000000   2.7928460   2.7928460   2.7928460   0.0000000   2.7928460   2.7928460   0.0000000   2.7928460   2.7928460
 AtZNuc=   6.0000000   1.0000000   1.0000000   1.0000000   6.0000000   1.0000000   1.0000000   6.0000000   1.0000000   1.0000000

  Atom        11          12          13          14          15          16          17          18          19          20
 IAtWgt=           1          12           1           1           1          12           1           1          12           1
 AtmWgt=   1.0078250  12.0000000   1.0078250   1.0078250   1.0078250  12.0000000   1.0078250   1.0078250  12.0000000   1.0078250
 NucSpn=           1           0           1           1           1           0           1           1           0           1
 AtZEff=  -0.0000000  -0.0000000  -0.0000000  -0.0000000  -0.0000000  -0.0000000  -0.0000000  -0.0000000  -0.0000000  -0.0000000
 NQMom=    0.0000000   0.0000000   0.0000000   0.0000000   0.0000000   0.0000000   0.0000000   0.0000000   0.0000000   0.0000000
 NMagM=    2.7928460   0.0000000   2.7928460   2.7928460   2.7928460   0.0000000   2.7928460   2.7928460   0.0000000   2.7928460
 AtZNuc=   1.0000000   6.0000000   1.0000000   1.0000000   1.0000000   6.0000000   1.0000000   1.0000000   6.0000000   1.0000000

  Atom        21          22          23          24          25          26
 IAtWgt=           1          14          32          16          16          16
 AtmWgt=   1.0078250  14.0030740  31.9720718  15.9949146  15.9949146  15.9949146
 NucSpn=           1           2           0           0           0           0
 AtZEff=  -0.0000000  -0.0000000  -0.0000000  -0.0000000  -0.0000000  -0.0000000
 NQMom=    0.0000000   2.0440000   0.0000000   0.0000000   0.0000000   0.0000000
 NMagM=    2.7928460   0.4037610   0.0000000   0.0000000   0.0000000   0.0000000
 AtZNuc=   1.0000000   7.0000000  16.0000000   8.0000000   8.0000000   8.0000000
 Leave Link  101 at Wed Oct 11 15:08:09 2023, MaxMem=  6710886400 cpu:               7.7 elap:               0.3
 (Enter /data0/home/software/g16/l103.exe)

 GradGradGradGradGradGradGradGradGradGradGradGradGradGradGradGradGradGrad
 Berny optimization.
 Initialization pass.
                           ----------------------------
                           !    Initial Parameters    !
                           ! (Angstroms and Degrees)  !
 --------------------------                            --------------------------
 ! Name  Definition              Value          Derivative Info.                !
 --------------------------------------------------------------------------------
 ! R1    R(1,2)                  1.0875         estimate D2E/DX2                !
 ! R2    R(1,3)                  1.0874         estimate D2E/DX2                !
 ! R3    R(1,4)                  1.0876         estimate D2E/DX2                !
 ! R4    R(1,22)                 1.5028         estimate D2E/DX2                !
 ! R5    R(5,6)                  1.0899         estimate D2E/DX2                !
 ! R6    R(5,7)                  1.0869         estimate D2E/DX2                !
 ! R7    R(5,16)                 1.5221         estimate D2E/DX2                !
 ! R8    R(5,22)                 1.5212         estimate D2E/DX2                !
 ! R9    R(8,9)                  1.0857         estimate D2E/DX2                !
 ! R10   R(8,10)                 1.0875         estimate D2E/DX2                !
 ! R11   R(8,11)                 1.0877         estimate D2E/DX2                !
 ! R12   R(8,22)                 1.5008         estimate D2E/DX2                !
 ! R13   R(12,13)                1.0876         estimate D2E/DX2                !
 ! R14   R(12,14)                1.0858         estimate D2E/DX2                !
 ! R15   R(12,15)                1.0878         estimate D2E/DX2                !
 ! R16   R(12,22)                1.5006         estimate D2E/DX2                !
 ! R17   R(16,17)                1.0899         estimate D2E/DX2                !
 ! R18   R(16,18)                1.091          estimate D2E/DX2                !
 ! R19   R(16,19)                1.528          estimate D2E/DX2                !
 ! R20   R(19,20)                1.0899         estimate D2E/DX2                !
 ! R21   R(19,21)                1.0912         estimate D2E/DX2                !
 ! R22   R(19,23)                1.8113         estimate D2E/DX2                !
 ! R23   R(23,24)                1.4836         estimate D2E/DX2                !
 ! R24   R(23,25)                1.4829         estimate D2E/DX2                !
 ! R25   R(23,26)                1.4827         estimate D2E/DX2                !
 ! A1    A(2,1,3)              110.2739         estimate D2E/DX2                !
 ! A2    A(2,1,4)              110.3558         estimate D2E/DX2                !
 ! A3    A(2,1,22)             108.6101         estimate D2E/DX2                !
 ! A4    A(3,1,4)              110.32           estimate D2E/DX2                !
 ! A5    A(3,1,22)             108.5673         estimate D2E/DX2                !
 ! A6    A(4,1,22)             108.6587         estimate D2E/DX2                !
 ! A7    A(6,5,7)              108.6071         estimate D2E/DX2                !
 ! A8    A(6,5,16)             110.3346         estimate D2E/DX2                !
 ! A9    A(6,5,22)             105.7955         estimate D2E/DX2                !
 ! A10   A(7,5,16)             111.0223         estimate D2E/DX2                !
 ! A11   A(7,5,22)             105.5467         estimate D2E/DX2                !
 ! A12   A(16,5,22)            115.1813         estimate D2E/DX2                !
 ! A13   A(9,8,10)             109.7271         estimate D2E/DX2                !
 ! A14   A(9,8,11)             110.4864         estimate D2E/DX2                !
 ! A15   A(9,8,22)             109.3928         estimate D2E/DX2                !
 ! A16   A(10,8,11)            110.3399         estimate D2E/DX2                !
 ! A17   A(10,8,22)            108.2586         estimate D2E/DX2                !
 ! A18   A(11,8,22)            108.5905         estimate D2E/DX2                !
 ! A19   A(13,12,14)           109.6765         estimate D2E/DX2                !
 ! A20   A(13,12,15)           110.2993         estimate D2E/DX2                !
 ! A21   A(13,12,22)           108.2151         estimate D2E/DX2                !
 ! A22   A(14,12,15)           110.4847         estimate D2E/DX2                !
 ! A23   A(14,12,22)           109.5303         estimate D2E/DX2                !
 ! A24   A(15,12,22)           108.591          estimate D2E/DX2                !
 ! A25   A(5,16,17)            111.3241         estimate D2E/DX2                !
 ! A26   A(5,16,18)            110.2346         estimate D2E/DX2                !
 ! A27   A(5,16,19)            111.7642         estimate D2E/DX2                !
 ! A28   A(17,16,18)           107.5447         estimate D2E/DX2                !
 ! A29   A(17,16,19)           109.1412         estimate D2E/DX2                !
 ! A30   A(18,16,19)           106.6352         estimate D2E/DX2                !
 ! A31   A(16,19,20)           109.9707         estimate D2E/DX2                !
 ! A32   A(16,19,21)           112.2697         estimate D2E/DX2                !
 ! A33   A(16,19,23)           115.1776         estimate D2E/DX2                !
 ! A34   A(20,19,21)           108.4757         estimate D2E/DX2                !
 ! A35   A(20,19,23)           104.5193         estimate D2E/DX2                !
 ! A36   A(21,19,23)           105.9523         estimate D2E/DX2                !
 ! A37   A(1,22,5)             107.4228         estimate D2E/DX2                !
 ! A38   A(1,22,8)             108.6731         estimate D2E/DX2                !
 ! A39   A(1,22,12)            108.6206         estimate D2E/DX2                !
 ! A40   A(5,22,8)             110.977          estimate D2E/DX2                !
 ! A41   A(5,22,12)            111.4576         estimate D2E/DX2                !
 ! A42   A(8,22,12)            109.5978         estimate D2E/DX2                !
 ! A43   A(19,23,24)           106.2547         estimate D2E/DX2                !
 ! A44   A(19,23,25)           107.3283         estimate D2E/DX2                !
 ! A45   A(19,23,26)           105.0023         estimate D2E/DX2                !
 ! A46   A(24,23,25)           112.4024         estimate D2E/DX2                !
 ! A47   A(24,23,26)           112.749          estimate D2E/DX2                !
 ! A48   A(25,23,26)           112.4639         estimate D2E/DX2                !
 ! D1    D(2,1,22,5)           -60.3404         estimate D2E/DX2                !
 ! D2    D(2,1,22,8)           179.5197         estimate D2E/DX2                !
 ! D3    D(2,1,22,12)           60.3445         estimate D2E/DX2                !
 ! D4    D(3,1,22,5)           179.7382         estimate D2E/DX2                !
 ! D5    D(3,1,22,8)            59.5984         estimate D2E/DX2                !
 ! D6    D(3,1,22,12)          -59.5768         estimate D2E/DX2                !
 ! D7    D(4,1,22,5)            59.733          estimate D2E/DX2                !
 ! D8    D(4,1,22,8)           -60.4069         estimate D2E/DX2                !
 ! D9    D(4,1,22,12)         -179.582          estimate D2E/DX2                !
 ! D10   D(6,5,16,17)         -179.4862         estimate D2E/DX2                !
 ! D11   D(6,5,16,18)           61.2531         estimate D2E/DX2                !
 ! D12   D(6,5,16,19)          -57.1514         estimate D2E/DX2                !
 ! D13   D(7,5,16,17)          -59.0238         estimate D2E/DX2                !
 ! D14   D(7,5,16,18)         -178.2845         estimate D2E/DX2                !
 ! D15   D(7,5,16,19)           63.311          estimate D2E/DX2                !
 ! D16   D(22,5,16,17)          60.8426         estimate D2E/DX2                !
 ! D17   D(22,5,16,18)         -58.4182         estimate D2E/DX2                !
 ! D18   D(22,5,16,19)        -176.8227         estimate D2E/DX2                !
 ! D19   D(6,5,22,1)            57.8908         estimate D2E/DX2                !
 ! D20   D(6,5,22,8)           176.5566         estimate D2E/DX2                !
 ! D21   D(6,5,22,12)          -60.9858         estimate D2E/DX2                !
 ! D22   D(7,5,22,1)           -57.1265         estimate D2E/DX2                !
 ! D23   D(7,5,22,8)            61.5394         estimate D2E/DX2                !
 ! D24   D(7,5,22,12)         -176.003          estimate D2E/DX2                !
 ! D25   D(16,5,22,1)         -179.964          estimate D2E/DX2                !
 ! D26   D(16,5,22,8)          -61.2982         estimate D2E/DX2                !
 ! D27   D(16,5,22,12)          61.1594         estimate D2E/DX2                !
 ! D28   D(9,8,22,1)          -175.7386         estimate D2E/DX2                !
 ! D29   D(9,8,22,5)            66.3526         estimate D2E/DX2                !
 ! D30   D(9,8,22,12)          -57.1776         estimate D2E/DX2                !
 ! D31   D(10,8,22,1)          -56.2039         estimate D2E/DX2                !
 ! D32   D(10,8,22,5)         -174.1127         estimate D2E/DX2                !
 ! D33   D(10,8,22,12)          62.3571         estimate D2E/DX2                !
 ! D34   D(11,8,22,1)           63.6066         estimate D2E/DX2                !
 ! D35   D(11,8,22,5)          -54.3021         estimate D2E/DX2                !
 ! D36   D(11,8,22,12)        -177.8323         estimate D2E/DX2                !
 ! D37   D(13,12,22,1)          55.8369         estimate D2E/DX2                !
 ! D38   D(13,12,22,5)         173.9962         estimate D2E/DX2                !
 ! D39   D(13,12,22,8)         -62.7567         estimate D2E/DX2                !
 ! D40   D(14,12,22,1)         175.3642         estimate D2E/DX2                !
 ! D41   D(14,12,22,5)         -66.4765         estimate D2E/DX2                !
 ! D42   D(14,12,22,8)          56.7706         estimate D2E/DX2                !
 ! D43   D(15,12,22,1)         -63.9002         estimate D2E/DX2                !
 ! D44   D(15,12,22,5)          54.2591         estimate D2E/DX2                !
 ! D45   D(15,12,22,8)         177.5062         estimate D2E/DX2                !
 ! D46   D(5,16,19,20)         169.9062         estimate D2E/DX2                !
 ! D47   D(5,16,19,21)          49.0311         estimate D2E/DX2                !
 ! D48   D(5,16,19,23)         -72.3464         estimate D2E/DX2                !
 ! D49   D(17,16,19,20)        -66.5179         estimate D2E/DX2                !
 ! D50   D(17,16,19,21)        172.6071         estimate D2E/DX2                !
 ! D51   D(17,16,19,23)         51.2296         estimate D2E/DX2                !
 ! D52   D(18,16,19,20)         49.3778         estimate D2E/DX2                !
 ! D53   D(18,16,19,21)        -71.4973         estimate D2E/DX2                !
 ! D54   D(18,16,19,23)        167.1252         estimate D2E/DX2                !
 ! D55   D(16,19,23,24)        -52.1452         estimate D2E/DX2                !
 ! D56   D(16,19,23,25)         68.3071         estimate D2E/DX2                !
 ! D57   D(16,19,23,26)       -171.8246         estimate D2E/DX2                !
 ! D58   D(20,19,23,24)         68.6244         estimate D2E/DX2                !
 ! D59   D(20,19,23,25)       -170.9234         estimate D2E/DX2                !
 ! D60   D(20,19,23,26)        -51.0551         estimate D2E/DX2                !
 ! D61   D(21,19,23,24)       -176.8881         estimate D2E/DX2                !
 ! D62   D(21,19,23,25)        -56.4359         estimate D2E/DX2                !
 ! D63   D(21,19,23,26)         63.4325         estimate D2E/DX2                !
 --------------------------------------------------------------------------------
 Trust Radius=3.00D-01 FncErr=1.00D-07 GrdErr=1.00D-06 EigMax=2.50D+02 EigMin=1.00D-04
 Number of steps in this run=    146 maximum allowed number of steps=    156.
 GradGradGradGradGradGradGradGradGradGradGradGradGradGradGradGradGradGrad

 Leave Link  103 at Wed Oct 11 15:08:09 2023, MaxMem=  6710886400 cpu:               0.2 elap:               0.0
 (Enter /data0/home/software/g16/l202.exe)
                          Input orientation:                          
 ---------------------------------------------------------------------
 Center     Atomic      Atomic             Coordinates (Angstroms)
 Number     Number       Type             X           Y           Z
 ---------------------------------------------------------------------
      1          6           0       -3.122976   -1.250286   -0.741019
      2          1           0       -3.093675   -1.040043   -1.807650
      3          1           0       -4.152561   -1.340419   -0.402875
      4          1           0       -2.571656   -2.161244   -0.519709
      5          6           0       -1.039381   -0.009228   -0.495967
      6          1           0       -1.100603    0.133710   -1.574681
      7          1           0       -0.598080   -0.982864   -0.299652
      8          6           0       -2.527414   -0.390825    1.463973
      9          1           0       -2.132005    0.461159    2.008588
     10          1           0       -3.565190   -0.555975    1.743990
     11          1           0       -1.935045   -1.280301    1.666458
     12          6           0       -3.244659    1.147047   -0.306812
     13          1           0       -4.284985    0.981471   -0.036369
     14          1           0       -2.840756    1.967247    0.278864
     15          1           0       -3.160575    1.360928   -1.370067
     16          6           0       -0.215194    1.101877    0.138898
     17          1           0       -0.135949    0.969563    1.217835
     18          1           0       -0.685467    2.069885   -0.040069
     19          6           0        1.188102    1.179747   -0.460751
     20          1           0        1.688684    2.085994   -0.120157
     21          1           0        1.171985    1.182829   -1.551796
     22          7           0       -2.477188   -0.107606   -0.009042
     23         16           0        2.305782   -0.163245    0.016822
     24          8           0        2.273468   -0.223209    1.498883
     25          8           0        1.795729   -1.406472   -0.610359
     26          8           0        3.632403    0.235083   -0.512086
 ---------------------------------------------------------------------
                    Distance matrix (angstroms):
                    1          2          3          4          5
     1  C    0.000000
     2  H    1.087549   0.000000
     3  H    1.087433   1.784617   0.000000
     4  H    1.087555   1.785606   1.785123   0.000000
     5  C    2.437549   2.646359   3.387126   2.641894   0.000000
     6  H    2.588519   2.324716   3.586173   2.922974   1.089864
     7  H    2.577095   2.916388   3.573910   2.309114   1.086855
     8  C    2.440360   3.383142   2.651029   2.659198   2.490226
     9  H    3.386946   4.212136   3.625394   3.669138   2.772704
    10  H    2.617803   3.615355   2.359955   2.947598   3.419949
    11  H    2.684777   3.670092   3.033666   2.441446   2.663442
    12  C    2.439375   2.656816   2.649717   3.382757   2.497199
    13  H    2.612955   2.939928   2.354365   3.611893   3.424421
    14  H    3.387083   3.668965   3.623017   4.213617   2.784200
    15  H    2.686178   2.441437   3.035914   3.670917   2.672235
    16  C    3.842151   4.081975   4.664889   4.078558   1.522134
    17  H    4.205612   4.684039   4.908756   4.330552   2.170562
    18  H    4.178076   4.312245   4.876735   4.657276   2.157732
    19  C    4.956713   5.007516   5.905698   5.030057   2.525190
    20  H    5.887980   5.957407   6.777933   6.029027   3.460278
    21  H    5.002409   4.816895   6.003132   5.124732   2.725053
    22  N    1.502847   2.117660   2.117028   2.118286   1.521205
    23  S    5.588148   5.766421   6.578152   5.298044   3.387741
    24  O    5.932424   6.356619   6.794019   5.595169   3.873007
    25  O    4.922918   5.047182   5.952274   4.433052   3.162788
    26  O    6.920540   6.967392   7.943538   6.650774   4.678196
                    6          7          8          9         10
     6  H    0.000000
     7  H    1.767757   0.000000
     8  C    3.397697   2.680152   0.000000
     9  H    3.743104   3.125076   1.085740   0.000000
    10  H    4.190875   3.628009   1.087503   1.777243   0.000000
    11  H    3.633277   2.396150   1.087690   1.785645   1.785506
    12  C    2.689111   3.397198   2.452584   2.658857   2.684923
    13  H    3.636673   4.185833   2.687616   3.014614   2.459984
    14  H    3.134584   3.750657   2.657663   2.400536   3.006335
    15  H    2.406536   3.633941   3.391359   3.644564   3.679073
    16  C    2.158159   2.164503   3.054561   2.753257   4.067833
    17  H    3.070400   2.515612   2.762308   2.206355   3.789960
    18  H    2.505224   3.065012   3.421988   2.979508   4.286119
    19  C    2.751945   2.809499   4.469487   4.199656   5.519728
    20  H    3.702320   3.831370   5.139998   4.665759   6.169136
    21  H    2.503164   3.064510   5.025615   4.910549   6.027145
    22  N    2.098677   2.093222   1.500836   2.124494   2.111375
    23  S    3.771541   3.033866   5.050329   4.904178   6.132345
    24  O    4.578050   3.472404   4.803934   4.487355   5.853267
    25  O    3.419184   2.450776   4.901424   5.076812   5.916566
    26  O    4.851879   4.407438   6.499224   6.295499   7.584260
                   11         12         13         14         15
    11  H    0.000000
    12  C    3.391298   0.000000
    13  H    3.679327   1.087581   0.000000
    14  H    3.645860   1.085763   1.776773   0.000000
    15  H    4.206958   1.087808   1.785227   1.785744   0.000000
    16  C    3.311510   3.062410   4.075342   2.768037   3.319541
    17  H    2.915458   3.467005   4.334475   3.031999   3.999846
    18  H    3.961998   2.733541   3.760477   2.181175   2.897874
    19  C    4.508980   4.435554   5.493095   4.171197   4.446423
    20  H    5.258835   5.025369   6.075501   4.548532   5.059971
    21  H    5.106643   4.588901   5.667061   4.479812   4.340025
    22  N    2.115758   1.500611   2.110679   2.126050   2.115656
    23  S    4.685480   5.712180   6.689650   5.576246   5.841885
    24  O    4.342477   5.965556   6.842628   5.695773   6.345801
    25  O    4.372469   5.658455   6.557958   5.802559   5.727182
    26  O    6.167570   6.940302   7.966708   6.747428   6.938891
                   16         17         18         19         20
    16  C    0.000000
    17  H    1.089904   0.000000
    18  H    1.090975   1.759261   0.000000
    19  C    1.528032   2.148241   2.116502   0.000000
    20  H    2.158784   2.523079   2.375556   1.089895   0.000000
    21  H    2.188439   3.070347   2.553882   1.091168   1.769823
    22  N    2.569310   2.854281   2.820052   3.910968   4.709429
    23  S    2.823253   2.947497   3.733320   1.811329   2.336375
    24  O    3.130312   2.703143   4.047462   2.643193   2.880222
    25  O    3.301062   3.566401   4.308900   2.660850   3.528325
    26  O    3.997388   4.211005   4.715220   2.620998   2.712476
                   21         22         23         24         25
    21  H    0.000000
    22  N    4.166746   0.000000
    23  S    2.357535   4.783364   0.000000
    24  O    3.535088   4.985573   1.483626   0.000000
    25  O    2.824861   4.506268   1.482944   2.465207   0.000000
    26  O    2.834233   6.139836   1.482677   2.469966   2.465306
                   26
    26  O    0.000000
 Stoichiometry    C6H15NO3S
 Framework group  C1[X(C6H15NO3S)]
 Deg. of freedom    72
 Full point group                 C1      NOp   1
 Largest Abelian subgroup         C1      NOp   1
 Largest concise Abelian subgroup C1      NOp   1
                         Standard orientation:                         
 ---------------------------------------------------------------------
 Center     Atomic      Atomic             Coordinates (Angstroms)
 Number     Number       Type             X           Y           Z
 ---------------------------------------------------------------------
      1          6           0       -3.122976   -1.250286   -0.741019
      2          1           0       -3.093675   -1.040043   -1.807650
      3          1           0       -4.152561   -1.340419   -0.402875
      4          1           0       -2.571656   -2.161244   -0.519709
      5          6           0       -1.039381   -0.009228   -0.495967
      6          1           0       -1.100603    0.133710   -1.574681
      7          1           0       -0.598080   -0.982864   -0.299652
      8          6           0       -2.527414   -0.390825    1.463973
      9          1           0       -2.132005    0.461159    2.008588
     10          1           0       -3.565190   -0.555975    1.743990
     11          1           0       -1.935045   -1.280301    1.666458
     12          6           0       -3.244659    1.147047   -0.306812
     13          1           0       -4.284985    0.981471   -0.036369
     14          1           0       -2.840756    1.967247    0.278864
     15          1           0       -3.160575    1.360928   -1.370067
     16          6           0       -0.215194    1.101877    0.138898
     17          1           0       -0.135949    0.969563    1.217835
     18          1           0       -0.685467    2.069885   -0.040069
     19          6           0        1.188102    1.179747   -0.460751
     20          1           0        1.688684    2.085994   -0.120157
     21          1           0        1.171985    1.182829   -1.551796
     22          7           0       -2.477188   -0.107606   -0.009042
     23         16           0        2.305782   -0.163245    0.016822
     24          8           0        2.273468   -0.223209    1.498883
     25          8           0        1.795729   -1.406472   -0.610359
     26          8           0        3.632403    0.235083   -0.512086
 ---------------------------------------------------------------------
 Rotational constants (GHZ):           2.1247705           0.4383285           0.4297241
 Leave Link  202 at Wed Oct 11 15:08:09 2023, MaxMem=  6710886400 cpu:               0.1 elap:               0.0
 (Enter /data0/home/software/g16/l301.exe)
 Standard basis: 6-311+G(2d,p) (5D, 7F)
 Ernie: Thresh=  0.10000D-02 Tol=  0.10000D-05 Strict=F.
 There are   417 symmetry adapted cartesian basis functions of A   symmetry.
 There are   395 symmetry adapted basis functions of A   symmetry.
   395 basis functions,   596 primitive gaussians,   417 cartesian basis functions
    49 alpha electrons       49 beta electrons
       nuclear repulsion energy       823.4649191583 Hartrees.
 IExCor=  402 DFT=T Ex+Corr=B3LYP ExCW=0 ScaHFX=  0.200000
 ScaDFX=  0.800000  0.720000  1.000000  0.810000 ScalE2=  1.000000  1.000000
 IRadAn=      5 IRanWt=     -1 IRanGd=            0 ICorTp=0 IEmpDi=141
 NAtoms=   26 NActive=   26 NUniq=   26 SFac= 1.00D+00 NAtFMM=   60 NAOKFM=F Big=F
 Integral buffers will be    131072 words long.
 Raffenetti 2 integral format.
 Two-electron integral symmetry is turned on.
 R6Disp:  Grimme-D3(BJ) Dispersion energy=       -0.0473788463 Hartrees.
 Nuclear repulsion after empirical dispersion term =      823.4175403120 Hartrees.
 ------------------------------------------------------------------------------
 Polarizable Continuum Model (PCM)
 =================================
 Model                : PCM.
 Atomic radii         : SMD-Coulomb.
 Polarization charges : Total charges.
 Charge compensation  : None.
 Solution method      : On-the-fly selection.
 Cavity type          : VdW (van der Waals Surface) (Alpha=1.000).
 Cavity algorithm     : GePol (No added spheres)
                        Default sphere list used, NSphG=   26.
                        Lebedev-Laikov grids with approx.  5.0 points / Ang**2.
                        Smoothing algorithm: York/Karplus (Gamma=1.0000).
                        Polarization charges: spherical gaussians, with
                                              point-specific exponents (IZeta= 3).
                        Self-potential: point-specific (ISelfS= 7).
                        Self-field    : sphere-specific E.n sum rule (ISelfD= 2).
 1st derivatives      : Analytical E(r).r(x)/FMM algorithm (CHGder, D1EAlg=3).
                        Cavity 1st derivative terms included.
 Solvent              : Water, Eps=  78.355300 Eps(inf)=   1.777849
 ------------------------------------------------------------------------------
 GePol: Number of generator spheres                  =      26
 GePol: Total number of spheres                      =      26
 GePol: Number of exposed spheres                    =      26 (100.00%)
 GePol: Number of points                             =    1718
 GePol: Average weight of points                     =       0.12
 GePol: Minimum weight of points                     =   0.27D-10
 GePol: Maximum weight of points                     =    0.21991
 GePol: Number of points with low weight             =     123
 GePol: Fraction of low-weight points (<1% of avg)   =       7.16%
 GePol: Cavity surface area                          =    208.212 Ang**2
 GePol: Cavity volume                                =    185.953 Ang**3
 ------------------------------------------------------------------------------
 Atomic radii for non-electrostatic terms: SMD-CDS.
 ------------------------------------------------------------------------------
 PCM non-electrostatic energy =         0.0071711177 Hartrees.
 Nuclear repulsion after PCM non-electrostatic terms =      823.4247114297 Hartrees.
 Leave Link  301 at Wed Oct 11 15:08:09 2023, MaxMem=  6710886400 cpu:               1.8 elap:               0.1
 (Enter /data0/home/software/g16/l302.exe)
 NPDir=0 NMtPBC=     1 NCelOv=     1 NCel=       1 NClECP=     1 NCelD=      1
         NCelK=      1 NCelE2=     1 NClLst=     1 CellRange=     0.0.
 One-electron integrals computed using PRISM.
 One-electron integral symmetry used in STVInt
 NBasis=   395 RedAO= T EigKep=  1.23D-05  NBF=   395
 NBsUse=   395 1.00D-06 EigRej= -1.00D+00 NBFU=   395
 Precomputing XC quadrature grid using
 IXCGrd= 4 IRadAn=           5 IRanWt=          -1 IRanGd=           0 AccXCQ= 0.00D+00.
 Generated NRdTot=       0 NPtTot=           0 NUsed=           0 NTot=          32
 NSgBfM=   417   417   417   417   417 MxSgAt=    26 MxSgA2=    26.
 Leave Link  302 at Wed Oct 11 15:08:10 2023, MaxMem=  6710886400 cpu:               8.3 elap:               0.4
 (Enter /data0/home/software/g16/l303.exe)
 DipDrv:  MaxL=1.
 Leave Link  303 at Wed Oct 11 15:08:10 2023, MaxMem=  6710886400 cpu:               1.0 elap:               0.1
 (Enter /data0/home/software/g16/l401.exe)
 ExpMin= 4.05D-02 ExpMax= 9.34D+04 ExpMxC= 3.17D+03 IAcc=3 IRadAn=         5 AccDes= 0.00D+00
 Harris functional with IExCor=  402 and IRadAn=       5 diagonalized for initial guess.
 HarFok:  IExCor=  402 AccDes= 0.00D+00 IRadAn=         5 IDoV= 1 UseB2=F ITyADJ=14
 ICtDFT=  3500011 ScaDFX=  1.000000  1.000000  1.000000  1.000000
 FoFCou: FMM=F IPFlag=           0 FMFlag=      100000 FMFlg1=           0
         NFxFlg=           0 DoJE=T BraDBF=F KetDBF=T FulRan=T
         wScrn=  0.000000 ICntrl=       500 IOpCl=  0 I1Cent=   200000004 NGrid=           0
         NMat0=    1 NMatS0=      1 NMatT0=    0 NMatD0=    1 NMtDS0=    0 NMtDT0=    0
 Petite list used in FoFCou.
 Harris En= -916.576310123274    
 JPrj=0 DoOrth=F DoCkMO=F.
 Leave Link  401 at Wed Oct 11 15:08:11 2023, MaxMem=  6710886400 cpu:              30.4 elap:               1.3
 (Enter /data0/home/software/g16/l502.exe)
 Integral symmetry usage will be decided dynamically.
 Closed shell SCF:
 Using DIIS extrapolation, IDIIS=  1040.
 NGot=  6710886400 LenX=  6710524595 LenY=  6710350265
 Requested convergence on RMS density matrix=1.00D-08 within 128 cycles.
 Requested convergence on MAX density matrix=1.00D-06.
 Requested convergence on             energy=1.00D-06.
 No special actions if energy rises.
 Fock matrices will be formed incrementally for  20 cycles.

 Cycle   1  Pass 1  IDiag  1:
 FoFJK:  IHMeth= 1 ICntrl=       0 DoSepK=F KAlg= 0 I1Cent=           0 FoldK=F
 IRaf= 900000000 NMat=       1 IRICut=       1 DoRegI=T DoRafI=F ISym2E= 0 IDoP0=0 IntGTp=1.
 FoFCou: FMM=F IPFlag=           0 FMFlag=      100000 FMFlg1=           0
         NFxFlg=           0 DoJE=F BraDBF=F KetDBF=F FulRan=T
         wScrn=  0.000000 ICntrl=         0 IOpCl=  0 I1Cent=           0 NGrid=           0
         NMat0=    1 NMatS0=      1 NMatT0=    0 NMatD0=    1 NMtDS0=    0 NMtDT0=    0
 Symmetry not used in FoFCou.
 Inv3:  Mode=1 IEnd=     8854572.
 Iteration    1 A*A^-1 deviation from unit magnitude is 6.44D-15 for    263.
 Iteration    1 A*A^-1 deviation from orthogonality  is 2.12D-15 for   1708   1209.
 Iteration    1 A^-1*A deviation from unit magnitude is 6.88D-15 for    263.
 Iteration    1 A^-1*A deviation from orthogonality  is 3.42D-15 for   1380   1352.
 E= -916.033927219117    
 DIIS: error= 3.18D-02 at cycle   1 NSaved=   1.
 NSaved= 1 IEnMin= 1 EnMin= -916.033927219117     IErMin= 1 ErrMin= 3.18D-02
 ErrMax= 3.18D-02  0.00D+00 EMaxC= 1.00D-01 BMatC= 7.25D-01 BMatP= 7.25D-01
 IDIUse=3 WtCom= 6.82D-01 WtEn= 3.18D-01
 Coeff-Com:  0.100D+01
 Coeff-En:   0.100D+01
 Coeff:      0.100D+01
 Gap=     0.165 Goal=   None    Shift=    0.000
 GapD=    0.165 DampG=1.000 DampE=0.500 DampFc=0.5000 IDamp=-1.
 Damping current iteration by 5.00D-01
 RMSDP=4.50D-03 MaxDP=2.97D-01              OVMax= 2.32D-01

 Cycle   2  Pass 1  IDiag  1:
 RMSU=  2.24D-03    CP:  9.84D-01
 E= -916.178786753320     Delta-E=       -0.144859534203 Rises=F Damp=T
 DIIS: error= 1.43D-02 at cycle   2 NSaved=   2.
 NSaved= 2 IEnMin= 2 EnMin= -916.178786753320     IErMin= 2 ErrMin= 1.43D-02
 ErrMax= 1.43D-02  0.00D+00 EMaxC= 1.00D-01 BMatC= 7.82D-02 BMatP= 7.25D-01
 IDIUse=3 WtCom= 8.57D-01 WtEn= 1.43D-01
 Coeff-Com:  0.201D+00 0.799D+00
 Coeff-En:   0.341D+00 0.659D+00
 Coeff:      0.221D+00 0.779D+00
 Gap=     0.267 Goal=   None    Shift=    0.000
 RMSDP=1.47D-03 MaxDP=1.63D-01 DE=-1.45D-01 OVMax= 1.62D-01

 Cycle   3  Pass 1  IDiag  1:
 RMSU=  1.20D-03    CP:  9.54D-01  6.49D-01
 E= -916.518472903289     Delta-E=       -0.339686149969 Rises=F Damp=F
 DIIS: error= 5.16D-03 at cycle   3 NSaved=   3.
 NSaved= 3 IEnMin= 3 EnMin= -916.518472903289     IErMin= 3 ErrMin= 5.16D-03
 ErrMax= 5.16D-03  0.00D+00 EMaxC= 1.00D-01 BMatC= 2.02D-02 BMatP= 7.82D-02
 IDIUse=3 WtCom= 9.48D-01 WtEn= 5.16D-02
 Coeff-Com:  0.528D-01 0.346D+00 0.601D+00
 Coeff-En:   0.000D+00 0.000D+00 0.100D+01
 Coeff:      0.501D-01 0.328D+00 0.622D+00
 Gap=     0.266 Goal=   None    Shift=    0.000
 RMSDP=4.95D-04 MaxDP=2.63D-02 DE=-3.40D-01 OVMax= 3.28D-02

 Cycle   4  Pass 1  IDiag  1:
 RMSU=  4.78D-04    CP:  9.54D-01  6.77D-01  9.07D-01
 E= -916.532704325857     Delta-E=       -0.014231422569 Rises=F Damp=F
 DIIS: error= 2.57D-03 at cycle   4 NSaved=   4.
 NSaved= 4 IEnMin= 4 EnMin= -916.532704325857     IErMin= 4 ErrMin= 2.57D-03
 ErrMax= 2.57D-03  0.00D+00 EMaxC= 1.00D-01 BMatC= 3.88D-03 BMatP= 2.02D-02
 IDIUse=3 WtCom= 9.74D-01 WtEn= 2.57D-02
 Coeff-Com:  0.517D-04 0.673D-01 0.323D+00 0.610D+00
 Coeff-En:   0.000D+00 0.000D+00 0.155D+00 0.845D+00
 Coeff:      0.504D-04 0.655D-01 0.319D+00 0.616D+00
 Gap=     0.268 Goal=   None    Shift=    0.000
 RMSDP=1.78D-04 MaxDP=1.07D-02 DE=-1.42D-02 OVMax= 1.52D-02

 Cycle   5  Pass 1  IDiag  1:
 RMSU=  9.37D-05    CP:  9.53D-01  6.74D-01  9.51D-01  7.05D-01
 E= -916.536148839533     Delta-E=       -0.003444513676 Rises=F Damp=F
 DIIS: error= 8.12D-04 at cycle   5 NSaved=   5.
 NSaved= 5 IEnMin= 5 EnMin= -916.536148839533     IErMin= 5 ErrMin= 8.12D-04
 ErrMax= 8.12D-04  0.00D+00 EMaxC= 1.00D-01 BMatC= 1.68D-04 BMatP= 3.88D-03
 IDIUse=3 WtCom= 9.92D-01 WtEn= 8.12D-03
 Coeff-Com: -0.263D-02 0.126D-01 0.115D+00 0.282D+00 0.594D+00
 Coeff-En:   0.000D+00 0.000D+00 0.000D+00 0.000D+00 0.100D+01
 Coeff:     -0.261D-02 0.125D-01 0.114D+00 0.279D+00 0.597D+00
 Gap=     0.267 Goal=   None    Shift=    0.000
 RMSDP=3.65D-05 MaxDP=2.52D-03 DE=-3.44D-03 OVMax= 2.43D-03

 Cycle   6  Pass 1  IDiag  1:
 RMSU=  2.95D-05    CP:  9.52D-01  6.74D-01  9.55D-01  7.35D-01  8.84D-01
 E= -916.536263236387     Delta-E=       -0.000114396853 Rises=F Damp=F
 DIIS: error= 3.64D-04 at cycle   6 NSaved=   6.
 NSaved= 6 IEnMin= 6 EnMin= -916.536263236387     IErMin= 6 ErrMin= 3.64D-04
 ErrMax= 3.64D-04  0.00D+00 EMaxC= 1.00D-01 BMatC= 2.72D-05 BMatP= 1.68D-04
 IDIUse=3 WtCom= 9.96D-01 WtEn= 3.64D-03
 Coeff-Com: -0.948D-03 0.851D-03 0.288D-01 0.870D-01 0.339D+00 0.545D+00
 Coeff-En:   0.000D+00 0.000D+00 0.000D+00 0.000D+00 0.119D+00 0.881D+00
 Coeff:     -0.944D-03 0.848D-03 0.287D-01 0.866D-01 0.338D+00 0.546D+00
 Gap=     0.267 Goal=   None    Shift=    0.000
 RMSDP=1.32D-05 MaxDP=1.35D-03 DE=-1.14D-04 OVMax= 8.34D-04

 Cycle   7  Pass 1  IDiag  1:
 RMSU=  7.56D-06    CP:  9.52D-01  6.74D-01  9.55D-01  7.41D-01  8.60D-01
                    CP:  6.73D-01
 E= -916.536285979969     Delta-E=       -0.000022743582 Rises=F Damp=F
 DIIS: error= 4.52D-05 at cycle   7 NSaved=   7.
 NSaved= 7 IEnMin= 7 EnMin= -916.536285979969     IErMin= 7 ErrMin= 4.52D-05
 ErrMax= 4.52D-05  0.00D+00 EMaxC= 1.00D-01 BMatC= 9.81D-07 BMatP= 2.72D-05
 IDIUse=1 WtCom= 1.00D+00 WtEn= 0.00D+00
 Coeff-Com: -0.344D-03-0.372D-03 0.973D-02 0.323D-01 0.147D+00 0.267D+00
 Coeff-Com:  0.545D+00
 Coeff:     -0.344D-03-0.372D-03 0.973D-02 0.323D-01 0.147D+00 0.267D+00
 Coeff:      0.545D+00
 Gap=     0.267 Goal=   None    Shift=    0.000
 RMSDP=2.61D-06 MaxDP=2.08D-04 DE=-2.27D-05 OVMax= 2.18D-04

 Cycle   8  Pass 1  IDiag  1:
 RMSU=  2.12D-06    CP:  9.52D-01  6.74D-01  9.56D-01  7.40D-01  8.70D-01
                    CP:  6.66D-01  8.71D-01
 E= -916.536286703983     Delta-E=       -0.000000724014 Rises=F Damp=F
 DIIS: error= 1.06D-05 at cycle   8 NSaved=   8.
 NSaved= 8 IEnMin= 8 EnMin= -916.536286703983     IErMin= 8 ErrMin= 1.06D-05
 ErrMax= 1.06D-05  0.00D+00 EMaxC= 1.00D-01 BMatC= 7.69D-08 BMatP= 9.81D-07
 IDIUse=1 WtCom= 1.00D+00 WtEn= 0.00D+00
 Coeff-Com:  0.118D-04-0.262D-03 0.521D-03 0.279D-02 0.210D-01 0.454D-01
 Coeff-Com:  0.237D+00 0.694D+00
 Coeff:      0.118D-04-0.262D-03 0.521D-03 0.279D-02 0.210D-01 0.454D-01
 Coeff:      0.237D+00 0.694D+00
 Gap=     0.267 Goal=   None    Shift=    0.000
 RMSDP=8.62D-07 MaxDP=3.98D-05 DE=-7.24D-07 OVMax= 6.61D-05

 Cycle   9  Pass 1  IDiag  1:
 RMSU=  6.77D-07    CP:  9.52D-01  6.74D-01  9.56D-01  7.40D-01  8.72D-01
                    CP:  6.67D-01  9.14D-01  8.51D-01
 E= -916.536286752227     Delta-E=       -0.000000048244 Rises=F Damp=F
 DIIS: error= 7.64D-06 at cycle   9 NSaved=   9.
 NSaved= 9 IEnMin= 9 EnMin= -916.536286752227     IErMin= 9 ErrMin= 7.64D-06
 ErrMax= 7.64D-06  0.00D+00 EMaxC= 1.00D-01 BMatC= 1.81D-08 BMatP= 7.69D-08
 IDIUse=1 WtCom= 1.00D+00 WtEn= 0.00D+00
 Coeff-Com:  0.270D-04-0.132D-03-0.248D-03-0.128D-03 0.446D-02 0.127D-01
 Coeff-Com:  0.110D+00 0.424D+00 0.449D+00
 Coeff:      0.270D-04-0.132D-03-0.248D-03-0.128D-03 0.446D-02 0.127D-01
 Coeff:      0.110D+00 0.424D+00 0.449D+00
 Gap=     0.267 Goal=   None    Shift=    0.000
 RMSDP=3.73D-07 MaxDP=1.98D-05 DE=-4.82D-08 OVMax= 3.16D-05

 Cycle  10  Pass 1  IDiag  1:
 RMSU=  2.49D-07    CP:  9.52D-01  6.74D-01  9.56D-01  7.40D-01  8.71D-01
                    CP:  6.68D-01  9.21D-01  9.28D-01  6.93D-01
 E= -916.536286764013     Delta-E=       -0.000000011786 Rises=F Damp=F
 DIIS: error= 1.64D-06 at cycle  10 NSaved=  10.
 NSaved=10 IEnMin=10 EnMin= -916.536286764013     IErMin=10 ErrMin= 1.64D-06
 ErrMax= 1.64D-06  0.00D+00 EMaxC= 1.00D-01 BMatC= 1.19D-09 BMatP= 1.81D-08
 IDIUse=1 WtCom= 1.00D+00 WtEn= 0.00D+00
 Coeff-Com:  0.838D-05-0.297D-04-0.204D-03-0.424D-03-0.731D-03 0.144D-03
 Coeff-Com:  0.205D-01 0.116D+00 0.238D+00 0.627D+00
 Coeff:      0.838D-05-0.297D-04-0.204D-03-0.424D-03-0.731D-03 0.144D-03
 Coeff:      0.205D-01 0.116D+00 0.238D+00 0.627D+00
 Gap=     0.267 Goal=   None    Shift=    0.000
 RMSDP=1.03D-07 MaxDP=5.88D-06 DE=-1.18D-08 OVMax= 5.99D-06

 Cycle  11  Pass 1  IDiag  1:
 RMSU=  6.50D-08    CP:  9.52D-01  6.74D-01  9.56D-01  7.40D-01  8.72D-01
                    CP:  6.68D-01  9.26D-01  9.28D-01  7.41D-01  7.62D-01
 E= -916.536286764886     Delta-E=       -0.000000000873 Rises=F Damp=F
 DIIS: error= 2.45D-07 at cycle  11 NSaved=  11.
 NSaved=11 IEnMin=11 EnMin= -916.536286764886     IErMin=11 ErrMin= 2.45D-07
 ErrMax= 2.45D-07  0.00D+00 EMaxC= 1.00D-01 BMatC= 3.50D-11 BMatP= 1.19D-09
 IDIUse=1 WtCom= 1.00D+00 WtEn= 0.00D+00
 Coeff-Com:  0.429D-07 0.114D-05-0.613D-04-0.151D-03-0.687D-03-0.855D-03
 Coeff-Com: -0.118D-02 0.732D-02 0.455D-01 0.201D+00 0.749D+00
 Coeff:      0.429D-07 0.114D-05-0.613D-04-0.151D-03-0.687D-03-0.855D-03
 Coeff:     -0.118D-02 0.732D-02 0.455D-01 0.201D+00 0.749D+00
 Gap=     0.267 Goal=   None    Shift=    0.000
 RMSDP=2.64D-08 MaxDP=2.25D-06 DE=-8.73D-10 OVMax= 1.04D-06

 Cycle  12  Pass 1  IDiag  1:
 RMSU=  1.43D-08    CP:  9.52D-01  6.74D-01  9.56D-01  7.40D-01  8.72D-01
                    CP:  6.68D-01  9.27D-01  9.34D-01  7.57D-01  7.97D-01
                    CP:  9.65D-01
 E= -916.536286764931     Delta-E=       -0.000000000045 Rises=F Damp=F
 DIIS: error= 7.51D-08 at cycle  12 NSaved=  12.
 NSaved=12 IEnMin=12 EnMin= -916.536286764931     IErMin=12 ErrMin= 7.51D-08
 ErrMax= 7.51D-08  0.00D+00 EMaxC= 1.00D-01 BMatC= 3.82D-12 BMatP= 3.50D-11
 IDIUse=1 WtCom= 1.00D+00 WtEn= 0.00D+00
 Coeff-Com: -0.745D-06 0.229D-05-0.134D-04-0.348D-04-0.234D-03-0.305D-03
 Coeff-Com: -0.158D-02-0.390D-02 0.554D-02 0.533D-01 0.346D+00 0.601D+00
 Coeff:     -0.745D-06 0.229D-05-0.134D-04-0.348D-04-0.234D-03-0.305D-03
 Coeff:     -0.158D-02-0.390D-02 0.554D-02 0.533D-01 0.346D+00 0.601D+00
 Gap=     0.267 Goal=   None    Shift=    0.000
 RMSDP=7.85D-09 MaxDP=8.62D-07 DE=-4.48D-11 OVMax= 3.76D-07

 Error on total polarization charges =  0.05717
 SCF Done:  E(RB3LYP) =  -916.536286765     A.U. after   12 cycles
            NFock= 12  Conv=0.79D-08     -V/T= 2.0031
 KE= 9.136913038031D+02 PE=-3.804478260914D+03 EE= 1.150825958917D+03
 SMD-CDS (non-electrostatic) energy       (kcal/mol) =       4.50
 (included in total energy above)
 Leave Link  502 at Wed Oct 11 15:08:51 2023, MaxMem=  6710886400 cpu:             944.8 elap:              40.1
 (Enter /data0/home/software/g16/l601.exe)
 Copying SCF densities to generalized density rwf, IOpCl= 0 IROHF=0.

 **********************************************************************

            Population analysis using the SCF density.

 **********************************************************************

 Orbital symmetries:
       Occupied  (A) (A) (A) (A) (A) (A) (A) (A) (A) (A) (A) (A)
                 (A) (A) (A) (A) (A) (A) (A) (A) (A) (A) (A) (A)
                 (A) (A) (A) (A) (A) (A) (A) (A) (A) (A) (A) (A)
                 (A) (A) (A) (A) (A) (A) (A) (A) (A) (A) (A) (A)
                 (A)
       Virtual   (A) (A) (A) (A) (A) (A) (A) (A) (A) (A) (A) (A)
                 (A) (A) (A) (A) (A) (A) (A) (A) (A) (A) (A) (A)
                 (A) (A) (A) (A) (A) (A) (A) (A) (A) (A) (A) (A)
                 (A) (A) (A) (A) (A) (A) (A) (A) (A) (A) (A) (A)
                 (A) (A) (A) (A) (A) (A) (A) (A) (A) (A) (A) (A)
                 (A) (A) (A) (A) (A) (A) (A) (A) (A) (A) (A) (A)
                 (A) (A) (A) (A) (A) (A) (A) (A) (A) (A) (A) (A)
                 (A) (A) (A) (A) (A) (A) (A) (A) (A) (A) (A) (A)
                 (A) (A) (A) (A) (A) (A) (A) (A) (A) (A) (A) (A)
                 (A) (A) (A) (A) (A) (A) (A) (A) (A) (A) (A) (A)
                 (A) (A) (A) (A) (A) (A) (A) (A) (A) (A) (A) (A)
                 (A) (A) (A) (A) (A) (A) (A) (A) (A) (A) (A) (A)
                 (A) (A) (A) (A) (A) (A) (A) (A) (A) (A) (A) (A)
                 (A) (A) (A) (A) (A) (A) (A) (A) (A) (A) (A) (A)
                 (A) (A) (A) (A) (A) (A) (A) (A) (A) (A) (A) (A)
                 (A) (A) (A) (A) (A) (A) (A) (A) (A) (A) (A) (A)
                 (A) (A) (A) (A) (A) (A) (A) (A) (A) (A) (A) (A)
                 (A) (A) (A) (A) (A) (A) (A) (A) (A) (A) (A) (A)
                 (A) (A) (A) (A) (A) (A) (A) (A) (A) (A) (A) (A)
                 (A) (A) (A) (A) (A) (A) (A) (A) (A) (A) (A) (A)
                 (A) (A) (A) (A) (A) (A) (A) (A) (A) (A) (A) (A)
                 (A) (A) (A) (A) (A) (A) (A) (A) (A) (A) (A) (A)
                 (A) (A) (A) (A) (A) (A) (A) (A) (A) (A) (A) (A)
                 (A) (A) (A) (A) (A) (A) (A) (A) (A) (A) (A) (A)
                 (A) (A) (A) (A) (A) (A) (A) (A) (A) (A) (A) (A)
                 (A) (A) (A) (A) (A) (A) (A) (A) (A) (A) (A) (A)
                 (A) (A) (A) (A) (A) (A) (A) (A) (A) (A) (A) (A)
                 (A) (A) (A) (A) (A) (A) (A) (A) (A) (A) (A) (A)
                 (A) (A) (A) (A) (A) (A) (A) (A) (A) (A)
 The electronic state is 1-A.
 Alpha  occ. eigenvalues --  -89.03457 -19.09524 -19.09499 -19.09482 -14.43648
 Alpha  occ. eigenvalues --  -10.21634 -10.20905 -10.20886 -10.20860 -10.19231
 Alpha  occ. eigenvalues --  -10.18093  -8.09067  -6.05376  -6.05373  -6.05252
 Alpha  occ. eigenvalues --   -1.11057  -1.01242  -0.97562  -0.97534  -0.81171
 Alpha  occ. eigenvalues --   -0.74211  -0.74173  -0.73369  -0.65727  -0.60742
 Alpha  occ. eigenvalues --   -0.56683  -0.52536  -0.52072  -0.50614  -0.49358
 Alpha  occ. eigenvalues --   -0.46949  -0.46157  -0.45045  -0.43759  -0.42386
 Alpha  occ. eigenvalues --   -0.41523  -0.40275  -0.39605  -0.39548  -0.39522
 Alpha  occ. eigenvalues --   -0.38203  -0.36754  -0.35820  -0.34436  -0.34324
 Alpha  occ. eigenvalues --   -0.30092  -0.29888  -0.29150  -0.26304
 Alpha virt. eigenvalues --    0.00410   0.01730   0.02441   0.02750   0.03945
 Alpha virt. eigenvalues --    0.04355   0.04593   0.05006   0.05407   0.05807
 Alpha virt. eigenvalues --    0.06736   0.07022   0.07622   0.08085   0.08403
 Alpha virt. eigenvalues --    0.09736   0.10584   0.11046   0.11125   0.11372
 Alpha virt. eigenvalues --    0.11635   0.12008   0.12354   0.13051   0.13617
 Alpha virt. eigenvalues --    0.13923   0.14440   0.15098   0.15141   0.16036
 Alpha virt. eigenvalues --    0.16236   0.16803   0.17089   0.17653   0.18005
 Alpha virt. eigenvalues --    0.18784   0.18997   0.19661   0.19865   0.19997
 Alpha virt. eigenvalues --    0.21359   0.22016   0.23104   0.23723   0.24078
 Alpha virt. eigenvalues --    0.24533   0.25270   0.25592   0.26115   0.26818
 Alpha virt. eigenvalues --    0.26833   0.27713   0.28236   0.28362   0.29183
 Alpha virt. eigenvalues --    0.29411   0.29749   0.30412   0.30991   0.31469
 Alpha virt. eigenvalues --    0.32257   0.32672   0.33307   0.33988   0.34746
 Alpha virt. eigenvalues --    0.35167   0.37090   0.37949   0.38890   0.39406
 Alpha virt. eigenvalues --    0.40794   0.41800   0.42911   0.43156   0.44764
 Alpha virt. eigenvalues --    0.45442   0.48525   0.48799   0.49112   0.50507
 Alpha virt. eigenvalues --    0.50700   0.51295   0.52439   0.53197   0.54233
 Alpha virt. eigenvalues --    0.54271   0.57162   0.57658   0.58527   0.60418
 Alpha virt. eigenvalues --    0.60481   0.61139   0.62152   0.63320   0.63449
 Alpha virt. eigenvalues --    0.64624   0.66053   0.66752   0.67648   0.68813
 Alpha virt. eigenvalues --    0.69730   0.69938   0.72198   0.72669   0.73956
 Alpha virt. eigenvalues --    0.74091   0.74571   0.74775   0.75940   0.77474
 Alpha virt. eigenvalues --    0.79041   0.80578   0.81313   0.82819   0.83410
 Alpha virt. eigenvalues --    0.85564   0.87415   0.87630   0.89021   0.90451
 Alpha virt. eigenvalues --    0.91306   0.92617   0.93805   0.96851   0.97489
 Alpha virt. eigenvalues --    0.98448   1.00845   1.06515   1.07122   1.07356
 Alpha virt. eigenvalues --    1.09665   1.12021   1.12830   1.13828   1.14518
 Alpha virt. eigenvalues --    1.15094   1.15193   1.16112   1.16661   1.18112
 Alpha virt. eigenvalues --    1.18951   1.19367   1.19649   1.20820   1.24209
 Alpha virt. eigenvalues --    1.25207   1.25619   1.25935   1.27113   1.28388
 Alpha virt. eigenvalues --    1.29404   1.30411   1.34415   1.34920   1.37224
 Alpha virt. eigenvalues --    1.40273   1.41094   1.42161   1.43708   1.46837
 Alpha virt. eigenvalues --    1.48072   1.48615   1.49704   1.50821   1.51382
 Alpha virt. eigenvalues --    1.52466   1.53587   1.54862   1.56977   1.57814
 Alpha virt. eigenvalues --    1.60049   1.61177   1.63854   1.66575   1.70117
 Alpha virt. eigenvalues --    1.71047   1.72103   1.74535   1.74637   1.76188
 Alpha virt. eigenvalues --    1.77657   1.78422   1.79693   1.81621   1.83526
 Alpha virt. eigenvalues --    1.85477   1.88136   1.90368   1.90875   1.91172
 Alpha virt. eigenvalues --    1.93065   1.93894   1.95803   1.97037   1.97379
 Alpha virt. eigenvalues --    2.00313   2.04252   2.05812   2.08613   2.10688
 Alpha virt. eigenvalues --    2.13809   2.14848   2.15976   2.18471   2.21640
 Alpha virt. eigenvalues --    2.23254   2.24544   2.25908   2.27631   2.28406
 Alpha virt. eigenvalues --    2.29262   2.30884   2.31563   2.33472   2.35301
 Alpha virt. eigenvalues --    2.35595   2.37067   2.38771   2.39288   2.39898
 Alpha virt. eigenvalues --    2.40900   2.41869   2.41951   2.42368   2.44511
 Alpha virt. eigenvalues --    2.46300   2.49467   2.49842   2.50429   2.53854
 Alpha virt. eigenvalues --    2.58701   2.65657   2.67400   2.68140   2.69460
 Alpha virt. eigenvalues --    2.71702   2.74658   2.75548   2.76315   2.80430
 Alpha virt. eigenvalues --    2.81989   2.83484   2.84619   2.86611   2.88846
 Alpha virt. eigenvalues --    2.91255   2.94934   2.95437   3.03712   3.07198
 Alpha virt. eigenvalues --    3.09167   3.12908   3.15059   3.16518   3.18362
 Alpha virt. eigenvalues --    3.20759   3.24932   3.28220   3.30397   3.34556
 Alpha virt. eigenvalues --    3.35380   3.37068   3.37621   3.39332   3.40664
 Alpha virt. eigenvalues --    3.45447   3.48355   3.50881   3.51429   3.52607
 Alpha virt. eigenvalues --    3.56531   3.58010   3.60849   3.61678   3.63047
 Alpha virt. eigenvalues --    3.64491   3.65989   3.67348   3.69875   3.74627
 Alpha virt. eigenvalues --    3.76464   3.79117   3.80010   3.83835   3.85962
 Alpha virt. eigenvalues --    3.88939   3.90809   4.05559   4.20612   4.21823
 Alpha virt. eigenvalues --    4.22565   4.23394   4.24402   4.24837   4.26484
 Alpha virt. eigenvalues --    4.27952   4.31442   4.39072   4.50400   4.78884
 Alpha virt. eigenvalues --    4.79227   4.79575   5.03531   5.04425   5.05883
 Alpha virt. eigenvalues --    5.06982   5.10315   5.10537   5.14551   5.28941
 Alpha virt. eigenvalues --    5.30624   5.33513   5.35448   5.53941   5.56213
 Alpha virt. eigenvalues --    5.60073   6.75609   6.76460   6.76914   6.84201
 Alpha virt. eigenvalues --    6.84615   6.84769   6.85698   6.93601   6.94552
 Alpha virt. eigenvalues --    7.03683   7.16416   7.17579   7.24130   7.38985
 Alpha virt. eigenvalues --    7.39430   8.39613  17.54527  17.55920  17.60171
 Alpha virt. eigenvalues --   23.88388  23.92400  23.99006  24.04468  24.06601
 Alpha virt. eigenvalues --   24.09608  35.43077  49.92526  49.94113  50.00723
 Alpha virt. eigenvalues --  189.53341
          Condensed to atoms (all electrons):
               1          2          3          4          5          6
     1  C    5.236876   0.414805   0.403120   0.422715  -0.156891   0.001095
     2  H    0.414805   0.465662  -0.019884  -0.021551  -0.009256   0.001614
     3  H    0.403120  -0.019884   0.468756  -0.019619   0.028364   0.000274
     4  H    0.422715  -0.021551  -0.019619   0.467763  -0.009987  -0.000776
     5  C   -0.156891  -0.009256   0.028364  -0.009987   6.476385   0.449846
     6  H    0.001095   0.001614   0.000274  -0.000776   0.449846   0.478673
     7  H   -0.004315  -0.000838   0.000272   0.001723   0.438428  -0.026197
     8  C   -0.098836   0.016570  -0.019531  -0.015618  -0.245787   0.009442
     9  H    0.010066  -0.000358   0.000152   0.000111  -0.026308  -0.000063
    10  H   -0.011955   0.000199   0.001205  -0.000186   0.021281  -0.000147
    11  H   -0.011423   0.000025   0.000156   0.001637   0.000615   0.000326
    12  C   -0.105910  -0.016792  -0.016841   0.016578  -0.191304  -0.015917
    13  H   -0.012678  -0.000147   0.001153   0.000178   0.021512   0.000068
    14  H    0.011250   0.000120   0.000146  -0.000333  -0.023335  -0.000126
    15  H   -0.011122   0.001449   0.000178   0.000012  -0.010053   0.000440
    16  C   -0.056055  -0.003652   0.003638  -0.011449  -0.519100  -0.058600
    17  H    0.000502   0.000014   0.000002   0.000049  -0.069465   0.005370
    18  H   -0.000722   0.000040   0.000005   0.000010  -0.062592  -0.005930
    19  C   -0.019427  -0.001182   0.000377  -0.000663   0.011379  -0.006749
    20  H   -0.000026  -0.000001  -0.000001   0.000000   0.017861  -0.000139
    21  H    0.000412   0.000021   0.000001   0.000004   0.004177   0.003400
    22  N    0.292188  -0.021155  -0.022546  -0.023517   0.044761  -0.017521
    23  S    0.004381   0.000185   0.000014  -0.000474   0.014537  -0.002261
    24  O    0.001874   0.000001  -0.000002   0.000031   0.014245  -0.000140
    25  O    0.001507   0.000059  -0.000011  -0.000120   0.079018  -0.000835
    26  O    0.000015   0.000000  -0.000000  -0.000003  -0.009622   0.000204
               7          8          9         10         11         12
     1  C   -0.004315  -0.098836   0.010066  -0.011955  -0.011423  -0.105910
     2  H   -0.000838   0.016570  -0.000358   0.000199   0.000025  -0.016792
     3  H    0.000272  -0.019531   0.000152   0.001205   0.000156  -0.016841
     4  H    0.001723  -0.015618   0.000111  -0.000186   0.001637   0.016578
     5  C    0.438428  -0.245787  -0.026308   0.021281   0.000615  -0.191304
     6  H   -0.026197   0.009442  -0.000063  -0.000147   0.000326  -0.015917
     7  H    0.470155  -0.019216  -0.000278   0.000100   0.000126   0.008524
     8  C   -0.019216   5.310849   0.405995   0.402524   0.407792  -0.166220
     9  H   -0.000278   0.405995   0.469420  -0.019572  -0.021139  -0.008615
    10  H    0.000100   0.402524  -0.019572   0.468902  -0.019496  -0.017017
    11  H    0.000126   0.407792  -0.021139  -0.019496   0.459081   0.013246
    12  C    0.008524  -0.166220  -0.008615  -0.017017   0.013246   5.316415
    13  H   -0.000160  -0.018740   0.000141   0.001137   0.000158   0.404959
    14  H   -0.000060  -0.007579   0.002100   0.000013   0.000218   0.407357
    15  H    0.000222   0.013290   0.000185   0.000161  -0.000305   0.406614
    16  C   -0.049221   0.032667   0.014114   0.004466  -0.010907  -0.049808
    17  H   -0.005312  -0.003508  -0.000866   0.000097   0.000439   0.005104
    18  H    0.005044   0.003133  -0.000825  -0.000083  -0.000004  -0.000918
    19  C    0.013067  -0.038444   0.009764   0.000033   0.000029  -0.012812
    20  H   -0.000490   0.000885   0.000020  -0.000000  -0.000003   0.001121
    21  H    0.000405  -0.000665  -0.000013   0.000001   0.000003   0.000930
    22  N   -0.020960   0.304630  -0.027103  -0.021282  -0.018017   0.305344
    23  S   -0.005472   0.003571   0.000048  -0.000047  -0.000478  -0.003955
    24  O   -0.002066   0.000778  -0.000224  -0.000011  -0.000136   0.000474
    25  O   -0.002243   0.000122   0.000018  -0.000013  -0.000383   0.000624
    26  O    0.000176   0.000395   0.000003  -0.000000   0.000008  -0.000298
              13         14         15         16         17         18
     1  C   -0.012678   0.011250  -0.011122  -0.056055   0.000502  -0.000722
     2  H   -0.000147   0.000120   0.001449  -0.003652   0.000014   0.000040
     3  H    0.001153   0.000146   0.000178   0.003638   0.000002   0.000005
     4  H    0.000178  -0.000333   0.000012  -0.011449   0.000049   0.000010
     5  C    0.021512  -0.023335  -0.010053  -0.519100  -0.069465  -0.062592
     6  H    0.000068  -0.000126   0.000440  -0.058600   0.005370  -0.005930
     7  H   -0.000160  -0.000060   0.000222  -0.049221  -0.005312   0.005044
     8  C   -0.018740  -0.007579   0.013290   0.032667  -0.003508   0.003133
     9  H    0.000141   0.002100   0.000185   0.014114  -0.000866  -0.000825
    10  H    0.001137   0.000013   0.000161   0.004466   0.000097  -0.000083
    11  H    0.000158   0.000218  -0.000305  -0.010907   0.000439  -0.000004
    12  C    0.404959   0.407357   0.406614  -0.049808   0.005104  -0.000918
    13  H    0.469350  -0.020297  -0.019997   0.003793  -0.000084   0.000145
    14  H   -0.020297   0.473049  -0.021595   0.006447  -0.000477  -0.001181
    15  H   -0.019997  -0.021595   0.461801   0.000744   0.000044   0.000001
    16  C    0.003793   0.006447   0.000744   6.278520   0.460413   0.442361
    17  H   -0.000084  -0.000477   0.000044   0.460413   0.520539  -0.035105
    18  H    0.000145  -0.001181   0.000001   0.442361  -0.035105   0.537011
    19  C   -0.000090   0.009302  -0.001655  -0.358584  -0.041082  -0.028606
    20  H   -0.000002  -0.000002  -0.000004  -0.041423  -0.003302  -0.008372
    21  H   -0.000005  -0.000006   0.000023  -0.061165   0.005760  -0.003938
    22  N   -0.019474  -0.026562  -0.015380  -0.006602   0.003311   0.008861
    23  S    0.000002   0.000052   0.000090  -0.023370  -0.010078   0.001089
    24  O   -0.000001   0.000002  -0.000006   0.019659   0.000572  -0.000390
    25  O   -0.000002  -0.000019  -0.000001  -0.062715  -0.000216  -0.000661
    26  O   -0.000000   0.000002   0.000001   0.033059   0.000870  -0.000639
              19         20         21         22         23         24
     1  C   -0.019427  -0.000026   0.000412   0.292188   0.004381   0.001874
     2  H   -0.001182  -0.000001   0.000021  -0.021155   0.000185   0.000001
     3  H    0.000377  -0.000001   0.000001  -0.022546   0.000014  -0.000002
     4  H   -0.000663   0.000000   0.000004  -0.023517  -0.000474   0.000031
     5  C    0.011379   0.017861   0.004177   0.044761   0.014537   0.014245
     6  H   -0.006749  -0.000139   0.003400  -0.017521  -0.002261  -0.000140
     7  H    0.013067  -0.000490   0.000405  -0.020960  -0.005472  -0.002066
     8  C   -0.038444   0.000885  -0.000665   0.304630   0.003571   0.000778
     9  H    0.009764   0.000020  -0.000013  -0.027103   0.000048  -0.000224
    10  H    0.000033  -0.000000   0.000001  -0.021282  -0.000047  -0.000011
    11  H    0.000029  -0.000003   0.000003  -0.018017  -0.000478  -0.000136
    12  C   -0.012812   0.001121   0.000930   0.305344  -0.003955   0.000474
    13  H   -0.000090  -0.000002  -0.000005  -0.019474   0.000002  -0.000001
    14  H    0.009302  -0.000002  -0.000006  -0.026562   0.000052   0.000002
    15  H   -0.001655  -0.000004   0.000023  -0.015380   0.000090  -0.000006
    16  C   -0.358584  -0.041423  -0.061165  -0.006602  -0.023370   0.019659
    17  H   -0.041082  -0.003302   0.005760   0.003311  -0.010078   0.000572
    18  H   -0.028606  -0.008372  -0.003938   0.008861   0.001089  -0.000390
    19  C    6.411526   0.399517   0.436864  -0.059090   0.264697  -0.102348
    20  H    0.399517   0.492541  -0.025956  -0.000324  -0.034558  -0.003786
    21  H    0.436864  -0.025956   0.480864  -0.001104  -0.039036   0.002443
    22  N   -0.059090  -0.000324  -0.001104   6.396869   0.005957   0.000444
    23  S    0.264697  -0.034558  -0.039036   0.005957  13.308430   0.380045
    24  O   -0.102348  -0.003786   0.002443   0.000444   0.380045   8.513835
    25  O   -0.101478   0.002406   0.000750  -0.002621   0.416266  -0.041266
    26  O   -0.132214   0.010607   0.002643  -0.000067   0.393691  -0.020881
              25         26
     1  C    0.001507   0.000015
     2  H    0.000059   0.000000
     3  H   -0.000011  -0.000000
     4  H   -0.000120  -0.000003
     5  C    0.079018  -0.009622
     6  H   -0.000835   0.000204
     7  H   -0.002243   0.000176
     8  C    0.000122   0.000395
     9  H    0.000018   0.000003
    10  H   -0.000013  -0.000000
    11  H   -0.000383   0.000008
    12  C    0.000624  -0.000298
    13  H   -0.000002  -0.000000
    14  H   -0.000019   0.000002
    15  H   -0.000001   0.000001
    16  C   -0.062715   0.033059
    17  H   -0.000216   0.000870
    18  H   -0.000661  -0.000639
    19  C   -0.101478  -0.132214
    20  H    0.002406   0.010607
    21  H    0.000750   0.002643
    22  N   -0.002621  -0.000067
    23  S    0.416266   0.393691
    24  O   -0.041266  -0.020881
    25  O    8.516835  -0.037275
    26  O   -0.037275   8.520655
 Mulliken charges:
               1
     1  C   -0.311445
     2  H    0.194052
     3  H    0.190620
     4  H    0.193484
     5  C   -0.288707
     6  H    0.184648
     7  H    0.198582
     8  C   -0.278499
     9  H    0.193229
    10  H    0.189690
    11  H    0.198434
    12  C   -0.280881
    13  H    0.189081
    14  H    0.191514
    15  H    0.194861
    16  C    0.012770
    17  H    0.166407
    18  H    0.152268
    19  C   -0.652130
    20  H    0.193428
    21  H    0.193186
    22  N   -0.059040
    23  S    1.326674
    24  O   -0.763146
    25  O   -0.767747
    26  O   -0.761331
 Sum of Mulliken charges =  -0.00000
 Mulliken charges with hydrogens summed into heavy atoms:
               1
     1  C    0.266710
     5  C    0.094523
     8  C    0.302854
    12  C    0.294576
    16  C    0.331444
    19  C   -0.265517
    22  N   -0.059040
    23  S    1.326674
    24  O   -0.763146
    25  O   -0.767747
    26  O   -0.761331
 Electronic spatial extent (au):  <R**2>=           2737.1893
 Charge=             -0.0000 electrons
 Dipole moment (field-independent basis, Debye):
    X=            -26.2196    Y=              4.5020    Z=             -1.5334  Tot=             26.6474
 Quadrupole moment (field-independent basis, Debye-Ang):
   XX=            -86.4472   YY=            -73.1875   ZZ=            -77.7190
   XY=              7.9099   XZ=             -1.4786   YZ=             -1.9021
 Traceless Quadrupole moment (field-independent basis, Debye-Ang):
   XX=             -7.3293   YY=              5.9304   ZZ=              1.3989
   XY=              7.9099   XZ=             -1.4786   YZ=             -1.9021
 Octapole moment (field-independent basis, Debye-Ang**2):
  XXX=           -279.1192  YYY=             12.2291  ZZZ=            -11.0364  XYY=            -25.5774
  XXY=              1.4484  XXZ=              3.1223  XZZ=            -37.0669  YZZ=              3.4651
  YYZ=              3.0136  XYZ=             -1.8343
 Hexadecapole moment (field-independent basis, Debye-Ang**3):
 XXXX=          -2862.5601 YYYY=           -431.6470 ZZZZ=           -371.4824 XXXY=              5.9861
 XXXZ=             33.6554 YYYX=             24.5660 YYYZ=             -3.4826 ZZZX=            -23.7533
 ZZZY=             -1.8340 XXYY=           -501.9492 XXZZ=           -532.3393 YYZZ=           -136.8887
 XXYZ=             -0.0491 YYXZ=             11.0048 ZZXY=             10.5930
 N-N= 8.234247114297D+02 E-N=-3.804478233937D+03  KE= 9.136913038031D+02
 No NMR shielding tensors so no spin-rotation constants.
 Leave Link  601 at Wed Oct 11 15:08:51 2023, MaxMem=  6710886400 cpu:               3.8 elap:               0.2
 (Enter /data0/home/software/g16/l701.exe)
 ... and contract with generalized density number  0.
 Compute integral first derivatives.
 R6Disp: Adding Grimme-D3(BJ) dispersion energy 1st derivatives to the gradient.
 D1PCM: PCM CHGder 1st derivatives, ID1Alg=3 FixD1E=F DoIter=F DoCFld=F I1PDM=0.
 GePol: Maximum number of non-zero 1st derivatives   =     366
 Leave Link  701 at Wed Oct 11 15:08:52 2023, MaxMem=  6710886400 cpu:              22.0 elap:               0.9
 (Enter /data0/home/software/g16/l702.exe)
 L702 exits ... SP integral derivatives will be done elsewhere.
 Leave Link  702 at Wed Oct 11 15:08:52 2023, MaxMem=  6710886400 cpu:               0.4 elap:               0.0
 (Enter /data0/home/software/g16/l703.exe)
 Integral derivatives from FoFJK, PRISM(SPDF).
 Compute integral first derivatives, UseDBF=F ICtDFT=           0.
 Calling FoFJK, ICntrl=      2127 FMM=F ISym2X=0 I1Cent= 0 IOpClX= 0 NMat=1 NMatS=1 NMatT=0.
 FoFJK:  IHMeth= 1 ICntrl=    2127 DoSepK=F KAlg= 0 I1Cent=           0 FoldK=F
 IRaf=         0 NMat=       1 IRICut=       1 DoRegI=T DoRafI=F ISym2E= 0 IDoP0=0 IntGTp=1.
 FoFCou: FMM=F IPFlag=           0 FMFlag=      100000 FMFlg1=         800
         NFxFlg=           0 DoJE=F BraDBF=F KetDBF=F FulRan=T
         wScrn=  0.000000 ICntrl=      2127 IOpCl=  0 I1Cent=           0 NGrid=           0
         NMat0=    1 NMatS0=      1 NMatT0=    0 NMatD0=    1 NMtDS0=    0 NMtDT0=    0
 Symmetry not used in FoFCou.
 Leave Link  703 at Wed Oct 11 15:09:00 2023, MaxMem=  6710886400 cpu:             188.5 elap:               7.9
 (Enter /data0/home/software/g16/l716.exe)
 Dipole        =-1.03155708D+01 1.77122250D+00-6.03305657D-01
 ***** Axes restored to original set *****
 -------------------------------------------------------------------
 Center     Atomic                   Forces (Hartrees/Bohr)
 Number     Number              X              Y              Z
 -------------------------------------------------------------------
      1        6           0.000468833    0.000723991    0.000450548
      2        1           0.000246546    0.000297751    0.000394322
      3        1           0.000377588    0.000412879    0.000210315
      4        1           0.000160285    0.000513207    0.000163716
      5        6          -0.000292310    0.000186824    0.000333305
      6        1          -0.000410652   -0.000041678    0.000385512
      7        1          -0.000518645    0.000149465    0.000102074
      8        6           0.000172357    0.000243458   -0.000915136
      9        1           0.000062259   -0.000008743   -0.000485340
     10        1           0.000186005    0.000058116   -0.000491952
     11        1          -0.000100835    0.000209745   -0.000422793
     12        6           0.000638604   -0.000707820    0.000187169
     13        1           0.000381272   -0.000374425   -0.000010073
     14        1           0.000242117   -0.000413124   -0.000017797
     15        1           0.000159852   -0.000377632    0.000239702
     16        6          -0.000298263   -0.000582701   -0.000261135
     17        1          -0.000196414    0.000011039   -0.000219791
     18        1           0.000008730   -0.000186088    0.000012620
     19        6           0.000224555   -0.000890225    0.000415876
     20        1          -0.000317376   -0.000115474   -0.000065535
     21        1          -0.000138973    0.000002329    0.000259978
     22        7           0.000011628   -0.000010964   -0.000013037
     23       16          -0.001207440    0.000850358   -0.000209509
     24        8           0.000306855   -0.000136201   -0.000826527
     25        8           0.000481587    0.000574165    0.000427058
     26        8          -0.000648164   -0.000388249    0.000356431
 -------------------------------------------------------------------
 Cartesian Forces:  Max     0.001207440 RMS     0.000399416
 Leave Link  716 at Wed Oct 11 15:09:00 2023, MaxMem=  6710886400 cpu:               0.5 elap:               0.0
 (Enter /data0/home/software/g16/l103.exe)

 GradGradGradGradGradGradGradGradGradGradGradGradGradGradGradGradGradGrad
 Berny optimization.
 FormGI is forming the generalized inverse of G from B-inverse, IUseBI=4.
 Internal  Forces:  Max     0.003107715 RMS     0.000585000
 Search for a local minimum.
 Step number   1 out of a maximum of  146
 All quantities printed in internal units (Hartrees-Bohrs-Radians)
 RMS Force = .58500D-03 SwitMx=.10000D-02 MixMth= 2
 Mixed Optimization -- En-DIIS/RFO-DIIS
 Second derivative matrix not updated -- first step.
 ITU=  0
     Eigenvalues ---    0.00230   0.00230   0.00331   0.00358   0.00361
     Eigenvalues ---    0.00395   0.00473   0.03340   0.03389   0.03689
     Eigenvalues ---    0.04367   0.04734   0.04781   0.04923   0.05012
     Eigenvalues ---    0.05068   0.05861   0.05874   0.05934   0.05945
     Eigenvalues ---    0.05988   0.05993   0.08206   0.08684   0.08686
     Eigenvalues ---    0.09634   0.09941   0.12091   0.12417   0.12420
     Eigenvalues ---    0.14236   0.14590   0.16000   0.16000   0.16000
     Eigenvalues ---    0.16000   0.16000   0.16000   0.16000   0.16000
     Eigenvalues ---    0.16000   0.21924   0.22030   0.22039   0.25000
     Eigenvalues ---    0.25000   0.25000   0.25244   0.29606   0.30162
     Eigenvalues ---    0.30251   0.32080   0.32290   0.32313   0.34678
     Eigenvalues ---    0.34700   0.34824   0.34825   0.34828   0.35067
     Eigenvalues ---    0.35081   0.35094   0.35097   0.35097   0.35103
     Eigenvalues ---    0.35111   0.35179   0.35307   0.35310   0.82365
     Eigenvalues ---    0.82614   0.82712
 RFO step:  Lambda=-1.78308146D-04 EMin= 2.30000000D-03
 Linear search not attempted -- first point.
 Iteration  1 RMS(Cart)=  0.01023535 RMS(Int)=  0.00002031
 Iteration  2 RMS(Cart)=  0.00002444 RMS(Int)=  0.00000487
 Iteration  3 RMS(Cart)=  0.00000000 RMS(Int)=  0.00000487
 ITry= 1 IFail=0 DXMaxC= 3.84D-02 DCOld= 1.00D+10 DXMaxT= 3.00D-01 DXLimC= 3.00D+00 Rises=F
 Variable       Old X    -DE/DX   Delta X   Delta X   Delta X     New X
                                 (Linear)    (Quad)   (Total)
    R1        2.05517  -0.00032   0.00000  -0.00090  -0.00090   2.05426
    R2        2.05495  -0.00033   0.00000  -0.00093  -0.00093   2.05402
    R3        2.05518  -0.00032   0.00000  -0.00091  -0.00091   2.05427
    R4        2.83997  -0.00261   0.00000  -0.00814  -0.00814   2.83183
    R5        2.05954  -0.00036   0.00000  -0.00104  -0.00104   2.05850
    R6        2.05386  -0.00033   0.00000  -0.00093  -0.00093   2.05293
    R7        2.87642  -0.00164   0.00000  -0.00545  -0.00545   2.87097
    R8        2.87466  -0.00311   0.00000  -0.01027  -0.01027   2.86439
    R9        2.05175  -0.00023   0.00000  -0.00065  -0.00065   2.05110
   R10        2.05508  -0.00031   0.00000  -0.00089  -0.00089   2.05419
   R11        2.05544  -0.00030   0.00000  -0.00086  -0.00086   2.05457
   R12        2.83617  -0.00238   0.00000  -0.00737  -0.00737   2.82880
   R13        2.05523  -0.00031   0.00000  -0.00088  -0.00088   2.05435
   R14        2.05180  -0.00023   0.00000  -0.00065  -0.00065   2.05115
   R15        2.05566  -0.00030   0.00000  -0.00085  -0.00085   2.05481
   R16        2.83574  -0.00237   0.00000  -0.00732  -0.00732   2.82842
   R17        2.05962  -0.00023   0.00000  -0.00066  -0.00066   2.05896
   R18        2.06164  -0.00017   0.00000  -0.00050  -0.00050   2.06115
   R19        2.88756  -0.00134   0.00000  -0.00452  -0.00452   2.88304
   R20        2.05960  -0.00026   0.00000  -0.00075  -0.00075   2.05885
   R21        2.06201  -0.00026   0.00000  -0.00075  -0.00075   2.06126
   R22        3.42292  -0.00139   0.00000  -0.00548  -0.00548   3.41743
   R23        2.80365  -0.00083   0.00000  -0.00100  -0.00100   2.80264
   R24        2.80236  -0.00082   0.00000  -0.00100  -0.00100   2.80136
   R25        2.80185  -0.00081   0.00000  -0.00098  -0.00098   2.80087
    A1        1.92464   0.00050   0.00000   0.00324   0.00324   1.92788
    A2        1.92607   0.00044   0.00000   0.00249   0.00248   1.92856
    A3        1.89560  -0.00047   0.00000  -0.00300  -0.00300   1.89260
    A4        1.92545   0.00051   0.00000   0.00330   0.00329   1.92874
    A5        1.89486  -0.00054   0.00000  -0.00326  -0.00326   1.89159
    A6        1.89645  -0.00048   0.00000  -0.00308  -0.00309   1.89337
    A7        1.89555  -0.00014   0.00000   0.00334   0.00332   1.89887
    A8        1.92570   0.00059   0.00000   0.00371   0.00369   1.92939
    A9        1.84648   0.00023   0.00000  -0.00169  -0.00168   1.84480
   A10        1.93771   0.00064   0.00000   0.00445   0.00443   1.94213
   A11        1.84214   0.00023   0.00000  -0.00142  -0.00141   1.84073
   A12        2.01029  -0.00154   0.00000  -0.00832  -0.00832   2.00198
   A13        1.91510   0.00047   0.00000   0.00328   0.00328   1.91838
   A14        1.92835   0.00040   0.00000   0.00235   0.00235   1.93070
   A15        1.90926  -0.00044   0.00000  -0.00268  -0.00268   1.90658
   A16        1.92579   0.00038   0.00000   0.00222   0.00221   1.92800
   A17        1.88947  -0.00046   0.00000  -0.00278  -0.00278   1.88668
   A18        1.89526  -0.00039   0.00000  -0.00261  -0.00262   1.89264
   A19        1.91422   0.00047   0.00000   0.00323   0.00322   1.91744
   A20        1.92509   0.00038   0.00000   0.00215   0.00214   1.92723
   A21        1.88871  -0.00047   0.00000  -0.00289  -0.00289   1.88582
   A22        1.92832   0.00039   0.00000   0.00238   0.00237   1.93069
   A23        1.91166  -0.00043   0.00000  -0.00260  -0.00260   1.90907
   A24        1.89527  -0.00037   0.00000  -0.00248  -0.00248   1.89279
   A25        1.94297   0.00003   0.00000  -0.00029  -0.00029   1.94268
   A26        1.92396   0.00007   0.00000  -0.00040  -0.00040   1.92356
   A27        1.95065  -0.00042   0.00000  -0.00197  -0.00197   1.94868
   A28        1.87701  -0.00007   0.00000   0.00007   0.00006   1.87707
   A29        1.90487   0.00027   0.00000   0.00211   0.00211   1.90698
   A30        1.86114   0.00014   0.00000   0.00062   0.00062   1.86175
   A31        1.91935  -0.00004   0.00000  -0.00034  -0.00034   1.91901
   A32        1.95948  -0.00004   0.00000  -0.00154  -0.00154   1.95793
   A33        2.01023  -0.00028   0.00000  -0.00136  -0.00136   2.00887
   A34        1.89326  -0.00001   0.00000   0.00059   0.00059   1.89385
   A35        1.82421   0.00024   0.00000   0.00253   0.00253   1.82674
   A36        1.84922   0.00015   0.00000   0.00050   0.00050   1.84972
   A37        1.87488   0.00003   0.00000   0.00006   0.00006   1.87494
   A38        1.89670   0.00004   0.00000   0.00121   0.00121   1.89792
   A39        1.89579   0.00004   0.00000   0.00130   0.00129   1.89708
   A40        1.93691  -0.00009   0.00000  -0.00161  -0.00161   1.93530
   A41        1.94530  -0.00009   0.00000  -0.00152  -0.00152   1.94378
   A42        1.91284   0.00008   0.00000   0.00068   0.00068   1.91352
   A43        1.85449   0.00058   0.00000   0.00246   0.00245   1.85695
   A44        1.87323   0.00038   0.00000   0.00162   0.00162   1.87485
   A45        1.83264   0.00025   0.00000   0.00079   0.00079   1.83342
   A46        1.96179  -0.00034   0.00000  -0.00089  -0.00089   1.96090
[...]
 .00560300,0.00089200,0.00096616,0.00056962,0.00102325,0.00048296,0.000
 28535,0.00025490,-0.00002771,-0.00035456,-0.00005953,0.00010465,0.0000
 9742,0.00002884,0.00004900,0.00012300,-0.00002045,-0.00002614,0.000021
 44,0.00029582,-0.00014616,0.00001763,-0.00001334,-0.00004005,0.0000032
 5,0.00001387,-0.00002399,-0.00004522,-0.00000430,0.00002256,-0.0000021
 7,-0.16193329,-0.00573867,0.03763102,0.00041589,0.00109188,0.00231975,
 -0.01948060,0.00000115,0.00851902,0.43953061,-0.00117034,0.00048500,0.
 00079251,0.00000728,-0.00000055,-0.00004284,-0.00028004,-0.00040092,-0
 .00027956,0.00000729,-0.00001901,0.00001640,-0.02368339,-0.00050724,0.
 01149841,0.00004963,0.00093996,0.00037414,0.00066304,0.00048785,0.0005
 0763,0.00006251,0.00010645,-0.00083987,0.00004378,-0.00003267,0.000054
 63,-0.00003513,-0.00003039,0.00009018,0.00002537,0.00002550,0.00006282
 ,0.00077987,-0.00082966,-0.00016970,-0.00004877,0.00030055,0.00005662,
 -0.00009740,0.00034808,0.00023135,-0.00004070,0.00005119,-0.00001861,-
 0.01313425,-0.07413028,0.00361270,-0.00396389,-0.00071940,0.00108116,0
 .02658485,0.00135184,-0.01193845,0.08432820,0.46301688,-0.00086773,0.0
 0046926,0.00082794,0.00000311,0.00000580,-0.00001758,-0.00023789,-0.00
 038986,-0.00021704,0.00001684,-0.00003163,-0.00001038,-0.00953760,0.00
 383504,0.00549624,-0.00125417,-0.00016473,0.00079752,0.00023795,0.0000
 1083,0.00040118,0.00037205,-0.00002662,-0.00118760,0.00001724,0.000298
 82,0.00028976,0.00006504,0.00013356,0.00030451,-0.00001617,-0.00004753
 ,0.00005144,0.00019004,-0.00058416,0.00025644,-0.00011050,-0.00000188,
 -0.00005410,0.00008023,-0.00007246,-0.00013033,0.00001874,0.00005384,0
 .00000516,0.04146223,0.00154222,-0.09671548,0.03245395,0.00099558,-0.0
 1297142,-0.00447380,-0.00081287,0.00149463,0.00678339,0.05501466,0.564
 69104,-0.00047418,0.00032757,0.00045624,0.00000541,-0.00000835,-0.0000
 1393,-0.00013612,-0.00019745,-0.00012993,0.00000295,-0.00000343,-0.000
 00413,-0.00322958,0.00172895,0.00399455,0.00001451,0.00030690,0.000062
 24,0.00001095,-0.00008735,0.00007112,-0.00003113,0.00009829,-0.0004309
 0,0.00004423,-0.00000226,-0.00000086,-0.00002544,-0.00002366,0.0000859
 3,0.00000822,0.00000238,0.00002730,0.00021202,-0.00035035,0.00010911,-
 0.00006229,0.00006339,-0.00001704,0.00002819,0.00001642,-0.00001294,-0
 .00000393,0.00002746,-0.00000273,-0.01622649,-0.02403060,-0.00967507,0
 .00095154,0.00014224,0.00022086,0.00137256,-0.00014849,-0.00066728,-0.
 09802639,-0.10212581,-0.04049443,0.11302709,0.00003603,0.00001354,0.00
 000501,0.00000022,-0.00000152,0.00000064,0.00001852,0.00000572,0.00000
 345,0.00000127,-0.00000290,-0.00000296,0.00034271,0.00107126,0.0000836
 0,0.00001606,-0.00008687,-0.00007509,0.00022300,0.00016702,0.00005090,
 -0.00000110,0.00000241,0.00000257,0.00000141,0.00000001,-0.00000313,0.
 00000294,0.00000217,-0.00000418,0.00000120,-0.00000011,-0.00000144,-0.
 00004020,-0.00000726,0.00000964,-0.00000145,0.00000484,-0.00000102,0.0
 0000871,-0.00000582,0.00000124,0.00000055,-0.00000017,-0.00000069,0.00
 053547,0.00004260,0.00034314,-0.00006067,-0.00001390,0.00005335,0.0001
 1456,0.00119889,0.00009874,-0.10397880,-0.23492436,-0.07436892,0.10813
 422,0.25171952,0.00019656,-0.00007422,-0.00013571,-0.00000162,-0.00000
 237,-0.00000115,0.00004971,0.00007110,0.00003791,-0.00000291,-0.000001
 14,-0.00000081,0.00157127,-0.00053939,-0.00104388,0.00010547,0.0001134
 8,0.00028238,-0.00007317,-0.00009879,-0.00010393,-0.00006346,-0.000030
 85,0.00015579,-0.00000916,-0.00000675,-0.00001079,0.00000360,-0.000002
 09,-0.00000890,-0.00000122,-0.00000150,-0.00000625,-0.00004565,0.00010
 444,-0.00002390,0.00001805,-0.00002427,0.00000034,-0.00001338,-0.00001
 374,-0.00000472,0.00000324,-0.00000777,-0.00000052,0.00745644,0.012004
 85,0.00405082,-0.00067541,0.00013958,0.00043084,-0.00075406,-0.0000565
 6,0.00053508,-0.04002978,-0.07479733,-0.07561570,0.04179389,0.07996271
 ,0.07727950,0.00002333,0.00000912,-0.00001670,-0.00000281,-0.00000565,
 -0.00000351,0.00000130,0.00000922,0.00000198,-0.00000262,0.00000592,-0
 .00000075,0.00151359,0.00031784,0.00122821,-0.00007635,-0.00006050,-0.
 00052241,-0.00008674,-0.00012132,-0.00005830,-0.00013840,0.00007787,0.
 00019664,0.00002644,-0.00010693,-0.00013580,-0.00004676,-0.00007991,-0
 .00007788,0.00001200,0.00001925,-0.00000031,0.00001157,0.00003287,0.00
 002786,-0.00000579,-0.00000883,-0.00000821,0.00003203,-0.00002796,-0.0
 0000516,-0.00000015,0.00000209,-0.00000436,0.00037962,-0.00187151,0.03
 109418,-0.00559201,-0.00039173,0.00196515,0.00103739,0.00016402,-0.000
 70563,-0.04661199,0.00052426,-0.00900141,-0.00057967,0.00125270,-0.012
 72104,0.05268403,0.00003281,-0.00005372,-0.00006056,-0.00000260,0.0000
 0240,-0.00000296,0.00002199,0.00002149,0.00000678,0.00000213,0.0000005
 6,0.00000300,-0.00015308,-0.00014994,0.00079358,-0.00001516,0.00006940
 ,-0.00000200,0.00003569,0.00000291,-0.00000029,-0.00001149,-0.00003734
 ,0.00005509,-0.00000773,0.00000290,-0.00000658,0.00000348,-0.00000222,
 -0.00001166,-0.00000003,0.00000064,-0.00000367,-0.00001062,0.00005102,
 -0.00002197,0.00001304,-0.00000965,0.00000600,-0.00000348,0.00000280,0
 .00000352,-0.00000301,-0.00000237,0.00000041,-0.00039586,-0.00016707,0
 .00134113,0.00006423,0.00076519,0.00055700,-0.00012037,0.00006137,-0.0
 0017924,-0.00117270,-0.04515415,0.00199730,-0.00066607,0.00249082,-0.0
 2638196,-0.00125218,0.04657524,0.00003787,-0.00001896,-0.00003236,-0.0
 0000015,-0.00000022,-0.00000155,0.00000735,0.00001358,0.00000442,-0.00
 000150,-0.00000283,-0.00000019,-0.00096333,-0.00048654,0.00046389,0.00
 038439,0.00045569,0.00032570,0.00006237,0.00004085,-0.00002180,-0.0001
 0200,-0.00009960,-0.00002348,-0.00000558,0.00004715,0.00002795,0.00000
 144,0.00000456,0.00005212,-0.00000243,0.00000174,-0.00000091,0.0000058
 6,-0.00000583,-0.00003428,0.00000505,0.00000668,0.00000784,-0.00002114
 ,0.00002198,0.00000694,0.00000155,-0.00000033,0.00000528,0.00072471,0.
 00064777,-0.01088987,0.00202254,-0.00025146,0.00043794,0.00006794,-0.0
 0017572,0.00036015,-0.00796599,0.00211166,-0.31546317,-0.00035046,0.00
 036664,-0.00789420,0.00670084,-0.00276590,0.33903256,-0.09864605,-0.02
 002435,-0.01256317,-0.00239411,-0.00081472,-0.00085570,-0.01595172,-0.
 02912523,-0.01965738,0.00600480,0.01138618,0.00847871,-0.11691352,0.00
 513805,0.01538276,-0.00864256,0.00070779,0.00280522,-0.02522937,-0.000
 74483,0.00999339,-0.09097109,-0.00074812,-0.00036619,-0.00017030,0.004
 95744,-0.01402292,-0.00031096,-0.00656503,0.03594730,0.00014881,0.0022
 3777,-0.01983245,-0.10550269,0.02422788,-0.00613507,-0.01988470,0.0347
 3618,-0.00910422,0.00618240,-0.00929381,0.00381253,-0.00184980,-0.0001
 9866,-0.00057350,-0.02414874,-0.00271913,0.00758225,0.00086121,0.00033
 012,0.00011832,0.00101179,0.00095659,-0.00020045,0.00052892,-0.0031654
 1,-0.00397927,-0.00130721,0.00031549,0.00056032,0.00033487,0.00016390,
 0.00005704,0.49727809,-0.02204907,-0.12457504,-0.02248850,0.00140437,0
 .00062388,0.00076460,-0.00293785,-0.00801543,-0.00396211,-0.01663917,-
 0.02749338,-0.01809111,-0.00201712,-0.08949392,0.00075152,-0.00670214,
 -0.00130872,0.00246583,0.02972502,0.00119861,-0.01168742,0.00025771,-0
 .09248853,0.01117037,0.00286929,0.00626349,-0.02736798,0.00035738,-0.0
 0275967,0.00604840,-0.00297695,-0.00599765,0.03153527,0.02872244,-0.13
 502284,0.01163926,0.00111776,-0.00197724,-0.00033474,0.01828737,-0.027
 01677,0.00869872,0.00656164,-0.01172745,0.00208935,-0.02402284,0.00251
 640,0.01292967,0.00063416,0.00083443,-0.00007879,0.00063887,0.00021090
 ,0.00079942,-0.00165693,-0.00478475,-0.00359775,-0.00182630,0.00020444
 ,0.00049149,0.00028798,0.00012000,-0.00005187,-0.01152319,0.52172962,-
 0.01483509,-0.02368046,-0.10334411,-0.01701918,-0.03055914,-0.01839318
 ,0.00293468,0.00650067,0.00244133,0.00273363,0.00350877,0.00093095,0.0
 0899797,-0.00168719,-0.09427125,0.03779822,0.00004976,-0.01345337,-0.0
 0435172,-0.00042983,0.00031482,0.00373045,0.01208113,-0.15186023,0.001
 60220,0.00590639,-0.02401936,0.00030706,0.00289111,-0.01802278,0.00104
 303,0.00244018,-0.01424034,-0.00586570,0.01207511,-0.09234928,0.003859
 54,-0.00744570,0.00038817,0.01067304,-0.01416541,0.00298429,-0.0204222
 0,0.03169228,-0.00680244,-0.01146654,0.00433754,0.00640633,-0.00031969
 ,0.00047497,-0.00028514,0.00055904,0.00018622,0.00060315,-0.00126364,-
 0.00230878,-0.00173797,-0.00079636,-0.00012333,0.00054903,-0.00006210,
 0.00001970,0.00026786,0.00224928,-0.00171475,0.52366737,0.00024104,-0.
 00065383,-0.00066823,0.00000287,0.00004774,0.00000717,0.00020486,0.000
 22612,0.00013200,0.00001547,-0.00002642,0.00003544,-0.00316434,-0.0002
 5710,-0.00191205,0.00050609,-0.00012181,0.00015796,-0.00222855,-0.0016
 6539,-0.00043029,0.00025871,-0.00024119,0.00061591,-0.00008014,0.00010
 434,0.00010236,0.00010874,0.00010551,-0.00013199,-0.00000657,-0.000054
 65,-0.00002493,0.00012129,0.00069372,-0.00040925,0.00021467,-0.0001779
 8,0.00006964,-0.00010356,0.00005052,0.00006926,-0.00000844,-0.00003970
 ,-0.00001169,-0.02177929,0.01710594,-0.00124068,0.00051324,0.00081698,
 -0.00083081,0.00010031,-0.00127545,0.00080729,-0.08751039,0.03969759,-
 0.01490575,0.00636893,-0.01121528,0.00320165,-0.00058883,-0.00008311,0
 .00036653,0.00160376,0.00029957,0.00069773,0.63739337,-0.00060618,0.00
 038096,0.00050269,-0.00000399,-0.00000826,-0.00001143,-0.00013578,-0.0
 0025751,-0.00014577,0.00000127,-0.00004392,0.00000740,0.00190092,0.005
 08489,0.00170080,-0.00016317,-0.00017537,-0.00007077,-0.00228240,-0.00
 148442,0.00013958,-0.00017861,0.00029807,-0.00022819,0.00009771,-0.000
 09314,-0.00017317,-0.00006345,-0.00010922,0.00003864,0.00001268,-0.000
 03333,0.00005151,0.00040968,-0.00010019,0.00016041,-0.00004390,-0.0001
 7698,-0.00005245,0.00015645,-0.00019993,-0.00016556,0.00000568,0.00005
 012,0.00000325,0.00532223,0.00588815,-0.00850819,-0.00008366,-0.000613
 31,0.00107349,-0.00505476,0.00091094,0.00161974,0.03478834,-0.10081568
 ,0.01647740,0.01283161,-0.02079192,0.00732451,-0.00311680,-0.00134101,
 -0.00109432,-0.00105782,-0.00279861,-0.00043183,0.10208759,0.61324761,
 0.00005648,-0.00029813,-0.00030686,-0.00001065,0.00002580,-0.00000408,
 0.00009101,0.00009508,0.00006051,-0.00000114,-0.00001041,0.00003408,-0
 .00125727,-0.00003664,-0.00095111,-0.00002649,-0.00008220,-0.00007776,
 -0.00079507,-0.00036896,0.00043280,0.00007990,-0.00016137,0.00042622,-
 0.00001562,-0.00000564,0.00002581,0.00001924,0.00005166,-0.00010620,-0
 .00000984,0.00006116,-0.00001100,0.00022285,0.00026284,-0.00029613,0.0
 0012320,-0.00004600,0.00005956,-0.00007460,0.00009461,0.00009315,-0.00
 001409,-0.00001182,-0.00001165,0.00259416,-0.01056891,0.00451362,0.001
 89401,-0.00065507,-0.00217891,0.00373437,0.00040466,-0.00225082,-0.012
 70330,0.01601915,-0.06082492,0.00645911,-0.00874035,0.00034848,-0.0165
 5566,0.02245543,-0.00994403,0.00096285,-0.00020374,0.00021078,-0.03853
 827,0.03740180,0.70617385,-0.00005973,0.00013205,0.00013402,-0.0000002
 9,-0.00000793,0.00000072,-0.00004105,-0.00004987,-0.00002529,0.0000004
 3,0.00000557,-0.00000435,0.00069837,0.00037097,0.00026961,-0.00013928,
 -0.00009673,-0.00005469,0.00016778,0.00011037,0.00016367,-0.00002044,0
 .00004655,-0.00010272,0.00004792,-0.00002396,-0.00003833,-0.00002735,-
 0.00002326,0.00001729,0.00000684,0.00002920,0.00000104,0.00001545,-0.0
 0011897,0.00008265,-0.00003959,0.00001581,-0.00001507,0.00003390,-0.00
 003042,-0.00002420,0.00000460,0.00001019,0.00000306,0.00086869,-0.0001
 5483,0.00002070,0.00036116,-0.00007551,-0.00142573,-0.00027005,0.00012
 138,-0.00070548,0.00612692,0.00103523,-0.01546810,-0.00047636,0.001008
 46,-0.00055073,-0.00205551,0.00395158,-0.00120818,-0.00022252,-0.00014
 807,-0.00012018,-0.07636304,0.00684985,0.00032819,0.06244330,0.0000970
 9,-0.00010271,-0.00011415,0.00000168,0.00000380,-0.00000063,0.00003291
 ,0.00005169,0.00002805,0.00000312,0.00000748,0.00000196,-0.00031396,-0
 .00093327,-0.00007260,0.00007913,0.00009517,-0.00000234,0.00025689,0.0
 0018751,-0.00002165,0.00004682,-0.00008038,0.00007146,-0.00002581,0.00
 001695,0.00003496,0.00001444,0.00002939,-0.00001669,-0.00000128,0.0000
 1070,-0.00001232,-0.00005235,0.00003995,-0.00005286,0.00002171,0.00001
 924,0.00001364,-0.00003420,0.00004099,0.00003252,-0.00000402,-0.000008
 04,-0.00000244,-0.00008007,-0.00091790,0.00099382,-0.00014464,0.000056
 25,0.00046187,0.00071720,0.00005539,-0.00001744,0.00061979,0.00628339,
 0.02121493,-0.00112559,0.00220202,-0.00046045,0.00438825,-0.00406434,0
 .00154861,0.00019214,0.00038930,0.00008072,0.00720751,-0.07889083,0.02
 608452,0.00393895,0.06131558,-0.00010161,0.00021999,0.00023069,0.00000
 852,-0.00001490,0.00000102,-0.00006948,-0.00008331,-0.00005042,0.00000
 150,0.00000432,-0.00001799,0.00073858,0.00050769,0.00101279,-0.0000164
 1,0.00005903,0.00001779,0.00035844,0.00022655,-0.00006807,-0.00008598,
 0.00012152,-0.00026703,0.00001860,-0.00001646,-0.00004164,-0.00002535,
 -0.00004559,0.00006046,0.00000463,-0.00002990,0.00000668,-0.00006258,-
 0.00019469,0.00016963,-0.00007477,0.00002819,-0.00003632,0.00005318,-0
 .00005692,-0.00005680,0.00000993,0.00001244,0.00000802,0.00120335,0.00
 072588,-0.00156571,-0.00067173,-0.00029517,0.00105479,-0.00123692,-0.0
 0026944,0.00092725,0.00711082,-0.00691055,-0.01976952,-0.00039469,0.00
 133051,-0.00017766,-0.00447801,0.00612577,-0.00000819,-0.00062433,-0.0
 0019115,-0.00017620,-0.00462979,0.03006052,-0.39716323,-0.00717981,-0.
 02320627,0.47370669,0.00022827,0.00036346,0.00029593,0.00000594,-0.000
 03389,-0.00000782,-0.00008436,-0.00005081,-0.00003757,0.00001867,0.000
 03257,-0.00002916,-0.00210117,-0.00253503,0.00111447,-0.00020237,0.000
 16821,-0.00008209,-0.00061688,0.00294214,-0.00033979,-0.00003838,0.000
 04616,-0.00046140,0.00001686,-0.00001137,0.00001733,-0.00003888,-0.000
 02272,0.00010319,0.00003246,0.00002689,-0.00001020,-0.00046372,-0.0005
 6267,0.00034527,-0.00016554,0.00024312,-0.00004403,0.00002773,0.000019
 95,-0.00000206,0.00001699,0.,0.00000842,0.00160144,-0.00283436,-0.0000
 4864,-0.00017721,0.00004436,0.00020915,0.00040036,0.00018688,-0.000145
 07,0.00884196,0.01046094,0.00257255,-0.00127744,0.00297907,-0.00073478
 ,0.00029386,-0.00012289,0.00052077,-0.00099099,0.00173680,-0.00033406,
 -0.10932486,-0.08500444,-0.04718441,0.01148618,-0.00799847,-0.00358015
 ,0.11047994,0.00019822,-0.00023084,-0.00024443,0.00000193,0.00000751,0
 .00000789,0.00006957,0.00010338,0.00006235,0.00000376,0.00001052,-0.00
 000341,-0.00101211,-0.00058910,-0.00090206,0.00011567,0.00003770,0.000
 05470,0.00150537,-0.00005313,-0.00006966,0.00007705,-0.00013989,0.0001
 6441,-0.00004582,0.00004493,0.00006895,0.00003158,0.00004841,-0.000029
 24,-0.00000850,0.00000161,-0.00002195,-0.00006954,0.00008750,-0.000135
 27,0.00004303,0.00003497,0.00003404,-0.00006328,0.00008971,0.00007772,
 -0.00000980,-0.00002249,-0.00000426,-0.00037568,-0.00233975,0.00130456
 ,0.00027867,0.00042356,-0.00019505,0.00202784,0.00062803,-0.00041405,-
 0.02069843,-0.01679969,-0.01766512,0.00724995,-0.00645045,0.00274152,-
 0.00032808,0.00058087,-0.00003077,0.00041820,0.00072148,0.00022252,-0.
 08141341,-0.31859203,-0.11361030,-0.00784666,0.00230114,-0.01232246,0.
 12183000,0.35119665,0.00006056,-0.00000818,-0.00002264,0.00000762,-0.0
 0000455,0.00000453,0.00000441,0.00001513,0.00001049,-0.00000284,0.0000
 0368,-0.00001249,-0.00010205,-0.00012702,0.00022648,0.00009663,-0.0001
 9105,0.00013380,0.00028839,-0.00011128,-0.00018408,-0.00003695,0.00000
 345,-0.00003567,-0.00001496,0.00001719,0.00001807,0.00000949,-0.000000
 52,0.00001565,-0.00001066,-0.00001623,-0.00000021,-0.00005365,-0.00002
 147,0.00000661,-0.00001000,0.00002047,-0.00000561,-0.00000875,0.000012
 72,0.00000781,0.00000121,-0.00000209,-0.00000216,-0.00024782,0.0006002
 3,-0.00027143,-0.00013588,0.00023200,0.00022508,0.00012507,0.00001580,
 0.00012209,-0.00442020,0.00239370,0.00448857,0.00022920,0.00024766,0.0
 0162397,0.00145054,-0.00193694,0.00174823,-0.00007492,0.00032899,0.000
 16350,-0.04590787,-0.11689153,-0.12813929,-0.01481049,-0.03865584,-0.0
 3136239,0.05702082,0.14962302,0.13908712,-0.00016507,0.00035385,0.0003
 9482,0.00000536,-0.00002134,-0.00000537,-0.00010898,-0.00014418,-0.000
 08264,-0.00000152,0.00000265,-0.00002070,0.00139668,0.00147741,0.00116
 370,-0.00020124,-0.00004185,-0.00009250,0.00029126,0.00021513,-0.00007
 555,-0.00011540,0.00016875,-0.00032975,0.00006589,-0.00005054,-0.00008
 496,-0.00005500,-0.00006158,0.00006529,0.00001588,0.00002157,0.0000129
 0,-0.00005848,-0.00026224,0.00030903,-0.00011758,0.00000164,-0.0000656
 8,0.00009420,-0.00014557,-0.00012132,0.00001285,0.00002516,0.00000609,
 -0.00174730,0.00958215,-0.00573738,0.00049683,-0.00051954,0.00007762,-
 0.00400864,-0.00063017,0.00138674,-0.02004254,-0.01652470,0.01607347,-
 0.00019037,0.00030491,0.00071618,-0.00056239,-0.00026845,-0.00034548,-
 0.00081833,-0.00040074,-0.00032940,-0.34649534,-0.06666905,0.10062103,
 -0.00254635,-0.00783722,0.01372406,-0.01796887,-0.02197953,0.00654311,
 0.39282445,0.00013286,-0.00005223,-0.00008586,0.00000335,-0.00000065,0
 .00000235,0.00001988,0.00004950,0.00002900,0.00000041,0.00001032,-0.00
 000462,-0.00037634,-0.00110661,-0.00032208,0.00003021,0.00002017,0.000
 01202,0.00040712,0.00044812,-0.00005120,0.00002526,-0.00005085,0.00003
 146,-0.00001710,0.00001002,0.00003059,0.00000679,0.00001561,-0.0000041
 6,0.00000001,0.00001001,-0.00000981,-0.00010463,-0.00000953,-0.0000168
 0,-0.00000478,0.00004751,0.00000725,-0.00002920,0.00004142,0.00003468,
 -0.00000189,-0.00000977,-0.00000036,0.00113627,-0.00217324,0.00252662,
 -0.00008897,0.00013372,-0.00026209,0.00108274,0.00004210,-0.00048567,0
 .01638729,0.00575208,-0.00428572,-0.00033368,0.00316001,-0.00045451,0.
 00028001,0.00023423,-0.00028254,0.00021258,0.00064748,0.00007936,-0.07
 121781,-0.09933505,0.03184282,-0.00904995,0.01189151,0.00421442,-0.041
 90391,-0.01110061,0.00445268,0.10340348,0.09132473,0.00001451,-0.00002
 922,-0.00003500,0.00000220,0.00000087,0.00000214,0.00000790,0.00001313
 ,0.00000603,0.00000108,0.00000022,-0.00000158,0.00006240,-0.00020462,-
 0.00011297,0.00003555,0.00001137,0.00000716,-0.00002125,-0.00004702,-0
 .00005590,0.00000903,-0.00000273,0.00000654,-0.00001137,0.00000871,0.0
 0000567,0.00000755,0.00000080,-0.00000067,-0.00000465,-0.00001748,-0.0
 0000041,-0.00000628,0.00002933,-0.00001601,0.00000967,-0.00000283,0.00
 000514,-0.00000534,0.00000974,0.00000441,0.00000064,-0.00000288,0.0000
 0077,0.00028815,0.00024616,0.00112593,-0.00042645,0.00016922,0.0003588
 1,0.00015068,0.00003328,0.00020428,-0.00244771,0.00338798,0.00561078,-
 0.00051878,0.00076131,-0.00026601,0.00169184,-0.00199097,0.00157315,0.
 00003959,0.00005701,0.00002808,0.10337865,0.03121148,-0.11011288,0.040
 71238,0.01206862,-0.02643463,-0.00916667,-0.00871364,0.01215397,-0.133
 80331,-0.03699783,0.11594320\\-0.00000183,0.00000323,-0.00000465,-0.00
 000131,0.00000857,-0.00000499,-0.00000210,0.00000405,-0.00000388,-0.00
 000066,0.00000239,-0.00000827,-0.00000346,0.00000039,-0.00000038,-0.00
 000161,0.00000515,-0.00000164,0.00000041,-0.00000062,-0.00000525,-0.00
 000112,-0.00000666,0.00000235,0.00000168,-0.00000663,0.00000174,0.0000
 0012,-0.00000590,-0.00000150,0.00000111,-0.00000660,-0.00000480,-0.000
 00173,0.00000240,0.00000298,-0.00000030,0.00000261,0.00000550,0.000002
 38,0.00000084,0.00000806,0.00000013,0.00000680,0.00000516,-0.00000530,
 0.00000302,0.00000637,0.00000142,-0.00000587,0.00000400,0.00000323,0.0
 0000062,0.00000698,0.00001482,-0.00001571,0.00000612,-0.00000084,0.000
 00241,0.00000563,-0.00000097,0.00000729,0.00000096,0.00000372,0.000000
 98,-0.00000172,-0.00000063,-0.00000752,-0.00000449,-0.00000166,-0.0000
 0447,-0.00000545,-0.00000209,0.00000733,-0.00000711,-0.00000344,0.0000
 0190,-0.00000173\\\@


 ART, GLORY, FREEDOM FAIL, BUT NATURE STILL IS FAIR.

                                           -- BYRON
 Job cpu time:       0 days  2 hours 20 minutes 17.1 seconds.
 Elapsed time:       0 days  0 hours  5 minutes 54.5 seconds.
 File lengths (MBytes):  RWF=    410 Int=      0 D2E=      0 Chk=     21 Scr=      1
 Normal termination of Gaussian 16 at Wed Oct 11 15:19:34 2023.
