 Entering Gaussian System, Link 0=g16
 Initial command:
 /data0/home/software/g16/l1.exe "/data0/home/software/g16/scratch/Gau-2499562.inp" -scrdir="/data0/home/software/g16/scratch/"
 Default is to use a total of  22 processors:
                               22 via shared-memory
                                1 via Linda
 Entering Link 1 = /data0/home/software/g16/l1.exe PID=   2499563.
  
 Copyright (c) 1988,1990,1992,1993,1995,1998,2003,2009,2016,
            Gaussian, Inc.  All Rights Reserved.
  
 This is part of the Gaussian(R) 16 program.  It is based on
 the Gaussian(R) 09 system (copyright 2009, Gaussian, Inc.),
 the Gaussian(R) 03 system (copyright 2003, Gaussian, Inc.),
 the Gaussian(R) 98 system (copyright 1998, Gaussian, Inc.),
 the Gaussian(R) 94 system (copyright 1995, Gaussian, Inc.),
 the Gaussian 92(TM) system (copyright 1992, Gaussian, Inc.),
 the Gaussian 90(TM) system (copyright 1990, Gaussian, Inc.),
 the Gaussian 88(TM) system (copyright 1988, Gaussian, Inc.),
 the Gaussian 86(TM) system (copyright 1986, Carnegie Mellon
 University), and the Gaussian 82(TM) system (copyright 1983,
 Carnegie Mellon University). Gaussian is a federally registered
 trademark of Gaussian, Inc.
  
 This software contains proprietary and confidential information,
 including trade secrets, belonging to Gaussian, Inc.
  
 This software is provided under written license and may be
 used, copied, transmitted, or stored only in accord with that
 written license.
  
 The following legend is applicable only to US Government
 contracts under FAR:
  
                    RESTRICTED RIGHTS LEGEND
  
 Use, reproduction and disclosure by the US Government is
 subject to restrictions as set forth in subparagraphs (a)
 and (c) of the Commercial Computer Software - Restricted
 Rights clause in FAR 52.227-19.
  
 Gaussian, Inc.
 340 Quinnipiac St., Bldg. 40, Wallingford CT 06492
  
  
 ---------------------------------------------------------------
 Warning -- This program may not be used in any manner that
 competes with the business of Gaussian, Inc. or will provide
 assistance to any competitor of Gaussian, Inc.  The licensee
 of this program is prohibited from giving any competitor of
 Gaussian, Inc. access to this program.  By using this program,
 the user acknowledges that Gaussian, Inc. is engaged in the
 business of creating and licensing software in the field of
 computational chemistry and represents and warrants to the
 licensee that it is not a competitor of Gaussian, Inc. and that
 it will not use this program in any manner prohibited above.
 ---------------------------------------------------------------
  

 Cite this work as:
 Gaussian 16, Revision A.03,
 M. J. Frisch, G. W. Trucks, H. B. Schlegel, G. E. Scuseria, 
 M. A. Robb, J. R. Cheeseman, G. Scalmani, V. Barone, 
 G. A. Petersson, H. Nakatsuji, X. Li, M. Caricato, A. V. Marenich, 
 J. Bloino, B. G. Janesko, R. Gomperts, B. Mennucci, H. P. Hratchian, 
 J. V. Ortiz, A. F. Izmaylov, J. L. Sonnenberg, D. Williams-Young, 
 F. Ding, F. Lipparini, F. Egidi, J. Goings, B. Peng, A. Petrone, 
 T. Henderson, D. Ranasinghe, V. G. Zakrzewski, J. Gao, N. Rega, 
 G. Zheng, W. Liang, M. Hada, M. Ehara, K. Toyota, R. Fukuda, 
 J. Hasegawa, M. Ishida, T. Nakajima, Y. Honda, O. Kitao, H. Nakai, 
 T. Vreven, K. Throssell, J. A. Montgomery, Jr., J. E. Peralta, 
 F. Ogliaro, M. J. Bearpark, J. J. Heyd, E. N. Brothers, K. N. Kudin, 
 V. N. Staroverov, T. A. Keith, R. Kobayashi, J. Normand, 
 K. Raghavachari, A. P. Rendell, J. C. Burant, S. S. Iyengar, 
 J. Tomasi, M. Cossi, J. M. Millam, M. Klene, C. Adamo, R. Cammi, 
 J. W. Ochterski, R. L. Martin, K. Morokuma, O. Farkas, 
 J. B. Foresman, and D. J. Fox, Gaussian, Inc., Wallingford CT, 2016.
 
 ******************************************
 Gaussian 16:  ES64L-G16RevA.03 25-Dec-2016
                11-Oct-2023 
 ******************************************
 %mem=50GB
 %nprocshared=24
 Will use up to   24 processors via shared memory.
 ----------------------------------------
 #p M052X/6-31G* scrf=(smd,solvent=water)
 ----------------------------------------
 1/38=1,172=1/1;
 2/12=2,17=6,18=5,40=1/2;
 3/5=1,6=6,7=1,11=2,25=1,30=1,70=32201,72=1,74=-38/1,2,3;
 4//1;
 5/5=2,38=5,53=1/2;
 6/7=2,8=2,9=2,10=2,28=1/1;
 99/5=1,9=1/99;
 Leave Link    1 at Wed Oct 11 15:22:16 2023, MaxMem=  6710886400 cpu:               0.8 elap:               0.0
 (Enter /data0/home/software/g16/l101.exe)
 -------------------
 Title Card Required
 -------------------
 Symbolic Z-matrix:
 Charge =  0 Multiplicity = 1
 C                    -3.11766  -1.25434  -0.72691 
 H                    -3.08188  -1.05613  -1.79518 
 H                    -4.1482   -1.33492  -0.3909 
 H                    -2.56901  -2.16265  -0.49098 
 C                    -1.03643  -0.02121  -0.48834 
 H                    -1.09298   0.11019  -1.56826 
 H                    -0.60129  -0.99416  -0.27844 
 C                    -2.53136  -0.36954   1.46402 
 H                    -2.13356   0.48785   1.99739 
 H                    -3.57138  -0.52557   1.73908 
 H                    -1.9447   -1.25926   1.67938 
 C                    -3.23194   1.14309  -0.32815 
 H                    -4.27359   0.98299  -0.06144 
 H                    -2.82798   1.96907   0.24838 
 H                    -3.14032   1.33979  -1.39367 
 C                    -0.21792   1.09393   0.1407 
 H                    -0.14036   0.96715   1.22005 
 H                    -0.69217   2.05872  -0.04306 
 C                     1.18332   1.176    -0.45801 
 H                     1.67944   2.08451  -0.11802 
 H                     1.16473   1.18023  -1.54868 
 N                    -2.47291  -0.10727  -0.00899 
 S                     2.30192  -0.16148   0.01628 
 O                     2.27612  -0.22162   1.49767 
 O                     1.79345  -1.40595  -0.60775 
 O                     3.62603   0.23746  -0.51655 
 
 ITRead=  0  0  0  0  0  0  0  0  0  0  0  0  0  0  0  0  0  0  0  0
 ITRead=  0  0  0  0  0  0
 MicOpt= -1 -1 -1 -1 -1 -1 -1 -1 -1 -1 -1 -1 -1 -1 -1 -1 -1 -1 -1 -1
 MicOpt= -1 -1 -1 -1 -1 -1
 NAtoms=     26 NQM=       26 NQMF=       0 NMMI=      0 NMMIF=      0
                NMic=       0 NMicF=      0.
                    Isotopes and Nuclear Properties:
 (Nuclear quadrupole moments (NQMom) in fm**2, nuclear magnetic moments (NMagM)
  in nuclear magnetons)

  Atom         1           2           3           4           5           6           7           8           9          10
 IAtWgt=          12           1           1           1          12           1           1          12           1           1
 AtmWgt=  12.0000000   1.0078250   1.0078250   1.0078250  12.0000000   1.0078250   1.0078250  12.0000000   1.0078250   1.0078250
 NucSpn=           0           1           1           1           0           1           1           0           1           1
 AtZEff=  -0.0000000  -0.0000000  -0.0000000  -0.0000000  -0.0000000  -0.0000000  -0.0000000  -0.0000000  -0.0000000  -0.0000000
 NQMom=    0.0000000   0.0000000   0.0000000   0.0000000   0.0000000   0.0000000   0.0000000   0.0000000   0.0000000   0.0000000
 NMagM=    0.0000000   2.7928460   2.7928460   2.7928460   0.0000000   2.7928460   2.7928460   0.0000000   2.7928460   2.7928460
 AtZNuc=   6.0000000   1.0000000   1.0000000   1.0000000   6.0000000   1.0000000   1.0000000   6.0000000   1.0000000   1.0000000

  Atom        11          12          13          14          15          16          17          18          19          20
 IAtWgt=           1          12           1           1           1          12           1           1          12           1
 AtmWgt=   1.0078250  12.0000000   1.0078250   1.0078250   1.0078250  12.0000000   1.0078250   1.0078250  12.0000000   1.0078250
 NucSpn=           1           0           1           1           1           0           1           1           0           1
 AtZEff=  -0.0000000  -0.0000000  -0.0000000  -0.0000000  -0.0000000  -0.0000000  -0.0000000  -0.0000000  -0.0000000  -0.0000000
 NQMom=    0.0000000   0.0000000   0.0000000   0.0000000   0.0000000   0.0000000   0.0000000   0.0000000   0.0000000   0.0000000
 NMagM=    2.7928460   0.0000000   2.7928460   2.7928460   2.7928460   0.0000000   2.7928460   2.7928460   0.0000000   2.7928460
 AtZNuc=   1.0000000   6.0000000   1.0000000   1.0000000   1.0000000   6.0000000   1.0000000   1.0000000   6.0000000   1.0000000

  Atom        21          22          23          24          25          26
 IAtWgt=           1          14          32          16          16          16
 AtmWgt=   1.0078250  14.0030740  31.9720718  15.9949146  15.9949146  15.9949146
 NucSpn=           1           2           0           0           0           0
 AtZEff=  -0.0000000  -0.0000000  -0.0000000  -0.0000000  -0.0000000  -0.0000000
 NQMom=    0.0000000   2.0440000   0.0000000   0.0000000   0.0000000   0.0000000
 NMagM=    2.7928460   0.4037610   0.0000000   0.0000000   0.0000000   0.0000000
 AtZNuc=   1.0000000   7.0000000  16.0000000   8.0000000   8.0000000   8.0000000
 Leave Link  101 at Wed Oct 11 15:22:16 2023, MaxMem=  6710886400 cpu:               2.1 elap:               0.1
 (Enter /data0/home/software/g16/l202.exe)
                          Input orientation:                          
 ---------------------------------------------------------------------
 Center     Atomic      Atomic             Coordinates (Angstroms)
 Number     Number       Type             X           Y           Z
 ---------------------------------------------------------------------
      1          6           0       -3.117658   -1.254343   -0.726906
      2          1           0       -3.081879   -1.056127   -1.795178
      3          1           0       -4.148196   -1.334917   -0.390902
      4          1           0       -2.569008   -2.162649   -0.490977
      5          6           0       -1.036431   -0.021214   -0.488337
      6          1           0       -1.092979    0.110190   -1.568259
      7          1           0       -0.601290   -0.994161   -0.278436
      8          6           0       -2.531355   -0.369537    1.464019
      9          1           0       -2.133563    0.487850    1.997386
     10          1           0       -3.571377   -0.525574    1.739080
     11          1           0       -1.944702   -1.259259    1.679378
     12          6           0       -3.231942    1.143090   -0.328149
     13          1           0       -4.273592    0.982988   -0.061435
     14          1           0       -2.827980    1.969065    0.248384
     15          1           0       -3.140321    1.339789   -1.393665
     16          6           0       -0.217924    1.093931    0.140703
     17          1           0       -0.140363    0.967153    1.220045
     18          1           0       -0.692171    2.058721   -0.043057
     19          6           0        1.183322    1.175999   -0.458013
     20          1           0        1.679444    2.084507   -0.118020
     21          1           0        1.164725    1.180225   -1.548679
     22          7           0       -2.472905   -0.107271   -0.008994
     23         16           0        2.301918   -0.161478    0.016276
     24          8           0        2.276116   -0.221620    1.497670
     25          8           0        1.793454   -1.405946   -0.607749
     26          8           0        3.626034    0.237464   -0.516548
 ---------------------------------------------------------------------
                    Distance matrix (angstroms):
                    1          2          3          4          5
     1  C    0.000000
     2  H    1.087095   0.000000
     3  H    1.086922   1.785146   0.000000
     4  H    1.087060   1.785600   1.785774   0.000000
     5  C    2.430849   2.638700   3.379111   2.633352   0.000000
     6  H    2.582470   2.316789   3.578946   2.916332   1.089356
     7  H    2.569227   2.908207   3.565011   2.298359   1.086293
     8  C    2.434499   3.375922   2.643268   2.653051   2.483510
     9  H    3.380155   4.203179   3.617340   3.661517   2.764356
    10  H    2.611140   3.607225   2.350442   2.942433   3.411996
    11  H    2.676948   3.661553   3.024429   2.432347   2.656445
    12  C    2.433054   2.647876   2.642722   3.375486   2.490288
    13  H    2.604743   2.929852   2.344559   3.603491   3.416120
    14  H    3.380157   3.659562   3.614963   4.205328   2.777340
    15  H    2.678545   2.430029   3.029092   3.661737   2.664264
    16  C    3.830874   4.070949   4.650693   4.065947   1.519603
    17  H    4.194037   4.673088   4.894630   4.315272   2.167574
    18  H    4.162575   4.299176   4.856118   4.641456   2.154743
    19  C    4.947453   4.996232   5.893580   5.022712   2.522210
    20  H    5.876296   5.945304   6.762271   6.018868   3.456468
    21  H    4.994120   4.805796   5.991120   5.121943   2.722658
    22  N    1.498959   2.112257   2.111769   2.113320   1.516784
    23  S    5.578394   5.750394   6.568617   5.290360   3.379184
    24  O    5.925205   6.344081   6.788072   5.585476   3.867474
    25  O    4.914896   5.030033   5.946030   4.429143   3.152775
    26  O    6.909929   6.950134   7.932643   6.643775   4.669721
                    6          7          8          9         10
     6  H    0.000000
     7  H    1.767765   0.000000
     8  C    3.390247   2.674221   0.000000
     9  H    3.733533   3.118266   1.085279   0.000000
    10  H    4.181524   3.620961   1.087038   1.777937   0.000000
    11  H    3.626013   2.389156   1.087266   1.785830   1.785477
    12  C    2.679537   3.389785   2.447597   2.654033   2.678263
    13  H    3.626099   4.176363   2.681739   3.010586   2.451677
    14  H    3.125034   3.743848   2.652322   2.394832   2.999673
    15  H    2.394578   3.624602   3.385113   3.638487   3.671441
    16  C    2.157317   2.163972   3.040537   2.735741   4.052561
    17  H    3.068632   2.510907   2.750110   2.192450   3.777498
    18  H    2.506723   3.063291   3.398575   2.951043   4.259627
    19  C    2.747752   2.815436   4.458892   4.183809   5.507243
    20  H    3.699655   3.834798   5.124062   4.643628   6.150810
    21  H    2.498517   3.075757   5.013893   4.892102   6.012468
    22  N    2.093512   2.088568   1.497320   2.120114   2.106509
    23  S    3.756312   3.034606   5.049730   4.901012   6.131575
    24  O    4.567365   3.468550   4.809864   4.494256   5.860362
    25  O    3.398933   2.452104   4.906153   5.078844   5.921492
    26  O    4.836463   4.409520   6.496502   6.289318   7.581082
                   11         12         13         14         15
    11  H    0.000000
    12  C    3.385031   0.000000
    13  H    3.671761   1.087108   0.000000
    14  H    3.640055   1.085270   1.777113   0.000000
    15  H    4.198589   1.087386   1.785062   1.786021   0.000000
    16  C    3.299513   3.050663   4.062218   2.754968   3.309854
    17  H    2.902333   3.462040   4.327358   3.028405   3.996259
    18  H    3.942665   2.714792   3.739534   2.157465   2.886944
    19  C    4.503716   4.417296   5.474709   4.149517   4.426755
    20  H    5.248414   5.005211   6.054352   4.523765   5.041033
    21  H    5.102937   4.563086   5.641462   4.448977   4.310790
    22  N    2.111084   1.497130   2.105680   2.122143   2.111099
    23  S    4.690929   5.695975   6.674816   5.559581   5.818909
    24  O    4.350289   5.961103   6.839632   5.693120   6.335267
    25  O    4.384778   5.641841   6.543280   5.786304   5.700777
    26  O    6.172145   6.920079   7.947769   6.725910   6.911441
                   16         17         18         19         20
    16  C    0.000000
    17  H    1.089526   0.000000
    18  H    1.090641   1.758249   0.000000
    19  C    1.526003   2.147472   2.113968   0.000000
    20  H    2.155965   2.520039   2.372940   1.089550   0.000000
    21  H    2.184760   3.068304   2.546903   1.090833   1.769024
    22  N    2.559343   2.847047   2.804228   3.900820   4.696571
    23  S    2.818002   2.947474   3.727918   1.806945   2.334514
    24  O    3.129260   2.707329   4.047780   2.640499   2.878314
    25  O    3.294724   3.565400   4.301294   2.657277   3.526485
    26  O    3.992684   4.211169   4.710421   2.617464   2.712859
                   21         22         23         24         25
    21  H    0.000000
    22  N    4.154591   0.000000
    23  S    2.354243   4.775198   0.000000
    24  O    3.532789   4.983604   1.482839   0.000000
    25  O    2.822929   4.499654   1.482108   2.463408   0.000000
    26  O    2.830571   6.129724   1.482005   2.467815   2.463222
                   26
    26  O    0.000000
 Stoichiometry    C6H15NO3S
 Framework group  C1[X(C6H15NO3S)]
 Deg. of freedom    72
 Full point group                 C1      NOp   1
 Largest Abelian subgroup         C1      NOp   1
 Largest concise Abelian subgroup C1      NOp   1
                         Standard orientation:                         
 ---------------------------------------------------------------------
 Center     Atomic      Atomic             Coordinates (Angstroms)
 Number     Number       Type             X           Y           Z
 ---------------------------------------------------------------------
      1          6           0       -3.117658   -1.254343   -0.726906
      2          1           0       -3.081879   -1.056127   -1.795178
      3          1           0       -4.148196   -1.334917   -0.390902
      4          1           0       -2.569008   -2.162649   -0.490977
      5          6           0       -1.036431   -0.021214   -0.488337
      6          1           0       -1.092979    0.110190   -1.568259
      7          1           0       -0.601290   -0.994161   -0.278436
      8          6           0       -2.531355   -0.369537    1.464019
      9          1           0       -2.133563    0.487850    1.997386
     10          1           0       -3.571377   -0.525574    1.739080
     11          1           0       -1.944702   -1.259259    1.679378
     12          6           0       -3.231942    1.143090   -0.328149
     13          1           0       -4.273592    0.982988   -0.061435
     14          1           0       -2.827980    1.969065    0.248384
     15          1           0       -3.140321    1.339789   -1.393665
     16          6           0       -0.217924    1.093931    0.140703
     17          1           0       -0.140363    0.967153    1.220045
     18          1           0       -0.692171    2.058721   -0.043057
     19          6           0        1.183322    1.175999   -0.458013
     20          1           0        1.679444    2.084507   -0.118020
     21          1           0        1.164725    1.180225   -1.548679
     22          7           0       -2.472905   -0.107271   -0.008994
     23         16           0        2.301918   -0.161478    0.016276
     24          8           0        2.276116   -0.221620    1.497670
     25          8           0        1.793454   -1.405946   -0.607749
     26          8           0        3.626034    0.237464   -0.516548
 ---------------------------------------------------------------------
 Rotational constants (GHZ):           2.1335671           0.4396975           0.4311624
 Leave Link  202 at Wed Oct 11 15:22:16 2023, MaxMem=  6710886400 cpu:               0.1 elap:               0.0
 (Enter /data0/home/software/g16/l301.exe)
 Standard basis: 6-31G(d) (6D, 7F)
 Ernie: Thresh=  0.10000D-02 Tol=  0.10000D-05 Strict=F.
 There are   199 symmetry adapted cartesian basis functions of A   symmetry.
 There are   199 symmetry adapted basis functions of A   symmetry.
   199 basis functions,   392 primitive gaussians,   199 cartesian basis functions
    49 alpha electrons       49 beta electrons
       nuclear repulsion energy       824.7863578472 Hartrees.
 IExCor= 3428 DFT=T Ex+Corr=M052X ExCW=0 ScaHFX=  0.560000
 ScaDFX=  0.440000  0.440000  1.000000  1.000000 ScalE2=  1.000000  1.000000
 IRadAn=      5 IRanWt=     -1 IRanGd=            0 ICorTp=0 IEmpDi=  4
 NAtoms=   26 NActive=   26 NUniq=   26 SFac= 1.00D+00 NAtFMM=   60 NAOKFM=F Big=F
 Integral buffers will be    131072 words long.
 Raffenetti 2 integral format.
 Two-electron integral symmetry is turned on.
 ------------------------------------------------------------------------------
 Polarizable Continuum Model (PCM)
 =================================
 Model                : PCM.
 Atomic radii         : SMD-Coulomb.
 Polarization charges : Total charges.
 Charge compensation  : None.
 Solution method      : On-the-fly selection.
 Cavity type          : VdW (van der Waals Surface) (Alpha=1.000).
 Cavity algorithm     : GePol (No added spheres)
                        Default sphere list used, NSphG=   26.
                        Lebedev-Laikov grids with approx.  5.0 points / Ang**2.
                        Smoothing algorithm: York/Karplus (Gamma=1.0000).
                        Polarization charges: spherical gaussians, with
                                              point-specific exponents (IZeta= 3).
                        Self-potential: point-specific (ISelfS= 7).
                        Self-field    : sphere-specific E.n sum rule (ISelfD= 2).
 Solvent              : Water, Eps=  78.355300 Eps(inf)=   1.777849
 ------------------------------------------------------------------------------
 GePol: Number of generator spheres                  =      26
 GePol: Total number of spheres                      =      26
 GePol: Number of exposed spheres                    =      26 (100.00%)
 GePol: Number of points                             =    1710
 GePol: Average weight of points                     =       0.12
 GePol: Minimum weight of points                     =   0.41D-09
 GePol: Maximum weight of points                     =    0.21991
 GePol: Number of points with low weight             =     121
 GePol: Fraction of low-weight points (<1% of avg)   =       7.08%
 GePol: Cavity surface area                          =    207.731 Ang**2
 GePol: Cavity volume                                =    185.679 Ang**3
 ------------------------------------------------------------------------------
 Atomic radii for non-electrostatic terms: SMD-CDS.
 ------------------------------------------------------------------------------
 PCM non-electrostatic energy =         0.0071645329 Hartrees.
 Nuclear repulsion after PCM non-electrostatic terms =      824.7935223801 Hartrees.
 Leave Link  301 at Wed Oct 11 15:22:16 2023, MaxMem=  6710886400 cpu:               1.8 elap:               0.1
 (Enter /data0/home/software/g16/l302.exe)
 NPDir=0 NMtPBC=     1 NCelOv=     1 NCel=       1 NClECP=     1 NCelD=      1
         NCelK=      1 NCelE2=     1 NClLst=     1 CellRange=     0.0.
 One-electron integrals computed using PRISM.
 One-electron integral symmetry used in STVInt
 NBasis=   199 RedAO= T EigKep=  3.56D-03  NBF=   199
 NBsUse=   199 1.00D-06 EigRej= -1.00D+00 NBFU=   199
 Precomputing XC quadrature grid using
 IXCGrd= 4 IRadAn=           5 IRanWt=          -1 IRanGd=           0 AccXCQ= 0.00D+00.
 Generated NRdTot=       0 NPtTot=           0 NUsed=           0 NTot=          32
 NSgBfM=   199   199   199   199   199 MxSgAt=    26 MxSgA2=    26.
 Leave Link  302 at Wed Oct 11 15:22:17 2023, MaxMem=  6710886400 cpu:               4.6 elap:               0.2
 (Enter /data0/home/software/g16/l303.exe)
 DipDrv:  MaxL=1.
 Leave Link  303 at Wed Oct 11 15:22:17 2023, MaxMem=  6710886400 cpu:               0.6 elap:               0.0
 (Enter /data0/home/software/g16/l401.exe)
 ExpMin= 1.17D-01 ExpMax= 2.19D+04 ExpMxC= 3.30D+03 IAcc=3 IRadAn=         5 AccDes= 0.00D+00
 Harris functional with IExCor= 1009 and IRadAn=       5 diagonalized for initial guess.
 HarFok:  IExCor= 1009 AccDes= 0.00D+00 IRadAn=         5 IDoV= 1 UseB2=F ITyADJ=14
 ICtDFT=  3500011 ScaDFX=  1.000000  1.000000  1.000000  1.000000
 FoFCou: FMM=F IPFlag=           0 FMFlag=      100000 FMFlg1=           0
         NFxFlg=           0 DoJE=T BraDBF=F KetDBF=T FulRan=T
         wScrn=  0.000000 ICntrl=       500 IOpCl=  0 I1Cent=   200000004 NGrid=           0
         NMat0=    1 NMatS0=      1 NMatT0=    0 NMatD0=    1 NMtDS0=    0 NMtDT0=    0
 Petite list used in FoFCou.
 Harris En= -915.642970387004    
 JPrj=0 DoOrth=F DoCkMO=F.
 Leave Link  401 at Wed Oct 11 15:22:17 2023, MaxMem=  6710886400 cpu:              13.6 elap:               0.6
 (Enter /data0/home/software/g16/l502.exe)
 Integral symmetry usage will be decided dynamically.
 Closed shell SCF:
 Using DIIS extrapolation, IDIIS=  1040.
 NGot=  6710886400 LenX=  6710799976 LenY=  6710759934
 Requested convergence on RMS density matrix=1.00D-08 within 128 cycles.
 Requested convergence on MAX density matrix=1.00D-06.
 Requested convergence on             energy=1.00D-06.
 No special actions if energy rises.
 Fock matrices will be formed incrementally for  20 cycles.

 Cycle   1  Pass 1  IDiag  1:
 FoFJK:  IHMeth= 1 ICntrl=       0 DoSepK=F KAlg= 0 I1Cent=           0 FoldK=F
 IRaf= 910000000 NMat=       1 IRICut=       1 DoRegI=T DoRafI=F ISym2E= 0 IDoP0=0 IntGTp=1.
 FoFCou: FMM=F IPFlag=           0 FMFlag=      100000 FMFlg1=           0
         NFxFlg=           0 DoJE=F BraDBF=F KetDBF=F FulRan=T
         wScrn=  0.000000 ICntrl=         0 IOpCl=  0 I1Cent=           0 NGrid=           0
         NMat0=    1 NMatS0=      1 NMatT0=    0 NMatD0=    1 NMtDS0=    0 NMtDT0=    0
 Symmetry not used in FoFCou.
 Inv3:  Mode=1 IEnd=     8772300.
 Iteration    1 A*A^-1 deviation from unit magnitude is 5.77D-15 for    266.
 Iteration    1 A*A^-1 deviation from orthogonality  is 2.28D-15 for   1316    500.
 Iteration    1 A^-1*A deviation from unit magnitude is 5.77D-15 for   1691.
 Iteration    1 A^-1*A deviation from orthogonality  is 3.80D-15 for   1372   1344.
 E= -915.741750828891    
 DIIS: error= 5.16D-02 at cycle   1 NSaved=   1.
 NSaved= 1 IEnMin= 1 EnMin= -915.741750828891     IErMin= 1 ErrMin= 5.16D-02
 ErrMax= 5.16D-02  0.00D+00 EMaxC= 1.00D-01 BMatC= 5.51D-01 BMatP= 5.51D-01
 IDIUse=3 WtCom= 4.84D-01 WtEn= 5.16D-01
 Coeff-Com:  0.100D+01
 Coeff-En:   0.100D+01
 Coeff:      0.100D+01
 Gap=     0.338 Goal=   None    Shift=    0.000
 GapD=    0.338 DampG=1.000 DampE=0.500 DampFc=0.5000 IDamp=-1.
 Damping current iteration by 5.00D-01
 RMSDP=5.96D-03 MaxDP=3.45D-01              OVMax= 1.49D-01

 Cycle   2  Pass 1  IDiag  1:
 RMSU=  2.98D-03    CP:  1.00D+00
 E= -915.941793614408     Delta-E=       -0.200042785517 Rises=F Damp=T
 DIIS: error= 8.72D-03 at cycle   2 NSaved=   2.
 NSaved= 2 IEnMin= 2 EnMin= -915.941793614408     IErMin= 2 ErrMin= 8.72D-03
 ErrMax= 8.72D-03  0.00D+00 EMaxC= 1.00D-01 BMatC= 2.65D-02 BMatP= 5.51D-01
 IDIUse=3 WtCom= 9.13D-01 WtEn= 8.72D-02
 Coeff-Com:  0.187D-01 0.981D+00
 Coeff-En:   0.158D-01 0.984D+00
 Coeff:      0.184D-01 0.982D+00
 Gap=     0.433 Goal=   None    Shift=    0.000
 RMSDP=1.04D-03 MaxDP=4.22D-02 DE=-2.00D-01 OVMax= 9.86D-02

 Cycle   3  Pass 1  IDiag  1:
 RMSU=  1.04D-03    CP:  9.98D-01  9.89D-01
 E= -916.154857058866     Delta-E=       -0.213063444458 Rises=F Damp=F
 DIIS: error= 4.16D-03 at cycle   3 NSaved=   3.
 NSaved= 3 IEnMin= 3 EnMin= -916.154857058866     IErMin= 3 ErrMin= 4.16D-03
 ErrMax= 4.16D-03  0.00D+00 EMaxC= 1.00D-01 BMatC= 6.47D-03 BMatP= 2.65D-02
 IDIUse=3 WtCom= 9.58D-01 WtEn= 4.16D-02
 Coeff-Com: -0.299D-01 0.282D+00 0.747D+00
 Coeff-En:   0.000D+00 0.000D+00 0.100D+01
 Coeff:     -0.286D-01 0.271D+00 0.758D+00
 Gap=     0.424 Goal=   None    Shift=    0.000
 RMSDP=4.79D-04 MaxDP=2.43D-02 DE=-2.13D-01 OVMax= 1.74D-02

 Cycle   4  Pass 1  IDiag  1:
 RMSU=  3.39D-04    CP:  1.00D+00  1.04D+00  7.19D-01
 E= -916.159333233351     Delta-E=       -0.004476174485 Rises=F Damp=F
 DIIS: error= 1.49D-03 at cycle   4 NSaved=   4.
 NSaved= 4 IEnMin= 4 EnMin= -916.159333233351     IErMin= 4 ErrMin= 1.49D-03
 ErrMax= 1.49D-03  0.00D+00 EMaxC= 1.00D-01 BMatC= 1.09D-03 BMatP= 6.47D-03
 IDIUse=3 WtCom= 9.85D-01 WtEn= 1.49D-02
 Coeff-Com: -0.846D-02 0.207D-01 0.307D+00 0.680D+00
 Coeff-En:   0.000D+00 0.000D+00 0.827D-01 0.917D+00
 Coeff:     -0.834D-02 0.204D-01 0.304D+00 0.684D+00
 Gap=     0.428 Goal=   None    Shift=    0.000
 RMSDP=1.59D-04 MaxDP=6.17D-03 DE=-4.48D-03 OVMax= 8.21D-03

 Cycle   5  Pass 1  IDiag  1:
 RMSU=  6.57D-05    CP:  1.00D+00  1.03D+00  8.15D-01  6.98D-01
 E= -916.160333159018     Delta-E=       -0.000999925667 Rises=F Damp=F
 DIIS: error= 2.20D-04 at cycle   5 NSaved=   5.
 NSaved= 5 IEnMin= 5 EnMin= -916.160333159018     IErMin= 5 ErrMin= 2.20D-04
 ErrMax= 2.20D-04  0.00D+00 EMaxC= 1.00D-01 BMatC= 2.11D-05 BMatP= 1.09D-03
 IDIUse=3 WtCom= 9.98D-01 WtEn= 2.20D-03
 Coeff-Com: -0.178D-02 0.103D-02 0.767D-01 0.221D+00 0.703D+00
 Coeff-En:   0.000D+00 0.000D+00 0.000D+00 0.000D+00 0.100D+01
 Coeff:     -0.177D-02 0.103D-02 0.765D-01 0.221D+00 0.703D+00
 Gap=     0.427 Goal=   None    Shift=    0.000
 RMSDP=2.60D-05 MaxDP=1.10D-03 DE=-1.00D-03 OVMax= 9.86D-04

 Cycle   6  Pass 1  IDiag  1:
 RMSU=  1.93D-05    CP:  1.00D+00  1.03D+00  8.15D-01  7.24D-01  7.76D-01
 E= -916.160350543550     Delta-E=       -0.000017384532 Rises=F Damp=F
 DIIS: error= 8.31D-05 at cycle   6 NSaved=   6.
 NSaved= 6 IEnMin= 6 EnMin= -916.160350543550     IErMin= 6 ErrMin= 8.31D-05
 ErrMax= 8.31D-05  0.00D+00 EMaxC= 1.00D-01 BMatC= 1.94D-06 BMatP= 2.11D-05
 IDIUse=1 WtCom= 1.00D+00 WtEn= 0.00D+00
 Coeff-Com:  0.831D-04-0.151D-02-0.669D-03 0.211D-01 0.244D+00 0.737D+00
 Coeff:      0.831D-04-0.151D-02-0.669D-03 0.211D-01 0.244D+00 0.737D+00
 Gap=     0.427 Goal=   None    Shift=    0.000
 RMSDP=8.69D-06 MaxDP=2.32D-04 DE=-1.74D-05 OVMax= 4.16D-04

 Cycle   7  Pass 1  IDiag  1:
 RMSU=  5.89D-06    CP:  1.00D+00  1.03D+00  8.17D-01  7.32D-01  8.51D-01
                    CP:  8.61D-01
 E= -916.160352340236     Delta-E=       -0.000001796686 Rises=F Damp=F
 DIIS: error= 2.76D-05 at cycle   7 NSaved=   7.
 NSaved= 7 IEnMin= 7 EnMin= -916.160352340236     IErMin= 7 ErrMin= 2.76D-05
 ErrMax= 2.76D-05  0.00D+00 EMaxC= 1.00D-01 BMatC= 2.44D-07 BMatP= 1.94D-06
 IDIUse=1 WtCom= 1.00D+00 WtEn= 0.00D+00
 Coeff-Com:  0.129D-03-0.742D-03-0.697D-02-0.985D-02 0.314D-01 0.298D+00
 Coeff-Com:  0.688D+00
 Coeff:      0.129D-03-0.742D-03-0.697D-02-0.985D-02 0.314D-01 0.298D+00
 Coeff:      0.688D+00
 Gap=     0.427 Goal=   None    Shift=    0.000
 RMSDP=2.66D-06 MaxDP=1.42D-04 DE=-1.80D-06 OVMax= 9.82D-05

 Cycle   8  Pass 1  IDiag  1:
 RMSU=  1.86D-06    CP:  1.00D+00  1.03D+00  8.17D-01  7.33D-01  8.68D-01
                    CP:  9.19D-01  8.60D-01
 E= -916.160352538486     Delta-E=       -0.000000198250 Rises=F Damp=F
 DIIS: error= 8.95D-06 at cycle   8 NSaved=   8.
 NSaved= 8 IEnMin= 8 EnMin= -916.160352538486     IErMin= 8 ErrMin= 8.95D-06
 ErrMax= 8.95D-06  0.00D+00 EMaxC= 1.00D-01 BMatC= 2.23D-08 BMatP= 2.44D-07
 IDIUse=1 WtCom= 1.00D+00 WtEn= 0.00D+00
 Coeff-Com:  0.926D-05 0.298D-04-0.264D-02-0.663D-02-0.222D-01 0.251D-01
 Coeff-Com:  0.258D+00 0.749D+00
 Coeff:      0.926D-05 0.298D-04-0.264D-02-0.663D-02-0.222D-01 0.251D-01
 Coeff:      0.258D+00 0.749D+00
 Gap=     0.427 Goal=   None    Shift=    0.000
 RMSDP=8.54D-07 MaxDP=3.09D-05 DE=-1.98D-07 OVMax= 3.00D-05

 Cycle   9  Pass 1  IDiag  1:
 RMSU=  4.46D-07    CP:  1.00D+00  1.03D+00  8.17D-01  7.33D-01  8.69D-01
                    CP:  9.43D-01  9.42D-01  9.05D-01
 E= -916.160352559959     Delta-E=       -0.000000021473 Rises=F Damp=F
 DIIS: error= 1.70D-06 at cycle   9 NSaved=   9.
 NSaved= 9 IEnMin= 9 EnMin= -916.160352559959     IErMin= 9 ErrMin= 1.70D-06
 ErrMax= 1.70D-06  0.00D+00 EMaxC= 1.00D-01 BMatC= 9.63D-10 BMatP= 2.23D-08
 IDIUse=1 WtCom= 1.00D+00 WtEn= 0.00D+00
 Coeff-Com: -0.115D-04 0.623D-04-0.458D-03-0.148D-02-0.856D-02-0.736D-02
 Coeff-Com:  0.353D-01 0.203D+00 0.780D+00
 Coeff:     -0.115D-04 0.623D-04-0.458D-03-0.148D-02-0.856D-02-0.736D-02
 Coeff:      0.353D-01 0.203D+00 0.780D+00
 Gap=     0.427 Goal=   None    Shift=    0.000
 RMSDP=2.17D-07 MaxDP=4.84D-06 DE=-2.15D-08 OVMax= 1.14D-05

 Cycle  10  Pass 1  IDiag  1:
 RMSU=  1.56D-07    CP:  1.00D+00  1.03D+00  8.17D-01  7.33D-01  8.70D-01
                    CP:  9.47D-01  9.58D-01  9.52D-01  9.66D-01
 E= -916.160352560848     Delta-E=       -0.000000000890 Rises=F Damp=F
 DIIS: error= 6.41D-07 at cycle  10 NSaved=  10.
 NSaved=10 IEnMin=10 EnMin= -916.160352560848     IErMin=10 ErrMin= 6.41D-07
 ErrMax= 6.41D-07  0.00D+00 EMaxC= 1.00D-01 BMatC= 1.45D-10 BMatP= 9.63D-10
 IDIUse=1 WtCom= 1.00D+00 WtEn= 0.00D+00
 Coeff-Com: -0.729D-05 0.221D-04 0.933D-04 0.137D-03-0.948D-03-0.509D-02
 Coeff-Com: -0.139D-01-0.764D-02 0.291D+00 0.736D+00
 Coeff:     -0.729D-05 0.221D-04 0.933D-04 0.137D-03-0.948D-03-0.509D-02
 Coeff:     -0.139D-01-0.764D-02 0.291D+00 0.736D+00
 Gap=     0.427 Goal=   None    Shift=    0.000
 RMSDP=8.46D-08 MaxDP=2.46D-06 DE=-8.90D-10 OVMax= 3.54D-06

 Cycle  11  Pass 1  IDiag  1:
 RMSU=  4.90D-08    CP:  1.00D+00  1.03D+00  8.17D-01  7.33D-01  8.70D-01
                    CP:  9.48D-01  9.60D-01  9.67D-01  1.07D+00  8.48D-01
 E= -916.160352560970     Delta-E=       -0.000000000122 Rises=F Damp=F
 DIIS: error= 3.08D-07 at cycle  11 NSaved=  11.
 NSaved=11 IEnMin=11 EnMin= -916.160352560970     IErMin=11 ErrMin= 3.08D-07
 ErrMax= 3.08D-07  0.00D+00 EMaxC= 1.00D-01 BMatC= 2.41D-11 BMatP= 1.45D-10
 IDIUse=1 WtCom= 1.00D+00 WtEn= 0.00D+00
 Coeff-Com: -0.266D-05 0.546D-05 0.815D-04 0.194D-03 0.304D-03-0.159D-02
 Coeff-Com: -0.903D-02-0.224D-01 0.743D-01 0.363D+00 0.595D+00
 Coeff:     -0.266D-05 0.546D-05 0.815D-04 0.194D-03 0.304D-03-0.159D-02
 Coeff:     -0.903D-02-0.224D-01 0.743D-01 0.363D+00 0.595D+00
 Gap=     0.427 Goal=   None    Shift=    0.000
 RMSDP=2.50D-08 MaxDP=9.35D-07 DE=-1.22D-10 OVMax= 9.00D-07

 Cycle  12  Pass 1  IDiag  1:
 RMSU=  1.52D-08    CP:  1.00D+00  1.03D+00  8.17D-01  7.33D-01  8.70D-01
                    CP:  9.48D-01  9.61D-01  9.71D-01  1.09D+00  9.25D-01
                    CP:  7.59D-01
 E= -916.160352560991     Delta-E=       -0.000000000021 Rises=F Damp=F
 DIIS: error= 6.59D-08 at cycle  12 NSaved=  12.
 NSaved=12 IEnMin=12 EnMin= -916.160352560991     IErMin=12 ErrMin= 6.59D-08
 ErrMax= 6.59D-08  0.00D+00 EMaxC= 1.00D-01 BMatC= 9.17D-13 BMatP= 2.41D-11
 IDIUse=1 WtCom= 1.00D+00 WtEn= 0.00D+00
 Coeff-Com:  0.201D-06-0.109D-05 0.115D-04 0.338D-04 0.177D-03 0.118D-03
 Coeff-Com: -0.555D-03-0.616D-02-0.150D-01 0.109D-01 0.155D+00 0.855D+00
 Coeff:      0.201D-06-0.109D-05 0.115D-04 0.338D-04 0.177D-03 0.118D-03
 Coeff:     -0.555D-03-0.616D-02-0.150D-01 0.109D-01 0.155D+00 0.855D+00
 Gap=     0.427 Goal=   None    Shift=    0.000
 RMSDP=7.74D-09 MaxDP=1.92D-07 DE=-2.09D-11 OVMax= 3.18D-07

 Error on total polarization charges =  0.03693
 SCF Done:  E(RM052X) =  -916.160352561     A.U. after   12 cycles
            NFock= 12  Conv=0.77D-08     -V/T= 2.0069
 KE= 9.098779967900D+02 PE=-3.802819141396D+03 EE= 1.151987269665D+03
 SMD-CDS (non-electrostatic) energy       (kcal/mol) =       4.50
 (included in total energy above)
 Leave Link  502 at Wed Oct 11 15:22:38 2023, MaxMem=  6710886400 cpu:             475.4 elap:              20.4
 (Enter /data0/home/software/g16/l601.exe)
 Copying SCF densities to generalized density rwf, IOpCl= 0 IROHF=0.

 **********************************************************************

            Population analysis using the SCF density.

 **********************************************************************

 Orbital symmetries:
       Occupied  (A) (A) (A) (A) (A) (A) (A) (A) (A) (A) (A) (A)
                 (A) (A) (A) (A) (A) (A) (A) (A) (A) (A) (A) (A)
                 (A) (A) (A) (A) (A) (A) (A) (A) (A) (A) (A) (A)
                 (A) (A) (A) (A) (A) (A) (A) (A) (A) (A) (A) (A)
                 (A)
       Virtual   (A) (A) (A) (A) (A) (A) (A) (A) (A) (A) (A) (A)
                 (A) (A) (A) (A) (A) (A) (A) (A) (A) (A) (A) (A)
                 (A) (A) (A) (A) (A) (A) (A) (A) (A) (A) (A) (A)
                 (A) (A) (A) (A) (A) (A) (A) (A) (A) (A) (A) (A)
                 (A) (A) (A) (A) (A) (A) (A) (A) (A) (A) (A) (A)
                 (A) (A) (A) (A) (A) (A) (A) (A) (A) (A) (A) (A)
                 (A) (A) (A) (A) (A) (A) (A) (A) (A) (A) (A) (A)
                 (A) (A) (A) (A) (A) (A) (A) (A) (A) (A) (A) (A)
                 (A) (A) (A) (A) (A) (A) (A) (A) (A) (A) (A) (A)
                 (A) (A) (A) (A) (A) (A) (A) (A) (A) (A) (A) (A)
                 (A) (A) (A) (A) (A) (A) (A) (A) (A) (A) (A) (A)
                 (A) (A) (A) (A) (A) (A) (A) (A) (A) (A) (A) (A)
                 (A) (A) (A) (A) (A) (A)
 The electronic state is 1-A.
 Alpha  occ. eigenvalues --  -90.22875 -19.64320 -19.64277 -19.64187 -14.92483
 Alpha  occ. eigenvalues --  -10.62130 -10.61251 -10.61229 -10.61209 -10.59223
 Alpha  occ. eigenvalues --  -10.58377  -8.43531  -6.36164  -6.36159  -6.36046
 Alpha  occ. eigenvalues --   -1.22176  -1.13221  -1.07307  -1.07254  -0.91841
 Alpha  occ. eigenvalues --   -0.84491  -0.84459  -0.83312  -0.74820  -0.69430
 Alpha  occ. eigenvalues --   -0.64698  -0.60449  -0.59945  -0.58179  -0.56994
 Alpha  occ. eigenvalues --   -0.54215  -0.53222  -0.52364  -0.50881  -0.49243
 Alpha  occ. eigenvalues --   -0.48279  -0.46799  -0.46338  -0.46131  -0.46080
 Alpha  occ. eigenvalues --   -0.44457  -0.42929  -0.41929  -0.40467  -0.40381
 Alpha  occ. eigenvalues --   -0.35890  -0.35691  -0.34226  -0.32032
 Alpha virt. eigenvalues --    0.10705   0.13995   0.16438   0.16858   0.17214
 Alpha virt. eigenvalues --    0.17729   0.18268   0.19478   0.19670   0.19939
 Alpha virt. eigenvalues --    0.21225   0.21585   0.21970   0.23155   0.23343
 Alpha virt. eigenvalues --    0.24124   0.24610   0.25088   0.26301   0.26383
 Alpha virt. eigenvalues --    0.27561   0.29492   0.30758   0.32624   0.34119
 Alpha virt. eigenvalues --    0.39315   0.47264   0.48001   0.48911   0.53321
 Alpha virt. eigenvalues --    0.53791   0.54138   0.55480   0.58318   0.61265
 Alpha virt. eigenvalues --    0.62915   0.65535   0.66873   0.70338   0.70634
 Alpha virt. eigenvalues --    0.72202   0.74714   0.78278   0.82361   0.84519
 Alpha virt. eigenvalues --    0.85410   0.86684   0.87300   0.88701   0.89616
 Alpha virt. eigenvalues --    0.90562   0.92145   0.93559   0.95480   0.96802
 Alpha virt. eigenvalues --    0.97877   0.98517   0.99011   0.99673   1.00638
 Alpha virt. eigenvalues --    1.01311   1.02395   1.02971   1.04072   1.04682
 Alpha virt. eigenvalues --    1.05519   1.08010   1.09880   1.10167   1.11271
 Alpha virt. eigenvalues --    1.11760   1.12643   1.13183   1.15889   1.18666
 Alpha virt. eigenvalues --    1.19981   1.24280   1.30172   1.31518   1.32763
 Alpha virt. eigenvalues --    1.35158   1.40772   1.40880   1.48887   1.50163
 Alpha virt. eigenvalues --    1.54618   1.57874   1.62095   1.64159   1.71658
 Alpha virt. eigenvalues --    1.72360   1.78041   1.79266   1.79329   1.85472
 Alpha virt. eigenvalues --    1.87263   1.88533   1.89148   1.90091   1.91396
 Alpha virt. eigenvalues --    1.92022   1.93329   1.94313   1.95848   1.96817
 Alpha virt. eigenvalues --    1.98464   1.99171   2.03036   2.04485   2.06879
 Alpha virt. eigenvalues --    2.12863   2.14436   2.18398   2.18693   2.21350
 Alpha virt. eigenvalues --    2.22072   2.24551   2.26226   2.28558   2.30798
 Alpha virt. eigenvalues --    2.32481   2.32691   2.34361   2.34759   2.38363
 Alpha virt. eigenvalues --    2.40116   2.42819   2.47126   2.51148   2.55726
 Alpha virt. eigenvalues --    2.63369   2.66363   2.73714   2.74407   2.75941
 Alpha virt. eigenvalues --    2.81410   2.85377   2.89140   2.91816   3.80314
 Alpha virt. eigenvalues --    3.85199   3.98159   4.09600   4.14810   4.27841
 Alpha virt. eigenvalues --    4.33666   4.34393   4.40403   4.41716   4.58027
          Condensed to atoms (all electrons):
               1          2          3          4          5          6
     1  C    5.156286   0.382668   0.381492   0.382375  -0.057345  -0.002980
     2  H    0.382668   0.440192  -0.019852  -0.019718  -0.003353   0.003449
     3  H    0.381492  -0.019852   0.441159  -0.019626   0.004387   0.000044
     4  H    0.382375  -0.019718  -0.019626   0.438600  -0.002951  -0.000543
     5  C   -0.057345  -0.003353   0.004387  -0.002951   5.154925   0.388898
     6  H   -0.002980   0.003449   0.000044  -0.000543   0.388898   0.457551
     7  H   -0.002409  -0.000569   0.000032   0.003601   0.376094  -0.021745
     8  C   -0.053566   0.004313  -0.003322  -0.003020  -0.049472   0.004392
     9  H    0.004029  -0.000156   0.000022   0.000018  -0.005120  -0.000039
    10  H   -0.003514   0.000056   0.003098  -0.000457   0.004124  -0.000131
    11  H   -0.002736  -0.000019  -0.000317   0.002555  -0.001183   0.000043
    12  C   -0.053906  -0.003009  -0.003298   0.004319  -0.047226  -0.003970
    13  H   -0.003498  -0.000473   0.003090   0.000061   0.004064  -0.000041
    14  H    0.004045   0.000021   0.000017  -0.000155  -0.004889  -0.000130
    15  H   -0.002726   0.002581  -0.000313  -0.000021  -0.001743   0.003138
    16  C    0.004517   0.000037  -0.000163   0.000044   0.340461  -0.036034
    17  H   -0.000044   0.000000   0.000003  -0.000004  -0.035546   0.003616
    18  H   -0.000028  -0.000005   0.000003   0.000002  -0.036615  -0.003082
    19  C   -0.000088  -0.000006   0.000002  -0.000002  -0.039669  -0.002490
    20  H    0.000001   0.000000  -0.000000  -0.000000   0.004508   0.000014
    21  H   -0.000005  -0.000001   0.000000   0.000000  -0.005125   0.003535
    22  N    0.243977  -0.029586  -0.029523  -0.029616   0.207578  -0.033558
    23  S   -0.000023   0.000000   0.000000  -0.000010  -0.004935  -0.000606
    24  O   -0.000000  -0.000000  -0.000000   0.000000  -0.001049   0.000003
    25  O    0.000006   0.000001  -0.000000  -0.000021  -0.000921   0.000093
    26  O   -0.000000  -0.000000  -0.000000  -0.000000  -0.000055   0.000001
               7          8          9         10         11         12
     1  C   -0.002409  -0.053566   0.004029  -0.003514  -0.002736  -0.053906
     2  H   -0.000569   0.004313  -0.000156   0.000056  -0.000019  -0.003009
     3  H    0.000032  -0.003322   0.000022   0.003098  -0.000317  -0.003298
     4  H    0.003601  -0.003020   0.000018  -0.000457   0.002555   0.004319
     5  C    0.376094  -0.049472  -0.005120   0.004124  -0.001183  -0.047226
     6  H   -0.021745   0.004392  -0.000039  -0.000131   0.000043  -0.003970
     7  H    0.445204  -0.003760  -0.000101  -0.000041   0.002973   0.004143
     8  C   -0.003760   5.165364   0.382536   0.382630   0.381984  -0.054778
     9  H   -0.000101   0.382536   0.436666  -0.020249  -0.019508  -0.002757
    10  H   -0.000041   0.382630  -0.020249   0.440891  -0.019727  -0.002811
    11  H    0.002973   0.381984  -0.019508  -0.019727   0.439277   0.004182
    12  C    0.004143  -0.054778  -0.002757  -0.002811   0.004182   5.165318
    13  H   -0.000123  -0.002844  -0.000369   0.002574  -0.000013   0.382696
    14  H   -0.000039  -0.002701   0.002625  -0.000390   0.000039   0.382499
    15  H    0.000046   0.004184   0.000035  -0.000011  -0.000157   0.382175
    16  C   -0.033634  -0.003164   0.002785   0.000100  -0.001131  -0.003184
    17  H   -0.003261   0.002342   0.000345   0.000037   0.000110  -0.000443
    18  H    0.003454  -0.000645   0.000023  -0.000021   0.000052   0.002949
    19  C   -0.002745   0.000037   0.000036  -0.000002  -0.000035  -0.000015
    20  H   -0.000015   0.000004   0.000002  -0.000000  -0.000000   0.000002
    21  H   -0.000084   0.000001  -0.000003   0.000000   0.000000  -0.000010
    22  N   -0.031321   0.231975  -0.028189  -0.029344  -0.030457   0.230145
    23  S    0.006180  -0.000008  -0.000005   0.000000   0.000066  -0.000002
    24  O   -0.000289  -0.000014  -0.000025  -0.000000   0.000027   0.000000
    25  O    0.013327   0.000009   0.000002   0.000000  -0.000024  -0.000002
    26  O    0.000030   0.000000  -0.000000   0.000000   0.000000  -0.000000
              13         14         15         16         17         18
     1  C   -0.003498   0.004045  -0.002726   0.004517  -0.000044  -0.000028
     2  H   -0.000473   0.000021   0.002581   0.000037   0.000000  -0.000005
     3  H    0.003090   0.000017  -0.000313  -0.000163   0.000003   0.000003
     4  H    0.000061  -0.000155  -0.000021   0.000044  -0.000004   0.000002
     5  C    0.004064  -0.004889  -0.001743   0.340461  -0.035546  -0.036615
     6  H   -0.000041  -0.000130   0.003138  -0.036034   0.003616  -0.003082
     7  H   -0.000123  -0.000039   0.000046  -0.033634  -0.003261   0.003454
     8  C   -0.002844  -0.002701   0.004184  -0.003164   0.002342  -0.000645
     9  H   -0.000369   0.002625   0.000035   0.002785   0.000345   0.000023
    10  H    0.002574  -0.000390  -0.000011   0.000100   0.000037  -0.000021
    11  H   -0.000013   0.000039  -0.000157  -0.001131   0.000110   0.000052
    12  C    0.382696   0.382499   0.382175  -0.003184  -0.000443   0.002949
    13  H    0.440521  -0.020291  -0.019774   0.000125  -0.000018   0.000036
    14  H   -0.020291   0.436645  -0.019611   0.001987   0.000091   0.001144
    15  H   -0.019774  -0.019611   0.440257  -0.001009   0.000038   0.000011
    16  C    0.000125   0.001987  -0.001009   5.181694   0.377530   0.381172
    17  H   -0.000018   0.000091   0.000038   0.377530   0.491034  -0.024671
    18  H    0.000036   0.001144   0.000011   0.381172  -0.024671   0.485632
    19  C   -0.000000  -0.000010  -0.000015   0.272694  -0.037635  -0.025304
    20  H   -0.000000  -0.000000   0.000000  -0.031500  -0.001776  -0.005534
    21  H   -0.000000   0.000008  -0.000000  -0.031753   0.004354  -0.002069
    22  N   -0.029261  -0.028096  -0.030202  -0.038315  -0.002908  -0.003879
    23  S    0.000000  -0.000002  -0.000001  -0.010297  -0.002411   0.001569
    24  O   -0.000000   0.000000  -0.000000  -0.002947   0.011160   0.000068
    25  O    0.000000  -0.000000   0.000000  -0.004393  -0.000422  -0.000080
    26  O   -0.000000   0.000000  -0.000000   0.002688   0.000036  -0.000043
              19         20         21         22         23         24
     1  C   -0.000088   0.000001  -0.000005   0.243977  -0.000023  -0.000000
     2  H   -0.000006   0.000000  -0.000001  -0.029586   0.000000  -0.000000
     3  H    0.000002  -0.000000   0.000000  -0.029523   0.000000  -0.000000
     4  H   -0.000002  -0.000000   0.000000  -0.029616  -0.000010   0.000000
     5  C   -0.039669   0.004508  -0.005125   0.207578  -0.004935  -0.001049
     6  H   -0.002490   0.000014   0.003535  -0.033558  -0.000606   0.000003
     7  H   -0.002745  -0.000015  -0.000084  -0.031321   0.006180  -0.000289
     8  C    0.000037   0.000004   0.000001   0.231975  -0.000008  -0.000014
     9  H    0.000036   0.000002  -0.000003  -0.028189  -0.000005  -0.000025
    10  H   -0.000002  -0.000000   0.000000  -0.029344   0.000000  -0.000000
    11  H   -0.000035  -0.000000   0.000000  -0.030457   0.000066   0.000027
    12  C   -0.000015   0.000002  -0.000010   0.230145  -0.000002   0.000000
    13  H   -0.000000  -0.000000  -0.000000  -0.029261   0.000000  -0.000000
    14  H   -0.000010  -0.000000   0.000008  -0.028096  -0.000002   0.000000
    15  H   -0.000015   0.000000  -0.000000  -0.030202  -0.000001  -0.000000
    16  C    0.272694  -0.031500  -0.031753  -0.038315  -0.010297  -0.002947
    17  H   -0.037635  -0.001776   0.004354  -0.002908  -0.002411   0.011160
    18  H   -0.025304  -0.005534  -0.002069  -0.003879   0.001569   0.000068
    19  C    5.657957   0.358021   0.350131   0.003111   0.212200  -0.067373
    20  H    0.358021   0.458442  -0.019668  -0.000046  -0.009082  -0.001217
    21  H    0.350131  -0.019668   0.470664  -0.000012  -0.009294   0.001988
    22  N    0.003111  -0.000046  -0.000012   6.886464   0.000146   0.000000
    23  S    0.212200  -0.009082  -0.009294   0.000146  13.399238   0.424045
    24  O   -0.067373  -0.001217   0.001988   0.000000   0.424045   8.454045
    25  O   -0.064508   0.001880  -0.000808   0.000115   0.407930  -0.060449
    26  O   -0.060264   0.000612  -0.000038   0.000000   0.428830  -0.060674
              25         26
     1  C    0.000006  -0.000000
     2  H    0.000001  -0.000000
     3  H   -0.000000  -0.000000
     4  H   -0.000021  -0.000000
     5  C   -0.000921  -0.000055
     6  H    0.000093   0.000001
     7  H    0.013327   0.000030
     8  C    0.000009   0.000000
     9  H    0.000002  -0.000000
    10  H    0.000000   0.000000
    11  H   -0.000024   0.000000
    12  C   -0.000002  -0.000000
    13  H    0.000000  -0.000000
    14  H   -0.000000   0.000000
    15  H    0.000000  -0.000000
    16  C   -0.004393   0.002688
    17  H   -0.000422   0.000036
    18  H   -0.000080  -0.000043
    19  C   -0.064508  -0.060264
    20  H    0.001880   0.000612
    21  H   -0.000808  -0.000038
    22  N    0.000115   0.000000
    23  S    0.407930   0.428830
    24  O   -0.060449  -0.060674
    25  O    8.461480  -0.060398
    26  O   -0.060398   8.447205
 Mulliken charges:
               1
     1  C   -0.376528
     2  H    0.243427
     3  H    0.243066
     4  H    0.244569
     5  C   -0.187842
     6  H    0.240573
     7  H    0.245053
     8  C   -0.382476
     9  H    0.247397
    10  H    0.243188
    11  H    0.243998
    12  C   -0.383014
    13  H    0.243542
    14  H    0.247194
    15  H    0.243121
    16  C   -0.368312
    17  H    0.218442
    18  H    0.225861
    19  C   -0.554029
    20  H    0.245351
    21  H    0.238190
    22  N   -0.429196
    23  S    1.156471
    24  O   -0.697300
    25  O   -0.692817
    26  O   -0.697930
 Sum of Mulliken charges =  -0.00000
 Mulliken charges with hydrogens summed into heavy atoms:
               1
     1  C    0.354535
     5  C    0.297784
     8  C    0.352107
    12  C    0.350843
    16  C    0.075991
    19  C   -0.070488
    22  N   -0.429196
    23  S    1.156471
    24  O   -0.697300
    25  O   -0.692817
    26  O   -0.697930
 Electronic spatial extent (au):  <R**2>=           2723.1170
 Charge=              0.0000 electrons
 Dipole moment (field-independent basis, Debye):
    X=            -25.8838    Y=              4.3042    Z=             -1.4834  Tot=             26.2812
 Quadrupole moment (field-independent basis, Debye-Ang):
   XX=            -83.0794   YY=            -71.3037   ZZ=            -75.6880
   XY=              7.6807   XZ=             -1.4272   YZ=             -1.7653
 Traceless Quadrupole moment (field-independent basis, Debye-Ang):
   XX=             -6.3890   YY=              5.3867   ZZ=              1.0024
   XY=              7.6807   XZ=             -1.4272   YZ=             -1.7653
 Octapole moment (field-independent basis, Debye-Ang**2):
  XXX=           -265.7983  YYY=              9.8128  ZZZ=            -10.0883  XYY=            -22.4619
  XXY=              0.3218  XXZ=              3.1700  XZZ=            -33.6586  YZZ=              2.5668
  YYZ=              3.1492  XYZ=             -1.8085
 Hexadecapole moment (field-independent basis, Debye-Ang**3):
 XXXX=          -2739.6051 YYYY=           -408.1737 ZZZZ=           -347.6236 XXXY=              3.3029
 XXXZ=             33.0372 YYYX=             20.9403 YYYZ=             -2.5580 ZZZX=            -22.1480
 ZZZY=             -1.1289 XXYY=           -480.6047 XXZZ=           -509.8613 YYZZ=           -129.1856
 XXYZ=              0.1686 YYXZ=             10.8161 ZZXY=              9.1495
 N-N= 8.247935223801D+02 E-N=-3.802819137044D+03  KE= 9.098779967900D+02
 No NMR shielding tensors so no spin-rotation constants.
 Leave Link  601 at Wed Oct 11 15:22:38 2023, MaxMem=  6710886400 cpu:               2.3 elap:               0.1
 (Enter /data0/home/software/g16/l9999.exe)
 1\1\GINC-LOCALHOST\SP\RM052X\6-31G(d)\C6H15N1O3S1\WUHANYU\11-Oct-2023\
 0\\#p M052X/6-31G* scrf=(smd,solvent=water)\\Title Card Required\\0,1\
 C,0,-3.117658,-1.254343,-0.726906\H,0,-3.081879,-1.056127,-1.795178\H,
 0,-4.148196,-1.334917,-0.390902\H,0,-2.569008,-2.162649,-0.490977\C,0,
 -1.036431,-0.021214,-0.488337\H,0,-1.092979,0.11019,-1.568259\H,0,-0.6
 0129,-0.994161,-0.278436\C,0,-2.531355,-0.369537,1.464019\H,0,-2.13356
 3,0.48785,1.997386\H,0,-3.571377,-0.525574,1.73908\H,0,-1.944702,-1.25
 9259,1.679378\C,0,-3.231942,1.14309,-0.328149\H,0,-4.273592,0.982988,-
 0.061435\H,0,-2.82798,1.969065,0.248384\H,0,-3.140321,1.339789,-1.3936
 65\C,0,-0.217924,1.093931,0.140703\H,0,-0.140363,0.967153,1.220045\H,0
 ,-0.692171,2.058721,-0.043057\C,0,1.183322,1.175999,-0.458013\H,0,1.67
 9444,2.084507,-0.11802\H,0,1.164725,1.180225,-1.548679\N,0,-2.472905,-
 0.107271,-0.008994\S,0,2.301918,-0.161478,0.016276\O,0,2.276116,-0.221
 62,1.49767\O,0,1.793454,-1.405946,-0.607749\O,0,3.626034,0.237464,-0.5
 16548\\Version=ES64L-G16RevA.03\State=1-A\HF=-916.1603526\RMSD=7.739e-
 09\Dipole=-10.1834871,1.6934194,-0.5836095\Quadrupole=-4.7500844,4.004
 8555,0.7452289,5.7104319,-1.061069,-1.3124703\PG=C01 [X(C6H15N1O3S1)]\
 \@


 ANYONE WHO IS NOT SHOCKED BY QUANTUM THEORY HAS
 NOT UNDERSTOOD IT. -- NIELS BOHR(1885-1962)
 Job cpu time:       0 days  0 hours  8 minutes 22.0 seconds.
 Elapsed time:       0 days  0 hours  0 minutes 21.7 seconds.
 File lengths (MBytes):  RWF=     73 Int=      0 D2E=      0 Chk=      4 Scr=      1
 Normal termination of Gaussian 16 at Wed Oct 11 15:22:38 2023.
