 Entering Gaussian System, Link 0=g16
 Initial command:
 /data0/home/software/g16/l1.exe "/data0/home/software/g16/scratch/Gau-2559346.inp" -scrdir="/data0/home/software/g16/scratch/"
 Default is to use a total of  22 processors:
                               22 via shared-memory
                                1 via Linda
 Entering Link 1 = /data0/home/software/g16/l1.exe PID=   2559347.
  
 Copyright (c) 1988,1990,1992,1993,1995,1998,2003,2009,2016,
            Gaussian, Inc.  All Rights Reserved.
  
 This is part of the Gaussian(R) 16 program.  It is based on
 the Gaussian(R) 09 system (copyright 2009, Gaussian, Inc.),
 the Gaussian(R) 03 system (copyright 2003, Gaussian, Inc.),
 the Gaussian(R) 98 system (copyright 1998, Gaussian, Inc.),
 the Gaussian(R) 94 system (copyright 1995, Gaussian, Inc.),
 the Gaussian 92(TM) system (copyright 1992, Gaussian, Inc.),
 the Gaussian 90(TM) system (copyright 1990, Gaussian, Inc.),
 the Gaussian 88(TM) system (copyright 1988, Gaussian, Inc.),
 the Gaussian 86(TM) system (copyright 1986, Carnegie Mellon
 University), and the Gaussian 82(TM) system (copyright 1983,
 Carnegie Mellon University). Gaussian is a federally registered
 trademark of Gaussian, Inc.
  
 This software contains proprietary and confidential information,
 including trade secrets, belonging to Gaussian, Inc.
  
 This software is provided under written license and may be
 used, copied, transmitted, or stored only in accord with that
 written license.
  
 The following legend is applicable only to US Government
 contracts under FAR:
  
                    RESTRICTED RIGHTS LEGEND
  
 Use, reproduction and disclosure by the US Government is
 subject to restrictions as set forth in subparagraphs (a)
 and (c) of the Commercial Computer Software - Restricted
 Rights clause in FAR 52.227-19.
  
 Gaussian, Inc.
 340 Quinnipiac St., Bldg. 40, Wallingford CT 06492
  
  
 ---------------------------------------------------------------
 Warning -- This program may not be used in any manner that
 competes with the business of Gaussian, Inc. or will provide
 assistance to any competitor of Gaussian, Inc.  The licensee
 of this program is prohibited from giving any competitor of
 Gaussian, Inc. access to this program.  By using this program,
 the user acknowledges that Gaussian, Inc. is engaged in the
 business of creating and licensing software in the field of
 computational chemistry and represents and warrants to the
 licensee that it is not a competitor of Gaussian, Inc. and that
 it will not use this program in any manner prohibited above.
 ---------------------------------------------------------------
  

 Cite this work as:
 Gaussian 16, Revision A.03,
 M. J. Frisch, G. W. Trucks, H. B. Schlegel, G. E. Scuseria, 
 M. A. Robb, J. R. Cheeseman, G. Scalmani, V. Barone, 
 G. A. Petersson, H. Nakatsuji, X. Li, M. Caricato, A. V. Marenich, 
 J. Bloino, B. G. Janesko, R. Gomperts, B. Mennucci, H. P. Hratchian, 
 J. V. Ortiz, A. F. Izmaylov, J. L. Sonnenberg, D. Williams-Young, 
 F. Ding, F. Lipparini, F. Egidi, J. Goings, B. Peng, A. Petrone, 
 T. Henderson, D. Ranasinghe, V. G. Zakrzewski, J. Gao, N. Rega, 
 G. Zheng, W. Liang, M. Hada, M. Ehara, K. Toyota, R. Fukuda, 
 J. Hasegawa, M. Ishida, T. Nakajima, Y. Honda, O. Kitao, H. Nakai, 
 T. Vreven, K. Throssell, J. A. Montgomery, Jr., J. E. Peralta, 
 F. Ogliaro, M. J. Bearpark, J. J. Heyd, E. N. Brothers, K. N. Kudin, 
 V. N. Staroverov, T. A. Keith, R. Kobayashi, J. Normand, 
 K. Raghavachari, A. P. Rendell, J. C. Burant, S. S. Iyengar, 
 J. Tomasi, M. Cossi, J. M. Millam, M. Klene, C. Adamo, R. Cammi, 
 J. W. Ochterski, R. L. Martin, K. Morokuma, O. Farkas, 
 J. B. Foresman, and D. J. Fox, Gaussian, Inc., Wallingford CT, 2016.
 
 ******************************************
 Gaussian 16:  ES64L-G16RevA.03 25-Dec-2016
                11-Oct-2023 
 ******************************************
 %mem=100GB
 %nprocshared=24
 Will use up to   24 processors via shared memory.
 ----------------------------------------
 #p opt freq b3lyp/6-311+g(2d,p) em=gd3bj
 ----------------------------------------
 1/18=20,19=15,26=3,38=1/1,3;
 2/9=110,12=2,17=6,18=5,40=1/2;
 3/5=4,6=6,7=112,11=2,25=1,30=1,71=1,74=-5,124=41/1,2,3;
 4//1;
 5/5=2,38=5/2;
 6/7=2,8=2,9=2,10=2,28=1/1;
 7//1,2,3,16;
 1/18=20,19=15,26=3/3(2);
 2/9=110/2;
 99//99;
 2/9=110/2;
 3/5=4,6=6,7=112,11=2,25=1,30=1,71=1,74=-5,124=41/1,2,3;
 4/5=5,16=3,69=1/1;
 5/5=2,38=5/2;
 7//1,2,3,16;
 1/18=20,19=15,26=3/3(-5);
 2/9=110/2;
 6/7=2,8=2,9=2,10=2,19=2,28=1/1;
 99/9=1/99;
 Leave Link    1 at Wed Oct 11 23:20:06 2023, MaxMem= 13421772800 cpu:               0.7 elap:               0.0
 (Enter /data0/home/software/g16/l101.exe)
 -------------------
 Title Card Required
 -------------------
 Symbolic Z-matrix:
 Charge =  0 Multiplicity = 1
 C                    -0.90748   0.44783  -0.10538 
 C                    -2.15497   1.03425   0.07344 
 C                    -3.27253   0.20027   0.08679 
 C                    -3.12682  -1.17263  -0.0781 
 C                    -1.86518  -1.69801  -0.25805 
 H                    -4.26135   0.62261   0.22708 
 H                     0.06505   0.97599  -0.11262 
 H                    -3.98108  -1.83544  -0.069 
 H                    -1.67861  -2.75325  -0.39605 
 C                    -2.26216   2.52478   0.24325 
 H                    -2.74638   2.77343   1.19065 
 H                    -1.27805   2.99093   0.22687 
 H                    -2.86292   2.96311  -0.55751 
 N                    -0.79144  -0.88776  -0.26957 
 C                     0.58676  -1.43821  -0.45571 
 H                     0.46532  -2.4697   -0.78468 
 H                     1.03018  -0.85549  -1.26059 
 C                     1.45295  -1.32114   0.81263 
 H                     0.97704  -0.62347   1.50352 
 H                     1.49446  -2.29344   1.3143 
 C                     2.85618  -0.80223   0.49172 
 H                     3.46094  -0.80257   1.40216 
 H                     3.37215  -1.46622  -0.20859 
 C                     2.89604   0.64536  -0.09801 
 O                     4.00537   1.05205  -0.44559 
 O                     1.77796   1.25623  -0.16242 
 
 ITRead=  0  0  0  0  0  0  0  0  0  0  0  0  0  0  0  0  0  0  0  0
 ITRead=  0  0  0  0  0  0
 MicOpt= -1 -1 -1 -1 -1 -1 -1 -1 -1 -1 -1 -1 -1 -1 -1 -1 -1 -1 -1 -1
 MicOpt= -1 -1 -1 -1 -1 -1
 NAtoms=     26 NQM=       26 NQMF=       0 NMMI=      0 NMMIF=      0
                NMic=       0 NMicF=      0.
                    Isotopes and Nuclear Properties:
 (Nuclear quadrupole moments (NQMom) in fm**2, nuclear magnetic moments (NMagM)
  in nuclear magnetons)

  Atom         1           2           3           4           5           6           7           8           9          10
 IAtWgt=          12          12          12          12          12           1           1           1           1          12
 AtmWgt=  12.0000000  12.0000000  12.0000000  12.0000000  12.0000000   1.0078250   1.0078250   1.0078250   1.0078250  12.0000000
 NucSpn=           0           0           0           0           0           1           1           1           1           0
 AtZEff=  -0.0000000  -0.0000000  -0.0000000  -0.0000000  -0.0000000  -0.0000000  -0.0000000  -0.0000000  -0.0000000  -0.0000000
 NQMom=    0.0000000   0.0000000   0.0000000   0.0000000   0.0000000   0.0000000   0.0000000   0.0000000   0.0000000   0.0000000
 NMagM=    0.0000000   0.0000000   0.0000000   0.0000000   0.0000000   2.7928460   2.7928460   2.7928460   2.7928460   0.0000000
 AtZNuc=   6.0000000   6.0000000   6.0000000   6.0000000   6.0000000   1.0000000   1.0000000   1.0000000   1.0000000   6.0000000

  Atom        11          12          13          14          15          16          17          18          19          20
 IAtWgt=           1           1           1          14          12           1           1          12           1           1
 AtmWgt=   1.0078250   1.0078250   1.0078250  14.0030740  12.0000000   1.0078250   1.0078250  12.0000000   1.0078250   1.0078250
 NucSpn=           1           1           1           2           0           1           1           0           1           1
 AtZEff=  -0.0000000  -0.0000000  -0.0000000  -0.0000000  -0.0000000  -0.0000000  -0.0000000  -0.0000000  -0.0000000  -0.0000000
 NQMom=    0.0000000   0.0000000   0.0000000   2.0440000   0.0000000   0.0000000   0.0000000   0.0000000   0.0000000   0.0000000
 NMagM=    2.7928460   2.7928460   2.7928460   0.4037610   0.0000000   2.7928460   2.7928460   0.0000000   2.7928460   2.7928460
 AtZNuc=   1.0000000   1.0000000   1.0000000   7.0000000   6.0000000   1.0000000   1.0000000   6.0000000   1.0000000   1.0000000

  Atom        21          22          23          24          25          26
 IAtWgt=          12           1           1          12          16          16
 AtmWgt=  12.0000000   1.0078250   1.0078250  12.0000000  15.9949146  15.9949146
 NucSpn=           0           1           1           0           0           0
 AtZEff=  -0.0000000  -0.0000000  -0.0000000  -0.0000000  -0.0000000  -0.0000000
 NQMom=    0.0000000   0.0000000   0.0000000   0.0000000   0.0000000   0.0000000
 NMagM=    0.0000000   2.7928460   2.7928460   0.0000000   0.0000000   0.0000000
 AtZNuc=   6.0000000   1.0000000   1.0000000   6.0000000   8.0000000   8.0000000
 Leave Link  101 at Wed Oct 11 23:20:06 2023, MaxMem= 13421772800 cpu:               7.8 elap:               0.3
 (Enter /data0/home/software/g16/l103.exe)

 GradGradGradGradGradGradGradGradGradGradGradGradGradGradGradGradGradGrad
 Berny optimization.
 Initialization pass.
                           ----------------------------
                           !    Initial Parameters    !
                           ! (Angstroms and Degrees)  !
 --------------------------                            --------------------------
 ! Name  Definition              Value          Derivative Info.                !
 --------------------------------------------------------------------------------
 ! R1    R(1,2)                  1.39           estimate D2E/DX2                !
 ! R2    R(1,7)                  1.1067         estimate D2E/DX2                !
 ! R3    R(1,14)                 1.3506         estimate D2E/DX2                !
 ! R4    R(2,3)                  1.3945         estimate D2E/DX2                !
 ! R5    R(2,10)                 1.504          estimate D2E/DX2                !
 ! R6    R(3,4)                  1.3904         estimate D2E/DX2                !
 ! R7    R(3,6)                  1.0843         estimate D2E/DX2                !
 ! R8    R(4,5)                  1.3785         estimate D2E/DX2                !
 ! R9    R(4,8)                  1.0813         estimate D2E/DX2                !
 ! R10   R(5,9)                  1.0805         estimate D2E/DX2                !
 ! R11   R(5,14)                 1.3452         estimate D2E/DX2                !
 ! R12   R(10,11)                1.0926         estimate D2E/DX2                !
 ! R13   R(10,12)                1.0891         estimate D2E/DX2                !
 ! R14   R(10,13)                1.0928         estimate D2E/DX2                !
 ! R15   R(14,15)                1.4957         estimate D2E/DX2                !
 ! R16   R(15,16)                1.0895         estimate D2E/DX2                !
 ! R17   R(15,17)                1.0881         estimate D2E/DX2                !
 ! R18   R(15,18)                1.5403         estimate D2E/DX2                !
 ! R19   R(18,19)                1.0911         estimate D2E/DX2                !
 ! R20   R(18,20)                1.0949         estimate D2E/DX2                !
 ! R21   R(18,21)                1.5301         estimate D2E/DX2                !
 ! R22   R(21,22)                1.093          estimate D2E/DX2                !
 ! R23   R(21,23)                1.0943         estimate D2E/DX2                !
 ! R24   R(21,24)                1.5636         estimate D2E/DX2                !
 ! R25   R(24,25)                1.2316         estimate D2E/DX2                !
 ! R26   R(24,26)                1.2757         estimate D2E/DX2                !
 ! A1    A(2,1,7)              126.0263         estimate D2E/DX2                !
 ! A2    A(2,1,14)             120.6592         estimate D2E/DX2                !
 ! A3    A(7,1,14)             113.3053         estimate D2E/DX2                !
 ! A4    A(1,2,3)              117.915          estimate D2E/DX2                !
 ! A5    A(1,2,10)             119.7754         estimate D2E/DX2                !
 ! A6    A(3,2,10)             122.3096         estimate D2E/DX2                !
 ! A7    A(2,3,4)              120.3572         estimate D2E/DX2                !
 ! A8    A(2,3,6)              119.9408         estimate D2E/DX2                !
 ! A9    A(4,3,6)              119.702          estimate D2E/DX2                !
 ! A10   A(3,4,5)              119.1919         estimate D2E/DX2                !
 ! A11   A(3,4,8)              121.4308         estimate D2E/DX2                !
 ! A12   A(5,4,8)              119.3773         estimate D2E/DX2                !
 ! A13   A(4,5,9)              123.159          estimate D2E/DX2                !
 ! A14   A(4,5,14)             120.1393         estimate D2E/DX2                !
 ! A15   A(9,5,14)             116.7016         estimate D2E/DX2                !
 ! A16   A(2,10,11)            110.7942         estimate D2E/DX2                !
 ! A17   A(2,10,12)            110.9833         estimate D2E/DX2                !
 ! A18   A(2,10,13)            110.7298         estimate D2E/DX2                !
 ! A19   A(11,10,12)           108.4268         estimate D2E/DX2                !
 ! A20   A(11,10,13)           107.4845         estimate D2E/DX2                !
 ! A21   A(12,10,13)           108.3036         estimate D2E/DX2                !
 ! A22   A(1,14,5)             121.7358         estimate D2E/DX2                !
 ! A23   A(1,14,15)            117.2722         estimate D2E/DX2                !
 ! A24   A(5,14,15)            120.9904         estimate D2E/DX2                !
 ! A25   A(14,15,16)           106.4576         estimate D2E/DX2                !
 ! A26   A(14,15,17)           105.6912         estimate D2E/DX2                !
 ! A27   A(14,15,18)           112.8127         estimate D2E/DX2                !
 ! A28   A(16,15,17)           109.2141         estimate D2E/DX2                !
 ! A29   A(16,15,18)           112.5369         estimate D2E/DX2                !
 ! A30   A(17,15,18)           109.8292         estimate D2E/DX2                !
 ! A31   A(15,18,19)           108.9476         estimate D2E/DX2                !
 ! A32   A(15,18,20)           109.3361         estimate D2E/DX2                !
 ! A33   A(15,18,21)           111.6403         estimate D2E/DX2                !
 ! A34   A(19,18,20)           107.1112         estimate D2E/DX2                !
 ! A35   A(19,18,21)           108.4179         estimate D2E/DX2                !
 ! A36   A(20,18,21)           111.2531         estimate D2E/DX2                !
 ! A37   A(18,21,22)           109.4275         estimate D2E/DX2                !
 ! A38   A(18,21,23)           111.1516         estimate D2E/DX2                !
 ! A39   A(18,21,24)           114.6103         estimate D2E/DX2                !
 ! A40   A(22,21,23)           105.7827         estimate D2E/DX2                !
 ! A41   A(22,21,24)           107.4786         estimate D2E/DX2                !
 ! A42   A(23,21,24)           107.9601         estimate D2E/DX2                !
 ! A43   A(21,24,25)           115.7924         estimate D2E/DX2                !
 ! A44   A(21,24,26)           116.1051         estimate D2E/DX2                !
 ! A45   A(25,24,26)           128.1023         estimate D2E/DX2                !
 ! D1    D(7,1,2,3)           -178.3694         estimate D2E/DX2                !
 ! D2    D(7,1,2,10)             1.6805         estimate D2E/DX2                !
 ! D3    D(14,1,2,3)             0.4472         estimate D2E/DX2                !
 ! D4    D(14,1,2,10)         -179.5029         estimate D2E/DX2                !
 ! D5    D(2,1,14,5)            -0.4493         estimate D2E/DX2                !
 ! D6    D(2,1,14,15)         -179.9909         estimate D2E/DX2                !
 ! D7    D(7,1,14,5)           178.5085         estimate D2E/DX2                !
 ! D8    D(7,1,14,15)           -1.033          estimate D2E/DX2                !
 ! D9    D(1,2,3,4)             -0.1458         estimate D2E/DX2                !
 ! D10   D(1,2,3,6)            179.8112         estimate D2E/DX2                !
 ! D11   D(10,2,3,4)           179.803          estimate D2E/DX2                !
 ! D12   D(10,2,3,6)            -0.2401         estimate D2E/DX2                !
 ! D13   D(1,2,10,11)         -121.9157         estimate D2E/DX2                !
 ! D14   D(1,2,10,12)           -1.3999         estimate D2E/DX2                !
 ! D15   D(1,2,10,13)          118.9177         estimate D2E/DX2                !
 ! D16   D(3,2,10,11)           58.1364         estimate D2E/DX2                !
 ! D17   D(3,2,10,12)          178.6523         estimate D2E/DX2                !
 ! D18   D(3,2,10,13)          -61.0301         estimate D2E/DX2                !
 ! D19   D(2,3,4,5)             -0.1582         estimate D2E/DX2                !
 ! D20   D(2,3,4,8)            179.8964         estimate D2E/DX2                !
 ! D21   D(6,3,4,5)            179.8847         estimate D2E/DX2                !
 ! D22   D(6,3,4,8)             -0.0606         estimate D2E/DX2                !
 ! D23   D(3,4,5,9)           -179.7477         estimate D2E/DX2                !
 ! D24   D(3,4,5,14)             0.1727         estimate D2E/DX2                !
 ! D25   D(8,4,5,9)              0.1988         estimate D2E/DX2                !
 ! D26   D(8,4,5,14)          -179.8808         estimate D2E/DX2                !
 ! D27   D(4,5,14,1)             0.1304         estimate D2E/DX2                !
 ! D28   D(4,5,14,15)          179.655          estimate D2E/DX2                !
 ! D29   D(9,5,14,1)          -179.9442         estimate D2E/DX2                !
 ! D30   D(9,5,14,15)           -0.4196         estimate D2E/DX2                !
 ! D31   D(1,14,15,16)        -167.9201         estimate D2E/DX2                !
 ! D32   D(1,14,15,17)         -51.8527         estimate D2E/DX2                !
 ! D33   D(1,14,15,18)          68.1745         estimate D2E/DX2                !
 ! D34   D(5,14,15,16)          12.5347         estimate D2E/DX2                !
 ! D35   D(5,14,15,17)         128.6021         estimate D2E/DX2                !
 ! D36   D(5,14,15,18)        -111.3706         estimate D2E/DX2                !
 ! D37   D(14,15,18,19)        -15.0543         estimate D2E/DX2                !
 ! D38   D(14,15,18,20)        101.6987         estimate D2E/DX2                !
 ! D39   D(14,15,18,21)       -134.7622         estimate D2E/DX2                !
 ! D40   D(16,15,18,19)       -135.5387         estimate D2E/DX2                !
 ! D41   D(16,15,18,20)        -18.7857         estimate D2E/DX2                !
 ! D42   D(16,15,18,21)        104.7534         estimate D2E/DX2                !
 ! D43   D(17,15,18,19)        102.5635         estimate D2E/DX2                !
 ! D44   D(17,15,18,20)       -140.6834         estimate D2E/DX2                !
 ! D45   D(17,15,18,21)        -17.1443         estimate D2E/DX2                !
 ! D46   D(15,18,21,22)       -175.8914         estimate D2E/DX2                !
 ! D47   D(15,18,21,23)        -59.423          estimate D2E/DX2                !
 ! D48   D(15,18,21,24)         63.321          estimate D2E/DX2                !
 ! D49   D(19,18,21,22)         64.0888         estimate D2E/DX2                !
 ! D50   D(19,18,21,23)       -179.4428         estimate D2E/DX2                !
 ! D51   D(19,18,21,24)        -56.6988         estimate D2E/DX2                !
 ! D52   D(20,18,21,22)        -53.4443         estimate D2E/DX2                !
 ! D53   D(20,18,21,23)         63.0241         estimate D2E/DX2                !
 ! D54   D(20,18,21,24)       -174.2319         estimate D2E/DX2                !
 ! D55   D(18,21,24,25)       -175.4428         estimate D2E/DX2                !
 ! D56   D(18,21,24,26)          4.3951         estimate D2E/DX2                !
 ! D57   D(22,21,24,25)         62.7008         estimate D2E/DX2                !
 ! D58   D(22,21,24,26)       -117.4613         estimate D2E/DX2                !
 ! D59   D(23,21,24,25)        -50.992          estimate D2E/DX2                !
 ! D60   D(23,21,24,26)        128.8459         estimate D2E/DX2                !
 --------------------------------------------------------------------------------
 Trust Radius=3.00D-01 FncErr=1.00D-07 GrdErr=1.00D-06 EigMax=2.50D+02 EigMin=1.00D-04
 Number of steps in this run=    141 maximum allowed number of steps=    156.
 GradGradGradGradGradGradGradGradGradGradGradGradGradGradGradGradGradGrad

 Leave Link  103 at Wed Oct 11 23:20:06 2023, MaxMem= 13421772800 cpu:               0.2 elap:               0.0
 (Enter /data0/home/software/g16/l202.exe)
                          Input orientation:                          
 ---------------------------------------------------------------------
 Center     Atomic      Atomic             Coordinates (Angstroms)
 Number     Number       Type             X           Y           Z
 ---------------------------------------------------------------------
      1          6           0       -0.907476    0.447828   -0.105384
      2          6           0       -2.154966    1.034253    0.073444
      3          6           0       -3.272534    0.200267    0.086791
      4          6           0       -3.126820   -1.172626   -0.078101
      5          6           0       -1.865182   -1.698011   -0.258054
      6          1           0       -4.261345    0.622606    0.227075
      7          1           0        0.065049    0.975991   -0.112619
      8          1           0       -3.981080   -1.835435   -0.069001
      9          1           0       -1.678609   -2.753248   -0.396046
     10          6           0       -2.262161    2.524782    0.243248
     11          1           0       -2.746375    2.773434    1.190651
     12          1           0       -1.278053    2.990930    0.226865
     13          1           0       -2.862917    2.963111   -0.557507
     14          7           0       -0.791442   -0.887759   -0.269574
     15          6           0        0.586761   -1.438214   -0.455705
     16          1           0        0.465319   -2.469697   -0.784679
     17          1           0        1.030176   -0.855485   -1.260587
     18          6           0        1.452946   -1.321142    0.812632
     19          1           0        0.977036   -0.623473    1.503522
     20          1           0        1.494457   -2.293437    1.314299
     21          6           0        2.856177   -0.802226    0.491722
     22          1           0        3.460936   -0.802566    1.402159
     23          1           0        3.372149   -1.466219   -0.208589
     24          6           0        2.896036    0.645358   -0.098008
     25          8           0        4.005373    1.052046   -0.445589
     26          8           0        1.777959    1.256227   -0.162415
 ---------------------------------------------------------------------
                    Distance matrix (angstroms):
                    1          2          3          4          5
     1  C    0.000000
     2  C    1.390002   0.000000
     3  C    2.385732   1.394514   0.000000
     4  C    2.748109   2.416150   1.390416   0.000000
     5  C    2.354811   2.767514   2.388099   1.378457   0.000000
     6  H    3.374835   2.151718   1.084342   2.145492   3.370788
     7  H    1.106713   2.228560   3.432342   3.847827   3.301095
     8  H    3.829054   3.404422   2.161109   1.081276   2.128767
     9  H    3.305453   3.846102   3.390720   2.167203   1.080452
    10  C    2.504087   1.503995   2.539430   3.810738   4.270934
    11  H    3.235692   2.150039   2.848954   4.162434   4.782161
    12  H    2.591348   2.149674   3.432983   4.565758   4.750372
    13  H    3.217890   2.149369   2.866394   4.171786   4.776108
    14  N    1.350635   2.381384   2.732511   2.360466   1.345198
    15  C    2.431589   3.729633   4.227657   3.742166   2.473577
    16  H    3.295142   4.458692   4.675437   3.883955   2.510790
    17  H    2.605305   3.936480   4.630697   4.333528   3.177738
    18  C    3.089272   4.371649   5.017140   4.667946   3.506904
    19  H    2.699565   3.821337   4.554615   4.432238   3.512262
    20  H    3.911434   5.092301   5.518110   4.954916   3.756860
    21  C    4.010518   5.353426   6.223348   6.021474   4.863725
    22  H    4.787400   6.056215   6.933649   6.762148   5.650280
    23  H    4.689288   6.072965   6.856839   6.506906   5.242691
    24  C    3.808645   5.068852   6.187367   6.291284   5.309067
    25  O    4.961543   6.182191   7.346896   7.480133   6.485476
    26  O    2.805053   3.946239   5.165717   5.473874   4.691391
                    6          7          8          9         10
     6  H    0.000000
     7  H    4.354074   0.000000
     8  H    2.491621   4.927188   0.000000
     9  H    4.295951   4.126487   2.500142   0.000000
    10  C    2.759578   2.818031   4.697199   5.348535   0.000000
    11  H    2.801727   3.582376   4.934865   5.848243   1.092641
    12  H    3.809067   2.445230   5.539647   5.791722   1.089050
    13  H    2.837099   3.566449   4.951259   5.839984   1.092817
    14  N    3.816817   2.057128   3.333483   2.069568   3.751191
    15  C    5.311996   2.493647   4.601358   2.620072   4.930540
    16  H    5.738235   3.533362   4.548071   2.197240   5.782785
    17  H    5.691932   2.367193   5.243364   3.418545   4.952495
    18  C    6.064170   2.838867   5.529052   3.649447   5.377485
    19  H    5.533775   2.449881   5.340842   3.898301   4.689584
    20  H    6.543288   3.842976   5.666109   3.633876   6.202787
    21  C    7.263560   3.364176   6.937580   5.015865   6.109673
    22  H    7.940124   4.121877   7.656026   5.783911   6.720726
    23  H    7.926110   4.112239   7.363816   5.215529   6.919371
    24  C    7.164796   2.850266   7.310944   5.706726   5.500517
    25  O    8.305150   3.955099   8.500753   6.840349   6.474985
    26  O    6.084930   1.736396   6.537096   5.298899   4.253982
                   11         12         13         14         15
    11  H    0.000000
    12  H    1.769790   0.000000
    13  H    1.762276   1.768561   0.000000
    14  N    4.399813   3.940491   4.382136   0.000000
    15  C    5.617674   4.853942   5.593059   1.495690   0.000000
    16  H    6.458121   5.820740   6.375278   2.085020   1.089463
    17  H    5.782729   4.726028   5.498379   2.073991   1.088129
    18  C    5.877308   5.137650   6.233681   2.529084   1.540344
    19  H    5.049817   4.447380   5.644171   2.518180   2.157473
    20  H    6.608565   6.065794   7.079665   3.116074   2.165233
    21  C    6.682996   5.616942   6.927242   3.727199   2.540147
    22  H    7.166814   6.183037   7.616543   4.569975   3.480889
    23  H    7.574224   6.456019   7.656158   4.204025   2.796469
    24  C    6.166535   4.798986   6.224842   3.997171   3.130810
    25  O    7.157273   5.667985   7.130084   5.177186   4.229469
    26  O    4.960071   3.535526   4.960573   3.348131   2.960572
                   16         17         18         19         20
    16  H    0.000000
    17  H    1.775171   0.000000
    18  C    2.201361   2.166520   0.000000
    19  H    2.984336   2.774338   1.091128   0.000000
    20  H    2.344334   2.985515   1.094875   1.758496   0.000000
    21  C    3.182116   2.531344   1.530135   2.141696   2.180510
    22  H    4.066363   3.605775   2.156035   2.492410   2.469303
    23  H    3.128659   2.639040   2.178825   3.062370   2.555231
    24  C    4.010420   2.661870   2.603631   2.803104   3.549021
    25  O    5.004961   3.626940   3.705405   3.972055   4.538079
    26  O    3.999093   2.494893   2.774740   2.636303   3.855019
                   21         22         23         24         25
    21  C    0.000000
    22  H    1.092991   0.000000
    23  H    1.094326   1.744370   0.000000
    24  C    1.563608   2.160115   2.167411   0.000000
    25  O    2.374348   2.673980   2.607451   1.231599   0.000000
    26  O    2.414058   3.085277   3.155200   1.275698   2.254607
                   26
    26  O    0.000000
 Stoichiometry    C10H13NO2
 Framework group  C1[X(C10H13NO2)]
 Deg. of freedom    72
 Full point group                 C1      NOp   1
 Largest Abelian subgroup         C1      NOp   1
 Largest concise Abelian subgroup C1      NOp   1
                         Standard orientation:                         
 ---------------------------------------------------------------------
 Center     Atomic      Atomic             Coordinates (Angstroms)
 Number     Number       Type             X           Y           Z
 ---------------------------------------------------------------------
      1          6           0       -0.907476    0.447828   -0.105384
      2          6           0       -2.154966    1.034253    0.073444
      3          6           0       -3.272534    0.200267    0.086791
      4          6           0       -3.126820   -1.172626   -0.078101
      5          6           0       -1.865182   -1.698011   -0.258054
      6          1           0       -4.261345    0.622606    0.227075
      7          1           0        0.065049    0.975991   -0.112619
      8          1           0       -3.981080   -1.835435   -0.069001
      9          1           0       -1.678609   -2.753248   -0.396046
     10          6           0       -2.262161    2.524782    0.243248
     11          1           0       -2.746375    2.773434    1.190651
     12          1           0       -1.278053    2.990930    0.226865
     13          1           0       -2.862917    2.963111   -0.557507
     14          7           0       -0.791442   -0.887759   -0.269574
     15          6           0        0.586761   -1.438214   -0.455705
     16          1           0        0.465319   -2.469697   -0.784679
     17          1           0        1.030176   -0.855485   -1.260587
     18          6           0        1.452946   -1.321142    0.812632
     19          1           0        0.977036   -0.623473    1.503522
     20          1           0        1.494457   -2.293437    1.314299
     21          6           0        2.856177   -0.802226    0.491722
     22          1           0        3.460936   -0.802566    1.402159
     23          1           0        3.372149   -1.466219   -0.208589
     24          6           0        2.896036    0.645358   -0.098008
     25          8           0        4.005373    1.052046   -0.445589
     26          8           0        1.777959    1.256227   -0.162415
 ---------------------------------------------------------------------
 Rotational constants (GHZ):           1.4929598           0.4714512           0.3743065
 Leave Link  202 at Wed Oct 11 23:20:06 2023, MaxMem= 13421772800 cpu:               0.1 elap:               0.0
 (Enter /data0/home/software/g16/l301.exe)
 Standard basis: 6-311+G(2d,p) (5D, 7F)
 Ernie: Thresh=  0.10000D-02 Tol=  0.10000D-05 Strict=F.
 There are   455 symmetry adapted cartesian basis functions of A   symmetry.
 There are   429 symmetry adapted basis functions of A   symmetry.
   429 basis functions,   650 primitive gaussians,   455 cartesian basis functions
    48 alpha electrons       48 beta electrons
       nuclear repulsion energy       779.9162517929 Hartrees.
 IExCor=  402 DFT=T Ex+Corr=B3LYP ExCW=0 ScaHFX=  0.200000
 ScaDFX=  0.800000  0.720000  1.000000  0.810000 ScalE2=  1.000000  1.000000
 IRadAn=      5 IRanWt=     -1 IRanGd=            0 ICorTp=0 IEmpDi=141
 NAtoms=   26 NActive=   26 NUniq=   26 SFac= 1.00D+00 NAtFMM=   60 NAOKFM=F Big=F
 Integral buffers will be    131072 words long.
 Raffenetti 2 integral format.
 Two-electron integral symmetry is turned on.
 R6Disp:  Grimme-D3(BJ) Dispersion energy=       -0.0479282328 Hartrees.
 Nuclear repulsion after empirical dispersion term =      779.8683235601 Hartrees.
 Leave Link  301 at Wed Oct 11 23:20:06 2023, MaxMem= 13421772800 cpu:               1.1 elap:               0.1
 (Enter /data0/home/software/g16/l302.exe)
 NPDir=0 NMtPBC=     1 NCelOv=     1 NCel=       1 NClECP=     1 NCelD=      1
         NCelK=      1 NCelE2=     1 NClLst=     1 CellRange=     0.0.
 One-electron integrals computed using PRISM.
 One-electron integral symmetry used in STVInt
 NBasis=   429 RedAO= T EigKep=  1.86D-06  NBF=   429
 NBsUse=   429 1.00D-06 EigRej= -1.00D+00 NBFU=   429
 Precomputing XC quadrature grid using
 IXCGrd= 4 IRadAn=           5 IRanWt=          -1 IRanGd=           0 AccXCQ= 0.00D+00.
 Generated NRdTot=       0 NPtTot=           0 NUsed=           0 NTot=          32
 NSgBfM=   455   455   455   455   455 MxSgAt=    26 MxSgA2=    26.
 Leave Link  302 at Wed Oct 11 23:20:06 2023, MaxMem= 13421772800 cpu:               8.9 elap:               0.4
 (Enter /data0/home/software/g16/l303.exe)
 DipDrv:  MaxL=1.
 Leave Link  303 at Wed Oct 11 23:20:07 2023, MaxMem= 13421772800 cpu:               1.0 elap:               0.1
 (Enter /data0/home/software/g16/l401.exe)
 ExpMin= 4.38D-02 ExpMax= 8.59D+03 ExpMxC= 1.30D+03 IAcc=3 IRadAn=         5 AccDes= 0.00D+00
 Harris functional with IExCor=  402 and IRadAn=       5 diagonalized for initial guess.
 HarFok:  IExCor=  402 AccDes= 0.00D+00 IRadAn=         5 IDoV= 1 UseB2=F ITyADJ=14
 ICtDFT=  3500011 ScaDFX=  1.000000  1.000000  1.000000  1.000000
 FoFCou: FMM=F IPFlag=           0 FMFlag=      100000 FMFlg1=           0
         NFxFlg=           0 DoJE=T BraDBF=F KetDBF=T FulRan=T
         wScrn=  0.000000 ICntrl=       500 IOpCl=  0 I1Cent=   200000004 NGrid=           0
         NMat0=    1 NMatS0=      1 NMatT0=    0 NMatD0=    1 NMtDS0=    0 NMtDT0=    0
 Petite list used in FoFCou.
 Harris En= -594.391583103988    
 JPrj=0 DoOrth=F DoCkMO=F.
 Leave Link  401 at Wed Oct 11 23:20:08 2023, MaxMem= 13421772800 cpu:              33.8 elap:               1.4
 (Enter /data0/home/software/g16/l502.exe)
 Integral symmetry usage will be decided dynamically.
 Closed shell SCF:
 Using DIIS extrapolation, IDIIS=  1040.
 NGot= 13421772800 LenX= 13421343550 LenY= 13421136070
 Requested convergence on RMS density matrix=1.00D-08 within 128 cycles.
 Requested convergence on MAX density matrix=1.00D-06.
 Requested convergence on             energy=1.00D-06.
 No special actions if energy rises.
 Fock matrices will be formed incrementally for  20 cycles.

 Cycle   1  Pass 1  IDiag  1:
 FoFJK:  IHMeth= 1 ICntrl=       0 DoSepK=F KAlg= 0 I1Cent=           0 FoldK=F
 IRaf= 890000000 NMat=       1 IRICut=       1 DoRegI=T DoRafI=F ISym2E= 0 IDoP0=0 IntGTp=1.
 FoFCou: FMM=F IPFlag=           0 FMFlag=      100000 FMFlg1=           0
         NFxFlg=           0 DoJE=F BraDBF=F KetDBF=F FulRan=T
         wScrn=  0.000000 ICntrl=         0 IOpCl=  0 I1Cent=           0 NGrid=           0
         NMat0=    1 NMatS0=      1 NMatT0=    0 NMatD0=    1 NMtDS0=    0 NMtDT0=    0
 Symmetry not used in FoFCou.
 E= -593.876655165001    
 DIIS: error= 2.31D-02 at cycle   1 NSaved=   1.
 NSaved= 1 IEnMin= 1 EnMin= -593.876655165001     IErMin= 1 ErrMin= 2.31D-02
 ErrMax= 2.31D-02  0.00D+00 EMaxC= 1.00D-01 BMatC= 4.98D-01 BMatP= 4.98D-01
 IDIUse=3 WtCom= 7.69D-01 WtEn= 2.31D-01
 Coeff-Com:  0.100D+01
 Coeff-En:   0.100D+01
 Coeff:      0.100D+01
 Gap=     0.189 Goal=   None    Shift=    0.000
 GapD=    0.189 DampG=1.000 DampE=0.500 DampFc=0.5000 IDamp=-1.
 Damping current iteration by 5.00D-01
 RMSDP=4.84D-01 MaxDP=5.55D+01              OVMax= 9.91D-01

 Cycle   2  Pass 1  IDiag  1:
 RMSU=  2.37D-01    CP:  3.00D+00
 E= -592.080794286668     Delta-E=        1.795860878332 Rises=F Damp=T
 DIIS: error= 2.89D-02 at cycle   2 NSaved=   2.
 NSaved= 2 IEnMin= 1 EnMin= -593.876655165001     IErMin= 1 ErrMin= 2.31D-02
 ErrMax= 2.89D-02  0.00D+00 EMaxC= 1.00D-01 BMatC= 6.23D-01 BMatP= 4.98D-01
 IDIUse=2 WtCom= 0.00D+00 WtEn= 1.00D+00
 Coeff-En:   0.869D+00 0.131D+00
 Coeff:      0.869D+00 0.131D+00
 Gap=    -0.095 Goal=   None    Shift=    0.000
 RMSDP=2.37D-01 MaxDP=2.69D+01 DE= 1.80D+00 OVMax= 9.91D-01

 Cycle   3  Pass 1  IDiag  1:
 RMSU=  1.08D-02    CP:  1.43D+00  1.69D-02
 E= -593.903689776209     Delta-E=       -1.822895489541 Rises=F Damp=F
 DIIS: error= 1.95D-02 at cycle   3 NSaved=   3.
 NSaved= 3 IEnMin= 3 EnMin= -593.903689776209     IErMin= 3 ErrMin= 1.95D-02
 ErrMax= 1.95D-02  0.00D+00 EMaxC= 1.00D-01 BMatC= 4.44D-01 BMatP= 4.98D-01
 IDIUse=3 WtCom= 8.05D-01 WtEn= 1.95D-01
 Coeff-Com:  0.470D+00 0.624D-01 0.468D+00
 Coeff-En:   0.484D+00 0.000D+00 0.516D+00
 Coeff:      0.472D+00 0.503D-01 0.477D+00
 Gap=     0.078 Goal=   None    Shift=    0.000
 RMSDP=7.94D-03 MaxDP=8.80D-01 DE=-1.82D+00 OVMax= 1.61D-01

 Cycle   4  Pass 1  IDiag  1:
 RMSU=  2.83D-03    CP:  1.20D+00  6.43D-03  4.47D-01
 E= -594.262437469142     Delta-E=       -0.358747692934 Rises=F Damp=F
 DIIS: error= 6.89D-03 at cycle   4 NSaved=   4.
 NSaved= 4 IEnMin= 4 EnMin= -594.262437469142     IErMin= 4 ErrMin= 6.89D-03
 ErrMax= 6.89D-03  0.00D+00 EMaxC= 1.00D-01 BMatC= 3.17D-02 BMatP= 4.44D-01
 IDIUse=3 WtCom= 9.31D-01 WtEn= 6.89D-02
 Coeff-Com:  0.180D+00 0.343D-01 0.255D+00 0.531D+00
 Coeff-En:   0.000D+00 0.000D+00 0.000D+00 0.100D+01
 Coeff:      0.168D+00 0.319D-01 0.237D+00 0.563D+00
 Gap=     0.076 Goal=   None    Shift=    0.000
 RMSDP=1.00D-03 MaxDP=1.23D-01 DE=-3.59D-01 OVMax= 6.72D-02

 Cycle   5  Pass 1  IDiag  1:
 RMSU=  8.41D-04    CP:  1.17D+00  6.16D-03  4.25D-01  9.02D-01
 E= -594.282602536939     Delta-E=       -0.020165067797 Rises=F Damp=F
 DIIS: error= 3.62D-03 at cycle   5 NSaved=   5.
 NSaved= 5 IEnMin= 5 EnMin= -594.282602536939     IErMin= 5 ErrMin= 3.62D-03
 ErrMax= 3.62D-03  0.00D+00 EMaxC= 1.00D-01 BMatC= 8.80D-03 BMatP= 3.17D-02
 IDIUse=3 WtCom= 9.64D-01 WtEn= 3.62D-02
 Coeff-Com:  0.200D-01 0.233D-01 0.666D-01 0.378D+00 0.512D+00
 Coeff-En:   0.000D+00 0.000D+00 0.000D+00 0.263D+00 0.737D+00
 Coeff:      0.193D-01 0.224D-01 0.642D-01 0.374D+00 0.520D+00
 Gap=     0.079 Goal=   None    Shift=    0.000
 RMSDP=5.67D-04 MaxDP=4.55D-02 DE=-2.02D-02 OVMax= 2.88D-02

 Cycle   6  Pass 1  IDiag  1:
 RMSU=  3.72D-04    CP:  1.17D+00  6.63D-03  4.47D-01  8.82D-01  6.01D-01
 E= -594.290932367272     Delta-E=       -0.008329830333 Rises=F Damp=F
 DIIS: error= 7.80D-04 at cycle   6 NSaved=   6.
 NSaved= 6 IEnMin= 6 EnMin= -594.290932367272     IErMin= 6 ErrMin= 7.80D-04
 ErrMax= 7.80D-04  0.00D+00 EMaxC= 1.00D-01 BMatC= 7.92D-04 BMatP= 8.80D-03
 IDIUse=3 WtCom= 9.92D-01 WtEn= 7.80D-03
 Coeff-Com: -0.822D-02 0.186D-01 0.138D-01 0.168D+00 0.300D+00 0.508D+00
 Coeff-En:   0.000D+00 0.000D+00 0.000D+00 0.000D+00 0.000D+00 0.100D+01
 Coeff:     -0.816D-02 0.185D-01 0.137D-01 0.166D+00 0.298D+00 0.511D+00
 Gap=     0.074 Goal=   None    Shift=    0.000
 RMSDP=2.98D-04 MaxDP=4.44D-02 DE=-8.33D-03 OVMax= 6.60D-03

 Cycle   7  Pass 1  IDiag  1:
 RMSU=  1.43D-04    CP:  1.18D+00  6.74D-03  4.58D-01  9.01D-01  6.20D-01
                    CP:  6.94D-01
 E= -594.291438610781     Delta-E=       -0.000506243509 Rises=F Damp=F
 DIIS: error= 5.78D-04 at cycle   7 NSaved=   7.
 NSaved= 7 IEnMin= 7 EnMin= -594.291438610781     IErMin= 7 ErrMin= 5.78D-04
 ErrMax= 5.78D-04  0.00D+00 EMaxC= 1.00D-01 BMatC= 3.31D-04 BMatP= 7.92D-04
 IDIUse=3 WtCom= 9.94D-01 WtEn= 5.78D-03
 Coeff-Com: -0.132D-01 0.165D-01-0.402D-02 0.453D-01 0.107D+00 0.305D+00
 Coeff-Com:  0.543D+00
 Coeff-En:   0.000D+00 0.000D+00 0.000D+00 0.000D+00 0.000D+00 0.000D+00
 Coeff-En:   0.100D+01
 Coeff:     -0.131D-01 0.164D-01-0.399D-02 0.451D-01 0.106D+00 0.303D+00
 Coeff:      0.546D+00
 Gap=     0.075 Goal=   None    Shift=    0.000
 RMSDP=1.08D-04 MaxDP=1.35D-02 DE=-5.06D-04 OVMax= 3.37D-03

 Cycle   8  Pass 1  IDiag  1:
 RMSU=  6.73D-05    CP:  1.19D+00  6.84D-03  4.61D-01  9.14D-01  6.04D-01
                    CP:  7.18D-01  8.42D-01
 E= -594.291546248235     Delta-E=       -0.000107637454 Rises=F Damp=F
 DIIS: error= 5.69D-04 at cycle   8 NSaved=   8.
 NSaved= 8 IEnMin= 8 EnMin= -594.291546248235     IErMin= 8 ErrMin= 5.69D-04
 ErrMax= 5.69D-04  0.00D+00 EMaxC= 1.00D-01 BMatC= 2.00D-04 BMatP= 3.31D-04
 IDIUse=3 WtCom= 9.94D-01 WtEn= 5.69D-03
 Coeff-Com: -0.110D-01 0.138D-01-0.731D-02-0.117D-01-0.655D-02 0.525D-01
 Coeff-Com:  0.266D+00 0.705D+00
 Coeff-En:   0.000D+00 0.000D+00 0.000D+00 0.000D+00 0.000D+00 0.000D+00
 Coeff-En:   0.000D+00 0.100D+01
 Coeff:     -0.109D-01 0.137D-01-0.727D-02-0.116D-01-0.652D-02 0.522D-01
 Coeff:      0.264D+00 0.706D+00
 Gap=     0.073 Goal=   None    Shift=    0.000
 RMSDP=1.24D-04 MaxDP=1.76D-02 DE=-1.08D-04 OVMax= 2.65D-03

 Cycle   9  Pass 1  IDiag  1:
 RMSU=  3.34D-05    CP:  1.19D+00  6.96D-03  4.68D-01  9.17D-01  6.06D-01
                    CP:  6.68D-01  1.07D+00  1.07D+00
 E= -594.291619144078     Delta-E=       -0.000072895842 Rises=F Damp=F
 DIIS: error= 3.92D-04 at cycle   9 NSaved=   9.
 NSaved= 9 IEnMin= 9 EnMin= -594.291619144078     IErMin= 9 ErrMin= 3.92D-04
 ErrMax= 3.92D-04  0.00D+00 EMaxC= 1.00D-01 BMatC= 1.35D-04 BMatP= 2.00D-04
 IDIUse=3 WtCom= 9.96D-01 WtEn= 3.92D-03
 Coeff-Com: -0.261D-02 0.591D-02-0.449D-02-0.648D-01-0.136D+00-0.346D+00
 Coeff-Com: -0.558D+00 0.744D+00 0.136D+01
 Coeff-En:   0.000D+00 0.000D+00 0.000D+00 0.000D+00 0.000D+00 0.000D+00
 Coeff-En:   0.000D+00 0.000D+00 0.100D+01
 Coeff:     -0.260D-02 0.588D-02-0.447D-02-0.645D-01-0.136D+00-0.344D+00
 Coeff:     -0.556D+00 0.741D+00 0.136D+01
 Gap=     0.069 Goal=   None    Shift=    0.000
 RMSDP=4.05D-04 MaxDP=6.11D-02 DE=-7.29D-05 OVMax= 3.52D-03

 Cycle  10  Pass 1  IDiag  1:
 RMSU=  4.82D-05    CP:  1.21D+00  7.34D-03  4.89D-01  9.42D-01  5.63D-01
                    CP:  6.23D-01  1.65D+00  2.53D+00  2.26D+00
 E= -594.291749051300     Delta-E=       -0.000129907222 Rises=F Damp=F
 DIIS: error= 2.37D-04 at cycle  10 NSaved=  10.
 NSaved=10 IEnMin=10 EnMin= -594.291749051300     IErMin=10 ErrMin= 2.37D-04
 ErrMax= 2.37D-04  0.00D+00 EMaxC= 1.00D-01 BMatC= 3.35D-05 BMatP= 1.35D-04
 IDIUse=3 WtCom= 9.98D-01 WtEn= 2.37D-03
 Coeff-Com:  0.652D-03 0.963D-03-0.238D-03-0.348D-01-0.812D-01-0.245D+00
 Coeff-Com: -0.507D+00 0.116D+00 0.915D+00 0.836D+00
 Coeff-En:   0.000D+00 0.000D+00 0.000D+00 0.000D+00 0.000D+00 0.000D+00
 Coeff-En:   0.000D+00 0.000D+00 0.000D+00 0.100D+01
 Coeff:      0.650D-03 0.961D-03-0.237D-03-0.347D-01-0.810D-01-0.245D+00
 Coeff:     -0.505D+00 0.115D+00 0.913D+00 0.836D+00
 Gap=     0.066 Goal=   None    Shift=    0.000
 RMSDP=2.78D-04 MaxDP=4.13D-02 DE=-1.30D-04 OVMax= 2.61D-03

 Cycle  11  Pass 1  IDiag  1:
 RMSU=  4.44D-05    CP:  1.22D+00  7.63D-03  5.04D-01  9.52D-01  5.35D-01
                    CP:  5.77D-01  2.01D+00  3.00D+00  3.00D+00  9.95D-01
 E= -594.291781911689     Delta-E=       -0.000032860390 Rises=F Damp=F
 DIIS: error= 4.05D-05 at cycle  11 NSaved=  11.
 NSaved=11 IEnMin=11 EnMin= -594.291781911689     IErMin=11 ErrMin= 4.05D-05
 ErrMax= 4.05D-05  0.00D+00 EMaxC= 1.00D-01 BMatC= 1.54D-06 BMatP= 3.35D-05
 IDIUse=1 WtCom= 1.00D+00 WtEn= 0.00D+00
 Coeff-Com:  0.392D-03 0.115D-03 0.771D-03-0.452D-02-0.133D-01-0.530D-01
 Coeff-Com: -0.136D+00-0.717D-01 0.196D+00 0.409D+00 0.672D+00
 Coeff:      0.392D-03 0.115D-03 0.771D-03-0.452D-02-0.133D-01-0.530D-01
 Coeff:     -0.136D+00-0.717D-01 0.196D+00 0.409D+00 0.672D+00
 Gap=     0.066 Goal=   None    Shift=    0.000
 RMSDP=4.32D-05 MaxDP=6.96D-03 DE=-3.29D-05 OVMax= 4.10D-04

 Cycle  12  Pass 1  IDiag  1:
 RMSU=  1.16D-05    CP:  1.23D+00  7.66D-03  5.06D-01  9.55D-01  5.32D-01
                    CP:  5.60D-01  2.08D+00  3.00D+00  3.00D+00  1.09D+00
                    CP:  1.12D+00
 E= -594.291783497935     Delta-E=       -0.000001586245 Rises=F Damp=F
 DIIS: error= 1.02D-05 at cycle  12 NSaved=  12.
 NSaved=12 IEnMin=12 EnMin= -594.291783497935     IErMin=12 ErrMin= 1.02D-05
 ErrMax= 1.02D-05  0.00D+00 EMaxC= 1.00D-01 BMatC= 8.15D-08 BMatP= 1.54D-06
 IDIUse=1 WtCom= 1.00D+00 WtEn= 0.00D+00
 Coeff-Com:  0.784D-04 0.101D-04 0.316D-03 0.106D-03-0.616D-03-0.710D-02
 Coeff-Com: -0.253D-01-0.352D-01 0.242D-01 0.119D+00 0.285D+00 0.639D+00
 Coeff:      0.784D-04 0.101D-04 0.316D-03 0.106D-03-0.616D-03-0.710D-02
 Coeff:     -0.253D-01-0.352D-01 0.242D-01 0.119D+00 0.285D+00 0.639D+00
 Gap=     0.066 Goal=   None    Shift=    0.000
 RMSDP=5.09D-06 MaxDP=6.49D-04 DE=-1.59D-06 OVMax= 1.71D-04

 Cycle  13  Pass 1  IDiag  1:
 RMSU=  2.03D-06    CP:  1.23D+00  7.67D-03  5.06D-01  9.55D-01  5.31D-01
                    CP:  5.60D-01  2.08D+00  3.00D+00  3.00D+00  1.12D+00
                    CP:  1.15D+00  9.33D-01
 E= -594.291783559098     Delta-E=       -0.000000061163 Rises=F Damp=F
 DIIS: error= 6.92D-06 at cycle  13 NSaved=  13.
 NSaved=13 IEnMin=13 EnMin= -594.291783559098     IErMin=13 ErrMin= 6.92D-06
 ErrMax= 6.92D-06  0.00D+00 EMaxC= 1.00D-01 BMatC= 2.14D-08 BMatP= 8.15D-08
 IDIUse=1 WtCom= 1.00D+00 WtEn= 0.00D+00
 Coeff-Com:  0.231D-04 0.291D-05 0.135D-03 0.418D-03 0.678D-03-0.131D-03
 Coeff-Com: -0.446D-02-0.158D-01-0.191D-03 0.402D-01 0.119D+00 0.403D+00
 Coeff-Com:  0.457D+00
 Coeff:      0.231D-04 0.291D-05 0.135D-03 0.418D-03 0.678D-03-0.131D-03
 Coeff:     -0.446D-02-0.158D-01-0.191D-03 0.402D-01 0.119D+00 0.403D+00
 Coeff:      0.457D+00
 Gap=     0.066 Goal=   None    Shift=    0.000
 RMSDP=9.66D-07 MaxDP=8.01D-05 DE=-6.12D-08 OVMax= 7.70D-05

 Cycle  14  Pass 1  IDiag  1:
 RMSU=  7.16D-07    CP:  1.23D+00  7.67D-03  5.06D-01  9.55D-01  5.31D-01
                    CP:  5.60D-01  2.08D+00  3.00D+00  3.00D+00  1.12D+00
                    CP:  1.14D+00  9.24D-01  1.00D+00
 E= -594.291783580322     Delta-E=       -0.000000021224 Rises=F Damp=F
 DIIS: error= 1.51D-06 at cycle  14 NSaved=  14.
 NSaved=14 IEnMin=14 EnMin= -594.291783580322     IErMin=14 ErrMin= 1.51D-06
 ErrMax= 1.51D-06  0.00D+00 EMaxC= 1.00D-01 BMatC= 1.06D-09 BMatP= 2.14D-08
 IDIUse=1 WtCom= 1.00D+00 WtEn= 0.00D+00
 Coeff-Com:  0.572D-05-0.343D-06 0.337D-04 0.190D-03 0.396D-03 0.619D-03
 Coeff-Com:  0.554D-03-0.448D-02-0.165D-02 0.721D-02 0.260D-01 0.129D+00
 Coeff-Com:  0.215D+00 0.628D+00
 Coeff:      0.572D-05-0.343D-06 0.337D-04 0.190D-03 0.396D-03 0.619D-03
 Coeff:      0.554D-03-0.448D-02-0.165D-02 0.721D-02 0.260D-01 0.129D+00
 Coeff:      0.215D+00 0.628D+00
 Gap=     0.066 Goal=   None    Shift=    0.000
 RMSDP=3.45D-07 MaxDP=2.81D-05 DE=-2.12D-08 OVMax= 1.93D-05

 Cycle  15  Pass 1  IDiag  1:
 RMSU=  2.21D-07    CP:  1.23D+00  7.67D-03  5.06D-01  9.55D-01  5.31D-01
                    CP:  5.60D-01  2.08D+00  3.00D+00  3.00D+00  1.12D+00
                    CP:  1.14D+00  9.26D-01  9.84D-01  8.72D-01
 E= -594.291783581449     Delta-E=       -0.000000001127 Rises=F Damp=F
 DIIS: error= 3.98D-07 at cycle  15 NSaved=  15.
 NSaved=15 IEnMin=15 EnMin= -594.291783581449     IErMin=15 ErrMin= 3.98D-07
 ErrMax= 3.98D-07  0.00D+00 EMaxC= 1.00D-01 BMatC= 2.05D-10 BMatP= 1.06D-09
 IDIUse=1 WtCom= 1.00D+00 WtEn= 0.00D+00
 Coeff-Com:  0.910D-06-0.279D-06 0.400D-05 0.528D-04 0.134D-03 0.300D-03
 Coeff-Com:  0.722D-03-0.890D-03-0.461D-03-0.168D-04 0.163D-02 0.286D-01
 Coeff-Com:  0.632D-01 0.352D+00 0.554D+00
 Coeff:      0.910D-06-0.279D-06 0.400D-05 0.528D-04 0.134D-03 0.300D-03
 Coeff:      0.722D-03-0.890D-03-0.461D-03-0.168D-04 0.163D-02 0.286D-01
 Coeff:      0.632D-01 0.352D+00 0.554D+00
 Gap=     0.066 Goal=   None    Shift=    0.000
 RMSDP=1.36D-07 MaxDP=1.51D-05 DE=-1.13D-09 OVMax= 4.91D-06

 Cycle  16  Pass 1  IDiag  1:
 RMSU=  6.67D-08    CP:  1.23D+00  7.67D-03  5.06D-01  9.55D-01  5.31D-01
                    CP:  5.60D-01  2.08D+00  3.00D+00  3.00D+00  1.12D+00
                    CP:  1.14D+00  9.26D-01  9.81D-01  8.91D-01  1.11D+00
 E= -594.291783581644     Delta-E=       -0.000000000196 Rises=F Damp=F
 DIIS: error= 1.20D-07 at cycle  16 NSaved=  16.
 NSaved=16 IEnMin=16 EnMin= -594.291783581644     IErMin=16 ErrMin= 1.20D-07
 ErrMax= 1.20D-07  0.00D+00 EMaxC= 1.00D-01 BMatC= 1.41D-11 BMatP= 2.05D-10
 IDIUse=1 WtCom= 1.00D+00 WtEn= 0.00D+00
 Coeff-Com: -0.348D-06 0.755D-07-0.229D-05 0.392D-05 0.196D-04 0.921D-04
 Coeff-Com:  0.346D-03 0.170D-03-0.193D-04-0.108D-02-0.284D-02-0.401D-02
 Coeff-Com: -0.276D-02 0.780D-01 0.241D+00 0.691D+00
 Coeff:     -0.348D-06 0.755D-07-0.229D-05 0.392D-05 0.196D-04 0.921D-04
 Coeff:      0.346D-03 0.170D-03-0.193D-04-0.108D-02-0.284D-02-0.401D-02
 Coeff:     -0.276D-02 0.780D-01 0.241D+00 0.691D+00
 Gap=     0.066 Goal=   None    Shift=    0.000
 RMSDP=9.46D-08 MaxDP=1.44D-05 DE=-1.96D-10 OVMax= 2.86D-06

 Cycle  17  Pass 1  IDiag  1:
 RMSU=  2.39D-08    CP:  1.23D+00  7.67D-03  5.06D-01  9.55D-01  5.31D-01
                    CP:  5.60D-01  2.08D+00  3.00D+00  3.00D+00  1.12D+00
                    CP:  1.14D+00  9.25D-01  9.90D-01  9.14D-01  1.16D+00
                    CP:  1.19D+00
 E= -594.291783581673     Delta-E=       -0.000000000029 Rises=F Damp=F
 DIIS: error= 3.14D-08 at cycle  17 NSaved=  17.
 NSaved=17 IEnMin=17 EnMin= -594.291783581673     IErMin=17 ErrMin= 3.14D-08
 ErrMax= 3.14D-08  0.00D+00 EMaxC= 1.00D-01 BMatC= 1.25D-12 BMatP= 1.41D-11
 IDIUse=1 WtCom= 1.00D+00 WtEn= 0.00D+00
 Coeff-Com: -0.291D-06 0.326D-07-0.121D-05-0.190D-05-0.125D-05 0.189D-04
 Coeff-Com:  0.988D-04 0.125D-03 0.444D-04-0.440D-03-0.128D-02-0.370D-02
 Coeff-Com: -0.634D-02 0.911D-02 0.661D-01 0.321D+00 0.615D+00
 Coeff:     -0.291D-06 0.326D-07-0.121D-05-0.190D-05-0.125D-05 0.189D-04
 Coeff:      0.988D-04 0.125D-03 0.444D-04-0.440D-03-0.128D-02-0.370D-02
 Coeff:     -0.634D-02 0.911D-02 0.661D-01 0.321D+00 0.615D+00
 Gap=     0.066 Goal=   None    Shift=    0.000
 RMSDP=1.79D-08 MaxDP=2.30D-06 DE=-2.91D-11 OVMax= 9.14D-07

 Cycle  18  Pass 1  IDiag  1:
 RMSU=  6.67D-09    CP:  1.23D+00  7.67D-03  5.06D-01  9.55D-01  5.31D-01
                    CP:  5.60D-01  2.08D+00  3.00D+00  3.00D+00  1.12D+00
                    CP:  1.14D+00  9.25D-01  9.91D-01  9.20D-01  1.19D+00
                    CP:  1.23D+00  9.87D-01
 E= -594.291783581676     Delta-E=       -0.000000000002 Rises=F Damp=F
 DIIS: error= 1.37D-08 at cycle  18 NSaved=  18.
 NSaved=18 IEnMin=18 EnMin= -594.291783581676     IErMin=18 ErrMin= 1.37D-08
 ErrMax= 1.37D-08  0.00D+00 EMaxC= 1.00D-01 BMatC= 1.57D-13 BMatP= 1.25D-12
 IDIUse=1 WtCom= 1.00D+00 WtEn= 0.00D+00
 Coeff-Com: -0.986D-07 0.116D-07-0.252D-06-0.135D-05-0.350D-05-0.281D-05
 Coeff-Com:  0.270D-05 0.380D-04 0.245D-04-0.671D-04-0.232D-03-0.131D-02
 Coeff-Com: -0.284D-02-0.705D-02-0.360D-02 0.559D-01 0.292D+00 0.667D+00
 Coeff:     -0.986D-07 0.116D-07-0.252D-06-0.135D-05-0.350D-05-0.281D-05
 Coeff:      0.270D-05 0.380D-04 0.245D-04-0.671D-04-0.232D-03-0.131D-02
 Coeff:     -0.284D-02-0.705D-02-0.360D-02 0.559D-01 0.292D+00 0.667D+00
 Gap=     0.066 Goal=   None    Shift=    0.000
 RMSDP=8.51D-09 MaxDP=1.02D-06 DE=-2.27D-12 OVMax= 4.37D-07

 Cycle  19  Pass 1  IDiag  1:
 RMSU=  2.34D-09    CP:  1.23D+00  7.67D-03  5.06D-01  9.55D-01  5.31D-01
                    CP:  5.60D-01  2.08D+00  3.00D+00  3.00D+00  1.12D+00
                    CP:  1.14D+00  9.25D-01  9.91D-01  9.20D-01  1.20D+00
                    CP:  1.25D+00  1.01D+00  1.19D+00
 E= -594.291783581677     Delta-E=       -0.000000000001 Rises=F Damp=F
 DIIS: error= 2.65D-09 at cycle  19 NSaved=  19.
 NSaved=19 IEnMin=19 EnMin= -594.291783581677     IErMin=19 ErrMin= 2.65D-09
 ErrMax= 2.65D-09  0.00D+00 EMaxC= 1.00D-01 BMatC= 6.80D-15 BMatP= 1.57D-13
 IDIUse=1 WtCom= 1.00D+00 WtEn= 0.00D+00
 Coeff-Com: -0.174D-07 0.548D-08-0.911D-08-0.388D-06-0.121D-05-0.268D-05
 Coeff-Com: -0.636D-05 0.309D-05 0.640D-05 0.127D-04 0.230D-04-0.134D-03
 Coeff-Com: -0.313D-03-0.272D-02-0.577D-02-0.669D-02 0.361D-01 0.200D+00
 Coeff-Com:  0.779D+00
 Coeff:     -0.174D-07 0.548D-08-0.911D-08-0.388D-06-0.121D-05-0.268D-05
 Coeff:     -0.636D-05 0.309D-05 0.640D-05 0.127D-04 0.230D-04-0.134D-03
 Coeff:     -0.313D-03-0.272D-02-0.577D-02-0.669D-02 0.361D-01 0.200D+00
 Coeff:      0.779D+00
 Gap=     0.066 Goal=   None    Shift=    0.000
 RMSDP=3.14D-09 MaxDP=4.76D-07 DE=-9.09D-13 OVMax= 1.58D-07

 SCF Done:  E(RB3LYP) =  -594.291783582     A.U. after   19 cycles
            NFock= 19  Conv=0.31D-08     -V/T= 2.0042
 KE= 5.918180852254D+02 PE=-2.944754967252D+03 EE= 9.787767748851D+02
 Leave Link  502 at Wed Oct 11 23:21:11 2023, MaxMem= 13421772800 cpu:            1516.2 elap:              63.4
 (Enter /data0/home/software/g16/l601.exe)
 Copying SCF densities to generalized density rwf, IOpCl= 0 IROHF=0.

 **********************************************************************

            Population analysis using the SCF density.

 **********************************************************************

 Orbital symmetries:
       Occupied  (A) (A) (A) (A) (A) (A) (A) (A) (A) (A) (A) (A)
                 (A) (A) (A) (A) (A) (A) (A) (A) (A) (A) (A) (A)
                 (A) (A) (A) (A) (A) (A) (A) (A) (A) (A) (A) (A)
                 (A) (A) (A) (A) (A) (A) (A) (A) (A) (A) (A) (A)
       Virtual   (A) (A) (A) (A) (A) (A) (A) (A) (A) (A) (A) (A)
                 (A) (A) (A) (A) (A) (A) (A) (A) (A) (A) (A) (A)
                 (A) (A) (A) (A) (A) (A) (A) (A) (A) (A) (A) (A)
                 (A) (A) (A) (A) (A) (A) (A) (A) (A) (A) (A) (A)
                 (A) (A) (A) (A) (A) (A) (A) (A) (A) (A) (A) (A)
                 (A) (A) (A) (A) (A) (A) (A) (A) (A) (A) (A) (A)
                 (A) (A) (A) (A) (A) (A) (A) (A) (A) (A) (A) (A)
                 (A) (A) (A) (A) (A) (A) (A) (A) (A) (A) (A) (A)
                 (A) (A) (A) (A) (A) (A) (A) (A) (A) (A) (A) (A)
                 (A) (A) (A) (A) (A) (A) (A) (A) (A) (A) (A) (A)
                 (A) (A) (A) (A) (A) (A) (A) (A) (A) (A) (A) (A)
                 (A) (A) (A) (A) (A) (A) (A) (A) (A) (A) (A) (A)
                 (A) (A) (A) (A) (A) (A) (A) (A) (A) (A) (A) (A)
                 (A) (A) (A) (A) (A) (A) (A) (A) (A) (A) (A) (A)
                 (A) (A) (A) (A) (A) (A) (A) (A) (A) (A) (A) (A)
                 (A) (A) (A) (A) (A) (A) (A) (A) (A) (A) (A) (A)
                 (A) (A) (A) (A) (A) (A) (A) (A) (A) (A) (A) (A)
                 (A) (A) (A) (A) (A) (A) (A) (A) (A) (A) (A) (A)
                 (A) (A) (A) (A) (A) (A) (A) (A) (A) (A) (A) (A)
                 (A) (A) (A) (A) (A) (A) (A) (A) (A) (A) (A) (A)
                 (A) (A) (A) (A) (A) (A) (A) (A) (A) (A) (A) (A)
                 (A) (A) (A) (A) (A) (A) (A) (A) (A) (A) (A) (A)
                 (A) (A) (A) (A) (A) (A) (A) (A) (A) (A) (A) (A)
                 (A) (A) (A) (A) (A) (A) (A) (A) (A) (A) (A) (A)
                 (A) (A) (A) (A) (A) (A) (A) (A) (A) (A) (A) (A)
                 (A) (A) (A) (A) (A) (A) (A) (A) (A) (A) (A) (A)
                 (A) (A) (A) (A) (A) (A) (A) (A) (A) (A) (A) (A)
                 (A) (A) (A) (A) (A) (A) (A) (A) (A) (A) (A) (A)
                 (A) (A) (A) (A) (A) (A) (A) (A) (A) (A) (A) (A)
                 (A) (A) (A) (A) (A) (A) (A) (A) (A) (A) (A) (A)
                 (A) (A) (A) (A) (A) (A) (A) (A) (A) (A) (A) (A)
                 (A) (A) (A) (A) (A) (A) (A) (A) (A)
 The electronic state is 1-A.
 Alpha  occ. eigenvalues --  -19.01972 -19.00679 -14.45756 -10.28826 -10.26047
 Alpha  occ. eigenvalues --  -10.25334 -10.25045 -10.24977 -10.24372 -10.20731
 Alpha  occ. eigenvalues --  -10.20578 -10.17956 -10.14150  -1.06549  -0.97716
 Alpha  occ. eigenvalues --   -0.89856  -0.89241  -0.85243  -0.80520  -0.76508
 Alpha  occ. eigenvalues --   -0.73047  -0.69742  -0.66968  -0.61745  -0.58712
 Alpha  occ. eigenvalues --   -0.57269  -0.53220  -0.51477  -0.50382  -0.49378
 Alpha  occ. eigenvalues --   -0.48008  -0.46225  -0.45462  -0.44171  -0.42949
 Alpha  occ. eigenvalues --   -0.42161  -0.41565  -0.39752  -0.37625  -0.37040
 Alpha  occ. eigenvalues --   -0.35743  -0.34742  -0.33467  -0.32446  -0.31238
 Alpha  occ. eigenvalues --   -0.20589  -0.19969  -0.18180
 Alpha virt. eigenvalues --   -0.11591  -0.08016  -0.03337  -0.01368  -0.00421
 Alpha virt. eigenvalues --    0.00461   0.00938   0.01693   0.02805   0.03187
 Alpha virt. eigenvalues --    0.04182   0.04674   0.05118   0.05581   0.06501
 Alpha virt. eigenvalues --    0.06517   0.07374   0.07831   0.08328   0.08969
 Alpha virt. eigenvalues --    0.09257   0.10084   0.10136   0.10635   0.11306
 Alpha virt. eigenvalues --    0.11935   0.12247   0.12455   0.12672   0.13519
 Alpha virt. eigenvalues --    0.14056   0.14341   0.14825   0.15183   0.15556
 Alpha virt. eigenvalues --    0.16045   0.16759   0.17032   0.17240   0.17553
 Alpha virt. eigenvalues --    0.17929   0.18717   0.18879   0.19965   0.20360
 Alpha virt. eigenvalues --    0.20524   0.21199   0.21854   0.21993   0.22357
 Alpha virt. eigenvalues --    0.22532   0.22869   0.23452   0.24138   0.24624
 Alpha virt. eigenvalues --    0.25148   0.25806   0.26793   0.27107   0.27818
 Alpha virt. eigenvalues --    0.28562   0.28695   0.29543   0.30069   0.30562
 Alpha virt. eigenvalues --    0.30922   0.31274   0.32073   0.33169   0.34296
 Alpha virt. eigenvalues --    0.34894   0.35594   0.36441   0.37416   0.37750
 Alpha virt. eigenvalues --    0.38370   0.39550   0.40159   0.42179   0.42555
 Alpha virt. eigenvalues --    0.43011   0.43359   0.44869   0.46159   0.46885
 Alpha virt. eigenvalues --    0.47184   0.47748   0.48188   0.48633   0.49491
 Alpha virt. eigenvalues --    0.51071   0.51633   0.52469   0.52984   0.54042
 Alpha virt. eigenvalues --    0.55348   0.55785   0.56394   0.57092   0.57457
 Alpha virt. eigenvalues --    0.57999   0.58812   0.60497   0.61331   0.61824
 Alpha virt. eigenvalues --    0.62044   0.63213   0.63615   0.64469   0.65318
 Alpha virt. eigenvalues --    0.65616   0.66903   0.67545   0.68015   0.68792
 Alpha virt. eigenvalues --    0.69774   0.70724   0.70971   0.71481   0.72752
 Alpha virt. eigenvalues --    0.73830   0.74106   0.74677   0.75692   0.77032
 Alpha virt. eigenvalues --    0.77224   0.77662   0.78177   0.79486   0.80338
 Alpha virt. eigenvalues --    0.80587   0.81355   0.82598   0.84515   0.86050
 Alpha virt. eigenvalues --    0.87117   0.88122   0.89560   0.92159   0.92777
 Alpha virt. eigenvalues --    0.92896   0.93789   0.96852   0.97282   0.99683
 Alpha virt. eigenvalues --    1.00138   1.01388   1.02452   1.04292   1.06961
 Alpha virt. eigenvalues --    1.08201   1.09113   1.10857   1.11980   1.12144
 Alpha virt. eigenvalues --    1.14301   1.15210   1.16435   1.16959   1.17309
 Alpha virt. eigenvalues --    1.20401   1.20654   1.22053   1.22729   1.23499
 Alpha virt. eigenvalues --    1.24340   1.25481   1.26248   1.27070   1.28512
 Alpha virt. eigenvalues --    1.29034   1.29739   1.30361   1.30879   1.33164
 Alpha virt. eigenvalues --    1.34211   1.34817   1.35595   1.35953   1.37219
 Alpha virt. eigenvalues --    1.39282   1.40190   1.41910   1.42845   1.43222
 Alpha virt. eigenvalues --    1.44231   1.46784   1.49187   1.50361   1.52656
 Alpha virt. eigenvalues --    1.54459   1.56379   1.59672   1.61399   1.63692
 Alpha virt. eigenvalues --    1.66180   1.67973   1.68584   1.69410   1.70059
 Alpha virt. eigenvalues --    1.71681   1.75018   1.75678   1.76838   1.78281
 Alpha virt. eigenvalues --    1.82716   1.83717   1.85027   1.86638   1.87554
 Alpha virt. eigenvalues --    1.89379   1.89692   1.92400   1.93108   1.95354
 Alpha virt. eigenvalues --    1.97386   1.99389   2.03233   2.05706   2.06765
 Alpha virt. eigenvalues --    2.08588   2.12357   2.15010   2.16483   2.17408
 Alpha virt. eigenvalues --    2.19535   2.22893   2.24758   2.25793   2.27496
 Alpha virt. eigenvalues --    2.29166   2.31763   2.33765   2.34511   2.35129
 Alpha virt. eigenvalues --    2.36601   2.38951   2.40357   2.43087   2.46649
 Alpha virt. eigenvalues --    2.47588   2.51876   2.54501   2.57018   2.57994
 Alpha virt. eigenvalues --    2.59810   2.60208   2.61810   2.65351   2.66852
 Alpha virt. eigenvalues --    2.67881   2.70279   2.71849   2.72476   2.75750
 Alpha virt. eigenvalues --    2.77018   2.78680   2.79570   2.80593   2.81402
 Alpha virt. eigenvalues --    2.83853   2.85935   2.87558   2.87857   2.91494
 Alpha virt. eigenvalues --    2.96635   2.97762   3.00921   3.01492   3.01926
 Alpha virt. eigenvalues --    3.05449   3.07810   3.08682   3.10411   3.12174
 Alpha virt. eigenvalues --    3.14013   3.16636   3.19360   3.20375   3.25384
 Alpha virt. eigenvalues --    3.26315   3.27909   3.29503   3.29982   3.30664
 Alpha virt. eigenvalues --    3.32739   3.34188   3.37783   3.38789   3.39378
 Alpha virt. eigenvalues --    3.40946   3.42918   3.44014   3.44479   3.45895
 Alpha virt. eigenvalues --    3.47828   3.48215   3.51243   3.51804   3.53283
 Alpha virt. eigenvalues --    3.54199   3.56125   3.56616   3.57328   3.57650
 Alpha virt. eigenvalues --    3.60402   3.61057   3.62417   3.62674   3.64219
 Alpha virt. eigenvalues --    3.66102   3.67406   3.67901   3.70232   3.71077
 Alpha virt. eigenvalues --    3.73094   3.73917   3.75162   3.76496   3.77507
 Alpha virt. eigenvalues --    3.80967   3.82339   3.83397   3.90666   3.93631
 Alpha virt. eigenvalues --    3.95060   3.96441   3.97574   4.00073   4.04745
 Alpha virt. eigenvalues --    4.06380   4.12032   4.17586   4.18058   4.23680
 Alpha virt. eigenvalues --    4.26957   4.29309   4.34001   4.35114   4.42591
 Alpha virt. eigenvalues --    4.51585   4.58653   4.61326   4.70976   4.96211
 Alpha virt. eigenvalues --    4.98723   5.04982   5.11060   5.16707   5.17421
 Alpha virt. eigenvalues --    5.30103   5.32814   5.39835   5.53377   5.58773
 Alpha virt. eigenvalues --    5.81689   5.90316   6.20919   6.87627   6.95734
 Alpha virt. eigenvalues --    6.96256   7.00902   7.12311   7.20619   7.26003
 Alpha virt. eigenvalues --    7.32741   7.34615   7.49099  23.73141  23.91065
 Alpha virt. eigenvalues --   23.91411  23.98173  24.01393  24.03609  24.03755
 Alpha virt. eigenvalues --   24.06721  24.19198  24.21415  35.58764  50.07982
 Alpha virt. eigenvalues --   50.12707
          Condensed to atoms (all electrons):
               1          2          3          4          5          6
     1  C   11.815655  -5.649756   0.984605  -0.817231   0.051758   0.027400
     2  C   -5.649756  11.462835  -1.165255   1.131437  -0.587560  -0.006352
     3  C    0.984605  -1.165255   6.680290   0.031216   0.024324   0.348875
     4  C   -0.817231   1.131437   0.031216   6.549898  -0.743439  -0.045380
     5  C    0.051758  -0.587560   0.024324  -0.743439   6.329608   0.010231
     6  H    0.027400  -0.006352   0.348875  -0.045380   0.010231   0.550530
     7  H    0.348285  -0.034849   0.003409  -0.012048   0.009842  -0.000079
     8  H   -0.007244   0.014892  -0.037432   0.393202  -0.025924  -0.005340
     9  H    0.008536  -0.007476   0.016115  -0.039923   0.412443  -0.000289
    10  C   -0.730590   0.865777  -0.438345   0.025175  -0.014807   0.000755
    11  H    0.109009  -0.043249  -0.048818  -0.010368  -0.000637   0.001386
    12  H   -0.085121  -0.040044   0.034013   0.001439   0.003383  -0.000021
    13  H    0.028783   0.017939  -0.050483  -0.006426  -0.001386   0.001312
    14  N    0.278939   0.043476  -0.134235   0.008618   0.345325   0.000963
    15  C    0.303239  -0.751075   0.055323  -0.648606   0.190252   0.000548
    16  H    0.036692  -0.005044   0.004138   0.068730  -0.001967  -0.000006
    17  H   -0.037662   0.061380  -0.003396  -0.005718  -0.010317  -0.000002
    18  C   -0.005842   0.029523  -0.019482   0.196903   0.003121   0.000128
    19  H    0.053256  -0.043992   0.002993   0.014942   0.006399  -0.000002
    20  H   -0.003270   0.005247  -0.002743  -0.007512  -0.018788   0.000000
    21  C    0.007587   0.032248  -0.013118  -0.040284  -0.065270   0.000017
    22  H    0.002017   0.004351   0.000297  -0.000760  -0.001009  -0.000000
    23  H   -0.000685  -0.002541  -0.000145   0.002007   0.004304   0.000000
    24  C    0.057411  -0.122800   0.015507  -0.018097   0.007420  -0.000020
    25  O    0.002279  -0.001422  -0.000296   0.000014   0.000410   0.000000
    26  O   -0.043697   0.117578  -0.018937   0.013637   0.000211   0.000007
               7          8          9         10         11         12
     1  C    0.348285  -0.007244   0.008536  -0.730590   0.109009  -0.085121
     2  C   -0.034849   0.014892  -0.007476   0.865777  -0.043249  -0.040044
     3  C    0.003409  -0.037432   0.016115  -0.438345  -0.048818   0.034013
     4  C   -0.012048   0.393202  -0.039923   0.025175  -0.010368   0.001439
     5  C    0.009842  -0.025924   0.412443  -0.014807  -0.000637   0.003383
     6  H   -0.000079  -0.005340  -0.000289   0.000755   0.001386  -0.000021
     7  H    0.377476   0.000039  -0.000031   0.010006  -0.000354   0.004317
     8  H    0.000039   0.545713  -0.003916  -0.000113  -0.000013   0.000013
     9  H   -0.000031  -0.003916   0.524466  -0.000031  -0.000001  -0.000002
    10  C    0.010006  -0.000113  -0.000031   5.662374   0.350006   0.466023
    11  H   -0.000354  -0.000013  -0.000001   0.350006   0.548860  -0.019267
    12  H    0.004317   0.000013  -0.000002   0.466023  -0.019267   0.482030
    13  H   -0.000237  -0.000013  -0.000002   0.369393  -0.035593  -0.018628
    14  N   -0.041665   0.006849  -0.054006  -0.038576   0.001314  -0.000935
    15  C    0.002659   0.003431   0.008340  -0.042939   0.001004  -0.000219
    16  H    0.000559  -0.000036   0.006281  -0.000427  -0.000002   0.000002
    17  H    0.002222   0.000012   0.000339   0.002583   0.000002   0.000005
    18  C   -0.047485  -0.000092   0.000181  -0.008852   0.000628   0.000029
    19  H   -0.000150  -0.000002   0.000419  -0.002704   0.000002   0.000014
    20  H    0.000533   0.000000  -0.000195   0.000392  -0.000000  -0.000001
    21  C    0.050203   0.000129   0.000442   0.012874  -0.000361   0.000153
    22  H   -0.000033   0.000000   0.000001   0.000027   0.000000  -0.000001
    23  H   -0.000214  -0.000000   0.000017  -0.000074   0.000000   0.000000
    24  C   -0.016905  -0.000018   0.000086  -0.009682   0.000280   0.000090
    25  O    0.000969  -0.000000  -0.000002   0.001037  -0.000000   0.000004
    26  O    0.048956  -0.000001   0.000010   0.025554   0.000098   0.000166
              13         14         15         16         17         18
     1  C    0.028783   0.278939   0.303239   0.036692  -0.037662  -0.005842
     2  C    0.017939   0.043476  -0.751075  -0.005044   0.061380   0.029523
     3  C   -0.050483  -0.134235   0.055323   0.004138  -0.003396  -0.019482
     4  C   -0.006426   0.008618  -0.648606   0.068730  -0.005718   0.196903
     5  C   -0.001386   0.345325   0.190252  -0.001967  -0.010317   0.003121
     6  H    0.001312   0.000963   0.000548  -0.000006  -0.000002   0.000128
     7  H   -0.000237  -0.041665   0.002659   0.000559   0.002222  -0.047485
     8  H   -0.000013   0.006849   0.003431  -0.000036   0.000012  -0.000092
     9  H   -0.000002  -0.054006   0.008340   0.006281   0.000339   0.000181
    10  C    0.369393  -0.038576  -0.042939  -0.000427   0.002583  -0.008852
    11  H   -0.035593   0.001314   0.001004  -0.000002   0.000002   0.000628
    12  H   -0.018628  -0.000935  -0.000219   0.000002   0.000005   0.000029
    13  H    0.545112   0.000604   0.000573  -0.000001  -0.000007  -0.000475
    14  N    0.000604   6.257656   0.164124  -0.080918  -0.031677   0.064833
    15  C    0.000573   0.164124   6.855441   0.269063   0.464904  -0.694787
    16  H   -0.000001  -0.080918   0.269063   0.616158  -0.026718   0.016336
    17  H   -0.000007  -0.031677   0.464904  -0.026718   0.482395  -0.109886
    18  C   -0.000475   0.064833  -0.694787   0.016336  -0.109886   6.756738
    19  H   -0.000005   0.000884  -0.151796   0.007365   0.001200   0.555583
    20  H    0.000000   0.000606   0.040390  -0.016599   0.005349   0.268397
    21  C    0.000232  -0.062664   0.268622  -0.003194   0.010774  -0.990075
    22  H   -0.000000  -0.001798   0.034937  -0.000181   0.000644  -0.119062
    23  H   -0.000000   0.000560  -0.033788   0.001110  -0.000824   0.013921
    24  C   -0.000108   0.022403  -0.001550  -0.001584   0.016627   0.046550
    25  O    0.000000   0.000587  -0.002505  -0.000096  -0.001703   0.065980
    26  O   -0.000049  -0.035809  -0.083073   0.004299   0.004655  -0.089156
              19         20         21         22         23         24
     1  C    0.053256  -0.003270   0.007587   0.002017  -0.000685   0.057411
     2  C   -0.043992   0.005247   0.032248   0.004351  -0.002541  -0.122800
     3  C    0.002993  -0.002743  -0.013118   0.000297  -0.000145   0.015507
     4  C    0.014942  -0.007512  -0.040284  -0.000760   0.002007  -0.018097
     5  C    0.006399  -0.018788  -0.065270  -0.001009   0.004304   0.007420
     6  H   -0.000002   0.000000   0.000017  -0.000000   0.000000  -0.000020
     7  H   -0.000150   0.000533   0.050203  -0.000033  -0.000214  -0.016905
     8  H   -0.000002   0.000000   0.000129   0.000000  -0.000000  -0.000018
     9  H    0.000419  -0.000195   0.000442   0.000001   0.000017   0.000086
    10  C   -0.002704   0.000392   0.012874   0.000027  -0.000074  -0.009682
    11  H    0.000002  -0.000000  -0.000361   0.000000   0.000000   0.000280
    12  H    0.000014  -0.000001   0.000153  -0.000001   0.000000   0.000090
    13  H   -0.000005   0.000000   0.000232  -0.000000  -0.000000  -0.000108
    14  N    0.000884   0.000606  -0.062664  -0.001798   0.000560   0.022403
    15  C   -0.151796   0.040390   0.268622   0.034937  -0.033788  -0.001550
    16  H    0.007365  -0.016599  -0.003194  -0.000181   0.001110  -0.001584
    17  H    0.001200   0.005349   0.010774   0.000644  -0.000824   0.016627
    18  C    0.555583   0.268397  -0.990075  -0.119062   0.013921   0.046550
    19  H    0.565569  -0.041008  -0.100796  -0.003915   0.007992   0.015877
    20  H   -0.041008   0.613995   0.070414  -0.004449  -0.006869  -0.000574
    21  C   -0.100796   0.070414   6.215582   0.455627   0.380027   0.236699
    22  H   -0.003915  -0.004449   0.455627   0.571312  -0.031949  -0.025592
    23  H    0.007992  -0.006869   0.380027  -0.031949   0.583029  -0.032441
    24  C    0.015877  -0.000574   0.236699  -0.025592  -0.032441   4.658296
    25  O   -0.000306  -0.001377  -0.149719   0.001853  -0.005611   0.400036
    26  O   -0.004895   0.002370   0.047475  -0.000270   0.005241   0.253124
              25         26
     1  C    0.002279  -0.043697
     2  C   -0.001422   0.117578
     3  C   -0.000296  -0.018937
     4  C    0.000014   0.013637
     5  C    0.000410   0.000211
     6  H    0.000000   0.000007
     7  H    0.000969   0.048956
     8  H   -0.000000  -0.000001
     9  H   -0.000002   0.000010
    10  C    0.001037   0.025554
    11  H   -0.000000   0.000098
    12  H    0.000004   0.000166
    13  H    0.000000  -0.000049
    14  N    0.000587  -0.035809
    15  C   -0.002505  -0.083073
    16  H   -0.000096   0.004299
    17  H   -0.001703   0.004655
    18  C    0.065980  -0.089156
    19  H   -0.000306  -0.004895
    20  H   -0.001377   0.002370
    21  C   -0.149719   0.047475
    22  H    0.001853  -0.000270
    23  H   -0.005611   0.005241
    24  C    0.400036   0.253124
    25  O    8.275336  -0.032160
    26  O   -0.032160   8.513446
 Mulliken charges:
               1
     1  C   -0.734352
     2  C    0.674735
     3  C   -0.268420
     4  C   -0.041426
     5  C    0.072072
     6  H    0.115341
     7  H    0.294574
     8  H    0.115864
     9  H    0.128198
    10  C   -0.504836
    11  H    0.146075
    12  H    0.172559
    13  H    0.149464
    14  N    0.284544
    15  C   -0.252510
    16  H    0.106041
    17  H    0.174820
    18  C    0.066345
    19  H    0.117075
    20  H    0.095692
    21  C   -0.363624
    22  H    0.117954
    23  H    0.116935
    24  C    0.498965
    25  O   -0.553307
    26  O   -0.728777
 Sum of Mulliken charges =  -0.00000
 Mulliken charges with hydrogens summed into heavy atoms:
               1
     1  C   -0.439778
     2  C    0.674735
     3  C   -0.153079
     4  C    0.074438
     5  C    0.200270
    10  C   -0.036738
    14  N    0.284544
    15  C    0.028351
    18  C    0.279111
    21  C   -0.128735
    24  C    0.498965
    25  O   -0.553307
    26  O   -0.728777
 Electronic spatial extent (au):  <R**2>=           2907.1389
 Charge=             -0.0000 electrons
 Dipole moment (field-independent basis, Debye):
    X=            -14.3552    Y=             -6.1639    Z=              1.0928  Tot=             15.6607
 Quadrupole moment (field-independent basis, Debye-Ang):
   XX=            -96.7940   YY=            -72.7311   ZZ=            -78.7875
   XY=            -15.5160   XZ=              5.2995   YZ=              4.3523
 Traceless Quadrupole moment (field-independent basis, Debye-Ang):
   XX=            -14.0232   YY=             10.0398   ZZ=              3.9834
   XY=            -15.5160   XZ=              5.2995   YZ=              4.3523
 Octapole moment (field-independent basis, Debye-Ang**2):
  XXX=           -207.3747  YYY=            -15.6979  ZZZ=             -0.4350  XYY=            -39.6530
  XXY=            -50.9790  XXZ=             24.8889  XZZ=              5.6966  YZZ=              1.2079
  YYZ=             -0.8550  XYZ=              5.1676
 Hexadecapole moment (field-independent basis, Debye-Ang**3):
 XXXX=          -3188.8308 YYYY=           -887.5841 ZZZZ=           -180.5193 XXXY=           -163.8467
 XXXZ=             76.4168 YYYX=            -14.0358 YYYZ=             18.3003 ZZZX=             -1.6106
 ZZZY=              3.8692 XXYY=           -629.9721 XXZZ=           -510.5241 YYZZ=           -190.2819
 XXYZ=             32.9258 YYXZ=              8.8357 ZZXY=             -9.4121
 N-N= 7.798683235601D+02 E-N=-2.944754967341D+03  KE= 5.918180852254D+02
 No NMR shielding tensors so no spin-rotation constants.
 Leave Link  601 at Wed Oct 11 23:21:12 2023, MaxMem= 13421772800 cpu:               4.1 elap:               0.2
 (Enter /data0/home/software/g16/l701.exe)
 ... and contract with generalized density number  0.
 Compute integral first derivatives.
 R6Disp: Adding Grimme-D3(BJ) dispersion energy 1st derivatives to the gradient.
 Leave Link  701 at Wed Oct 11 23:21:12 2023, MaxMem= 13421772800 cpu:               4.1 elap:               0.2
 (Enter /data0/home/software/g16/l702.exe)
 L702 exits ... SP integral derivatives will be done elsewhere.
 Leave Link  702 at Wed Oct 11 23:21:12 2023, MaxMem= 13421772800 cpu:               0.4 elap:               0.0
 (Enter /data0/home/software/g16/l703.exe)
 Integral derivatives from FoFJK, PRISM(SPDF).
 Compute integral first derivatives, UseDBF=F ICtDFT=           0.
 Calling FoFJK, ICntrl=      2127 FMM=F ISym2X=0 I1Cent= 0 IOpClX= 0 NMat=1 NMatS=1 NMatT=0.
 FoFJK:  IHMeth= 1 ICntrl=    2127 DoSepK=F KAlg= 0 I1Cent=           0 FoldK=F
 IRaf=         0 NMat=       1 IRICut=       1 DoRegI=T DoRafI=F ISym2E= 0 IDoP0=0 IntGTp=1.
 FoFCou: FMM=F IPFlag=           0 FMFlag=      100000 FMFlg1=         800
         NFxFlg=           0 DoJE=F BraDBF=F KetDBF=F FulRan=T
         wScrn=  0.000000 ICntrl=      2127 IOpCl=  0 I1Cent=           0 NGrid=           0
         NMat0=    1 NMatS0=      1 NMatT0=    0 NMatD0=    1 NMtDS0=    0 NMtDT0=    0
 Symmetry not used in FoFCou.
 Leave Link  703 at Wed Oct 11 23:21:22 2023, MaxMem= 13421772800 cpu:             253.7 elap:              10.6
 (Enter /data0/home/software/g16/l716.exe)
 Dipole        =-5.64775556D+00-2.42506544D+00 4.29949091D-01
 ***** Axes restored to original set *****
 -------------------------------------------------------------------
 Center     Atomic                   Forces (Hartrees/Bohr)
 Number     Number              X              Y              Z
 -------------------------------------------------------------------
      1        6           0.000632447    0.000135871    0.000127161
      2        6           0.000426013   -0.000344977   -0.000024545
      3        6           0.000167341    0.000166567    0.000016383
      4        6           0.000491813    0.000244947    0.000003669
      5        6           0.000384427    0.000009713    0.000087634
      6        1           0.000319845    0.000001679   -0.000029442
      7        1           0.000040016   -0.000245363    0.000060725
      8        1           0.000231488    0.000176128   -0.000000926
      9        1           0.000139709    0.000337198    0.000062167
     10        6           0.000112507   -0.000486883   -0.000053730
     11        1           0.000068589   -0.000281419   -0.000129080
     12        1           0.000028731   -0.000321157   -0.000032059
     13        1           0.000077531   -0.000302198    0.000063125
     14        7           0.000279660    0.000281881    0.000179600
     15        6           0.000063975    0.000389003    0.000192637
     16        1          -0.000030649    0.000350432    0.000188143
     17        1          -0.000079377    0.000127721    0.000337792
     18        6          -0.000417082    0.000402425   -0.000356940
     19        1          -0.000122466    0.000099740   -0.000401823
     20        1          -0.000122850    0.000278962   -0.000257053
     21        6          -0.000558210    0.000074352   -0.000160963
     22        1          -0.000235632    0.000074362   -0.000175514
     23        1          -0.000303333    0.000150229    0.000018007
     24        6          -0.000761347   -0.000413506    0.000057802
     25        8          -0.000372723   -0.000293962    0.000119718
     26        8          -0.000460421   -0.000611746    0.000107513
 -------------------------------------------------------------------
 Cartesian Forces:  Max     0.000761347 RMS     0.000273328
 Leave Link  716 at Wed Oct 11 23:21:22 2023, MaxMem= 13421772800 cpu:               0.5 elap:               0.0
 (Enter /data0/home/software/g16/l103.exe)

 GradGradGradGradGradGradGradGradGradGradGradGradGradGradGradGradGradGrad
 Berny optimization.
 FormGI is forming the generalized inverse of G from B-inverse, IUseBI=4.
 GSVD:  received Info=                   1 from GESDD.
 Internal  Forces:  Max     0.004120847 RMS     0.000943561
 Search for a local minimum.
 Step number   1 out of a maximum of  141
 All quantities printed in internal units (Hartrees-Bohrs-Radians)
 RMS Force = .94356D-03 SwitMx=.10000D-02 MixMth= 2
 Mixed Optimization -- En-DIIS/RFO-DIIS
 Second derivative matrix not updated -- first step.
 ITU=  0
     Eigenvalues ---    0.00230   0.00230   0.00232   0.00367   0.00426
     Eigenvalues ---    0.00713   0.01575   0.01628   0.02186   0.02201
     Eigenvalues ---    0.02275   0.02291   0.02293   0.02377   0.02395
     Eigenvalues ---    0.03576   0.03735   0.04027   0.04835   0.05134
     Eigenvalues ---    0.05204   0.07200   0.07276   0.08121   0.09475
     Eigenvalues ---    0.09674   0.12058   0.12775   0.13029   0.15997
     Eigenvalues ---    0.16000   0.16000   0.16000   0.16000   0.16000
     Eigenvalues ---    0.16000   0.21904   0.21942   0.22000   0.22032
     Eigenvalues ---    0.23462   0.23513   0.24999   0.25000   0.25000
     Eigenvalues ---    0.25000   0.26526   0.28488   0.29411   0.31962
     Eigenvalues ---    0.32834   0.32951   0.34255   0.34317   0.34469
     Eigenvalues ---    0.34489   0.34509   0.34683   0.34875   0.34923
     Eigenvalues ---    0.35030   0.35475   0.35841   0.35940   0.43704
     Eigenvalues ---    0.43954   0.47066   0.48697   0.53094   0.55037
     Eigenvalues ---    0.74421   0.90423
 RFO step:  Lambda=-1.11308649D-03 EMin= 2.30000000D-03
 Linear search not attempted -- first point.
 Iteration  1 RMS(Cart)=  0.13591925 RMS(Int)=  0.00417727
 Iteration  2 RMS(Cart)=  0.00708141 RMS(Int)=  0.00008754
 Iteration  3 RMS(Cart)=  0.00002054 RMS(Int)=  0.00008715
 Iteration  4 RMS(Cart)=  0.00000000 RMS(Int)=  0.00008715
[...]
 002050,0.00005003,0.00001092,0.00000219,0.00000964,-0.00002680,0.00003
 128,0.00000321,-0.00000777,-0.00000909,-0.00000502,0.00179854,0.000067
 54,-0.00088665,0.00886612,0.00389806,-0.01737376,0.00003995,-0.0002187
 8,0.00046750,-0.00197331,0.00064773,-0.00299528,-0.14143649,-0.0178819
 6,0.12592975,0.15970988,0.00029721,-0.00019875,0.00018188,-0.00025124,
 0.00003049,0.00010501,0.00013577,0.00019101,-0.00005117,0.00009376,-0.
 00028305,-0.00002456,0.00021661,0.00063595,-0.00007521,0.00000818,0.00
 000063,0.00000987,-0.00010137,0.00000233,-0.00005797,-0.00003016,0.000
 00562,-0.00002461,-0.00015385,-0.00002232,-0.00006340,-0.00000448,-0.0
 0001830,0.00001757,-0.00000833,0.00000552,-0.00000288,0.00001453,-0.00
 001616,0.00001587,-0.00000153,0.00000619,-0.00000988,-0.00120393,0.000
 64343,0.00071237,-0.00123334,-0.00265126,0.00696556,0.00000447,-0.0000
 4584,0.00004416,0.00067859,-0.00014435,0.00148182,-0.01673535,-0.04915
 184,0.02184178,0.02157101,0.05081344,0.00000146,0.00076014,0.00012123,
 0.00015703,0.00003208,-0.00007599,-0.00016077,-0.00016659,-0.00001037,
 -0.00034963,0.00000468,0.00027040,-0.00040473,0.00035720,0.00036366,-0
 .00000540,-0.00003779,-0.00001496,0.00007629,-0.00013099,-0.00007543,-
 0.00002086,0.00002835,0.00003099,-0.00023821,-0.00031387,-0.00029851,-
 0.00008969,-0.00004398,-0.00001201,-0.00000165,-0.00000118,-0.00000034
 ,0.00002993,-0.00003539,0.00000094,0.00002009,-0.00002779,0.00000700,0
 .00238216,-0.00122954,0.00190822,0.01409395,0.00499470,-0.02513213,-0.
 00056420,-0.00001250,-0.00043514,-0.00316867,-0.00054142,-0.00283085,0
 .12307325,0.02587601,-0.20617899,-0.13065041,-0.02629702,0.22755843,-0
 .00075859,-0.00134349,-0.00033143,0.00004488,0.00004485,0.00024708,-0.
 00004306,-0.00007373,0.00003035,-0.00009485,0.00015216,0.00011905,0.00
 053491,0.00086013,-0.00065405,-0.00001428,-0.00000732,-0.00001185,-0.0
 0020884,-0.00008960,-0.00003428,-0.00004031,0.00002324,0.00002611,-0.0
 0007351,0.00001814,0.00003366,-0.00001666,-0.00002190,0.00003506,0.000
 00074,0.00002873,0.00000424,-0.00000844,0.00002745,0.00000712,-0.00000
 409,0.00001057,-0.00001060,-0.00283908,0.00186036,-0.00344996,-0.01045
 912,0.01371948,0.00258026,0.00011536,-0.00011896,0.00034122,-0.0001668
 9,0.00003282,-0.00033486,-0.11216907,0.11145914,0.01654286,-0.00985133
 ,0.01597162,0.00176563,0.12629849,-0.00094900,-0.00038664,-0.00027846,
 0.00042453,0.00015325,-0.00027396,-0.00004646,-0.00034201,0.00010147,-
 0.00013894,0.00021095,0.00003360,0.00018361,-0.00002802,-0.00018098,0.
 00000497,0.00000015,0.00001268,-0.00005844,-0.00001613,0.00009537,-0.0
 0000226,0.00000684,0.00000187,0.00003674,-0.00001004,-0.00003077,-0.00
 001917,0.00001290,-0.00001224,0.00002431,0.00001453,0.00000289,-0.0000
 1919,0.00002819,0.00001070,-0.00001346,0.00000124,0.00000535,-0.001482
 63,0.00165648,0.00063442,0.00291987,-0.00483403,-0.00110303,-0.0003892
 1,0.00170571,0.00006803,0.00016318,-0.00012165,0.00033767,0.11464719,-
 0.23070251,-0.02690154,-0.00180476,0.00389244,-0.00047047,-0.12051016,
 0.25143797,-0.00115018,0.00010087,-0.00009008,0.00062442,0.00006045,0.
 00035536,-0.00033058,-0.00028701,0.00006592,-0.00019203,0.00045487,0.0
 0030210,0.00022171,0.00015982,-0.00025156,-0.00002896,-0.00001639,-0.0
 0005139,-0.00035791,-0.00013651,-0.00015256,-0.00002432,0.00001856,0.0
 0004767,-0.00001795,-0.00010408,-0.00014779,-0.00006392,0.00001480,0.0
 0002164,-0.00000346,0.00003601,-0.00001120,-0.00004523,0.00002578,-0.0
 0001267,-0.00000929,0.00000700,-0.00000599,-0.00219311,0.00162869,-0.0
 0460544,-0.01719835,0.02134035,0.00104062,-0.00036576,0.00012156,0.002
 00632,0.00051905,0.00009321,-0.00061909,0.01924984,-0.02801988,-0.0522
 2635,0.01280975,-0.02270915,-0.00220982,-0.01429797,0.03170427,0.05541
 974,-0.00024873,0.00006868,0.00029186,0.00026627,0.00032533,-0.0004829
 9,-0.00001146,-0.00023171,0.00004212,-0.00000579,0.00005510,-0.0001720
 3,-0.00030594,0.00001747,-0.00029098,0.00007433,0.00001714,0.00008857,
 -0.00019926,0.00005028,0.00015701,0.00002469,-0.00000066,0.00001672,0.
 00002138,0.00012081,0.00004633,-0.00003467,0.00004845,0.00003658,-0.00
 002451,-0.00003421,-0.00003676,0.00012536,-0.00017145,0.00008484,-0.00
 002001,-0.00001382,-0.00003182,-0.00042458,0.00016620,0.00072612,-0.01
 087293,-0.01181237,-0.00586938,-0.00036514,0.00032150,-0.00086593,0.00
 150771,-0.00036521,0.00113992,-0.11420448,-0.04899570,-0.00710249,-0.0
 1640751,-0.01732109,-0.00443388,0.01021697,0.01058509,0.00353168,0.517
 31547,-0.00047744,0.00210817,-0.00055628,0.00083229,-0.00027105,0.0003
 5604,-0.00054743,0.00021796,0.00014097,0.00043659,-0.00010592,-0.00010
 383,-0.00112214,-0.00064237,0.00062054,0.00000758,-0.00001098,-0.00008
 556,-0.00086796,-0.00063548,-0.00033592,0.00000710,-0.00001785,-0.0000
 2937,-0.00003590,0.00001950,-0.00006355,-0.00001422,0.00013910,0.00001
 440,0.00003478,0.00002757,-0.00002606,-0.00019356,0.00015368,-0.000008
 11,-0.00005785,0.00001522,-0.00002864,0.00376071,-0.00185596,-0.000599
 72,-0.00284935,0.00599360,-0.00672945,0.00065145,0.00067441,0.00220709
 ,0.00019029,-0.00033627,0.00051586,-0.03544773,-0.12710712,-0.00715581
 ,-0.00413826,-0.00391248,-0.00086180,-0.02225375,-0.02335304,-0.004089
 52,-0.01930912,0.38702469,-0.00181157,-0.00162517,-0.00065774,0.000935
 26,0.00007710,-0.00053717,-0.00030256,-0.00115820,0.00028547,-0.000618
 15,0.00106136,0.00032501,0.00096853,0.00055528,-0.00041962,-0.00000849
 ,-0.00002847,0.00002177,0.00067846,0.00042372,0.00039660,-0.00002307,0
 .00003644,0.00004782,-0.00006868,-0.00009111,-0.00024755,0.00006231,0.
 00007638,0.00005280,0.00000474,-0.00000705,0.00003188,-0.00003809,0.00
 010198,-0.00010298,0.00005499,-0.00001082,0.00004123,-0.00078799,0.000
 43144,0.00032916,-0.01787890,-0.02227085,-0.01017845,-0.00367453,0.000
 52203,-0.00394996,-0.00033397,-0.00086475,0.00166828,-0.00598820,-0.01
 177508,-0.07583613,0.01491045,0.01862120,0.00513354,-0.00230313,-0.003
 62701,0.00004539,-0.04249453,-0.01626265,0.60213285,-0.00029534,-0.000
 20535,-0.00020814,0.00013837,-0.00004259,0.00000374,-0.00010174,-0.000
 05046,0.00004639,-0.00002398,0.00010704,0.00003560,0.00010122,0.000106
 79,-0.00001528,-0.00001136,-0.00000131,-0.00000885,0.00003468,-0.00001
 968,0.00005453,-0.00001826,0.00000108,-0.00000207,0.00001599,-0.000004
 37,-0.00004755,0.00000006,0.00001402,0.00001199,-0.00000924,0.00000765
 ,0.00000030,-0.00001096,0.00001388,-0.00001723,0.00000157,0.00000116,0
 .00000331,0.00035078,0.00009219,0.00000858,-0.00184489,-0.00438038,-0.
 00109259,-0.00082704,0.00011031,-0.00102693,-0.00000510,0.00005589,0.0
 0022971,-0.00925422,0.00079527,-0.02001908,0.00071454,0.00080482,-0.00
 033257,0.00030401,-0.00012505,0.00016838,-0.07232912,0.00638731,-0.072
 45216,0.07590888,-0.00007574,-0.00036176,-0.00004473,-0.00006702,0.000
 05175,-0.00003879,0.00005500,-0.00004539,0.00000223,-0.00012434,0.0000
 7062,0.00004875,0.00020536,0.00025300,-0.00014639,0.00000221,0.0000048
 9,0.00000296,-0.00029302,-0.00013770,-0.00003009,-0.00001090,0.0000103
 8,0.00000716,0.00001282,0.00001378,-0.00003943,-0.00001385,-0.00003397
 ,-0.00001665,0.00001455,0.00001355,0.00000009,0.00000791,-0.00000380,0
 .00003710,-0.00001840,0.00000636,-0.00001020,-0.00048387,0.00010065,0.
 00009587,-0.00212228,-0.00408722,-0.00064605,-0.00074868,0.00007770,-0
 .00104821,0.00004107,-0.00011486,0.00025300,-0.00991185,0.00125000,-0.
 02452971,0.00038089,0.00176321,0.00022238,0.00082409,0.00028901,0.0000
 8356,0.00971982,-0.04335430,0.01703697,-0.00290209,0.04956215,0.000013
 48,-0.00003920,-0.00007220,-0.00007094,-0.00005382,0.00008992,-0.00001
 813,0.00010078,-0.00002139,0.00004826,-0.00005361,0.00000026,-0.000082
 25,0.00007259,0.00004048,-0.00000921,0.00000333,-0.00000263,0.00017275
 ,0.00004727,0.00000136,-0.00001185,-0.00000011,0.00000132,0.00001511,0
 .00000860,-0.00001025,-0.00001023,0.00000845,0.00000688,-0.00001714,0.
 00000116,0.00000161,0.00000642,0.00000372,-0.00002039,0.00001136,-0.00
 000234,0.00000656,0.00005634,-0.00017369,-0.00011599,0.00006683,-0.000
 91877,0.00084837,-0.00024755,0.00011940,-0.00006244,0.00023691,0.00006
 199,0.00042130,-0.00082097,0.00093868,-0.00421630,-0.00006506,0.000052
 08,0.00130251,-0.00009627,-0.00037408,-0.00026286,-0.07647647,0.013685
 60,-0.28506141,0.08315856,-0.01667205,0.30701620,0.00045038,0.00028785
 ,0.00021383,-0.00021616,-0.00000651,0.00008068,0.00007671,0.00027826,-
 0.00005474,0.00017686,-0.00024342,-0.00008692,-0.00021617,-0.00006418,
 0.00002409,0.00000984,0.00001120,0.00000663,-0.00024143,-0.00007810,-0
 .00003059,0.00000991,-0.00001125,-0.00000749,0.00003486,0.00003136,0.0
 0005617,-0.00000732,-0.00001560,0.00000500,-0.00001924,-0.00000210,-0.
 00001340,0.00004122,-0.00005440,0.00003465,-0.00001078,0.00000815,-0.0
 0001696,0.00043796,-0.00003396,-0.00007802,0.00002346,-0.00001080,0.00
 103910,0.00010274,0.00002512,-0.00016481,-0.00038208,0.00020369,-0.000
 63577,-0.01586861,0.00024640,0.01172082,-0.00139393,-0.00250288,-0.001
 02014,0.00123270,-0.00006568,-0.00027663,-0.20870369,0.01261242,0.1225
 1223,0.00994649,-0.00056389,-0.00596156,0.22640322,-0.00084478,-0.0007
 0935,-0.00052895,0.00034116,-0.00005001,-0.00009297,-0.00007580,-0.000
 42062,0.00011809,-0.00014976,0.00043624,-0.00000646,0.00043526,-0.0000
 0907,-0.00009256,-0.00002000,-0.00000307,-0.00001066,0.00019359,0.0000
 5638,0.00008524,-0.00000561,0.00000748,-0.00000222,0.00006899,0.000073
 75,0.00004153,0.00004766,0.00002172,0.00000264,0.00002149,0.00001041,0
 .00001843,-0.00006148,0.00009505,-0.00004041,0.00000888,0.00000554,0.0
 0002116,-0.00016692,0.00043427,-0.00002075,0.00078770,-0.00013253,0.00
 076976,0.00007885,-0.00001678,-0.00000249,0.00016017,0.00031637,-0.000
 35104,-0.02224280,-0.00213924,0.01651803,-0.00393619,-0.00352072,-0.00
 145270,0.00050993,0.00134518,0.00045009,0.01146969,-0.04525479,-0.0090
 7789,-0.00127932,-0.00044326,0.00090993,-0.01098187,0.05390361,-0.0002
 6922,-0.00017014,-0.00017837,0.00011557,0.00000258,-0.00004087,-0.0000
 4415,-0.00006831,0.00003859,0.00000050,0.00006266,-0.00005311,-0.00003
 470,-0.00002127,-0.00011145,0.00000221,-0.00000134,0.00000343,0.000033
 00,0.00001394,0.00006129,0.00000645,0.00000070,0.00000764,0.00001680,0
 .00001813,0.00001620,0.00000351,0.00000680,-0.00000743,0.00001242,0.00
 000172,0.00000295,-0.00001566,0.00002514,-0.00000072,-0.00000172,0.000
 00017,0.00000535,0.00009213,0.00014615,0.00006538,-0.00001849,0.000098
 82,0.00119893,0.00014908,0.00001204,0.00003079,0.00031995,0.00004518,-
 0.00007405,-0.00666233,0.00002578,0.00438065,-0.00146308,-0.00093912,0
 .00084103,0.00024498,0.00085947,0.00067085,0.12627516,-0.01095053,-0.1
 5122935,0.02362363,-0.00232651,-0.01670581,-0.13753936,0.01115210,0.15
 803197,-0.02759473,-0.00663210,-0.01773608,0.00607130,-0.00109688,-0.0
 0073024,-0.00262371,-0.00441299,0.00206264,-0.00128138,0.00440299,-0.0
 0011209,0.00198956,-0.00070082,-0.00030155,-0.00025970,-0.00016945,-0.
 00017890,0.00298009,0.00184345,-0.00394220,-0.00011348,0.00006453,0.00
 000929,0.00032823,0.00016365,-0.00010519,-0.00030875,0.00029725,-0.000
 47134,0.00020753,0.00005327,0.00020133,-0.00060056,0.00107826,-0.00045
 220,0.00026308,-0.00008073,0.00044213,-0.00063154,0.00426637,0.0022515
 1,0.00312146,-0.00443522,-0.00611892,-0.00134819,0.00003962,0.00031241
 ,0.00053069,0.00079494,0.00103558,0.01840577,-0.01589129,0.00636786,-0
 .00169052,-0.00256011,0.00093121,-0.00573580,-0.00576773,-0.00087092,-
 0.09448856,0.02266458,-0.01336854,-0.00426186,0.00713918,0.00207904,-0
 .01242968,0.02045076,-0.00326247,0.52693550,-0.00026836,0.00015276,0.0
 0051883,-0.00251100,-0.00043911,-0.00015646,0.00109673,0.00023750,-0.0
 0009373,-0.00018878,-0.00055115,0.00012941,0.00041135,-0.00021390,-0.0
 0032210,-0.00009441,-0.00005462,0.00022341,0.00640802,0.00317369,0.001
 82557,0.00004131,-0.00003680,-0.00000240,-0.00027642,-0.00026363,-0.00
 001370,0.00019799,-0.00024506,0.00017031,-0.00019046,-0.00013846,0.000
 07689,0.00055624,-0.00013624,-0.00040650,0.00035866,-0.00006765,0.0001
 7510,-0.00498486,0.00055749,-0.00060591,0.00101667,-0.00041805,-0.0002
 6407,0.00100165,-0.00028441,0.00147863,0.00017146,0.00087851,-0.000437
 12,-0.00074672,-0.03801014,-0.00168526,0.00149259,0.00156405,-0.000275
 91,-0.00074810,-0.00020322,0.00067055,0.02332693,-0.11492886,-0.001663
 21,-0.00219673,0.00297566,0.00064452,-0.00273368,0.00151402,0.00138066
 ,-0.07036537,0.47433913,0.01676272,0.00773711,0.01421642,-0.00667602,0
 .00160986,0.00000220,0.00280275,0.00550025,-0.00267740,0.00198926,-0.0
 0511635,0.00035734,-0.00283791,0.00109729,0.00123988,0.00043917,0.0002
 8442,0.00001224,-0.02327312,-0.00415788,-0.00668315,0.00016069,-0.0000
 6740,-0.00005235,0.00002426,0.00008988,0.00002517,0.00015083,-0.000271
 37,0.00023486,0.00001736,0.00003831,-0.00030763,0.00017466,-0.00102905
 ,0.00106125,-0.00063219,0.00023582,-0.00071914,-0.00011748,-0.00800710
 ,-0.00642196,-0.00412351,-0.00005030,0.00484510,0.00108602,0.00098303,
 -0.00126984,-0.00159256,-0.00386498,-0.00313868,0.00634792,-0.00753004
 ,0.00109689,0.00053437,0.00196757,-0.00090340,-0.00137430,-0.00279985,
 -0.00083120,-0.01653650,0.00697234,-0.07307110,-0.01311696,0.02870888,
 -0.00604294,0.01233285,-0.01904275,-0.00120198,-0.20909005,-0.14190636
 ,0.65957287,-0.00397956,-0.00069023,0.00178311,-0.00294168,-0.00205985
 ,0.00113294,0.00030184,0.00204193,-0.00034380,0.00072895,-0.00138629,-
 0.00019063,-0.00090587,-0.00072166,0.00069850,-0.00019404,-0.00008712,
 0.00018058,0.00238900,0.00156910,0.00184943,-0.00000214,-0.00006170,-0
 .00002204,-0.00024768,-0.00021454,0.00012104,0.00008255,-0.00018663,0.
 00006754,-0.00022096,0.00000303,0.00000698,0.00024938,-0.00033643,-0.0
 0010968,0.00009640,-0.00003261,0.00002577,-0.00072658,-0.00009915,0.00
 018790,-0.00144870,0.00054659,0.00013118,0.00021041,-0.00026092,0.0003
 1281,-0.00052437,-0.00032785,0.00025428,-0.00253202,0.00303229,-0.0028
 7068,0.00079660,0.00098044,0.00001073,0.00118070,0.00098136,0.00018522
 ,0.01413270,0.01442050,-0.00439330,0.00045275,0.00105719,-0.00199887,0
 .00284180,-0.00198578,-0.00157392,-0.10977343,-0.03469313,0.07859517,0
 .11345802,0.00174818,0.00289825,0.00214398,-0.00103582,-0.00087997,0.0
 0062105,0.00008604,0.00151049,-0.00041081,0.00041147,-0.00091694,-0.00
 008398,-0.00066418,0.00057665,0.00062772,-0.00001149,0.00002383,-0.000
 06021,-0.00416997,-0.00363615,-0.00035042,-0.00001384,0.00001360,-0.00
 001669,0.00018335,0.00013937,0.00007570,0.00007587,-0.00016169,-0.0000
 3237,0.00016258,0.00021108,-0.00007921,-0.00033803,-0.00009426,0.00057
 695,-0.00043409,0.00008674,-0.00032576,0.00203403,-0.00135716,-0.00133
 772,-0.00095471,-0.00110408,-0.00135318,-0.00041281,-0.00021633,0.0002
 3229,-0.00013499,-0.00052659,0.00075630,0.00283524,0.00236531,0.001788
 05,-0.00026885,-0.00017743,0.00010911,-0.00063845,-0.00072842,-0.00072
 108,0.00522282,-0.02489063,0.04487154,0.00216053,-0.00824331,0.0022733
 6,-0.00135670,0.00135965,0.00052383,-0.02627748,-0.21335582,0.18071257
 ,0.04169480,0.21488859,-0.01262456,-0.00415496,-0.00849980,0.00159019,
 -0.00172206,0.00054453,-0.00130346,-0.00194947,0.00123980,-0.00090563,
 0.00195527,-0.00011959,0.00107946,-0.00071852,-0.00033883,-0.00035591,
 -0.00019678,0.00000346,0.01047664,0.00258307,-0.00067087,-0.00009723,0
 .00001364,0.00000080,-0.00011939,-0.00014093,-0.00003368,-0.00016934,0
 .00008994,-0.00040947,-0.00003151,0.00000117,0.00024013,-0.00021756,0.
 00062218,-0.00062008,0.00044595,-0.00017193,0.00041989,-0.00125254,0.0
 0360607,0.00349490,0.00202286,-0.00169787,-0.00373523,-0.00059040,-0.0
 0069299,0.00110256,0.00091280,0.00173541,0.00164275,-0.00563683,0.0013
 7112,-0.00332904,0.00010813,-0.00042565,0.00052455,0.00105595,0.001699
 39,0.00092495,0.00792346,0.02868235,-0.01487623,-0.00087676,0.00143706
 ,0.00076642,-0.00167047,0.00016391,0.00160030,0.06198573,0.18977319,-0
 .35744803,-0.13573091,-0.24257677,0.44426195,0.01736831,0.00478203,0.0
 1324617,-0.01255846,0.00029639,-0.00087871,0.00429614,0.00735061,-0.00
 346922,0.00272059,-0.00674383,0.00021788,-0.00453147,0.00050666,0.0022
 3998,0.00030996,0.00025598,0.00024078,-0.00998198,-0.00224520,-0.00430
 579,0.00013547,-0.00012829,-0.00009483,-0.00028479,-0.00013640,0.00003
 934,0.00033731,-0.00057150,0.00027041,-0.00021363,-0.00005310,-0.00024
 260,0.00011352,-0.00124630,0.00052223,-0.00033289,0.00017698,-0.000557
 26,-0.00090193,-0.00590223,-0.00873327,-0.00402137,0.00311774,0.004015
 99,0.00130132,0.00002122,-0.00010546,-0.00046044,-0.00136720,-0.001239
 61,-0.00609193,-0.00149340,-0.00109412,0.00127658,0.00133065,-0.001100
 91,0.00255516,0.00142128,0.00011650,-0.02503851,0.02530913,0.02641889,
 0.00102376,-0.00212417,0.00002144,-0.00229906,0.00717617,-0.00001032,-
 0.29769131,0.08391843,0.15795259,-0.01342407,-0.01990347,0.07398132,0.
 34639370,-0.00174937,-0.00206955,-0.00057848,0.00046563,-0.00152971,-0
 .00009170,-0.00024896,0.00023641,0.00013027,-0.00021102,0.00005372,0.0
 0023591,0.00076330,0.00097600,-0.00054738,-0.00013351,-0.00001518,-0.0
 0018528,-0.00012743,-0.00011365,-0.00069537,-0.00002218,0.00005409,-0.
 00000045,0.00009994,0.00007543,0.00005680,0.00039953,-0.00027184,-0.00
 037412,0.00038023,0.00025598,0.00025802,-0.00094801,0.00123834,-0.0000
 1910,-0.00007192,0.00016592,0.00010164,-0.00108294,-0.00245804,-0.0019
 1447,-0.00077592,0.00058799,0.00043799,-0.00005726,0.00016527,-0.00023
 090,-0.00007720,-0.00033363,-0.00010568,0.00234669,0.00259118,0.000851
 31,0.00027787,0.00058817,-0.00048569,0.00026278,-0.00002917,-0.0008868
 5,0.03674003,-0.00969680,-0.01535318,0.00054940,0.00038286,-0.00064380
 ,0.00502055,-0.00688023,0.00010135,0.07513130,-0.11604568,-0.04209391,
 -0.02318333,0.03221520,0.02071415,-0.09374819,0.09985689,0.00355501,0.
 00063433,-0.00451279,-0.00428836,-0.00095222,0.00034019,0.00133302,0.0
 0213533,-0.00023675,0.00047481,-0.00236339,-0.00001474,-0.00215634,-0.
 00025010,0.00072824,-0.00020747,0.00002211,-0.00007326,0.00356381,0.00
 115216,-0.00432379,-0.00004356,-0.00003500,-0.00008681,-0.00008645,-0.
 00010702,-0.00000148,0.00005153,-0.00037912,0.00021928,-0.00013838,-0.
 00001303,0.00004194,0.00006849,0.00061118,-0.00086828,0.00039690,0.000
 04507,0.00029871,-0.00017348,-0.00129217,-0.00098434,-0.00136876,0.000
 73979,-0.00093964,-0.00007765,-0.00027583,0.00035155,0.00055352,0.0009
 4284,0.00058630,0.00034714,0.00334035,0.00034868,-0.00080577,-0.001336
 11,0.00011544,-0.00013486,0.00048522,0.00057745,0.01443340,-0.00530841
 ,0.00565589,0.00187142,-0.00238722,0.00209142,-0.00046917,0.00047093,0
 .00264780,0.17906195,-0.04923433,-0.22189539,0.06169065,0.01203575,-0.
 06668614,-0.25745141,0.04131890,0.28662049\\0.00001172,-0.00001603,0.0
 0001711,0.00000219,0.00001237,-0.00000447,0.00000101,-0.00000558,0.000
 00316,-0.00000901,0.00000904,-0.00000078,0.00001489,0.00000793,-0.0000
 2292,-0.00000411,-0.00000101,-0.00000272,-0.00000105,0.00000299,-0.000
 01196,0.00000192,0.00000066,0.00000363,-0.00000116,-0.00000112,0.00000
 770,0.00000840,-0.00000454,-0.00000335,0.00000038,0.00000210,0.0000045
 2,-0.00000485,0.00000592,-0.00000144,0.00000107,-0.00000175,0.00000187
 ,-0.00001578,0.00000325,0.00002132,0.00000319,-0.00000834,-0.00000796,
 -0.00000154,-0.00000027,0.00000352,-0.00000673,-0.00000127,-0.00000711
 ,0.00004448,0.00001298,-0.00000572,-0.00000979,-0.00000098,0.00000332,
 -0.00000435,0.00000008,0.00000408,-0.00003734,-0.00001879,0.00000541,0
 .00000913,-0.00000454,0.00000609,-0.00000138,0.00000369,-0.00000044,-0
 .00002048,0.00000870,-0.00001307,0.00000352,0.00000345,-0.00000420,0.0
 0001565,-0.00000895,0.00000442\\\@


 AS FAR AS THE LAWS OF MATHEMATICS REFER TO REALITY,
 THEY ARE NOT CERTAIN; AND AS FAR AS THEY ARE CERTAIN,
 THEY DO NOT REFER TO REALITY.

                                         -- ALBERT EINSTEIN
 Job cpu time:       0 days  3 hours 10 minutes 20.5 seconds.
 Elapsed time:       0 days  0 hours  8 minutes  0.4 seconds.
 File lengths (MBytes):  RWF=    400 Int=      0 D2E=      0 Chk=     16 Scr=      1
 Normal termination of Gaussian 16 at Thu Oct 12 00:24:14 2023.
