 Entering Gaussian System, Link 0=g16
 Initial command:
 /data0/home/software/g16/l1.exe "/data0/home/software/g16/scratch/Gau-2586503.inp" -scrdir="/data0/home/software/g16/scratch/"
 Default is to use a total of  22 processors:
                               22 via shared-memory
                                1 via Linda
 Entering Link 1 = /data0/home/software/g16/l1.exe PID=   2586504.
  
 Copyright (c) 1988,1990,1992,1993,1995,1998,2003,2009,2016,
            Gaussian, Inc.  All Rights Reserved.
  
 This is part of the Gaussian(R) 16 program.  It is based on
 the Gaussian(R) 09 system (copyright 2009, Gaussian, Inc.),
 the Gaussian(R) 03 system (copyright 2003, Gaussian, Inc.),
 the Gaussian(R) 98 system (copyright 1998, Gaussian, Inc.),
 the Gaussian(R) 94 system (copyright 1995, Gaussian, Inc.),
 the Gaussian 92(TM) system (copyright 1992, Gaussian, Inc.),
 the Gaussian 90(TM) system (copyright 1990, Gaussian, Inc.),
 the Gaussian 88(TM) system (copyright 1988, Gaussian, Inc.),
 the Gaussian 86(TM) system (copyright 1986, Carnegie Mellon
 University), and the Gaussian 82(TM) system (copyright 1983,
 Carnegie Mellon University). Gaussian is a federally registered
 trademark of Gaussian, Inc.
  
 This software contains proprietary and confidential information,
 including trade secrets, belonging to Gaussian, Inc.
  
 This software is provided under written license and may be
 used, copied, transmitted, or stored only in accord with that
 written license.
  
 The following legend is applicable only to US Government
 contracts under FAR:
  
                    RESTRICTED RIGHTS LEGEND
  
 Use, reproduction and disclosure by the US Government is
 subject to restrictions as set forth in subparagraphs (a)
 and (c) of the Commercial Computer Software - Restricted
 Rights clause in FAR 52.227-19.
  
 Gaussian, Inc.
 340 Quinnipiac St., Bldg. 40, Wallingford CT 06492
  
  
 ---------------------------------------------------------------
 Warning -- This program may not be used in any manner that
 competes with the business of Gaussian, Inc. or will provide
 assistance to any competitor of Gaussian, Inc.  The licensee
 of this program is prohibited from giving any competitor of
 Gaussian, Inc. access to this program.  By using this program,
 the user acknowledges that Gaussian, Inc. is engaged in the
 business of creating and licensing software in the field of
 computational chemistry and represents and warrants to the
 licensee that it is not a competitor of Gaussian, Inc. and that
 it will not use this program in any manner prohibited above.
 ---------------------------------------------------------------
  

 Cite this work as:
 Gaussian 16, Revision A.03,
 M. J. Frisch, G. W. Trucks, H. B. Schlegel, G. E. Scuseria, 
 M. A. Robb, J. R. Cheeseman, G. Scalmani, V. Barone, 
 G. A. Petersson, H. Nakatsuji, X. Li, M. Caricato, A. V. Marenich, 
 J. Bloino, B. G. Janesko, R. Gomperts, B. Mennucci, H. P. Hratchian, 
 J. V. Ortiz, A. F. Izmaylov, J. L. Sonnenberg, D. Williams-Young, 
 F. Ding, F. Lipparini, F. Egidi, J. Goings, B. Peng, A. Petrone, 
 T. Henderson, D. Ranasinghe, V. G. Zakrzewski, J. Gao, N. Rega, 
 G. Zheng, W. Liang, M. Hada, M. Ehara, K. Toyota, R. Fukuda, 
 J. Hasegawa, M. Ishida, T. Nakajima, Y. Honda, O. Kitao, H. Nakai, 
 T. Vreven, K. Throssell, J. A. Montgomery, Jr., J. E. Peralta, 
 F. Ogliaro, M. J. Bearpark, J. J. Heyd, E. N. Brothers, K. N. Kudin, 
 V. N. Staroverov, T. A. Keith, R. Kobayashi, J. Normand, 
 K. Raghavachari, A. P. Rendell, J. C. Burant, S. S. Iyengar, 
 J. Tomasi, M. Cossi, J. M. Millam, M. Klene, C. Adamo, R. Cammi, 
 J. W. Ochterski, R. L. Martin, K. Morokuma, O. Farkas, 
 J. B. Foresman, and D. J. Fox, Gaussian, Inc., Wallingford CT, 2016.
 
 ******************************************
 Gaussian 16:  ES64L-G16RevA.03 25-Dec-2016
                12-Oct-2023 
 ******************************************
 %mem=100GB
 %nprocshared=24
 Will use up to   24 processors via shared memory.
 ---------------
 #p M052X/6-31G*
 ---------------
 1/38=1,172=1/1;
 2/12=2,17=6,18=5,40=1/2;
 3/5=1,6=6,7=1,11=2,25=1,30=1,74=-38/1,2,3;
 4//1;
 5/5=2,38=5/2;
 6/7=2,8=2,9=2,10=2,28=1/1;
 99/5=1,9=1/99;
 Leave Link    1 at Thu Oct 12 08:57:22 2023, MaxMem= 13421772800 cpu:               0.6 elap:               0.0
 (Enter /data0/home/software/g16/l101.exe)
 -------------------
 Title Card Required
 -------------------
 Symbolic Z-matrix:
 Charge =  0 Multiplicity = 1
 C                    -0.66157   0.31984  -0.61948 
 C                    -1.91597   0.72268  -0.15144 
 C                    -2.74625  -0.23991   0.38724 
 C                    -2.32638  -1.57397   0.46007 
 C                    -1.08427  -1.90842  -0.00325 
 H                    -3.72034   0.03969   0.76986 
 H                     0.03477   1.01612  -1.07632 
 H                    -2.96015  -2.34043   0.88303 
 H                    -0.68482  -2.91065   0.03962 
 C                    -2.24629   2.18297  -0.18216 
 H                    -3.25273   2.37115   0.19091 
 H                    -1.52246   2.7166    0.43882 
 H                    -2.16623   2.58643  -1.19365 
 N                    -0.27814  -0.96566  -0.55209 
 C                     1.10636  -1.35771  -0.93309 
 H                     1.02554  -2.34341  -1.3895 
 H                     1.44585  -0.64684  -1.68437 
 C                     2.06619  -1.38199   0.27702 
 H                     1.49302  -1.65872   1.16441 
 H                     2.78998  -2.18176   0.09995 
 C                     2.8006   -0.05309   0.52491 
 H                     3.20899  -0.05342   1.53667 
 H                     3.61775   0.06428  -0.18793 
 C                     1.79557   1.0997    0.33973 
 O                     1.89007   1.76816  -0.7143 
 O                     0.84866   1.13684   1.17379 
 
 ITRead=  0  0  0  0  0  0  0  0  0  0  0  0  0  0  0  0  0  0  0  0
 ITRead=  0  0  0  0  0  0
 MicOpt= -1 -1 -1 -1 -1 -1 -1 -1 -1 -1 -1 -1 -1 -1 -1 -1 -1 -1 -1 -1
 MicOpt= -1 -1 -1 -1 -1 -1
 NAtoms=     26 NQM=       26 NQMF=       0 NMMI=      0 NMMIF=      0
                NMic=       0 NMicF=      0.
                    Isotopes and Nuclear Properties:
 (Nuclear quadrupole moments (NQMom) in fm**2, nuclear magnetic moments (NMagM)
  in nuclear magnetons)

  Atom         1           2           3           4           5           6           7           8           9          10
 IAtWgt=          12          12          12          12          12           1           1           1           1          12
 AtmWgt=  12.0000000  12.0000000  12.0000000  12.0000000  12.0000000   1.0078250   1.0078250   1.0078250   1.0078250  12.0000000
 NucSpn=           0           0           0           0           0           1           1           1           1           0
 AtZEff=  -0.0000000  -0.0000000  -0.0000000  -0.0000000  -0.0000000  -0.0000000  -0.0000000  -0.0000000  -0.0000000  -0.0000000
 NQMom=    0.0000000   0.0000000   0.0000000   0.0000000   0.0000000   0.0000000   0.0000000   0.0000000   0.0000000   0.0000000
 NMagM=    0.0000000   0.0000000   0.0000000   0.0000000   0.0000000   2.7928460   2.7928460   2.7928460   2.7928460   0.0000000
 AtZNuc=   6.0000000   6.0000000   6.0000000   6.0000000   6.0000000   1.0000000   1.0000000   1.0000000   1.0000000   6.0000000

  Atom        11          12          13          14          15          16          17          18          19          20
 IAtWgt=           1           1           1          14          12           1           1          12           1           1
 AtmWgt=   1.0078250   1.0078250   1.0078250  14.0030740  12.0000000   1.0078250   1.0078250  12.0000000   1.0078250   1.0078250
 NucSpn=           1           1           1           2           0           1           1           0           1           1
 AtZEff=  -0.0000000  -0.0000000  -0.0000000  -0.0000000  -0.0000000  -0.0000000  -0.0000000  -0.0000000  -0.0000000  -0.0000000
 NQMom=    0.0000000   0.0000000   0.0000000   2.0440000   0.0000000   0.0000000   0.0000000   0.0000000   0.0000000   0.0000000
 NMagM=    2.7928460   2.7928460   2.7928460   0.4037610   0.0000000   2.7928460   2.7928460   0.0000000   2.7928460   2.7928460
 AtZNuc=   1.0000000   1.0000000   1.0000000   7.0000000   6.0000000   1.0000000   1.0000000   6.0000000   1.0000000   1.0000000

  Atom        21          22          23          24          25          26
 IAtWgt=          12           1           1          12          16          16
 AtmWgt=  12.0000000   1.0078250   1.0078250  12.0000000  15.9949146  15.9949146
 NucSpn=           0           1           1           0           0           0
 AtZEff=  -0.0000000  -0.0000000  -0.0000000  -0.0000000  -0.0000000  -0.0000000
 NQMom=    0.0000000   0.0000000   0.0000000   0.0000000   0.0000000   0.0000000
 NMagM=    0.0000000   2.7928460   2.7928460   0.0000000   0.0000000   0.0000000
 AtZNuc=   6.0000000   1.0000000   1.0000000   6.0000000   8.0000000   8.0000000
 Leave Link  101 at Thu Oct 12 08:57:22 2023, MaxMem= 13421772800 cpu:               2.1 elap:               0.1
 (Enter /data0/home/software/g16/l202.exe)
                          Input orientation:                          
 ---------------------------------------------------------------------
 Center     Atomic      Atomic             Coordinates (Angstroms)
 Number     Number       Type             X           Y           Z
 ---------------------------------------------------------------------
      1          6           0       -0.661565    0.319837   -0.619480
      2          6           0       -1.915969    0.722676   -0.151435
      3          6           0       -2.746247   -0.239909    0.387240
      4          6           0       -2.326384   -1.573966    0.460066
      5          6           0       -1.084266   -1.908419   -0.003253
      6          1           0       -3.720335    0.039693    0.769858
      7          1           0        0.034766    1.016119   -1.076316
      8          1           0       -2.960145   -2.340426    0.883026
      9          1           0       -0.684824   -2.910652    0.039617
     10          6           0       -2.246290    2.182974   -0.182155
     11          1           0       -3.252727    2.371149    0.190912
     12          1           0       -1.522460    2.716604    0.438818
     13          1           0       -2.166230    2.586426   -1.193645
     14          7           0       -0.278136   -0.965657   -0.552093
     15          6           0        1.106356   -1.357709   -0.933094
     16          1           0        1.025535   -2.343410   -1.389500
     17          1           0        1.445846   -0.646838   -1.684367
     18          6           0        2.066187   -1.381993    0.277022
     19          1           0        1.493019   -1.658722    1.164408
     20          1           0        2.789984   -2.181765    0.099948
     21          6           0        2.800602   -0.053089    0.524909
     22          1           0        3.208991   -0.053415    1.536667
     23          1           0        3.617754    0.064277   -0.187930
     24          6           0        1.795568    1.099697    0.339727
     25          8           0        1.890067    1.768157   -0.714303
     26          8           0        0.848661    1.136840    1.173787
 ---------------------------------------------------------------------
                    Distance matrix (angstroms):
                    1          2          3          4          5
     1  C    0.000000
     2  C    1.398168   0.000000
     3  C    2.381743   1.380617   0.000000
     4  C    2.742906   2.411833   1.400463   0.000000
     5  C    2.350221   2.763394   2.387172   1.367253   0.000000
     6  H    3.371174   2.137986   1.083246   2.154754   3.367744
     7  H    1.085534   2.178734   3.384322   3.826753   3.310078
     8  H    3.823348   3.397500   2.168808   1.080745   2.119208
     9  H    3.297121   3.841001   3.391633   2.158292   1.079751
    10  C    2.484731   1.497507   2.538608   3.812278   4.256971
    11  H    3.402754   2.149788   2.666963   4.061341   4.801523
    12  H    2.757830   2.116364   3.200201   4.365288   4.666720
    13  H    2.780487   2.149976   3.289952   4.479874   4.774025
    14  N    1.343151   2.386104   2.738728   2.364281   1.356418
    15  C    2.457246   3.751459   4.223187   3.710979   2.442685
    16  H    3.245323   4.425622   4.669889   3.904907   2.561671
    17  H    2.551397   3.940463   4.693697   4.437102   3.289255
    18  C    3.337750   4.524464   4.947325   4.400573   3.206405
    19  H    3.426249   4.361616   4.537444   3.884729   2.840454
    20  H    4.323052   5.535789   5.873942   5.164913   3.885252
    21  C    3.665420   4.827556   5.551701   5.348201   4.337442
    22  H    4.446290   5.451350   6.068016   5.840507   4.923865
    23  H    4.308610   5.572873   6.397176   6.199719   5.102414
    24  C    2.750593   3.762830   4.735492   4.914615   4.178497
    25  O    2.935549   3.986949   5.171183   5.507031   4.782202
    26  O    2.482757   3.093691   3.929053   4.235419   3.794105
                    6          7          8          9         10
     6  H    0.000000
     7  H    4.296807   0.000000
     8  H    2.501132   4.906619   0.000000
     9  H    4.295592   4.145196   2.492706   0.000000
    10  C    2.769980   2.713723   4.701632   5.332203   0.000000
    11  H    2.447350   3.774862   4.771118   5.874899   1.089727
    12  H    3.479381   2.759028   5.276155   5.703245   1.092840
    13  H    3.571615   2.706291   5.405251   5.825235   1.091923
    14  N    3.821913   2.073681   3.338073   2.073288   3.731536
    15  C    5.305631   2.608424   4.560752   2.562445   4.933617
    16  H    5.732826   3.516553   4.588031   2.299884   5.714077
    17  H    5.760553   2.264133   5.373314   3.554818   4.888389
    18  C    5.978956   3.421862   5.152654   3.156140   5.614026
    19  H    5.497212   3.781814   4.513819   2.752360   5.527594
    20  H    6.911433   4.381927   5.805374   3.550944   6.670426
    21  C    6.526196   3.370011   6.208572   4.533141   5.565163
    22  H    6.972247   4.248210   6.611800   5.056358   6.141325
    23  H    7.400372   3.812222   7.085076   5.235853   6.235056
    24  C    5.633277   2.261103   5.894610   4.724967   4.216926
    25  O    6.055323   2.034393   6.554119   5.393488   4.191027
    26  O    4.716208   2.395822   5.165552   4.474384   3.537188
                   11         12         13         14         15
    11  H    0.000000
    12  H    1.781746   0.000000
    13  H    1.773081   1.759637   0.000000
    14  N    4.531503   4.011146   4.073547   0.000000
    15  C    5.845458   5.039131   5.131657   1.488518   0.000000
    16  H    6.559596   5.953047   5.876139   2.073406   1.089241
    17  H    5.890798   4.963013   4.872566   2.087056   1.088578
    18  C    6.510325   5.450052   5.985363   2.521233   1.544748
    19  H    6.301560   5.363121   6.080444   2.561973   2.153980
    20  H    7.566482   6.534985   6.998077   3.364140   2.140291
    21  C    6.529263   5.134927   5.881317   3.386937   2.588103
    22  H    7.031598   5.591503   6.581517   4.165952   3.495994
    23  H    7.257320   5.818028   6.389614   4.046151   2.980677
    24  C    5.208072   3.692359   4.500826   3.059621   2.852005
    25  O    5.256552   3.724860   4.165679   3.493015   3.230033
    26  O    4.394422   2.942456   4.098244   2.944287   3.275382
                   16         17         18         19         20
    16  H    0.000000
    17  H    1.772559   0.000000
    18  C    2.187367   2.184565   0.000000
    19  H    2.685104   3.023517   1.092041   0.000000
    20  H    2.314706   2.710441   1.093102   1.757489   0.000000
    21  C    3.472952   2.658722   1.538441   2.167208   2.170706
    22  H    4.309758   3.719663   2.158200   2.379106   2.601846
    23  H    3.736352   2.731701   2.171460   3.051564   2.410971
    24  C    3.929143   2.696228   2.497189   2.894911   3.437201
    25  O    4.255384   2.640181   3.307142   3.928193   4.132159
    26  O    4.325952   3.421576   2.937869   2.868876   3.991867
                   21         22         23         24         25
    21  C    0.000000
    22  H    1.091071   0.000000
    23  H    1.090712   1.776281   0.000000
    24  C    1.540552   2.181765   2.161221   0.000000
    25  O    2.383623   3.181910   2.482978   1.251698   0.000000
    26  O    2.376352   2.668248   3.266885   1.262406   2.246769
                   26
    26  O    0.000000
 Stoichiometry    C10H13NO2
 Framework group  C1[X(C10H13NO2)]
 Deg. of freedom    72
 Full point group                 C1      NOp   1
 Largest Abelian subgroup         C1      NOp   1
 Largest concise Abelian subgroup C1      NOp   1
                         Standard orientation:                         
 ---------------------------------------------------------------------
 Center     Atomic      Atomic             Coordinates (Angstroms)
 Number     Number       Type             X           Y           Z
 ---------------------------------------------------------------------
      1          6           0       -0.661565    0.319837   -0.619480
      2          6           0       -1.915969    0.722676   -0.151435
      3          6           0       -2.746247   -0.239909    0.387240
      4          6           0       -2.326384   -1.573966    0.460066
      5          6           0       -1.084266   -1.908419   -0.003253
      6          1           0       -3.720335    0.039693    0.769858
      7          1           0        0.034766    1.016119   -1.076316
      8          1           0       -2.960145   -2.340426    0.883026
      9          1           0       -0.684824   -2.910652    0.039617
     10          6           0       -2.246290    2.182974   -0.182155
     11          1           0       -3.252727    2.371149    0.190912
     12          1           0       -1.522460    2.716604    0.438818
     13          1           0       -2.166230    2.586426   -1.193645
     14          7           0       -0.278136   -0.965657   -0.552093
     15          6           0        1.106356   -1.357709   -0.933094
     16          1           0        1.025535   -2.343410   -1.389500
     17          1           0        1.445846   -0.646838   -1.684367
     18          6           0        2.066187   -1.381993    0.277022
     19          1           0        1.493019   -1.658722    1.164408
     20          1           0        2.789984   -2.181766    0.099948
     21          6           0        2.800602   -0.053090    0.524909
     22          1           0        3.208991   -0.053416    1.536667
     23          1           0        3.617754    0.064276   -0.187930
     24          6           0        1.795568    1.099697    0.339727
     25          8           0        1.890067    1.768157   -0.714303
     26          8           0        0.848661    1.136840    1.173787
 ---------------------------------------------------------------------
 Rotational constants (GHZ):           1.2568237           0.7219599           0.5284963
 Leave Link  202 at Thu Oct 12 08:57:22 2023, MaxMem= 13421772800 cpu:               0.1 elap:               0.0
 (Enter /data0/home/software/g16/l301.exe)
 Standard basis: 6-31G(d) (6D, 7F)
 Ernie: Thresh=  0.10000D-02 Tol=  0.10000D-05 Strict=F.
 There are   221 symmetry adapted cartesian basis functions of A   symmetry.
 There are   221 symmetry adapted basis functions of A   symmetry.
   221 basis functions,   416 primitive gaussians,   221 cartesian basis functions
    48 alpha electrons       48 beta electrons
       nuclear repulsion energy       823.0835742071 Hartrees.
 IExCor= 3428 DFT=T Ex+Corr=M052X ExCW=0 ScaHFX=  0.560000
 ScaDFX=  0.440000  0.440000  1.000000  1.000000 ScalE2=  1.000000  1.000000
 IRadAn=      5 IRanWt=     -1 IRanGd=            0 ICorTp=0 IEmpDi=  4
 NAtoms=   26 NActive=   26 NUniq=   26 SFac= 1.00D+00 NAtFMM=   60 NAOKFM=F Big=F
 Integral buffers will be    131072 words long.
 Raffenetti 2 integral format.
 Two-electron integral symmetry is turned on.
 Leave Link  301 at Thu Oct 12 08:57:22 2023, MaxMem= 13421772800 cpu:               1.1 elap:               0.1
 (Enter /data0/home/software/g16/l302.exe)
 NPDir=0 NMtPBC=     1 NCelOv=     1 NCel=       1 NClECP=     1 NCelD=      1
         NCelK=      1 NCelE2=     1 NClLst=     1 CellRange=     0.0.
 One-electron integrals computed using PRISM.
 One-electron integral symmetry used in STVInt
 NBasis=   221 RedAO= T EigKep=  6.12D-04  NBF=   221
 NBsUse=   221 1.00D-06 EigRej= -1.00D+00 NBFU=   221
 Precomputing XC quadrature grid using
 IXCGrd= 4 IRadAn=           5 IRanWt=          -1 IRanGd=           0 AccXCQ= 0.00D+00.
 Generated NRdTot=       0 NPtTot=           0 NUsed=           0 NTot=          32
 NSgBfM=   221   221   221   221   221 MxSgAt=    26 MxSgA2=    26.
 Leave Link  302 at Thu Oct 12 08:57:22 2023, MaxMem= 13421772800 cpu:               4.7 elap:               0.2
 (Enter /data0/home/software/g16/l303.exe)
 DipDrv:  MaxL=1.
 Leave Link  303 at Thu Oct 12 08:57:22 2023, MaxMem= 13421772800 cpu:               0.6 elap:               0.0
 (Enter /data0/home/software/g16/l401.exe)
 ExpMin= 1.61D-01 ExpMax= 5.48D+03 ExpMxC= 8.25D+02 IAcc=3 IRadAn=         5 AccDes= 0.00D+00
 Harris functional with IExCor= 1009 and IRadAn=       5 diagonalized for initial guess.
 HarFok:  IExCor= 1009 AccDes= 0.00D+00 IRadAn=         5 IDoV= 1 UseB2=F ITyADJ=14
 ICtDFT=  3500011 ScaDFX=  1.000000  1.000000  1.000000  1.000000
 FoFCou: FMM=F IPFlag=           0 FMFlag=      100000 FMFlg1=           0
         NFxFlg=           0 DoJE=T BraDBF=F KetDBF=T FulRan=T
         wScrn=  0.000000 ICntrl=       500 IOpCl=  0 I1Cent=   200000004 NGrid=           0
         NMat0=    1 NMatS0=      1 NMatT0=    0 NMatD0=    1 NMtDS0=    0 NMtDT0=    0
 Petite list used in FoFCou.
 Harris En= -593.584633123339    
 JPrj=0 DoOrth=F DoCkMO=F.
 Leave Link  401 at Thu Oct 12 08:57:23 2023, MaxMem= 13421772800 cpu:              15.2 elap:               0.7
 (Enter /data0/home/software/g16/l502.exe)
 Integral symmetry usage will be decided dynamically.
 Closed shell SCF:
 Using DIIS extrapolation, IDIIS=  1040.
 NGot= 13421772800 LenX= 13421667211 LenY= 13421617929
 Requested convergence on RMS density matrix=1.00D-08 within 128 cycles.
 Requested convergence on MAX density matrix=1.00D-06.
 Requested convergence on             energy=1.00D-06.
 No special actions if energy rises.
 Fock matrices will be formed incrementally for  20 cycles.
 Integral accuracy reduced to 1.0D-05 until final iterations.

 Cycle   1  Pass 0  IDiag  1:
 FoFJK:  IHMeth= 1 ICntrl=       0 DoSepK=F KAlg= 0 I1Cent=           0 FoldK=F
 IRaf= 920000000 NMat=       1 IRICut=       1 DoRegI=T DoRafI=F ISym2E= 0 IDoP0=0 IntGTp=1.
 FoFCou: FMM=F IPFlag=           0 FMFlag=      100000 FMFlg1=           0
         NFxFlg=           0 DoJE=F BraDBF=F KetDBF=F FulRan=T
         wScrn=  0.000000 ICntrl=         0 IOpCl=  0 I1Cent=           0 NGrid=           0
         NMat0=    1 NMatS0=      1 NMatT0=    0 NMatD0=    1 NMtDS0=    0 NMtDT0=    0
 Symmetry not used in FoFCou.
 E= -593.634426233102    
 DIIS: error= 2.70D-02 at cycle   1 NSaved=   1.
 NSaved= 1 IEnMin= 1 EnMin= -593.634426233102     IErMin= 1 ErrMin= 2.70D-02
 ErrMax= 2.70D-02  0.00D+00 EMaxC= 1.00D-01 BMatC= 3.96D-01 BMatP= 3.96D-01
 IDIUse=3 WtCom= 7.30D-01 WtEn= 2.70D-01
 Coeff-Com:  0.100D+01
 Coeff-En:   0.100D+01
 Coeff:      0.100D+01
 Gap=     0.219 Goal=   None    Shift=    0.000
 GapD=    0.219 DampG=1.000 DampE=0.500 DampFc=0.5000 IDamp=-1.
 Damping current iteration by 5.00D-01
 RMSDP=5.92D-03 MaxDP=1.36D-01              OVMax= 2.09D-01

 Cycle   2  Pass 0  IDiag  1:
 RMSU=  2.95D-03    CP:  9.89D-01
 E= -593.800083835649     Delta-E=       -0.165657602548 Rises=F Damp=T
 DIIS: error= 7.30D-03 at cycle   2 NSaved=   2.
 NSaved= 2 IEnMin= 2 EnMin= -593.800083835649     IErMin= 2 ErrMin= 7.30D-03
 ErrMax= 7.30D-03  0.00D+00 EMaxC= 1.00D-01 BMatC= 3.11D-02 BMatP= 3.96D-01
 IDIUse=3 WtCom= 9.27D-01 WtEn= 7.30D-02
 Coeff-Com:  0.467D-02 0.995D+00
 Coeff-En:   0.000D+00 0.100D+01
 Coeff:      0.433D-02 0.996D+00
 Gap=     0.237 Goal=   None    Shift=    0.000
 RMSDP=1.38D-03 MaxDP=4.21D-02 DE=-1.66D-01 OVMax= 1.50D-01

 Cycle   3  Pass 0  IDiag  1:
 RMSU=  1.37D-03    CP:  9.82D-01  9.72D-01
 E= -593.971604557470     Delta-E=       -0.171520721821 Rises=F Damp=F
 DIIS: error= 5.07D-03 at cycle   3 NSaved=   3.
 NSaved= 3 IEnMin= 3 EnMin= -593.971604557470     IErMin= 3 ErrMin= 5.07D-03
 ErrMax= 5.07D-03  0.00D+00 EMaxC= 1.00D-01 BMatC= 1.70D-02 BMatP= 3.11D-02
 IDIUse=3 WtCom= 9.49D-01 WtEn= 5.07D-02
 Coeff-Com: -0.583D-01 0.432D+00 0.627D+00
 Coeff-En:   0.000D+00 0.000D+00 0.100D+01
 Coeff:     -0.554D-01 0.410D+00 0.646D+00
 Gap=     0.214 Goal=   None    Shift=    0.000
 RMSDP=7.07D-04 MaxDP=2.73D-02 DE=-1.72D-01 OVMax= 3.35D-02

 Cycle   4  Pass 0  IDiag  1:
 RMSU=  5.03D-04    CP:  9.86D-01  1.06D+00  6.93D-01
 E= -593.984191684731     Delta-E=       -0.012587127261 Rises=F Damp=F
 DIIS: error= 2.16D-03 at cycle   4 NSaved=   4.
 NSaved= 4 IEnMin= 4 EnMin= -593.984191684731     IErMin= 4 ErrMin= 2.16D-03
 ErrMax= 2.16D-03  0.00D+00 EMaxC= 1.00D-01 BMatC= 2.42D-03 BMatP= 1.70D-02
 IDIUse=3 WtCom= 9.78D-01 WtEn= 2.16D-02
 Coeff-Com: -0.188D-01 0.589D-01 0.297D+00 0.663D+00
 Coeff-En:   0.000D+00 0.000D+00 0.810D-01 0.919D+00
 Coeff:     -0.184D-01 0.577D-01 0.292D+00 0.668D+00
 Gap=     0.214 Goal=   None    Shift=    0.000
 RMSDP=2.46D-04 MaxDP=8.04D-03 DE=-1.26D-02 OVMax= 1.11D-02

 Cycle   5  Pass 0  IDiag  1:
 RMSU=  1.38D-04    CP:  9.85D-01  1.05D+00  7.92D-01  7.02D-01
 E= -593.986201583516     Delta-E=       -0.002009898785 Rises=F Damp=F
 DIIS: error= 8.58D-04 at cycle   5 NSaved=   5.
 NSaved= 5 IEnMin= 5 EnMin= -593.986201583516     IErMin= 5 ErrMin= 8.58D-04
 ErrMax= 8.58D-04  0.00D+00 EMaxC= 1.00D-01 BMatC= 1.88D-04 BMatP= 2.42D-03
 IDIUse=3 WtCom= 9.91D-01 WtEn= 8.58D-03
 Coeff-Com: -0.563D-02 0.702D-02 0.108D+00 0.327D+00 0.564D+00
 Coeff-En:   0.000D+00 0.000D+00 0.000D+00 0.000D+00 0.100D+01
 Coeff:     -0.558D-02 0.696D-02 0.107D+00 0.324D+00 0.568D+00
 Gap=     0.215 Goal=   None    Shift=    0.000
 RMSDP=7.19D-05 MaxDP=2.76D-03 DE=-2.01D-03 OVMax= 4.58D-03

 Cycle   6  Pass 0  IDiag  1:
 RMSU=  5.34D-05    CP:  9.85D-01  1.05D+00  7.93D-01  7.56D-01  7.14D-01
 E= -593.986346697098     Delta-E=       -0.000145113582 Rises=F Damp=F
 DIIS: error= 2.90D-04 at cycle   6 NSaved=   6.
 NSaved= 6 IEnMin= 6 EnMin= -593.986346697098     IErMin= 6 ErrMin= 2.90D-04
 ErrMax= 2.90D-04  0.00D+00 EMaxC= 1.00D-01 BMatC= 1.83D-05 BMatP= 1.88D-04
 IDIUse=3 WtCom= 9.97D-01 WtEn= 2.90D-03
 Coeff-Com: -0.541D-03-0.275D-02 0.145D-01 0.687D-01 0.271D+00 0.650D+00
 Coeff-En:   0.000D+00 0.000D+00 0.000D+00 0.000D+00 0.000D+00 0.100D+01
 Coeff:     -0.539D-03-0.274D-02 0.144D-01 0.685D-01 0.270D+00 0.651D+00
 Gap=     0.215 Goal=   None    Shift=    0.000
 RMSDP=2.55D-05 MaxDP=7.46D-04 DE=-1.45D-04 OVMax= 1.78D-03

 Cycle   7  Pass 0  IDiag  1:
 RMSU=  1.97D-05    CP:  9.85D-01  1.05D+00  7.97D-01  7.65D-01  8.02D-01
                    CP:  8.42D-01
 E= -593.986363044715     Delta-E=       -0.000016347617 Rises=F Damp=F
 DIIS: error= 6.41D-05 at cycle   7 NSaved=   7.
 NSaved= 7 IEnMin= 7 EnMin= -593.986363044715     IErMin= 7 ErrMin= 6.41D-05
 ErrMax= 6.41D-05  0.00D+00 EMaxC= 1.00D-01 BMatC= 2.08D-06 BMatP= 1.83D-05
 IDIUse=1 WtCom= 1.00D+00 WtEn= 0.00D+00
 Coeff-Com:  0.560D-03-0.251D-02-0.908D-02-0.149D-01 0.485D-01 0.291D+00
 Coeff-Com:  0.687D+00
 Coeff:      0.560D-03-0.251D-02-0.908D-02-0.149D-01 0.485D-01 0.291D+00
 Coeff:      0.687D+00
 Gap=     0.214 Goal=   None    Shift=    0.000
 RMSDP=1.06D-05 MaxDP=2.31D-04 DE=-1.63D-05 OVMax= 6.22D-04

 Cycle   8  Pass 0  IDiag  1:
 RMSU=  6.70D-06    CP:  9.85D-01  1.05D+00  7.98D-01  7.70D-01  8.35D-01
                    CP:  9.48D-01  9.50D-01
 E= -593.986365612168     Delta-E=       -0.000002567454 Rises=F Damp=F
 DIIS: error= 2.44D-05 at cycle   8 NSaved=   8.
 NSaved= 8 IEnMin= 8 EnMin= -593.986365612168     IErMin= 8 ErrMin= 2.44D-05
 ErrMax= 2.44D-05  0.00D+00 EMaxC= 1.00D-01 BMatC= 2.39D-07 BMatP= 2.08D-06
 IDIUse=1 WtCom= 1.00D+00 WtEn= 0.00D+00
 Coeff-Com:  0.272D-03-0.493D-03-0.648D-02-0.182D-01-0.211D-01 0.246D-01
 Coeff-Com:  0.267D+00 0.754D+00
 Coeff:      0.272D-03-0.493D-03-0.648D-02-0.182D-01-0.211D-01 0.246D-01
 Coeff:      0.267D+00 0.754D+00
 Gap=     0.214 Goal=   None    Shift=    0.000
 RMSDP=4.76D-06 MaxDP=1.11D-04 DE=-2.57D-06 OVMax= 4.77D-04

 Initial convergence to 1.0D-05 achieved.  Increase integral accuracy.
 Cycle   9  Pass 1  IDiag  1:
 E= -593.986385502622     Delta-E=       -0.000019890454 Rises=F Damp=F
 DIIS: error= 2.65D-05 at cycle   1 NSaved=   1.
 NSaved= 1 IEnMin= 1 EnMin= -593.986385502622     IErMin= 1 ErrMin= 2.65D-05
 ErrMax= 2.65D-05  0.00D+00 EMaxC= 1.00D-01 BMatC= 2.33D-07 BMatP= 2.33D-07
 IDIUse=1 WtCom= 1.00D+00 WtEn= 0.00D+00
 Coeff-Com:  0.100D+01
 Coeff:      0.100D+01
 Gap=     0.214 Goal=   None    Shift=    0.000
 RMSDP=4.76D-06 MaxDP=1.11D-04 DE=-1.99D-05 OVMax= 1.84D-04

 Cycle  10  Pass 1  IDiag  1:
 RMSU=  1.24D-05    CP:  1.00D+00
 E= -593.986385669175     Delta-E=       -0.000000166553 Rises=F Damp=F
 DIIS: error= 1.33D-05 at cycle   2 NSaved=   2.
 NSaved= 2 IEnMin= 2 EnMin= -593.986385669175     IErMin= 2 ErrMin= 1.33D-05
 ErrMax= 1.33D-05  0.00D+00 EMaxC= 1.00D-01 BMatC= 9.00D-08 BMatP= 2.33D-07
 IDIUse=1 WtCom= 1.00D+00 WtEn= 0.00D+00
 Coeff-Com:  0.333D+00 0.667D+00
 Coeff:      0.333D+00 0.667D+00
 Gap=     0.214 Goal=   None    Shift=    0.000
 RMSDP=2.00D-06 MaxDP=6.78D-05 DE=-1.67D-07 OVMax= 9.29D-05

 Cycle  11  Pass 1  IDiag  1:
 RMSU=  1.99D-06    CP:  1.00D+00  1.01D+00
 E= -593.986385722457     Delta-E=       -0.000000053282 Rises=F Damp=F
 DIIS: error= 9.35D-06 at cycle   3 NSaved=   3.
 NSaved= 3 IEnMin= 3 EnMin= -593.986385722457     IErMin= 3 ErrMin= 9.35D-06
 ErrMax= 9.35D-06  0.00D+00 EMaxC= 1.00D-01 BMatC= 3.61D-08 BMatP= 9.00D-08
 IDIUse=1 WtCom= 1.00D+00 WtEn= 0.00D+00
 Coeff-Com: -0.313D-01 0.383D+00 0.649D+00
 Coeff:     -0.313D-01 0.383D+00 0.649D+00
 Gap=     0.214 Goal=   None    Shift=    0.000
 RMSDP=8.88D-07 MaxDP=2.70D-05 DE=-5.33D-08 OVMax= 5.32D-05

 Cycle  12  Pass 1  IDiag  1:
 RMSU=  5.28D-07    CP:  1.00D+00  1.04D+00  7.01D-01
 E= -593.986385754169     Delta-E=       -0.000000031712 Rises=F Damp=F
 DIIS: error= 2.21D-06 at cycle   4 NSaved=   4.
 NSaved= 4 IEnMin= 4 EnMin= -593.986385754169     IErMin= 4 ErrMin= 2.21D-06
 ErrMax= 2.21D-06  0.00D+00 EMaxC= 1.00D-01 BMatC= 1.05D-09 BMatP= 3.61D-08
 IDIUse=1 WtCom= 1.00D+00 WtEn= 0.00D+00
 Coeff-Com: -0.232D-01 0.147D+00 0.276D+00 0.601D+00
 Coeff:     -0.232D-01 0.147D+00 0.276D+00 0.601D+00
 Gap=     0.214 Goal=   None    Shift=    0.000
 RMSDP=2.17D-07 MaxDP=7.45D-06 DE=-3.17D-08 OVMax= 1.73D-05

 Cycle  13  Pass 1  IDiag  1:
 RMSU=  2.04D-07    CP:  1.00D+00  1.04D+00  7.32D-01  1.06D+00
 E= -593.986385755316     Delta-E=       -0.000000001147 Rises=F Damp=F
 DIIS: error= 1.10D-06 at cycle   5 NSaved=   5.
 NSaved= 5 IEnMin= 5 EnMin= -593.986385755316     IErMin= 5 ErrMin= 1.10D-06
 ErrMax= 1.10D-06  0.00D+00 EMaxC= 1.00D-01 BMatC= 2.21D-10 BMatP= 1.05D-09
 IDIUse=1 WtCom= 1.00D+00 WtEn= 0.00D+00
 Coeff-Com: -0.649D-03-0.398D-01-0.617D-01 0.270D+00 0.832D+00
 Coeff:     -0.649D-03-0.398D-01-0.617D-01 0.270D+00 0.832D+00
 Gap=     0.214 Goal=   None    Shift=    0.000
 RMSDP=1.39D-07 MaxDP=3.81D-06 DE=-1.15D-09 OVMax= 1.36D-05

 Cycle  14  Pass 1  IDiag  1:
 RMSU=  7.12D-08    CP:  1.00D+00  1.04D+00  7.43D-01  1.28D+00  1.03D+00
 E= -593.986385755688     Delta-E=       -0.000000000372 Rises=F Damp=F
 DIIS: error= 2.26D-07 at cycle   6 NSaved=   6.
 NSaved= 6 IEnMin= 6 EnMin= -593.986385755688     IErMin= 6 ErrMin= 2.26D-07
 ErrMax= 2.26D-07  0.00D+00 EMaxC= 1.00D-01 BMatC= 3.57D-11 BMatP= 2.21D-10
 IDIUse=1 WtCom= 1.00D+00 WtEn= 0.00D+00
 Coeff-Com:  0.323D-02-0.449D-01-0.775D-01 0.410D-01 0.399D+00 0.679D+00
 Coeff:      0.323D-02-0.449D-01-0.775D-01 0.410D-01 0.399D+00 0.679D+00
 Gap=     0.214 Goal=   None    Shift=    0.000
 RMSDP=5.70D-08 MaxDP=1.12D-06 DE=-3.72D-10 OVMax= 5.54D-06

 Cycle  15  Pass 1  IDiag  1:
 RMSU=  2.96D-08    CP:  1.00D+00  1.04D+00  7.49D-01  1.35D+00  1.16D+00
                    CP:  9.60D-01
 E= -593.986385755727     Delta-E=       -0.000000000039 Rises=F Damp=F
 DIIS: error= 8.59D-08 at cycle   7 NSaved=   7.
 NSaved= 7 IEnMin= 7 EnMin= -593.986385755727     IErMin= 7 ErrMin= 8.59D-08
 ErrMax= 8.59D-08  0.00D+00 EMaxC= 1.00D-01 BMatC= 2.89D-12 BMatP= 3.57D-11
 IDIUse=1 WtCom= 1.00D+00 WtEn= 0.00D+00
 Coeff-Com:  0.128D-02-0.123D-01-0.221D-01-0.136D-01 0.610D-01 0.250D+00
 Coeff-Com:  0.736D+00
 Coeff:      0.128D-02-0.123D-01-0.221D-01-0.136D-01 0.610D-01 0.250D+00
 Coeff:      0.736D+00
 Gap=     0.214 Goal=   None    Shift=    0.000
 RMSDP=1.67D-08 MaxDP=4.25D-07 DE=-3.89D-11 OVMax= 1.34D-06

 Cycle  16  Pass 1  IDiag  1:
 RMSU=  1.05D-08    CP:  1.00D+00  1.04D+00  7.51D-01  1.37D+00  1.19D+00
                    CP:  1.05D+00  1.02D+00
 E= -593.986385755720     Delta-E=        0.000000000007 Rises=F Damp=F
 DIIS: error= 4.60D-08 at cycle   8 NSaved=   8.
 NSaved= 8 IEnMin= 7 EnMin= -593.986385755727     IErMin= 8 ErrMin= 4.60D-08
 ErrMax= 4.60D-08  0.00D+00 EMaxC= 1.00D-01 BMatC= 8.34D-13 BMatP= 2.89D-12
 IDIUse=1 WtCom= 1.00D+00 WtEn= 0.00D+00
 Coeff-Com:  0.683D-04 0.179D-02 0.269D-02-0.135D-01-0.386D-01-0.526D-03
 Coeff-Com:  0.380D+00 0.668D+00
 Coeff:      0.683D-04 0.179D-02 0.269D-02-0.135D-01-0.386D-01-0.526D-03
 Coeff:      0.380D+00 0.668D+00
 Gap=     0.214 Goal=   None    Shift=    0.000
 RMSDP=6.80D-09 MaxDP=1.49D-07 DE= 7.05D-12 OVMax= 7.01D-07

 SCF Done:  E(RM052X) =  -593.986385756     A.U. after   16 cycles
            NFock= 16  Conv=0.68D-08     -V/T= 2.0091
 KE= 5.886201079896D+02 PE=-3.028251388190D+03 EE= 1.022561320238D+03
 Leave Link  502 at Thu Oct 12 08:57:39 2023, MaxMem= 13421772800 cpu:             391.0 elap:              16.4
 (Enter /data0/home/software/g16/l601.exe)
 Copying SCF densities to generalized density rwf, IOpCl= 0 IROHF=0.

 **********************************************************************

            Population analysis using the SCF density.

 **********************************************************************

 Orbital symmetries:
       Occupied  (A) (A) (A) (A) (A) (A) (A) (A) (A) (A) (A) (A)
                 (A) (A) (A) (A) (A) (A) (A) (A) (A) (A) (A) (A)
                 (A) (A) (A) (A) (A) (A) (A) (A) (A) (A) (A) (A)
                 (A) (A) (A) (A) (A) (A) (A) (A) (A) (A) (A) (A)
       Virtual   (A) (A) (A) (A) (A) (A) (A) (A) (A) (A) (A) (A)
                 (A) (A) (A) (A) (A) (A) (A) (A) (A) (A) (A) (A)
                 (A) (A) (A) (A) (A) (A) (A) (A) (A) (A) (A) (A)
                 (A) (A) (A) (A) (A) (A) (A) (A) (A) (A) (A) (A)
                 (A) (A) (A) (A) (A) (A) (A) (A) (A) (A) (A) (A)
                 (A) (A) (A) (A) (A) (A) (A) (A) (A) (A) (A) (A)
                 (A) (A) (A) (A) (A) (A) (A) (A) (A) (A) (A) (A)
                 (A) (A) (A) (A) (A) (A) (A) (A) (A) (A) (A) (A)
                 (A) (A) (A) (A) (A) (A) (A) (A) (A) (A) (A) (A)
                 (A) (A) (A) (A) (A) (A) (A) (A) (A) (A) (A) (A)
                 (A) (A) (A) (A) (A) (A) (A) (A) (A) (A) (A) (A)
                 (A) (A) (A) (A) (A) (A) (A) (A) (A) (A) (A) (A)
                 (A) (A) (A) (A) (A) (A) (A) (A) (A) (A) (A) (A)
                 (A) (A) (A) (A) (A) (A) (A) (A) (A) (A) (A) (A)
                 (A) (A) (A) (A) (A)
 The electronic state is 1-A.
 Alpha  occ. eigenvalues --  -19.57235 -19.57089 -14.92640 -10.67157 -10.66354
 Alpha  occ. eigenvalues --  -10.64215 -10.63483 -10.63004 -10.62930 -10.61282
 Alpha  occ. eigenvalues --  -10.58278 -10.58127 -10.53809  -1.16461  -1.09803
 Alpha  occ. eigenvalues --   -0.99571  -0.98596  -0.93669  -0.90311  -0.83957
 Alpha  occ. eigenvalues --   -0.81761  -0.77028  -0.74405  -0.69906  -0.65071
 Alpha  occ. eigenvalues --   -0.62677  -0.59757  -0.57617  -0.55912  -0.54606
 Alpha  occ. eigenvalues --   -0.54113  -0.52298  -0.49939  -0.49816  -0.49048
 Alpha  occ. eigenvalues --   -0.47175  -0.46018  -0.45858  -0.44054  -0.43566
 Alpha  occ. eigenvalues --   -0.43149  -0.39736  -0.39323  -0.36925  -0.34287
 Alpha  occ. eigenvalues --   -0.26599  -0.25477  -0.25343
 Alpha virt. eigenvalues --   -0.03913  -0.00474   0.10473   0.13312   0.14489
 Alpha virt. eigenvalues --    0.15608   0.15965   0.17508   0.17819   0.18565
 Alpha virt. eigenvalues --    0.19786   0.20489   0.21368   0.23284   0.23547
 Alpha virt. eigenvalues --    0.24910   0.25127   0.25793   0.27623   0.28174
 Alpha virt. eigenvalues --    0.31359   0.33654   0.34474   0.35383   0.36127
 Alpha virt. eigenvalues --    0.38588   0.43568   0.45965   0.46369   0.50918
 Alpha virt. eigenvalues --    0.53861   0.55511   0.56548   0.56941   0.58332
 Alpha virt. eigenvalues --    0.59285   0.60724   0.61580   0.62658   0.63497
 Alpha virt. eigenvalues --    0.66109   0.66632   0.67640   0.69657   0.70901
 Alpha virt. eigenvalues --    0.71564   0.72515   0.74086   0.75256   0.77331
 Alpha virt. eigenvalues --    0.79106   0.79652   0.81596   0.83752   0.85682
 Alpha virt. eigenvalues --    0.86577   0.87728   0.88450   0.90445   0.92700
 Alpha virt. eigenvalues --    0.93770   0.95545   0.96357   0.97434   0.98178
 Alpha virt. eigenvalues --    0.99027   1.00341   1.00365   1.01557   1.03565
 Alpha virt. eigenvalues --    1.04940   1.05873   1.06753   1.08398   1.09579
 Alpha virt. eigenvalues --    1.11651   1.14381   1.19198   1.19708   1.21021
 Alpha virt. eigenvalues --    1.21990   1.25415   1.26974   1.27223   1.31163
 Alpha virt. eigenvalues --    1.33741   1.36021   1.38155   1.38913   1.41895
 Alpha virt. eigenvalues --    1.46902   1.47969   1.50657   1.51757   1.54475
 Alpha virt. eigenvalues --    1.55639   1.60082   1.61232   1.65632   1.70268
 Alpha virt. eigenvalues --    1.73901   1.78685   1.80330   1.82847   1.85406
 Alpha virt. eigenvalues --    1.87369   1.90144   1.91626   1.92887   1.93501
 Alpha virt. eigenvalues --    1.95262   1.96960   1.98797   2.00354   2.01671
 Alpha virt. eigenvalues --    2.01969   2.03129   2.05305   2.07553   2.10545
 Alpha virt. eigenvalues --    2.11302   2.13145   2.15086   2.16494   2.18505
 Alpha virt. eigenvalues --    2.19398   2.22177   2.23911   2.26503   2.28827
 Alpha virt. eigenvalues --    2.30174   2.32375   2.34173   2.36176   2.38211
 Alpha virt. eigenvalues --    2.38904   2.42428   2.44732   2.45753   2.48658
 Alpha virt. eigenvalues --    2.55554   2.56827   2.61122   2.64317   2.66343
 Alpha virt. eigenvalues --    2.68888   2.71790   2.76485   2.79327   2.80984
 Alpha virt. eigenvalues --    2.84206   2.84339   2.86040   2.90174   2.93645
 Alpha virt. eigenvalues --    3.07835   3.08727   3.11162   3.25439   3.44056
 Alpha virt. eigenvalues --    4.05261   4.06670   4.11946   4.17340   4.21398
 Alpha virt. eigenvalues --    4.27894   4.29389   4.38282   4.39580   4.49593
 Alpha virt. eigenvalues --    4.55997   4.66972   4.73885
          Condensed to atoms (all electrons):
               1          2          3          4          5          6
     1  C    4.992912   0.481050  -0.028830  -0.049281  -0.050447   0.006085
     2  C    0.481050   4.721338   0.560543  -0.001737  -0.042638  -0.034649
     3  C   -0.028830   0.560543   4.922022   0.475851  -0.032602   0.368029
     4  C   -0.049281  -0.001737   0.475851   4.931026   0.567390  -0.042669
     5  C   -0.050447  -0.042638  -0.032602   0.567390   4.808861   0.004519
     6  H    0.006085  -0.034649   0.368029  -0.042669   0.004519   0.502031
     7  H    0.289172  -0.023479   0.004077  -0.000015   0.002025  -0.000077
     8  H    0.000506   0.003109  -0.028222   0.371812  -0.035495  -0.003920
     9  H    0.003466   0.000218   0.003480  -0.030837   0.378161  -0.000121
    10  C   -0.060297   0.373456  -0.056686   0.006848   0.000312  -0.007406
    11  H    0.004913  -0.034002  -0.005653   0.000256  -0.000016   0.004479
    12  H   -0.003467  -0.027052  -0.000190  -0.000169   0.000042   0.000101
    13  H   -0.005648  -0.026343   0.002363  -0.000173   0.000017   0.000082
    14  N    0.338211   0.007584  -0.049886  -0.009257   0.355951  -0.000058
    15  C   -0.042610   0.005364  -0.000036   0.005138  -0.045731   0.000008
    16  H    0.002517  -0.000180  -0.000028   0.000623  -0.003940  -0.000000
    17  H    0.000696   0.000954  -0.000037  -0.000149   0.002412  -0.000000
    18  C    0.001051  -0.001002   0.000158  -0.000371   0.000161   0.000001
    19  H    0.000311  -0.000042   0.000025  -0.000225   0.004743  -0.000000
    20  H    0.000008   0.000002   0.000000  -0.000006   0.000051   0.000000
    21  C   -0.006797  -0.000121  -0.000009   0.000029   0.000024  -0.000000
    22  H    0.000051   0.000011   0.000000  -0.000001  -0.000030  -0.000000
    23  H    0.000176   0.000000   0.000000  -0.000000   0.000003   0.000000
    24  C   -0.000096  -0.001068  -0.000119  -0.000024  -0.000282   0.000001
    25  O   -0.035230   0.000775  -0.000013   0.000003  -0.000114   0.000000
    26  O    0.046713  -0.010887   0.000302  -0.000466   0.002666   0.000003
               7          8          9         10         11         12
     1  C    0.289172   0.000506   0.003466  -0.060297   0.004913  -0.003467
     2  C   -0.023479   0.003109   0.000218   0.373456  -0.034002  -0.027052
     3  C    0.004077  -0.028222   0.003480  -0.056686  -0.005653  -0.000190
     4  C   -0.000015   0.371812  -0.030837   0.006848   0.000256  -0.000169
     5  C    0.002025  -0.035495   0.378161   0.000312  -0.000016   0.000042
     6  H   -0.000077  -0.003920  -0.000121  -0.007406   0.004479   0.000101
     7  H    0.424246   0.000012  -0.000107  -0.004602   0.000037   0.001310
     8  H    0.000012   0.481676  -0.003004  -0.000135  -0.000002   0.000002
     9  H   -0.000107  -0.003004   0.470948   0.000008  -0.000000  -0.000000
    10  C   -0.004602  -0.000135   0.000008   5.198317   0.373763   0.360168
    11  H    0.000037  -0.000002  -0.000000   0.373763   0.524782  -0.019146
    12  H    0.001310   0.000002  -0.000000   0.360168  -0.019146   0.446401
    13  H    0.001745   0.000002  -0.000000   0.372970  -0.025371  -0.022168
    14  N   -0.039070   0.003396  -0.049473   0.004346  -0.000091  -0.000014
    15  C   -0.001401  -0.000095  -0.003126  -0.000105   0.000002   0.000003
    16  H    0.000281   0.000001   0.002301   0.000003  -0.000000  -0.000000
    17  H    0.003605   0.000003   0.000164   0.000000  -0.000000  -0.000002
    18  C   -0.002108  -0.000004   0.000444   0.000000  -0.000000  -0.000003
    19  H    0.000147   0.000005   0.000965   0.000001  -0.000000  -0.000001
    20  H    0.000013  -0.000000  -0.000045  -0.000000   0.000000   0.000000
    21  C    0.006754   0.000000  -0.000015  -0.000024   0.000000   0.000074
    22  H   -0.000058   0.000000   0.000000   0.000000  -0.000000  -0.000001
    23  H   -0.000085  -0.000000   0.000001   0.000000  -0.000000  -0.000001
    24  C   -0.007586  -0.000000   0.000006   0.000043   0.000004   0.000779
    25  O    0.063944   0.000000  -0.000000   0.000004   0.000001   0.000075
    26  O   -0.025012  -0.000003   0.000028  -0.003451   0.000034   0.008891
              13         14         15         16         17         18
     1  C   -0.005648   0.338211  -0.042610   0.002517   0.000696   0.001051
     2  C   -0.026343   0.007584   0.005364  -0.000180   0.000954  -0.001002
     3  C    0.002363  -0.049886  -0.000036  -0.000028  -0.000037   0.000158
     4  C   -0.000173  -0.009257   0.005138   0.000623  -0.000149  -0.000371
     5  C    0.000017   0.355951  -0.045731  -0.003940   0.002412   0.000161
     6  H    0.000082  -0.000058   0.000008  -0.000000  -0.000000   0.000001
     7  H    0.001745  -0.039070  -0.001401   0.000281   0.003605  -0.002108
     8  H    0.000002   0.003396  -0.000095   0.000001   0.000003  -0.000004
     9  H   -0.000000  -0.049473  -0.003126   0.002301   0.000164   0.000444
    10  C    0.372970   0.004346  -0.000105   0.000003   0.000000   0.000000
    11  H   -0.025371  -0.000091   0.000002  -0.000000  -0.000000  -0.000000
    12  H   -0.022168  -0.000014   0.000003  -0.000000  -0.000002  -0.000003
    13  H    0.503948  -0.000007   0.000002   0.000000  -0.000002   0.000000
    14  N   -0.000007   6.762355   0.247035  -0.041440  -0.037562  -0.052926
    15  C    0.000002   0.247035   5.143348   0.384430   0.380040   0.310462
    16  H    0.000000  -0.041440   0.384430   0.523577  -0.020993  -0.038870
    17  H   -0.000002  -0.037562   0.380040  -0.020993   0.449693  -0.039805
    18  C    0.000000  -0.052926   0.310462  -0.038870  -0.039805   5.161952
    19  H   -0.000000  -0.007228  -0.044409   0.000487   0.003533   0.378744
    20  H   -0.000000   0.003841  -0.041102  -0.006312   0.000085   0.380116
    21  C   -0.000000  -0.000029  -0.036684   0.003833  -0.003471   0.321709
    22  H    0.000000  -0.000146   0.005583  -0.000096   0.000326  -0.030818
    23  H    0.000000   0.000037  -0.004169  -0.000106   0.002863  -0.034018
    24  C   -0.000018  -0.004703  -0.004028   0.000386  -0.003721  -0.032536
    25  O   -0.000012  -0.001806   0.002802   0.000149   0.013094  -0.006662
    26  O   -0.000037  -0.010326  -0.008926  -0.000084  -0.000452   0.015103
              19         20         21         22         23         24
     1  C    0.000311   0.000008  -0.006797   0.000051   0.000176  -0.000096
     2  C   -0.000042   0.000002  -0.000121   0.000011   0.000000  -0.001068
     3  C    0.000025   0.000000  -0.000009   0.000000   0.000000  -0.000119
     4  C   -0.000225  -0.000006   0.000029  -0.000001  -0.000000  -0.000024
     5  C    0.004743   0.000051   0.000024  -0.000030   0.000003  -0.000282
     6  H   -0.000000   0.000000  -0.000000  -0.000000   0.000000   0.000001
     7  H    0.000147   0.000013   0.006754  -0.000058  -0.000085  -0.007586
     8  H    0.000005  -0.000000   0.000000   0.000000  -0.000000  -0.000000
     9  H    0.000965  -0.000045  -0.000015   0.000000   0.000001   0.000006
    10  C    0.000001  -0.000000  -0.000024   0.000000   0.000000   0.000043
    11  H   -0.000000   0.000000   0.000000  -0.000000  -0.000000   0.000004
    12  H   -0.000001   0.000000   0.000074  -0.000001  -0.000001   0.000779
    13  H   -0.000000  -0.000000  -0.000000   0.000000   0.000000  -0.000018
    14  N   -0.007228   0.003841  -0.000029  -0.000146   0.000037  -0.004703
    15  C   -0.044409  -0.041102  -0.036684   0.005583  -0.004169  -0.004028
    16  H    0.000487  -0.006312   0.003833  -0.000096  -0.000106   0.000386
    17  H    0.003533   0.000085  -0.003471   0.000326   0.002863  -0.003721
    18  C    0.378744   0.380116   0.321709  -0.030818  -0.034018  -0.032536
    19  H    0.530813  -0.027433  -0.029982  -0.006485   0.004780  -0.002060
    20  H   -0.027433   0.553846  -0.033991  -0.001420  -0.005207   0.003588
    21  C   -0.029982  -0.033991   5.411244   0.355434   0.345328   0.288676
    22  H   -0.006485  -0.001420   0.355434   0.543119  -0.026321  -0.018779
    23  H    0.004780  -0.005207   0.345328  -0.026321   0.558407  -0.021987
    24  C   -0.002060   0.003588   0.288676  -0.018779  -0.021987   4.414236
    25  O    0.000171  -0.000179  -0.120232   0.003257   0.009007   0.444844
    26  O    0.005161   0.000254  -0.143619   0.003432   0.004621   0.428895
              25         26
     1  C   -0.035230   0.046713
     2  C    0.000775  -0.010887
     3  C   -0.000013   0.000302
     4  C    0.000003  -0.000466
     5  C   -0.000114   0.002666
     6  H    0.000000   0.000003
     7  H    0.063944  -0.025012
     8  H    0.000000  -0.000003
     9  H   -0.000000   0.000028
    10  C    0.000004  -0.003451
    11  H    0.000001   0.000034
    12  H    0.000075   0.008891
    13  H   -0.000012  -0.000037
    14  N   -0.001806  -0.010326
    15  C    0.002802  -0.008926
    16  H    0.000149  -0.000084
    17  H    0.013094  -0.000452
    18  C   -0.006662   0.015103
    19  H    0.000171   0.005161
    20  H   -0.000179   0.000254
    21  C   -0.120232  -0.143619
    22  H    0.003257   0.003432
    23  H    0.009007   0.004621
    24  C    0.444844   0.428895
    25  O    8.322884  -0.096209
    26  O   -0.096209   8.390270
 Mulliken charges:
               1
     1  C    0.114866
     2  C    0.048795
     3  C   -0.134540
     4  C   -0.223595
     5  C    0.083958
     6  H    0.203560
     7  H    0.306231
     8  H    0.210358
     9  H    0.226538
    10  C   -0.557532
    11  H    0.176009
    12  H    0.254367
    13  H    0.198649
    14  N   -0.418733
    15  C   -0.251796
    16  H    0.193462
    17  H    0.248729
    18  C   -0.330776
    19  H    0.187980
    20  H    0.173891
    21  C   -0.358130
    22  H    0.172941
    23  H    0.166670
    24  C    0.515548
    25  O   -0.600551
    26  O   -0.606900
 Sum of Mulliken charges =  -0.00000
 Mulliken charges with hydrogens summed into heavy atoms:
               1
     1  C    0.421097
     2  C    0.048795
     3  C    0.069020
     4  C   -0.013237
     5  C    0.310495
    10  C    0.071493
    14  N   -0.418733
    15  C    0.190396
    18  C    0.031096
    21  C   -0.018518
    24  C    0.515548
    25  O   -0.600551
    26  O   -0.606900
 Electronic spatial extent (au):  <R**2>=           2247.9021
 Charge=             -0.0000 electrons
 Dipole moment (field-independent basis, Debye):
    X=             -6.0382    Y=             -7.0283    Z=             -1.4450  Tot=              9.3779
 Quadrupole moment (field-independent basis, Debye-Ang):
   XX=            -69.1707   YY=            -73.5754   ZZ=            -79.8959
   XY=             -9.5478   XZ=             -1.3675   YZ=             -0.1073
 Traceless Quadrupole moment (field-independent basis, Debye-Ang):
   XX=              5.0433   YY=              0.6386   ZZ=             -5.6819
   XY=             -9.5478   XZ=             -1.3675   YZ=             -0.1073
 Octapole moment (field-independent basis, Debye-Ang**2):
  XXX=            -30.0357  YYY=            -25.3756  ZZZ=             -6.6096  XYY=            -24.1656
  XXY=            -13.4907  XXZ=             19.2722  XZZ=              0.4833  YZZ=             -4.2587
  YYZ=              3.2927  XYZ=             11.6955
 Hexadecapole moment (field-independent basis, Debye-Ang**3):
 XXXX=          -1648.3884 YYYY=           -904.4383 ZZZZ=           -269.9745 XXXY=            -12.7229
 XXXZ=            -29.9170 YYYX=            -14.4643 YYYZ=              6.7636 ZZZX=             -2.9839
 ZZZY=             -4.2865 XXYY=           -442.4067 XXZZ=           -337.5347 YYZZ=           -207.4215
 XXYZ=              6.5419 YYXZ=             -1.0041 ZZXY=             -8.6227
 N-N= 8.230835742071D+02 E-N=-3.028251384393D+03  KE= 5.886201079896D+02
 No NMR shielding tensors so no spin-rotation constants.
 Leave Link  601 at Thu Oct 12 08:57:39 2023, MaxMem= 13421772800 cpu:               2.4 elap:               0.1
 (Enter /data0/home/software/g16/l9999.exe)
 1\1\GINC-LOCALHOST\SP\RM052X\6-31G(d)\C10H13N1O2\WUHANYU\12-Oct-2023\0
 \\#p M052X/6-31G*\\Title Card Required\\0,1\C,0,-0.661565,0.319837,-0.
 61948\C,0,-1.915969,0.722676,-0.151435\C,0,-2.746247,-0.239909,0.38724
 \C,0,-2.326384,-1.573966,0.460066\C,0,-1.084266,-1.908419,-0.003253\H,
 0,-3.720335,0.039693,0.769858\H,0,0.034766,1.016119,-1.076316\H,0,-2.9
 60145,-2.340426,0.883026\H,0,-0.684824,-2.910652,0.039617\C,0,-2.24629
 ,2.182974,-0.182155\H,0,-3.252727,2.371149,0.190912\H,0,-1.52246,2.716
 604,0.438818\H,0,-2.16623,2.586426,-1.193645\N,0,-0.278136,-0.965657,-
 0.552093\C,0,1.106356,-1.357709,-0.933094\H,0,1.025535,-2.34341,-1.389
 5\H,0,1.445846,-0.646838,-1.684367\C,0,2.066187,-1.381993,0.277022\H,0
 ,1.493019,-1.658722,1.164408\H,0,2.789984,-2.181765,0.099948\C,0,2.800
 602,-0.053089,0.524909\H,0,3.208991,-0.053415,1.536667\H,0,3.617754,0.
 064277,-0.18793\C,0,1.795568,1.099697,0.339727\O,0,1.890067,1.768157,-
 0.714303\O,0,0.848661,1.13684,1.173787\\Version=ES64L-G16RevA.03\State
 =1-A\HF=-593.9863858\RMSD=6.798e-09\Dipole=-2.3755954,-2.7651509,-0.56
 85159\Quadrupole=3.7495917,0.4747901,-4.2243817,-7.0985867,-1.016692,-
 0.0797539\PG=C01 [X(C10H13N1O2)]\\@


 FORGIVE MY NONSENSE AS I ALSO FORGIVE THOSE WHO THINK THEY TALK SENSE

                                                       -- ROBERT FROST
 Job cpu time:       0 days  0 hours  6 minutes 58.4 seconds.
 Elapsed time:       0 days  0 hours  0 minutes 17.7 seconds.
 File lengths (MBytes):  RWF=     32 Int=      0 D2E=      0 Chk=      4 Scr=      1
 Normal termination of Gaussian 16 at Thu Oct 12 08:57:39 2023.
