 Entering Gaussian System, Link 0=g16
 Initial command:
 /data0/home/software/g16/l1.exe "/data0/home/software/g16/scratch/Gau-3381589.inp" -scrdir="/data0/home/software/g16/scratch/"
 Default is to use a total of  22 processors:
                               22 via shared-memory
                                1 via Linda
 Entering Link 1 = /data0/home/software/g16/l1.exe PID=   3381590.
  
 Copyright (c) 1988,1990,1992,1993,1995,1998,2003,2009,2016,
            Gaussian, Inc.  All Rights Reserved.
  
 This is part of the Gaussian(R) 16 program.  It is based on
 the Gaussian(R) 09 system (copyright 2009, Gaussian, Inc.),
 the Gaussian(R) 03 system (copyright 2003, Gaussian, Inc.),
 the Gaussian(R) 98 system (copyright 1998, Gaussian, Inc.),
 the Gaussian(R) 94 system (copyright 1995, Gaussian, Inc.),
 the Gaussian 92(TM) system (copyright 1992, Gaussian, Inc.),
 the Gaussian 90(TM) system (copyright 1990, Gaussian, Inc.),
 the Gaussian 88(TM) system (copyright 1988, Gaussian, Inc.),
 the Gaussian 86(TM) system (copyright 1986, Carnegie Mellon
 University), and the Gaussian 82(TM) system (copyright 1983,
 Carnegie Mellon University). Gaussian is a federally registered
 trademark of Gaussian, Inc.
  
 This software contains proprietary and confidential information,
 including trade secrets, belonging to Gaussian, Inc.
  
 This software is provided under written license and may be
 used, copied, transmitted, or stored only in accord with that
 written license.
  
 The following legend is applicable only to US Government
 contracts under FAR:
  
                    RESTRICTED RIGHTS LEGEND
  
 Use, reproduction and disclosure by the US Government is
 subject to restrictions as set forth in subparagraphs (a)
 and (c) of the Commercial Computer Software - Restricted
 Rights clause in FAR 52.227-19.
  
 Gaussian, Inc.
 340 Quinnipiac St., Bldg. 40, Wallingford CT 06492
  
  
 ---------------------------------------------------------------
 Warning -- This program may not be used in any manner that
 competes with the business of Gaussian, Inc. or will provide
 assistance to any competitor of Gaussian, Inc.  The licensee
 of this program is prohibited from giving any competitor of
 Gaussian, Inc. access to this program.  By using this program,
 the user acknowledges that Gaussian, Inc. is engaged in the
 business of creating and licensing software in the field of
 computational chemistry and represents and warrants to the
 licensee that it is not a competitor of Gaussian, Inc. and that
 it will not use this program in any manner prohibited above.
 ---------------------------------------------------------------
  

 Cite this work as:
 Gaussian 16, Revision A.03,
 M. J. Frisch, G. W. Trucks, H. B. Schlegel, G. E. Scuseria, 
 M. A. Robb, J. R. Cheeseman, G. Scalmani, V. Barone, 
 G. A. Petersson, H. Nakatsuji, X. Li, M. Caricato, A. V. Marenich, 
 J. Bloino, B. G. Janesko, R. Gomperts, B. Mennucci, H. P. Hratchian, 
 J. V. Ortiz, A. F. Izmaylov, J. L. Sonnenberg, D. Williams-Young, 
 F. Ding, F. Lipparini, F. Egidi, J. Goings, B. Peng, A. Petrone, 
 T. Henderson, D. Ranasinghe, V. G. Zakrzewski, J. Gao, N. Rega, 
 G. Zheng, W. Liang, M. Hada, M. Ehara, K. Toyota, R. Fukuda, 
 J. Hasegawa, M. Ishida, T. Nakajima, Y. Honda, O. Kitao, H. Nakai, 
 T. Vreven, K. Throssell, J. A. Montgomery, Jr., J. E. Peralta, 
 F. Ogliaro, M. J. Bearpark, J. J. Heyd, E. N. Brothers, K. N. Kudin, 
 V. N. Staroverov, T. A. Keith, R. Kobayashi, J. Normand, 
 K. Raghavachari, A. P. Rendell, J. C. Burant, S. S. Iyengar, 
 J. Tomasi, M. Cossi, J. M. Millam, M. Klene, C. Adamo, R. Cammi, 
 J. W. Ochterski, R. L. Martin, K. Morokuma, O. Farkas, 
 J. B. Foresman, and D. J. Fox, Gaussian, Inc., Wallingford CT, 2016.
 
 ******************************************
 Gaussian 16:  ES64L-G16RevA.03 25-Dec-2016
                15-Dec-2022 
 ******************************************
 %nproc=24
 Will use up to   24 processors via shared memory.
 %mem=10GB
 ---------------------------------------------------
 #p M062X/6-311+G(2d,p) nosymm em=GD3 counterpoise=5
 ---------------------------------------------------
 1/38=1,62=5,172=1/1;
 2/12=2,15=1,17=6,18=5,40=1/2;
 1/38=1,53=2,62=5,63=1/22;
 3/5=4,6=6,7=112,11=2,25=1,30=1,74=-55,124=31/1,2,3;
 4//1;
 5/5=2,38=5/2;
 6/7=2,8=2,9=2,10=2,28=1/1;
 1/53=2,62=5,63=1/22;
 3/5=7,6=11,7=112,11=2,25=1,30=1,74=-55,82=7,124=31/1,2,3;
 4//1;
 5/5=2,38=5/2;
 6/7=2,8=2,9=2,10=2,28=1/1;
 1/53=2,62=5,63=1/22(-4);
 99/5=1,9=1/99;
 Leave Link    1 at Thu Dec 15 17:31:40 2022, MaxMem=  1342177280 cpu:               0.7 elap:               0.0
 (Enter /data0/home/software/g16/l101.exe)
 -------------------
 Title Card Required
 -------------------
 Symbolic Z-matrix:
 Charge =  0 Multiplicity = 1 in supermolecule
 Charge =  0 Multiplicity = 1 in fragment      1.
 Charge =  0 Multiplicity = 1 in fragment      2.
 Charge =  0 Multiplicity = 1 in fragment      3.
 Charge =  0 Multiplicity = 1 in fragment      4.
 Charge =  0 Multiplicity = 1 in fragment      5.
 C                     15.43061   7.96442   16.99095    
 C                     16.77901   8.12686   16.65396    
 C                     17.13382   8.1244    15.30544    
 C                     16.14345   7.96281   14.33982    
 C                     14.81529   7.80536   14.7584    
 N                     14.47078   7.80479   16.05982    
 H                     18.17588   8.24854   15.01144    
 H                     15.09118   7.96097   18.033     
 H                     17.52996   8.25216   17.42812    
 H                     16.38905   7.95805   13.28174    
 H                     13.99145   7.67633   14.03863    
 P                     10.8484   8.33787   15.43479    
 O                     11.47767   8.5783    14.13203    
 O                     10.50664   9.62579   16.30659    
 H                     10.02431   10.3281   15.70886    
 O                     9.48539   7.53755   15.29477    
 H                     9.19087   7.22598   16.24445    
 O                     11.65515   7.47857   16.49746    
 H                     12.68802   7.69925   16.39355    
 O                     9.19864   11.52379   14.59819    
 H                     8.4012    11.12273   14.25462    
 H                     9.82566   11.49486   13.84955    
 O                     11.06753   11.05947   12.59987    
 H                     11.88216   11.5013   12.8393    
 H                     11.1841   10.15302   12.9354    
 O                     8.94114   6.77488   18.0814    
 H                     9.81124   6.37348   18.18708    
 H                     9.0314    7.65037   18.47077    
 
 ITRead=  0  0  0  0  0  0  0  0  0  0  0  0  0  0  0  0  0  0  0  0
 ITRead=  0  0  0  0  0  0  0  0
 MicOpt= -1 -1 -1 -1 -1 -1 -1 -1 -1 -1 -1 -1 -1 -1 -1 -1 -1 -1 -1 -1
 MicOpt= -1 -1 -1 -1 -1 -1 -1 -1
 NAtoms=     28 NQM=       28 NQMF=       0 NMMI=      0 NMMIF=      0
                NMic=       0 NMicF=      0.
                    Isotopes and Nuclear Properties:
 (Nuclear quadrupole moments (NQMom) in fm**2, nuclear magnetic moments (NMagM)
  in nuclear magnetons)

  Atom         1           2           3           4           5           6           7           8           9          10
 IAtWgt=          12          12          12          12          12          14           1           1           1           1
 AtmWgt=  12.0000000  12.0000000  12.0000000  12.0000000  12.0000000  14.0030740   1.0078250   1.0078250   1.0078250   1.0078250
 NucSpn=           0           0           0           0           0           2           1           1           1           1
 AtZEff=  -0.0000000  -0.0000000  -0.0000000  -0.0000000  -0.0000000  -0.0000000  -0.0000000  -0.0000000  -0.0000000  -0.0000000
 NQMom=    0.0000000   0.0000000   0.0000000   0.0000000   0.0000000   2.0440000   0.0000000   0.0000000   0.0000000   0.0000000
 NMagM=    0.0000000   0.0000000   0.0000000   0.0000000   0.0000000   0.4037610   2.7928460   2.7928460   2.7928460   2.7928460
 AtZNuc=   6.0000000   6.0000000   6.0000000   6.0000000   6.0000000   7.0000000   1.0000000   1.0000000   1.0000000   1.0000000

  Atom        11          12          13          14          15          16          17          18          19          20
 IAtWgt=           1          31          16          16           1          16           1          16           1          16
 AtmWgt=   1.0078250  30.9737634  15.9949146  15.9949146   1.0078250  15.9949146   1.0078250  15.9949146   1.0078250  15.9949146
 NucSpn=           1           1           0           0           1           0           1           0           1           0
 AtZEff=  -0.0000000  -0.0000000  -0.0000000  -0.0000000  -0.0000000  -0.0000000  -0.0000000  -0.0000000  -0.0000000  -0.0000000
 NQMom=    0.0000000   0.0000000   0.0000000   0.0000000   0.0000000   0.0000000   0.0000000   0.0000000   0.0000000   0.0000000
 NMagM=    2.7928460   1.1316000   0.0000000   0.0000000   2.7928460   0.0000000   2.7928460   0.0000000   2.7928460   0.0000000
 AtZNuc=   1.0000000  15.0000000   8.0000000   8.0000000   1.0000000   8.0000000   1.0000000   8.0000000   1.0000000   8.0000000

  Atom        21          22          23          24          25          26          27          28
 IAtWgt=           1           1          16           1           1          16           1           1
 AtmWgt=   1.0078250   1.0078250  15.9949146   1.0078250   1.0078250  15.9949146   1.0078250   1.0078250
 NucSpn=           1           1           0           1           1           0           1           1
 AtZEff=  -0.0000000  -0.0000000  -0.0000000  -0.0000000  -0.0000000  -0.0000000  -0.0000000  -0.0000000
 NQMom=    0.0000000   0.0000000   0.0000000   0.0000000   0.0000000   0.0000000   0.0000000   0.0000000
 NMagM=    2.7928460   2.7928460   0.0000000   2.7928460   2.7928460   0.0000000   2.7928460   2.7928460
 AtZNuc=   1.0000000   1.0000000   8.0000000   1.0000000   1.0000000   8.0000000   1.0000000   1.0000000
 Leave Link  101 at Thu Dec 15 17:31:40 2022, MaxMem=  1342177280 cpu:               2.2 elap:               0.1
 (Enter /data0/home/software/g16/l202.exe)
                          Input orientation:                          
 ---------------------------------------------------------------------
 Center     Atomic      Atomic             Coordinates (Angstroms)
 Number     Number       Type             X           Y           Z
 ---------------------------------------------------------------------
      1          6           0       15.430615    7.964424   16.990949
      2          6           0       16.779006    8.126862   16.653965
      3          6           0       17.133819    8.124398   15.305436
      4          6           0       16.143452    7.962807   14.339821
      5          6           0       14.815292    7.805364   14.758403
      6          7           0       14.470778    7.804793   16.059821
      7          1           0       18.175881    8.248543   15.011443
      8          1           0       15.091184    7.960970   18.032999
      9          1           0       17.529963    8.252161   17.428119
     10          1           0       16.389054    7.958052   13.281740
     11          1           0       13.991447    7.676328   14.038632
     12         15           0       10.848398    8.337868   15.434786
     13          8           0       11.477672    8.578297   14.132030
     14          8           0       10.506640    9.625787   16.306594
     15          1           0       10.024307   10.328103   15.708858
     16          8           0        9.485392    7.537552   15.294768
     17          1           0        9.190869    7.225984   16.244452
     18          8           0       11.655152    7.478569   16.497461
     19          1           0       12.688015    7.699250   16.393554
     20          8           0        9.198642   11.523787   14.598193
     21          1           0        8.401203   11.122733   14.254623
     22          1           0        9.825662   11.494856   13.849552
     23          8           0       11.067533   11.059466   12.599865
     24          1           0       11.882155   11.501298   12.839301
     25          1           0       11.184098   10.153024   12.935402
     26          8           0        8.941144    6.774882   18.081404
     27          1           0        9.811238    6.373484   18.187079
     28          1           0        9.031401    7.650369   18.470775
 ---------------------------------------------------------------------
                    Distance matrix (angstroms):
                    1          2          3          4          5
     1  C    0.000000
     2  C    1.399322   0.000000
     3  C    2.401552   1.394428   0.000000
     4  C    2.745290   2.405432   1.392606   0.000000
     5  C    2.321246   2.748216   2.403455   1.401431   0.000000
     6  N    1.346762   2.405130   2.786222   2.404414   1.346246
     7  H    3.396418   2.159617   1.089834   2.159511   3.399117
     8  H    1.095944   2.185863   3.411549   3.840161   3.289880
     9  H    2.163602   1.085795   2.163108   3.397605   3.833595
    10  H    3.831041   3.398891   2.162797   1.086222   2.163463
    11  H    3.297026   3.848822   3.417610   2.191783   1.101563
    12  P    4.853639   6.058303   6.290375   5.420075   4.059224
    13  O    4.916911   5.887962   5.794386   4.710786   3.482740
    14  O    5.241565   6.458329   6.868478   6.197366   4.926999
    15  H    6.038121   7.166913   7.454142   6.701703   5.497373
    16  O    6.197171   7.442547   7.670915   6.739624   5.363510
    17  H    6.327478   7.652392   8.048562   7.246305   5.846209
    18  O    3.838451   5.167074   5.643918   5.003472   3.621823
    19  H    2.819406   4.121513   4.596730   4.028316   2.685198
    20  O    7.565172   8.557290   8.661586   7.808823   6.737885
    21  H    8.177715   9.215187   9.292621   8.362704   7.238734
    22  H    7.331291   8.219313   8.178554   7.254668   6.271744
    23  O    6.920794   7.593209   7.261857   6.195296   5.412408
    24  H    6.506706   7.065241   6.713066   5.738565   5.093739
    25  H    6.266605   7.016840   6.718003   5.600414   4.692591
    26  O    6.687102   8.080688   8.754834   8.202673   6.827140
    27  H    5.961478   7.346738   8.061623   7.577881   6.232709
    28  H    6.575595   7.972028   8.711673   8.230654   6.874527
                    6          7          8          9         10
     6  N    0.000000
     7  H    3.876055   0.000000
     8  H    2.074301   4.327569   0.000000
     9  H    3.380975   2.501509   2.529489   0.000000
    10  H    3.379498   2.503799   4.925336   4.310526   0.000000
    11  H    2.081218   4.333968   4.152759   4.933690   2.529975
    12  P    3.714361   7.340246   4.989388   6.973094   5.956403
    13  O    3.643264   6.763735   5.353141   6.899333   5.022885
    14  O    4.369360   7.898827   5.173986   7.243737   6.821574
    15  H    5.124585   8.441511   6.056252   7.974977   7.212354
    16  O    5.050821   8.724126   6.253167   8.353261   7.203447
    17  H    5.314748   9.126685   6.209092   8.484963   7.818405
    18  O    2.868048   6.732089   3.794325   5.998164   5.742873
    19  H    1.816800   5.685827   2.920873   4.982017   4.842319
    20  O    6.615338   9.564979   7.695038   9.387381   8.133237
    21  H    7.148930  10.216559   8.308352  10.081940   8.646819
    22  H    6.330794   9.034085   7.597059   9.092715   7.477266
    23  O    5.843481   8.015336   7.437028   8.541428   6.196960
    24  H    5.544084   7.410101   7.057357   7.969434   5.749999
    25  H    5.106706   7.538038   6.786451   8.004236   5.659454
    26  O    5.976986   9.842596   6.263556   8.739391   8.939129
    27  H    5.318382   9.141541   5.515585   7.980236   8.357085
    28  H    5.951753   9.795218   6.083510   8.583405   9.008652
                   11         12         13         14         15
    11  H    0.000000
    12  P    3.502233   0.000000
    13  O    2.672328   1.466617   0.000000
    14  O    4.592159   1.592351   2.601705   0.000000
    15  H    5.055667   2.171469   2.767757   1.040760   0.000000
    16  O    4.679922   1.586788   2.530670   2.535245   2.872120
    17  H    5.302264   2.153891   3.394193   2.737548   3.256474
    18  O    3.397532   1.586986   2.614606   2.442551   3.376595
    19  H    2.691676   2.170544   2.711484   2.911615   3.804605
    20  O    6.171469   3.683974   3.753291   2.869128   1.828923
    21  H    6.570783   3.890632   3.994226   3.299136   2.319634
    22  H    5.654261   3.677707   3.363814   3.161361   2.204040
    23  O    4.697334   3.935974   2.944816   4.013711   3.359918
    24  H    4.529669   4.220484   3.221597   4.175129   3.614186
    25  H    3.902864   3.107154   1.999467   3.478773   3.011283
    26  O    6.531628   3.617337   5.028303   3.705184   4.407675
    27  H    6.031680   3.536894   4.907303   3.820639   4.671829
    28  H    6.651813   3.604353   5.066557   3.280592   3.972947
                   16         17         18         19         20
    16  O    0.000000
    17  H    1.041978   0.000000
    18  O    2.481493   2.490081   0.000000
    19  H    3.389730   3.532172   1.061274   0.000000
    20  O    4.056786   4.602319   5.099554   5.479610   0.000000
    21  H    3.887273   4.446082   5.375727   5.888295   0.956448
    22  H    4.226664   4.935765   5.146748   5.391812   0.976962
    23  O    4.708455   5.612528   5.325352   5.320629   2.775187
    24  H    5.242621   6.092322   5.442060   5.266659   3.208652
    25  H    3.910614   4.846683   4.479159   4.499065   2.930171
    26  O    2.939934   1.907943   3.220231   4.212165   5.895012
    27  H    3.134756   2.210297   2.734235   3.640087   6.307218
    28  H    3.210274   2.272014   3.287484   4.205718   5.479802
                   21         22         23         24         25
    21  H    0.000000
    22  H    1.526971   0.000000
    23  O    3.138717   1.814807   0.000000
    24  H    3.776702   2.291247   0.957159   0.000000
    25  H    3.228805   2.116963   0.973555   1.521303   0.000000
    26  O    5.817181   6.400711   7.275057   7.646450   6.551643
    27  H    6.325170   6.711393   7.399572   7.692978   6.614362
    28  H    5.498218   6.063550   7.087691   7.393913   6.444978
                   26         27         28
    26  O    0.000000
    27  H    0.964029   0.000000
    28  H    0.962410   1.522847   0.000000
 Symmetry turned off by external request.
 Stoichiometry    C5H14NO7P
 Framework group  C1[X(C5H14NO7P)]
 Deg. of freedom    78
 Full point group                 C1      NOp   1
 Rotational constants (GHZ):           0.6259053           0.2657812           0.2077778
 Leave Link  202 at Thu Dec 15 17:31:40 2022, MaxMem=  1342177280 cpu:               0.1 elap:               0.0
 (Enter /data0/home/software/g16/l122.exe)
 Counterpoise: doing full-system calculation.
 Leave Link  122 at Thu Dec 15 17:31:40 2022, MaxMem=  1342177280 cpu:               0.0 elap:               0.0
 (Enter /data0/home/software/g16/l301.exe)
 Standard basis: 6-311+G(2d,p) (5D, 7F)
 Ernie: Thresh=  0.10000D-02 Tol=  0.10000D-05 Strict=F.
   470 basis functions,   714 primitive gaussians,   498 cartesian basis functions
    61 alpha electrons       61 beta electrons
       nuclear repulsion energy      1080.4093248706 Hartrees.
 IExCor= 4336 DFT=T Ex+Corr=M062X ExCW=0 ScaHFX=  0.540000
 ScaDFX=  1.000000  1.000000  1.000000  1.000000 ScalE2=  1.000000  1.000000
 IRadAn=      5 IRanWt=     -1 IRanGd=            0 ICorTp=0 IEmpDi=131
 NAtoms=   28 NActive=   28 NUniq=   28 SFac= 1.00D+00 NAtFMM=   60 NAOKFM=F Big=F
 Integral buffers will be    131072 words long.
 Raffenetti 2 integral format.
 Two-electron integral symmetry is turned off.
 R6Disp:  Grimme-D3 Dispersion energy=       -0.0012925391 Hartrees.
 Nuclear repulsion after empirical dispersion term =     1080.4080323315 Hartrees.
 Leave Link  301 at Thu Dec 15 17:31:40 2022, MaxMem=  1342177280 cpu:               1.2 elap:               0.1
 (Enter /data0/home/software/g16/l302.exe)
 NPDir=0 NMtPBC=     1 NCelOv=     1 NCel=       1 NClECP=     1 NCelD=      1
         NCelK=      1 NCelE2=     1 NClLst=     1 CellRange=     0.0.
 One-electron integrals computed using PRISM.
 NBasis=   470 RedAO= T EigKep=  9.09D-06  NBF=   470
 NBsUse=   470 1.00D-06 EigRej= -1.00D+00 NBFU=   470
 Precomputing XC quadrature grid using
 IXCGrd= 4 IRadAn=           5 IRanWt=          -1 IRanGd=           0 AccXCQ= 0.00D+00.
 Generated NRdTot=       0 NPtTot=           0 NUsed=           0 NTot=          32
 NSgBfM=   489   489   489   489   489 MxSgAt=    28 MxSgA2=    28.
 Leave Link  302 at Thu Dec 15 17:31:41 2022, MaxMem=  1342177280 cpu:              10.0 elap:               0.4
 (Enter /data0/home/software/g16/l303.exe)
 DipDrv:  MaxL=1.
 Leave Link  303 at Thu Dec 15 17:31:41 2022, MaxMem=  1342177280 cpu:               0.9 elap:               0.1
 (Enter /data0/home/software/g16/l401.exe)
 ExpMin= 3.48D-02 ExpMax= 7.75D+04 ExpMxC= 2.65D+03 IAcc=3 IRadAn=         5 AccDes= 0.00D+00
 Harris functional with IExCor= 1009 and IRadAn=       5 diagonalized for initial guess.
 HarFok:  IExCor= 1009 AccDes= 0.00D+00 IRadAn=         5 IDoV= 1 UseB2=F ITyADJ=14
 ICtDFT=  3500011 ScaDFX=  1.000000  1.000000  1.000000  1.000000
 FoFCou: FMM=F IPFlag=           0 FMFlag=      100000 FMFlg1=           0
         NFxFlg=           0 DoJE=T BraDBF=F KetDBF=T FulRan=T
         wScrn=  0.000000 ICntrl=       500 IOpCl=  0 I1Cent=   200000004 NGrid=           0
         NMat0=    1 NMatS0=      1 NMatT0=    0 NMatD0=    1 NMtDS0=    0 NMtDT0=    0
 Symmetry not used in FoFCou.
 Harris En= -1121.33391211985    
 JPrj=0 DoOrth=F DoCkMO=F.
 Leave Link  401 at Thu Dec 15 17:31:42 2022, MaxMem=  1342177280 cpu:              31.9 elap:               1.4
 (Enter /data0/home/software/g16/l502.exe)
 Two-electron integral symmetry not used.
 Closed shell SCF:
 Using DIIS extrapolation, IDIIS=  1040.
 NGot=  1342177280 LenX=  1341665790 LenY=  1341417288
 Requested convergence on RMS density matrix=1.00D-08 within 128 cycles.
 Requested convergence on MAX density matrix=1.00D-06.
 Requested convergence on             energy=1.00D-06.
 No special actions if energy rises.
 Fock matrices will be formed incrementally for  20 cycles.

 Cycle   1  Pass 1  IDiag  1:
 FoFJK:  IHMeth= 1 ICntrl=       0 DoSepK=F KAlg= 0 I1Cent=           0 FoldK=F
 IRaf= 780000000 NMat=       1 IRICut=       1 DoRegI=T DoRafI=F ISym2E= 0 IDoP0=0 IntGTp=1.
 FoFCou: FMM=F IPFlag=           0 FMFlag=      100000 FMFlg1=           0
         NFxFlg=           0 DoJE=F BraDBF=F KetDBF=F FulRan=T
         wScrn=  0.000000 ICntrl=         0 IOpCl=  0 I1Cent=           0 NGrid=           0
         NMat0=    1 NMatS0=      1 NMatT0=    0 NMatD0=    1 NMtDS0=    0 NMtDT0=    0
 Symmetry not used in FoFCou.
 E= -1121.19158562406    
 DIIS: error= 3.04D-02 at cycle   1 NSaved=   1.
 NSaved= 1 IEnMin= 1 EnMin= -1121.19158562406     IErMin= 1 ErrMin= 3.04D-02
 ErrMax= 3.04D-02  0.00D+00 EMaxC= 1.00D-01 BMatC= 9.44D-01 BMatP= 9.44D-01
 IDIUse=3 WtCom= 6.96D-01 WtEn= 3.04D-01
 Coeff-Com:  0.100D+01
 Coeff-En:   0.100D+01
 Coeff:      0.100D+01
 Gap=     0.315 Goal=   None    Shift=    0.000
 GapD=    0.315 DampG=1.000 DampE=0.500 DampFc=0.5000 IDamp=-1.
 Damping current iteration by 5.00D-01
 RMSDP=5.39D-03 MaxDP=5.20D-01              OVMax= 1.95D-01

 Cycle   2  Pass 1  IDiag  1:
 RMSU=  2.60D-03    CP:  1.06D+00
 E= -1121.44798151061     Delta-E=       -0.256395886547 Rises=F Damp=T
 DIIS: error= 8.58D-03 at cycle   2 NSaved=   2.
 NSaved= 2 IEnMin= 2 EnMin= -1121.44798151061     IErMin= 2 ErrMin= 8.58D-03
 ErrMax= 8.58D-03  0.00D+00 EMaxC= 1.00D-01 BMatC= 4.80D-02 BMatP= 9.44D-01
 IDIUse=3 WtCom= 9.14D-01 WtEn= 8.58D-02
 Coeff-Com:  0.117D-01 0.988D+00
 Coeff-En:   0.800D-01 0.920D+00
 Coeff:      0.176D-01 0.982D+00
 Gap=     0.373 Goal=   None    Shift=    0.000
 RMSDP=1.60D-03 MaxDP=2.18D-01 DE=-2.56D-01 OVMax= 1.15D-01

 Cycle   3  Pass 1  IDiag  1:
 RMSU=  1.18D-03    CP:  9.98D-01  7.00D-01
 E= -1121.74190312057     Delta-E=       -0.293921609954 Rises=F Damp=F
 DIIS: error= 3.99D-03 at cycle   3 NSaved=   3.
 NSaved= 3 IEnMin= 3 EnMin= -1121.74190312057     IErMin= 3 ErrMin= 3.99D-03
 ErrMax= 3.99D-03  0.00D+00 EMaxC= 1.00D-01 BMatC= 1.14D-02 BMatP= 4.80D-02
 IDIUse=3 WtCom= 9.60D-01 WtEn= 3.99D-02
 Coeff-Com: -0.468D-01 0.273D+00 0.774D+00
 Coeff-En:   0.000D+00 0.000D+00 0.100D+01
 Coeff:     -0.450D-01 0.262D+00 0.783D+00
 Gap=     0.314 Goal=   None    Shift=    0.000
 RMSDP=4.70D-04 MaxDP=5.00D-02 DE=-2.94D-01 OVMax= 2.94D-02

 Cycle   4  Pass 1  IDiag  1:
 RMSU=  4.60D-04    CP:  9.91D-01  7.14D-01  9.67D-01
 E= -1121.74689797154     Delta-E=       -0.004994850974 Rises=F Damp=F
 DIIS: error= 3.04D-03 at cycle   4 NSaved=   4.
 NSaved= 4 IEnMin= 4 EnMin= -1121.74689797154     IErMin= 4 ErrMin= 3.04D-03
 ErrMax= 3.04D-03  0.00D+00 EMaxC= 1.00D-01 BMatC= 4.56D-03 BMatP= 1.14D-02
 IDIUse=3 WtCom= 9.70D-01 WtEn= 3.04D-02
 Coeff-Com: -0.262D-01 0.725D-01 0.439D+00 0.515D+00
 Coeff-En:   0.000D+00 0.000D+00 0.280D+00 0.720D+00
 Coeff:     -0.254D-01 0.703D-01 0.434D+00 0.521D+00
 Gap=     0.314 Goal=   None    Shift=    0.000
 RMSDP=1.74D-04 MaxDP=1.72D-02 DE=-4.99D-03 OVMax= 1.29D-02

 Cycle   5  Pass 1  IDiag  1:
 RMSU=  8.35D-05    CP:  9.93D-01  7.16D-01  9.79D-01  6.75D-01
 E= -1121.75019225868     Delta-E=       -0.003294287140 Rises=F Damp=F
 DIIS: error= 4.03D-04 at cycle   5 NSaved=   5.
 NSaved= 5 IEnMin= 5 EnMin= -1121.75019225868     IErMin= 5 ErrMin= 4.03D-04
 ErrMax= 4.03D-04  0.00D+00 EMaxC= 1.00D-01 BMatC= 1.06D-04 BMatP= 4.56D-03
 IDIUse=3 WtCom= 9.96D-01 WtEn= 4.03D-03
 Coeff-Com: -0.663D-02 0.116D-01 0.122D+00 0.206D+00 0.667D+00
 Coeff-En:   0.000D+00 0.000D+00 0.000D+00 0.000D+00 0.100D+01
 Coeff:     -0.661D-02 0.115D-01 0.122D+00 0.205D+00 0.669D+00
 Gap=     0.314 Goal=   None    Shift=    0.000
 RMSDP=3.39D-05 MaxDP=3.67D-03 DE=-3.29D-03 OVMax= 2.11D-03

 Cycle   6  Pass 1  IDiag  1:
 RMSU=  2.33D-05    CP:  9.92D-01  7.14D-01  9.85D-01  7.05D-01  8.28D-01
 E= -1121.75027140186     Delta-E=       -0.000079143183 Rises=F Damp=F
 DIIS: error= 1.38D-04 at cycle   6 NSaved=   6.
 NSaved= 6 IEnMin= 6 EnMin= -1121.75027140186     IErMin= 6 ErrMin= 1.38D-04
 ErrMax= 1.38D-04  0.00D+00 EMaxC= 1.00D-01 BMatC= 6.30D-06 BMatP= 1.06D-04
 IDIUse=3 WtCom= 9.99D-01 WtEn= 1.38D-03
 Coeff-Com: -0.127D-02 0.102D-02 0.259D-01 0.534D-01 0.263D+00 0.658D+00
 Coeff-En:   0.000D+00 0.000D+00 0.000D+00 0.000D+00 0.000D+00 0.100D+01
 Coeff:     -0.127D-02 0.102D-02 0.259D-01 0.533D-01 0.262D+00 0.659D+00
 Gap=     0.314 Goal=   None    Shift=    0.000
 RMSDP=7.57D-06 MaxDP=4.90D-04 DE=-7.91D-05 OVMax= 6.71D-04

 Cycle   7  Pass 1  IDiag  1:
 RMSU=  7.04D-06    CP:  9.92D-01  7.13D-01  9.84D-01  7.08D-01  8.44D-01
                    CP:  9.62D-01
 E= -1121.75027684805     Delta-E=       -0.000005446189 Rises=F Damp=F
 DIIS: error= 4.88D-05 at cycle   7 NSaved=   7.
 NSaved= 7 IEnMin= 7 EnMin= -1121.75027684805     IErMin= 7 ErrMin= 4.88D-05
 ErrMax= 4.88D-05  0.00D+00 EMaxC= 1.00D-01 BMatC= 5.21D-07 BMatP= 6.30D-06
 IDIUse=1 WtCom= 1.00D+00 WtEn= 0.00D+00
 Coeff-Com:  0.368D-03-0.934D-03-0.618D-02-0.775D-02 0.568D-02 0.197D+00
 Coeff-Com:  0.812D+00
 Coeff:      0.368D-03-0.934D-03-0.618D-02-0.775D-02 0.568D-02 0.197D+00
 Coeff:      0.812D+00
 Gap=     0.314 Goal=   None    Shift=    0.000
 RMSDP=4.63D-06 MaxDP=3.59D-04 DE=-5.45D-06 OVMax= 2.85D-04

 Cycle   8  Pass 1  IDiag  1:
 RMSU=  2.81D-06    CP:  9.92D-01  7.12D-01  9.85D-01  7.12D-01  8.63D-01
                    CP:  1.05D+00  9.95D-01
 E= -1121.75027721740     Delta-E=       -0.000000369351 Rises=F Damp=F
 DIIS: error= 3.64D-05 at cycle   8 NSaved=   8.
 NSaved= 8 IEnMin= 8 EnMin= -1121.75027721740     IErMin= 8 ErrMin= 3.64D-05
 ErrMax= 3.64D-05  0.00D+00 EMaxC= 1.00D-01 BMatC= 2.13D-07 BMatP= 5.21D-07
 IDIUse=1 WtCom= 1.00D+00 WtEn= 0.00D+00
 Coeff-Com:  0.355D-03-0.670D-03-0.667D-02-0.108D-01-0.276D-01 0.287D-01
 Coeff-Com:  0.455D+00 0.562D+00
 Coeff:      0.355D-03-0.670D-03-0.667D-02-0.108D-01-0.276D-01 0.287D-01
 Coeff:      0.455D+00 0.562D+00
 Gap=     0.314 Goal=   None    Shift=    0.000
 RMSDP=1.29D-06 MaxDP=1.18D-04 DE=-3.69D-07 OVMax= 1.62D-04

 Cycle   9  Pass 1  IDiag  1:
 RMSU=  9.07D-07    CP:  9.92D-01  7.12D-01  9.85D-01  7.13D-01  8.62D-01
                    CP:  1.06D+00  1.04D+00  7.72D-01
 E= -1121.75027740565     Delta-E=       -0.000000188250 Rises=F Damp=F
 DIIS: error= 6.14D-06 at cycle   9 NSaved=   9.
 NSaved= 9 IEnMin= 9 EnMin= -1121.75027740565     IErMin= 9 ErrMin= 6.14D-06
 ErrMax= 6.14D-06  0.00D+00 EMaxC= 1.00D-01 BMatC= 6.38D-09 BMatP= 2.13D-07
 IDIUse=1 WtCom= 1.00D+00 WtEn= 0.00D+00
 Coeff-Com:  0.575D-04-0.925D-04-0.133D-02-0.229D-02-0.771D-02-0.604D-02
 Coeff-Com:  0.638D-01 0.166D+00 0.788D+00
 Coeff:      0.575D-04-0.925D-04-0.133D-02-0.229D-02-0.771D-02-0.604D-02
 Coeff:      0.638D-01 0.166D+00 0.788D+00
 Gap=     0.314 Goal=   None    Shift=    0.000
 RMSDP=3.40D-07 MaxDP=1.52D-05 DE=-1.88D-07 OVMax= 2.58D-05

 Cycle  10  Pass 1  IDiag  1:
 RMSU=  2.35D-07    CP:  9.92D-01  7.12D-01  9.85D-01  7.13D-01  8.62D-01
                    CP:  1.06D+00  1.05D+00  8.32D-01  1.07D+00
 E= -1121.75027741143     Delta-E=       -0.000000005781 Rises=F Damp=F
 DIIS: error= 2.47D-06 at cycle  10 NSaved=  10.
 NSaved=10 IEnMin=10 EnMin= -1121.75027741143     IErMin=10 ErrMin= 2.47D-06
 ErrMax= 2.47D-06  0.00D+00 EMaxC= 1.00D-01 BMatC= 1.46D-09 BMatP= 6.38D-09
 IDIUse=1 WtCom= 1.00D+00 WtEn= 0.00D+00
 Coeff-Com: -0.192D-04 0.419D-04 0.216D-03 0.263D-03-0.427D-03-0.722D-02
 Coeff-Com: -0.300D-01 0.370D-02 0.355D+00 0.678D+00
 Coeff:     -0.192D-04 0.419D-04 0.216D-03 0.263D-03-0.427D-03-0.722D-02
 Coeff:     -0.300D-01 0.370D-02 0.355D+00 0.678D+00
 Gap=     0.314 Goal=   None    Shift=    0.000
 RMSDP=1.50D-07 MaxDP=1.17D-05 DE=-5.78D-09 OVMax= 1.32D-05

 Cycle  11  Pass 1  IDiag  1:
 RMSU=  1.01D-07    CP:  9.92D-01  7.12D-01  9.85D-01  7.13D-01  8.61D-01
                    CP:  1.06D+00  1.05D+00  8.44D-01  1.16D+00  8.76D-01
 E= -1121.75027741266     Delta-E=       -0.000000001228 Rises=F Damp=F
 DIIS: error= 6.51D-07 at cycle  11 NSaved=  11.
 NSaved=11 IEnMin=11 EnMin= -1121.75027741266     IErMin=11 ErrMin= 6.51D-07
 ErrMax= 6.51D-07  0.00D+00 EMaxC= 1.00D-01 BMatC= 1.40D-10 BMatP= 1.46D-09
 IDIUse=1 WtCom= 1.00D+00 WtEn= 0.00D+00
 Coeff-Com: -0.123D-04 0.241D-04 0.210D-03 0.316D-03 0.489D-03-0.237D-02
 Coeff-Com: -0.183D-01-0.152D-01 0.547D-01 0.285D+00 0.696D+00
 Coeff:     -0.123D-04 0.241D-04 0.210D-03 0.316D-03 0.489D-03-0.237D-02
 Coeff:     -0.183D-01-0.152D-01 0.547D-01 0.285D+00 0.696D+00
 Gap=     0.314 Goal=   None    Shift=    0.000
 RMSDP=4.86D-08 MaxDP=2.45D-06 DE=-1.23D-09 OVMax= 3.18D-06

 Cycle  12  Pass 1  IDiag  1:
 RMSU=  2.74D-08    CP:  9.92D-01  7.12D-01  9.85D-01  7.13D-01  8.61D-01
                    CP:  1.06D+00  1.05D+00  8.50D-01  1.18D+00  9.58D-01
                    CP:  8.39D-01
 E= -1121.75027741283     Delta-E=       -0.000000000171 Rises=F Damp=F
 DIIS: error= 2.35D-07 at cycle  12 NSaved=  12.
 NSaved=12 IEnMin=12 EnMin= -1121.75027741283     IErMin=12 ErrMin= 2.35D-07
 ErrMax= 2.35D-07  0.00D+00 EMaxC= 1.00D-01 BMatC= 1.01D-11 BMatP= 1.40D-10
 IDIUse=1 WtCom= 1.00D+00 WtEn= 0.00D+00
 Coeff-Com: -0.140D-05 0.266D-05 0.445D-04 0.729D-04 0.188D-03 0.562D-04
 Coeff-Com: -0.255D-02-0.503D-02-0.227D-01 0.298D-01 0.235D+00 0.765D+00
 Coeff:     -0.140D-05 0.266D-05 0.445D-04 0.729D-04 0.188D-03 0.562D-04
 Coeff:     -0.255D-02-0.503D-02-0.227D-01 0.298D-01 0.235D+00 0.765D+00
 Gap=     0.314 Goal=   None    Shift=    0.000
 RMSDP=1.59D-08 MaxDP=1.88D-06 DE=-1.71D-10 OVMax= 1.55D-06

 Cycle  13  Pass 1  IDiag  1:
 RMSU=  9.06D-09    CP:  9.92D-01  7.12D-01  9.85D-01  7.13D-01  8.61D-01
                    CP:  1.06D+00  1.05D+00  8.50D-01  1.19D+00  9.77D-01
                    CP:  9.17D-01  9.22D-01
 E= -1121.75027741282     Delta-E=        0.000000000015 Rises=F Damp=F
 DIIS: error= 1.26D-07 at cycle  13 NSaved=  13.
 NSaved=13 IEnMin=12 EnMin= -1121.75027741283     IErMin=13 ErrMin= 1.26D-07
 ErrMax= 1.26D-07  0.00D+00 EMaxC= 1.00D-01 BMatC= 1.53D-12 BMatP= 1.01D-11
 IDIUse=1 WtCom= 1.00D+00 WtEn= 0.00D+00
 Coeff-Com:  0.792D-06-0.150D-05-0.327D-05-0.318D-05 0.178D-04 0.265D-03
 Coeff-Com:  0.844D-03-0.255D-03-0.152D-01-0.166D-01 0.216D-01 0.328D+00
 Coeff-Com:  0.681D+00
 Coeff:      0.792D-06-0.150D-05-0.327D-05-0.318D-05 0.178D-04 0.265D-03
 Coeff:      0.844D-03-0.255D-03-0.152D-01-0.166D-01 0.216D-01 0.328D+00
 Coeff:      0.681D+00
 Gap=     0.314 Goal=   None    Shift=    0.000
 RMSDP=4.56D-09 MaxDP=4.22D-07 DE= 1.46D-11 OVMax= 6.40D-07

 SCF Done:  E(RM062X) =  -1121.75027741     A.U. after   13 cycles
            NFock= 13  Conv=0.46D-08     -V/T= 2.0031
 KE= 1.118257294298D+03 PE=-4.807941204481D+03 EE= 1.487525600439D+03
 Leave Link  502 at Thu Dec 15 17:32:37 2022, MaxMem=  1342177280 cpu:            1300.1 elap:              54.4
 (Enter /data0/home/software/g16/l601.exe)
 Copying SCF densities to generalized density rwf, IOpCl= 0 IROHF=0.

 **********************************************************************

            Population analysis using the SCF density.

 **********************************************************************

 Alpha  occ. eigenvalues --  -78.14283 -19.65052 -19.63707 -19.63657 -19.63542
 Alpha  occ. eigenvalues --  -19.62495 -19.62491 -19.58290 -14.78672 -10.60880
 Alpha  occ. eigenvalues --  -10.60437 -10.58658 -10.57737 -10.57545  -6.95001
 Alpha  occ. eigenvalues --   -5.06911  -5.06867  -5.06756  -1.20551  -1.16008
 Alpha  occ. eigenvalues --   -1.14390  -1.13098  -1.12397  -1.12190  -1.08420
 Alpha  occ. eigenvalues --   -1.07898  -0.92925  -0.88404  -0.74166  -0.73585
 Alpha  occ. eigenvalues --   -0.69179  -0.63290  -0.63128  -0.62254  -0.61452
 Alpha  occ. eigenvalues --   -0.60686  -0.59513  -0.57558  -0.56502  -0.53882
 Alpha  occ. eigenvalues --   -0.52288  -0.51983  -0.50353  -0.50072  -0.49794
 Alpha  occ. eigenvalues --   -0.49666  -0.47794  -0.47155  -0.46381  -0.45039
 Alpha  occ. eigenvalues --   -0.43881  -0.43129  -0.42138  -0.40804  -0.40165
 Alpha  occ. eigenvalues --   -0.39419  -0.38021  -0.37216  -0.36957  -0.36183
 Alpha  occ. eigenvalues --   -0.34050
 Alpha virt. eigenvalues --   -0.02677  -0.01172  -0.00205   0.00722   0.01541
 Alpha virt. eigenvalues --    0.02526   0.02770   0.03736   0.04702   0.05092
 Alpha virt. eigenvalues --    0.05806   0.06701   0.07449   0.08086   0.09031
 Alpha virt. eigenvalues --    0.09465   0.10289   0.11486   0.11912   0.12133
 Alpha virt. eigenvalues --    0.12661   0.13011   0.13650   0.13879   0.14532
 Alpha virt. eigenvalues --    0.15312   0.15414   0.15621   0.16013   0.16672
 Alpha virt. eigenvalues --    0.17255   0.17485   0.18242   0.18428   0.18997
 Alpha virt. eigenvalues --    0.19098   0.19634   0.19809   0.20122   0.20487
 Alpha virt. eigenvalues --    0.21020   0.21166   0.21230   0.21905   0.22478
 Alpha virt. eigenvalues --    0.22643   0.23199   0.23610   0.24056   0.24299
 Alpha virt. eigenvalues --    0.24377   0.25090   0.25726   0.26659   0.27739
 Alpha virt. eigenvalues --    0.28006   0.28210   0.28829   0.29283   0.29653
 Alpha virt. eigenvalues --    0.30211   0.30848   0.31307   0.32232   0.32546
 Alpha virt. eigenvalues --    0.32828   0.32973   0.33930   0.34048   0.34709
 Alpha virt. eigenvalues --    0.35076   0.35481   0.36771   0.38207   0.39426
 Alpha virt. eigenvalues --    0.40452   0.41921   0.42582   0.44039   0.44776
 Alpha virt. eigenvalues --    0.45591   0.46419   0.48088   0.49124   0.49684
 Alpha virt. eigenvalues --    0.51060   0.51424   0.51783   0.52754   0.53872
 Alpha virt. eigenvalues --    0.54306   0.54473   0.55118   0.55738   0.57248
 Alpha virt. eigenvalues --    0.57589   0.58511   0.59125   0.60921   0.61159
 Alpha virt. eigenvalues --    0.62331   0.63902   0.64177   0.64919   0.65613
 Alpha virt. eigenvalues --    0.66355   0.66500   0.67968   0.68612   0.69361
 Alpha virt. eigenvalues --    0.70422   0.71691   0.72832   0.74352   0.75896
 Alpha virt. eigenvalues --    0.78158   0.78862   0.79272   0.80723   0.82199
 Alpha virt. eigenvalues --    0.82288   0.82373   0.83071   0.83790   0.85156
 Alpha virt. eigenvalues --    0.86392   0.88379   0.89217   0.89258   0.91134
 Alpha virt. eigenvalues --    0.92559   0.93415   0.94560   0.97787   0.99831
 Alpha virt. eigenvalues --    1.01486   1.02545   1.03702   1.04402   1.04702
 Alpha virt. eigenvalues --    1.06184   1.06780   1.08605   1.10006   1.11644
 Alpha virt. eigenvalues --    1.11814   1.13324   1.13676   1.14572   1.14939
 Alpha virt. eigenvalues --    1.16902   1.18004   1.18048   1.18666   1.19516
 Alpha virt. eigenvalues --    1.19946   1.20828   1.20957   1.22345   1.22856
 Alpha virt. eigenvalues --    1.23589   1.25207   1.26557   1.27004   1.27865
 Alpha virt. eigenvalues --    1.29189   1.30129   1.30757   1.31383   1.32107
 Alpha virt. eigenvalues --    1.33251   1.33839   1.34230   1.35021   1.35827
 Alpha virt. eigenvalues --    1.36361   1.37137   1.37631   1.38729   1.39603
 Alpha virt. eigenvalues --    1.42270   1.42992   1.43895   1.45127   1.47001
 Alpha virt. eigenvalues --    1.47589   1.48391   1.48989   1.49434   1.51095
 Alpha virt. eigenvalues --    1.51754   1.52875   1.53982   1.55007   1.56795
 Alpha virt. eigenvalues --    1.61225   1.62087   1.62620   1.63310   1.66138
 Alpha virt. eigenvalues --    1.66834   1.67926   1.69080   1.69287   1.71129
 Alpha virt. eigenvalues --    1.72401   1.73486   1.74561   1.75251   1.75856
 Alpha virt. eigenvalues --    1.77129   1.78694   1.80137   1.81469   1.82321
 Alpha virt. eigenvalues --    1.83035   1.87114   1.87807   1.89074   1.90316
 Alpha virt. eigenvalues --    1.92203   1.94472   1.96936   1.98135   2.00339
 Alpha virt. eigenvalues --    2.00742   2.01523   2.02340   2.03643   2.04087
 Alpha virt. eigenvalues --    2.08377   2.09974   2.10354   2.12001   2.14230
 Alpha virt. eigenvalues --    2.15885   2.16551   2.18489   2.18964   2.21768
 Alpha virt. eigenvalues --    2.23056   2.25738   2.26129   2.28022   2.31209
 Alpha virt. eigenvalues --    2.34388   2.36703   2.38776   2.40001   2.40514
 Alpha virt. eigenvalues --    2.43255   2.44852   2.47155   2.47509   2.52712
 Alpha virt. eigenvalues --    2.53512   2.54614   2.56019   2.56957   2.59110
 Alpha virt. eigenvalues --    2.61783   2.62839   2.63581   2.66330   2.66672
 Alpha virt. eigenvalues --    2.67138   2.68717   2.72097   2.74180   2.75131
 Alpha virt. eigenvalues --    2.75376   2.75639   2.81489   2.82507   2.83218
 Alpha virt. eigenvalues --    2.85897   2.86343   2.86742   2.88521   2.90346
 Alpha virt. eigenvalues --    2.92619   2.95424   2.97839   2.98506   2.99630
 Alpha virt. eigenvalues --    3.01635   3.03644   3.06159   3.06886   3.07980
 Alpha virt. eigenvalues --    3.10868   3.11551   3.12744   3.13259   3.14021
 Alpha virt. eigenvalues --    3.21264   3.22201   3.27103   3.27893   3.28362
 Alpha virt. eigenvalues --    3.31220   3.35436   3.40674   3.43976   3.45647
 Alpha virt. eigenvalues --    3.54047   3.54303   3.54931   3.55906   3.56750
 Alpha virt. eigenvalues --    3.57746   3.63685   3.67508   3.71478   3.72794
 Alpha virt. eigenvalues --    3.74946   3.79469   3.82910   3.86146   3.91240
 Alpha virt. eigenvalues --    3.94455   3.94973   3.98314   4.01980   4.47214
 Alpha virt. eigenvalues --    4.49146   4.54031   4.80600   4.94242   4.97157
 Alpha virt. eigenvalues --    5.01699   5.10693   5.12275   5.12898   5.13377
 Alpha virt. eigenvalues --    5.14653   5.15120   5.16058   5.17231   5.20604
 Alpha virt. eigenvalues --    5.21741   5.22350   5.28444   5.32766   5.39751
 Alpha virt. eigenvalues --    5.49873   5.50635   5.54597   5.55171   5.58837
 Alpha virt. eigenvalues --    5.61775   5.64980   5.82862   5.92920   5.95268
 Alpha virt. eigenvalues --    5.96432   6.76302   6.78040   6.78388   6.78957
 Alpha virt. eigenvalues --    6.79088   6.80049   6.80322   6.80701   6.81806
 Alpha virt. eigenvalues --    6.83164   6.83873   6.84335   6.86968   6.89047
 Alpha virt. eigenvalues --    6.89285   6.90921   6.91860   6.92441   6.94989
 Alpha virt. eigenvalues --    6.95614   6.99123   7.00220   7.01481   7.03474
 Alpha virt. eigenvalues --    7.07597   7.07802   7.12250   7.13222   7.17214
 Alpha virt. eigenvalues --    7.19636   7.26358   7.30506   7.34523   7.40829
 Alpha virt. eigenvalues --    7.43724   7.70241  14.27863  14.28962  14.39805
 Alpha virt. eigenvalues --   23.82062  24.03562  24.04600  24.08269  24.11943
 Alpha virt. eigenvalues --   35.71954  49.98232  50.00344  50.03521  50.07596
 Alpha virt. eigenvalues --   50.07953  50.08741  50.12321 163.94368
          Condensed to atoms (all electrons):
               1          2          3          4          5          6
     1  C    6.240653  -0.316367   0.206002  -0.142162  -0.413913   0.144311
     2  C   -0.316367   5.435814   0.327945   0.215062  -0.096620   0.110903
     3  C    0.206002   0.327945   5.061511   0.167719   0.225745  -0.118301
     4  C   -0.142162   0.215062   0.167719   6.753301  -1.431293   0.102754
     5  C   -0.413913  -0.096620   0.225745  -1.431293   7.210768   0.285277
     6  N    0.144311   0.110903  -0.118301   0.102754   0.285277   6.780249
     7  H   -0.000609  -0.014388   0.372496  -0.008894  -0.003429   0.000452
     8  H    0.433574  -0.052514   0.016823  -0.008033   0.011742  -0.060224
     9  H   -0.020935   0.376021  -0.022726   0.006502  -0.002072   0.008033
    10  H   -0.000954   0.004900  -0.026226   0.366353  -0.006305   0.006825
    11  H    0.012408  -0.007966   0.009914  -0.047697   0.424901  -0.052958
    12  P   -0.005856   0.002846  -0.004207  -0.016876   0.013191  -0.012434
    13  O    0.003292   0.001596  -0.004248   0.001488   0.005387   0.002841
    14  O    0.007708  -0.001981   0.000249   0.003458  -0.013277  -0.000464
    15  H   -0.000674   0.000188  -0.000019  -0.000404   0.000249  -0.000591
    16  O   -0.000055   0.000201  -0.000006  -0.002085  -0.001363  -0.002120
    17  H   -0.000350  -0.000003   0.000000  -0.000161   0.000411   0.000200
    18  O   -0.007946  -0.015281   0.004613  -0.037321   0.041346   0.015794
    19  H   -0.024005   0.034532  -0.007735   0.023042  -0.038298   0.045774
    20  O    0.000286  -0.000031  -0.000009  -0.000070   0.000014   0.000240
    21  H   -0.000007   0.000003  -0.000001   0.000016  -0.000018  -0.000009
    22  H   -0.000085   0.000025   0.000003  -0.000043  -0.000217   0.000001
    23  O    0.000269  -0.000061  -0.000412   0.000986   0.000783  -0.000433
    24  H   -0.000009  -0.000077   0.000213  -0.001043   0.001182  -0.000021
    25  H   -0.000218   0.000036   0.000176  -0.000448   0.000191   0.000244
    26  O    0.000405   0.000177  -0.000065   0.000546   0.000365  -0.000770
    27  H   -0.000085  -0.000057   0.000008  -0.000041  -0.000125   0.000221
    28  H   -0.000073  -0.000036   0.000005  -0.000042  -0.000101   0.000139
               7          8          9         10         11         12
     1  C   -0.000609   0.433574  -0.020935  -0.000954   0.012408  -0.005856
     2  C   -0.014388  -0.052514   0.376021   0.004900  -0.007966   0.002846
     3  C    0.372496   0.016823  -0.022726  -0.026226   0.009914  -0.004207
     4  C   -0.008894  -0.008033   0.006502   0.366353  -0.047697  -0.016876
     5  C   -0.003429   0.011742  -0.002072  -0.006305   0.424901   0.013191
     6  N    0.000452  -0.060224   0.008033   0.006825  -0.052958  -0.012434
     7  H    0.523615  -0.000263  -0.004500  -0.004655  -0.000229   0.000010
     8  H   -0.000263   0.521797  -0.002703   0.000082  -0.000111   0.000116
     9  H   -0.004500  -0.002703   0.522855  -0.000185   0.000074  -0.000010
    10  H   -0.004655   0.000082  -0.000185   0.520018  -0.002095   0.000055
    11  H   -0.000229  -0.000111   0.000074  -0.002095   0.473332   0.000716
    12  P    0.000010   0.000116  -0.000010   0.000055   0.000716  12.663486
    13  O    0.000000   0.000039  -0.000001   0.000048  -0.003009   0.449431
    14  O    0.000000  -0.000004   0.000000   0.000001  -0.000094   0.306340
    15  H    0.000000  -0.000003  -0.000000  -0.000000   0.000010   0.002730
    16  O   -0.000000   0.000010   0.000000   0.000000  -0.000065   0.232736
    17  H   -0.000000  -0.000001   0.000000   0.000000   0.000022   0.006400
    18  O   -0.000010   0.001362   0.000052   0.000071   0.003276   0.165910
    19  H    0.000018  -0.001364  -0.000056  -0.000065  -0.001315   0.021353
    20  O   -0.000000  -0.000000   0.000000   0.000000  -0.000016   0.027741
    21  H    0.000000  -0.000000  -0.000000  -0.000000   0.000001   0.000275
    22  H    0.000000  -0.000000  -0.000000  -0.000000   0.000007   0.004911
    23  O    0.000000  -0.000000  -0.000000   0.000003  -0.000186  -0.015052
    24  H   -0.000000   0.000000   0.000000   0.000001  -0.000084   0.001863
    25  H   -0.000000  -0.000000   0.000000  -0.000001   0.000090   0.009279
    26  O    0.000000   0.000003  -0.000000  -0.000000   0.000002   0.045476
    27  H   -0.000000  -0.000001   0.000000   0.000000   0.000000  -0.002341
    28  H   -0.000000   0.000000   0.000000   0.000000  -0.000000   0.001648
              13         14         15         16         17         18
     1  C    0.003292   0.007708  -0.000674  -0.000055  -0.000350  -0.007946
     2  C    0.001596  -0.001981   0.000188   0.000201  -0.000003  -0.015281
     3  C   -0.004248   0.000249  -0.000019  -0.000006   0.000000   0.004613
     4  C    0.001488   0.003458  -0.000404  -0.002085  -0.000161  -0.037321
     5  C    0.005387  -0.013277   0.000249  -0.001363   0.000411   0.041346
     6  N    0.002841  -0.000464  -0.000591  -0.002120   0.000200   0.015794
     7  H    0.000000   0.000000   0.000000  -0.000000  -0.000000  -0.000010
     8  H    0.000039  -0.000004  -0.000003   0.000010  -0.000001   0.001362
     9  H   -0.000001   0.000000  -0.000000   0.000000   0.000000   0.000052
    10  H    0.000048   0.000001  -0.000000   0.000000   0.000000   0.000071
    11  H   -0.003009  -0.000094   0.000010  -0.000065   0.000022   0.003276
    12  P    0.449431   0.306340   0.002730   0.232736   0.006400   0.165910
    13  O    8.329888  -0.076783  -0.009385  -0.012910   0.005412  -0.088905
    14  O   -0.076783   8.100020   0.240985   0.007660  -0.017987   0.014164
    15  H   -0.009385   0.240985   0.359245   0.002349  -0.002025   0.001884
    16  O   -0.012910   0.007660   0.002349   8.100280   0.242521   0.002475
    17  H    0.005412  -0.017987  -0.002025   0.242521   0.368593  -0.011732
    18  O   -0.088905   0.014164   0.001884   0.002475  -0.011732   8.395717
    19  H    0.008031   0.003323   0.000924   0.003939  -0.001779   0.171564
    20  O   -0.005416   0.024512  -0.038704  -0.009846  -0.000627   0.002117
    21  H   -0.001992  -0.004576   0.004551   0.000290   0.000083   0.000111
    22  H   -0.004111  -0.007517   0.010588   0.000239   0.000075   0.000423
    23  O    0.008515   0.000295   0.003055  -0.001785  -0.000121  -0.002066
    24  H   -0.003114  -0.000096  -0.000328   0.000134   0.000008   0.000199
    25  H    0.043184  -0.001708  -0.000803  -0.000843   0.000142   0.002702
    26  O    0.003236  -0.000828  -0.000265  -0.017676   0.025379   0.002739
    27  H    0.000108  -0.000658  -0.000026  -0.005207   0.001759   0.003256
    28  H    0.000152   0.000770  -0.000222  -0.005772  -0.000460  -0.001738
              19         20         21         22         23         24
     1  C   -0.024005   0.000286  -0.000007  -0.000085   0.000269  -0.000009
     2  C    0.034532  -0.000031   0.000003   0.000025  -0.000061  -0.000077
     3  C   -0.007735  -0.000009  -0.000001   0.000003  -0.000412   0.000213
     4  C    0.023042  -0.000070   0.000016  -0.000043   0.000986  -0.001043
     5  C   -0.038298   0.000014  -0.000018  -0.000217   0.000783   0.001182
     6  N    0.045774   0.000240  -0.000009   0.000001  -0.000433  -0.000021
     7  H    0.000018  -0.000000   0.000000   0.000000   0.000000  -0.000000
     8  H   -0.001364  -0.000000  -0.000000  -0.000000  -0.000000   0.000000
     9  H   -0.000056   0.000000  -0.000000  -0.000000  -0.000000   0.000000
    10  H   -0.000065   0.000000  -0.000000  -0.000000   0.000003   0.000001
    11  H   -0.001315  -0.000016   0.000001   0.000007  -0.000186  -0.000084
    12  P    0.021353   0.027741   0.000275   0.004911  -0.015052   0.001863
    13  O    0.008031  -0.005416  -0.001992  -0.004111   0.008515  -0.003114
    14  O    0.003323   0.024512  -0.004576  -0.007517   0.000295  -0.000096
    15  H    0.000924  -0.038704   0.004551   0.010588   0.003055  -0.000328
    16  O    0.003939  -0.009846   0.000290   0.000239  -0.001785   0.000134
    17  H   -0.001779  -0.000627   0.000083   0.000075  -0.000121   0.000008
    18  O    0.171564   0.002117   0.000111   0.000423  -0.002066   0.000199
    19  H    0.307237   0.000073   0.000005  -0.000036   0.000502  -0.000063
    20  O    0.000073   8.062005   0.313601   0.288787   0.000990  -0.003975
    21  H    0.000005   0.313601   0.415057  -0.011004   0.000895   0.000713
    22  H   -0.000036   0.288787  -0.011004   0.335447  -0.025412   0.006407
    23  O    0.000502   0.000990   0.000895  -0.025412   8.098908   0.306537
    24  H   -0.000063  -0.003975   0.000713   0.006407   0.306537   0.423843
    25  H   -0.000319  -0.005848   0.000345   0.010165   0.263926  -0.014472
    26  O    0.005373   0.000300  -0.000045  -0.000016   0.000001  -0.000000
    27  H   -0.000782  -0.000011   0.000001  -0.000000   0.000000  -0.000000
    28  H   -0.000394  -0.000061   0.000002   0.000004  -0.000002   0.000000
              25         26         27         28
     1  C   -0.000218   0.000405  -0.000085  -0.000073
     2  C    0.000036   0.000177  -0.000057  -0.000036
     3  C    0.000176  -0.000065   0.000008   0.000005
     4  C   -0.000448   0.000546  -0.000041  -0.000042
     5  C    0.000191   0.000365  -0.000125  -0.000101
     6  N    0.000244  -0.000770   0.000221   0.000139
     7  H   -0.000000   0.000000  -0.000000  -0.000000
     8  H   -0.000000   0.000003  -0.000001   0.000000
     9  H    0.000000  -0.000000   0.000000   0.000000
    10  H   -0.000001  -0.000000   0.000000   0.000000
    11  H    0.000090   0.000002   0.000000  -0.000000
    12  P    0.009279   0.045476  -0.002341   0.001648
    13  O    0.043184   0.003236   0.000108   0.000152
    14  O   -0.001708  -0.000828  -0.000658   0.000770
    15  H   -0.000803  -0.000265  -0.000026  -0.000222
    16  O   -0.000843  -0.017676  -0.005207  -0.005772
    17  H    0.000142   0.025379   0.001759  -0.000460
    18  O    0.002702   0.002739   0.003256  -0.001738
    19  H   -0.000319   0.005373  -0.000782  -0.000394
    20  O   -0.005848   0.000300  -0.000011  -0.000061
    21  H    0.000345  -0.000045   0.000001   0.000002
    22  H    0.010165  -0.000016  -0.000000   0.000004
    23  O    0.263926   0.000001   0.000000  -0.000002
    24  H   -0.014472  -0.000000  -0.000000   0.000000
    25  H    0.339976   0.000002  -0.000000   0.000001
    26  O    0.000002   7.757861   0.364868   0.368472
    27  H   -0.000000   0.364868   0.361839  -0.031153
    28  H    0.000001   0.368472  -0.031153   0.371468
 Mulliken charges:
               1
     1  C   -0.114607
     2  C   -0.004865
     3  C   -0.209467
     4  C    0.055387
     5  C   -0.214520
     6  N   -0.255933
     7  H    0.140386
     8  H    0.139673
     9  H    0.139651
    10  H    0.142127
    11  H    0.191074
    12  P    1.100263
    13  O   -0.652776
    14  O   -0.583514
    15  H    0.426690
    16  O   -0.533100
    17  H    0.384243
    18  O   -0.664773
    19  H    0.450519
    20  O   -0.656052
    21  H    0.281701
    22  H    0.391361
    23  O   -0.640135
    24  H    0.282185
    25  H    0.354203
    26  O   -0.555540
    27  H    0.308428
    28  H    0.297393
 Sum of Mulliken charges =  -0.00000
 Mulliken charges with hydrogens summed into heavy atoms:
               1
     1  C    0.025066
     2  C    0.134786
     3  C   -0.069081
     4  C    0.197514
     5  C   -0.023446
     6  N   -0.255933
    12  P    1.100263
    13  O   -0.652776
    14  O   -0.156824
    16  O   -0.148857
    18  O   -0.214254
    20  O    0.017009
    23  O   -0.003748
    26  O    0.050281
         Mulliken charges condensed to fragments:
      1      0.008905
      2     -0.072448
      3      0.017009
      4     -0.003748
      5      0.050281
 Electronic spatial extent (au):  <R**2>=         207037.1307
 Charge=              0.0000 electrons
 Dipole moment (field-independent basis, Debye):
    X=              5.9642    Y=             -0.0559    Z=              2.2889  Tot=              6.3886
 Quadrupole moment (field-independent basis, Debye-Ang):
   XX=             75.9128   YY=            -99.9354   ZZ=            -15.8942
   XY=             48.6890   XZ=            117.7222   YZ=             16.5783
 Traceless Quadrupole moment (field-independent basis, Debye-Ang):
   XX=             89.2184   YY=            -86.6298   ZZ=             -2.5886
   XY=             48.6890   XZ=            117.7222   YZ=             16.5783
 Octapole moment (field-independent basis, Debye-Ang**2):
  XXX=            152.7608  YYY=          -2552.5124  ZZZ=          -2337.5857  XYY=           -817.7580
  XXY=            623.0236  XXZ=           1445.0118  XZZ=           1157.3532  YZZ=           -224.7474
  YYZ=          -1420.8086  XYZ=            939.3300
 Hexadecapole moment (field-independent basis, Debye-Ang**3):
 XXXX=         -20715.3080 YYYY=         -44707.6848 ZZZZ=         -89059.7330 XXXY=           1417.2004
 XXXZ=           5155.3080 YYYX=         -27536.6555 YYYZ=         -38380.1503 ZZZX=          -8267.8784
 ZZZY=         -21812.9155 XXYY=         -10847.4288 XXZZ=          12809.8465 YYZZ=         -26929.7628
 XXYZ=          11626.4938 YYXZ=         -11409.5658 ZZXY=           8336.1137
 N-N= 1.080408032332D+03 E-N=-4.807941210110D+03  KE= 1.118257294298D+03
 No NMR shielding tensors so no spin-rotation constants.
 Leave Link  601 at Thu Dec 15 17:32:37 2022, MaxMem=  1342177280 cpu:               3.2 elap:               0.2
 (Enter /data0/home/software/g16/l122.exe)
 CPIOFr:  IOpCl= 0 IRwI=-1 IRwCP=  731 ICalc= -1 LCPTot=      340243 Len1MO=      893396 IndFrg=      340243
 CPIOFr:  IOpCl= 0 IRwI=-1 IRwCP=  731 ICalc=  0 LCPTot=      340243 Len1MO=      893396 IndFrg=     1233639
 Counterpoise: doing calculation for fragment   1 using the basis set of the full-system, NewBq=T
 Leave Link  122 at Thu Dec 15 17:32:37 2022, MaxMem=  1342177280 cpu:               0.4 elap:               0.0
 (Enter /data0/home/software/g16/l301.exe)
 Basis read from rwf:  (5D, 7F)
 No pseudopotential information found on rwf file.
   470 basis functions,   714 primitive gaussians,   498 cartesian basis functions
    21 alpha electrons       21 beta electrons
       nuclear repulsion energy       205.2292899250 Hartrees.
 IExCor= 4336 DFT=T Ex+Corr=M062X ExCW=0 ScaHFX=  0.540000
 ScaDFX=  1.000000  1.000000  1.000000  1.000000 ScalE2=  1.000000  1.000000
 IRadAn=      5 IRanWt=     -1 IRanGd=            0 ICorTp=0 IEmpDi=131
 NAtoms=   28 NActive=   28 NUniq=   28 SFac= 1.00D+00 NAtFMM=   60 NAOKFM=F Big=F
 Integral buffers will be    131072 words long.
 Raffenetti 2 integral format.
 Two-electron integral symmetry is turned off.
 R6Disp:  Grimme-D3 Dispersion energy=       -0.0000989678 Hartrees.
 Nuclear repulsion after empirical dispersion term =      205.2291909572 Hartrees.
 No density basis found on file   718.
 Leave Link  301 at Thu Dec 15 17:32:37 2022, MaxMem=  1342177280 cpu:               1.3 elap:               0.1
 (Enter /data0/home/software/g16/l302.exe)
 NPDir=0 NMtPBC=     1 NCelOv=     1 NCel=       1 NClECP=     1 NCelD=      1
         NCelK=      1 NCelE2=     1 NClLst=     1 CellRange=     0.0.
 One-electron integrals computed using PRISM.
 NBasis=   470 RedAO= T EigKep=  9.09D-06  NBF=   470
 NBsUse=   470 1.00D-06 EigRej= -1.00D+00 NBFU=   470
 Precomputing XC quadrature grid using
 IXCGrd= 4 IRadAn=           5 IRanWt=          -1 IRanGd=           0 AccXCQ= 0.00D+00.
 Generated NRdTot=       0 NPtTot=           0 NUsed=           0 NTot=          32
 NSgBfM=   489   489   489   489   489 MxSgAt=    28 MxSgA2=    28.
 Leave Link  302 at Thu Dec 15 17:32:37 2022, MaxMem=  1342177280 cpu:              10.1 elap:               0.4
 (Enter /data0/home/software/g16/l303.exe)
 DipDrv:  MaxL=1.
 Leave Link  303 at Thu Dec 15 17:32:37 2022, MaxMem=  1342177280 cpu:               1.1 elap:               0.1
 (Enter /data0/home/software/g16/l401.exe)
 ExpMin= 3.48D-02 ExpMax= 7.75D+04 ExpMxC= 2.65D+03 IAcc=3 IRadAn=         5 AccDes= 0.00D+00
 Harris functional with IExCor= 1009 and IRadAn=       5 diagonalized for initial guess.
 HarFok:  IExCor= 1009 AccDes= 0.00D+00 IRadAn=         5 IDoV= 1 UseB2=F ITyADJ=14
 ICtDFT=  3500011 ScaDFX=  1.000000  1.000000  1.000000  1.000000
 FoFCou: FMM=F IPFlag=           0 FMFlag=      100000 FMFlg1=           0
         NFxFlg=           0 DoJE=T BraDBF=F KetDBF=T FulRan=T
         wScrn=  0.000000 ICntrl=       500 IOpCl=  0 I1Cent=   200000004 NGrid=           0
         NMat0=    1 NMatS0=      1 NMatT0=    0 NMatD0=    1 NMtDS0=    0 NMtDT0=    0
 Symmetry not used in FoFCou.
 Harris En= -248.119114053667    
 JPrj=0 DoOrth=F DoCkMO=F.
 Leave Link  401 at Thu Dec 15 17:32:39 2022, MaxMem=  1342177280 cpu:              30.1 elap:               1.3
 (Enter /data0/home/software/g16/l502.exe)
 Two-electron integral symmetry not used.
 Closed shell SCF:
 Using DIIS extrapolation, IDIIS=  1040.
 NGot=  1342177280 LenX=  1341665790 LenY=  1341417288
 Requested convergence on RMS density matrix=1.00D-08 within 128 cycles.
 Requested convergence on MAX density matrix=1.00D-06.
 Requested convergence on             energy=1.00D-06.
 No special actions if energy rises.
 Fock matrices will be formed incrementally for  20 cycles.

 Cycle   1  Pass 1  IDiag  1:
 FoFJK:  IHMeth= 1 ICntrl=       0 DoSepK=F KAlg= 0 I1Cent=           0 FoldK=F
 IRaf= 780000000 NMat=       1 IRICut=       1 DoRegI=T DoRafI=F ISym2E= 0 IDoP0=0 IntGTp=1.
 FoFCou: FMM=F IPFlag=           0 FMFlag=      100000 FMFlg1=           0
         NFxFlg=           0 DoJE=F BraDBF=F KetDBF=F FulRan=T
         wScrn=  0.000000 ICntrl=         0 IOpCl=  0 I1Cent=           0 NGrid=           0
         NMat0=    1 NMatS0=      1 NMatT0=    0 NMatD0=    1 NMtDS0=    0 NMtDT0=    0
 Symmetry not used in FoFCou.
 E= -248.122040350739    
 DIIS: error= 2.92D-02 at cycle   1 NSaved=   1.
 NSaved= 1 IEnMin= 1 EnMin= -248.122040350739     IErMin= 1 ErrMin= 2.92D-02
 ErrMax= 2.92D-02  0.00D+00 EMaxC= 1.00D-01 BMatC= 1.51D-01 BMatP= 1.51D-01
 IDIUse=3 WtCom= 7.08D-01 WtEn= 2.92D-01
 Coeff-Com:  0.100D+01
 Coeff-En:   0.100D+01
 Coeff:      0.100D+01
 Gap=     0.339 Goal=   None    Shift=    0.000
 GapD=    0.339 DampG=1.000 DampE=0.500 DampFc=0.5000 IDamp=-1.
 Damping current iteration by 5.00D-01
 RMSDP=1.97D-03 MaxDP=1.55D-01              OVMax= 1.39D-01

 Cycle   2  Pass 1  IDiag  1:
 RMSU=  9.84D-04    CP:  9.98D-01
 E= -248.185954173421     Delta-E=       -0.063913822682 Rises=F Damp=T
 DIIS: error= 8.21D-03 at cycle   2 NSaved=   2.
 NSaved= 2 IEnMin= 2 EnMin= -248.185954173421     IErMin= 2 ErrMin= 8.21D-03
 ErrMax= 8.21D-03  0.00D+00 EMaxC= 1.00D-01 BMatC= 1.47D-02 BMatP= 1.51D-01
 IDIUse=3 WtCom= 9.18D-01 WtEn= 8.21D-02
 Coeff-Com: -0.223D+00 0.122D+01
 Coeff-En:   0.000D+00 0.100D+01
 Coeff:     -0.205D+00 0.120D+01
 Gap=     0.337 Goal=   None    Shift=    0.000
 RMSDP=7.28D-04 MaxDP=6.12D-02 DE=-6.39D-02 OVMax= 7.65D-02

 Cycle   3  Pass 1  IDiag  1:
 RMSU=  6.94D-04    CP:  9.57D-01  1.07D+00
 E= -248.242375493227     Delta-E=       -0.056421319806 Rises=F Damp=F
 DIIS: error= 4.58D-03 at cycle   3 NSaved=   3.
 NSaved= 3 IEnMin= 3 EnMin= -248.242375493227     IErMin= 3 ErrMin= 4.58D-03
 ErrMax= 4.58D-03  0.00D+00 EMaxC= 1.00D-01 BMatC= 2.65D-03 BMatP= 1.47D-02
 IDIUse=3 WtCom= 9.54D-01 WtEn= 4.58D-02
 Coeff-Com: -0.134D+00 0.395D+00 0.738D+00
 Coeff-En:   0.000D+00 0.000D+00 0.100D+01
 Coeff:     -0.128D+00 0.377D+00 0.750D+00
 Gap=     0.324 Goal=   None    Shift=    0.000
 RMSDP=1.56D-04 MaxDP=1.66D-02 DE=-5.64D-02 OVMax= 2.30D-02

 Cycle   4  Pass 1  IDiag  1:
 RMSU=  1.43D-04    CP:  9.48D-01  1.03D+00  1.02D+00
 E= -248.244662033642     Delta-E=       -0.002286540415 Rises=F Damp=F
 DIIS: error= 2.15D-03 at cycle   4 NSaved=   4.
 NSaved= 4 IEnMin= 4 EnMin= -248.244662033642     IErMin= 4 ErrMin= 2.15D-03
 ErrMax= 2.15D-03  0.00D+00 EMaxC= 1.00D-01 BMatC= 2.69D-04 BMatP= 2.65D-03
 IDIUse=3 WtCom= 9.79D-01 WtEn= 2.15D-02
 Coeff-Com: -0.456D-01 0.113D+00 0.319D+00 0.613D+00
 Coeff-En:   0.000D+00 0.000D+00 0.000D+00 0.100D+01
 Coeff:     -0.446D-01 0.111D+00 0.312D+00 0.622D+00
 Gap=     0.317 Goal=   None    Shift=    0.000
 RMSDP=4.69D-05 MaxDP=3.34D-03 DE=-2.29D-03 OVMax= 9.00D-03

 Cycle   5  Pass 1  IDiag  1:
 RMSU=  3.16D-05    CP:  9.49D-01  1.04D+00  9.95D-01  8.09D-01
 E= -248.244903363884     Delta-E=       -0.000241330242 Rises=F Damp=F
 DIIS: error= 8.03D-04 at cycle   5 NSaved=   5.
 NSaved= 5 IEnMin= 5 EnMin= -248.244903363884     IErMin= 5 ErrMin= 8.03D-04
 ErrMax= 8.03D-04  0.00D+00 EMaxC= 1.00D-01 BMatC= 3.79D-05 BMatP= 2.69D-04
 IDIUse=3 WtCom= 9.92D-01 WtEn= 8.03D-03
 Coeff-Com: -0.117D-01 0.237D-01 0.948D-01 0.319D+00 0.574D+00
 Coeff-En:   0.000D+00 0.000D+00 0.000D+00 0.686D-01 0.931D+00
 Coeff:     -0.116D-01 0.235D-01 0.940D-01 0.317D+00 0.577D+00
 Gap=     0.317 Goal=   None    Shift=    0.000
 RMSDP=2.40D-05 MaxDP=1.36D-03 DE=-2.41D-04 OVMax= 2.51D-03

 Cycle   6  Pass 1  IDiag  1:
 RMSU=  1.49D-05    CP:  9.49D-01  1.03D+00  1.01D+00  8.31D-01  7.36D-01
 E= -248.244941708435     Delta-E=       -0.000038344551 Rises=F Damp=F
 DIIS: error= 1.24D-04 at cycle   6 NSaved=   6.
 NSaved= 6 IEnMin= 6 EnMin= -248.244941708435     IErMin= 6 ErrMin= 1.24D-04
 ErrMax= 1.24D-04  0.00D+00 EMaxC= 1.00D-01 BMatC= 1.71D-06 BMatP= 3.79D-05
 IDIUse=3 WtCom= 9.99D-01 WtEn= 1.24D-03
 Coeff-Com: -0.367D-02 0.674D-02 0.319D-01 0.122D+00 0.270D+00 0.573D+00
 Coeff-En:   0.000D+00 0.000D+00 0.000D+00 0.000D+00 0.000D+00 0.100D+01
 Coeff:     -0.367D-02 0.673D-02 0.319D-01 0.122D+00 0.270D+00 0.574D+00
 Gap=     0.317 Goal=   None    Shift=    0.000
 RMSDP=3.24D-06 MaxDP=2.43D-04 DE=-3.83D-05 OVMax= 6.13D-04

 Cycle   7  Pass 1  IDiag  1:
 RMSU=  2.69D-06    CP:  9.49D-01  1.03D+00  1.01D+00  8.25D-01  7.76D-01
                    CP:  1.03D+00
 E= -248.244943154598     Delta-E=       -0.000001446163 Rises=F Damp=F
 DIIS: error= 2.57D-05 at cycle   7 NSaved=   7.
 NSaved= 7 IEnMin= 7 EnMin= -248.244943154598     IErMin= 7 ErrMin= 2.57D-05
 ErrMax= 2.57D-05  0.00D+00 EMaxC= 1.00D-01 BMatC= 1.86D-07 BMatP= 1.71D-06
 IDIUse=1 WtCom= 1.00D+00 WtEn= 0.00D+00
 Coeff-Com:  0.150D-02-0.327D-02-0.104D-01-0.315D-01-0.320D-01 0.227D+00
 Coeff-Com:  0.849D+00
 Coeff:      0.150D-02-0.327D-02-0.104D-01-0.315D-01-0.320D-01 0.227D+00
 Coeff:      0.849D+00
 Gap=     0.317 Goal=   None    Shift=    0.000
 RMSDP=3.32D-06 MaxDP=1.97D-04 DE=-1.45D-06 OVMax= 1.28D-04

 Cycle   8  Pass 1  IDiag  1:
 RMSU=  8.45D-07    CP:  9.49D-01  1.03D+00  1.01D+00  8.27D-01  7.87D-01
                    CP:  1.17D+00  9.51D-01
 E= -248.244943323939     Delta-E=       -0.000000169341 Rises=F Damp=F
 DIIS: error= 4.49D-06 at cycle   8 NSaved=   8.
 NSaved= 8 IEnMin= 8 EnMin= -248.244943323939     IErMin= 8 ErrMin= 4.49D-06
 ErrMax= 4.49D-06  0.00D+00 EMaxC= 1.00D-01 BMatC= 3.46D-09 BMatP= 1.86D-07
 IDIUse=1 WtCom= 1.00D+00 WtEn= 0.00D+00
 Coeff-Com:  0.381D-03-0.818D-03-0.279D-02-0.951D-02-0.141D-01 0.379D-01
 Coeff-Com:  0.133D+00 0.856D+00
 Coeff:      0.381D-03-0.818D-03-0.279D-02-0.951D-02-0.141D-01 0.379D-01
 Coeff:      0.133D+00 0.856D+00
 Gap=     0.317 Goal=   None    Shift=    0.000
 RMSDP=2.59D-07 MaxDP=1.65D-05 DE=-1.69D-07 OVMax= 2.36D-05

 Cycle   9  Pass 1  IDiag  1:
 RMSU=  1.67D-07    CP:  9.49D-01  1.03D+00  1.01D+00  8.27D-01  7.87D-01
                    CP:  1.18D+00  9.58D-01  1.11D+00
 E= -248.244943327366     Delta-E=       -0.000000003427 Rises=F Damp=F
 DIIS: error= 2.69D-06 at cycle   9 NSaved=   9.
 NSaved= 9 IEnMin= 9 EnMin= -248.244943327366     IErMin= 9 ErrMin= 2.69D-06
 ErrMax= 2.69D-06  0.00D+00 EMaxC= 1.00D-01 BMatC= 1.06D-09 BMatP= 3.46D-09
 IDIUse=1 WtCom= 1.00D+00 WtEn= 0.00D+00
 Coeff-Com: -0.726D-04 0.161D-03 0.484D-03 0.762D-03-0.742D-03-0.105D-01
 Coeff-Com: -0.712D-01 0.364D+00 0.717D+00
 Coeff:     -0.726D-04 0.161D-03 0.484D-03 0.762D-03-0.742D-03-0.105D-01
 Coeff:     -0.712D-01 0.364D+00 0.717D+00
 Gap=     0.317 Goal=   None    Shift=    0.000
 RMSDP=9.50D-08 MaxDP=4.26D-06 DE=-3.43D-09 OVMax= 1.85D-05

 Cycle  10  Pass 1  IDiag  1:
 RMSU=  6.73D-08    CP:  9.49D-01  1.03D+00  1.01D+00  8.27D-01  7.86D-01
                    CP:  1.18D+00  9.54D-01  1.17D+00  1.05D+00
 E= -248.244943328682     Delta-E=       -0.000000001316 Rises=F Damp=F
 DIIS: error= 5.53D-07 at cycle  10 NSaved=  10.
 NSaved=10 IEnMin=10 EnMin= -248.244943328682     IErMin=10 ErrMin= 5.53D-07
 ErrMax= 5.53D-07  0.00D+00 EMaxC= 1.00D-01 BMatC= 6.99D-11 BMatP= 1.06D-09
 IDIUse=1 WtCom= 1.00D+00 WtEn= 0.00D+00
 Coeff-Com: -0.145D-04 0.335D-04 0.151D-03 0.336D-03 0.645D-03 0.487D-04
 Coeff-Com: -0.916D-02-0.993D-01 0.546D-01 0.105D+01
 Coeff:     -0.145D-04 0.335D-04 0.151D-03 0.336D-03 0.645D-03 0.487D-04
 Coeff:     -0.916D-02-0.993D-01 0.546D-01 0.105D+01
 Gap=     0.317 Goal=   None    Shift=    0.000
 RMSDP=3.47D-08 MaxDP=2.02D-06 DE=-1.32D-09 OVMax= 5.54D-06

 Cycle  11  Pass 1  IDiag  1:
 RMSU=  2.20D-08    CP:  9.49D-01  1.03D+00  1.01D+00  8.27D-01  7.86D-01
                    CP:  1.18D+00  9.51D-01  1.19D+00  1.16D+00  1.13D+00
 E= -248.244943328759     Delta-E=       -0.000000000077 Rises=F Damp=F
 DIIS: error= 3.66D-07 at cycle  11 NSaved=  11.
 NSaved=11 IEnMin=11 EnMin= -248.244943328759     IErMin=11 ErrMin= 3.66D-07
 ErrMax= 3.66D-07  0.00D+00 EMaxC= 1.00D-01 BMatC= 1.13D-11 BMatP= 6.99D-11
 IDIUse=1 WtCom= 1.00D+00 WtEn= 0.00D+00
 Coeff-Com: -0.236D-05 0.611D-05 0.491D-04 0.126D-03 0.400D-03 0.962D-03
 Coeff-Com: -0.232D-03-0.837D-01-0.146D-01 0.568D+00 0.529D+00
 Coeff:     -0.236D-05 0.611D-05 0.491D-04 0.126D-03 0.400D-03 0.962D-03
 Coeff:     -0.232D-03-0.837D-01-0.146D-01 0.568D+00 0.529D+00
 Gap=     0.317 Goal=   None    Shift=    0.000
 RMSDP=7.54D-09 MaxDP=5.49D-07 DE=-7.66D-11 OVMax= 1.65D-06

 SCF Done:  E(RM062X) =  -248.244943329     A.U. after   11 cycles
            NFock= 11  Conv=0.75D-08     -V/T= 2.0048
 KE= 2.470604342095D+02 PE=-9.869314384868D+02 EE= 2.863968699914D+02
 Leave Link  502 at Thu Dec 15 17:33:21 2022, MaxMem=  1342177280 cpu:            1011.1 elap:              42.3
 (Enter /data0/home/software/g16/l601.exe)
 Copying SCF densities to generalized density rwf, IOpCl= 0 IROHF=0.

 **********************************************************************

            Population analysis using the SCF density.

 **********************************************************************

 Alpha  occ. eigenvalues --  -14.75045 -10.58408 -10.58327 -10.56651 -10.55702
 Alpha  occ. eigenvalues --  -10.55697  -1.04985  -0.90685  -0.86238  -0.71812
 Alpha  occ. eigenvalues --   -0.71440  -0.60851  -0.55190  -0.54682  -0.50121
 Alpha  occ. eigenvalues --   -0.47395  -0.47251  -0.43068  -0.34788  -0.32530
 Alpha  occ. eigenvalues --   -0.32089
 Alpha virt. eigenvalues --   -0.00350   0.00686   0.00865   0.02104   0.02521
 Alpha virt. eigenvalues --    0.04080   0.04317   0.04433   0.06159   0.06720
 Alpha virt. eigenvalues --    0.07064   0.07771   0.08932   0.09358   0.09981
 Alpha virt. eigenvalues --    0.10971   0.11250   0.12669   0.13076   0.13412
 Alpha virt. eigenvalues --    0.13954   0.14376   0.14751   0.14979   0.15336
 Alpha virt. eigenvalues --    0.16634   0.17150   0.18012   0.18985   0.19134
 Alpha virt. eigenvalues --    0.19591   0.19669   0.20151   0.20481   0.20817
 Alpha virt. eigenvalues --    0.21321   0.21565   0.21897   0.22501   0.22983
 Alpha virt. eigenvalues --    0.23448   0.24215   0.24392   0.25428   0.25548
 Alpha virt. eigenvalues --    0.26426   0.26530   0.26905   0.27886   0.28744
 Alpha virt. eigenvalues --    0.29976   0.30499   0.31023   0.31578   0.31774
 Alpha virt. eigenvalues --    0.32667   0.32802   0.33798   0.34127   0.34624
 Alpha virt. eigenvalues --    0.34723   0.35582   0.36163   0.36645   0.37382
 Alpha virt. eigenvalues --    0.38166   0.38902   0.39054   0.40150   0.41636
 Alpha virt. eigenvalues --    0.42337   0.43749   0.44356   0.45638   0.46675
 Alpha virt. eigenvalues --    0.46878   0.48284   0.49435   0.50822   0.51010
 Alpha virt. eigenvalues --    0.51351   0.52175   0.52877   0.53551   0.54241
 Alpha virt. eigenvalues --    0.55865   0.56662   0.57181   0.58995   0.60268
 Alpha virt. eigenvalues --    0.62486   0.64667   0.65355   0.66648   0.66842
 Alpha virt. eigenvalues --    0.67561   0.68335   0.68852   0.69660   0.70339
 Alpha virt. eigenvalues --    0.72080   0.73265   0.74736   0.75287   0.76101
 Alpha virt. eigenvalues --    0.77387   0.77797   0.78633   0.78953   0.79938
 Alpha virt. eigenvalues --    0.80507   0.80796   0.81287   0.82314   0.82760
 Alpha virt. eigenvalues --    0.83235   0.83834   0.83994   0.84572   0.85102
 Alpha virt. eigenvalues --    0.85361   0.86037   0.87082   0.87739   0.88516
 Alpha virt. eigenvalues --    0.88689   0.89889   0.90200   0.91498   0.92431
 Alpha virt. eigenvalues --    0.92841   0.93770   0.94453   0.95396   0.95698
 Alpha virt. eigenvalues --    0.97001   0.97392   0.99041   0.99866   1.00498
 Alpha virt. eigenvalues --    1.04095   1.04432   1.05560   1.06855   1.08355
 Alpha virt. eigenvalues --    1.08594   1.09912   1.10524   1.11718   1.12878
 Alpha virt. eigenvalues --    1.16705   1.17844   1.18345   1.20653   1.20884
 Alpha virt. eigenvalues --    1.21742   1.21829   1.23219   1.26526   1.28486
 Alpha virt. eigenvalues --    1.28796   1.30425   1.32619   1.33712   1.35401
 Alpha virt. eigenvalues --    1.35446   1.36171   1.36310   1.38581   1.39361
 Alpha virt. eigenvalues --    1.40203   1.40736   1.46157   1.48671   1.50773
 Alpha virt. eigenvalues --    1.51341   1.52142   1.53388   1.54528   1.56261
 Alpha virt. eigenvalues --    1.58668   1.61734   1.63529   1.65506   1.68658
 Alpha virt. eigenvalues --    1.73998   1.84089   1.85105   1.87741   1.88045
 Alpha virt. eigenvalues --    1.89757   1.90686   1.91324   1.93354   1.94200
 Alpha virt. eigenvalues --    1.97043   1.97082   1.99626   2.02127   2.02339
 Alpha virt. eigenvalues --    2.03124   2.07356   2.07989   2.10923   2.12072
 Alpha virt. eigenvalues --    2.15302   2.17269   2.18028   2.19707   2.20605
 Alpha virt. eigenvalues --    2.23368   2.23890   2.25996   2.27576   2.28623
 Alpha virt. eigenvalues --    2.32324   2.33148   2.35415   2.36133   2.38623
 Alpha virt. eigenvalues --    2.40247   2.42055   2.45188   2.45528   2.47230
 Alpha virt. eigenvalues --    2.48409   2.50862   2.53083   2.53358   2.55559
 Alpha virt. eigenvalues --    2.55784   2.56382   2.58300   2.60283   2.61712
 Alpha virt. eigenvalues --    2.62174   2.64097   2.65451   2.65628   2.67053
 Alpha virt. eigenvalues --    2.68287   2.68911   2.69271   2.70660   2.70849
 Alpha virt. eigenvalues --    2.73132   2.73914   2.75604   2.76202   2.76362
 Alpha virt. eigenvalues --    2.76528   2.76786   2.77012   2.77288   2.79533
 Alpha virt. eigenvalues --    2.80627   2.82019   2.82302   2.84534   2.84944
 Alpha virt. eigenvalues --    2.85610   2.87134   2.87517   2.87978   2.88271
 Alpha virt. eigenvalues --    2.88782   2.90186   2.90543   2.91549   2.94146
 Alpha virt. eigenvalues --    2.95146   2.98837   2.99870   3.01685   3.02096
 Alpha virt. eigenvalues --    3.02698   3.03818   3.07397   3.08286   3.09183
 Alpha virt. eigenvalues --    3.10634   3.11580   3.12736   3.12882   3.13061
 Alpha virt. eigenvalues --    3.13344   3.15137   3.15506   3.17590   3.19083
 Alpha virt. eigenvalues --    3.20592   3.23040   3.23182   3.24273   3.26041
 Alpha virt. eigenvalues --    3.28029   3.29075   3.29454   3.29916   3.30701
 Alpha virt. eigenvalues --    3.31533   3.32073   3.32799   3.37534   3.38212
 Alpha virt. eigenvalues --    3.42705   3.45655   3.46142   3.47394   3.48287
 Alpha virt. eigenvalues --    3.55539   3.56546   3.56928   3.58013   3.59358
 Alpha virt. eigenvalues --    3.59625   3.65557   3.66528   3.67525   3.69456
 Alpha virt. eigenvalues --    3.70758   3.71734   3.73985   3.76786   3.77581
 Alpha virt. eigenvalues --    3.80692   3.81278   3.85756   3.86351   3.86599
 Alpha virt. eigenvalues --    3.89824   3.93227   3.94361   3.96393   3.97440
 Alpha virt. eigenvalues --    3.99769   4.01322   4.05840   4.45462   4.47685
 Alpha virt. eigenvalues --    4.49427   4.50051   4.51348   4.56527   4.66518
 Alpha virt. eigenvalues --    4.70480   4.74372   4.75369   4.81938   4.83356
 Alpha virt. eigenvalues --    4.92884   4.95569   4.96738   4.99248   5.02098
 Alpha virt. eigenvalues --    5.05481   5.05650   5.24792   5.30059   5.31339
 Alpha virt. eigenvalues --    5.32363   5.37965   5.61817   5.71365   9.70650
 Alpha virt. eigenvalues --    9.79864   9.81486   9.91966   9.99860  10.02822
 Alpha virt. eigenvalues --   10.11402  10.12977  10.16326  10.21372  10.23662
 Alpha virt. eigenvalues --   10.25380  10.26046  10.28419  10.28716  10.29792
 Alpha virt. eigenvalues --   10.29941  10.31213  10.32684  10.33492  10.36085
 Alpha virt. eigenvalues --   10.38469  10.40539  10.41287  10.42516  10.43032
 Alpha virt. eigenvalues --   10.43660  10.46626  10.48727  10.51281  10.55454
 Alpha virt. eigenvalues --   10.58704  10.59292  10.62617  10.67510  10.69221
 Alpha virt. eigenvalues --   10.76201  10.86634  12.68768  12.81865  13.16040
 Alpha virt. eigenvalues --   13.21836  13.29537  13.35813  13.40427  13.46998
 Alpha virt. eigenvalues --   13.48489  13.50376  13.51253  13.56911  13.64420
 Alpha virt. eigenvalues --   13.84321  13.84991  13.86879  13.91059  14.00366
 Alpha virt. eigenvalues --   14.10051  14.33199  14.33361  14.36494  17.46566
 Alpha virt. eigenvalues --   18.15023  18.39426  18.46152  18.47988  18.54143
 Alpha virt. eigenvalues --   18.56887  23.84140  24.05592  24.06708  24.10421
 Alpha virt. eigenvalues --   24.14046  35.75627  52.11811  52.13029  52.25029
 Alpha virt. eigenvalues --   69.67103 129.39939 137.37338 139.34069 139.70836
 Alpha virt. eigenvalues --  139.74688 139.76964 139.78038 472.02015
          Condensed to atoms (all electrons):
               1          2          3          4          5          6
     1  C    5.181889   0.329561   0.131297  -0.231158   0.071672   0.180407
     2  C    0.329561   4.884216   0.463378   0.065400  -0.113167   0.104862
     3  C    0.131297   0.463378   4.837065   0.378057   0.152133  -0.119275
     4  C   -0.231158   0.065400   0.378057   5.126945   0.289415   0.093444
     5  C    0.071672  -0.113167   0.152133   0.289415   5.049953   0.306344
     6  N    0.180407   0.104862  -0.119275   0.093444   0.306344   6.802955
     7  H   -0.000516  -0.014651   0.368060  -0.006998  -0.001678   0.000379
     8  H    0.451857  -0.075968   0.022933  -0.012138   0.014561  -0.070676
     9  H   -0.020693   0.368445  -0.016337   0.007745  -0.003454   0.006520
    10  H   -0.000391   0.004762  -0.013031   0.362984  -0.018128   0.005606
    11  H    0.015785  -0.013828   0.023738  -0.076029   0.447635  -0.073002
    12  P    0.001988  -0.001247   0.000980  -0.006630   0.003780  -0.013660
    13  O   -0.001210   0.000901  -0.000512   0.002770  -0.002842   0.006604
    14  O    0.000594  -0.000776   0.000244  -0.000841   0.000380  -0.003690
    15  H    0.000007  -0.000007   0.000002   0.000021  -0.000005  -0.000156
    16  O    0.000008   0.000121  -0.000053   0.000247   0.000347  -0.000156
    17  H   -0.000015   0.000004  -0.000002   0.000014  -0.000009   0.000077
    18  O   -0.007871   0.006795  -0.002009   0.006157  -0.003864   0.061420
    19  H    0.015830  -0.011301   0.002660  -0.007869   0.008717  -0.110721
    20  O    0.000006  -0.000000  -0.000000  -0.000002   0.000015  -0.000006
    21  H   -0.000000  -0.000000  -0.000000  -0.000000  -0.000001   0.000001
    22  H   -0.000005   0.000001  -0.000001   0.000003  -0.000000   0.000001
    23  O    0.000032  -0.000023   0.000019  -0.000074  -0.000103   0.000035
    24  H   -0.000003   0.000005  -0.000006   0.000065  -0.000054   0.000003
    25  H   -0.000034   0.000031  -0.000028   0.000034   0.000056  -0.000010
    26  O    0.000030  -0.000010   0.000002  -0.000002   0.000032  -0.000155
    27  H   -0.000032   0.000016  -0.000003   0.000007  -0.000009   0.000118
    28  H   -0.000003   0.000005  -0.000000   0.000001  -0.000006   0.000035
               7          8          9         10         11         12
     1  C   -0.000516   0.451857  -0.020693  -0.000391   0.015785   0.001988
     2  C   -0.014651  -0.075968   0.368445   0.004762  -0.013828  -0.001247
     3  C    0.368060   0.022933  -0.016337  -0.013031   0.023738   0.000980
     4  C   -0.006998  -0.012138   0.007745   0.362984  -0.076029  -0.006630
     5  C   -0.001678   0.014561  -0.003454  -0.018128   0.447635   0.003780
     6  N    0.000379  -0.070676   0.006520   0.005606  -0.073002  -0.013660
     7  H    0.532379  -0.000287  -0.004728  -0.004802  -0.000291   0.000012
     8  H   -0.000287   0.538728  -0.002033   0.000099  -0.000033   0.000075
     9  H   -0.004728  -0.002033   0.532068  -0.000199   0.000103   0.000000
    10  H   -0.004802   0.000099  -0.000199   0.532053  -0.001698   0.000056
    11  H   -0.000291  -0.000033   0.000103  -0.001698   0.537208   0.001848
    12  P    0.000012   0.000075   0.000000   0.000056   0.001848   0.010337
    13  O    0.000000  -0.000024  -0.000001  -0.000022  -0.002184  -0.003998
    14  O    0.000000   0.000050   0.000000   0.000002   0.000163  -0.000304
    15  H    0.000000   0.000000   0.000000   0.000000  -0.000002   0.000120
    16  O   -0.000000   0.000000   0.000000  -0.000000   0.000047  -0.002686
    17  H   -0.000000  -0.000000  -0.000000  -0.000000  -0.000002   0.000072
    18  O   -0.000005  -0.000238  -0.000004  -0.000020  -0.000701  -0.004509
    19  H    0.000009   0.001371   0.000051   0.000069   0.001734   0.003902
    20  O   -0.000000   0.000000   0.000000   0.000000   0.000004  -0.000204
    21  H    0.000000  -0.000000  -0.000000  -0.000000  -0.000000   0.000025
    22  H    0.000000  -0.000000  -0.000000  -0.000000  -0.000003   0.000131
    23  O   -0.000000   0.000000   0.000000   0.000001   0.000025  -0.000226
    24  H    0.000000  -0.000000  -0.000000  -0.000000  -0.000010   0.000028
    25  H   -0.000000  -0.000000  -0.000000  -0.000001  -0.000037   0.000070
    26  O   -0.000000   0.000001   0.000000   0.000000   0.000002  -0.000018
    27  H    0.000000  -0.000002  -0.000000  -0.000000  -0.000001  -0.000020
    28  H   -0.000000  -0.000000  -0.000000  -0.000000  -0.000000   0.000009
              13         14         15         16         17         18
     1  C   -0.001210   0.000594   0.000007   0.000008  -0.000015  -0.007871
     2  C    0.000901  -0.000776  -0.000007   0.000121   0.000004   0.006795
     3  C   -0.000512   0.000244   0.000002  -0.000053  -0.000002  -0.002009
     4  C    0.002770  -0.000841   0.000021   0.000247   0.000014   0.006157
     5  C   -0.002842   0.000380  -0.000005   0.000347  -0.000009  -0.003864
     6  N    0.006604  -0.003690  -0.000156  -0.000156   0.000077   0.061420
     7  H    0.000000   0.000000   0.000000  -0.000000  -0.000000  -0.000005
     8  H   -0.000024   0.000050   0.000000   0.000000  -0.000000  -0.000238
[...]
    22  H    0.000000
    23  O   -0.555427
    24  H    0.276477
    25  H    0.278949
    26  O    0.000000
    27  H    0.000000
    28  H    0.000000
 Sum of Mulliken charges =  -0.00000
 Mulliken charges with hydrogens summed into heavy atoms:
               1
     1  C    0.000000
     2  C    0.000000
     3  C    0.000000
     4  C    0.000000
     5  C    0.000000
     6  N    0.000000
    12  P    0.000000
    13  O    0.000000
    14  O    0.000000
    16  O    0.000000
    18  O    0.000000
    20  O    0.000000
    23  O   -0.000000
    26  O    0.000000
         Mulliken charges condensed to fragments:
      1      0.000000
      2      0.000000
      3      0.000000
      4     -0.000000
      5      0.000000
 Electronic spatial extent (au):  <R**2>=          14486.9276
 Charge=             -0.0000 electrons
 Dipole moment (field-independent basis, Debye):
    X=              1.6640    Y=             -0.8192    Z=              1.0240  Tot=              2.1186
 Quadrupole moment (field-independent basis, Debye-Ang):
   XX=             30.9608   YY=            -22.9570   ZZ=             18.5203
   XY=             10.1284   XZ=             32.9155   YZ=              0.4688
 Traceless Quadrupole moment (field-independent basis, Debye-Ang):
   XX=             22.1194   YY=            -31.7984   ZZ=              9.6789
   XY=             10.1284   XZ=             32.9155   YZ=              0.4688
 Octapole moment (field-independent basis, Debye-Ang**2):
  XXX=            416.4101  YYY=           -461.7919  ZZZ=            211.6936  XYY=            -32.9085
  XXY=            260.3923  XXZ=            529.2470  XZZ=            484.3828  YZZ=             61.3573
  YYZ=           -175.4150  XYZ=            253.9633
 Hexadecapole moment (field-independent basis, Debye-Ang**3):
 XXXX=           4696.5879 YYYY=          -8020.1538 ZZZZ=           1214.0907 XXXY=           3812.6651
 XXXZ=           6864.0373 YYYX=          -2565.4025 YYYZ=          -4616.2673 ZZZX=           5954.0135
 ZZZY=            450.1853 XXYY=           1380.5877 XXZZ=           7520.6085 YYZZ=          -1667.9782
 XXYZ=           4756.8863 YYXZ=            923.0982 ZZXY=           3897.6724
 N-N= 9.119152927532D+00 E-N=-1.990917086988D+02  KE= 7.620184951914D+01
 No NMR shielding tensors so no spin-rotation constants.
 Leave Link  601 at Thu Dec 15 17:36:04 2022, MaxMem=  1342177280 cpu:               1.8 elap:               0.1
 (Enter /data0/home/software/g16/l122.exe)
 CPIOFr:  IOpCl= 0 IRwI=-1 IRwCP=  731 ICalc=  9 LCPTot=      340243 Len1MO=      893396 IndFrg=     9274203
 Counterpoise: doing calculation for fragment   5 using the basis set of the fragment.
 Leave Link  122 at Thu Dec 15 17:36:04 2022, MaxMem=  1342177280 cpu:               0.2 elap:               0.0
 (Enter /data0/home/software/g16/l301.exe)
 Basis read from rwf:  (5D, 7F)
 No pseudopotential information found on rwf file.
    39 basis functions,    58 primitive gaussians,    41 cartesian basis functions
     5 alpha electrons        5 beta electrons
       nuclear repulsion energy         9.1376397722 Hartrees.
 IExCor= 4336 DFT=T Ex+Corr=M062X ExCW=0 ScaHFX=  0.540000
 ScaDFX=  1.000000  1.000000  1.000000  1.000000 ScalE2=  1.000000  1.000000
 IRadAn=      5 IRanWt=     -1 IRanGd=            0 ICorTp=0 IEmpDi=131
 NAtoms=   28 NActive=    3 NUniq=    3 SFac= 1.00D+00 NAtFMM=   60 NAOKFM=F Big=F
 Integral buffers will be    131072 words long.
 Raffenetti 2 integral format.
 Two-electron integral symmetry is turned off.
 R6Disp:  Grimme-D3 Dispersion energy=       -0.0000000076 Hartrees.
 Nuclear repulsion after empirical dispersion term =        9.1376397647 Hartrees.
 No density basis found on file   718.
 Leave Link  301 at Thu Dec 15 17:36:04 2022, MaxMem=  1342177280 cpu:               1.3 elap:               0.1
 (Enter /data0/home/software/g16/l302.exe)
 NPDir=0 NMtPBC=     1 NCelOv=     1 NCel=       1 NClECP=     1 NCelD=      1
         NCelK=      1 NCelE2=     1 NClLst=     1 CellRange=     0.0.
 One-electron integrals computed using PRISM.
 NBasis=    39 RedAO= T EigKep=  3.01D-03  NBF=    39
 NBsUse=    39 1.00D-06 EigRej= -1.00D+00 NBFU=    39
 Precomputing XC quadrature grid using
 IXCGrd= 4 IRadAn=           5 IRanWt=          -1 IRanGd=           0 AccXCQ= 0.00D+00.
 Generated NRdTot=       0 NPtTot=           0 NUsed=           0 NTot=          32
 NSgBfM=    41    41    41    41    41 MxSgAt=     3 MxSgA2=     3.
 Leave Link  302 at Thu Dec 15 17:36:04 2022, MaxMem=  1342177280 cpu:               2.3 elap:               0.1
 (Enter /data0/home/software/g16/l303.exe)
 DipDrv:  MaxL=1.
 Leave Link  303 at Thu Dec 15 17:36:04 2022, MaxMem=  1342177280 cpu:               0.4 elap:               0.0
 (Enter /data0/home/software/g16/l401.exe)
 ExpMin= 8.45D-02 ExpMax= 8.59D+03 ExpMxC= 1.30D+03 IAcc=3 IRadAn=         5 AccDes= 0.00D+00
 Harris functional with IExCor= 1009 and IRadAn=       5 diagonalized for initial guess.
 HarFok:  IExCor= 1009 AccDes= 0.00D+00 IRadAn=         5 IDoV= 1 UseB2=F ITyADJ=14
 ICtDFT=  3500011 ScaDFX=  1.000000  1.000000  1.000000  1.000000
 FoFCou: FMM=F IPFlag=           0 FMFlag=      100000 FMFlg1=           0
         NFxFlg=           0 DoJE=T BraDBF=F KetDBF=T FulRan=T
         wScrn=  0.000000 ICntrl=       500 IOpCl=  0 I1Cent=   200000004 NGrid=           0
         NMat0=    1 NMatS0=      1 NMatT0=    0 NMatD0=    1 NMtDS0=    0 NMtDT0=    0
 Symmetry not used in FoFCou.
 Harris En= -76.4170131349813    
 JPrj=0 DoOrth=F DoCkMO=F.
 Leave Link  401 at Thu Dec 15 17:36:05 2022, MaxMem=  1342177280 cpu:               2.8 elap:               0.1
 (Enter /data0/home/software/g16/l502.exe)
 Keep R1 ints in memory in canonical form, NReq=21041397.
 FoFCou: FMM=F IPFlag=           0 FMFlag=           0 FMFlg1=           0
         NFxFlg=           0 DoJE=F BraDBF=F KetDBF=F FulRan=T
         wScrn=  0.000000 ICntrl=       600 IOpCl=  0 I1Cent=           0 NGrid=           0
         NMat0=    1 NMatS0=    780 NMatT0=    0 NMatD0=    1 NMtDS0=    0 NMtDT0=    0
 Symmetry not used in FoFCou.
 Two-electron integral symmetry not used.
 Closed shell SCF:
 Using DIIS extrapolation, IDIIS=  1040.
 NGot=  1342177280 LenX=  1341867099 LenY=  1341864977
 Requested convergence on RMS density matrix=1.00D-08 within 128 cycles.
 Requested convergence on MAX density matrix=1.00D-06.
 Requested convergence on             energy=1.00D-06.
 No special actions if energy rises.
 Integral accuracy reduced to 1.0D-05 until final iterations.

 Cycle   1  Pass 0  IDiag  1:
 E= -76.3462186663622    
 DIIS: error= 7.06D-02 at cycle   1 NSaved=   1.
 NSaved= 1 IEnMin= 1 EnMin= -76.3462186663622     IErMin= 1 ErrMin= 7.06D-02
 ErrMax= 7.06D-02  0.00D+00 EMaxC= 1.00D-01 BMatC= 1.22D-01 BMatP= 1.22D-01
 IDIUse=3 WtCom= 2.94D-01 WtEn= 7.06D-01
 Coeff-Com:  0.100D+01
 Coeff-En:   0.100D+01
 Coeff:      0.100D+01
 Gap=     0.326 Goal=   None    Shift=    0.000
 GapD=    0.326 DampG=1.000 DampE=0.500 DampFc=0.5000 IDamp=-1.
 Damping current iteration by 5.00D-01
 RMSDP=7.90D-03 MaxDP=1.01D-01              OVMax= 1.69D-01

 Cycle   2  Pass 0  IDiag  1:
 E= -76.3779328770032     Delta-E=       -0.031714210641 Rises=F Damp=T
 DIIS: error= 1.16D-02 at cycle   2 NSaved=   2.
 NSaved= 2 IEnMin= 2 EnMin= -76.3779328770032     IErMin= 2 ErrMin= 1.16D-02
 ErrMax= 1.16D-02  0.00D+00 EMaxC= 1.00D-01 BMatC= 4.78D-03 BMatP= 1.22D-01
 IDIUse=3 WtCom= 8.84D-01 WtEn= 1.16D-01
 Coeff-Com:  0.803D-01 0.920D+00
 Coeff-En:   0.184D+00 0.816D+00
 Coeff:      0.924D-01 0.908D+00
 Gap=     0.459 Goal=   None    Shift=    0.000
 RMSDP=9.32D-04 MaxDP=1.38D-02 DE=-3.17D-02 OVMax= 1.00D-01

 Cycle   3  Pass 0  IDiag  1:
 E= -76.4219406952144     Delta-E=       -0.044007818211 Rises=F Damp=F
 DIIS: error= 2.16D-03 at cycle   3 NSaved=   3.
 NSaved= 3 IEnMin= 3 EnMin= -76.4219406952144     IErMin= 3 ErrMin= 2.16D-03
 ErrMax= 2.16D-03  0.00D+00 EMaxC= 1.00D-01 BMatC= 8.97D-05 BMatP= 4.78D-03
 IDIUse=3 WtCom= 9.78D-01 WtEn= 2.16D-02
 Coeff-Com: -0.199D-01 0.390D-01 0.981D+00
 Coeff-En:   0.000D+00 0.000D+00 0.100D+01
 Coeff:     -0.195D-01 0.382D-01 0.981D+00
 Gap=     0.463 Goal=   None    Shift=    0.000
 RMSDP=1.14D-04 MaxDP=9.85D-04 DE=-4.40D-02 OVMax= 3.28D-03

 Cycle   4  Pass 0  IDiag  1:
 E= -76.4220170785540     Delta-E=       -0.000076383340 Rises=F Damp=F
 DIIS: error= 4.07D-04 at cycle   4 NSaved=   4.
 NSaved= 4 IEnMin= 4 EnMin= -76.4220170785540     IErMin= 4 ErrMin= 4.07D-04
 ErrMax= 4.07D-04  0.00D+00 EMaxC= 1.00D-01 BMatC= 3.22D-06 BMatP= 8.97D-05
 IDIUse=3 WtCom= 9.96D-01 WtEn= 4.07D-03
 Coeff-Com: -0.184D-02-0.220D-02 0.162D+00 0.843D+00
 Coeff-En:   0.000D+00 0.000D+00 0.000D+00 0.100D+01
 Coeff:     -0.183D-02-0.220D-02 0.161D+00 0.843D+00
 Gap=     0.463 Goal=   None    Shift=    0.000
 RMSDP=2.19D-05 MaxDP=3.51D-04 DE=-7.64D-05 OVMax= 5.26D-04

 Cycle   5  Pass 0  IDiag  1:
 E= -76.4220190565647     Delta-E=       -0.000001978011 Rises=F Damp=F
 DIIS: error= 8.71D-05 at cycle   5 NSaved=   5.
 NSaved= 5 IEnMin= 5 EnMin= -76.4220190565647     IErMin= 5 ErrMin= 8.71D-05
 ErrMax= 8.71D-05  0.00D+00 EMaxC= 1.00D-01 BMatC= 8.03D-08 BMatP= 3.22D-06
 IDIUse=1 WtCom= 1.00D+00 WtEn= 0.00D+00
 Coeff-Com:  0.116D-02-0.176D-02-0.361D-01-0.636D-01 0.110D+01
 Coeff:      0.116D-02-0.176D-02-0.361D-01-0.636D-01 0.110D+01
 Gap=     0.464 Goal=   None    Shift=    0.000
 RMSDP=8.81D-06 MaxDP=1.02D-04 DE=-1.98D-06 OVMax= 1.97D-04

 Initial convergence to 1.0D-05 achieved.  Increase integral accuracy.
 Cycle   6  Pass 1  IDiag  1:
 E= -76.4220162280366     Delta-E=        0.000002828528 Rises=F Damp=F
 DIIS: error= 1.56D-05 at cycle   1 NSaved=   1.
 NSaved= 1 IEnMin= 1 EnMin= -76.4220162280366     IErMin= 1 ErrMin= 1.56D-05
 ErrMax= 1.56D-05  0.00D+00 EMaxC= 1.00D-01 BMatC= 9.39D-09 BMatP= 9.39D-09
 IDIUse=1 WtCom= 1.00D+00 WtEn= 0.00D+00
 Coeff-Com:  0.100D+01
 Coeff:      0.100D+01
 Gap=     0.464 Goal=   None    Shift=    0.000
 RMSDP=8.81D-06 MaxDP=1.02D-04 DE= 2.83D-06 OVMax= 4.66D-05

 Cycle   7  Pass 1  IDiag  1:
 E= -76.4220162355683     Delta-E=       -0.000000007532 Rises=F Damp=F
 DIIS: error= 1.52D-05 at cycle   2 NSaved=   2.
 NSaved= 2 IEnMin= 2 EnMin= -76.4220162355683     IErMin= 2 ErrMin= 1.52D-05
 ErrMax= 1.52D-05  0.00D+00 EMaxC= 1.00D-01 BMatC= 3.09D-09 BMatP= 9.39D-09
 IDIUse=1 WtCom= 1.00D+00 WtEn= 0.00D+00
 Coeff-Com:  0.299D+00 0.701D+00
 Coeff:      0.299D+00 0.701D+00
 Gap=     0.464 Goal=   None    Shift=    0.000
 RMSDP=8.79D-07 MaxDP=1.38D-05 DE=-7.53D-09 OVMax= 2.40D-05

 Cycle   8  Pass 1  IDiag  1:
 E= -76.4220162372307     Delta-E=       -0.000000001662 Rises=F Damp=F
 DIIS: error= 5.39D-06 at cycle   3 NSaved=   3.
 NSaved= 3 IEnMin= 3 EnMin= -76.4220162372307     IErMin= 3 ErrMin= 5.39D-06
 ErrMax= 5.39D-06  0.00D+00 EMaxC= 1.00D-01 BMatC= 8.88D-10 BMatP= 3.09D-09
 IDIUse=1 WtCom= 1.00D+00 WtEn= 0.00D+00
 Coeff-Com: -0.614D-01 0.335D+00 0.726D+00
 Coeff:     -0.614D-01 0.335D+00 0.726D+00
 Gap=     0.464 Goal=   None    Shift=    0.000
 RMSDP=3.83D-07 MaxDP=6.11D-06 DE=-1.66D-09 OVMax= 9.32D-06

 Cycle   9  Pass 1  IDiag  1:
 E= -76.4220162378569     Delta-E=       -0.000000000626 Rises=F Damp=F
 DIIS: error= 5.20D-07 at cycle   4 NSaved=   4.
 NSaved= 4 IEnMin= 4 EnMin= -76.4220162378569     IErMin= 4 ErrMin= 5.20D-07
 ErrMax= 5.20D-07  0.00D+00 EMaxC= 1.00D-01 BMatC= 2.95D-12 BMatP= 8.88D-10
 IDIUse=1 WtCom= 1.00D+00 WtEn= 0.00D+00
 Coeff-Com: -0.491D-03-0.459D-01-0.827D-01 0.113D+01
 Coeff:     -0.491D-03-0.459D-01-0.827D-01 0.113D+01
 Gap=     0.464 Goal=   None    Shift=    0.000
 RMSDP=7.52D-08 MaxDP=7.27D-07 DE=-6.26D-10 OVMax= 1.64D-06

 Cycle  10  Pass 1  IDiag  1:
 E= -76.4220162378644     Delta-E=       -0.000000000008 Rises=F Damp=F
 DIIS: error= 1.01D-07 at cycle   5 NSaved=   5.
 NSaved= 5 IEnMin= 5 EnMin= -76.4220162378644     IErMin= 5 ErrMin= 1.01D-07
 ErrMax= 1.01D-07  0.00D+00 EMaxC= 1.00D-01 BMatC= 1.97D-13 BMatP= 2.95D-12
 IDIUse=1 WtCom= 1.00D+00 WtEn= 0.00D+00
 Coeff-Com:  0.283D-02-0.238D-01-0.454D-01 0.178D+00 0.888D+00
 Coeff:      0.283D-02-0.238D-01-0.454D-01 0.178D+00 0.888D+00
 Gap=     0.464 Goal=   None    Shift=    0.000
 RMSDP=1.21D-08 MaxDP=8.37D-08 DE=-7.50D-12 OVMax= 2.70D-07

 Cycle  11  Pass 1  IDiag  1:
 E= -76.4220162378647     Delta-E=       -0.000000000000 Rises=F Damp=F
 DIIS: error= 1.38D-08 at cycle   6 NSaved=   6.
 NSaved= 6 IEnMin= 6 EnMin= -76.4220162378647     IErMin= 6 ErrMin= 1.38D-08
 ErrMax= 1.38D-08  0.00D+00 EMaxC= 1.00D-01 BMatC= 2.97D-15 BMatP= 1.97D-13
 IDIUse=1 WtCom= 1.00D+00 WtEn= 0.00D+00
 Coeff-Com: -0.106D-03 0.125D-02 0.348D-02-0.270D-01-0.809D-01 0.110D+01
 Coeff:     -0.106D-03 0.125D-02 0.348D-02-0.270D-01-0.809D-01 0.110D+01
 Gap=     0.464 Goal=   None    Shift=    0.000
 RMSDP=2.59D-09 MaxDP=1.67D-08 DE=-3.69D-13 OVMax= 5.22D-08

 SCF Done:  E(RM062X) =  -76.4220162379     A.U. after   11 cycles
            NFock= 11  Conv=0.26D-08     -V/T= 2.0028
 KE= 7.620833894534D+01 PE=-1.991322502581D+02 EE= 3.736425531027D+01
 Leave Link  502 at Thu Dec 15 17:36:05 2022, MaxMem=  1342177280 cpu:               8.7 elap:               0.4
 (Enter /data0/home/software/g16/l601.exe)
 Copying SCF densities to generalized density rwf, IOpCl= 0 IROHF=0.

 **********************************************************************

            Population analysis using the SCF density.

 **********************************************************************

 Alpha  occ. eigenvalues --  -19.62534  -1.13492  -0.60965  -0.47504  -0.40009
 Alpha virt. eigenvalues --    0.06356   0.13382   0.17381   0.17944   0.18942
 Alpha virt. eigenvalues --    0.23241   0.51621   0.53482   0.97843   1.00120
 Alpha virt. eigenvalues --    1.06047   1.18657   1.19976   1.32524   1.33688
 Alpha virt. eigenvalues --    1.69845   1.74308   1.75919   2.08609   2.08973
 Alpha virt. eigenvalues --    2.35546   2.42352   2.54526   2.89123   3.01561
 Alpha virt. eigenvalues --    5.05712   5.48406   5.94040   6.78252   6.80247
 Alpha virt. eigenvalues --    6.87056   6.91537   7.09276  49.96210
          Condensed to atoms (all electrons):
              26         27         28
    26  O    7.912350   0.321846   0.322119
    27  H    0.321846   0.424577  -0.024704
    28  H    0.322119  -0.024704   0.424549
 Mulliken charges:
               1
     1  C    0.000000
     2  C    0.000000
     3  C    0.000000
     4  C    0.000000
     5  C    0.000000
     6  N    0.000000
     7  H    0.000000
     8  H    0.000000
     9  H    0.000000
    10  H    0.000000
    11  H    0.000000
    12  P    0.000000
    13  O    0.000000
    14  O    0.000000
    15  H    0.000000
    16  O    0.000000
    17  H    0.000000
    18  O    0.000000
    19  H    0.000000
    20  O    0.000000
    21  H    0.000000
    22  H    0.000000
    23  O    0.000000
    24  H    0.000000
    25  H    0.000000
    26  O   -0.556316
    27  H    0.278280
    28  H    0.278036
 Sum of Mulliken charges =  -0.00000
 Mulliken charges with hydrogens summed into heavy atoms:
               1
     1  C    0.000000
     2  C    0.000000
     3  C    0.000000
     4  C    0.000000
     5  C    0.000000
     6  N    0.000000
    12  P    0.000000
    13  O    0.000000
    14  O    0.000000
    16  O    0.000000
    18  O    0.000000
    20  O    0.000000
    23  O    0.000000
    26  O   -0.000000
         Mulliken charges condensed to fragments:
      1      0.000000
      2      0.000000
      3      0.000000
      4      0.000000
      5     -0.000000
 Electronic spatial extent (au):  <R**2>=          16282.1084
 Charge=             -0.0000 electrons
 Dipole moment (field-independent basis, Debye):
    X=              1.7165    Y=              0.8484    Z=              0.8853  Tot=              2.1094
 Quadrupole moment (field-independent basis, Debye-Ang):
   XX=             25.0661   YY=              6.4206   ZZ=             24.7237
   XY=             18.3810   XZ=             39.2631   YZ=             22.1742
 Traceless Quadrupole moment (field-independent basis, Debye-Ang):
   XX=              6.3293   YY=            -12.3162   ZZ=              5.9869
   XY=             18.3810   XZ=             39.2631   YZ=             22.1742
 Octapole moment (field-independent basis, Debye-Ang**2):
  XXX=            260.7952  YYY=             14.3052  ZZZ=            472.3331  XYY=            124.9086
  XXY=            221.9202  XXZ=            529.5339  XZZ=            793.1457  YZZ=            475.1770
  YYZ=            168.4906  XYZ=            395.5544
 Hexadecapole moment (field-independent basis, Debye-Ang**3):
 XXXX=           2204.9060 YYYY=           -331.6569 ZZZZ=           6588.4330 XXXY=           2150.7890
 XXXZ=           5421.9175 YYYX=            547.1331 YYYZ=            658.3866 ZZZX=          14655.8657
 ZZZY=           9038.7143 XXYY=           1448.6120 XXZZ=          10362.4472 YYZZ=           3657.8823
 XXYZ=           4596.0399 YYXZ=           2741.1813 ZZXY=           7851.4145
 N-N= 9.137639764664D+00 E-N=-1.991322504665D+02  KE= 7.620833894534D+01
 No NMR shielding tensors so no spin-rotation constants.
 Leave Link  601 at Thu Dec 15 17:36:05 2022, MaxMem=  1342177280 cpu:               1.8 elap:               0.1
 (Enter /data0/home/software/g16/l122.exe)
 CPIOFr:  IOpCl= 0 IRwI=-1 IRwCP=  731 ICalc= 10 LCPTot=      340243 Len1MO=      893396 IndFrg=    10167599
 Restoring MOs from calculation   1 to rwf.
 CPIOFr:  IOpCl= 0 IRwI=-2 IRwCP=  731 ICalc=  0 LCPTot=      340243 Len1MO=      893396 IndFrg=     1233639
 Counterpoise corrected energy =   -1121.744906892127
                   BSSE energy =       0.005370520690
              sum of fragments =   -1121.661192826937
           complexation energy =     -55.90 kcal/mole (raw)
           complexation energy =     -52.53 kcal/mole (corrected)
 Leave Link  122 at Thu Dec 15 17:36:05 2022, MaxMem=  1342177280 cpu:               0.4 elap:               0.0
 (Enter /data0/home/software/g16/l9999.exe)
 1\1\GINC-LOCALHOST\SP\RM062X\6-311+G(2d,p)\C5H14N1O7P1\WUHANYU\15-Dec-
 2022\0\\#p M062X/6-311+G(2d,p) nosymm em=GD3 counterpoise=5\\Title Car
 d Required\\0,1\C,0,15.430615,7.964424,16.990949\C,0,16.779006,8.12686
 2,16.653965\C,0,17.133819,8.124398,15.305436\C,0,16.143452,7.962807,14
 .339821\C,0,14.815292,7.805364,14.758403\N,0,14.470778,7.804793,16.059
 821\H,0,18.175881,8.248543,15.011443\H,0,15.091184,7.96097,18.032999\H
 ,0,17.529963,8.252161,17.428119\H,0,16.389054,7.958052,13.28174\H,0,13
 .991447,7.676328,14.038632\P,0,10.848398,8.337868,15.434786\O,0,11.477
 672,8.578297,14.13203\O,0,10.50664,9.625787,16.306594\H,0,10.024307,10
 .328103,15.708858\O,0,9.485392,7.537552,15.294768\H,0,9.190869,7.22598
 4,16.244452\O,0,11.655152,7.478569,16.497461\H,0,12.688015,7.69925,16.
 393554\O,0,9.198642,11.523787,14.598193\H,0,8.401203,11.122733,14.2546
 23\H,0,9.825662,11.494856,13.849552\O,0,11.067533,11.059466,12.599865\
 H,0,11.882155,11.501298,12.839301\H,0,11.184098,10.153024,12.935402\O,
 0,8.941144,6.774882,18.081404\H,0,9.811238,6.373484,18.187079\H,0,9.03
 1401,7.650369,18.470775\\Version=ES64L-G16RevA.03\HF=-76.4220162\RMSD=
 2.588e-09\Dipole=2.4164756,-0.0338732,0.8943203\Quadrupole=68.5669406,
 -65.7767468,-2.7901938,37.0460838,89.4839442,11.8213024\PG=C01 [X(C5H1
 4N1O7P1)]\\@


 WE'RE IN THE POSITION OF A VISITOR FROM ANOTHER
 DIMENSION WHO COMES TO EARTH AND SEES A CHESS MATCH.
 ASSUMING HE KNOWS IT'S A GAME, HE'S GOT TWO PROBLEMS:
 FIRST, FIGURE OUT THE RULES, AND SECOND, FIGURE OUT HOW TO WIN.
 NINETY PERCENT OF SCIENCE (INCLUDING VIRTUALLY ALL OF CHEMISRY)
 IS IN THAT SECOND CATEGORY.  THEY'RE TRYING TO APPLY
 THE LAWS THAT ARE ALREADY KNOWN.

                     -- SHELDON GLASHOW, 1979
 Job cpu time:       0 days  1 hours 43 minutes 27.0 seconds.
 Elapsed time:       0 days  0 hours  4 minutes 24.8 seconds.
 File lengths (MBytes):  RWF=    220 Int=      0 D2E=      0 Chk=     91 Scr=      1
 Normal termination of Gaussian 16 at Thu Dec 15 17:36:05 2022.
