 Entering Gaussian System, Link 0=g16
 Initial command:
 /data0/home/software/g16/l1.exe "/data0/home/software/g16/scratch/Gau-370043.inp" -scrdir="/data0/home/software/g16/scratch/"
 Default is to use a total of  22 processors:
                               22 via shared-memory
                                1 via Linda
 Entering Link 1 = /data0/home/software/g16/l1.exe PID=    370044.
  
 Copyright (c) 1988,1990,1992,1993,1995,1998,2003,2009,2016,
            Gaussian, Inc.  All Rights Reserved.
  
 This is part of the Gaussian(R) 16 program.  It is based on
 the Gaussian(R) 09 system (copyright 2009, Gaussian, Inc.),
 the Gaussian(R) 03 system (copyright 2003, Gaussian, Inc.),
 the Gaussian(R) 98 system (copyright 1998, Gaussian, Inc.),
 the Gaussian(R) 94 system (copyright 1995, Gaussian, Inc.),
 the Gaussian 92(TM) system (copyright 1992, Gaussian, Inc.),
 the Gaussian 90(TM) system (copyright 1990, Gaussian, Inc.),
 the Gaussian 88(TM) system (copyright 1988, Gaussian, Inc.),
 the Gaussian 86(TM) system (copyright 1986, Carnegie Mellon
 University), and the Gaussian 82(TM) system (copyright 1983,
 Carnegie Mellon University). Gaussian is a federally registered
 trademark of Gaussian, Inc.
  
 This software contains proprietary and confidential information,
 including trade secrets, belonging to Gaussian, Inc.
  
 This software is provided under written license and may be
 used, copied, transmitted, or stored only in accord with that
 written license.
  
 The following legend is applicable only to US Government
 contracts under FAR:
  
                    RESTRICTED RIGHTS LEGEND
  
 Use, reproduction and disclosure by the US Government is
 subject to restrictions as set forth in subparagraphs (a)
 and (c) of the Commercial Computer Software - Restricted
 Rights clause in FAR 52.227-19.
  
 Gaussian, Inc.
 340 Quinnipiac St., Bldg. 40, Wallingford CT 06492
  
  
 ---------------------------------------------------------------
 Warning -- This program may not be used in any manner that
 competes with the business of Gaussian, Inc. or will provide
 assistance to any competitor of Gaussian, Inc.  The licensee
 of this program is prohibited from giving any competitor of
 Gaussian, Inc. access to this program.  By using this program,
 the user acknowledges that Gaussian, Inc. is engaged in the
 business of creating and licensing software in the field of
 computational chemistry and represents and warrants to the
 licensee that it is not a competitor of Gaussian, Inc. and that
 it will not use this program in any manner prohibited above.
 ---------------------------------------------------------------
  

 Cite this work as:
 Gaussian 16, Revision A.03,
 M. J. Frisch, G. W. Trucks, H. B. Schlegel, G. E. Scuseria, 
 M. A. Robb, J. R. Cheeseman, G. Scalmani, V. Barone, 
 G. A. Petersson, H. Nakatsuji, X. Li, M. Caricato, A. V. Marenich, 
 J. Bloino, B. G. Janesko, R. Gomperts, B. Mennucci, H. P. Hratchian, 
 J. V. Ortiz, A. F. Izmaylov, J. L. Sonnenberg, D. Williams-Young, 
 F. Ding, F. Lipparini, F. Egidi, J. Goings, B. Peng, A. Petrone, 
 T. Henderson, D. Ranasinghe, V. G. Zakrzewski, J. Gao, N. Rega, 
 G. Zheng, W. Liang, M. Hada, M. Ehara, K. Toyota, R. Fukuda, 
 J. Hasegawa, M. Ishida, T. Nakajima, Y. Honda, O. Kitao, H. Nakai, 
 T. Vreven, K. Throssell, J. A. Montgomery, Jr., J. E. Peralta, 
 F. Ogliaro, M. J. Bearpark, J. J. Heyd, E. N. Brothers, K. N. Kudin, 
 V. N. Staroverov, T. A. Keith, R. Kobayashi, J. Normand, 
 K. Raghavachari, A. P. Rendell, J. C. Burant, S. S. Iyengar, 
 J. Tomasi, M. Cossi, J. M. Millam, M. Klene, C. Adamo, R. Cammi, 
 J. W. Ochterski, R. L. Martin, K. Morokuma, O. Farkas, 
 J. B. Foresman, and D. J. Fox, Gaussian, Inc., Wallingford CT, 2016.
 
 ******************************************
 Gaussian 16:  ES64L-G16RevA.03 25-Dec-2016
                20-Feb-2023 
 ******************************************
 %nproc=24
 Will use up to   24 processors via shared memory.
 %mem=50GB
 ---------------------------------------------------
 #p M062X/6-311+G(2d,p) nosymm em=GD3 counterpoise=2
 ---------------------------------------------------
 1/38=1,62=2,172=1/1;
 2/12=2,15=1,17=6,18=5,40=1/2;
 1/38=1,53=2,62=2,63=1/22;
 3/5=4,6=6,7=112,11=2,25=1,30=1,74=-55,124=31/1,2,3;
 4//1;
 5/5=2,38=5/2;
 6/7=2,8=2,9=2,10=2,28=1/1;
 1/53=2,62=2,63=1/22;
 3/5=7,6=11,7=112,11=2,25=1,30=1,74=-55,82=7,124=31/1,2,3;
 4//1;
 5/5=2,38=5/2;
 6/7=2,8=2,9=2,10=2,28=1/1;
 1/53=2,62=2,63=1/22(-4);
 99/5=1,9=1/99;
 Leave Link    1 at Mon Feb 20 01:53:47 2023, MaxMem=  6710886400 cpu:               0.7 elap:               0.0
 (Enter /data0/home/software/g16/l101.exe)
 -------------------
 Title Card Required
 -------------------
 Symbolic Z-matrix:
 Charge =  0 Multiplicity = 1 in supermolecule
 Charge =  0 Multiplicity = 1 in fragment      1.
 Charge =  0 Multiplicity = 1 in fragment      2.
 C                     9.14548   1.3795    16.78606    
 C                     9.37377   0.9332    18.08457    
 C                     9.93245   3.11143   17.98872    
 N                     9.47998   2.73096   16.75541    
 H                     8.82104   0.83391   15.91337    
 H                     9.25379  -0.05287   18.50803    
 H                     10.30897   4.10044   18.26056    
 C                     9.37809   3.60502   15.60154    
 H                     10.23429   4.3146    15.55758    
 H                     9.41892   3.01663   14.65712    
 H                     8.43526   4.17796   15.62511    
 N                     9.85488   2.01952   18.81363    
 C                     10.24129   1.99191   20.22468    
 H                     9.36814   1.63269   20.81895    
 H                     10.46049   3.03609   20.56934    
 C                     11.46173   1.08904   20.47335    
 H                     11.44392   0.7499    21.52895    
 H                     11.39343   0.15681   19.86584    
 C                     12.78494   1.7941    20.18589    
 H                     13.63107   1.21744   20.61055    
 H                     12.82553   2.79534   20.65315    
 C                     12.97784   1.89943   18.67414    
 O                     12.63867   2.98126   18.12882    
 O                     13.41952   0.90682   18.07661    
 P                     12.40191   1.60852   14.85629    
 O                     11.14925   0.86264   15.02316    
 O                     13.72841   0.94258   15.39495    
 H                     13.67009   0.91335   16.46813    
 O                     12.6898   1.85509   13.30798    
 H                     13.58756   2.36203   13.24124    
 O                     12.3578   3.08731   15.4455    
 H                     12.54636   3.05473   16.49011    
 
 ITRead=  0  0  0  0  0  0  0  0  0  0  0  0  0  0  0  0  0  0  0  0
 ITRead=  0  0  0  0  0  0  0  0  0  0  0  0
 MicOpt= -1 -1 -1 -1 -1 -1 -1 -1 -1 -1 -1 -1 -1 -1 -1 -1 -1 -1 -1 -1
 MicOpt= -1 -1 -1 -1 -1 -1 -1 -1 -1 -1 -1 -1
 NAtoms=     32 NQM=       32 NQMF=       0 NMMI=      0 NMMIF=      0
                NMic=       0 NMicF=      0.
                    Isotopes and Nuclear Properties:
 (Nuclear quadrupole moments (NQMom) in fm**2, nuclear magnetic moments (NMagM)
  in nuclear magnetons)

  Atom         1           2           3           4           5           6           7           8           9          10
 IAtWgt=          12          12          12          14           1           1           1          12           1           1
 AtmWgt=  12.0000000  12.0000000  12.0000000  14.0030740   1.0078250   1.0078250   1.0078250  12.0000000   1.0078250   1.0078250
 NucSpn=           0           0           0           2           1           1           1           0           1           1
 AtZEff=  -0.0000000  -0.0000000  -0.0000000  -0.0000000  -0.0000000  -0.0000000  -0.0000000  -0.0000000  -0.0000000  -0.0000000
 NQMom=    0.0000000   0.0000000   0.0000000   2.0440000   0.0000000   0.0000000   0.0000000   0.0000000   0.0000000   0.0000000
 NMagM=    0.0000000   0.0000000   0.0000000   0.4037610   2.7928460   2.7928460   2.7928460   0.0000000   2.7928460   2.7928460
 AtZNuc=   6.0000000   6.0000000   6.0000000   7.0000000   1.0000000   1.0000000   1.0000000   6.0000000   1.0000000   1.0000000

  Atom        11          12          13          14          15          16          17          18          19          20
 IAtWgt=           1          14          12           1           1          12           1           1          12           1
 AtmWgt=   1.0078250  14.0030740  12.0000000   1.0078250   1.0078250  12.0000000   1.0078250   1.0078250  12.0000000   1.0078250
 NucSpn=           1           2           0           1           1           0           1           1           0           1
 AtZEff=  -0.0000000  -0.0000000  -0.0000000  -0.0000000  -0.0000000  -0.0000000  -0.0000000  -0.0000000  -0.0000000  -0.0000000
 NQMom=    0.0000000   2.0440000   0.0000000   0.0000000   0.0000000   0.0000000   0.0000000   0.0000000   0.0000000   0.0000000
 NMagM=    2.7928460   0.4037610   0.0000000   2.7928460   2.7928460   0.0000000   2.7928460   2.7928460   0.0000000   2.7928460
 AtZNuc=   1.0000000   7.0000000   6.0000000   1.0000000   1.0000000   6.0000000   1.0000000   1.0000000   6.0000000   1.0000000

  Atom        21          22          23          24          25          26          27          28          29          30
 IAtWgt=           1          12          16          16          31          16          16           1          16           1
 AtmWgt=   1.0078250  12.0000000  15.9949146  15.9949146  30.9737634  15.9949146  15.9949146   1.0078250  15.9949146   1.0078250
 NucSpn=           1           0           0           0           1           0           0           1           0           1
 AtZEff=  -0.0000000  -0.0000000  -0.0000000  -0.0000000  -0.0000000  -0.0000000  -0.0000000  -0.0000000  -0.0000000  -0.0000000
 NQMom=    0.0000000   0.0000000   0.0000000   0.0000000   0.0000000   0.0000000   0.0000000   0.0000000   0.0000000   0.0000000
 NMagM=    2.7928460   0.0000000   0.0000000   0.0000000   1.1316000   0.0000000   0.0000000   2.7928460   0.0000000   2.7928460
 AtZNuc=   1.0000000   6.0000000   8.0000000   8.0000000  15.0000000   8.0000000   8.0000000   1.0000000   8.0000000   1.0000000

  Atom        31          32
 IAtWgt=          16           1
 AtmWgt=  15.9949146   1.0078250
 NucSpn=           0           1
 AtZEff=  -0.0000000  -0.0000000
 NQMom=    0.0000000   0.0000000
 NMagM=    0.0000000   2.7928460
 AtZNuc=   8.0000000   1.0000000
 Leave Link  101 at Mon Feb 20 01:53:47 2023, MaxMem=  6710886400 cpu:               2.2 elap:               0.1
 (Enter /data0/home/software/g16/l202.exe)
                          Input orientation:                          
 ---------------------------------------------------------------------
 Center     Atomic      Atomic             Coordinates (Angstroms)
 Number     Number       Type             X           Y           Z
 ---------------------------------------------------------------------
      1          6           0        9.145479    1.379504   16.786063
      2          6           0        9.373766    0.933200   18.084569
      3          6           0        9.932450    3.111434   17.988718
      4          7           0        9.479984    2.730955   16.755414
      5          1           0        8.821035    0.833913   15.913372
      6          1           0        9.253789   -0.052866   18.508030
      7          1           0       10.308973    4.100437   18.260564
      8          6           0        9.378094    3.605017   15.601536
      9          1           0       10.234288    4.314602   15.557581
     10          1           0        9.418919    3.016635   14.657118
     11          1           0        8.435262    4.177961   15.625109
     12          7           0        9.854883    2.019522   18.813634
     13          6           0       10.241290    1.991912   20.224676
     14          1           0        9.368137    1.632690   20.818952
     15          1           0       10.460495    3.036086   20.569340
     16          6           0       11.461732    1.089042   20.473347
     17          1           0       11.443924    0.749895   21.528946
     18          1           0       11.393427    0.156810   19.865839
     19          6           0       12.784938    1.794095   20.185887
     20          1           0       13.631070    1.217437   20.610551
     21          1           0       12.825532    2.795341   20.653148
     22          6           0       12.977844    1.899428   18.674138
     23          8           0       12.638672    2.981263   18.128825
     24          8           0       13.419520    0.906822   18.076614
     25         15           0       12.401908    1.608519   14.856287
     26          8           0       11.149247    0.862638   15.023164
     27          8           0       13.728413    0.942577   15.394953
     28          1           0       13.670094    0.913349   16.468126
     29          8           0       12.689798    1.855086   13.307982
     30          1           0       13.587559    2.362027   13.241239
     31          8           0       12.357803    3.087310   15.445504
     32          1           0       12.546362    3.054729   16.490107
 ---------------------------------------------------------------------
                    Distance matrix (angstroms):
                    1          2          3          4          5
     1  C    0.000000
     2  C    1.391912   0.000000
     3  C    2.250619   2.250782   0.000000
     4  N    1.392571   2.238271   1.367673   0.000000
     5  H    1.079131   2.242647   3.275577   2.177617   0.000000
     6  H    2.242451   1.079833   3.277661   3.297345   2.775951
     7  H    3.306259   3.307110   1.092610   2.197312   4.288758
     8  C    2.531822   3.647476   2.499915   1.451138   2.843690
     9  H    3.362956   4.308137   2.729312   2.124080   3.773469
    10  H    2.699514   4.011254   3.372278   2.118534   2.588419
    11  H    3.111846   4.178302   2.994278   2.112548   3.378546
    12  N    2.241411   1.393953   1.370684   2.209741   3.299398
    13  C    3.660588   2.540379   2.519567   3.627885   4.684595
    14  H    4.046959   2.822440   3.242739   4.210824   5.000208
    15  H    4.334365   3.431792   2.635170   3.949752   5.405130
    16  C    4.364110   3.176500   3.549951   4.521751   5.275580
    17  H    5.307937   4.022796   4.516042   5.528858   6.198490
    18  H    4.004157   2.802630   3.793131   4.467911   4.764207
    19  C    4.997635   4.097898   3.834009   4.854747   5.906679
    20  H    5.896906   4.958428   4.913351   5.863816   6.734019
    21  H    5.522837   4.688268   3.945760   5.137039   6.507586
    22  C    4.303739   3.777640   3.348609   4.075287   5.102569
    23  O    4.070754   3.854365   2.712971   3.453436   4.908533
    24  O    4.489585   4.045848   4.126463   4.537948   5.082420
    25  P    3.792204   4.477444   4.262523   3.661173   3.813148
    26  O    2.718465   3.539705   3.915634   3.045938   2.492763
    27  O    4.809301   5.118308   5.083394   4.806069   4.935881
    28  H    4.559663   4.590394   4.594971   4.576379   4.881335
    29  O    4.988529   5.887421   5.575901   4.791121   4.774744
    30  H    5.767426   6.576887   6.038211   5.418275   5.674080
    31  O    3.877206   4.528723   3.514379   3.181933   4.219648
    32  H    3.802627   4.136249   3.013567   3.094817   4.375238
                    6          7          8          9         10
     6  H    0.000000
     7  H    4.292386   0.000000
     8  C    4.673678   2.860491   0.000000
     9  H    5.361092   2.712483   1.112884   0.000000
    10  H    4.927335   3.866736   1.113457   1.777745   0.000000
    11  H    5.184700   3.234567   1.103518   1.805471   1.803681
    12  N    2.179335   2.200521   3.613682   4.001652   4.296618
    13  C    2.846603   2.882394   4.971985   5.213129   5.720494
    14  H    2.862610   3.676996   5.577778   5.968659   6.315543
    15  H    3.904710   2.546811   5.116087   5.177210   6.003301
    16  C    3.168823   3.910724   5.865682   6.006298   6.458887
    17  H    3.816680   4.816281   6.895909   7.058864   7.514039
    18  H    2.542766   4.393762   5.842600   6.098518   6.261634
    19  C    4.323827   3.893133   5.991853   5.854911   6.587259
    20  H    5.019448   4.987029   6.991321   6.831037   7.511504
    21  H    5.046896   3.709556   6.169213   5.915023   6.899736
    22  C    4.208043   3.484014   5.030717   4.803446   5.481838
    23  O    4.561487   2.587934   4.172245   3.764326   4.735062
    24  O    4.296561   4.461896   5.453383   5.301339   5.670015
    25  P    5.099616   4.709473   3.699304   3.537411   3.304646
    26  O    4.071265   4.655122   3.315440   3.610929   2.787064
    27  O    5.541156   5.465929   5.104561   4.858591   4.839200
    28  H    4.959690   4.966639   5.139778   4.919591   5.077012
    29  O    6.518201   5.936160   4.392042   4.139981   3.723978
    30  H    7.235493   6.242181   4.983535   4.519117   4.450931
    31  O    5.373516   3.626113   3.028371   2.455224   3.043614
    32  H    4.956833   3.038739   3.336210   2.793308   3.625217
                   11         12         13         14         15
    11  H    0.000000
    12  N    4.103763   0.000000
    13  C    5.403384   1.463254   0.000000
    14  H    5.858726   2.099491   1.115617   0.000000
    15  H    5.463595   2.117232   1.121224   1.795849   0.000000
    16  C    6.496642   2.490463   1.538340   2.190465   2.191500
    17  H    7.460494   3.392628   2.165653   2.364807   2.667329
    18  H    6.550129   2.635137   2.196311   2.681128   3.107331
    19  C    6.738189   3.243319   2.551623   3.478700   2.663196
    20  H    7.785612   4.258150   3.498474   4.288177   3.655370
    21  H    6.816692   3.579171   2.739962   3.651415   2.378735
    22  C    5.926495   3.128381   3.146657   4.207299   3.349750
    23  O    5.036798   3.023804   3.334494   4.444303   3.271632
    24  O    6.446166   3.806302   3.986570   4.945807   4.416251
    25  P    4.788256   4.724072   5.799557   6.690121   6.200484
    26  O    4.326594   4.169103   5.399572   6.111996   5.996526
    27  O    6.207909   5.277445   6.048748   6.993427   6.468102
    28  H    6.226703   4.613118   5.199198   6.160680   5.623833
    29  O    5.372700   6.194835   7.338567   8.215690   7.687124
    30  H    5.960421   6.715785   7.752606   8.703861   7.995871
    31  O    4.075304   4.330021   5.340413   6.318858   5.464073
    32  H    4.348680   3.703308   4.515522   5.555377   4.581630
                   16         17         18         19         20
    16  C    0.000000
    17  H    1.108886   0.000000
    18  H    1.114804   1.766416   0.000000
    19  C    1.526633   2.166213   2.172426   0.000000
    20  H    2.177461   2.417778   2.585841   1.108519   0.000000
    21  H    2.191742   2.619105   3.103647   1.105656   1.772142
    22  C    2.488468   3.438643   2.639554   1.527643   2.154417
    23  O    3.234574   4.238779   3.541947   2.379552   3.202327
    24  O    3.100075   3.980729   2.805155   2.374654   2.561654
    25  P    5.718842   6.795539   5.312260   5.346568   5.897062
    26  O    5.463827   6.513428   4.899930   5.495162   6.124069
    27  O    5.563217   6.548426   5.104744   4.956640   5.223743
    28  H    4.577065   5.531225   4.159329   3.921857   4.153755
    29  O    7.310091   8.387962   6.897116   6.878833   7.390541
    30  H    7.644803   8.710926   7.318642   7.013906   7.457797
    31  O    5.484088   6.580802   5.390474   4.932148   5.638736
    32  H    4.572368   5.649560   4.595950   3.912149   4.640075
                   21         22         23         24         25
    21  H    0.000000
    22  C    2.177691   0.000000
    23  O    2.538049   1.258082   0.000000
    24  O    3.249285   1.239911   2.217150   0.000000
    25  P    5.932251   3.871991   3.556682   3.449408   0.000000
    26  O    6.184011   4.212875   4.043772   3.805213   1.467428
    27  O    5.647702   3.497424   3.580200   2.699629   1.579005
    28  H    4.665789   2.513573   2.845702   1.627902   2.165544
    29  O    7.406346   5.374064   4.950900   4.916457   1.594028
    30  H    7.463568   5.486542   5.017204   5.052396   2.140543
    31  O    5.236752   3.495653   2.700064   3.578339   1.592465
    32  H    4.180446   2.508164   1.642959   2.809433   2.186723
                   26         27         28         29         30
    26  O    0.000000
    27  O    2.607051   0.000000
    28  H    2.906055   1.075154   0.000000
    29  O    2.510000   2.503366   3.440110   0.000000
    30  H    3.371764   2.583246   3.538118   1.033160   0.000000
    31  O    2.566738   2.545782   2.737512   2.489497   2.626237
    32  H    2.984814   2.656651   2.418422   3.403768   3.481246
                   31         32
    31  O    0.000000
    32  H    1.061985   0.000000
 Symmetry turned off by external request.
 Stoichiometry    C8H15N2O6P
 Framework group  C1[X(C8H15N2O6P)]
 Deg. of freedom    90
 Full point group                 C1      NOp   1
 Rotational constants (GHZ):           0.6291957           0.3605391           0.2752606
 Leave Link  202 at Mon Feb 20 01:53:47 2023, MaxMem=  6710886400 cpu:               0.1 elap:               0.0
 (Enter /data0/home/software/g16/l122.exe)
 Counterpoise: doing full-system calculation.
 Leave Link  122 at Mon Feb 20 01:53:47 2023, MaxMem=  6710886400 cpu:               0.0 elap:               0.0
 (Enter /data0/home/software/g16/l301.exe)
 Standard basis: 6-311+G(2d,p) (5D, 7F)
 Ernie: Thresh=  0.10000D-02 Tol=  0.10000D-05 Strict=F.
   557 basis functions,   848 primitive gaussians,   591 cartesian basis functions
    70 alpha electrons       70 beta electrons
       nuclear repulsion energy      1561.5777930623 Hartrees.
 IExCor= 4336 DFT=T Ex+Corr=M062X ExCW=0 ScaHFX=  0.540000
 ScaDFX=  1.000000  1.000000  1.000000  1.000000 ScalE2=  1.000000  1.000000
 IRadAn=      5 IRanWt=     -1 IRanGd=            0 ICorTp=0 IEmpDi=131
 NAtoms=   32 NActive=   32 NUniq=   32 SFac= 1.00D+00 NAtFMM=   60 NAOKFM=F Big=F
 Integral buffers will be    131072 words long.
 Raffenetti 2 integral format.
 Two-electron integral symmetry is turned off.
 R6Disp:  Grimme-D3 Dispersion energy=       -0.0021531146 Hartrees.
 Nuclear repulsion after empirical dispersion term =     1561.5756399477 Hartrees.
 Leave Link  301 at Mon Feb 20 01:53:47 2023, MaxMem=  6710886400 cpu:               1.1 elap:               0.1
 (Enter /data0/home/software/g16/l302.exe)
 NPDir=0 NMtPBC=     1 NCelOv=     1 NCel=       1 NClECP=     1 NCelD=      1
         NCelK=      1 NCelE2=     1 NClLst=     1 CellRange=     0.0.
 One-electron integrals computed using PRISM.
 NBasis=   557 RedAO= T EigKep=  8.44D-06  NBF=   557
 NBsUse=   557 1.00D-06 EigRej= -1.00D+00 NBFU=   557
 Precomputing XC quadrature grid using
 IXCGrd= 4 IRadAn=           5 IRanWt=          -1 IRanGd=           0 AccXCQ= 0.00D+00.
 Generated NRdTot=       0 NPtTot=           0 NUsed=           0 NTot=          32
 NSgBfM=   590   590   590   590   590 MxSgAt=    32 MxSgA2=    32.
 Leave Link  302 at Mon Feb 20 01:53:47 2023, MaxMem=  6710886400 cpu:              14.0 elap:               0.6
 (Enter /data0/home/software/g16/l303.exe)
 DipDrv:  MaxL=1.
 Leave Link  303 at Mon Feb 20 01:53:48 2023, MaxMem=  6710886400 cpu:               1.4 elap:               0.1
 (Enter /data0/home/software/g16/l401.exe)
 ExpMin= 3.48D-02 ExpMax= 7.75D+04 ExpMxC= 2.65D+03 IAcc=3 IRadAn=         5 AccDes= 0.00D+00
 Harris functional with IExCor= 1009 and IRadAn=       5 diagonalized for initial guess.
 HarFok:  IExCor= 1009 AccDes= 0.00D+00 IRadAn=         5 IDoV= 1 UseB2=F ITyADJ=14
 ICtDFT=  3500011 ScaDFX=  1.000000  1.000000  1.000000  1.000000
 FoFCou: FMM=F IPFlag=           0 FMFlag=      100000 FMFlg1=           0
         NFxFlg=           0 DoJE=T BraDBF=F KetDBF=T FulRan=T
         wScrn=  0.000000 ICntrl=       500 IOpCl=  0 I1Cent=   200000004 NGrid=           0
         NMat0=    1 NMatS0=      1 NMatT0=    0 NMatD0=    1 NMtDS0=    0 NMtDT0=    0
 Symmetry not used in FoFCou.
 Harris En= -1215.64462899765    
 JPrj=0 DoOrth=F DoCkMO=F.
 Leave Link  401 at Mon Feb 20 01:53:50 2023, MaxMem=  6710886400 cpu:              55.8 elap:               2.4
 (Enter /data0/home/software/g16/l502.exe)
 Two-electron integral symmetry not used.
 Closed shell SCF:
 Using DIIS extrapolation, IDIIS=  1040.
 NGot=  6710886400 LenX=  6710169535 LenY=  6709819663
 Requested convergence on RMS density matrix=1.00D-08 within 128 cycles.
 Requested convergence on MAX density matrix=1.00D-06.
 Requested convergence on             energy=1.00D-06.
 No special actions if energy rises.
 Fock matrices will be formed incrementally for  20 cycles.

 Cycle   1  Pass 1  IDiag  1:
 FoFJK:  IHMeth= 1 ICntrl=       0 DoSepK=F KAlg= 0 I1Cent=           0 FoldK=F
 IRaf= 860000000 NMat=       1 IRICut=       1 DoRegI=T DoRafI=F ISym2E= 0 IDoP0=0 IntGTp=1.
 FoFCou: FMM=F IPFlag=           0 FMFlag=      100000 FMFlg1=           0
         NFxFlg=           0 DoJE=F BraDBF=F KetDBF=F FulRan=T
         wScrn=  0.000000 ICntrl=         0 IOpCl=  0 I1Cent=           0 NGrid=           0
         NMat0=    1 NMatS0=      1 NMatT0=    0 NMatD0=    1 NMtDS0=    0 NMtDT0=    0
 Symmetry not used in FoFCou.
 E= -1215.59114297157    
 DIIS: error= 2.99D-02 at cycle   1 NSaved=   1.
 NSaved= 1 IEnMin= 1 EnMin= -1215.59114297157     IErMin= 1 ErrMin= 2.99D-02
 ErrMax= 2.99D-02  0.00D+00 EMaxC= 1.00D-01 BMatC= 9.23D-01 BMatP= 9.23D-01
 IDIUse=3 WtCom= 7.01D-01 WtEn= 2.99D-01
 Coeff-Com:  0.100D+01
 Coeff-En:   0.100D+01
 Coeff:      0.100D+01
 Gap=     0.322 Goal=   None    Shift=    0.000
 GapD=    0.322 DampG=1.000 DampE=0.500 DampFc=0.5000 IDamp=-1.
 Damping current iteration by 5.00D-01
 RMSDP=6.10D-03 MaxDP=8.11D-01              OVMax= 2.42D-01

 Cycle   2  Pass 1  IDiag  1:
 RMSU=  3.04D-03    CP:  1.02D+00
 E= -1215.84917411404     Delta-E=       -0.258031142475 Rises=F Damp=T
 DIIS: error= 5.32D-03 at cycle   2 NSaved=   2.
 NSaved= 2 IEnMin= 2 EnMin= -1215.84917411404     IErMin= 2 ErrMin= 5.32D-03
 ErrMax= 5.32D-03  0.00D+00 EMaxC= 1.00D-01 BMatC= 5.96D-02 BMatP= 9.23D-01
 IDIUse=3 WtCom= 9.47D-01 WtEn= 5.32D-02
 Coeff-Com:  0.707D-02 0.993D+00
 Coeff-En:   0.728D-01 0.927D+00
 Coeff:      0.106D-01 0.989D+00
 Gap=     0.323 Goal=   None    Shift=    0.000
 RMSDP=2.67D-03 MaxDP=4.65D-01 DE=-2.58D-01 OVMax= 1.26D-01

 Cycle   3  Pass 1  IDiag  1:
 RMSU=  1.96D-03    CP:  8.87D-01  7.33D-01
 E= -1216.14158557078     Delta-E=       -0.292411456742 Rises=F Damp=F
 DIIS: error= 5.10D-03 at cycle   3 NSaved=   3.
 NSaved= 3 IEnMin= 3 EnMin= -1216.14158557078     IErMin= 3 ErrMin= 5.10D-03
 ErrMax= 5.10D-03  0.00D+00 EMaxC= 1.00D-01 BMatC= 2.35D-02 BMatP= 5.96D-02
 IDIUse=3 WtCom= 9.49D-01 WtEn= 5.10D-02
 Coeff-Com: -0.594D-01 0.362D+00 0.697D+00
 Coeff-En:   0.000D+00 0.000D+00 0.100D+01
 Coeff:     -0.563D-01 0.344D+00 0.713D+00
 Gap=     0.298 Goal=   None    Shift=    0.000
 RMSDP=5.54D-04 MaxDP=3.50D-02 DE=-2.92D-01 OVMax= 3.99D-02

 Cycle   4  Pass 1  IDiag  1:
 RMSU=  4.52D-04    CP:  8.91D-01  8.31D-01  9.40D-01
 E= -1216.15379799721     Delta-E=       -0.012212426423 Rises=F Damp=F
 DIIS: error= 2.40D-03 at cycle   4 NSaved=   4.
 NSaved= 4 IEnMin= 4 EnMin= -1216.15379799721     IErMin= 4 ErrMin= 2.40D-03
 ErrMax= 2.40D-03  0.00D+00 EMaxC= 1.00D-01 BMatC= 6.87D-03 BMatP= 2.35D-02
 IDIUse=3 WtCom= 9.76D-01 WtEn= 2.40D-02
 Coeff-Com: -0.320D-01 0.869D-01 0.394D+00 0.552D+00
 Coeff-En:   0.000D+00 0.000D+00 0.216D+00 0.784D+00
 Coeff:     -0.313D-01 0.848D-01 0.389D+00 0.557D+00
 Gap=     0.296 Goal=   None    Shift=    0.000
 RMSDP=2.32D-04 MaxDP=2.60D-02 DE=-1.22D-02 OVMax= 1.43D-02

 Cycle   5  Pass 1  IDiag  1:
 RMSU=  1.04D-04    CP:  8.85D-01  7.93D-01  9.81D-01  6.91D-01
 E= -1216.15864155183     Delta-E=       -0.004843554619 Rises=F Damp=F
 DIIS: error= 3.52D-04 at cycle   5 NSaved=   5.
 NSaved= 5 IEnMin= 5 EnMin= -1216.15864155183     IErMin= 5 ErrMin= 3.52D-04
 ErrMax= 3.52D-04  0.00D+00 EMaxC= 1.00D-01 BMatC= 1.79D-04 BMatP= 6.87D-03
 IDIUse=3 WtCom= 9.96D-01 WtEn= 3.52D-03
 Coeff-Com: -0.974D-02 0.186D-01 0.126D+00 0.235D+00 0.631D+00
 Coeff-En:   0.000D+00 0.000D+00 0.000D+00 0.000D+00 0.100D+01
 Coeff:     -0.970D-02 0.185D-01 0.126D+00 0.234D+00 0.632D+00
 Gap=     0.288 Goal=   None    Shift=    0.000
 RMSDP=3.59D-05 MaxDP=2.10D-03 DE=-4.84D-03 OVMax= 2.22D-03

 Cycle   6  Pass 1  IDiag  1:
 RMSU=  3.29D-05    CP:  8.85D-01  7.93D-01  9.80D-01  7.17D-01  9.30D-01
 E= -1216.15876940143     Delta-E=       -0.000127849603 Rises=F Damp=F
 DIIS: error= 9.01D-05 at cycle   6 NSaved=   6.
 NSaved= 6 IEnMin= 6 EnMin= -1216.15876940143     IErMin= 6 ErrMin= 9.01D-05
 ErrMax= 9.01D-05  0.00D+00 EMaxC= 1.00D-01 BMatC= 1.63D-05 BMatP= 1.79D-04
 IDIUse=1 WtCom= 1.00D+00 WtEn= 0.00D+00
 Coeff-Com: -0.199D-02 0.217D-02 0.264D-01 0.625D-01 0.287D+00 0.624D+00
 Coeff:     -0.199D-02 0.217D-02 0.264D-01 0.625D-01 0.287D+00 0.624D+00
 Gap=     0.288 Goal=   None    Shift=    0.000
 RMSDP=1.44D-05 MaxDP=1.68D-03 DE=-1.28D-04 OVMax= 8.91D-04

 Cycle   7  Pass 1  IDiag  1:
 RMSU=  1.28D-05    CP:  8.85D-01  7.94D-01  9.80D-01  7.20D-01  9.38D-01
                    CP:  8.88D-01
 E= -1216.15878199504     Delta-E=       -0.000012593611 Rises=F Damp=F
 DIIS: error= 4.42D-05 at cycle   7 NSaved=   7.
 NSaved= 7 IEnMin= 7 EnMin= -1216.15878199504     IErMin= 7 ErrMin= 4.42D-05
 ErrMax= 4.42D-05  0.00D+00 EMaxC= 1.00D-01 BMatC= 2.23D-06 BMatP= 1.63D-05
 IDIUse=1 WtCom= 1.00D+00 WtEn= 0.00D+00
 Coeff-Com:  0.262D-03-0.123D-02-0.335D-02 0.276D-03 0.617D-01 0.297D+00
 Coeff-Com:  0.645D+00
 Coeff:      0.262D-03-0.123D-02-0.335D-02 0.276D-03 0.617D-01 0.297D+00
 Coeff:      0.645D+00
 Gap=     0.288 Goal=   None    Shift=    0.000
 RMSDP=7.07D-06 MaxDP=1.15D-03 DE=-1.26D-05 OVMax= 3.78D-04

 Cycle   8  Pass 1  IDiag  1:
 RMSU=  4.16D-06    CP:  8.85D-01  7.93D-01  9.80D-01  7.23D-01  9.58D-01
                    CP:  9.45D-01  9.21D-01
 E= -1216.15878370944     Delta-E=       -0.000001714396 Rises=F Damp=F
 DIIS: error= 1.22D-05 at cycle   8 NSaved=   8.
 NSaved= 8 IEnMin= 8 EnMin= -1216.15878370944     IErMin= 8 ErrMin= 1.22D-05
 ErrMax= 1.22D-05  0.00D+00 EMaxC= 1.00D-01 BMatC= 3.19D-07 BMatP= 2.23D-06
 IDIUse=1 WtCom= 1.00D+00 WtEn= 0.00D+00
 Coeff-Com:  0.458D-03-0.961D-03-0.606D-02-0.103D-01-0.178D-01 0.336D-01
 Coeff-Com:  0.303D+00 0.698D+00
 Coeff:      0.458D-03-0.961D-03-0.606D-02-0.103D-01-0.178D-01 0.336D-01
 Coeff:      0.303D+00 0.698D+00
 Gap=     0.288 Goal=   None    Shift=    0.000
 RMSDP=3.23D-06 MaxDP=7.33D-04 DE=-1.71D-06 OVMax= 1.26D-04

 Cycle   9  Pass 1  IDiag  1:
 RMSU=  1.99D-06    CP:  8.85D-01  7.92D-01  9.81D-01  7.25D-01  9.69D-01
                    CP:  9.72D-01  9.17D-01  9.47D-01
 E= -1216.15878399284     Delta-E=       -0.000000283407 Rises=F Damp=F
 DIIS: error= 3.88D-06 at cycle   9 NSaved=   9.
 NSaved= 9 IEnMin= 9 EnMin= -1216.15878399284     IErMin= 9 ErrMin= 3.88D-06
 ErrMax= 3.88D-06  0.00D+00 EMaxC= 1.00D-01 BMatC= 2.37D-08 BMatP= 3.19D-07
 IDIUse=1 WtCom= 1.00D+00 WtEn= 0.00D+00
 Coeff-Com:  0.142D-03-0.243D-03-0.201D-02-0.391D-02-0.116D-01-0.994D-02
 Coeff-Com:  0.654D-01 0.271D+00 0.691D+00
 Coeff:      0.142D-03-0.243D-03-0.201D-02-0.391D-02-0.116D-01-0.994D-02
 Coeff:      0.654D-01 0.271D+00 0.691D+00
 Gap=     0.288 Goal=   None    Shift=    0.000
 RMSDP=6.25D-07 MaxDP=4.31D-05 DE=-2.83D-07 OVMax= 4.87D-05

 Cycle  10  Pass 1  IDiag  1:
 RMSU=  4.77D-07    CP:  8.85D-01  7.92D-01  9.81D-01  7.25D-01  9.69D-01
                    CP:  9.75D-01  9.33D-01  1.00D+00  9.24D-01
 E= -1216.15878401784     Delta-E=       -0.000000024993 Rises=F Damp=F
 DIIS: error= 1.28D-06 at cycle  10 NSaved=  10.
 NSaved=10 IEnMin=10 EnMin= -1216.15878401784     IErMin=10 ErrMin= 1.28D-06
 ErrMax= 1.28D-06  0.00D+00 EMaxC= 1.00D-01 BMatC= 3.44D-09 BMatP= 2.37D-08
 IDIUse=1 WtCom= 1.00D+00 WtEn= 0.00D+00
 Coeff-Com: -0.388D-05 0.220D-04-0.131D-04-0.199D-03-0.246D-02-0.861D-02
 Coeff-Com: -0.143D-01 0.788D-02 0.267D+00 0.751D+00
 Coeff:     -0.388D-05 0.220D-04-0.131D-04-0.199D-03-0.246D-02-0.861D-02
 Coeff:     -0.143D-01 0.788D-02 0.267D+00 0.751D+00
 Gap=     0.288 Goal=   None    Shift=    0.000
 RMSDP=2.92D-07 MaxDP=5.66D-05 DE=-2.50D-08 OVMax= 2.54D-05

 Cycle  11  Pass 1  IDiag  1:
 RMSU=  1.71D-07    CP:  8.85D-01  7.92D-01  9.81D-01  7.25D-01  9.70D-01
                    CP:  9.76D-01  9.30D-01  1.02D+00  1.00D+00  1.17D+00
 E= -1216.15878402147     Delta-E=       -0.000000003638 Rises=F Damp=F
 DIIS: error= 6.43D-07 at cycle  11 NSaved=  11.
 NSaved=11 IEnMin=11 EnMin= -1216.15878402147     IErMin=11 ErrMin= 6.43D-07
 ErrMax= 6.43D-07  0.00D+00 EMaxC= 1.00D-01 BMatC= 6.26D-10 BMatP= 3.44D-09
 IDIUse=1 WtCom= 1.00D+00 WtEn= 0.00D+00
 Coeff-Com: -0.221D-04 0.458D-04 0.285D-03 0.475D-03 0.513D-03-0.234D-02
 Coeff-Com: -0.160D-01-0.388D-01 0.220D-01 0.349D+00 0.684D+00
 Coeff:     -0.221D-04 0.458D-04 0.285D-03 0.475D-03 0.513D-03-0.234D-02
 Coeff:     -0.160D-01-0.388D-01 0.220D-01 0.349D+00 0.684D+00
 Gap=     0.288 Goal=   None    Shift=    0.000
 RMSDP=1.38D-07 MaxDP=3.20D-05 DE=-3.64D-09 OVMax= 1.03D-05

 Cycle  12  Pass 1  IDiag  1:
 RMSU=  6.60D-08    CP:  8.85D-01  7.92D-01  9.81D-01  7.25D-01  9.70D-01
                    CP:  9.77D-01  9.27D-01  1.03D+00  1.04D+00  1.23D+00
                    CP:  9.66D-01
 E= -1216.15878402210     Delta-E=       -0.000000000628 Rises=F Damp=F
 DIIS: error= 2.09D-07 at cycle  12 NSaved=  12.
 NSaved=12 IEnMin=12 EnMin= -1216.15878402210     IErMin=12 ErrMin= 2.09D-07
 ErrMax= 2.09D-07  0.00D+00 EMaxC= 1.00D-01 BMatC= 7.49D-11 BMatP= 6.26D-10
 IDIUse=1 WtCom= 1.00D+00 WtEn= 0.00D+00
 Coeff-Com: -0.824D-05 0.162D-04 0.118D-03 0.215D-03 0.467D-03 0.127D-04
 Coeff-Com: -0.477D-02-0.165D-01-0.191D-01 0.589D-01 0.296D+00 0.684D+00
 Coeff:     -0.824D-05 0.162D-04 0.118D-03 0.215D-03 0.467D-03 0.127D-04
 Coeff:     -0.477D-02-0.165D-01-0.191D-01 0.589D-01 0.296D+00 0.684D+00
 Gap=     0.288 Goal=   None    Shift=    0.000
 RMSDP=3.69D-08 MaxDP=4.79D-06 DE=-6.28D-10 OVMax= 4.41D-06

 Cycle  13  Pass 1  IDiag  1:
 RMSU=  2.59D-08    CP:  8.85D-01  7.92D-01  9.81D-01  7.25D-01  9.70D-01
                    CP:  9.77D-01  9.27D-01  1.03D+00  1.04D+00  1.26D+00
                    CP:  1.05D+00  9.82D-01
 E= -1216.15878402219     Delta-E=       -0.000000000083 Rises=F Damp=F
 DIIS: error= 1.15D-07 at cycle  13 NSaved=  13.
 NSaved=13 IEnMin=13 EnMin= -1216.15878402219     IErMin=13 ErrMin= 1.15D-07
 ErrMax= 1.15D-07  0.00D+00 EMaxC= 1.00D-01 BMatC= 1.59D-11 BMatP= 7.49D-11
 IDIUse=1 WtCom= 1.00D+00 WtEn= 0.00D+00
 Coeff-Com: -0.459D-06 0.426D-06 0.148D-04 0.336D-04 0.155D-03 0.360D-03
 Coeff-Com:  0.914D-04-0.215D-02-0.134D-01-0.303D-01 0.367D-01 0.352D+00
 Coeff-Com:  0.656D+00
 Coeff:     -0.459D-06 0.426D-06 0.148D-04 0.336D-04 0.155D-03 0.360D-03
 Coeff:      0.914D-04-0.215D-02-0.134D-01-0.303D-01 0.367D-01 0.352D+00
 Coeff:      0.656D+00
 Gap=     0.288 Goal=   None    Shift=    0.000
 RMSDP=1.41D-08 MaxDP=8.11D-07 DE=-8.32D-11 OVMax= 1.63D-06

 Cycle  14  Pass 1  IDiag  1:
 RMSU=  9.94D-09    CP:  8.85D-01  7.92D-01  9.81D-01  7.25D-01  9.70D-01
                    CP:  9.77D-01  9.27D-01  1.03D+00  1.04D+00  1.27D+00
                    CP:  1.09D+00  1.07D+00  9.50D-01
 E= -1216.15878402214     Delta-E=        0.000000000044 Rises=F Damp=F
 DIIS: error= 4.41D-08 at cycle  14 NSaved=  14.
 NSaved=14 IEnMin=13 EnMin= -1216.15878402219     IErMin=14 ErrMin= 4.41D-08
 ErrMax= 4.41D-08  0.00D+00 EMaxC= 1.00D-01 BMatC= 1.52D-12 BMatP= 1.59D-11
 IDIUse=1 WtCom= 1.00D+00 WtEn= 0.00D+00
 Coeff-Com:  0.104D-05-0.216D-05-0.104D-04-0.162D-04-0.187D-06 0.150D-03
 Coeff-Com:  0.737D-03 0.147D-02-0.302D-02-0.222D-01-0.272D-01 0.546D-01
 Coeff-Com:  0.281D+00 0.714D+00
 Coeff:      0.104D-05-0.216D-05-0.104D-04-0.162D-04-0.187D-06 0.150D-03
 Coeff:      0.737D-03 0.147D-02-0.302D-02-0.222D-01-0.272D-01 0.546D-01
 Coeff:      0.281D+00 0.714D+00
 Gap=     0.288 Goal=   None    Shift=    0.000
 RMSDP=6.73D-09 MaxDP=4.67D-07 DE= 4.37D-11 OVMax= 6.65D-07

 SCF Done:  E(RM062X) =  -1216.15878402     A.U. after   14 cycles
            NFock= 14  Conv=0.67D-08     -V/T= 2.0036
 KE= 1.211761969131D+03 PE=-5.986110407328D+03 EE= 1.996614014227D+03
 Leave Link  502 at Mon Feb 20 01:55:54 2023, MaxMem=  6710886400 cpu:            2962.8 elap:             123.8
 (Enter /data0/home/software/g16/l601.exe)
 Copying SCF densities to generalized density rwf, IOpCl= 0 IROHF=0.

 **********************************************************************

            Population analysis using the SCF density.

 **********************************************************************

 Alpha  occ. eigenvalues --  -78.11659 -19.63414 -19.60777 -19.60318 -19.57410
 Alpha  occ. eigenvalues --  -19.57262 -19.54729 -14.87167 -14.87100 -10.67932
 Alpha  occ. eigenvalues --  -10.63095 -10.63047 -10.62381 -10.62269 -10.60859
 Alpha  occ. eigenvalues --  -10.57070 -10.54218  -6.92384  -5.04329  -5.04253
 Alpha  occ. eigenvalues --   -5.04091  -1.19897  -1.18387  -1.16712  -1.10962
 Alpha  occ. eigenvalues --   -1.09459  -1.08744  -1.06574  -1.05067  -0.93389
 Alpha  occ. eigenvalues --   -0.90181  -0.86314  -0.81451  -0.75336  -0.72508
 Alpha  occ. eigenvalues --   -0.70967  -0.66913  -0.65733  -0.61205  -0.60171
 Alpha  occ. eigenvalues --   -0.59697  -0.58478  -0.57635  -0.57262  -0.56492
 Alpha  occ. eigenvalues --   -0.55687  -0.53598  -0.52984  -0.52231  -0.51340
 Alpha  occ. eigenvalues --   -0.51254  -0.49014  -0.48618  -0.47695  -0.47445
 Alpha  occ. eigenvalues --   -0.45859  -0.45090  -0.44320  -0.42920  -0.42668
 Alpha  occ. eigenvalues --   -0.41149  -0.40503  -0.38479  -0.38020  -0.35377
 Alpha  occ. eigenvalues --   -0.34132  -0.32807  -0.32391  -0.32061  -0.31711
 Alpha virt. eigenvalues --   -0.02892  -0.00236   0.00179   0.00807   0.01594
 Alpha virt. eigenvalues --    0.01738   0.02411   0.02987   0.03470   0.03680
 Alpha virt. eigenvalues --    0.04872   0.05438   0.05690   0.05914   0.06550
 Alpha virt. eigenvalues --    0.07208   0.07945   0.08300   0.08763   0.09162
 Alpha virt. eigenvalues --    0.09696   0.09708   0.10224   0.10479   0.11186
 Alpha virt. eigenvalues --    0.11906   0.12182   0.13043   0.13448   0.13791
 Alpha virt. eigenvalues --    0.14253   0.15043   0.15265   0.15663   0.16140
 Alpha virt. eigenvalues --    0.16834   0.17133   0.17389   0.17550   0.17978
 Alpha virt. eigenvalues --    0.18364   0.18829   0.19191   0.19635   0.20124
 Alpha virt. eigenvalues --    0.20811   0.21090   0.21234   0.21629   0.22319
 Alpha virt. eigenvalues --    0.23081   0.23331   0.23481   0.24234   0.24520
 Alpha virt. eigenvalues --    0.24726   0.25236   0.25621   0.26404   0.26469
 Alpha virt. eigenvalues --    0.26690   0.27009   0.27893   0.28372   0.28576
 Alpha virt. eigenvalues --    0.28988   0.29156   0.29345   0.29782   0.30871
 Alpha virt. eigenvalues --    0.31159   0.31848   0.32337   0.32495   0.32919
 Alpha virt. eigenvalues --    0.33398   0.33531   0.34276   0.34678   0.34847
 Alpha virt. eigenvalues --    0.34963   0.35653   0.36263   0.37028   0.37448
 Alpha virt. eigenvalues --    0.38468   0.38693   0.39411   0.39871   0.40304
 Alpha virt. eigenvalues --    0.41519   0.42092   0.42445   0.43370   0.43704
 Alpha virt. eigenvalues --    0.44052   0.44659   0.45004   0.45770   0.46782
 Alpha virt. eigenvalues --    0.47043   0.47809   0.49483   0.50100   0.50913
 Alpha virt. eigenvalues --    0.51459   0.52791   0.52921   0.53657   0.54868
 Alpha virt. eigenvalues --    0.55161   0.55998   0.57866   0.58035   0.58274
 Alpha virt. eigenvalues --    0.58786   0.59852   0.60150   0.60683   0.62189
 Alpha virt. eigenvalues --    0.63033   0.63507   0.64003   0.64327   0.64848
 Alpha virt. eigenvalues --    0.65526   0.65981   0.67158   0.68233   0.68545
 Alpha virt. eigenvalues --    0.69124   0.69991   0.70557   0.71267   0.71383
 Alpha virt. eigenvalues --    0.72175   0.73548   0.73841   0.74071   0.74850
 Alpha virt. eigenvalues --    0.75140   0.76199   0.76966   0.77876   0.78561
 Alpha virt. eigenvalues --    0.79449   0.80040   0.81184   0.82322   0.83220
 Alpha virt. eigenvalues --    0.84507   0.86286   0.87138   0.87439   0.87977
 Alpha virt. eigenvalues --    0.88393   0.89446   0.90993   0.91641   0.92089
 Alpha virt. eigenvalues --    0.92671   0.93250   0.95174   0.96402   0.98105
 Alpha virt. eigenvalues --    0.98640   1.00865   1.01635   1.04497   1.05829
 Alpha virt. eigenvalues --    1.06234   1.07209   1.09487   1.10108   1.11203
 Alpha virt. eigenvalues --    1.12478   1.13113   1.13235   1.14346   1.15039
 Alpha virt. eigenvalues --    1.16794   1.17014   1.17626   1.18681   1.19603
 Alpha virt. eigenvalues --    1.20849   1.22058   1.23546   1.24105   1.24487
 Alpha virt. eigenvalues --    1.25022   1.25234   1.26028   1.26074   1.27322
 Alpha virt. eigenvalues --    1.28303   1.29008   1.30135   1.30748   1.31126
 Alpha virt. eigenvalues --    1.31927   1.32416   1.32815   1.33291   1.34603
 Alpha virt. eigenvalues --    1.34773   1.35740   1.36006   1.36343   1.37370
 Alpha virt. eigenvalues --    1.38089   1.39364   1.39786   1.41069   1.42028
 Alpha virt. eigenvalues --    1.42170   1.43068   1.43481   1.44499   1.45330
 Alpha virt. eigenvalues --    1.45583   1.46818   1.47934   1.48568   1.49366
 Alpha virt. eigenvalues --    1.50195   1.51272   1.52117   1.53020   1.55301
 Alpha virt. eigenvalues --    1.55641   1.58342   1.59645   1.60256   1.60938
 Alpha virt. eigenvalues --    1.62133   1.63408   1.65234   1.67398   1.68275
 Alpha virt. eigenvalues --    1.69863   1.71240   1.72269   1.73174   1.73937
 Alpha virt. eigenvalues --    1.76059   1.77072   1.77533   1.78409   1.79194
 Alpha virt. eigenvalues --    1.79974   1.80741   1.81911   1.83557   1.84391
 Alpha virt. eigenvalues --    1.85270   1.87919   1.88763   1.89278   1.91082
 Alpha virt. eigenvalues --    1.91363   1.92589   1.94028   1.95457   1.96408
 Alpha virt. eigenvalues --    1.97795   1.99071   2.00213   2.02102   2.03240
 Alpha virt. eigenvalues --    2.03819   2.04380   2.06376   2.07084   2.07384
 Alpha virt. eigenvalues --    2.09962   2.11899   2.13152   2.16268   2.17287
 Alpha virt. eigenvalues --    2.18256   2.19160   2.19871   2.21217   2.22800
 Alpha virt. eigenvalues --    2.23388   2.24822   2.25777   2.27298   2.27571
 Alpha virt. eigenvalues --    2.29705   2.31579   2.32411   2.32849   2.33013
 Alpha virt. eigenvalues --    2.34210   2.34891   2.35968   2.37034   2.37798
 Alpha virt. eigenvalues --    2.39040   2.41058   2.42299   2.44908   2.46104
 Alpha virt. eigenvalues --    2.47262   2.48804   2.53142   2.54890   2.58141
 Alpha virt. eigenvalues --    2.59734   2.61442   2.64676   2.68491   2.68964
 Alpha virt. eigenvalues --    2.71092   2.72157   2.74478   2.75354   2.76668
 Alpha virt. eigenvalues --    2.78476   2.81268   2.82028   2.82645   2.83695
 Alpha virt. eigenvalues --    2.84576   2.87075   2.89087   2.90086   2.90797
 Alpha virt. eigenvalues --    2.93045   2.94017   2.95154   2.98252   2.99480
 Alpha virt. eigenvalues --    3.02115   3.03556   3.04931   3.08105   3.09394
 Alpha virt. eigenvalues --    3.09494   3.11565   3.13148   3.15009   3.18814
 Alpha virt. eigenvalues --    3.21202   3.23710   3.25502   3.28182   3.29245
 Alpha virt. eigenvalues --    3.31166   3.33654   3.35388   3.36141   3.37739
 Alpha virt. eigenvalues --    3.39592   3.40545   3.42298   3.43186   3.44540
 Alpha virt. eigenvalues --    3.45659   3.46870   3.49051   3.50972   3.52466
 Alpha virt. eigenvalues --    3.53016   3.54785   3.55363   3.56999   3.58048
 Alpha virt. eigenvalues --    3.59864   3.61487   3.61863   3.63783   3.64498
 Alpha virt. eigenvalues --    3.66921   3.68004   3.69365   3.70171   3.71361
 Alpha virt. eigenvalues --    3.72924   3.74493   3.75292   3.80726   3.82697
 Alpha virt. eigenvalues --    3.87172   3.90186   3.92247   3.94108   3.97290
 Alpha virt. eigenvalues --    4.02770   4.03799   4.04459   4.06736   4.16106
 Alpha virt. eigenvalues --    4.16430   4.17456   4.18645   4.22209   4.26273
 Alpha virt. eigenvalues --    4.40047   4.41555   4.50680   4.53140   4.95849
 Alpha virt. eigenvalues --    5.01572   5.03509   5.05534   5.07140   5.11634
 Alpha virt. eigenvalues --    5.12616   5.12834   5.15328   5.17554   5.18945
 Alpha virt. eigenvalues --    5.20897   5.26201   5.27983   5.29049   5.32230
 Alpha virt. eigenvalues --    5.34682   5.37118   5.38476   5.44023   5.45723
 Alpha virt. eigenvalues --    5.47356   5.49046   5.51582   5.56872   5.58170
 Alpha virt. eigenvalues --    5.62263   5.66363   5.68817   5.84327   5.95560
 Alpha virt. eigenvalues --    6.24864   6.79179   6.81021   6.81981   6.83721
 Alpha virt. eigenvalues --    6.85131   6.86223   6.87196   6.88528   6.91938
 Alpha virt. eigenvalues --    6.93997   6.97755   6.98883   7.02384   7.03813
 Alpha virt. eigenvalues --    7.06018   7.06936   7.08166   7.09292   7.10288
 Alpha virt. eigenvalues --    7.15397   7.23351   7.23771   7.30592   7.33601
 Alpha virt. eigenvalues --    7.33916   7.35027   7.40596   7.41095   7.45219
 Alpha virt. eigenvalues --    7.48580   7.74069  14.32227  14.36149  14.42243
 Alpha virt. eigenvalues --   23.91534  23.96561  24.01783  24.04116  24.05484
 Alpha virt. eigenvalues --   24.09698  24.16797  24.25228  35.59625  35.68494
 Alpha virt. eigenvalues --   50.06918  50.12518  50.13369  50.17067  50.18847
 Alpha virt. eigenvalues --   50.21546 163.99172
          Condensed to atoms (all electrons):
               1          2          3          4          5          6
     1  C    8.446529  -2.141346  -0.409146   0.042012   0.402686  -0.022909
     2  C   -2.141346   7.632694  -0.022618   0.176741  -0.003916   0.396805
     3  C   -0.409146  -0.022618   6.260850   0.306720   0.004204   0.005023
     4  N    0.042012   0.176741   0.306720   6.282182  -0.040054   0.012700
     5  H    0.402686  -0.003916   0.004204  -0.040054   0.447313  -0.001221
     6  H   -0.022909   0.396805   0.005023   0.012700  -0.001221   0.473814
     7  H    0.011255   0.002796   0.401268  -0.030189  -0.000013  -0.000033
     8  C    0.059330  -0.121952  -0.078946   0.096013  -0.006137  -0.000821
     9  H   -0.019534   0.000316   0.038962  -0.032271  -0.000041   0.000015
    10  H   -0.008057   0.027011  -0.018676  -0.042362   0.002284  -0.000013
    11  H   -0.010015   0.008659  -0.013807  -0.049498   0.000569   0.000009
    12  N    0.046951   0.237321   0.127991  -0.096606   0.007909  -0.041238
    13  C   -0.094786  -0.079556  -0.278909  -0.006155   0.000433   0.015947
    14  H    0.000938  -0.009269   0.001372  -0.002586  -0.000021  -0.000240
    15  H   -0.001665  -0.005564   0.020511   0.004082   0.000008  -0.000096
    16  C    0.113185  -0.161212   0.091141  -0.030702  -0.000400  -0.005778
    17  H    0.001050   0.001537  -0.001825  -0.000206  -0.000001  -0.000057
    18  H   -0.009609   0.011802   0.004344   0.001163   0.000035  -0.000327
    19  C   -0.081503   0.181398   0.020221   0.026828   0.000372  -0.001176
    20  H   -0.000750   0.002784   0.002145  -0.000096   0.000000  -0.000004
    21  H    0.000980  -0.003067  -0.005410  -0.000056  -0.000000  -0.000014
    22  C    0.112876  -0.154868  -0.223067   0.001749  -0.000603   0.001783
    23  O   -0.054062   0.050995   0.069282   0.017115   0.000313  -0.000194
    24  O   -0.002993  -0.006808   0.018624  -0.009949   0.000055   0.000006
    25  P   -0.074898   0.043167   0.013694   0.016590   0.000403  -0.000080
    26  O    0.014869   0.009800  -0.013222   0.009609  -0.015507  -0.000145
    27  O   -0.028478   0.023149   0.002176   0.008696   0.000033  -0.000007
    28  H    0.014832  -0.016042   0.000895  -0.001660  -0.000049   0.000017
    29  O    0.009255  -0.006347  -0.000529  -0.002888  -0.000060   0.000000
    30  H   -0.001983   0.001400   0.001000   0.000319   0.000000   0.000000
    31  O    0.015865   0.008733  -0.022116   0.004118  -0.000252  -0.000031
    32  H    0.011621  -0.019668   0.041279  -0.001742  -0.000138   0.000034
               7          8          9         10         11         12
     1  C    0.011255   0.059330  -0.019534  -0.008057  -0.010015   0.046951
     2  C    0.002796  -0.121952   0.000316   0.027011   0.008659   0.237321
     3  C    0.401268  -0.078946   0.038962  -0.018676  -0.013807   0.127991
     4  N   -0.030189   0.096013  -0.032271  -0.042362  -0.049498  -0.096606
     5  H   -0.000013  -0.006137  -0.000041   0.002284   0.000569   0.007909
     6  H   -0.000033  -0.000821   0.000015  -0.000013   0.000009  -0.041238
     7  H    0.425454  -0.000543   0.000372   0.000093   0.000509  -0.026750
     8  C   -0.000543   5.469534   0.395779   0.406528   0.416003  -0.049788
     9  H    0.000372   0.395779   0.438139  -0.017714  -0.025679   0.004268
    10  H    0.000093   0.406528  -0.017714   0.441536  -0.019286   0.000296
    11  H    0.000509   0.416003  -0.025679  -0.019286   0.507891  -0.006454
    12  N   -0.026750  -0.049788   0.004268   0.000296  -0.006454   6.387356
    13  C   -0.006108  -0.010861   0.000305   0.000871  -0.001481   0.177892
    14  H    0.000248  -0.000419   0.000003  -0.000001  -0.000011  -0.050589
    15  H    0.002064   0.000975   0.000005   0.000001  -0.000001  -0.049918
    16  C    0.005278  -0.006044   0.000256  -0.000007   0.000144  -0.015944
    17  H   -0.000045   0.000119  -0.000000   0.000000  -0.000000  -0.003732
    18  H    0.000091  -0.000104   0.000000   0.000001  -0.000000   0.010197
    19  C    0.002095   0.014141   0.000101  -0.000323  -0.000268  -0.026376
    20  H   -0.000032  -0.000014  -0.000000   0.000000   0.000000   0.000017
    21  H   -0.000005  -0.000294   0.000000  -0.000000   0.000000   0.006440
    22  C    0.000620  -0.014403  -0.000348  -0.000119   0.000414   0.080750
    23  O   -0.021879  -0.000582  -0.002076   0.000549   0.000070  -0.022726
    24  O   -0.000379  -0.000861   0.000032   0.000015   0.000004   0.006081
    25  P   -0.000574  -0.007457  -0.000651   0.000128   0.002858  -0.001175
    26  O    0.000323  -0.028327  -0.000588   0.008882   0.001096  -0.005752
    27  O   -0.000065  -0.000358   0.000190  -0.000151   0.000027  -0.004361
    28  H    0.000014   0.001171  -0.000060  -0.000032  -0.000002   0.000530
    29  O    0.000019   0.002838   0.000343   0.000907  -0.000136   0.000531
    30  H   -0.000001  -0.001667   0.000073   0.000132   0.000003  -0.000044
    31  O   -0.002340  -0.019558  -0.011521  -0.003753   0.001714  -0.005736
    32  H    0.002013   0.007476   0.003313  -0.000667  -0.000104  -0.005887
              13         14         15         16         17         18
     1  C   -0.094786   0.000938  -0.001665   0.113185   0.001050  -0.009609
     2  C   -0.079556  -0.009269  -0.005564  -0.161212   0.001537   0.011802
     3  C   -0.278909   0.001372   0.020511   0.091141  -0.001825   0.004344
     4  N   -0.006155  -0.002586   0.004082  -0.030702  -0.000206   0.001163
     5  H    0.000433  -0.000021   0.000008  -0.000400  -0.000001   0.000035
     6  H    0.015947  -0.000240  -0.000096  -0.005778  -0.000057  -0.000327
     7  H   -0.006108   0.000248   0.002064   0.005278  -0.000045   0.000091
     8  C   -0.010861  -0.000419   0.000975  -0.006044   0.000119  -0.000104
     9  H    0.000305   0.000003   0.000005   0.000256  -0.000000   0.000000
    10  H    0.000871  -0.000001   0.000001  -0.000007   0.000000   0.000001
    11  H   -0.001481  -0.000011  -0.000001   0.000144  -0.000000  -0.000000
    12  N    0.177892  -0.050589  -0.049918  -0.015944  -0.003732   0.010197
    13  C    6.076367   0.450773   0.435733  -0.098664  -0.014255  -0.070923
    14  H    0.450773   0.503418  -0.024091  -0.067083  -0.006098  -0.001614
    15  H    0.435733  -0.024091   0.471551  -0.028800  -0.000188   0.003510
    16  C   -0.098664  -0.067083  -0.028800   5.900919   0.432283   0.458564
    17  H   -0.014255  -0.006098  -0.000188   0.432283   0.523085  -0.028555
    18  H   -0.070923  -0.001614   0.003510   0.458564  -0.028555   0.466784
    19  C   -0.225537   0.014011  -0.014777  -0.207939  -0.078708  -0.003179
    20  H    0.021058  -0.000178  -0.000054  -0.043585  -0.006433  -0.002003
    21  H   -0.012004  -0.000162   0.000922  -0.022225  -0.003269   0.004074
    22  C    0.117278   0.003228  -0.002284  -0.079941   0.023326  -0.033983
    23  O   -0.011228   0.000425  -0.004425  -0.020820  -0.001541   0.002635
    24  O    0.013810  -0.000124  -0.000167   0.004633  -0.000755  -0.002614
    25  P    0.002184  -0.000042   0.000195   0.002531   0.000020   0.000731
    26  O   -0.002374   0.000030  -0.000027  -0.001773  -0.000010  -0.000140
    27  O   -0.002495   0.000001  -0.000008  -0.003837  -0.000010   0.000043
    28  H    0.001299  -0.000000   0.000004   0.006846   0.000009  -0.000018
    29  O   -0.000012  -0.000000   0.000001   0.000009   0.000000   0.000005
    30  H    0.000022  -0.000000  -0.000000  -0.000003   0.000000   0.000000
    31  O    0.001146   0.000000  -0.000105  -0.010755  -0.000005   0.000129
    32  H   -0.006245   0.000004   0.000133   0.010055   0.000004  -0.000166
              19         20         21         22         23         24
     1  C   -0.081503  -0.000750   0.000980   0.112876  -0.054062  -0.002993
     2  C    0.181398   0.002784  -0.003067  -0.154868   0.050995  -0.006808
     3  C    0.020221   0.002145  -0.005410  -0.223067   0.069282   0.018624
     4  N    0.026828  -0.000096  -0.000056   0.001749   0.017115  -0.009949
     5  H    0.000372   0.000000  -0.000000  -0.000603   0.000313   0.000055
     6  H   -0.001176  -0.000004  -0.000014   0.001783  -0.000194   0.000006
     7  H    0.002095  -0.000032  -0.000005   0.000620  -0.021879  -0.000379
     8  C    0.014141  -0.000014  -0.000294  -0.014403  -0.000582  -0.000861
     9  H    0.000101  -0.000000   0.000000  -0.000348  -0.002076   0.000032
    10  H   -0.000323   0.000000  -0.000000  -0.000119   0.000549   0.000015
    11  H   -0.000268   0.000000   0.000000   0.000414   0.000070   0.000004
    12  N   -0.026376   0.000017   0.006440   0.080750  -0.022726   0.006081
    13  C   -0.225537   0.021058  -0.012004   0.117278  -0.011228   0.013810
    14  H    0.014011  -0.000178  -0.000162   0.003228   0.000425  -0.000124
    15  H   -0.014777  -0.000054   0.000922  -0.002284  -0.004425  -0.000167
    16  C   -0.207939  -0.043585  -0.022225  -0.079941  -0.020820   0.004633
    17  H   -0.078708  -0.006433  -0.003269   0.023326  -0.001541  -0.000755
    18  H   -0.003179  -0.002003   0.004074  -0.033983   0.002635  -0.002614
    19  C    6.896961   0.451712   0.477849  -0.743882  -0.060357  -0.165963
    20  H    0.451712   0.497689  -0.032004  -0.078715   0.008837  -0.004193
    21  H    0.477849  -0.032004   0.504110  -0.085996  -0.009373   0.004320
    22  C   -0.743882  -0.078715  -0.085996   5.816933   0.208197   0.502881
    23  O   -0.060357   0.008837  -0.009373   0.208197   8.507351  -0.049026
    24  O   -0.165963  -0.004193   0.004320   0.502881  -0.049026   8.146479
    25  P   -0.023282  -0.000057   0.000292  -0.021961   0.042742   0.034691
    26  O    0.002350   0.000010  -0.000002   0.011278  -0.011765  -0.007095
    27  O    0.020437   0.000068  -0.000059  -0.000196  -0.022658  -0.034495
    28  H    0.005992  -0.000318   0.000170  -0.003861   0.012717   0.080560
    29  O   -0.002158   0.000000   0.000001  -0.006042   0.005225   0.002800
    30  H   -0.000318   0.000000  -0.000000  -0.001178   0.000085   0.000254
    31  O   -0.017923   0.000039   0.000195  -0.023348   0.008093  -0.012688
    32  H    0.024035  -0.000054  -0.000527   0.004374   0.023371   0.005863
              25         26         27         28         29         30
     1  C   -0.074898   0.014869  -0.028478   0.014832   0.009255  -0.001983
     2  C    0.043167   0.009800   0.023149  -0.016042  -0.006347   0.001400
     3  C    0.013694  -0.013222   0.002176   0.000895  -0.000529   0.001000
     4  N    0.016590   0.009609   0.008696  -0.001660  -0.002888   0.000319
     5  H    0.000403  -0.015507   0.000033  -0.000049  -0.000060   0.000000
     6  H   -0.000080  -0.000145  -0.000007   0.000017   0.000000   0.000000
     7  H   -0.000574   0.000323  -0.000065   0.000014   0.000019  -0.000001
     8  C   -0.007457  -0.028327  -0.000358   0.001171   0.002838  -0.001667
     9  H   -0.000651  -0.000588   0.000190  -0.000060   0.000343   0.000073
    10  H    0.000128   0.008882  -0.000151  -0.000032   0.000907   0.000132
    11  H    0.002858   0.001096   0.000027  -0.000002  -0.000136   0.000003
    12  N   -0.001175  -0.005752  -0.004361   0.000530   0.000531  -0.000044
    13  C    0.002184  -0.002374  -0.002495   0.001299  -0.000012   0.000022
    14  H   -0.000042   0.000030   0.000001  -0.000000  -0.000000  -0.000000
    15  H    0.000195  -0.000027  -0.000008   0.000004   0.000001  -0.000000
    16  C    0.002531  -0.001773  -0.003837   0.006846   0.000009  -0.000003
    17  H    0.000020  -0.000010  -0.000010   0.000009   0.000000   0.000000
    18  H    0.000731  -0.000140   0.000043  -0.000018   0.000005   0.000000
    19  C   -0.023282   0.002350   0.020437   0.005992  -0.002158  -0.000318
    20  H   -0.000057   0.000010   0.000068  -0.000318   0.000000   0.000000
    21  H    0.000292  -0.000002  -0.000059   0.000170   0.000001  -0.000000
    22  C   -0.021961   0.011278  -0.000196  -0.003861  -0.006042  -0.001178
    23  O    0.042742  -0.011765  -0.022658   0.012717   0.005225   0.000085
    24  O    0.034691  -0.007095  -0.034495   0.080560   0.002800   0.000254
    25  P   12.524792   0.487232   0.264151   0.005211   0.192705   0.013708
    26  O    0.487232   8.298067  -0.012149   0.003308  -0.031044  -0.006626
    27  O    0.264151  -0.012149   8.186703   0.214975  -0.013838  -0.005161
    28  H    0.005211   0.003308   0.214975   0.231555  -0.001348  -0.000192
    29  O    0.192705  -0.031044  -0.013838  -0.001348   8.067731   0.235426
    30  H    0.013708  -0.006626  -0.005161  -0.000192   0.235426   0.464933
    31  O    0.299656  -0.052967  -0.012378  -0.012534   0.037911  -0.009229
    32  H    0.011917  -0.007480   0.008588   0.005617  -0.010009   0.001611
              31         32
     1  C    0.015865   0.011621
     2  C    0.008733  -0.019668
     3  C   -0.022116   0.041279
     4  N    0.004118  -0.001742
     5  H   -0.000252  -0.000138
     6  H   -0.000031   0.000034
     7  H   -0.002340   0.002013
     8  C   -0.019558   0.007476
     9  H   -0.011521   0.003313
    10  H   -0.003753  -0.000667
    11  H    0.001714  -0.000104
    12  N   -0.005736  -0.005887
    13  C    0.001146  -0.006245
    14  H    0.000000   0.000004
    15  H   -0.000105   0.000133
    16  C   -0.010755   0.010055
    17  H   -0.000005   0.000004
    18  H    0.000129  -0.000166
    19  C   -0.017923   0.024035
    20  H    0.000039  -0.000054
    21  H    0.000195  -0.000527
    22  C   -0.023348   0.004374
    23  O    0.008093   0.023371
    24  O   -0.012688   0.005863
    25  P    0.299656   0.011917
    26  O   -0.052967  -0.007480
    27  O   -0.012378   0.008588
    28  H   -0.012534   0.005617
    29  O    0.037911  -0.010009
    30  H   -0.009229   0.001611
    31  O    8.332453   0.154625
    32  H    0.154625   0.321898
 Mulliken charges:
               1
     1  C   -0.342498
     2  C   -0.064875
     3  C   -0.343429
     4  N    0.340383
     5  H    0.201796
     6  H    0.168232
     7  H    0.234445
     8  C   -0.520769
     9  H    0.228009
    10  H    0.221929
    11  H    0.186771
    12  N    0.318545
    13  C   -0.393525
    14  H    0.188080
    15  H    0.192474
    16  C   -0.220332
    17  H    0.164261
    18  H    0.189128
    19  C   -0.484833
    20  H    0.184132
    21  H    0.175115
    22  C    0.589111
    23  O   -0.665292
    24  O   -0.522999
    25  P    1.170581
    26  O   -0.649862
    27  O   -0.588535
    28  H    0.450395
    29  O   -0.481294
    30  H    0.307434
    31  O   -0.647437
    32  H    0.414857
 Sum of Mulliken charges =  -0.00000
 Mulliken charges with hydrogens summed into heavy atoms:
               1
     1  C   -0.140702
     2  C    0.103356
     3  C   -0.108984
     4  N    0.340383
     8  C    0.115940
    12  N    0.318545
    13  C   -0.012971
    16  C    0.133058
    19  C   -0.125585
    22  C    0.589111
    23  O   -0.665292
    24  O   -0.522999
    25  P    1.170581
    26  O   -0.649862
    27  O   -0.138141
    29  O   -0.173860
    31  O   -0.232580
         Mulliken charges condensed to fragments:
      1      0.023861
      2     -0.023861
 Electronic spatial extent (au):  <R**2>=         217727.1088
 Charge=             -0.0000 electrons
 Dipole moment (field-independent basis, Debye):
    X=             -7.5267    Y=              3.6309    Z=              5.8248  Tot=             10.1864
 Quadrupole moment (field-independent basis, Debye-Ang):
   XX=           -274.5985   YY=            -92.5585   ZZ=            100.9695
   XY=             28.2934   XZ=            -66.7317   YZ=             64.2247
 Traceless Quadrupole moment (field-independent basis, Debye-Ang):
   XX=           -185.8694   YY=             -3.8293   ZZ=            189.6987
   XY=             28.2934   XZ=            -66.7317   YZ=             64.2247
 Octapole moment (field-independent basis, Debye-Ang**2):
  XXX=          -6481.4612  YYY=           -563.4033  ZZZ=            119.4527  XYY=          -1108.8084
  XXY=            -12.7734  XXZ=          -4066.4536  XZZ=          -1202.8867  YZZ=            966.1109
  YYZ=          -1593.1059  XYZ=            498.0475
 Hexadecapole moment (field-independent basis, Debye-Ang**3):
 XXXX=        -127750.3673 YYYY=          -2797.2383 ZZZZ=         -55401.8063 XXXY=          -5981.2311
 XXXZ=        -104691.3041 YYYX=          -6527.3414 YYYZ=          -9634.1464 ZZZX=         -40167.8634
 ZZZY=          11439.0564 XXYY=         -13965.0348 XXZZ=         -72261.6361 YYZZ=         -28315.9412
 XXYZ=           -243.3767 YYXZ=         -19052.6712 ZZXY=           6898.6572
 N-N= 1.561575639948D+03 E-N=-5.986110411747D+03  KE= 1.211761969131D+03
 No NMR shielding tensors so no spin-rotation constants.
 Leave Link  601 at Mon Feb 20 01:55:54 2023, MaxMem=  6710886400 cpu:               3.6 elap:               0.2
 (Enter /data0/home/software/g16/l122.exe)
 CPIOFr:  IOpCl= 0 IRwI=-1 IRwCP=  731 ICalc= -1 LCPTot=      476096 Len1MO=     1252357 IndFrg=      476096
 CPIOFr:  IOpCl= 0 IRwI=-1 IRwCP=  731 ICalc=  0 LCPTot=      476096 Len1MO=     1252357 IndFrg=     1728453
 Counterpoise: doing calculation for fragment   1 using the basis set of the full-system, NewBq=T
 Leave Link  122 at Mon Feb 20 01:55:54 2023, MaxMem=  6710886400 cpu:               0.4 elap:               0.0
 (Enter /data0/home/software/g16/l301.exe)
 Basis read from rwf:  (5D, 7F)
 No pseudopotential information found on rwf file.
   557 basis functions,   848 primitive gaussians,   591 cartesian basis functions
    45 alpha electrons       45 beta electrons
       nuclear repulsion energy       729.9414989084 Hartrees.
 IExCor= 4336 DFT=T Ex+Corr=M062X ExCW=0 ScaHFX=  0.540000
 ScaDFX=  1.000000  1.000000  1.000000  1.000000 ScalE2=  1.000000  1.000000
 IRadAn=      5 IRanWt=     -1 IRanGd=            0 ICorTp=0 IEmpDi=131
 NAtoms=   32 NActive=   32 NUniq=   32 SFac= 1.00D+00 NAtFMM=   60 NAOKFM=F Big=F
 Integral buffers will be    131072 words long.
 Raffenetti 2 integral format.
 Two-electron integral symmetry is turned off.
 R6Disp:  Grimme-D3 Dispersion energy=       -0.0009940478 Hartrees.
 Nuclear repulsion after empirical dispersion term =      729.9405048605 Hartrees.
 No density basis found on file   718.
 Leave Link  301 at Mon Feb 20 01:55:54 2023, MaxMem=  6710886400 cpu:               1.3 elap:               0.1
 (Enter /data0/home/software/g16/l302.exe)
 NPDir=0 NMtPBC=     1 NCelOv=     1 NCel=       1 NClECP=     1 NCelD=      1
         NCelK=      1 NCelE2=     1 NClLst=     1 CellRange=     0.0.
 One-electron integrals computed using PRISM.
 NBasis=   557 RedAO= T EigKep=  8.44D-06  NBF=   557
 NBsUse=   557 1.00D-06 EigRej= -1.00D+00 NBFU=   557
 Precomputing XC quadrature grid using
 IXCGrd= 4 IRadAn=           5 IRanWt=          -1 IRanGd=           0 AccXCQ= 0.00D+00.
 Generated NRdTot=       0 NPtTot=           0 NUsed=           0 NTot=          32
 NSgBfM=   590   590   590   590   590 MxSgAt=    32 MxSgA2=    32.
 Leave Link  302 at Mon Feb 20 01:55:55 2023, MaxMem=  6710886400 cpu:              13.9 elap:               0.6
 (Enter /data0/home/software/g16/l303.exe)
 DipDrv:  MaxL=1.
 Leave Link  303 at Mon Feb 20 01:55:55 2023, MaxMem=  6710886400 cpu:               1.3 elap:               0.1
 (Enter /data0/home/software/g16/l401.exe)
 ExpMin= 3.48D-02 ExpMax= 7.75D+04 ExpMxC= 2.65D+03 IAcc=3 IRadAn=         5 AccDes= 0.00D+00
 Harris functional with IExCor= 1009 and IRadAn=       5 diagonalized for initial guess.
 HarFok:  IExCor= 1009 AccDes= 0.00D+00 IRadAn=         5 IDoV= 1 UseB2=F ITyADJ=14
 ICtDFT=  3500011 ScaDFX=  1.000000  1.000000  1.000000  1.000000
 FoFCou: FMM=F IPFlag=           0 FMFlag=      100000 FMFlg1=           0
         NFxFlg=           0 DoJE=T BraDBF=F KetDBF=T FulRan=T
         wScrn=  0.000000 ICntrl=       500 IOpCl=  0 I1Cent=   200000004 NGrid=           0
         NMat0=    1 NMatS0=      1 NMatT0=    0 NMatD0=    1 NMtDS0=    0 NMtDT0=    0
 Symmetry not used in FoFCou.
 Harris En= -571.692461829417    
 JPrj=0 DoOrth=F DoCkMO=F.
 Leave Link  401 at Mon Feb 20 01:55:57 2023, MaxMem=  6710886400 cpu:              56.5 elap:               2.4
 (Enter /data0/home/software/g16/l502.exe)
 Two-electron integral symmetry not used.
 Closed shell SCF:
 Using DIIS extrapolation, IDIIS=  1040.
 NGot=  6710886400 LenX=  6710169535 LenY=  6709819663
 Requested convergence on RMS density matrix=1.00D-08 within 128 cycles.
 Requested convergence on MAX density matrix=1.00D-06.
 Requested convergence on             energy=1.00D-06.
 No special actions if energy rises.
 Fock matrices will be formed incrementally for  20 cycles.

 Cycle   1  Pass 1  IDiag  1:
 FoFJK:  IHMeth= 1 ICntrl=       0 DoSepK=F KAlg= 0 I1Cent=           0 FoldK=F
 IRaf= 860000000 NMat=       1 IRICut=       1 DoRegI=T DoRafI=F ISym2E= 0 IDoP0=0 IntGTp=1.
 FoFCou: FMM=F IPFlag=           0 FMFlag=      100000 FMFlg1=           0
         NFxFlg=           0 DoJE=F BraDBF=F KetDBF=F FulRan=T
         wScrn=  0.000000 ICntrl=         0 IOpCl=  0 I1Cent=           0 NGrid=           0
         NMat0=    1 NMatS0=      1 NMatT0=    0 NMatD0=    1 NMtDS0=    0 NMtDT0=    0
 Symmetry not used in FoFCou.
 E= -571.581120704147    
 DIIS: error= 1.70D-02 at cycle   1 NSaved=   1.
 NSaved= 1 IEnMin= 1 EnMin= -571.581120704147     IErMin= 1 ErrMin= 1.70D-02
 ErrMax= 1.70D-02  0.00D+00 EMaxC= 1.00D-01 BMatC= 4.65D-01 BMatP= 4.65D-01
 IDIUse=3 WtCom= 8.30D-01 WtEn= 1.70D-01
 Coeff-Com:  0.100D+01
 Coeff-En:   0.100D+01
 Coeff:      0.100D+01
 Gap=     0.366 Goal=   None    Shift=    0.000
 GapD=    0.366 DampG=1.000 DampE=0.500 DampFc=0.5000 IDamp=-1.
 Damping current iteration by 5.00D-01
 RMSDP=7.95D-03 MaxDP=9.82D-01              OVMax= 3.91D-01

 Cycle   2  Pass 1  IDiag  1:
 RMSU=  3.92D-03    CP:  1.08D+00
 E= -571.694400093709     Delta-E=       -0.113279389562 Rises=F Damp=T
 DIIS: error= 4.67D-03 at cycle   2 NSaved=   2.
 NSaved= 2 IEnMin= 2 EnMin= -571.694400093709     IErMin= 2 ErrMin= 4.67D-03
 ErrMax= 4.67D-03  0.00D+00 EMaxC= 1.00D-01 BMatC= 4.92D-02 BMatP= 4.65D-01
 IDIUse=3 WtCom= 9.53D-01 WtEn= 4.67D-02
 Coeff-Com:  0.548D-01 0.945D+00
 Coeff-En:   0.226D+00 0.774D+00
 Coeff:      0.628D-01 0.937D+00
 Gap=     0.218 Goal=   None    Shift=    0.000
 RMSDP=4.36D-03 MaxDP=7.83D-01 DE=-1.13D-01 OVMax= 3.59D-01

 Cycle   3  Pass 1  IDiag  1:
 RMSU=  2.42D-03    CP:  8.80D-01  1.86D-01
 E= -571.893798971898     Delta-E=       -0.199398878189 Rises=F Damp=F
 DIIS: error= 4.89D-03 at cycle   3 NSaved=   3.
 NSaved= 3 IEnMin= 3 EnMin= -571.893798971898     IErMin= 2 ErrMin= 4.67D-03
 ErrMax= 4.89D-03  0.00D+00 EMaxC= 1.00D-01 BMatC= 3.18D-02 BMatP= 4.92D-02
 IDIUse=3 WtCom= 9.51D-01 WtEn= 4.89D-02
 Coeff-Com: -0.833D-01 0.448D+00 0.636D+00
 Coeff-En:   0.000D+00 0.000D+00 0.100D+01
 Coeff:     -0.792D-01 0.426D+00 0.653D+00
 Gap=     0.234 Goal=   None    Shift=    0.000
 RMSDP=8.90D-04 MaxDP=1.40D-01 DE=-1.99D-01 OVMax= 4.02D-02

 Cycle   4  Pass 1  IDiag  1:
 RMSU=  7.66D-04    CP:  9.06D-01  2.47D-01  1.13D+00
 E= -571.917274450240     Delta-E=       -0.023475478342 Rises=F Damp=F
 DIIS: error= 1.60D-03 at cycle   4 NSaved=   4.
 NSaved= 4 IEnMin= 4 EnMin= -571.917274450240     IErMin= 4 ErrMin= 1.60D-03
 ErrMax= 1.60D-03  0.00D+00 EMaxC= 1.00D-01 BMatC= 2.72D-03 BMatP= 3.18D-02
 IDIUse=3 WtCom= 9.84D-01 WtEn= 1.60D-02
 Coeff-Com: -0.525D-01 0.130D+00 0.268D+00 0.654D+00
 Coeff-En:   0.000D+00 0.000D+00 0.000D+00 0.100D+01
 Coeff:     -0.516D-01 0.128D+00 0.264D+00 0.660D+00
 Gap=     0.211 Goal=   None    Shift=    0.000
 RMSDP=3.16D-04 MaxDP=4.41D-02 DE=-2.35D-02 OVMax= 1.36D-02

 Cycle   5  Pass 1  IDiag  1:
 RMSU=  2.37D-04    CP:  9.16D-01  2.67D-01  1.17D+00  1.19D+00
 E= -571.919634035502     Delta-E=       -0.002359585262 Rises=F Damp=F
 DIIS: error= 5.58D-04 at cycle   5 NSaved=   5.
 NSaved= 5 IEnMin= 5 EnMin= -571.919634035502     IErMin= 5 ErrMin= 5.58D-04
 ErrMax= 5.58D-04  0.00D+00 EMaxC= 1.00D-01 BMatC= 4.41D-04 BMatP= 2.72D-03
 IDIUse=3 WtCom= 9.94D-01 WtEn= 5.58D-03
 Coeff-Com: -0.212D-01 0.363D-01 0.665D-01 0.317D+00 0.602D+00
 Coeff-En:   0.000D+00 0.000D+00 0.000D+00 0.000D+00 0.100D+01
 Coeff:     -0.211D-01 0.361D-01 0.662D-01 0.315D+00 0.604D+00
 Gap=     0.210 Goal=   None    Shift=    0.000
 RMSDP=9.94D-05 MaxDP=1.38D-02 DE=-2.36D-03 OVMax= 8.29D-03

 Cycle   6  Pass 1  IDiag  1:
 RMSU=  7.13D-05    CP:  9.19D-01  2.64D-01  1.17D+00  1.26D+00  1.03D+00
 E= -571.919984923895     Delta-E=       -0.000350888394 Rises=F Damp=F
 DIIS: error= 1.64D-04 at cycle   6 NSaved=   6.
 NSaved= 6 IEnMin= 6 EnMin= -571.919984923895     IErMin= 6 ErrMin= 1.64D-04
 ErrMax= 1.64D-04  0.00D+00 EMaxC= 1.00D-01 BMatC= 6.39D-05 BMatP= 4.41D-04
 IDIUse=3 WtCom= 9.98D-01 WtEn= 1.64D-03
 Coeff-Com: -0.213D-02-0.414D-03-0.129D-01 0.426D-01 0.302D+00 0.671D+00
 Coeff-En:   0.000D+00 0.000D+00 0.000D+00 0.000D+00 0.000D+00 0.100D+01
 Coeff:     -0.213D-02-0.413D-03-0.129D-01 0.425D-01 0.302D+00 0.671D+00
 Gap=     0.210 Goal=   None    Shift=    0.000
 RMSDP=7.98D-05 MaxDP=1.42D-02 DE=-3.51D-04 OVMax= 4.34D-03

 Cycle   7  Pass 1  IDiag  1:
 RMSU=  3.11D-05    CP:  9.22D-01  2.65D-01  1.18D+00  1.33D+00  1.17D+00
                    CP:  1.14D+00
 E= -571.920044628679     Delta-E=       -0.000059704784 Rises=F Damp=F
 DIIS: error= 8.76D-05 at cycle   7 NSaved=   7.
 NSaved= 7 IEnMin= 7 EnMin= -571.920044628679     IErMin= 7 ErrMin= 8.76D-05
 ErrMax= 8.76D-05  0.00D+00 EMaxC= 1.00D-01 BMatC= 8.59D-06 BMatP= 6.39D-05
 IDIUse=1 WtCom= 1.00D+00 WtEn= 0.00D+00
 Coeff-Com:  0.327D-02-0.758D-02-0.183D-01-0.380D-01 0.440D-01 0.318D+00
 Coeff-Com:  0.699D+00
 Coeff:      0.327D-02-0.758D-02-0.183D-01-0.380D-01 0.440D-01 0.318D+00
 Coeff:      0.699D+00
 Gap=     0.210 Goal=   None    Shift=    0.000
 RMSDP=1.84D-05 MaxDP=1.18D-03 DE=-5.97D-05 OVMax= 2.27D-03

 Cycle   8  Pass 1  IDiag  1:
 RMSU=  1.37D-05    CP:  9.22D-01  2.64D-01  1.18D+00  1.34D+00  1.20D+00
                    CP:  1.27D+00  9.75D-01
 E= -571.920055269145     Delta-E=       -0.000010640466 Rises=F Damp=F
 DIIS: error= 1.67D-05 at cycle   8 NSaved=   8.
 NSaved= 8 IEnMin= 8 EnMin= -571.920055269145     IErMin= 8 ErrMin= 1.67D-05
 ErrMax= 1.67D-05  0.00D+00 EMaxC= 1.00D-01 BMatC= 5.21D-07 BMatP= 8.59D-06
 IDIUse=1 WtCom= 1.00D+00 WtEn= 0.00D+00
 Coeff-Com:  0.868D-03-0.153D-02-0.162D-02-0.107D-01-0.863D-02 0.221D-01
 Coeff-Com:  0.195D+00 0.805D+00
 Coeff:      0.868D-03-0.153D-02-0.162D-02-0.107D-01-0.863D-02 0.221D-01
 Coeff:      0.195D+00 0.805D+00
 Gap=     0.210 Goal=   None    Shift=    0.000
 RMSDP=1.04D-05 MaxDP=1.77D-03 DE=-1.06D-05 OVMax= 7.39D-04

 Cycle   9  Pass 1  IDiag  1:
 RMSU=  3.92D-06    CP:  9.22D-01  2.64D-01  1.18D+00  1.33D+00  1.19D+00
                    CP:  1.28D+00  1.05D+00  1.30D+00
 E= -571.920056259824     Delta-E=       -0.000000990679 Rises=F Damp=F
 DIIS: error= 5.98D-06 at cycle   9 NSaved=   9.
 NSaved= 9 IEnMin= 9 EnMin= -571.920056259824     IErMin= 9 ErrMin= 5.98D-06
 ErrMax= 5.98D-06  0.00D+00 EMaxC= 1.00D-01 BMatC= 4.84D-08 BMatP= 5.21D-07
 IDIUse=1 WtCom= 1.00D+00 WtEn= 0.00D+00
 Coeff-Com: -0.558D-04 0.173D-03 0.105D-02 0.541D-03-0.538D-02-0.258D-01
 Coeff-Com: -0.209D-01 0.191D+00 0.860D+00
 Coeff:     -0.558D-04 0.173D-03 0.105D-02 0.541D-03-0.538D-02-0.258D-01
 Coeff:     -0.209D-01 0.191D+00 0.860D+00
 Gap=     0.210 Goal=   None    Shift=    0.000
 RMSDP=3.17D-06 MaxDP=3.01D-04 DE=-9.91D-07 OVMax= 3.32D-04

 Cycle  10  Pass 1  IDiag  1:
 RMSU=  1.39D-06    CP:  9.22D-01  2.64D-01  1.18D+00  1.33D+00  1.19D+00
                    CP:  1.29D+00  1.09D+00  1.41D+00  1.32D+00
 E= -571.920056382845     Delta-E=       -0.000000123021 Rises=F Damp=F
 DIIS: error= 3.51D-06 at cycle  10 NSaved=  10.
 NSaved=10 IEnMin=10 EnMin= -571.920056382845     IErMin=10 ErrMin= 3.51D-06
 ErrMax= 3.51D-06  0.00D+00 EMaxC= 1.00D-01 BMatC= 1.67D-08 BMatP= 4.84D-08
 IDIUse=1 WtCom= 1.00D+00 WtEn= 0.00D+00
 Coeff-Com: -0.151D-03 0.278D-03 0.559D-03 0.161D-02-0.763D-03-0.148D-01
 Coeff-Com: -0.354D-01-0.220D-01 0.398D+00 0.673D+00
 Coeff:     -0.151D-03 0.278D-03 0.559D-03 0.161D-02-0.763D-03-0.148D-01
 Coeff:     -0.354D-01-0.220D-01 0.398D+00 0.673D+00
 Gap=     0.210 Goal=   None    Shift=    0.000
 RMSDP=1.04D-06 MaxDP=1.10D-04 DE=-1.23D-07 OVMax= 1.09D-04

 Cycle  11  Pass 1  IDiag  1:
 RMSU=  4.26D-07    CP:  9.22D-01  2.64D-01  1.18D+00  1.33D+00  1.19D+00
                    CP:  1.29D+00  1.10D+00  1.45D+00  1.44D+00  1.15D+00
 E= -571.920056408422     Delta-E=       -0.000000025577 Rises=F Damp=F
 DIIS: error= 9.71D-07 at cycle  11 NSaved=  11.
 NSaved=11 IEnMin=11 EnMin= -571.920056408422     IErMin=11 ErrMin= 9.71D-07
 ErrMax= 9.71D-07  0.00D+00 EMaxC= 1.00D-01 BMatC= 1.61D-09 BMatP= 1.67D-08
 IDIUse=1 WtCom= 1.00D+00 WtEn= 0.00D+00
 Coeff-Com: -0.434D-04 0.896D-04 0.223D-04 0.309D-03 0.132D-03-0.218D-02
 Coeff-Com: -0.812D-02-0.257D-01 0.119D-01 0.203D+00 0.821D+00
 Coeff:     -0.434D-04 0.896D-04 0.223D-04 0.309D-03 0.132D-03-0.218D-02
 Coeff:     -0.812D-02-0.257D-01 0.119D-01 0.203D+00 0.821D+00
 Gap=     0.210 Goal=   None    Shift=    0.000
 RMSDP=3.76D-07 MaxDP=3.36D-05 DE=-2.56D-08 OVMax= 4.67D-05

 Cycle  12  Pass 1  IDiag  1:
 RMSU=  1.57D-07    CP:  9.22D-01  2.64D-01  1.18D+00  1.33D+00  1.19D+00
                    CP:  1.29D+00  1.10D+00  1.46D+00  1.48D+00  1.28D+00
                    CP:  1.21D+00
 E= -571.920056411845     Delta-E=       -0.000000003423 Rises=F Damp=F
 DIIS: error= 3.62D-07 at cycle  12 NSaved=  12.
 NSaved=12 IEnMin=12 EnMin= -571.920056411845     IErMin=12 ErrMin= 3.62D-07
 ErrMax= 3.62D-07  0.00D+00 EMaxC= 1.00D-01 BMatC= 2.14D-10 BMatP= 1.61D-09
 IDIUse=1 WtCom= 1.00D+00 WtEn= 0.00D+00
 Coeff-Com:  0.130D-04-0.193D-04-0.817D-04-0.183D-03 0.124D-03 0.168D-02
 Coeff-Com:  0.339D-02-0.312D-02-0.569D-01-0.559D-01 0.228D+00 0.883D+00
 Coeff:      0.130D-04-0.193D-04-0.817D-04-0.183D-03 0.124D-03 0.168D-02
 Coeff:      0.339D-02-0.312D-02-0.569D-01-0.559D-01 0.228D+00 0.883D+00
 Gap=     0.210 Goal=   None    Shift=    0.000
 RMSDP=1.97D-07 MaxDP=2.85D-05 DE=-3.42D-09 OVMax= 2.01D-05

 Cycle  13  Pass 1  IDiag  1:
 RMSU=  6.65D-08    CP:  9.22D-01  2.64D-01  1.18D+00  1.33D+00  1.19D+00
                    CP:  1.29D+00  1.11D+00  1.46D+00  1.49D+00  1.32D+00
                    CP:  1.34D+00  1.23D+00
 E= -571.920056412397     Delta-E=       -0.000000000551 Rises=F Damp=F
 DIIS: error= 1.88D-07 at cycle  13 NSaved=  13.
 NSaved=13 IEnMin=13 EnMin= -571.920056412397     IErMin=13 ErrMin= 1.88D-07
 ErrMax= 1.88D-07  0.00D+00 EMaxC= 1.00D-01 BMatC= 5.92D-11 BMatP= 2.14D-10
 IDIUse=1 WtCom= 1.00D+00 WtEn= 0.00D+00
 Coeff-Com:  0.830D-05-0.141D-04-0.214D-04-0.794D-04 0.375D-04 0.871D-03
 Coeff-Com:  0.196D-02 0.547D-03-0.238D-01-0.446D-01 0.355D-02 0.399D+00
 Coeff-Com:  0.662D+00
 Coeff:      0.830D-05-0.141D-04-0.214D-04-0.794D-04 0.375D-04 0.871D-03
 Coeff:      0.196D-02 0.547D-03-0.238D-01-0.446D-01 0.355D-02 0.399D+00
 Coeff:      0.662D+00
 Gap=     0.210 Goal=   None    Shift=    0.000
 RMSDP=4.35D-08 MaxDP=4.87D-06 DE=-5.51D-10 OVMax= 5.37D-06

 Cycle  14  Pass 1  IDiag  1:
 RMSU=  2.33D-08    CP:  9.22D-01  2.64D-01  1.18D+00  1.33D+00  1.19D+00
                    CP:  1.29D+00  1.11D+00  1.46D+00  1.49D+00  1.33D+00
                    CP:  1.35D+00  1.31D+00  1.15D+00
 E= -571.920056412484     Delta-E=       -0.000000000087 Rises=F Damp=F
 DIIS: error= 9.19D-08 at cycle  14 NSaved=  14.
 NSaved=14 IEnMin=14 EnMin= -571.920056412484     IErMin=14 ErrMin= 9.19D-08
 ErrMax= 9.19D-08  0.00D+00 EMaxC= 1.00D-01 BMatC= 1.26D-11 BMatP= 5.92D-11
 IDIUse=1 WtCom= 1.00D+00 WtEn= 0.00D+00
 Coeff-Com:  0.711D-06-0.155D-05 0.109D-04 0.122D-04 0.899D-05 0.107D-03
 Coeff-Com:  0.191D-03 0.408D-03 0.664D-03-0.916D-02-0.438D-01 0.220D-01
 Coeff-Com:  0.335D+00 0.694D+00
 Coeff:      0.711D-06-0.155D-05 0.109D-04 0.122D-04 0.899D-05 0.107D-03
 Coeff:      0.191D-03 0.408D-03 0.664D-03-0.916D-02-0.438D-01 0.220D-01
 Coeff:      0.335D+00 0.694D+00
 Gap=     0.210 Goal=   None    Shift=    0.000
 RMSDP=1.45D-08 MaxDP=7.60D-07 DE=-8.73D-11 OVMax= 2.37D-06

 Cycle  15  Pass 1  IDiag  1:
 RMSU=  8.85D-09    CP:  9.22D-01  2.64D-01  1.18D+00  1.33D+00  1.19D+00
                    CP:  1.29D+00  1.11D+00  1.46D+00  1.49D+00  1.33D+00
                    CP:  1.35D+00  1.36D+00  1.24D+00  1.03D+00
 E= -571.920056412489     Delta-E=       -0.000000000005 Rises=F Damp=F
 DIIS: error= 2.77D-08 at cycle  15 NSaved=  15.
 NSaved=15 IEnMin=15 EnMin= -571.920056412489     IErMin=15 ErrMin= 2.77D-08
 ErrMax= 2.77D-08  0.00D+00 EMaxC= 1.00D-01 BMatC= 1.22D-12 BMatP= 1.26D-11
 IDIUse=1 WtCom= 1.00D+00 WtEn= 0.00D+00
 Coeff-Com: -0.799D-06 0.113D-05 0.595D-05 0.152D-04 0.896D-07-0.659D-04
 Coeff-Com: -0.193D-03-0.369D-05 0.333D-02 0.245D-02-0.171D-01-0.527D-01
 Coeff-Com:  0.319D-01 0.277D+00 0.756D+00
 Coeff:     -0.799D-06 0.113D-05 0.595D-05 0.152D-04 0.896D-07-0.659D-04
 Coeff:     -0.193D-03-0.369D-05 0.333D-02 0.245D-02-0.171D-01-0.527D-01
 Coeff:      0.319D-01 0.277D+00 0.756D+00
 Gap=     0.210 Goal=   None    Shift=    0.000
 RMSDP=6.80D-09 MaxDP=7.18D-07 DE=-4.77D-12 OVMax= 1.06D-06

 SCF Done:  E(RM062X) =  -571.920056412     A.U. after   15 cycles
            NFock= 15  Conv=0.68D-08     -V/T= 2.0049
 KE= 5.691180980199D+02 PE=-2.794148512795D+03 EE= 9.231698535022D+02
 Leave Link  502 at Mon Feb 20 01:58:07 2023, MaxMem=  6710886400 cpu:            3107.5 elap:             129.9
 (Enter /data0/home/software/g16/l601.exe)
 Copying SCF densities to generalized density rwf, IOpCl= 0 IROHF=0.

 **********************************************************************

            Population analysis using the SCF density.

 **********************************************************************

 Alpha  occ. eigenvalues --  -19.49584 -19.49091 -14.87967 -14.87220 -10.68439
 Alpha  occ. eigenvalues --  -10.63466 -10.63336 -10.63193 -10.61741 -10.55780
 Alpha  occ. eigenvalues --  -10.54623 -10.49914  -1.20422  -1.09328  -1.08531
 Alpha  occ. eigenvalues --   -0.98582  -0.93138  -0.89980  -0.86098  -0.80154
 Alpha  occ. eigenvalues --   -0.75158  -0.72675  -0.69331  -0.65724  -0.60645
 Alpha  occ. eigenvalues --   -0.58898  -0.57582  -0.57324  -0.55687  -0.54066
 Alpha  occ. eigenvalues --   -0.53740  -0.50818  -0.50341  -0.47703  -0.46999
[...]
 One-electron integrals computed using PRISM.
 NBasis=   161 RedAO= T EigKep=  5.71D-04  NBF=   161
 NBsUse=   161 1.00D-06 EigRej= -1.00D+00 NBFU=   161
 Precomputing XC quadrature grid using
 IXCGrd= 4 IRadAn=           5 IRanWt=          -1 IRanGd=           0 AccXCQ= 0.00D+00.
 Generated NRdTot=       0 NPtTot=           0 NUsed=           0 NTot=          32
 NSgBfM=   171   171   171   171   171 MxSgAt=     8 MxSgA2=     8.
 Leave Link  302 at Mon Feb 20 02:00:48 2023, MaxMem=  6710886400 cpu:               2.9 elap:               0.1
 (Enter /data0/home/software/g16/l303.exe)
 DipDrv:  MaxL=1.
 Leave Link  303 at Mon Feb 20 02:00:48 2023, MaxMem=  6710886400 cpu:               0.5 elap:               0.0
 (Enter /data0/home/software/g16/l401.exe)
 ExpMin= 3.48D-02 ExpMax= 7.75D+04 ExpMxC= 2.65D+03 IAcc=3 IRadAn=         5 AccDes= 0.00D+00
 Harris functional with IExCor= 1009 and IRadAn=       5 diagonalized for initial guess.
 HarFok:  IExCor= 1009 AccDes= 0.00D+00 IRadAn=         5 IDoV= 1 UseB2=F ITyADJ=14
 ICtDFT=  3500011 ScaDFX=  1.000000  1.000000  1.000000  1.000000
 FoFCou: FMM=F IPFlag=           0 FMFlag=      100000 FMFlg1=           0
         NFxFlg=           0 DoJE=T BraDBF=F KetDBF=T FulRan=T
         wScrn=  0.000000 ICntrl=       500 IOpCl=  0 I1Cent=   200000004 NGrid=           0
         NMat0=    1 NMatS0=      1 NMatT0=    0 NMatD0=    1 NMtDS0=    0 NMtDT0=    0
 Symmetry not used in FoFCou.
 Harris En= -643.937037594709    
 JPrj=0 DoOrth=F DoCkMO=F.
 Leave Link  401 at Mon Feb 20 02:00:49 2023, MaxMem=  6710886400 cpu:               6.1 elap:               0.3
 (Enter /data0/home/software/g16/l502.exe)
 Keep R1 ints in memory in canonical form, NReq=108965948.
 FoFCou: FMM=F IPFlag=           0 FMFlag=           0 FMFlg1=           0
         NFxFlg=           0 DoJE=F BraDBF=F KetDBF=F FulRan=T
         wScrn=  0.000000 ICntrl=       600 IOpCl=  0 I1Cent=           0 NGrid=           0
         NMat0=    1 NMatS0=  13041 NMatT0=    0 NMatD0=    1 NMtDS0=    0 NMtDT0=    0
 Symmetry not used in FoFCou.
 Two-electron integral symmetry not used.
 Closed shell SCF:
 Using DIIS extrapolation, IDIIS=  1040.
 NGot=  6710886400 LenX=  6625781434 LenY=  6625751752
 Requested convergence on RMS density matrix=1.00D-08 within 128 cycles.
 Requested convergence on MAX density matrix=1.00D-06.
 Requested convergence on             energy=1.00D-06.
 No special actions if energy rises.

 Cycle   1  Pass 1  IDiag  1:
 E= -643.838022554006    
 DIIS: error= 4.97D-02 at cycle   1 NSaved=   1.
 NSaved= 1 IEnMin= 1 EnMin= -643.838022554006     IErMin= 1 ErrMin= 4.97D-02
 ErrMax= 4.97D-02  0.00D+00 EMaxC= 1.00D-01 BMatC= 5.13D-01 BMatP= 5.13D-01
 IDIUse=3 WtCom= 5.03D-01 WtEn= 4.97D-01
 Coeff-Com:  0.100D+01
 Coeff-En:   0.100D+01
 Coeff:      0.100D+01
 Gap=     0.225 Goal=   None    Shift=    0.000
 GapD=    0.225 DampG=1.000 DampE=0.500 DampFc=0.5000 IDamp=-1.
 Damping current iteration by 5.00D-01
 RMSDP=8.12D-03 MaxDP=2.35D-01              OVMax= 2.80D-01

 Cycle   2  Pass 1  IDiag  1:
 E= -643.954655402649     Delta-E=       -0.116632848643 Rises=F Damp=T
 DIIS: error= 1.06D-02 at cycle   2 NSaved=   2.
 NSaved= 2 IEnMin= 2 EnMin= -643.954655402649     IErMin= 2 ErrMin= 1.06D-02
 ErrMax= 1.06D-02  0.00D+00 EMaxC= 1.00D-01 BMatC= 2.85D-02 BMatP= 5.13D-01
 IDIUse=3 WtCom= 8.94D-01 WtEn= 1.06D-01
 Coeff-Com:  0.805D-01 0.920D+00
 Coeff-En:   0.217D+00 0.783D+00
 Coeff:      0.950D-01 0.905D+00
 Gap=     0.332 Goal=   None    Shift=    0.000
 RMSDP=1.97D-03 MaxDP=7.67D-02 DE=-1.17D-01 OVMax= 1.85D-01

 Cycle   3  Pass 1  IDiag  1:
 E= -644.127438107717     Delta-E=       -0.172782705068 Rises=F Damp=F
 DIIS: error= 7.63D-03 at cycle   3 NSaved=   3.
 NSaved= 3 IEnMin= 3 EnMin= -644.127438107717     IErMin= 3 ErrMin= 7.63D-03
 ErrMax= 7.63D-03  0.00D+00 EMaxC= 1.00D-01 BMatC= 1.07D-02 BMatP= 2.85D-02
 IDIUse=3 WtCom= 9.24D-01 WtEn= 7.63D-02
 Coeff-Com: -0.110D-01 0.340D+00 0.671D+00
 Coeff-En:   0.000D+00 0.000D+00 0.100D+01
 Coeff:     -0.102D-01 0.314D+00 0.696D+00
 Gap=     0.322 Goal=   None    Shift=    0.000
 RMSDP=6.91D-04 MaxDP=1.54D-02 DE=-1.73D-01 OVMax= 3.62D-02

 Cycle   4  Pass 1  IDiag  1:
 E= -644.132195186234     Delta-E=       -0.004757078516 Rises=F Damp=F
 DIIS: error= 4.27D-03 at cycle   4 NSaved=   4.
 NSaved= 4 IEnMin= 4 EnMin= -644.132195186234     IErMin= 4 ErrMin= 4.27D-03
 ErrMax= 4.27D-03  0.00D+00 EMaxC= 1.00D-01 BMatC= 4.16D-03 BMatP= 1.07D-02
 IDIUse=3 WtCom= 9.57D-01 WtEn= 4.27D-02
 Coeff-Com: -0.205D-01 0.464D-01 0.405D+00 0.570D+00
 Coeff-En:   0.000D+00 0.000D+00 0.281D+00 0.719D+00
 Coeff:     -0.197D-01 0.445D-01 0.399D+00 0.576D+00
 Gap=     0.328 Goal=   None    Shift=    0.000
 RMSDP=2.75D-04 MaxDP=6.42D-03 DE=-4.76D-03 OVMax= 1.18D-02

 Cycle   5  Pass 1  IDiag  1:
 E= -644.134951267383     Delta-E=       -0.002756081150 Rises=F Damp=F
 DIIS: error= 2.49D-04 at cycle   5 NSaved=   5.
 NSaved= 5 IEnMin= 5 EnMin= -644.134951267383     IErMin= 5 ErrMin= 2.49D-04
 ErrMax= 2.49D-04  0.00D+00 EMaxC= 1.00D-01 BMatC= 1.71D-05 BMatP= 4.16D-03
 IDIUse=3 WtCom= 9.98D-01 WtEn= 2.49D-03
 Coeff-Com: -0.222D-02-0.552D-03 0.566D-01 0.116D+00 0.830D+00
 Coeff-En:   0.000D+00 0.000D+00 0.000D+00 0.000D+00 0.100D+01
 Coeff:     -0.221D-02-0.551D-03 0.564D-01 0.116D+00 0.830D+00
 Gap=     0.327 Goal=   None    Shift=    0.000
 RMSDP=2.97D-05 MaxDP=7.23D-04 DE=-2.76D-03 OVMax= 8.04D-04

 Cycle   6  Pass 1  IDiag  1:
 E= -644.134962498362     Delta-E=       -0.000011230979 Rises=F Damp=F
 DIIS: error= 8.31D-05 at cycle   6 NSaved=   6.
 NSaved= 6 IEnMin= 6 EnMin= -644.134962498362     IErMin= 6 ErrMin= 8.31D-05
 ErrMax= 8.31D-05  0.00D+00 EMaxC= 1.00D-01 BMatC= 1.72D-06 BMatP= 1.71D-05
 IDIUse=1 WtCom= 1.00D+00 WtEn= 0.00D+00
 Coeff-Com: -0.111D-04-0.176D-02 0.339D-02 0.152D-01 0.262D+00 0.721D+00
 Coeff:     -0.111D-04-0.176D-02 0.339D-02 0.152D-01 0.262D+00 0.721D+00
 Gap=     0.327 Goal=   None    Shift=    0.000
 RMSDP=1.10D-05 MaxDP=2.91D-04 DE=-1.12D-05 OVMax= 2.93D-04

 Cycle   7  Pass 1  IDiag  1:
 E= -644.134963612110     Delta-E=       -0.000001113748 Rises=F Damp=F
 DIIS: error= 4.09D-05 at cycle   7 NSaved=   7.
 NSaved= 7 IEnMin= 7 EnMin= -644.134963612110     IErMin= 7 ErrMin= 4.09D-05
 ErrMax= 4.09D-05  0.00D+00 EMaxC= 1.00D-01 BMatC= 4.11D-07 BMatP= 1.72D-06
 IDIUse=1 WtCom= 1.00D+00 WtEn= 0.00D+00
 Coeff-Com:  0.379D-03-0.643D-03-0.904D-02-0.145D-01-0.234D-01 0.327D+00
 Coeff-Com:  0.720D+00
 Coeff:      0.379D-03-0.643D-03-0.904D-02-0.145D-01-0.234D-01 0.327D+00
 Coeff:      0.720D+00
 Gap=     0.327 Goal=   None    Shift=    0.000
 RMSDP=4.74D-06 MaxDP=9.92D-05 DE=-1.11D-06 OVMax= 1.28D-04

 Cycle   8  Pass 1  IDiag  1:
 E= -644.134963896815     Delta-E=       -0.000000284705 Rises=F Damp=F
 DIIS: error= 1.02D-05 at cycle   8 NSaved=   8.
 NSaved= 8 IEnMin= 8 EnMin= -644.134963896815     IErMin= 8 ErrMin= 1.02D-05
 ErrMax= 1.02D-05  0.00D+00 EMaxC= 1.00D-01 BMatC= 2.92D-08 BMatP= 4.11D-07
 IDIUse=1 WtCom= 1.00D+00 WtEn= 0.00D+00
 Coeff-Com:  0.135D-03-0.159D-03-0.373D-02-0.598D-02-0.170D-01 0.916D-01
 Coeff-Com:  0.295D+00 0.640D+00
 Coeff:      0.135D-03-0.159D-03-0.373D-02-0.598D-02-0.170D-01 0.916D-01
 Coeff:      0.295D+00 0.640D+00
 Gap=     0.327 Goal=   None    Shift=    0.000
 RMSDP=8.79D-07 MaxDP=2.70D-05 DE=-2.85D-07 OVMax= 3.45D-05

 Cycle   9  Pass 1  IDiag  1:
 E= -644.134963919651     Delta-E=       -0.000000022837 Rises=F Damp=F
 DIIS: error= 1.89D-06 at cycle   9 NSaved=   9.
 NSaved= 9 IEnMin= 9 EnMin= -644.134963919651     IErMin= 9 ErrMin= 1.89D-06
 ErrMax= 1.89D-06  0.00D+00 EMaxC= 1.00D-01 BMatC= 9.94D-10 BMatP= 2.92D-08
 IDIUse=1 WtCom= 1.00D+00 WtEn= 0.00D+00
 Coeff-Com: -0.269D-04 0.538D-04 0.257D-03 0.566D-03-0.873D-03-0.193D-01
 Coeff-Com: -0.280D-01 0.829D-01 0.964D+00
 Coeff:     -0.269D-04 0.538D-04 0.257D-03 0.566D-03-0.873D-03-0.193D-01
 Coeff:     -0.280D-01 0.829D-01 0.964D+00
 Gap=     0.327 Goal=   None    Shift=    0.000
 RMSDP=3.80D-07 MaxDP=9.97D-06 DE=-2.28D-08 OVMax= 1.30D-05

 Cycle  10  Pass 1  IDiag  1:
 E= -644.134963920872     Delta-E=       -0.000000001220 Rises=F Damp=F
 DIIS: error= 3.38D-07 at cycle  10 NSaved=  10.
 NSaved=10 IEnMin=10 EnMin= -644.134963920872     IErMin=10 ErrMin= 3.38D-07
 ErrMax= 3.38D-07  0.00D+00 EMaxC= 1.00D-01 BMatC= 3.87D-11 BMatP= 9.94D-10
 IDIUse=1 WtCom= 1.00D+00 WtEn= 0.00D+00
 Coeff-Com: -0.664D-05 0.118D-04 0.144D-03 0.251D-03 0.398D-03-0.618D-02
 Coeff-Com: -0.153D-01-0.826D-02 0.144D+00 0.885D+00
 Coeff:     -0.664D-05 0.118D-04 0.144D-03 0.251D-03 0.398D-03-0.618D-02
 Coeff:     -0.153D-01-0.826D-02 0.144D+00 0.885D+00
 Gap=     0.327 Goal=   None    Shift=    0.000
 RMSDP=7.57D-08 MaxDP=1.31D-06 DE=-1.22D-09 OVMax= 3.13D-06

 Cycle  11  Pass 1  IDiag  1:
 E= -644.134963920923     Delta-E=       -0.000000000052 Rises=F Damp=F
 DIIS: error= 3.70D-07 at cycle  11 NSaved=  11.
 NSaved=11 IEnMin=11 EnMin= -644.134963920923     IErMin=10 ErrMin= 3.38D-07
 ErrMax= 3.70D-07  0.00D+00 EMaxC= 1.00D-01 BMatC= 2.53D-11 BMatP= 3.87D-11
 IDIUse=1 WtCom= 1.00D+00 WtEn= 0.00D+00
 Coeff-Com:  0.230D-06-0.986D-06 0.430D-04 0.591D-04 0.324D-03-0.903D-03
 Coeff-Com: -0.468D-02-0.143D-01-0.464D-01 0.491D+00 0.575D+00
 Coeff:      0.230D-06-0.986D-06 0.430D-04 0.591D-04 0.324D-03-0.903D-03
 Coeff:     -0.468D-02-0.143D-01-0.464D-01 0.491D+00 0.575D+00
 Gap=     0.327 Goal=   None    Shift=    0.000
 RMSDP=2.68D-08 MaxDP=6.97D-07 DE=-5.18D-11 OVMax= 1.01D-06

 Cycle  12  Pass 1  IDiag  1:
 E= -644.134963920931     Delta-E=       -0.000000000007 Rises=F Damp=F
 DIIS: error= 3.68D-08 at cycle  12 NSaved=  12.
 NSaved=12 IEnMin=12 EnMin= -644.134963920931     IErMin=12 ErrMin= 3.68D-08
 ErrMax= 3.68D-08  0.00D+00 EMaxC= 1.00D-01 BMatC= 4.80D-13 BMatP= 2.53D-11
 IDIUse=1 WtCom= 1.00D+00 WtEn= 0.00D+00
 Coeff-Com:  0.724D-06-0.138D-05-0.571D-05-0.124D-04 0.122D-04 0.421D-03
 Coeff-Com:  0.861D-03-0.108D-02-0.229D-01-0.463D-02 0.100D+00 0.927D+00
 Coeff:      0.724D-06-0.138D-05-0.571D-05-0.124D-04 0.122D-04 0.421D-03
 Coeff:      0.861D-03-0.108D-02-0.229D-01-0.463D-02 0.100D+00 0.927D+00
 Gap=     0.327 Goal=   None    Shift=    0.000
 RMSDP=9.28D-09 MaxDP=1.93D-07 DE=-7.28D-12 OVMax= 3.95D-07

 SCF Done:  E(RM062X) =  -644.134963921     A.U. after   12 cycles
            NFock= 12  Conv=0.93D-08     -V/T= 2.0026
 KE= 6.424961128596D+02 PE=-2.087321515726D+03 EE= 5.208320171292D+02
 Leave Link  502 at Mon Feb 20 02:00:54 2023, MaxMem=  6710886400 cpu:             108.6 elap:               5.8
 (Enter /data0/home/software/g16/l601.exe)
 Copying SCF densities to generalized density rwf, IOpCl= 0 IROHF=0.

 **********************************************************************

            Population analysis using the SCF density.

 **********************************************************************

 Alpha  occ. eigenvalues --  -78.16826 -19.70027 -19.68893 -19.67999 -19.58015
 Alpha  occ. eigenvalues --   -6.97622  -5.09542  -5.09527  -5.09271  -1.24670
 Alpha  occ. eigenvalues --   -1.17458  -1.16609  -1.08368  -0.72713  -0.65838
 Alpha  occ. eigenvalues --   -0.63698  -0.59060  -0.53598  -0.51733  -0.49888
 Alpha  occ. eigenvalues --   -0.46143  -0.45494  -0.45086  -0.37899  -0.36878
 Alpha virt. eigenvalues --   -0.04157   0.00908   0.02874   0.04644   0.08062
 Alpha virt. eigenvalues --    0.08844   0.10654   0.12675   0.15970   0.16986
 Alpha virt. eigenvalues --    0.17595   0.18364   0.19425   0.19873   0.21205
 Alpha virt. eigenvalues --    0.22671   0.24421   0.25722   0.25894   0.27444
 Alpha virt. eigenvalues --    0.27921   0.29336   0.30222   0.32021   0.32605
 Alpha virt. eigenvalues --    0.34122   0.36498   0.37872   0.40141   0.42906
 Alpha virt. eigenvalues --    0.44487   0.45164   0.52371   0.55694   0.57440
 Alpha virt. eigenvalues --    0.73497   0.75933   0.76528   0.85996   0.97930
 Alpha virt. eigenvalues --    0.99794   1.00098   1.04925   1.05961   1.11520
 Alpha virt. eigenvalues --    1.14278   1.15239   1.18394   1.18995   1.20279
 Alpha virt. eigenvalues --    1.21618   1.23546   1.26018   1.27411   1.32325
 Alpha virt. eigenvalues --    1.32929   1.41971   1.42910   1.49272   1.51218
 Alpha virt. eigenvalues --    1.52681   1.54659   1.58039   1.59705   1.63716
 Alpha virt. eigenvalues --    1.67112   1.68044   1.70578   1.72380   1.82309
 Alpha virt. eigenvalues --    1.83128   1.84764   1.87489   1.88906   1.97088
 Alpha virt. eigenvalues --    1.99749   2.03312   2.09741   2.11758   2.14168
 Alpha virt. eigenvalues --    2.18461   2.21641   2.25822   2.36869   2.42140
 Alpha virt. eigenvalues --    2.43888   2.57043   2.61446   2.62415   2.70014
 Alpha virt. eigenvalues --    2.72799   2.81014   2.85855   2.90601   2.94013
 Alpha virt. eigenvalues --    5.01096   5.03026   5.06186   5.06701   5.10714
 Alpha virt. eigenvalues --    5.13646   5.17117   5.23405   5.35155   5.42219
 Alpha virt. eigenvalues --    5.45745   5.51806   6.71923   6.73712   6.74575
 Alpha virt. eigenvalues --    6.76306   6.79316   6.80678   6.83009   6.85622
 Alpha virt. eigenvalues --    6.91033   6.92354   6.94026   6.98060   6.99423
 Alpha virt. eigenvalues --    7.02419   7.10449   7.24613   7.25498   7.27650
 Alpha virt. eigenvalues --    7.31422   7.40309   7.64271  14.23181  14.23857
 Alpha virt. eigenvalues --   14.34306  49.97059  49.99177  50.00503  50.10609
 Alpha virt. eigenvalues --  163.85576
          Condensed to atoms (all electrons):
              25         26         27         28         29         30
    25  P   12.480574   0.562343   0.223184  -0.001614   0.167437   0.044284
    26  O    0.562343   8.119190  -0.005409  -0.013936  -0.036963   0.002896
    27  O    0.223184  -0.005409   8.064389   0.256544   0.004696  -0.014815
    28  H   -0.001614  -0.013936   0.256544   0.447735  -0.000105   0.001492
    29  O    0.167437  -0.036963   0.004696  -0.000105   8.127722   0.222073
    30  H    0.044284   0.002896  -0.014815   0.001492   0.222073   0.452757
    31  O    0.240098  -0.007464   0.033000  -0.004369   0.005536  -0.014003
    32  H    0.005081  -0.013534  -0.005214  -0.003306  -0.001096   0.002143
              31         32
    25  P    0.240098   0.005081
    26  O   -0.007464  -0.013534
    27  O    0.033000  -0.005214
    28  H   -0.004369  -0.003306
    29  O    0.005536  -0.001096
    30  H   -0.014003   0.002143
    31  O    8.043698   0.251210
    32  H    0.251210   0.463560
 Mulliken charges:
               1
     1  C    0.000000
     2  C    0.000000
     3  C    0.000000
     4  N    0.000000
     5  H    0.000000
     6  H    0.000000
     7  H    0.000000
     8  C    0.000000
     9  H    0.000000
    10  H    0.000000
    11  H    0.000000
    12  N    0.000000
    13  C    0.000000
    14  H    0.000000
    15  H    0.000000
    16  C    0.000000
    17  H    0.000000
    18  H    0.000000
    19  C    0.000000
    20  H    0.000000
    21  H    0.000000
    22  C    0.000000
    23  O    0.000000
    24  O    0.000000
    25  P    1.278613
    26  O   -0.607123
    27  O   -0.556375
    28  H    0.317560
    29  O   -0.489300
    30  H    0.303174
    31  O   -0.547706
    32  H    0.301157
 Sum of Mulliken charges =  -0.00000
 Mulliken charges with hydrogens summed into heavy atoms:
               1
     1  C    0.000000
     2  C    0.000000
     3  C    0.000000
     4  N    0.000000
     8  C    0.000000
    12  N    0.000000
    13  C    0.000000
    16  C    0.000000
    19  C    0.000000
    22  C    0.000000
    23  O    0.000000
    24  O    0.000000
    25  P    1.278613
    26  O   -0.607123
    27  O   -0.238815
    29  O   -0.186126
    31  O   -0.246549
         Mulliken charges condensed to fragments:
      1      0.000000
      2     -0.000000
 Electronic spatial extent (au):  <R**2>=          68042.2625
 Charge=              0.0000 electrons
 Dipole moment (field-independent basis, Debye):
    X=              4.4221    Y=              2.1768    Z=              3.0614  Tot=              5.8021
 Quadrupole moment (field-independent basis, Debye-Ang):
   XX=             71.2746   YY=            -30.6706   ZZ=             64.2450
   XY=             33.8650   XZ=            104.5066   YZ=             37.1958
 Traceless Quadrupole moment (field-independent basis, Debye-Ang):
   XX=             36.3249   YY=            -65.6203   ZZ=             29.2954
   XY=             33.8650   XZ=            104.5066   YZ=             37.1958
 Octapole moment (field-independent basis, Debye-Ang**2):
  XXX=            609.1739  YYY=           -172.5474  ZZZ=            856.3971  XYY=           -368.9762
  XXY=            446.7154  XXZ=           1547.9703  XZZ=           1806.6237  YZZ=            585.3264
  YYZ=           -445.3636  XYZ=            560.3545
 Hexadecapole moment (field-independent basis, Debye-Ang**3):
 XXXX=          -1984.1696 YYYY=           -760.0417 ZZZZ=           5837.1408 XXXY=           5141.1767
 XXXZ=          15175.5924 YYYX=          -2121.4464 YYYZ=          -2535.3944 ZZZX=          26075.9287
 ZZZY=           8630.9692 XXYY=          -4577.7138 XXZZ=          26332.7178 YYZZ=          -6559.4402
 XXYZ=           7298.9832 YYXZ=          -5365.7839 ZZXY=           8701.2359
 N-N= 2.798584218161D+02 E-N=-2.087321520455D+03  KE= 6.424961128596D+02
 No NMR shielding tensors so no spin-rotation constants.
 Leave Link  601 at Mon Feb 20 02:00:55 2023, MaxMem=  6710886400 cpu:               2.0 elap:               0.1
 (Enter /data0/home/software/g16/l122.exe)
 CPIOFr:  IOpCl= 0 IRwI=-1 IRwCP=  731 ICalc=  4 LCPTot=      476096 Len1MO=     1252357 IndFrg=     6737881
 Restoring MOs from calculation   1 to rwf.
 CPIOFr:  IOpCl= 0 IRwI=-2 IRwCP=  731 ICalc=  0 LCPTot=      476096 Len1MO=     1252357 IndFrg=     1728453
 Counterpoise corrected energy =   -1216.155688864322
                   BSSE energy =       0.003095157820
              sum of fragments =   -1216.054068116605
           complexation energy =     -65.71 kcal/mole (raw)
           complexation energy =     -63.77 kcal/mole (corrected)
 Leave Link  122 at Mon Feb 20 02:00:55 2023, MaxMem=  6710886400 cpu:               0.4 elap:               0.0
 (Enter /data0/home/software/g16/l9999.exe)
 1\1\GINC-LOCALHOST\SP\RM062X\6-311+G(2d,p)\C8H15N2O6P1\WUHANYU\20-Feb-
 2023\0\\#p M062X/6-311+G(2d,p) nosymm em=GD3 counterpoise=2\\Title Car
 d Required\\0,1\C,0,9.145479,1.379504,16.786063\C,0,9.373766,0.9332,18
 .084569\C,0,9.93245,3.111434,17.988718\N,0,9.479984,2.730955,16.755414
 \H,0,8.821035,0.833913,15.913372\H,0,9.253789,-0.052866,18.50803\H,0,1
 0.308973,4.100437,18.260564\C,0,9.378094,3.605017,15.601536\H,0,10.234
 288,4.314602,15.557581\H,0,9.418919,3.016635,14.657118\H,0,8.435262,4.
 177961,15.625109\N,0,9.854883,2.019522,18.813634\C,0,10.24129,1.991912
 ,20.224676\H,0,9.368137,1.63269,20.818952\H,0,10.460495,3.036086,20.56
 934\C,0,11.461732,1.089042,20.473347\H,0,11.443924,0.749895,21.528946\
 H,0,11.393427,0.15681,19.865839\C,0,12.784938,1.794095,20.185887\H,0,1
 3.63107,1.217437,20.610551\H,0,12.825532,2.795341,20.653148\C,0,12.977
 844,1.899428,18.674138\O,0,12.638672,2.981263,18.128825\O,0,13.41952,0
 .906822,18.076614\P,0,12.401908,1.608519,14.856287\O,0,11.149247,0.862
 638,15.023164\O,0,13.728413,0.942577,15.394953\H,0,13.670094,0.913349,
 16.468126\O,0,12.689798,1.855086,13.307982\H,0,13.587559,2.362027,13.2
 41239\O,0,12.357803,3.08731,15.445504\H,0,12.546362,3.054729,16.490107
 \\Version=ES64L-G16RevA.03\HF=-644.1349639\RMSD=9.285e-09\Dipole=-2.96
 81299,1.425983,2.3232485\Quadrupole=-139.0627401,-3.4365615,142.499301
 6,20.9629361,-49.0778302,47.7597057\PG=C01 [X(C8H15N2O6P1)]\\@


 Sacred cows make the best hamburger.
                               -- Mark Twain
 Job cpu time:       0 days  2 hours 49 minutes 49.1 seconds.
 Elapsed time:       0 days  0 hours  7 minutes  7.9 seconds.
 File lengths (MBytes):  RWF=    234 Int=      0 D2E=      0 Chk=     70 Scr=      1
 Normal termination of Gaussian 16 at Mon Feb 20 02:00:55 2023.
