 Entering Gaussian System, Link 0=g16
 Initial command:
 /data0/home/software/g16/l1.exe "/data0/home/software/g16/scratch/Gau-242899.inp" -scrdir="/data0/home/software/g16/scratch/"
 Default is to use a total of  22 processors:
                               22 via shared-memory
                                1 via Linda
 Entering Link 1 = /data0/home/software/g16/l1.exe PID=    242900.
  
 Copyright (c) 1988,1990,1992,1993,1995,1998,2003,2009,2016,
            Gaussian, Inc.  All Rights Reserved.
  
 This is part of the Gaussian(R) 16 program.  It is based on
 the Gaussian(R) 09 system (copyright 2009, Gaussian, Inc.),
 the Gaussian(R) 03 system (copyright 2003, Gaussian, Inc.),
 the Gaussian(R) 98 system (copyright 1998, Gaussian, Inc.),
 the Gaussian(R) 94 system (copyright 1995, Gaussian, Inc.),
 the Gaussian 92(TM) system (copyright 1992, Gaussian, Inc.),
 the Gaussian 90(TM) system (copyright 1990, Gaussian, Inc.),
 the Gaussian 88(TM) system (copyright 1988, Gaussian, Inc.),
 the Gaussian 86(TM) system (copyright 1986, Carnegie Mellon
 University), and the Gaussian 82(TM) system (copyright 1983,
 Carnegie Mellon University). Gaussian is a federally registered
 trademark of Gaussian, Inc.
  
 This software contains proprietary and confidential information,
 including trade secrets, belonging to Gaussian, Inc.
  
 This software is provided under written license and may be
 used, copied, transmitted, or stored only in accord with that
 written license.
  
 The following legend is applicable only to US Government
 contracts under FAR:
  
                    RESTRICTED RIGHTS LEGEND
  
 Use, reproduction and disclosure by the US Government is
 subject to restrictions as set forth in subparagraphs (a)
 and (c) of the Commercial Computer Software - Restricted
 Rights clause in FAR 52.227-19.
  
 Gaussian, Inc.
 340 Quinnipiac St., Bldg. 40, Wallingford CT 06492
  
  
 ---------------------------------------------------------------
 Warning -- This program may not be used in any manner that
 competes with the business of Gaussian, Inc. or will provide
 assistance to any competitor of Gaussian, Inc.  The licensee
 of this program is prohibited from giving any competitor of
 Gaussian, Inc. access to this program.  By using this program,
 the user acknowledges that Gaussian, Inc. is engaged in the
 business of creating and licensing software in the field of
 computational chemistry and represents and warrants to the
 licensee that it is not a competitor of Gaussian, Inc. and that
 it will not use this program in any manner prohibited above.
 ---------------------------------------------------------------
  

 Cite this work as:
 Gaussian 16, Revision A.03,
 M. J. Frisch, G. W. Trucks, H. B. Schlegel, G. E. Scuseria, 
 M. A. Robb, J. R. Cheeseman, G. Scalmani, V. Barone, 
 G. A. Petersson, H. Nakatsuji, X. Li, M. Caricato, A. V. Marenich, 
 J. Bloino, B. G. Janesko, R. Gomperts, B. Mennucci, H. P. Hratchian, 
 J. V. Ortiz, A. F. Izmaylov, J. L. Sonnenberg, D. Williams-Young, 
 F. Ding, F. Lipparini, F. Egidi, J. Goings, B. Peng, A. Petrone, 
 T. Henderson, D. Ranasinghe, V. G. Zakrzewski, J. Gao, N. Rega, 
 G. Zheng, W. Liang, M. Hada, M. Ehara, K. Toyota, R. Fukuda, 
 J. Hasegawa, M. Ishida, T. Nakajima, Y. Honda, O. Kitao, H. Nakai, 
 T. Vreven, K. Throssell, J. A. Montgomery, Jr., J. E. Peralta, 
 F. Ogliaro, M. J. Bearpark, J. J. Heyd, E. N. Brothers, K. N. Kudin, 
 V. N. Staroverov, T. A. Keith, R. Kobayashi, J. Normand, 
 K. Raghavachari, A. P. Rendell, J. C. Burant, S. S. Iyengar, 
 J. Tomasi, M. Cossi, J. M. Millam, M. Klene, C. Adamo, R. Cammi, 
 J. W. Ochterski, R. L. Martin, K. Morokuma, O. Farkas, 
 J. B. Foresman, and D. J. Fox, Gaussian, Inc., Wallingford CT, 2016.
 
 ******************************************
 Gaussian 16:  ES64L-G16RevA.03 25-Dec-2016
                17-Feb-2023 
 ******************************************
 %nproc=24
 Will use up to   24 processors via shared memory.
 %mem=50GB
 ---------------------------------------------------
 #p M062X/6-311+G(2d,p) nosymm em=GD3 counterpoise=2
 ---------------------------------------------------
 1/38=1,62=2,172=1/1;
 2/12=2,15=1,17=6,18=5,40=1/2;
 1/38=1,53=2,62=2,63=1/22;
 3/5=4,6=6,7=112,11=2,25=1,30=1,74=-55,124=31/1,2,3;
 4//1;
 5/5=2,38=5/2;
 6/7=2,8=2,9=2,10=2,28=1/1;
 1/53=2,62=2,63=1/22;
 3/5=7,6=11,7=112,11=2,25=1,30=1,74=-55,82=7,124=31/1,2,3;
 4//1;
 5/5=2,38=5/2;
 6/7=2,8=2,9=2,10=2,28=1/1;
 1/53=2,62=2,63=1/22(-4);
 99/5=1,9=1/99;
 Leave Link    1 at Fri Feb 17 23:48:24 2023, MaxMem=  6710886400 cpu:               0.7 elap:               0.0
 (Enter /data0/home/software/g16/l101.exe)
 -------------------
 Title Card Required
 -------------------
 Symbolic Z-matrix:
 Charge =  0 Multiplicity = 1 in supermolecule
 Charge =  0 Multiplicity = 1 in fragment      1.
 Charge =  0 Multiplicity = 1 in fragment      2.
 P                     10.87657   14.65175   11.97969    
 O                     10.9275   13.19636   12.10783    
 O                     10.22076   15.20662   10.63263    
 H                     10.34629   14.49813   9.891      
 O                     10.12245   15.50604   13.07767    
 H                     9.19689   15.02733   13.29028    
 O                     12.3372   15.28948   12.00587    
 H                     12.24237   16.31309   12.01891    
 O                     10.71145   12.95589   8.78142    
 H                     10.35152   12.30706   9.39688    
 H                     11.66401   12.8783   8.8837     
 
 ITRead=  0  0  0  0  0  0  0  0  0  0  0
 MicOpt= -1 -1 -1 -1 -1 -1 -1 -1 -1 -1 -1
 NAtoms=     11 NQM=       11 NQMF=       0 NMMI=      0 NMMIF=      0
                NMic=       0 NMicF=      0.
                    Isotopes and Nuclear Properties:
 (Nuclear quadrupole moments (NQMom) in fm**2, nuclear magnetic moments (NMagM)
  in nuclear magnetons)

  Atom         1           2           3           4           5           6           7           8           9          10
 IAtWgt=          31          16          16           1          16           1          16           1          16           1
 AtmWgt=  30.9737634  15.9949146  15.9949146   1.0078250  15.9949146   1.0078250  15.9949146   1.0078250  15.9949146   1.0078250
 NucSpn=           1           0           0           1           0           1           0           1           0           1
 AtZEff=  -0.0000000  -0.0000000  -0.0000000  -0.0000000  -0.0000000  -0.0000000  -0.0000000  -0.0000000  -0.0000000  -0.0000000
 NQMom=    0.0000000   0.0000000   0.0000000   0.0000000   0.0000000   0.0000000   0.0000000   0.0000000   0.0000000   0.0000000
 NMagM=    1.1316000   0.0000000   0.0000000   2.7928460   0.0000000   2.7928460   0.0000000   2.7928460   0.0000000   2.7928460
 AtZNuc=  15.0000000   8.0000000   8.0000000   1.0000000   8.0000000   1.0000000   8.0000000   1.0000000   8.0000000   1.0000000

  Atom        11
 IAtWgt=           1
 AtmWgt=   1.0078250
 NucSpn=           1
 AtZEff=  -0.0000000
 NQMom=    0.0000000
 NMagM=    2.7928460
 AtZNuc=   1.0000000
 Leave Link  101 at Fri Feb 17 23:48:24 2023, MaxMem=  6710886400 cpu:               2.0 elap:               0.1
 (Enter /data0/home/software/g16/l202.exe)
                          Input orientation:                          
 ---------------------------------------------------------------------
 Center     Atomic      Atomic             Coordinates (Angstroms)
 Number     Number       Type             X           Y           Z
 ---------------------------------------------------------------------
      1         15           0       10.876570   14.651748   11.979689
      2          8           0       10.927497   13.196358   12.107827
      3          8           0       10.220757   15.206617   10.632632
      4          1           0       10.346293   14.498131    9.890996
      5          8           0       10.122449   15.506035   13.077668
      6          1           0        9.196895   15.027331   13.290280
      7          8           0       12.337200   15.289483   12.005871
      8          1           0       12.242368   16.313086   12.018911
      9          8           0       10.711450   12.955889    8.781419
     10          1           0       10.351519   12.307059    9.396880
     11          1           0       11.664012   12.878303    8.883697
 ---------------------------------------------------------------------
                    Distance matrix (angstroms):
                    1          2          3          4          5
     1  P    0.000000
     2  O    1.461907   0.000000
     3  O    1.597665   2.591683   0.000000
     4  H    2.160424   2.635669   1.033313   0.000000
     5  O    1.582423   2.631217   2.465262   3.349754   0.000000
     6  H    2.163335   2.783099   2.853687   3.627161   1.063490
     7  O    1.593999   2.525635   2.524279   3.010423   2.469973
     8  H    2.151043   3.383901   2.689415   3.378932   2.503269
     9  O    3.623829   3.342079   2.955257   1.934686   5.030698
    10  H    3.527626   2.910642   3.154619   2.246102   4.882020
    11  H    3.653812   3.322443   3.250047   2.318378   5.183704
                    6          7          8          9         10
     6  H    0.000000
     7  O    3.402932   0.000000
     8  H    3.541815   1.028069   0.000000
     9  O    5.187926   4.299513   4.908751   0.000000
    10  H    4.887903   4.432225   5.147680   0.964014   0.000000
    11  H    5.488439   4.001867   4.686342   0.961174   1.520630
                   11
    11  H    0.000000
 Symmetry turned off by external request.
 Stoichiometry    H5O5P
 Framework group  C1[X(H5O5P)]
 Deg. of freedom    27
 Full point group                 C1      NOp   1
 Rotational constants (GHZ):           4.4661833           1.6056412           1.5964611
 Leave Link  202 at Fri Feb 17 23:48:24 2023, MaxMem=  6710886400 cpu:               0.1 elap:               0.0
 (Enter /data0/home/software/g16/l122.exe)
 Counterpoise: doing full-system calculation.
 Leave Link  122 at Fri Feb 17 23:48:24 2023, MaxMem=  6710886400 cpu:               0.0 elap:               0.0
 (Enter /data0/home/software/g16/l301.exe)
 Standard basis: 6-311+G(2d,p) (5D, 7F)
 Ernie: Thresh=  0.10000D-02 Tol=  0.10000D-05 Strict=F.
   200 basis functions,   306 primitive gaussians,   212 cartesian basis functions
    30 alpha electrons       30 beta electrons
       nuclear repulsion energy       361.2004172874 Hartrees.
 IExCor= 4336 DFT=T Ex+Corr=M062X ExCW=0 ScaHFX=  0.540000
 ScaDFX=  1.000000  1.000000  1.000000  1.000000 ScalE2=  1.000000  1.000000
 IRadAn=      5 IRanWt=     -1 IRanGd=            0 ICorTp=0 IEmpDi=131
 NAtoms=   11 NActive=   11 NUniq=   11 SFac= 1.00D+00 NAtFMM=   60 NAOKFM=F Big=F
 Integral buffers will be    131072 words long.
 Raffenetti 2 integral format.
 Two-electron integral symmetry is turned off.
 R6Disp:  Grimme-D3 Dispersion energy=       -0.0001666917 Hartrees.
 Nuclear repulsion after empirical dispersion term =      361.2002505958 Hartrees.
 Leave Link  301 at Fri Feb 17 23:48:24 2023, MaxMem=  6710886400 cpu:               1.1 elap:               0.1
 (Enter /data0/home/software/g16/l302.exe)
 NPDir=0 NMtPBC=     1 NCelOv=     1 NCel=       1 NClECP=     1 NCelD=      1
         NCelK=      1 NCelE2=     1 NClLst=     1 CellRange=     0.0.
 One-electron integrals computed using PRISM.
 NBasis=   200 RedAO= T EigKep=  4.63D-04  NBF=   200
 NBsUse=   200 1.00D-06 EigRej= -1.00D+00 NBFU=   200
 Precomputing XC quadrature grid using
 IXCGrd= 4 IRadAn=           5 IRanWt=          -1 IRanGd=           0 AccXCQ= 0.00D+00.
 Generated NRdTot=       0 NPtTot=           0 NUsed=           0 NTot=          32
 NSgBfM=   212   212   212   212   212 MxSgAt=    11 MxSgA2=    11.
 Leave Link  302 at Fri Feb 17 23:48:25 2023, MaxMem=  6710886400 cpu:               3.3 elap:               0.2
 (Enter /data0/home/software/g16/l303.exe)
 DipDrv:  MaxL=1.
 Leave Link  303 at Fri Feb 17 23:48:25 2023, MaxMem=  6710886400 cpu:               0.6 elap:               0.0
 (Enter /data0/home/software/g16/l401.exe)
 ExpMin= 3.48D-02 ExpMax= 7.75D+04 ExpMxC= 2.65D+03 IAcc=3 IRadAn=         5 AccDes= 0.00D+00
 Harris functional with IExCor= 1009 and IRadAn=       5 diagonalized for initial guess.
 HarFok:  IExCor= 1009 AccDes= 0.00D+00 IRadAn=         5 IDoV= 1 UseB2=F ITyADJ=14
 ICtDFT=  3500011 ScaDFX=  1.000000  1.000000  1.000000  1.000000
 FoFCou: FMM=F IPFlag=           0 FMFlag=      100000 FMFlg1=           0
         NFxFlg=           0 DoJE=T BraDBF=F KetDBF=T FulRan=T
         wScrn=  0.000000 ICntrl=       500 IOpCl=  0 I1Cent=   200000004 NGrid=           0
         NMat0=    1 NMatS0=      1 NMatT0=    0 NMatD0=    1 NMtDS0=    0 NMtDT0=    0
 Symmetry not used in FoFCou.
 Harris En= -720.362254932215    
 JPrj=0 DoOrth=F DoCkMO=F.
 Leave Link  401 at Fri Feb 17 23:48:25 2023, MaxMem=  6710886400 cpu:               8.1 elap:               0.4
 (Enter /data0/home/software/g16/l502.exe)
 Keep R1 ints in memory in canonical form, NReq=227026219.
 FoFCou: FMM=F IPFlag=           0 FMFlag=           0 FMFlg1=           0
         NFxFlg=           0 DoJE=F BraDBF=F KetDBF=F FulRan=T
         wScrn=  0.000000 ICntrl=       600 IOpCl=  0 I1Cent=           0 NGrid=           0
         NMat0=    1 NMatS0=  20100 NMatT0=    0 NMatD0=    1 NMtDS0=    0 NMtDT0=    0
 Symmetry not used in FoFCou.
 Two-electron integral symmetry not used.
 Closed shell SCF:
 Using DIIS extrapolation, IDIIS=  1040.
 NGot=  6710886400 LenX=  6508774801 LenY=  6508729416
 Requested convergence on RMS density matrix=1.00D-08 within 128 cycles.
 Requested convergence on MAX density matrix=1.00D-06.
 Requested convergence on             energy=1.00D-06.
 No special actions if energy rises.

 Cycle   1  Pass 1  IDiag  1:
 E= -720.255131334571    
 DIIS: error= 3.49D-02 at cycle   1 NSaved=   1.
 NSaved= 1 IEnMin= 1 EnMin= -720.255131334571     IErMin= 1 ErrMin= 3.49D-02
 ErrMax= 3.49D-02  0.00D+00 EMaxC= 1.00D-01 BMatC= 6.03D-01 BMatP= 6.03D-01
 IDIUse=3 WtCom= 6.51D-01 WtEn= 3.49D-01
 Coeff-Com:  0.100D+01
 Coeff-En:   0.100D+01
 Coeff:      0.100D+01
 Gap=     0.310 Goal=   None    Shift=    0.000
 GapD=    0.310 DampG=1.000 DampE=0.500 DampFc=0.5000 IDamp=-1.
 Damping current iteration by 5.00D-01
 RMSDP=5.58D-03 MaxDP=1.39D-01              OVMax= 2.31D-01

 Cycle   2  Pass 1  IDiag  1:
 E= -720.399479493177     Delta-E=       -0.144348158606 Rises=F Damp=T
 DIIS: error= 8.92D-03 at cycle   2 NSaved=   2.
 NSaved= 2 IEnMin= 2 EnMin= -720.399479493177     IErMin= 2 ErrMin= 8.92D-03
 ErrMax= 8.92D-03  0.00D+00 EMaxC= 1.00D-01 BMatC= 2.82D-02 BMatP= 6.03D-01
 IDIUse=3 WtCom= 9.11D-01 WtEn= 8.92D-02
 Coeff-Com:  0.542D-01 0.946D+00
 Coeff-En:   0.168D+00 0.832D+00
 Coeff:      0.644D-01 0.936D+00
 Gap=     0.374 Goal=   None    Shift=    0.000
 RMSDP=1.18D-03 MaxDP=3.92D-02 DE=-1.44D-01 OVMax= 1.24D-01

 Cycle   3  Pass 1  IDiag  1:
 E= -720.588327801854     Delta-E=       -0.188848308677 Rises=F Damp=F
 DIIS: error= 5.07D-03 at cycle   3 NSaved=   3.
 NSaved= 3 IEnMin= 3 EnMin= -720.588327801854     IErMin= 3 ErrMin= 5.07D-03
 ErrMax= 5.07D-03  0.00D+00 EMaxC= 1.00D-01 BMatC= 8.19D-03 BMatP= 2.82D-02
 IDIUse=3 WtCom= 9.49D-01 WtEn= 5.07D-02
 Coeff-Com: -0.213D-01 0.294D+00 0.728D+00
 Coeff-En:   0.000D+00 0.000D+00 0.100D+01
 Coeff:     -0.202D-01 0.279D+00 0.741D+00
 Gap=     0.372 Goal=   None    Shift=    0.000
 RMSDP=5.10D-04 MaxDP=1.50D-02 DE=-1.89D-01 OVMax= 3.36D-02

 Cycle   4  Pass 1  IDiag  1:
 E= -720.591291849640     Delta-E=       -0.002964047786 Rises=F Damp=F
 DIIS: error= 3.71D-03 at cycle   4 NSaved=   4.
 NSaved= 4 IEnMin= 4 EnMin= -720.591291849640     IErMin= 4 ErrMin= 3.71D-03
 ErrMax= 3.71D-03  0.00D+00 EMaxC= 1.00D-01 BMatC= 4.17D-03 BMatP= 8.19D-03
 IDIUse=3 WtCom= 9.63D-01 WtEn= 3.71D-02
 Coeff-Com: -0.200D-01 0.455D-01 0.440D+00 0.534D+00
 Coeff-En:   0.000D+00 0.000D+00 0.339D+00 0.661D+00
 Coeff:     -0.192D-01 0.438D-01 0.437D+00 0.539D+00
 Gap=     0.370 Goal=   None    Shift=    0.000
 RMSDP=2.19D-04 MaxDP=6.87D-03 DE=-2.96D-03 OVMax= 1.25D-02

 Cycle   5  Pass 1  IDiag  1:
 E= -720.594072249675     Delta-E=       -0.002780400035 Rises=F Damp=F
 DIIS: error= 2.06D-04 at cycle   5 NSaved=   5.
 NSaved= 5 IEnMin= 5 EnMin= -720.594072249675     IErMin= 5 ErrMin= 2.06D-04
 ErrMax= 2.06D-04  0.00D+00 EMaxC= 1.00D-01 BMatC= 1.71D-05 BMatP= 4.17D-03
 IDIUse=3 WtCom= 9.98D-01 WtEn= 2.06D-03
 Coeff-Com: -0.263D-02 0.167D-02 0.786D-01 0.125D+00 0.797D+00
 Coeff-En:   0.000D+00 0.000D+00 0.000D+00 0.000D+00 0.100D+01
 Coeff:     -0.262D-02 0.166D-02 0.784D-01 0.125D+00 0.797D+00
 Gap=     0.368 Goal=   None    Shift=    0.000
 RMSDP=2.16D-05 MaxDP=9.67D-04 DE=-2.78D-03 OVMax= 7.35D-04

 Cycle   6  Pass 1  IDiag  1:
 E= -720.594084140032     Delta-E=       -0.000011890357 Rises=F Damp=F
 DIIS: error= 5.83D-05 at cycle   6 NSaved=   6.
 NSaved= 6 IEnMin= 6 EnMin= -720.594084140032     IErMin= 6 ErrMin= 5.83D-05
 ErrMax= 5.83D-05  0.00D+00 EMaxC= 1.00D-01 BMatC= 1.46D-06 BMatP= 1.71D-05
 IDIUse=1 WtCom= 1.00D+00 WtEn= 0.00D+00
 Coeff-Com: -0.420D-04-0.130D-02 0.705D-02 0.171D-01 0.250D+00 0.727D+00
 Coeff:     -0.420D-04-0.130D-02 0.705D-02 0.171D-01 0.250D+00 0.727D+00
 Gap=     0.369 Goal=   None    Shift=    0.000
 RMSDP=7.35D-06 MaxDP=2.06D-04 DE=-1.19D-05 OVMax= 2.12D-04

 Cycle   7  Pass 1  IDiag  1:
 E= -720.594085228028     Delta-E=       -0.000001087995 Rises=F Damp=F
 DIIS: error= 3.62D-05 at cycle   7 NSaved=   7.
 NSaved= 7 IEnMin= 7 EnMin= -720.594085228028     IErMin= 7 ErrMin= 3.62D-05
 ErrMax= 3.62D-05  0.00D+00 EMaxC= 1.00D-01 BMatC= 1.73D-07 BMatP= 1.46D-06
 IDIUse=1 WtCom= 1.00D+00 WtEn= 0.00D+00
 Coeff-Com:  0.341D-03-0.638D-03-0.871D-02-0.116D-01-0.171D-01 0.227D+00
 Coeff-Com:  0.811D+00
 Coeff:      0.341D-03-0.638D-03-0.871D-02-0.116D-01-0.171D-01 0.227D+00
 Coeff:      0.811D+00
 Gap=     0.369 Goal=   None    Shift=    0.000
 RMSDP=2.62D-06 MaxDP=6.01D-05 DE=-1.09D-06 OVMax= 1.35D-04

 Cycle   8  Pass 1  IDiag  1:
 E= -720.594085346377     Delta-E=       -0.000000118349 Rises=F Damp=F
 DIIS: error= 1.10D-05 at cycle   8 NSaved=   8.
 NSaved= 8 IEnMin= 8 EnMin= -720.594085346377     IErMin= 8 ErrMin= 1.10D-05
 ErrMax= 1.10D-05  0.00D+00 EMaxC= 1.00D-01 BMatC= 4.19D-08 BMatP= 1.73D-07
 IDIUse=1 WtCom= 1.00D+00 WtEn= 0.00D+00
 Coeff-Com:  0.157D-03-0.213D-03-0.454D-02-0.633D-02-0.204D-01 0.589D-01
 Coeff-Com:  0.403D+00 0.570D+00
 Coeff:      0.157D-03-0.213D-03-0.454D-02-0.633D-02-0.204D-01 0.589D-01
 Coeff:      0.403D+00 0.570D+00
 Gap=     0.369 Goal=   None    Shift=    0.000
 RMSDP=6.98D-07 MaxDP=2.32D-05 DE=-1.18D-07 OVMax= 2.97D-05

 Cycle   9  Pass 1  IDiag  1:
 E= -720.594085375603     Delta-E=       -0.000000029226 Rises=F Damp=F
 DIIS: error= 1.21D-06 at cycle   9 NSaved=   9.
 NSaved= 9 IEnMin= 9 EnMin= -720.594085375603     IErMin= 9 ErrMin= 1.21D-06
 ErrMax= 1.21D-06  0.00D+00 EMaxC= 1.00D-01 BMatC= 6.49D-10 BMatP= 4.19D-08
 IDIUse=1 WtCom= 1.00D+00 WtEn= 0.00D+00
 Coeff-Com: -0.190D-04 0.376D-04 0.212D-03 0.341D-03-0.938D-03-0.142D-01
 Coeff-Com: -0.262D-01 0.509D-01 0.990D+00
 Coeff:     -0.190D-04 0.376D-04 0.212D-03 0.341D-03-0.938D-03-0.142D-01
 Coeff:     -0.262D-01 0.509D-01 0.990D+00
 Gap=     0.369 Goal=   None    Shift=    0.000
 RMSDP=2.30D-07 MaxDP=5.20D-06 DE=-2.92D-08 OVMax= 8.24D-06

 Cycle  10  Pass 1  IDiag  1:
 E= -720.594085376381     Delta-E=       -0.000000000778 Rises=F Damp=F
 DIIS: error= 9.08D-07 at cycle  10 NSaved=  10.
 NSaved=10 IEnMin=10 EnMin= -720.594085376381     IErMin=10 ErrMin= 9.08D-07
 ErrMax= 9.08D-07  0.00D+00 EMaxC= 1.00D-01 BMatC= 1.66D-10 BMatP= 6.49D-10
 IDIUse=1 WtCom= 1.00D+00 WtEn= 0.00D+00
 Coeff-Com: -0.154D-04 0.267D-04 0.302D-03 0.434D-03 0.391D-03-0.948D-02
 Coeff-Com: -0.317D-01-0.474D-02 0.456D+00 0.589D+00
 Coeff:     -0.154D-04 0.267D-04 0.302D-03 0.434D-03 0.391D-03-0.948D-02
 Coeff:     -0.317D-01-0.474D-02 0.456D+00 0.589D+00
 Gap=     0.369 Goal=   None    Shift=    0.000
 RMSDP=5.72D-08 MaxDP=1.70D-06 DE=-7.78D-10 OVMax= 3.07D-06

 Cycle  11  Pass 1  IDiag  1:
 E= -720.594085376464     Delta-E=       -0.000000000083 Rises=F Damp=F
 DIIS: error= 1.91D-07 at cycle  11 NSaved=  11.
 NSaved=11 IEnMin=11 EnMin= -720.594085376464     IErMin=11 ErrMin= 1.91D-07
 ErrMax= 1.91D-07  0.00D+00 EMaxC= 1.00D-01 BMatC= 1.08D-11 BMatP= 1.66D-10
 IDIUse=1 WtCom= 1.00D+00 WtEn= 0.00D+00
 Coeff-Com: -0.154D-06 0.199D-07 0.439D-04 0.530D-04 0.258D-03-0.318D-03
 Coeff-Com: -0.509D-02-0.103D-01-0.316D-01 0.173D+00 0.874D+00
 Coeff:     -0.154D-06 0.199D-07 0.439D-04 0.530D-04 0.258D-03-0.318D-03
 Coeff:     -0.509D-02-0.103D-01-0.316D-01 0.173D+00 0.874D+00
 Gap=     0.369 Goal=   None    Shift=    0.000
 RMSDP=1.86D-08 MaxDP=3.93D-07 DE=-8.30D-11 OVMax= 8.55D-07

 Cycle  12  Pass 1  IDiag  1:
 E= -720.594085376494     Delta-E=       -0.000000000030 Rises=F Damp=F
 DIIS: error= 1.95D-08 at cycle  12 NSaved=  12.
 NSaved=12 IEnMin=12 EnMin= -720.594085376494     IErMin=12 ErrMin= 1.95D-08
 ErrMax= 1.95D-08  0.00D+00 EMaxC= 1.00D-01 BMatC= 2.42D-13 BMatP= 1.08D-11
 IDIUse=1 WtCom= 1.00D+00 WtEn= 0.00D+00
 Coeff-Com:  0.772D-06-0.136D-05-0.648D-05-0.112D-04 0.184D-04 0.382D-03
 Coeff-Com:  0.945D-03-0.830D-03-0.263D-01-0.518D-02 0.121D+00 0.910D+00
 Coeff:      0.772D-06-0.136D-05-0.648D-05-0.112D-04 0.184D-04 0.382D-03
 Coeff:      0.945D-03-0.830D-03-0.263D-01-0.518D-02 0.121D+00 0.910D+00
 Gap=     0.369 Goal=   None    Shift=    0.000
 RMSDP=4.91D-09 MaxDP=1.05D-07 DE=-3.02D-11 OVMax= 1.51D-07

 SCF Done:  E(RM062X) =  -720.594085376     A.U. after   12 cycles
            NFock= 12  Conv=0.49D-08     -V/T= 2.0026
 KE= 7.187538887077D+02 PE=-2.431035707595D+03 EE= 6.304874829150D+02
 Leave Link  502 at Fri Feb 17 23:48:36 2023, MaxMem=  6710886400 cpu:             167.2 elap:              10.7
 (Enter /data0/home/software/g16/l601.exe)
 Copying SCF densities to generalized density rwf, IOpCl= 0 IROHF=0.

 **********************************************************************

            Population analysis using the SCF density.

 **********************************************************************

 Alpha  occ. eigenvalues --  -78.16305 -19.68434 -19.67058 -19.65635 -19.65573
 Alpha  occ. eigenvalues --  -19.59190  -6.97076  -5.08987  -5.08937  -5.08802
 Alpha  occ. eigenvalues --   -1.23433  -1.16642  -1.16056  -1.14877  -1.09514
 Alpha  occ. eigenvalues --   -0.71983  -0.64533  -0.63734  -0.62673  -0.56321
 Alpha  occ. eigenvalues --   -0.53889  -0.50820  -0.50605  -0.48424  -0.46680
 Alpha  occ. eigenvalues --   -0.45693  -0.42992  -0.41894  -0.38983  -0.38221
 Alpha virt. eigenvalues --   -0.01365   0.01346   0.01810   0.04459   0.09303
 Alpha virt. eigenvalues --    0.09961   0.10881   0.13634   0.14012   0.14387
 Alpha virt. eigenvalues --    0.16238   0.16749   0.16939   0.18285   0.18969
 Alpha virt. eigenvalues --    0.20054   0.20503   0.21316   0.21870   0.23565
 Alpha virt. eigenvalues --    0.24180   0.25083   0.26607   0.27795   0.28579
 Alpha virt. eigenvalues --    0.29132   0.30244   0.30677   0.32806   0.34249
 Alpha virt. eigenvalues --    0.35870   0.37024   0.37423   0.39071   0.43828
 Alpha virt. eigenvalues --    0.45121   0.46244   0.50816   0.52151   0.54708
 Alpha virt. eigenvalues --    0.56989   0.60620   0.64468   0.75289   0.77304
 Alpha virt. eigenvalues --    0.78819   0.86655   0.95371   0.98475   1.00390
 Alpha virt. eigenvalues --    1.00863   1.03144   1.06360   1.08170   1.10125
 Alpha virt. eigenvalues --    1.12254   1.14626   1.15239   1.17422   1.19148
 Alpha virt. eigenvalues --    1.20006   1.21047   1.21948   1.23435   1.25184
 Alpha virt. eigenvalues --    1.27379   1.28270   1.32315   1.35841   1.39015
 Alpha virt. eigenvalues --    1.40021   1.44682   1.46104   1.48443   1.52875
 Alpha virt. eigenvalues --    1.54845   1.58910   1.61771   1.64911   1.65095
 Alpha virt. eigenvalues --    1.66229   1.69032   1.71955   1.72820   1.74886
 Alpha virt. eigenvalues --    1.76430   1.81279   1.83490   1.85393   1.86451
 Alpha virt. eigenvalues --    1.91535   1.96933   1.97242   2.02269   2.03841
 Alpha virt. eigenvalues --    2.07029   2.08130   2.13862   2.14913   2.18980
 Alpha virt. eigenvalues --    2.23191   2.26559   2.29462   2.38984   2.40500
 Alpha virt. eigenvalues --    2.46824   2.50112   2.53642   2.54879   2.58415
 Alpha virt. eigenvalues --    2.62388   2.68224   2.70812   2.76947   2.83914
 Alpha virt. eigenvalues --    2.86282   2.91083   2.94625   2.96949   3.01865
 Alpha virt. eigenvalues --    5.03779   5.06386   5.08459   5.09919   5.10780
 Alpha virt. eigenvalues --    5.11523   5.13724   5.20318   5.23681   5.35394
 Alpha virt. eigenvalues --    5.45569   5.49395   5.54046   5.59826   5.91868
 Alpha virt. eigenvalues --    6.73469   6.74467   6.76520   6.76736   6.77276
 Alpha virt. eigenvalues --    6.77981   6.79176   6.81162   6.82481   6.86458
 Alpha virt. eigenvalues --    6.88382   6.90276   6.90733   6.94854   6.96549
 Alpha virt. eigenvalues --    6.98046   7.02951   7.06520   7.07511   7.11917
 Alpha virt. eigenvalues --    7.21948   7.26701   7.30947   7.33390   7.39380
 Alpha virt. eigenvalues --    7.65089  14.23270  14.24226  14.37103  49.97340
 Alpha virt. eigenvalues --   49.99429  50.02127  50.04003  50.09342 163.86604
          Condensed to atoms (all electrons):
               1          2          3          4          5          6
     1  P   12.472619   0.499328   0.332219  -0.011006   0.235466  -0.001474
     2  O    0.499328   8.231159  -0.036033  -0.013189  -0.032849  -0.012182
     3  O    0.332219  -0.036033   8.044218   0.273835   0.017048  -0.006325
     4  H   -0.011006  -0.013189   0.273835   0.322894   0.000830  -0.000656
     5  O    0.235466  -0.032849   0.017048   0.000830   8.089497   0.270198
     6  H   -0.001474  -0.012182  -0.006325  -0.000656   0.270198   0.413399
     7  O    0.210251  -0.006135  -0.007055   0.007092  -0.018797   0.002417
     8  H    0.040266   0.004183  -0.009883  -0.002358  -0.017568   0.000976
     9  O    0.019676   0.003469   0.024395   0.007052   0.002513   0.000394
    10  H   -0.001691   0.003558  -0.006423   0.001994  -0.000199  -0.000038
    11  H   -0.002912  -0.001385  -0.004009  -0.001909  -0.000118  -0.000026
               7          8          9         10         11
     1  P    0.210251   0.040266   0.019676  -0.001691  -0.002912
     2  O   -0.006135   0.004183   0.003469   0.003558  -0.001385
     3  O   -0.007055  -0.009883   0.024395  -0.006423  -0.004009
     4  H    0.007092  -0.002358   0.007052   0.001994  -0.001909
     5  O   -0.018797  -0.017568   0.002513  -0.000199  -0.000118
     6  H    0.002417   0.000976   0.000394  -0.000038  -0.000026
     7  O    8.078005   0.228583  -0.012486   0.000599   0.001270
     8  H    0.228583   0.445551   0.000700  -0.000079  -0.000071
     9  O   -0.012486   0.000700   7.818735   0.352911   0.356519
    10  H    0.000599  -0.000079   0.352911   0.371612  -0.025275
    11  H    0.001270  -0.000071   0.356519  -0.025275   0.381086
 Mulliken charges:
               1
     1  P    1.207258
     2  O   -0.639925
     3  O   -0.621988
     4  H    0.415422
     5  O   -0.546022
     6  H    0.333317
     7  O   -0.483746
     8  H    0.309699
     9  O   -0.573879
    10  H    0.303031
    11  H    0.296832
 Sum of Mulliken charges =  -0.00000
 Mulliken charges with hydrogens summed into heavy atoms:
               1
     1  P    1.207258
     2  O   -0.639925
     3  O   -0.206566
     5  O   -0.212705
     7  O   -0.174047
     9  O    0.025984
         Mulliken charges condensed to fragments:
      1     -0.025984
      2      0.025984
 Electronic spatial extent (au):  <R**2>=          98928.3755
 Charge=             -0.0000 electrons
 Dipole moment (field-independent basis, Debye):
    X=             -0.6778    Y=              0.9513    Z=             -0.2349  Tot=              1.1914
 Quadrupole moment (field-independent basis, Debye-Ang):
   XX=            -53.0274   YY=            -12.2079   ZZ=            -49.6482
   XY=              3.1250   XZ=            -17.3495   YZ=             12.3095
 Traceless Quadrupole moment (field-independent basis, Debye-Ang):
   XX=            -14.7329   YY=             26.0866   ZZ=            -11.3537
   XY=              3.1250   XZ=            -17.3495   YZ=             12.3095
 Octapole moment (field-independent basis, Debye-Ang**2):
  XXX=          -1498.7540  YYY=          -1125.4860  ZZZ=          -1596.6209  XYY=           -189.8153
  XXY=           -598.8280  XXZ=           -783.9957  XZZ=           -787.4169  YZZ=           -482.6399
  YYZ=            -58.4307  XYZ=            -46.7052
 Hexadecapole moment (field-independent basis, Debye-Ang**3):
 XXXX=         -31206.7276 YYYY=         -38522.4201 ZZZZ=         -36045.2527 XXXY=         -19561.0106
 XXXZ=         -19860.4473 YYYX=         -12214.9770 YYYZ=         -11029.5121 ZZZX=         -21112.8651
 ZZZY=         -19884.2158 XXYY=         -10770.9381 XXZZ=         -16266.1192 YYZZ=          -9120.5033
 XXYZ=          -8780.9888 YYXZ=          -2649.3181 ZZXY=          -8416.2759
 N-N= 3.612002505958D+02 E-N=-2.431035710513D+03  KE= 7.187538887077D+02
 No NMR shielding tensors so no spin-rotation constants.
 Leave Link  601 at Fri Feb 17 23:48:36 2023, MaxMem=  6710886400 cpu:               2.0 elap:               0.1
 (Enter /data0/home/software/g16/l122.exe)
 CPIOFr:  IOpCl= 0 IRwI=-1 IRwCP=  731 ICalc= -1 LCPTot=       62711 Len1MO=      164280 IndFrg=       62711
 CPIOFr:  IOpCl= 0 IRwI=-1 IRwCP=  731 ICalc=  0 LCPTot=       62711 Len1MO=      164280 IndFrg=      226991
 Counterpoise: doing calculation for fragment   1 using the basis set of the full-system, NewBq=T
 Leave Link  122 at Fri Feb 17 23:48:36 2023, MaxMem=  6710886400 cpu:               0.1 elap:               0.0
 (Enter /data0/home/software/g16/l301.exe)
 Basis read from rwf:  (5D, 7F)
 No pseudopotential information found on rwf file.
   200 basis functions,   306 primitive gaussians,   212 cartesian basis functions
    25 alpha electrons       25 beta electrons
       nuclear repulsion energy       280.0870413345 Hartrees.
 IExCor= 4336 DFT=T Ex+Corr=M062X ExCW=0 ScaHFX=  0.540000
 ScaDFX=  1.000000  1.000000  1.000000  1.000000 ScalE2=  1.000000  1.000000
 IRadAn=      5 IRanWt=     -1 IRanGd=            0 ICorTp=0 IEmpDi=131
 NAtoms=   11 NActive=   11 NUniq=   11 SFac= 1.00D+00 NAtFMM=   60 NAOKFM=F Big=F
 Integral buffers will be    131072 words long.
 Raffenetti 2 integral format.
 Two-electron integral symmetry is turned off.
 R6Disp:  Grimme-D3 Dispersion energy=       -0.0000466012 Hartrees.
 Nuclear repulsion after empirical dispersion term =      280.0869947333 Hartrees.
 No density basis found on file   718.
 Leave Link  301 at Fri Feb 17 23:48:36 2023, MaxMem=  6710886400 cpu:               1.2 elap:               0.1
 (Enter /data0/home/software/g16/l302.exe)
 NPDir=0 NMtPBC=     1 NCelOv=     1 NCel=       1 NClECP=     1 NCelD=      1
         NCelK=      1 NCelE2=     1 NClLst=     1 CellRange=     0.0.
 One-electron integrals computed using PRISM.
 NBasis=   200 RedAO= T EigKep=  4.63D-04  NBF=   200
 NBsUse=   200 1.00D-06 EigRej= -1.00D+00 NBFU=   200
 Precomputing XC quadrature grid using
 IXCGrd= 4 IRadAn=           5 IRanWt=          -1 IRanGd=           0 AccXCQ= 0.00D+00.
 Generated NRdTot=       0 NPtTot=           0 NUsed=           0 NTot=          32
 NSgBfM=   212   212   212   212   212 MxSgAt=    11 MxSgA2=    11.
 Leave Link  302 at Fri Feb 17 23:48:36 2023, MaxMem=  6710886400 cpu:               3.3 elap:               0.2
 (Enter /data0/home/software/g16/l303.exe)
 DipDrv:  MaxL=1.
 Leave Link  303 at Fri Feb 17 23:48:36 2023, MaxMem=  6710886400 cpu:               0.5 elap:               0.0
 (Enter /data0/home/software/g16/l401.exe)
 ExpMin= 3.48D-02 ExpMax= 7.75D+04 ExpMxC= 2.65D+03 IAcc=3 IRadAn=         5 AccDes= 0.00D+00
 Harris functional with IExCor= 1009 and IRadAn=       5 diagonalized for initial guess.
 HarFok:  IExCor= 1009 AccDes= 0.00D+00 IRadAn=         5 IDoV= 1 UseB2=F ITyADJ=14
 ICtDFT=  3500011 ScaDFX=  1.000000  1.000000  1.000000  1.000000
 FoFCou: FMM=F IPFlag=           0 FMFlag=      100000 FMFlg1=           0
         NFxFlg=           0 DoJE=T BraDBF=F KetDBF=T FulRan=T
         wScrn=  0.000000 ICntrl=       500 IOpCl=  0 I1Cent=   200000004 NGrid=           0
         NMat0=    1 NMatS0=      1 NMatT0=    0 NMatD0=    1 NMtDS0=    0 NMtDT0=    0
 Symmetry not used in FoFCou.
 Harris En= -643.942769589417    
 JPrj=0 DoOrth=F DoCkMO=F.
 Leave Link  401 at Fri Feb 17 23:48:36 2023, MaxMem=  6710886400 cpu:               8.0 elap:               0.4
 (Enter /data0/home/software/g16/l502.exe)
 Keep R1 ints in memory in canonical form, NReq=227026219.
 FoFCou: FMM=F IPFlag=           0 FMFlag=           0 FMFlg1=           0
         NFxFlg=           0 DoJE=F BraDBF=F KetDBF=F FulRan=T
         wScrn=  0.000000 ICntrl=       600 IOpCl=  0 I1Cent=           0 NGrid=           0
         NMat0=    1 NMatS0=  20100 NMatT0=    0 NMatD0=    1 NMtDS0=    0 NMtDT0=    0
 Symmetry not used in FoFCou.
 Two-electron integral symmetry not used.
 Closed shell SCF:
 Using DIIS extrapolation, IDIIS=  1040.
 NGot=  6710886400 LenX=  6508774801 LenY=  6508729416
 Requested convergence on RMS density matrix=1.00D-08 within 128 cycles.
 Requested convergence on MAX density matrix=1.00D-06.
 Requested convergence on             energy=1.00D-06.
 No special actions if energy rises.

 Cycle   1  Pass 1  IDiag  1:
 E= -643.871490661762    
 DIIS: error= 3.15D-02 at cycle   1 NSaved=   1.
 NSaved= 1 IEnMin= 1 EnMin= -643.871490661762     IErMin= 1 ErrMin= 3.15D-02
 ErrMax= 3.15D-02  0.00D+00 EMaxC= 1.00D-01 BMatC= 5.02D-01 BMatP= 5.02D-01
 IDIUse=3 WtCom= 6.85D-01 WtEn= 3.15D-01
 Coeff-Com:  0.100D+01
 Coeff-En:   0.100D+01
 Coeff:      0.100D+01
 Gap=     0.312 Goal=   None    Shift=    0.000
 GapD=    0.312 DampG=1.000 DampE=0.500 DampFc=0.5000 IDamp=-1.
 Damping current iteration by 5.00D-01
 RMSDP=5.42D-03 MaxDP=1.42D-01              OVMax= 2.43D-01

 Cycle   2  Pass 1  IDiag  1:
 E= -643.988083430199     Delta-E=       -0.116592768438 Rises=F Damp=T
 DIIS: error= 9.01D-03 at cycle   2 NSaved=   2.
 NSaved= 2 IEnMin= 2 EnMin= -643.988083430199     IErMin= 2 ErrMin= 9.01D-03
 ErrMax= 9.01D-03  0.00D+00 EMaxC= 1.00D-01 BMatC= 2.55D-02 BMatP= 5.02D-01
 IDIUse=3 WtCom= 9.10D-01 WtEn= 9.01D-02
 Coeff-Com:  0.633D-01 0.937D+00
 Coeff-En:   0.188D+00 0.812D+00
 Coeff:      0.745D-01 0.925D+00
 Gap=     0.370 Goal=   None    Shift=    0.000
 RMSDP=1.19D-03 MaxDP=4.25D-02 DE=-1.17D-01 OVMax= 1.43D-01

 Cycle   3  Pass 1  IDiag  1:
 E= -644.147196731417     Delta-E=       -0.159113301218 Rises=F Damp=F
 DIIS: error= 5.53D-03 at cycle   3 NSaved=   3.
 NSaved= 3 IEnMin= 3 EnMin= -644.147196731417     IErMin= 3 ErrMin= 5.53D-03
 ErrMax= 5.53D-03  0.00D+00 EMaxC= 1.00D-01 BMatC= 8.83D-03 BMatP= 2.55D-02
 IDIUse=3 WtCom= 9.45D-01 WtEn= 5.53D-02
 Coeff-Com: -0.186D-01 0.324D+00 0.694D+00
 Coeff-En:   0.000D+00 0.000D+00 0.100D+01
 Coeff:     -0.175D-01 0.306D+00 0.711D+00
 Gap=     0.361 Goal=   None    Shift=    0.000
 RMSDP=5.04D-04 MaxDP=1.45D-02 DE=-1.59D-01 OVMax= 3.33D-02

 Cycle   4  Pass 1  IDiag  1:
 E= -644.150915175879     Delta-E=       -0.003718444462 Rises=F Damp=F
 DIIS: error= 3.63D-03 at cycle   4 NSaved=   4.
 NSaved= 4 IEnMin= 4 EnMin= -644.150915175879     IErMin= 4 ErrMin= 3.63D-03
 ErrMax= 3.63D-03  0.00D+00 EMaxC= 1.00D-01 BMatC= 3.72D-03 BMatP= 8.83D-03
 IDIUse=3 WtCom= 9.64D-01 WtEn= 3.63D-02
 Coeff-Com: -0.208D-01 0.486D-01 0.416D+00 0.556D+00
 Coeff-En:   0.000D+00 0.000D+00 0.299D+00 0.701D+00
 Coeff:     -0.201D-01 0.468D-01 0.412D+00 0.561D+00
 Gap=     0.366 Goal=   None    Shift=    0.000
 RMSDP=2.03D-04 MaxDP=6.16D-03 DE=-3.72D-03 OVMax= 1.14D-02

 Cycle   5  Pass 1  IDiag  1:
 E= -644.153388064492     Delta-E=       -0.002472888613 Rises=F Damp=F
 DIIS: error= 2.12D-04 at cycle   5 NSaved=   5.
 NSaved= 5 IEnMin= 5 EnMin= -644.153388064492     IErMin= 5 ErrMin= 2.12D-04
 ErrMax= 2.12D-04  0.00D+00 EMaxC= 1.00D-01 BMatC= 1.53D-05 BMatP= 3.72D-03
 IDIUse=3 WtCom= 9.98D-01 WtEn= 2.12D-03
 Coeff-Com: -0.247D-02 0.864D-03 0.662D-01 0.123D+00 0.813D+00
 Coeff-En:   0.000D+00 0.000D+00 0.000D+00 0.000D+00 0.100D+01
 Coeff:     -0.246D-02 0.862D-03 0.661D-01 0.122D+00 0.813D+00
 Gap=     0.365 Goal=   None    Shift=    0.000
 RMSDP=1.96D-05 MaxDP=9.12D-04 DE=-2.47D-03 OVMax= 7.63D-04

 Cycle   6  Pass 1  IDiag  1:
 E= -644.153398531425     Delta-E=       -0.000010466933 Rises=F Damp=F
 DIIS: error= 5.19D-05 at cycle   6 NSaved=   6.
 NSaved= 6 IEnMin= 6 EnMin= -644.153398531425     IErMin= 6 ErrMin= 5.19D-05
 ErrMax= 5.19D-05  0.00D+00 EMaxC= 1.00D-01 BMatC= 1.04D-06 BMatP= 1.53D-05
 IDIUse=1 WtCom= 1.00D+00 WtEn= 0.00D+00
 Coeff-Com:  0.102D-04-0.141D-02 0.357D-02 0.130D-01 0.218D+00 0.767D+00
 Coeff:      0.102D-04-0.141D-02 0.357D-02 0.130D-01 0.218D+00 0.767D+00
 Gap=     0.365 Goal=   None    Shift=    0.000
 RMSDP=7.33D-06 MaxDP=2.34D-04 DE=-1.05D-05 OVMax= 2.05D-04

 Cycle   7  Pass 1  IDiag  1:
 E= -644.153399311099     Delta-E=       -0.000000779674 Rises=F Damp=F
 DIIS: error= 1.96D-05 at cycle   7 NSaved=   7.
 NSaved= 7 IEnMin= 7 EnMin= -644.153399311099     IErMin= 7 ErrMin= 1.96D-05
 ErrMax= 1.96D-05  0.00D+00 EMaxC= 1.00D-01 BMatC= 1.51D-07 BMatP= 1.04D-06
 IDIUse=1 WtCom= 1.00D+00 WtEn= 0.00D+00
 Coeff-Com:  0.337D-03-0.597D-03-0.798D-02-0.120D-01-0.215D-01 0.256D+00
 Coeff-Com:  0.785D+00
 Coeff:      0.337D-03-0.597D-03-0.798D-02-0.120D-01-0.215D-01 0.256D+00
 Coeff:      0.785D+00
 Gap=     0.365 Goal=   None    Shift=    0.000
 RMSDP=2.28D-06 MaxDP=5.80D-05 DE=-7.80D-07 OVMax= 8.29D-05

 Cycle   8  Pass 1  IDiag  1:
 E= -644.153399412057     Delta-E=       -0.000000100958 Rises=F Damp=F
 DIIS: error= 1.01D-05 at cycle   8 NSaved=   8.
 NSaved= 8 IEnMin= 8 EnMin= -644.153399412057     IErMin= 8 ErrMin= 1.01D-05
 ErrMax= 1.01D-05  0.00D+00 EMaxC= 1.00D-01 BMatC= 3.30D-08 BMatP= 1.51D-07
 IDIUse=1 WtCom= 1.00D+00 WtEn= 0.00D+00
 Coeff-Com:  0.153D-03-0.205D-03-0.404D-02-0.624D-02-0.192D-01 0.813D-01
 Coeff-Com:  0.397D+00 0.551D+00
 Coeff:      0.153D-03-0.205D-03-0.404D-02-0.624D-02-0.192D-01 0.813D-01
 Coeff:      0.397D+00 0.551D+00
 Gap=     0.365 Goal=   None    Shift=    0.000
 RMSDP=6.62D-07 MaxDP=2.34D-05 DE=-1.01D-07 OVMax= 3.03D-05

 Cycle   9  Pass 1  IDiag  1:
 E= -644.153399434665     Delta-E=       -0.000000022608 Rises=F Damp=F
 DIIS: error= 8.98D-07 at cycle   9 NSaved=   9.
 NSaved= 9 IEnMin= 9 EnMin= -644.153399434665     IErMin= 9 ErrMin= 8.98D-07
 ErrMax= 8.98D-07  0.00D+00 EMaxC= 1.00D-01 BMatC= 5.94D-10 BMatP= 3.30D-08
 IDIUse=1 WtCom= 1.00D+00 WtEn= 0.00D+00
 Coeff-Com: -0.241D-04 0.453D-04 0.288D-03 0.536D-03-0.268D-03-0.179D-01
 Coeff-Com: -0.336D-01 0.621D-01 0.989D+00
 Coeff:     -0.241D-04 0.453D-04 0.288D-03 0.536D-03-0.268D-03-0.179D-01
 Coeff:     -0.336D-01 0.621D-01 0.989D+00
 Gap=     0.365 Goal=   None    Shift=    0.000
 RMSDP=2.29D-07 MaxDP=6.49D-06 DE=-2.26D-08 OVMax= 7.43D-06

 Cycle  10  Pass 1  IDiag  1:
 E= -644.153399435375     Delta-E=       -0.000000000710 Rises=F Damp=F
 DIIS: error= 1.75D-07 at cycle  10 NSaved=  10.
 NSaved=10 IEnMin=10 EnMin= -644.153399435375     IErMin=10 ErrMin= 1.75D-07
 ErrMax= 1.75D-07  0.00D+00 EMaxC= 1.00D-01 BMatC= 1.06D-11 BMatP= 5.94D-10
 IDIUse=1 WtCom= 1.00D+00 WtEn= 0.00D+00
 Coeff-Com: -0.293D-05 0.463D-05 0.103D-03 0.153D-03 0.491D-03-0.292D-02
 Coeff-Com: -0.131D-01-0.165D-01 0.207D-01 0.101D+01
 Coeff:     -0.293D-05 0.463D-05 0.103D-03 0.153D-03 0.491D-03-0.292D-02
 Coeff:     -0.131D-01-0.165D-01 0.207D-01 0.101D+01
 Gap=     0.365 Goal=   None    Shift=    0.000
 RMSDP=4.40D-08 MaxDP=8.95D-07 DE=-7.10D-10 OVMax= 1.73D-06

 Cycle  11  Pass 1  IDiag  1:
 E= -644.153399435407     Delta-E=       -0.000000000032 Rises=F Damp=F
 DIIS: error= 7.12D-08 at cycle  11 NSaved=  11.
 NSaved=11 IEnMin=11 EnMin= -644.153399435407     IErMin=11 ErrMin= 7.12D-08
 ErrMax= 7.12D-08  0.00D+00 EMaxC= 1.00D-01 BMatC= 1.88D-12 BMatP= 1.06D-11
 IDIUse=1 WtCom= 1.00D+00 WtEn= 0.00D+00
 Coeff-Com:  0.505D-06-0.110D-05 0.165D-04 0.187D-04 0.149D-03-0.495D-04
 Coeff-Com: -0.189D-02-0.703D-02-0.420D-01 0.288D+00 0.763D+00
 Coeff:      0.505D-06-0.110D-05 0.165D-04 0.187D-04 0.149D-03-0.495D-04
 Coeff:     -0.189D-02-0.703D-02-0.420D-01 0.288D+00 0.763D+00
 Gap=     0.365 Goal=   None    Shift=    0.000
 RMSDP=1.04D-08 MaxDP=2.31D-07 DE=-3.21D-11 OVMax= 3.94D-07

 Cycle  12  Pass 1  IDiag  1:
 E= -644.153399435413     Delta-E=       -0.000000000006 Rises=F Damp=F
 DIIS: error= 4.22D-08 at cycle  12 NSaved=  12.
 NSaved=12 IEnMin=12 EnMin= -644.153399435413     IErMin=12 ErrMin= 4.22D-08
 ErrMax= 4.22D-08  0.00D+00 EMaxC= 1.00D-01 BMatC= 6.26D-13 BMatP= 1.88D-12
 IDIUse=1 WtCom= 1.00D+00 WtEn= 0.00D+00
 Coeff-Com:  0.734D-06-0.131D-05-0.651D-05-0.129D-04 0.374D-05 0.418D-03
 Coeff-Com:  0.105D-02-0.114D-02-0.262D-01 0.208D-02 0.389D+00 0.635D+00
 Coeff:      0.734D-06-0.131D-05-0.651D-05-0.129D-04 0.374D-05 0.418D-03
 Coeff:      0.105D-02-0.114D-02-0.262D-01 0.208D-02 0.389D+00 0.635D+00
 Gap=     0.365 Goal=   None    Shift=    0.000
 RMSDP=3.82D-09 MaxDP=1.03D-07 DE=-5.68D-12 OVMax= 1.95D-07

 SCF Done:  E(RM062X) =  -644.153399435     A.U. after   12 cycles
            NFock= 12  Conv=0.38D-08     -V/T= 2.0025
 KE= 6.425392869869D+02 PE=-2.087898562502D+03 EE= 5.211188813460D+02
 Leave Link  502 at Fri Feb 17 23:48:46 2023, MaxMem=  6710886400 cpu:             160.4 elap:               9.6
 (Enter /data0/home/software/g16/l601.exe)
 Copying SCF densities to generalized density rwf, IOpCl= 0 IROHF=0.

 **********************************************************************

            Population analysis using the SCF density.

 **********************************************************************

 Alpha  occ. eigenvalues --  -78.16843 -19.68972 -19.67898 -19.67452 -19.59235
 Alpha  occ. eigenvalues --   -6.97625  -5.09525  -5.09498  -5.09340  -1.24202
 Alpha  occ. eigenvalues --   -1.16777  -1.16243  -1.09612  -0.72825  -0.65134
 Alpha  occ. eigenvalues --   -0.63631  -0.56845  -0.54838  -0.51352  -0.48652
 Alpha  occ. eigenvalues --   -0.47470  -0.46136  -0.42892  -0.39031  -0.38428
 Alpha virt. eigenvalues --   -0.01913   0.01241   0.01688   0.04570   0.07895
 Alpha virt. eigenvalues --    0.09534   0.10689   0.12042   0.13373   0.14665
 Alpha virt. eigenvalues --    0.15238   0.16963   0.17674   0.19092   0.19614
 Alpha virt. eigenvalues --    0.19958   0.20961   0.21606   0.22190   0.23691
 Alpha virt. eigenvalues --    0.25760   0.26677   0.27643   0.28496   0.29075
 Alpha virt. eigenvalues --    0.29421   0.30655   0.31848   0.33615   0.34323
 Alpha virt. eigenvalues --    0.35935   0.37111   0.38225   0.40048   0.41371
 Alpha virt. eigenvalues --    0.44531   0.45912   0.50165   0.54262   0.56818
 Alpha virt. eigenvalues --    0.63830   0.64802   0.71777   0.73745   0.75418
 Alpha virt. eigenvalues --    0.76169   0.78436   0.80833   0.86615   0.94150
 Alpha virt. eigenvalues --    0.98123   0.99767   1.03058   1.06711   1.06974
 Alpha virt. eigenvalues --    1.10190   1.12536   1.14706   1.16632   1.19256
 Alpha virt. eigenvalues --    1.20059   1.20680   1.22714   1.23868   1.26781
 Alpha virt. eigenvalues --    1.27524   1.34973   1.38457   1.43108   1.44634
 Alpha virt. eigenvalues --    1.46980   1.51461   1.52714   1.56814   1.60337
 Alpha virt. eigenvalues --    1.64274   1.64421   1.65291   1.69101   1.71096
 Alpha virt. eigenvalues --    1.74855   1.78094   1.80141   1.81699   1.83681
 Alpha virt. eigenvalues --    1.85477   1.86714   1.91328   1.96495   2.00907
 Alpha virt. eigenvalues --    2.01607   2.04017   2.06609   2.11596   2.15417
 Alpha virt. eigenvalues --    2.19029   2.20929   2.22885   2.28013   2.32026
 Alpha virt. eigenvalues --    2.39235   2.40467   2.45412   2.48065   2.50816
 Alpha virt. eigenvalues --    2.57563   2.59170   2.61030   2.61929   2.63579
 Alpha virt. eigenvalues --    2.64109   2.69576   2.71631   2.76273   2.83651
 Alpha virt. eigenvalues --    2.85901   2.91803   2.93688   2.94276   3.05530
 Alpha virt. eigenvalues --    3.45479   3.56836   4.51723   5.02656   5.05686
 Alpha virt. eigenvalues --    5.06893   5.07884   5.08896   5.10539   5.13314
 Alpha virt. eigenvalues --    5.20012   5.23111   5.35288   5.45075   5.53663
 Alpha virt. eigenvalues --    5.58254   6.72448   6.74159   6.76315   6.77442
 Alpha virt. eigenvalues --    6.77992   6.79891   6.81860   6.86531   6.89846
 Alpha virt. eigenvalues --    6.94297   6.95786   6.97137   7.01305   7.06000
 Alpha virt. eigenvalues --    7.10617   7.21522   7.26259   7.29359   7.32727
 Alpha virt. eigenvalues --    7.39305   7.64436   9.85174   9.86547   9.96845
 Alpha virt. eigenvalues --    9.98949  10.14424  12.99381  13.31857  13.78931
 Alpha virt. eigenvalues --   14.22744  14.23682  14.36576  17.79962  49.98654
 Alpha virt. eigenvalues --   50.01194  50.02136  50.09221 137.28245 163.86067
          Condensed to atoms (all electrons):
               1          2          3          4          5          6
     1  P   12.466123   0.534460   0.299296  -0.013966   0.243437  -0.000499
     2  O    0.534460   8.157549  -0.033089  -0.008743  -0.031942  -0.012823
     3  O    0.299296  -0.033089   8.004876   0.303850   0.016503  -0.007002
     4  H   -0.013966  -0.008743   0.303850   0.315505   0.002288  -0.000305
     5  O    0.243437  -0.031942   0.016503   0.002288   8.065945   0.270251
     6  H   -0.000499  -0.012823  -0.007002  -0.000305   0.270251   0.409885
     7  O    0.214318  -0.013292   0.003109   0.002365  -0.002028   0.003351
     8  H    0.044776   0.004880  -0.010223  -0.002081  -0.019146   0.001014
     9  O    0.002475   0.002688   0.018243   0.011398  -0.000145   0.000179
    10  H    0.002316   0.000357  -0.004730  -0.000825   0.000177  -0.000008
    11  H   -0.002355   0.000076  -0.003054  -0.002170  -0.000061  -0.000013
               7          8          9         10         11
     1  P    0.214318   0.044776   0.002475   0.002316  -0.002355
     2  O   -0.013292   0.004880   0.002688   0.000357   0.000076
     3  O    0.003109  -0.010223   0.018243  -0.004730  -0.003054
     4  H    0.002365  -0.002081   0.011398  -0.000825  -0.002170
     5  O   -0.002028  -0.019146  -0.000145   0.000177  -0.000061
     6  H    0.003351   0.001014   0.000179  -0.000008  -0.000013
     7  O    8.053029   0.224359  -0.001676  -0.000047   0.000447
     8  H    0.224359   0.448454   0.000574  -0.000056  -0.000055
     9  O   -0.001676   0.000574   0.026469  -0.008923  -0.008553
    10  H   -0.000047  -0.000056  -0.008923   0.004946   0.001938
    11  H    0.000447  -0.000055  -0.008553   0.001938   0.004591
 Mulliken charges:
               1
     1  P    1.209620
     2  O   -0.600120
     3  O   -0.587779
     4  H    0.392685
     5  O   -0.545278
     6  H    0.335971
     7  O   -0.483936
     8  H    0.307503
     9  O   -0.042730
    10  H    0.004855
    11  H    0.009210
 Sum of Mulliken charges =  -0.00000
 Mulliken charges with hydrogens summed into heavy atoms:
               1
     1  P    1.209620
     2  O   -0.600120
     3  O   -0.195095
     5  O   -0.209307
     7  O   -0.176433
     9  O   -0.028665
         Mulliken charges condensed to fragments:
      1      0.028665
      2     -0.028665
 Electronic spatial extent (au):  <R**2>=          86032.6809
 Charge=             -0.0000 electrons
 Dipole moment (field-independent basis, Debye):
    X=             -1.7324    Y=              2.6053    Z=             -0.9612  Tot=              3.2730
 Quadrupole moment (field-independent basis, Debye-Ang):
   XX=            -70.7552   YY=             37.6305   ZZ=            -53.9242
   XY=              6.6607   XZ=            -33.8477   YZ=             19.1928
 Traceless Quadrupole moment (field-independent basis, Debye-Ang):
   XX=            -41.7389   YY=             66.6468   ZZ=            -24.9079
   XY=              6.6607   XZ=            -33.8477   YZ=             19.1928
 Octapole moment (field-independent basis, Debye-Ang**2):
  XXX=          -1706.1338  YYY=            -19.7592  ZZZ=          -1533.3684  XYY=            154.0893
  XXY=           -649.2820  XXZ=          -1010.4566  XZZ=           -904.1217  YZZ=           -376.9600
  YYZ=            304.9023  XYZ=            -90.8443
 Hexadecapole moment (field-independent basis, Debye-Ang**3):
 XXXX=         -33065.8273 YYYY=         -17013.6936 ZZZZ=         -33774.9913 XXXY=         -20375.4833
 XXXZ=         -22356.9605 YYYX=          -2906.7687 YYYZ=          -1934.7845 ZZZX=         -20999.2999
 ZZZY=         -17461.5332 XXYY=          -8287.8466 XXZZ=         -17878.6248 YYZZ=          -5086.4400
 XXYZ=          -9944.6467 YYXZ=           -344.0033 ZZXY=          -8249.7783
 N-N= 2.800869947333D+02 E-N=-2.087898564797D+03  KE= 6.425392869869D+02
 No NMR shielding tensors so no spin-rotation constants.
 Leave Link  601 at Fri Feb 17 23:48:46 2023, MaxMem=  6710886400 cpu:               2.0 elap:               0.1
 (Enter /data0/home/software/g16/l122.exe)
 CPIOFr:  IOpCl= 0 IRwI=-1 IRwCP=  731 ICalc=  1 LCPTot=       62711 Len1MO=      164280 IndFrg=      391271
 Counterpoise: doing calculation for fragment   2 using the basis set of the full-system, NewBq=T
 Leave Link  122 at Fri Feb 17 23:48:46 2023, MaxMem=  6710886400 cpu:               0.1 elap:               0.0
 (Enter /data0/home/software/g16/l301.exe)
 Basis read from rwf:  (5D, 7F)
 No pseudopotential information found on rwf file.
   200 basis functions,   306 primitive gaussians,   212 cartesian basis functions
     5 alpha electrons        5 beta electrons
       nuclear repulsion energy         9.1438727962 Hartrees.
 IExCor= 4336 DFT=T Ex+Corr=M062X ExCW=0 ScaHFX=  0.540000
 ScaDFX=  1.000000  1.000000  1.000000  1.000000 ScalE2=  1.000000  1.000000
 IRadAn=      5 IRanWt=     -1 IRanGd=            0 ICorTp=0 IEmpDi=131
 NAtoms=   11 NActive=   11 NUniq=   11 SFac= 1.00D+00 NAtFMM=   60 NAOKFM=F Big=F
 Integral buffers will be    131072 words long.
 Raffenetti 2 integral format.
 Two-electron integral symmetry is turned off.
 R6Disp:  Grimme-D3 Dispersion energy=       -0.0000000075 Hartrees.
 Nuclear repulsion after empirical dispersion term =        9.1438727887 Hartrees.
 No density basis found on file   718.
 Leave Link  301 at Fri Feb 17 23:48:46 2023, MaxMem=  6710886400 cpu:               1.3 elap:               0.1
 (Enter /data0/home/software/g16/l302.exe)
 NPDir=0 NMtPBC=     1 NCelOv=     1 NCel=       1 NClECP=     1 NCelD=      1
         NCelK=      1 NCelE2=     1 NClLst=     1 CellRange=     0.0.
 One-electron integrals computed using PRISM.
 NBasis=   200 RedAO= T EigKep=  4.63D-04  NBF=   200
 NBsUse=   200 1.00D-06 EigRej= -1.00D+00 NBFU=   200
 Precomputing XC quadrature grid using
 IXCGrd= 4 IRadAn=           5 IRanWt=          -1 IRanGd=           0 AccXCQ= 0.00D+00.
 Generated NRdTot=       0 NPtTot=           0 NUsed=           0 NTot=          32
 NSgBfM=   212   212   212   212   212 MxSgAt=    11 MxSgA2=    11.
 Leave Link  302 at Fri Feb 17 23:48:46 2023, MaxMem=  6710886400 cpu:               3.3 elap:               0.2
 (Enter /data0/home/software/g16/l303.exe)
 DipDrv:  MaxL=1.
 Leave Link  303 at Fri Feb 17 23:48:46 2023, MaxMem=  6710886400 cpu:               0.6 elap:               0.0
 (Enter /data0/home/software/g16/l401.exe)
 ExpMin= 3.48D-02 ExpMax= 7.75D+04 ExpMxC= 2.65D+03 IAcc=3 IRadAn=         5 AccDes= 0.00D+00
 Harris functional with IExCor= 1009 and IRadAn=       5 diagonalized for initial guess.
 HarFok:  IExCor= 1009 AccDes= 0.00D+00 IRadAn=         5 IDoV= 1 UseB2=F ITyADJ=14
 ICtDFT=  3500011 ScaDFX=  1.000000  1.000000  1.000000  1.000000
 FoFCou: FMM=F IPFlag=           0 FMFlag=      100000 FMFlg1=           0
         NFxFlg=           0 DoJE=T BraDBF=F KetDBF=T FulRan=T
         wScrn=  0.000000 ICntrl=       500 IOpCl=  0 I1Cent=   200000004 NGrid=           0
         NMat0=    1 NMatS0=      1 NMatT0=    0 NMatD0=    1 NMtDS0=    0 NMtDT0=    0
 Symmetry not used in FoFCou.
 Harris En= -76.4176865692147    
 JPrj=0 DoOrth=F DoCkMO=F.
 Leave Link  401 at Fri Feb 17 23:48:47 2023, MaxMem=  6710886400 cpu:               7.5 elap:               0.3
 (Enter /data0/home/software/g16/l502.exe)
 Keep R1 ints in memory in canonical form, NReq=227026219.
 FoFCou: FMM=F IPFlag=           0 FMFlag=           0 FMFlg1=           0
         NFxFlg=           0 DoJE=F BraDBF=F KetDBF=F FulRan=T
         wScrn=  0.000000 ICntrl=       600 IOpCl=  0 I1Cent=           0 NGrid=           0
         NMat0=    1 NMatS0=  20100 NMatT0=    0 NMatD0=    1 NMtDS0=    0 NMtDT0=    0
 Symmetry not used in FoFCou.
 Two-electron integral symmetry not used.
 Closed shell SCF:
 Using DIIS extrapolation, IDIIS=  1040.
 NGot=  6710886400 LenX=  6508774801 LenY=  6508729416
 Requested convergence on RMS density matrix=1.00D-08 within 128 cycles.
 Requested convergence on MAX density matrix=1.00D-06.
 Requested convergence on             energy=1.00D-06.
 No special actions if energy rises.

 Cycle   1  Pass 1  IDiag  1:
 E= -76.3471870313542    
 DIIS: error= 3.84D-02 at cycle   1 NSaved=   1.
 NSaved= 1 IEnMin= 1 EnMin= -76.3471870313542     IErMin= 1 ErrMin= 3.84D-02
 ErrMax= 3.84D-02  0.00D+00 EMaxC= 1.00D-01 BMatC= 1.21D-01 BMatP= 1.21D-01
 IDIUse=3 WtCom= 6.16D-01 WtEn= 3.84D-01
 Coeff-Com:  0.100D+01
 Coeff-En:   0.100D+01
 Coeff:      0.100D+01
 Gap=     0.273 Goal=   None    Shift=    0.000
 GapD=    0.273 DampG=1.000 DampE=0.500 DampFc=0.5000 IDamp=-1.
 Damping current iteration by 5.00D-01
 RMSDP=2.44D-03 MaxDP=1.00D-01              OVMax= 1.72D-01

 Cycle   2  Pass 1  IDiag  1:
 E= -76.3786024453957     Delta-E=       -0.031415414042 Rises=F Damp=T
 DIIS: error= 8.72D-03 at cycle   2 NSaved=   2.
 NSaved= 2 IEnMin= 2 EnMin= -76.3786024453957     IErMin= 2 ErrMin= 8.72D-03
 ErrMax= 8.72D-03  0.00D+00 EMaxC= 1.00D-01 BMatC= 4.89D-03 BMatP= 1.21D-01
 IDIUse=3 WtCom= 9.13D-01 WtEn= 8.72D-02
 Coeff-Com:  0.835D-01 0.916D+00
 Coeff-En:   0.190D+00 0.810D+00
 Coeff:      0.928D-01 0.907D+00
 Gap=     0.399 Goal=   None    Shift=    0.000
 RMSDP=3.32D-04 MaxDP=1.41D-02 DE=-3.14D-02 OVMax= 1.03D-01

 Cycle   3  Pass 1  IDiag  1:
 E= -76.4228667636878     Delta-E=       -0.044264318292 Rises=F Damp=F
 DIIS: error= 1.01D-03 at cycle   3 NSaved=   3.
 NSaved= 3 IEnMin= 3 EnMin= -76.4228667636878     IErMin= 3 ErrMin= 1.01D-03
 ErrMax= 1.01D-03  0.00D+00 EMaxC= 1.00D-01 BMatC= 1.15D-04 BMatP= 4.89D-03
 IDIUse=3 WtCom= 9.90D-01 WtEn= 1.01D-02
 Coeff-Com: -0.238D-01 0.431D-01 0.981D+00
 Coeff-En:   0.000D+00 0.000D+00 0.100D+01
 Coeff:     -0.236D-01 0.426D-01 0.981D+00
 Gap=     0.402 Goal=   None    Shift=    0.000
 RMSDP=3.76D-05 MaxDP=1.50D-03 DE=-4.43D-02 OVMax= 3.54D-03

 Cycle   4  Pass 1  IDiag  1:
 E= -76.4229613751002     Delta-E=       -0.000094611412 Rises=F Damp=F
 DIIS: error= 1.61D-04 at cycle   4 NSaved=   4.
 NSaved= 4 IEnMin= 4 EnMin= -76.4229613751002     IErMin= 4 ErrMin= 1.61D-04
 ErrMax= 1.61D-04  0.00D+00 EMaxC= 1.00D-01 BMatC= 2.66D-06 BMatP= 1.15D-04
 IDIUse=3 WtCom= 9.98D-01 WtEn= 1.61D-03
 Coeff-Com: -0.225D-02-0.967D-03 0.144D+00 0.859D+00
 Coeff-En:   0.000D+00 0.000D+00 0.000D+00 0.100D+01
 Coeff:     -0.224D-02-0.966D-03 0.144D+00 0.859D+00
 Gap=     0.402 Goal=   None    Shift=    0.000
 RMSDP=7.24D-06 MaxDP=3.22D-04 DE=-9.46D-05 OVMax= 5.18D-04

 Cycle   5  Pass 1  IDiag  1:
 E= -76.4229630879880     Delta-E=       -0.000001712888 Rises=F Damp=F
 DIIS: error= 3.01D-05 at cycle   5 NSaved=   5.
 NSaved= 5 IEnMin= 5 EnMin= -76.4229630879880     IErMin= 5 ErrMin= 3.01D-05
 ErrMax= 3.01D-05  0.00D+00 EMaxC= 1.00D-01 BMatC= 7.15D-08 BMatP= 2.66D-06
 IDIUse=1 WtCom= 1.00D+00 WtEn= 0.00D+00
 Coeff-Com:  0.128D-02-0.195D-02-0.359D-01-0.438D-01 0.108D+01
 Coeff:      0.128D-02-0.195D-02-0.359D-01-0.438D-01 0.108D+01
 Gap=     0.402 Goal=   None    Shift=    0.000
 RMSDP=5.13D-06 MaxDP=1.39D-04 DE=-1.71D-06 OVMax= 2.04D-04

 Cycle   6  Pass 1  IDiag  1:
 E= -76.4229632139793     Delta-E=       -0.000000125991 Rises=F Damp=F
 DIIS: error= 5.46D-06 at cycle   6 NSaved=   6.
 NSaved= 6 IEnMin= 6 EnMin= -76.4229632139793     IErMin= 6 ErrMin= 5.46D-06
 ErrMax= 5.46D-06  0.00D+00 EMaxC= 1.00D-01 BMatC= 1.84D-09 BMatP= 7.15D-08
 IDIUse=1 WtCom= 1.00D+00 WtEn= 0.00D+00
 Coeff-Com: -0.254D-03 0.366D-03 0.335D-02-0.839D-02-0.153D+00 0.116D+01
 Coeff:     -0.254D-03 0.366D-03 0.335D-02-0.839D-02-0.153D+00 0.116D+01
 Gap=     0.402 Goal=   None    Shift=    0.000
 RMSDP=7.41D-07 MaxDP=2.50D-05 DE=-1.26D-07 OVMax= 3.96D-05

 Cycle   7  Pass 1  IDiag  1:
 E= -76.4229632175535     Delta-E=       -0.000000003574 Rises=F Damp=F
 DIIS: error= 4.57D-07 at cycle   7 NSaved=   7.
 NSaved= 7 IEnMin= 7 EnMin= -76.4229632175535     IErMin= 7 ErrMin= 4.57D-07
 ErrMax= 4.57D-07  0.00D+00 EMaxC= 1.00D-01 BMatC= 2.02D-11 BMatP= 1.84D-09
 IDIUse=1 WtCom= 1.00D+00 WtEn= 0.00D+00
 Coeff-Com:  0.349D-04-0.323D-04-0.363D-03 0.235D-02 0.662D-02-0.174D+00
 Coeff-Com:  0.117D+01
 Coeff:      0.349D-04-0.323D-04-0.363D-03 0.235D-02 0.662D-02-0.174D+00
 Coeff:      0.117D+01
 Gap=     0.402 Goal=   None    Shift=    0.000
 RMSDP=1.03D-07 MaxDP=3.67D-06 DE=-3.57D-09 OVMax= 5.11D-06

 Cycle   8  Pass 1  IDiag  1:
 E= -76.4229632176028     Delta-E=       -0.000000000049 Rises=F Damp=F
 DIIS: error= 7.67D-08 at cycle   8 NSaved=   8.
 NSaved= 8 IEnMin= 8 EnMin= -76.4229632176028     IErMin= 8 ErrMin= 7.67D-08
 ErrMax= 7.67D-08  0.00D+00 EMaxC= 1.00D-01 BMatC= 3.84D-13 BMatP= 2.02D-11
 IDIUse=1 WtCom= 1.00D+00 WtEn= 0.00D+00
 Coeff-Com:  0.178D-05-0.508D-05 0.592D-05 0.890D-04 0.165D-02-0.689D-02
 Coeff-Com: -0.677D-01 0.107D+01
 Coeff:      0.178D-05-0.508D-05 0.592D-05 0.890D-04 0.165D-02-0.689D-02
 Coeff:     -0.677D-01 0.107D+01
 Gap=     0.402 Goal=   None    Shift=    0.000
 RMSDP=4.22D-09 MaxDP=1.07D-07 DE=-4.93D-11 OVMax= 4.30D-07

 SCF Done:  E(RM062X) =  -76.4229632176     A.U. after    8 cycles
            NFock=  8  Conv=0.42D-08     -V/T= 2.0029
 KE= 7.620314311631D+01 PE=-1.991370024520D+02 EE= 3.736702332942D+01
 Leave Link  502 at Fri Feb 17 23:48:53 2023, MaxMem=  6710886400 cpu:             109.9 elap:               6.6
 (Enter /data0/home/software/g16/l601.exe)
 Copying SCF densities to generalized density rwf, IOpCl= 0 IROHF=0.

 **********************************************************************

            Population analysis using the SCF density.

 **********************************************************************

 Alpha  occ. eigenvalues --  -19.62599  -1.13522  -0.60965  -0.47579  -0.40054
 Alpha virt. eigenvalues --    0.00184   0.04050   0.04530   0.05190   0.10983
 Alpha virt. eigenvalues --    0.12829   0.13669   0.15122   0.15915   0.17503
 Alpha virt. eigenvalues --    0.18585   0.19598   0.19786   0.20653   0.21444
 Alpha virt. eigenvalues --    0.22521   0.23871   0.25005   0.26197   0.27537
 Alpha virt. eigenvalues --    0.28867   0.30224   0.31796   0.35106   0.35343
 Alpha virt. eigenvalues --    0.36143   0.36441   0.37906   0.38857   0.40688
 Alpha virt. eigenvalues --    0.42223   0.45444   0.47901   0.53559   0.60240
 Alpha virt. eigenvalues --    0.68871   0.69374   0.70258   0.72066   0.73598
 Alpha virt. eigenvalues --    0.74121   0.75512   0.76198   0.80294   0.84922
 Alpha virt. eigenvalues --    0.85754   0.88558   0.93446   0.96586   0.98806
 Alpha virt. eigenvalues --    0.99484   1.02536   1.04822   1.06560   1.10464
 Alpha virt. eigenvalues --    1.10975   1.13501   1.15454   1.15774   1.21798
 Alpha virt. eigenvalues --    1.22695   1.23806   1.25794   1.28216   1.31434
 Alpha virt. eigenvalues --    1.41302   1.45309   1.47305   1.50091   1.60074
 Alpha virt. eigenvalues --    1.69806   1.76702   1.77894   1.87579   1.93873
 Alpha virt. eigenvalues --    1.95968   2.01129   2.05695   2.09148   2.12462
 Alpha virt. eigenvalues --    2.15338   2.18336   2.20695   2.27456   2.31470
 Alpha virt. eigenvalues --    2.35065   2.39050   2.41503   2.44376   2.46186
 Alpha virt. eigenvalues --    2.48342   2.51286   2.52466   2.54832   2.55689
 Alpha virt. eigenvalues --    2.59723   2.63256   2.64281   2.67894   2.68928
 Alpha virt. eigenvalues --    2.72147   2.74985   2.77479   2.77689   2.80854
 Alpha virt. eigenvalues --    2.84280   2.87705   2.88791   2.93085   2.95431
 Alpha virt. eigenvalues --    2.97239   2.99383   3.00586   3.04429   3.05652
 Alpha virt. eigenvalues --    3.06617   3.11733   3.13662   3.18920   3.21879
 Alpha virt. eigenvalues --    3.25586   3.28348   3.33619   3.39694   3.46893
 Alpha virt. eigenvalues --    3.69175   3.78185   3.79926   4.43381   4.43495
 Alpha virt. eigenvalues --    4.47806   4.54615   4.59285   4.73970   4.87932
 Alpha virt. eigenvalues --    4.91334   4.94369   5.15855   5.53263   5.94607
 Alpha virt. eigenvalues --    6.80873   6.81138   6.91386   6.94192   7.09877
 Alpha virt. eigenvalues --    9.78034   9.86838   9.87530   9.90373   9.92879
 Alpha virt. eigenvalues --    9.98436  10.06861  10.11355  10.17847  10.22747
 Alpha virt. eigenvalues --   10.26259  10.28548  10.31342  10.36606  10.38484
 Alpha virt. eigenvalues --   10.40002  10.43878  10.46221  10.52845  10.58631
 Alpha virt. eigenvalues --   10.67016  10.77287  10.84420  12.85146  12.93700
 Alpha virt. eigenvalues --   13.00003  13.02646  13.26352  13.38944  13.40888
 Alpha virt. eigenvalues --   13.48766  13.54817  13.61473  13.89100  13.90068
 Alpha virt. eigenvalues --   14.07191  17.74172  17.87716  18.48804  18.49888
 Alpha virt. eigenvalues --   50.00771  52.28734  52.34231  52.49192  69.92581
 Alpha virt. eigenvalues --  134.49505 137.39865 139.61753 139.72532 481.76290
          Condensed to atoms (all electrons):
               1          2          3          4          5          6
     1  P    0.033902  -0.004055  -0.013256   0.009471  -0.016444  -0.001988
     2  O   -0.004055   0.002424   0.002169  -0.002956  -0.000292   0.000039
     3  O   -0.013256   0.002169   0.048490  -0.046348   0.009938   0.000786
     4  H    0.009471  -0.002956  -0.046348   0.054145  -0.002902  -0.000227
     5  O   -0.016444  -0.000292   0.009938  -0.002902   0.019513   0.001592
     6  H   -0.001988   0.000039   0.000786  -0.000227   0.001592   0.000312
     7  O   -0.003258   0.001519  -0.012361   0.005931  -0.010782  -0.000502
     8  H   -0.000012  -0.000022   0.000267  -0.000157   0.000045   0.000004
     9  O    0.000831   0.008792   0.054529  -0.066400   0.002039   0.000107
    10  H   -0.001339   0.001445  -0.002254   0.002918  -0.000102  -0.000010
    11  H   -0.000793   0.000731  -0.001835   0.001700  -0.000017  -0.000002
               7          8          9         10         11
     1  P   -0.003258  -0.000012   0.000831  -0.001339  -0.000793
     2  O    0.001519  -0.000022   0.008792   0.001445   0.000731
     3  O   -0.012361   0.000267   0.054529  -0.002254  -0.001835
     4  H    0.005931  -0.000157  -0.066400   0.002918   0.001700
     5  O   -0.010782   0.000045   0.002039  -0.000102  -0.000017
     6  H   -0.000502   0.000004   0.000107  -0.000010  -0.000002
     7  O    0.018689  -0.000250  -0.007283   0.000260   0.000397
     8  H   -0.000250   0.000085   0.000075  -0.000003  -0.000017
     9  O   -0.007283   0.000075   7.793865   0.370766   0.370762
    10  H    0.000260  -0.000003   0.370766   0.396094  -0.035923
    11  H    0.000397  -0.000017   0.370762  -0.035923   0.401836
 Mulliken charges:
               1
     1  P   -0.003060
     2  O   -0.009794
     3  O   -0.040125
     4  H    0.044826
     5  O   -0.002588
     6  H   -0.000110
     7  O    0.007639
     8  H   -0.000014
     9  O   -0.528082
    10  H    0.268147
    11  H    0.263162
 Sum of Mulliken charges =   0.00000
 Mulliken charges with hydrogens summed into heavy atoms:
               1
     1  P   -0.003060
     2  O   -0.009794
     3  O    0.004701
     5  O   -0.002698
     7  O    0.007625
     9  O    0.003227
         Mulliken charges condensed to fragments:
      1     -0.003227
      2      0.003227
 Electronic spatial extent (au):  <R**2>=          12880.0424
 Charge=              0.0000 electrons
 Dipole moment (field-independent basis, Debye):
    X=              1.0142    Y=             -1.2408    Z=              1.2346  Tot=              2.0229
 Quadrupole moment (field-independent basis, Debye-Ang):
   XX=             16.9554   YY=            -38.6909   ZZ=             14.9536
   XY=              0.3548   XZ=             21.6997   YZ=              3.9882
 Traceless Quadrupole moment (field-independent basis, Debye-Ang):
   XX=             19.2160   YY=            -36.4303   ZZ=             17.2142
   XY=              0.3548   XZ=             21.6997   YZ=              3.9882
 Octapole moment (field-independent basis, Debye-Ang**2):
  XXX=            196.6054  YYY=           -878.5260  ZZZ=            107.6655  XYY=           -231.7203
  XXY=             88.1531  XXZ=            281.3027  XZZ=            230.2392  YZZ=             78.3806
  YYZ=           -161.1275  XYZ=            157.2446
 Hexadecapole moment (field-independent basis, Debye-Ang**3):
 XXXX=           1731.2527 YYYY=         -17362.0501 ZZZZ=            199.3537 XXXY=           1196.7168
 XXXZ=           3095.1472 YYYX=          -6973.9575 YYYZ=          -5582.0245 ZZZX=           1724.7931
 ZZZY=            293.1696 XXYY=          -1327.9222 XXZZ=           2845.8927 YYZZ=           -982.2291
 XXYZ=           2368.0152 YYXZ=           -186.6978 ZZXY=           1791.4005
 N-N= 9.143872788685D+00 E-N=-1.991370045845D+02  KE= 7.620314311631D+01
 No NMR shielding tensors so no spin-rotation constants.
 Leave Link  601 at Fri Feb 17 23:48:54 2023, MaxMem=  6710886400 cpu:               2.0 elap:               0.1
 (Enter /data0/home/software/g16/l122.exe)
 CPIOFr:  IOpCl= 0 IRwI=-1 IRwCP=  731 ICalc=  2 LCPTot=       62711 Len1MO=      164280 IndFrg=      555551
 Counterpoise: doing calculation for fragment   1 using the basis set of the fragment.
 Leave Link  122 at Fri Feb 17 23:48:54 2023, MaxMem=  6710886400 cpu:               0.1 elap:               0.0
 (Enter /data0/home/software/g16/l301.exe)
 Basis read from rwf:  (5D, 7F)
 No pseudopotential information found on rwf file.
   161 basis functions,   248 primitive gaussians,   171 cartesian basis functions
    25 alpha electrons       25 beta electrons
       nuclear repulsion energy       280.0870413345 Hartrees.
 IExCor= 4336 DFT=T Ex+Corr=M062X ExCW=0 ScaHFX=  0.540000
 ScaDFX=  1.000000  1.000000  1.000000  1.000000 ScalE2=  1.000000  1.000000
 IRadAn=      5 IRanWt=     -1 IRanGd=            0 ICorTp=0 IEmpDi=131
 NAtoms=   11 NActive=    8 NUniq=    8 SFac= 1.00D+00 NAtFMM=   60 NAOKFM=F Big=F
 Integral buffers will be    131072 words long.
 Raffenetti 2 integral format.
 Two-electron integral symmetry is turned off.
 R6Disp:  Grimme-D3 Dispersion energy=       -0.0000466012 Hartrees.
 Nuclear repulsion after empirical dispersion term =      280.0869947333 Hartrees.
 No density basis found on file   718.
 Leave Link  301 at Fri Feb 17 23:48:54 2023, MaxMem=  6710886400 cpu:               1.3 elap:               0.1
 (Enter /data0/home/software/g16/l302.exe)
 NPDir=0 NMtPBC=     1 NCelOv=     1 NCel=       1 NClECP=     1 NCelD=      1
         NCelK=      1 NCelE2=     1 NClLst=     1 CellRange=     0.0.
 One-electron integrals computed using PRISM.
 NBasis=   161 RedAO= T EigKep=  5.12D-04  NBF=   161
 NBsUse=   161 1.00D-06 EigRej= -1.00D+00 NBFU=   161
 Precomputing XC quadrature grid using
 IXCGrd= 4 IRadAn=           5 IRanWt=          -1 IRanGd=           0 AccXCQ= 0.00D+00.
 Generated NRdTot=       0 NPtTot=           0 NUsed=           0 NTot=          32
 NSgBfM=   171   171   171   171   171 MxSgAt=     8 MxSgA2=     8.
 Leave Link  302 at Fri Feb 17 23:48:54 2023, MaxMem=  6710886400 cpu:               2.9 elap:               0.1
 (Enter /data0/home/software/g16/l303.exe)
 DipDrv:  MaxL=1.
 Leave Link  303 at Fri Feb 17 23:48:54 2023, MaxMem=  6710886400 cpu:               0.5 elap:               0.0
 (Enter /data0/home/software/g16/l401.exe)
 ExpMin= 3.48D-02 ExpMax= 7.75D+04 ExpMxC= 2.65D+03 IAcc=3 IRadAn=         5 AccDes= 0.00D+00
 Harris functional with IExCor= 1009 and IRadAn=       5 diagonalized for initial guess.
 HarFok:  IExCor= 1009 AccDes= 0.00D+00 IRadAn=         5 IDoV= 1 UseB2=F ITyADJ=14
 ICtDFT=  3500011 ScaDFX=  1.000000  1.000000  1.000000  1.000000
 FoFCou: FMM=F IPFlag=           0 FMFlag=      100000 FMFlg1=           0
         NFxFlg=           0 DoJE=T BraDBF=F KetDBF=T FulRan=T
         wScrn=  0.000000 ICntrl=       500 IOpCl=  0 I1Cent=   200000004 NGrid=           0
         NMat0=    1 NMatS0=      1 NMatT0=    0 NMatD0=    1 NMtDS0=    0 NMtDT0=    0
 Symmetry not used in FoFCou.
 Harris En= -643.942441877573    
 JPrj=0 DoOrth=F DoCkMO=F.
 Leave Link  401 at Fri Feb 17 23:48:54 2023, MaxMem=  6710886400 cpu:               6.1 elap:               0.3
 (Enter /data0/home/software/g16/l502.exe)
 Keep R1 ints in memory in canonical form, NReq=108960467.
 FoFCou: FMM=F IPFlag=           0 FMFlag=           0 FMFlg1=           0
         NFxFlg=           0 DoJE=F BraDBF=F KetDBF=F FulRan=T
         wScrn=  0.000000 ICntrl=       600 IOpCl=  0 I1Cent=           0 NGrid=           0
         NMat0=    1 NMatS0=  13041 NMatT0=    0 NMatD0=    1 NMtDS0=    0 NMtDT0=    0
 Symmetry not used in FoFCou.
 Two-electron integral symmetry not used.
 Closed shell SCF:
 Using DIIS extrapolation, IDIIS=  1040.
 NGot=  6710886400 LenX=  6625782085 LenY=  6625752403
 Requested convergence on RMS density matrix=1.00D-08 within 128 cycles.
 Requested convergence on MAX density matrix=1.00D-06.
 Requested convergence on             energy=1.00D-06.
 No special actions if energy rises.

 Cycle   1  Pass 1  IDiag  1:
 E= -643.871208532367    
 DIIS: error= 3.81D-02 at cycle   1 NSaved=   1.
 NSaved= 1 IEnMin= 1 EnMin= -643.871208532367     IErMin= 1 ErrMin= 3.81D-02
 ErrMax= 3.81D-02  0.00D+00 EMaxC= 1.00D-01 BMatC= 5.02D-01 BMatP= 5.02D-01
 IDIUse=3 WtCom= 6.19D-01 WtEn= 3.81D-01
 Coeff-Com:  0.100D+01
 Coeff-En:   0.100D+01
 Coeff:      0.100D+01
 Gap=     0.313 Goal=   None    Shift=    0.000
 GapD=    0.313 DampG=1.000 DampE=0.500 DampFc=0.5000 IDamp=-1.
 Damping current iteration by 5.00D-01
 RMSDP=6.58D-03 MaxDP=1.42D-01              OVMax= 2.43D-01

 Cycle   2  Pass 1  IDiag  1:
 E= -643.987811297435     Delta-E=       -0.116602765067 Rises=F Damp=T
 DIIS: error= 1.03D-02 at cycle   2 NSaved=   2.
 NSaved= 2 IEnMin= 2 EnMin= -643.987811297435     IErMin= 2 ErrMin= 1.03D-02
 ErrMax= 1.03D-02  0.00D+00 EMaxC= 1.00D-01 BMatC= 2.55D-02 BMatP= 5.02D-01
 IDIUse=3 WtCom= 8.97D-01 WtEn= 1.03D-01
 Coeff-Com:  0.632D-01 0.937D+00
 Coeff-En:   0.188D+00 0.812D+00
 Coeff:      0.760D-01 0.924D+00
 Gap=     0.370 Goal=   None    Shift=    0.000
 RMSDP=1.43D-03 MaxDP=4.25D-02 DE=-1.17D-01 OVMax= 1.43D-01

 Cycle   3  Pass 1  IDiag  1:
 E= -644.146992491554     Delta-E=       -0.159181194120 Rises=F Damp=F
 DIIS: error= 6.02D-03 at cycle   3 NSaved=   3.
 NSaved= 3 IEnMin= 3 EnMin= -644.146992491554     IErMin= 3 ErrMin= 6.02D-03
 ErrMax= 6.02D-03  0.00D+00 EMaxC= 1.00D-01 BMatC= 8.70D-03 BMatP= 2.55D-02
 IDIUse=3 WtCom= 9.40D-01 WtEn= 6.02D-02
 Coeff-Com: -0.174D-01 0.323D+00 0.695D+00
 Coeff-En:   0.000D+00 0.000D+00 0.100D+01
 Coeff:     -0.164D-01 0.303D+00 0.713D+00
 Gap=     0.361 Goal=   None    Shift=    0.000
 RMSDP=6.21D-04 MaxDP=1.44D-02 DE=-1.59D-01 OVMax= 3.32D-02

 Cycle   4  Pass 1  IDiag  1:
 E= -644.150587533672     Delta-E=       -0.003595042118 Rises=F Damp=F
 DIIS: error= 3.42D-03 at cycle   4 NSaved=   4.
 NSaved= 4 IEnMin= 4 EnMin= -644.150587533672     IErMin= 4 ErrMin= 3.42D-03
 ErrMax= 3.42D-03  0.00D+00 EMaxC= 1.00D-01 BMatC= 3.76D-03 BMatP= 8.70D-03
 IDIUse=3 WtCom= 9.66D-01 WtEn= 3.42D-02
 Coeff-Com: -0.200D-01 0.470D-01 0.418D+00 0.555D+00
 Coeff-En:   0.000D+00 0.000D+00 0.305D+00 0.695D+00
 Coeff:     -0.193D-01 0.454D-01 0.414D+00 0.560D+00
 Gap=     0.367 Goal=   None    Shift=    0.000
 RMSDP=2.50D-04 MaxDP=6.20D-03 DE=-3.60D-03 OVMax= 1.14D-02

 Cycle   5  Pass 1  IDiag  1:
 E= -644.153089281704     Delta-E=       -0.002501748032 Rises=F Damp=F
 DIIS: error= 1.92D-04 at cycle   5 NSaved=   5.
 NSaved= 5 IEnMin= 5 EnMin= -644.153089281704     IErMin= 5 ErrMin= 1.92D-04
 ErrMax= 1.92D-04  0.00D+00 EMaxC= 1.00D-01 BMatC= 1.47D-05 BMatP= 3.76D-03
 IDIUse=3 WtCom= 9.98D-01 WtEn= 1.92D-03
 Coeff-Com: -0.236D-02 0.643D-03 0.669D-01 0.121D+00 0.813D+00
 Coeff-En:   0.000D+00 0.000D+00 0.000D+00 0.000D+00 0.100D+01
 Coeff:     -0.236D-02 0.642D-03 0.667D-01 0.121D+00 0.814D+00
 Gap=     0.365 Goal=   None    Shift=    0.000
 RMSDP=2.35D-05 MaxDP=9.17D-04 DE=-2.50D-03 OVMax= 7.60D-04

 Cycle   6  Pass 1  IDiag  1:
 E= -644.153099389257     Delta-E=       -0.000010107553 Rises=F Damp=F
 DIIS: error= 6.99D-05 at cycle   6 NSaved=   6.
 NSaved= 6 IEnMin= 6 EnMin= -644.153099389257     IErMin= 6 ErrMin= 6.99D-05
 ErrMax= 6.99D-05  0.00D+00 EMaxC= 1.00D-01 BMatC= 1.04D-06 BMatP= 1.47D-05
 IDIUse=1 WtCom= 1.00D+00 WtEn= 0.00D+00
 Coeff-Com:  0.849D-05-0.142D-02 0.380D-02 0.129D-01 0.220D+00 0.765D+00
 Coeff:      0.849D-05-0.142D-02 0.380D-02 0.129D-01 0.220D+00 0.765D+00
 Gap=     0.366 Goal=   None    Shift=    0.000
 RMSDP=8.77D-06 MaxDP=2.32D-04 DE=-1.01D-05 OVMax= 2.04D-04

 Cycle   7  Pass 1  IDiag  1:
 E= -644.153100170830     Delta-E=       -0.000000781572 Rises=F Damp=F
 DIIS: error= 2.23D-05 at cycle   7 NSaved=   7.
 NSaved= 7 IEnMin= 7 EnMin= -644.153100170830     IErMin= 7 ErrMin= 2.23D-05
 ErrMax= 2.23D-05  0.00D+00 EMaxC= 1.00D-01 BMatC= 1.51D-07 BMatP= 1.04D-06
 IDIUse=1 WtCom= 1.00D+00 WtEn= 0.00D+00
 Coeff-Com:  0.322D-03-0.571D-03-0.802D-02-0.119D-01-0.215D-01 0.255D+00
 Coeff-Com:  0.786D+00
 Coeff:      0.322D-03-0.571D-03-0.802D-02-0.119D-01-0.215D-01 0.255D+00
 Coeff:      0.786D+00
 Gap=     0.366 Goal=   None    Shift=    0.000
 RMSDP=2.79D-06 MaxDP=5.87D-05 DE=-7.82D-07 OVMax= 8.26D-05

 Cycle   8  Pass 1  IDiag  1:
 E= -644.153100271606     Delta-E=       -0.000000100777 Rises=F Damp=F
 DIIS: error= 1.10D-05 at cycle   8 NSaved=   8.
 NSaved= 8 IEnMin= 8 EnMin= -644.153100271606     IErMin= 8 ErrMin= 1.10D-05
 ErrMax= 1.10D-05  0.00D+00 EMaxC= 1.00D-01 BMatC= 3.32D-08 BMatP= 1.51D-07
 IDIUse=1 WtCom= 1.00D+00 WtEn= 0.00D+00
 Coeff-Com:  0.145D-03-0.190D-03-0.407D-02-0.621D-02-0.193D-01 0.805D-01
 Coeff-Com:  0.397D+00 0.552D+00
 Coeff:      0.145D-03-0.190D-03-0.407D-02-0.621D-02-0.193D-01 0.805D-01
 Coeff:      0.397D+00 0.552D+00
 Gap=     0.366 Goal=   None    Shift=    0.000
 RMSDP=7.88D-07 MaxDP=2.35D-05 DE=-1.01D-07 OVMax= 3.06D-05

 Cycle   9  Pass 1  IDiag  1:
 E= -644.153100294385     Delta-E=       -0.000000022779 Rises=F Damp=F
 DIIS: error= 1.12D-06 at cycle   9 NSaved=   9.
 NSaved= 9 IEnMin= 9 EnMin= -644.153100294385     IErMin= 9 ErrMin= 1.12D-06
 ErrMax= 1.12D-06  0.00D+00 EMaxC= 1.00D-01 BMatC= 5.88D-10 BMatP= 3.32D-08
 IDIUse=1 WtCom= 1.00D+00 WtEn= 0.00D+00
 Coeff-Com: -0.233D-04 0.442D-04 0.282D-03 0.526D-03-0.291D-03-0.176D-01
 Coeff-Com: -0.331D-01 0.611D-01 0.989D+00
 Coeff:     -0.233D-04 0.442D-04 0.282D-03 0.526D-03-0.291D-03-0.176D-01
 Coeff:     -0.331D-01 0.611D-01 0.989D+00
 Gap=     0.366 Goal=   None    Shift=    0.000
 RMSDP=2.78D-07 MaxDP=6.44D-06 DE=-2.28D-08 OVMax= 7.39D-06

 Cycle  10  Pass 1  IDiag  1:
 E= -644.153100295097     Delta-E=       -0.000000000713 Rises=F Damp=F
 DIIS: error= 2.05D-07 at cycle  10 NSaved=  10.
 NSaved=10 IEnMin=10 EnMin= -644.153100295097     IErMin=10 ErrMin= 2.05D-07
 ErrMax= 2.05D-07  0.00D+00 EMaxC= 1.00D-01 BMatC= 1.05D-11 BMatP= 5.88D-10
 IDIUse=1 WtCom= 1.00D+00 WtEn= 0.00D+00
 Coeff-Com: -0.265D-05 0.409D-05 0.103D-03 0.151D-03 0.498D-03-0.285D-02
 Coeff-Com: -0.130D-01-0.167D-01 0.174D-01 0.101D+01
 Coeff:     -0.265D-05 0.409D-05 0.103D-03 0.151D-03 0.498D-03-0.285D-02
 Coeff:     -0.130D-01-0.167D-01 0.174D-01 0.101D+01
 Gap=     0.366 Goal=   None    Shift=    0.000
 RMSDP=5.30D-08 MaxDP=8.19D-07 DE=-7.13D-10 OVMax= 1.74D-06

 Cycle  11  Pass 1  IDiag  1:
 E= -644.153100295123     Delta-E=       -0.000000000026 Rises=F Damp=F
 DIIS: error= 7.56D-08 at cycle  11 NSaved=  11.
 NSaved=11 IEnMin=11 EnMin= -644.153100295123     IErMin=11 ErrMin= 7.56D-08
 ErrMax= 7.56D-08  0.00D+00 EMaxC= 1.00D-01 BMatC= 1.76D-12 BMatP= 1.05D-11
 IDIUse=1 WtCom= 1.00D+00 WtEn= 0.00D+00
 Coeff-Com:  0.564D-06-0.123D-05 0.158D-04 0.171D-04 0.146D-03-0.193D-04
 Coeff-Com: -0.176D-02-0.680D-02-0.427D-01 0.277D+00 0.774D+00
 Coeff:      0.564D-06-0.123D-05 0.158D-04 0.171D-04 0.146D-03-0.193D-04
 Coeff:     -0.176D-02-0.680D-02-0.427D-01 0.277D+00 0.774D+00
 Gap=     0.366 Goal=   None    Shift=    0.000
 RMSDP=1.22D-08 MaxDP=2.23D-07 DE=-2.59D-11 OVMax= 3.86D-07

 Cycle  12  Pass 1  IDiag  1:
 E= -644.153100295133     Delta-E=       -0.000000000009 Rises=F Damp=F
 DIIS: error= 4.21D-08 at cycle  12 NSaved=  12.
 NSaved=12 IEnMin=12 EnMin= -644.153100295133     IErMin=12 ErrMin= 4.21D-08
 ErrMax= 4.21D-08  0.00D+00 EMaxC= 1.00D-01 BMatC= 6.08D-13 BMatP= 1.76D-12
 IDIUse=1 WtCom= 1.00D+00 WtEn= 0.00D+00
 Coeff-Com:  0.706D-06-0.127D-05-0.633D-05-0.125D-04 0.410D-05 0.409D-03
 Coeff-Com:  0.104D-02-0.109D-02-0.259D-01 0.121D-02 0.395D+00 0.629D+00
 Coeff:      0.706D-06-0.127D-05-0.633D-05-0.125D-04 0.410D-05 0.409D-03
 Coeff:      0.104D-02-0.109D-02-0.259D-01 0.121D-02 0.395D+00 0.629D+00
 Gap=     0.366 Goal=   None    Shift=    0.000
 RMSDP=4.65D-09 MaxDP=1.02D-07 DE=-9.32D-12 OVMax= 1.92D-07

 SCF Done:  E(RM062X) =  -644.153100295     A.U. after   12 cycles
            NFock= 12  Conv=0.46D-08     -V/T= 2.0025
 KE= 6.425413750230D+02 PE=-2.087899014819D+03 EE= 5.211175447672D+02
 Leave Link  502 at Fri Feb 17 23:49:00 2023, MaxMem=  6710886400 cpu:             108.8 elap:               5.8
 (Enter /data0/home/software/g16/l601.exe)
 Copying SCF densities to generalized density rwf, IOpCl= 0 IROHF=0.

 **********************************************************************

            Population analysis using the SCF density.

 **********************************************************************

 Alpha  occ. eigenvalues --  -78.16844 -19.68972 -19.67901 -19.67447 -19.59240
 Alpha  occ. eigenvalues --   -6.97627  -5.09527  -5.09501  -5.09342  -1.24206
 Alpha  occ. eigenvalues --   -1.16781  -1.16244  -1.09619  -0.72828  -0.65135
 Alpha  occ. eigenvalues --   -0.63634  -0.56847  -0.54840  -0.51351  -0.48653
 Alpha  occ. eigenvalues --   -0.47470  -0.46140  -0.42891  -0.39034  -0.38432
 Alpha virt. eigenvalues --   -0.01854   0.01391   0.01933   0.04618   0.09646
 Alpha virt. eigenvalues --    0.10079   0.11830   0.14300   0.15447   0.17065
 Alpha virt. eigenvalues --    0.17584   0.18316   0.19219   0.19868   0.21580
 Alpha virt. eigenvalues --    0.21900   0.23817   0.25157   0.25970   0.27387
 Alpha virt. eigenvalues --    0.28514   0.29113   0.30113   0.30608   0.33514
 Alpha virt. eigenvalues --    0.34753   0.36088   0.37928   0.40849   0.43210
 Alpha virt. eigenvalues --    0.44659   0.48081   0.52803   0.56310   0.56782
 Alpha virt. eigenvalues --    0.74439   0.76561   0.77084   0.85885   0.96740
 Alpha virt. eigenvalues --    0.99372   1.01666   1.06002   1.08387   1.11587
 Alpha virt. eigenvalues --    1.13762   1.15011   1.18225   1.19130   1.19778
 Alpha virt. eigenvalues --    1.21771   1.23583   1.25111   1.26568   1.33862
 Alpha virt. eigenvalues --    1.37892   1.42028   1.44164   1.46702   1.50507
 Alpha virt. eigenvalues --    1.52546   1.56088   1.60194   1.63785   1.64559
 Alpha virt. eigenvalues --    1.65292   1.69724   1.71381   1.75063   1.80148
 Alpha virt. eigenvalues --    1.83980   1.84904   1.86911   1.90432   1.96125
 Alpha virt. eigenvalues --    2.01589   2.04505   2.05879   2.11804   2.14557
[...]
 Alpha virt. eigenvalues --    5.02363   5.05365   5.06916   5.07927   5.09102
 Alpha virt. eigenvalues --    5.12427   5.19391   5.21826   5.34972   5.44959
 Alpha virt. eigenvalues --    5.51817   5.53876   6.72300   6.73918   6.76188
 Alpha virt. eigenvalues --    6.77077   6.77902   6.79625   6.81442   6.86158
 Alpha virt. eigenvalues --    6.89707   6.94201   6.95492   6.97074   7.00000
 Alpha virt. eigenvalues --    7.05787   7.09651   7.21400   7.25783   7.28335
 Alpha virt. eigenvalues --    7.32284   7.38974   7.64162  14.22323  14.23512
 Alpha virt. eigenvalues --   14.36196  49.98415  50.00295  50.01495  50.08859
 Alpha virt. eigenvalues --  163.85489
          Condensed to atoms (all electrons):
               1          2          3          4          5          6
     1  P   12.470491   0.527845   0.292749   0.003065   0.249722  -0.004557
     2  O    0.527845   8.174596  -0.024032  -0.016146  -0.034304  -0.014283
     3  O    0.292749  -0.024032   8.004256   0.273578   0.010255  -0.007378
     4  H    0.003065  -0.016146   0.273578   0.403193   0.004356   0.000796
     5  O    0.249722  -0.034304   0.010255   0.004356   8.070066   0.275051
     6  H   -0.004557  -0.014283  -0.007378   0.000796   0.275051   0.409974
     7  O    0.202985  -0.011797   0.009190  -0.003453  -0.007800   0.003641
     8  H    0.039107   0.003713  -0.012058   0.000801  -0.015340   0.000855
               7          8
     1  P    0.202985   0.039107
     2  O   -0.011797   0.003713
     3  O    0.009190  -0.012058
     4  H   -0.003453   0.000801
     5  O   -0.007800  -0.015340
     6  H    0.003641   0.000855
     7  O    8.062856   0.236384
     8  H    0.236384   0.438673
 Mulliken charges:
               1
     1  P    1.218593
     2  O   -0.605593
     3  O   -0.546560
     4  H    0.333808
     5  O   -0.552007
     6  H    0.335899
     7  O   -0.492006
     8  H    0.307864
     9  O    0.000000
    10  H    0.000000
    11  H    0.000000
 Sum of Mulliken charges =  -0.00000
 Mulliken charges with hydrogens summed into heavy atoms:
               1
     1  P    1.218593
     2  O   -0.605593
     3  O   -0.212752
     5  O   -0.216107
     7  O   -0.184141
     9  O    0.000000
         Mulliken charges condensed to fragments:
      1     -0.000000
      2      0.000000
 Electronic spatial extent (au):  <R**2>=          86033.0412
 Charge=             -0.0000 electrons
 Dipole moment (field-independent basis, Debye):
    X=             -1.7370    Y=              2.5996    Z=             -0.9706  Tot=              3.2737
 Quadrupole moment (field-independent basis, Debye-Ang):
   XX=            -70.8770   YY=             37.4729   ZZ=            -54.1294
   XY=              6.5440   XZ=            -34.0077   YZ=             19.0199
 Traceless Quadrupole moment (field-independent basis, Debye-Ang):
   XX=            -41.6992   YY=             66.6508   ZZ=            -24.9516
   XY=              6.5440   XZ=            -34.0077   YZ=             19.0199
 Octapole moment (field-independent basis, Debye-Ang**2):
  XXX=          -1708.5196  YYY=            -23.0255  ZZZ=          -1536.7797  XYY=            151.7258
  XXY=           -651.4897  XXZ=          -1013.0977  XZZ=           -907.0774  YZZ=           -380.0582
  YYZ=            301.9262  XYZ=            -93.4435
 Hexadecapole moment (field-independent basis, Debye-Ang**3):
 XXXX=         -33106.6275 YYYY=         -17073.8021 ZZZZ=         -33826.0685 XXXY=         -20413.6570
 XXXZ=         -22398.7418 YYYX=          -2949.7885 YYYZ=          -1983.8315 ZZZX=         -21045.3930
 ZZZY=         -17509.2711 XXYY=          -8325.6464 XXZZ=         -17921.8830 YYZZ=          -5132.7505
 XXYZ=          -9984.7426 YYXZ=           -385.2400 ZZXY=          -8292.6750
 N-N= 2.800869947333D+02 E-N=-2.087899017030D+03  KE= 6.425413750230D+02
 No NMR shielding tensors so no spin-rotation constants.
 Leave Link  601 at Fri Feb 17 23:49:00 2023, MaxMem=  6710886400 cpu:               2.0 elap:               0.1
 (Enter /data0/home/software/g16/l122.exe)
 CPIOFr:  IOpCl= 0 IRwI=-1 IRwCP=  731 ICalc=  3 LCPTot=       62711 Len1MO=      164280 IndFrg=      719831
 Counterpoise: doing calculation for fragment   2 using the basis set of the fragment.
 Leave Link  122 at Fri Feb 17 23:49:00 2023, MaxMem=  6710886400 cpu:               0.1 elap:               0.0
 (Enter /data0/home/software/g16/l301.exe)
 Basis read from rwf:  (5D, 7F)
 No pseudopotential information found on rwf file.
    39 basis functions,    58 primitive gaussians,    41 cartesian basis functions
     5 alpha electrons        5 beta electrons
       nuclear repulsion energy         9.1438727962 Hartrees.
 IExCor= 4336 DFT=T Ex+Corr=M062X ExCW=0 ScaHFX=  0.540000
 ScaDFX=  1.000000  1.000000  1.000000  1.000000 ScalE2=  1.000000  1.000000
 IRadAn=      5 IRanWt=     -1 IRanGd=            0 ICorTp=0 IEmpDi=131
 NAtoms=   11 NActive=    3 NUniq=    3 SFac= 1.00D+00 NAtFMM=   60 NAOKFM=F Big=F
 Integral buffers will be    131072 words long.
 Raffenetti 2 integral format.
 Two-electron integral symmetry is turned off.
 R6Disp:  Grimme-D3 Dispersion energy=       -0.0000000075 Hartrees.
 Nuclear repulsion after empirical dispersion term =        9.1438727887 Hartrees.
 No density basis found on file   718.
 Leave Link  301 at Fri Feb 17 23:49:00 2023, MaxMem=  6710886400 cpu:               1.3 elap:               0.1
 (Enter /data0/home/software/g16/l302.exe)
 NPDir=0 NMtPBC=     1 NCelOv=     1 NCel=       1 NClECP=     1 NCelD=      1
         NCelK=      1 NCelE2=     1 NClLst=     1 CellRange=     0.0.
 One-electron integrals computed using PRISM.
 NBasis=    39 RedAO= T EigKep=  3.00D-03  NBF=    39
 NBsUse=    39 1.00D-06 EigRej= -1.00D+00 NBFU=    39
 Precomputing XC quadrature grid using
 IXCGrd= 4 IRadAn=           5 IRanWt=          -1 IRanGd=           0 AccXCQ= 0.00D+00.
 Generated NRdTot=       0 NPtTot=           0 NUsed=           0 NTot=          32
 NSgBfM=    41    41    41    41    41 MxSgAt=     3 MxSgA2=     3.
 Leave Link  302 at Fri Feb 17 23:49:00 2023, MaxMem=  6710886400 cpu:               2.3 elap:               0.1
 (Enter /data0/home/software/g16/l303.exe)
 DipDrv:  MaxL=1.
 Leave Link  303 at Fri Feb 17 23:49:00 2023, MaxMem=  6710886400 cpu:               0.4 elap:               0.0
 (Enter /data0/home/software/g16/l401.exe)
 ExpMin= 8.45D-02 ExpMax= 8.59D+03 ExpMxC= 1.30D+03 IAcc=3 IRadAn=         5 AccDes= 0.00D+00
 Harris functional with IExCor= 1009 and IRadAn=       5 diagonalized for initial guess.
 HarFok:  IExCor= 1009 AccDes= 0.00D+00 IRadAn=         5 IDoV= 1 UseB2=F ITyADJ=14
 ICtDFT=  3500011 ScaDFX=  1.000000  1.000000  1.000000  1.000000
 FoFCou: FMM=F IPFlag=           0 FMFlag=      100000 FMFlg1=           0
         NFxFlg=           0 DoJE=T BraDBF=F KetDBF=T FulRan=T
         wScrn=  0.000000 ICntrl=       500 IOpCl=  0 I1Cent=   200000004 NGrid=           0
         NMat0=    1 NMatS0=      1 NMatT0=    0 NMatD0=    1 NMtDS0=    0 NMtDT0=    0
 Symmetry not used in FoFCou.
 Harris En= -76.4170430680560    
 JPrj=0 DoOrth=F DoCkMO=F.
 Leave Link  401 at Fri Feb 17 23:49:00 2023, MaxMem=  6710886400 cpu:               2.8 elap:               0.1
 (Enter /data0/home/software/g16/l502.exe)
 Keep R1 ints in memory in canonical form, NReq=21037096.
 FoFCou: FMM=F IPFlag=           0 FMFlag=           0 FMFlg1=           0
         NFxFlg=           0 DoJE=F BraDBF=F KetDBF=F FulRan=T
         wScrn=  0.000000 ICntrl=       600 IOpCl=  0 I1Cent=           0 NGrid=           0
         NMat0=    1 NMatS0=    780 NMatT0=    0 NMatD0=    1 NMtDS0=    0 NMtDT0=    0
 Symmetry not used in FoFCou.
 Two-electron integral symmetry not used.
 Closed shell SCF:
 Using DIIS extrapolation, IDIIS=  1040.
 NGot=  6710886400 LenX=  6710576746 LenY=  6710574624
 Requested convergence on RMS density matrix=1.00D-08 within 128 cycles.
 Requested convergence on MAX density matrix=1.00D-06.
 Requested convergence on             energy=1.00D-06.
 No special actions if energy rises.
 Integral accuracy reduced to 1.0D-05 until final iterations.

 Cycle   1  Pass 0  IDiag  1:
 E= -76.3461184866290    
 DIIS: error= 7.07D-02 at cycle   1 NSaved=   1.
 NSaved= 1 IEnMin= 1 EnMin= -76.3461184866290     IErMin= 1 ErrMin= 7.07D-02
 ErrMax= 7.07D-02  0.00D+00 EMaxC= 1.00D-01 BMatC= 1.22D-01 BMatP= 1.22D-01
 IDIUse=3 WtCom= 2.93D-01 WtEn= 7.07D-01
 Coeff-Com:  0.100D+01
 Coeff-En:   0.100D+01
 Coeff:      0.100D+01
 Gap=     0.326 Goal=   None    Shift=    0.000
 GapD=    0.326 DampG=1.000 DampE=0.500 DampFc=0.5000 IDamp=-1.
 Damping current iteration by 5.00D-01
 RMSDP=7.91D-03 MaxDP=1.02D-01              OVMax= 1.69D-01

 Cycle   2  Pass 0  IDiag  1:
 E= -76.3778782580302     Delta-E=       -0.031759771401 Rises=F Damp=T
 DIIS: error= 1.16D-02 at cycle   2 NSaved=   2.
 NSaved= 2 IEnMin= 2 EnMin= -76.3778782580302     IErMin= 2 ErrMin= 1.16D-02
 ErrMax= 1.16D-02  0.00D+00 EMaxC= 1.00D-01 BMatC= 4.77D-03 BMatP= 1.22D-01
 IDIUse=3 WtCom= 8.84D-01 WtEn= 1.16D-01
 Coeff-Com:  0.802D-01 0.920D+00
 Coeff-En:   0.184D+00 0.816D+00
 Coeff:      0.922D-01 0.908D+00
 Gap=     0.459 Goal=   None    Shift=    0.000
 RMSDP=9.32D-04 MaxDP=1.38D-02 DE=-3.18D-02 OVMax= 1.00D-01

 Cycle   3  Pass 0  IDiag  1:
 E= -76.4219141449946     Delta-E=       -0.044035886964 Rises=F Damp=F
 DIIS: error= 2.15D-03 at cycle   3 NSaved=   3.
 NSaved= 3 IEnMin= 3 EnMin= -76.4219141449946     IErMin= 3 ErrMin= 2.15D-03
 ErrMax= 2.15D-03  0.00D+00 EMaxC= 1.00D-01 BMatC= 8.94D-05 BMatP= 4.77D-03
 IDIUse=3 WtCom= 9.78D-01 WtEn= 2.15D-02
 Coeff-Com: -0.199D-01 0.388D-01 0.981D+00
 Coeff-En:   0.000D+00 0.000D+00 0.100D+01
 Coeff:     -0.195D-01 0.379D-01 0.982D+00
 Gap=     0.463 Goal=   None    Shift=    0.000
 RMSDP=1.14D-04 MaxDP=1.02D-03 DE=-4.40D-02 OVMax= 3.27D-03

 Cycle   4  Pass 0  IDiag  1:
 E= -76.4219902663311     Delta-E=       -0.000076121336 Rises=F Damp=F
 DIIS: error= 4.06D-04 at cycle   4 NSaved=   4.
 NSaved= 4 IEnMin= 4 EnMin= -76.4219902663311     IErMin= 4 ErrMin= 4.06D-04
 ErrMax= 4.06D-04  0.00D+00 EMaxC= 1.00D-01 BMatC= 3.19D-06 BMatP= 8.94D-05
 IDIUse=3 WtCom= 9.96D-01 WtEn= 4.06D-03
 Coeff-Com: -0.182D-02-0.223D-02 0.161D+00 0.843D+00
 Coeff-En:   0.000D+00 0.000D+00 0.000D+00 0.100D+01
 Coeff:     -0.181D-02-0.222D-02 0.160D+00 0.844D+00
 Gap=     0.464 Goal=   None    Shift=    0.000
 RMSDP=2.19D-05 MaxDP=3.51D-04 DE=-7.61D-05 OVMax= 5.25D-04

 Cycle   5  Pass 0  IDiag  1:
 E= -76.4219922329956     Delta-E=       -0.000001966664 Rises=F Damp=F
 DIIS: error= 8.66D-05 at cycle   5 NSaved=   5.
 NSaved= 5 IEnMin= 5 EnMin= -76.4219922329956     IErMin= 5 ErrMin= 8.66D-05
 ErrMax= 8.66D-05  0.00D+00 EMaxC= 1.00D-01 BMatC= 7.97D-08 BMatP= 3.19D-06
 IDIUse=1 WtCom= 1.00D+00 WtEn= 0.00D+00
 Coeff-Com:  0.115D-02-0.176D-02-0.360D-01-0.624D-01 0.110D+01
 Coeff:      0.115D-02-0.176D-02-0.360D-01-0.624D-01 0.110D+01
 Gap=     0.464 Goal=   None    Shift=    0.000
 RMSDP=8.78D-06 MaxDP=1.01D-04 DE=-1.97D-06 OVMax= 1.96D-04

 Initial convergence to 1.0D-05 achieved.  Increase integral accuracy.
 Cycle   6  Pass 1  IDiag  1:
 E= -76.4220156683882     Delta-E=       -0.000023435393 Rises=F Damp=F
 DIIS: error= 2.23D-05 at cycle   1 NSaved=   1.
 NSaved= 1 IEnMin= 1 EnMin= -76.4220156683882     IErMin= 1 ErrMin= 2.23D-05
 ErrMax= 2.23D-05  0.00D+00 EMaxC= 1.00D-01 BMatC= 1.44D-08 BMatP= 1.44D-08
 IDIUse=1 WtCom= 1.00D+00 WtEn= 0.00D+00
 Coeff-Com:  0.100D+01
 Coeff:      0.100D+01
 Gap=     0.464 Goal=   None    Shift=    0.000
 RMSDP=8.78D-06 MaxDP=1.01D-04 DE=-2.34D-05 OVMax= 3.63D-05

 Cycle   7  Pass 1  IDiag  1:
 E= -76.4220156796508     Delta-E=       -0.000000011263 Rises=F Damp=F
 DIIS: error= 4.90D-06 at cycle   2 NSaved=   2.
 NSaved= 2 IEnMin= 2 EnMin= -76.4220156796508     IErMin= 2 ErrMin= 4.90D-06
 ErrMax= 4.90D-06  0.00D+00 EMaxC= 1.00D-01 BMatC= 3.81D-10 BMatP= 1.44D-08
 IDIUse=1 WtCom= 1.00D+00 WtEn= 0.00D+00
 Coeff-Com: -0.227D-01 0.102D+01
 Coeff:     -0.227D-01 0.102D+01
 Gap=     0.464 Goal=   None    Shift=    0.000
 RMSDP=4.74D-07 MaxDP=5.08D-06 DE=-1.13D-08 OVMax= 1.17D-05

 Cycle   8  Pass 1  IDiag  1:
 E= -76.4220156798749     Delta-E=       -0.000000000224 Rises=F Damp=F
 DIIS: error= 3.06D-06 at cycle   3 NSaved=   3.
 NSaved= 3 IEnMin= 3 EnMin= -76.4220156798749     IErMin= 3 ErrMin= 3.06D-06
 ErrMax= 3.06D-06  0.00D+00 EMaxC= 1.00D-01 BMatC= 2.88D-10 BMatP= 3.81D-10
 IDIUse=1 WtCom= 1.00D+00 WtEn= 0.00D+00
 Coeff-Com: -0.419D-01 0.482D+00 0.560D+00
 Coeff:     -0.419D-01 0.482D+00 0.560D+00
 Gap=     0.464 Goal=   None    Shift=    0.000
 RMSDP=2.24D-07 MaxDP=2.95D-06 DE=-2.24D-10 OVMax= 5.26D-06

 Cycle   9  Pass 1  IDiag  1:
 E= -76.4220156800625     Delta-E=       -0.000000000188 Rises=F Damp=F
 DIIS: error= 9.41D-07 at cycle   4 NSaved=   4.
 NSaved= 4 IEnMin= 4 EnMin= -76.4220156800625     IErMin= 4 ErrMin= 9.41D-07
 ErrMax= 9.41D-07  0.00D+00 EMaxC= 1.00D-01 BMatC= 1.01D-11 BMatP= 2.88D-10
 IDIUse=1 WtCom= 1.00D+00 WtEn= 0.00D+00
 Coeff-Com: -0.318D-02-0.244D-01 0.128D+00 0.900D+00
 Coeff:     -0.318D-02-0.244D-01 0.128D+00 0.900D+00
 Gap=     0.464 Goal=   None    Shift=    0.000
 RMSDP=5.95D-08 MaxDP=6.39D-07 DE=-1.88D-10 OVMax= 1.55D-06

 Cycle  10  Pass 1  IDiag  1:
 E= -76.4220156800720     Delta-E=       -0.000000000010 Rises=F Damp=F
 DIIS: error= 7.22D-08 at cycle   5 NSaved=   5.
 NSaved= 5 IEnMin= 5 EnMin= -76.4220156800720     IErMin= 5 ErrMin= 7.22D-08
 ErrMax= 7.22D-08  0.00D+00 EMaxC= 1.00D-01 BMatC= 2.48D-13 BMatP= 1.01D-11
 IDIUse=1 WtCom= 1.00D+00 WtEn= 0.00D+00
 Coeff-Com:  0.175D-02-0.282D-01-0.136D-01 0.111D+00 0.929D+00
 Coeff:      0.175D-02-0.282D-01-0.136D-01 0.111D+00 0.929D+00
 Gap=     0.464 Goal=   None    Shift=    0.000
 RMSDP=1.74D-08 MaxDP=1.41D-07 DE=-9.52D-12 OVMax= 3.95D-07

 Cycle  11  Pass 1  IDiag  1:
 E= -76.4220156800726     Delta-E=       -0.000000000001 Rises=F Damp=F
 DIIS: error= 1.47D-08 at cycle   6 NSaved=   6.
 NSaved= 6 IEnMin= 6 EnMin= -76.4220156800726     IErMin= 6 ErrMin= 1.47D-08
 ErrMax= 1.47D-08  0.00D+00 EMaxC= 1.00D-01 BMatC= 8.35D-15 BMatP= 2.48D-13
 IDIUse=1 WtCom= 1.00D+00 WtEn= 0.00D+00
 Coeff-Com:  0.236D-03-0.110D-02-0.864D-02-0.335D-01-0.179D-01 0.106D+01
 Coeff:      0.236D-03-0.110D-02-0.864D-02-0.335D-01-0.179D-01 0.106D+01
 Gap=     0.464 Goal=   None    Shift=    0.000
 RMSDP=4.96D-09 MaxDP=4.23D-08 DE=-5.97D-13 OVMax= 1.03D-07

 SCF Done:  E(RM062X) =  -76.4220156801     A.U. after   11 cycles
            NFock= 11  Conv=0.50D-08     -V/T= 2.0028
 KE= 7.621085940072D+01 PE=-1.991454846427D+02 EE= 3.736873677321D+01
 Leave Link  502 at Fri Feb 17 23:49:01 2023, MaxMem=  6710886400 cpu:               8.8 elap:               0.4
 (Enter /data0/home/software/g16/l601.exe)
 Copying SCF densities to generalized density rwf, IOpCl= 0 IROHF=0.

 **********************************************************************

            Population analysis using the SCF density.

 **********************************************************************

 Alpha  occ. eigenvalues --  -19.62529  -1.13529  -0.60971  -0.47534  -0.40017
 Alpha virt. eigenvalues --    0.06366   0.13393   0.17381   0.17942   0.18941
 Alpha virt. eigenvalues --    0.23247   0.51635   0.53564   0.97841   1.00109
 Alpha virt. eigenvalues --    1.06045   1.18568   1.20021   1.32495   1.33657
 Alpha virt. eigenvalues --    1.69969   1.74356   1.75925   2.08586   2.09112
 Alpha virt. eigenvalues --    2.35681   2.42203   2.54600   2.89180   3.01718
 Alpha virt. eigenvalues --    5.05716   5.48601   5.94201   6.78266   6.80221
 Alpha virt. eigenvalues --    6.87080   6.91545   7.09206  49.96275
          Condensed to atoms (all electrons):
               9         10         11
     9  O    7.911825   0.321725   0.322205
    10  H    0.321725   0.424889  -0.024710
    11  H    0.322205  -0.024710   0.424844
 Mulliken charges:
               1
     1  P    0.000000
     2  O    0.000000
     3  O    0.000000
     4  H    0.000000
     5  O    0.000000
     6  H    0.000000
     7  O    0.000000
     8  H    0.000000
     9  O   -0.555755
    10  H    0.278095
    11  H    0.277660
 Sum of Mulliken charges =  -0.00000
 Mulliken charges with hydrogens summed into heavy atoms:
               1
     1  P    0.000000
     2  O    0.000000
     3  O    0.000000
     5  O    0.000000
     7  O    0.000000
     9  O   -0.000000
         Mulliken charges condensed to fragments:
      1      0.000000
      2     -0.000000
 Electronic spatial extent (au):  <R**2>=          12879.7381
 Charge=             -0.0000 electrons
 Dipole moment (field-independent basis, Debye):
    X=              1.0609    Y=             -1.2980    Z=              1.2826  Tot=              2.1108
 Quadrupole moment (field-independent basis, Debye-Ang):
   XX=             17.9586   YY=            -40.1914   ZZ=             15.8601
   XY=              0.3528   XZ=             22.6470   YZ=              4.1024
 Traceless Quadrupole moment (field-independent basis, Debye-Ang):
   XX=             20.0829   YY=            -38.0672   ZZ=             17.9843
   XY=              0.3528   XZ=             22.6470   YZ=              4.1024
 Octapole moment (field-independent basis, Debye-Ang**2):
  XXX=            212.8230  YYY=           -908.1301  ZZZ=            120.6582  XYY=           -239.7420
  XXY=             94.6909  XXZ=            296.1662  XZZ=            244.0203  YZZ=             85.6002
  YYZ=           -166.3531  XYZ=            164.1362
 Hexadecapole moment (field-independent basis, Debye-Ang**3):
 XXXX=           1965.1634 YYYY=         -17882.9050 ZZZZ=            366.8042 XXXY=           1337.9203
 XXXZ=           3306.2565 YYYX=          -7184.2871 YYYZ=          -5739.1753 ZZZX=           1902.7092
 ZZZY=            421.0039 XXYY=          -1327.6610 XXZZ=           3038.3613 YYZZ=           -948.1629
 XXYZ=           2503.3832 YYXZ=           -167.9897 ZZXY=           1921.9969
 N-N= 9.143872788685D+00 E-N=-1.991454844593D+02  KE= 7.621085940072D+01
 No NMR shielding tensors so no spin-rotation constants.
 Leave Link  601 at Fri Feb 17 23:49:01 2023, MaxMem=  6710886400 cpu:               1.8 elap:               0.1
 (Enter /data0/home/software/g16/l122.exe)
 CPIOFr:  IOpCl= 0 IRwI=-1 IRwCP=  731 ICalc=  4 LCPTot=       62711 Len1MO=      164280 IndFrg=      884111
 Restoring MOs from calculation   1 to rwf.
 CPIOFr:  IOpCl= 0 IRwI=-2 IRwCP=  731 ICalc=  0 LCPTot=       62711 Len1MO=      164280 IndFrg=      226991
 Counterpoise corrected energy =    -720.592838698684
                   BSSE energy =       0.001246677810
              sum of fragments =    -720.575115975205
           complexation energy =     -11.90 kcal/mole (raw)
           complexation energy =     -11.12 kcal/mole (corrected)
 Leave Link  122 at Fri Feb 17 23:49:01 2023, MaxMem=  6710886400 cpu:               0.1 elap:               0.0
 (Enter /data0/home/software/g16/l9999.exe)
 1\1\GINC-LOCALHOST\SP\RM062X\6-311+G(2d,p)\H5O5P1\WUHANYU\17-Feb-2023\
 0\\#p M062X/6-311+G(2d,p) nosymm em=GD3 counterpoise=2\\Title Card Req
 uired\\0,1\P,0,10.87657,14.651748,11.979689\O,0,10.927497,13.196358,12
 .107827\O,0,10.220757,15.206617,10.632632\H,0,10.346293,14.498131,9.89
 0996\O,0,10.122449,15.506035,13.077668\H,0,9.196895,15.027331,13.29028
 \O,0,12.3372,15.289483,12.005871\H,0,12.242368,16.313086,12.018911\O,0
 ,10.71145,12.955889,8.781419\H,0,10.351519,12.307059,9.39688\H,0,11.66
 4012,12.878303,8.883697\\Version=ES64L-G16RevA.03\HF=-76.4220157\RMSD=
 4.960e-09\Dipole=-0.2500608,0.3494895,-0.0772436\Quadrupole=-10.279508
 4,18.1806466,-7.9011382,2.2350658,-12.3134941,9.1081799\PG=C01 [X(H5O5
 P1)]\\@


 LIFE IS SO UNCERTAIN - EAT DESSERT FIRST.
 Job cpu time:       0 days  0 hours 10 minutes 25.6 seconds.
 Elapsed time:       0 days  0 hours  0 minutes 36.7 seconds.
 File lengths (MBytes):  RWF=     27 Int=      0 D2E=      0 Chk=     10 Scr=      1
 Normal termination of Gaussian 16 at Fri Feb 17 23:49:01 2023.
