 Entering Gaussian System, Link 0=g16
 Initial command:
 /data0/home/software/g16/l1.exe "/data0/home/software/g16/scratch/Gau-3374756.inp" -scrdir="/data0/home/software/g16/scratch/"
 Default is to use a total of  22 processors:
                               22 via shared-memory
                                1 via Linda
 Entering Link 1 = /data0/home/software/g16/l1.exe PID=   3374757.
  
 Copyright (c) 1988,1990,1992,1993,1995,1998,2003,2009,2016,
            Gaussian, Inc.  All Rights Reserved.
  
 This is part of the Gaussian(R) 16 program.  It is based on
 the Gaussian(R) 09 system (copyright 2009, Gaussian, Inc.),
 the Gaussian(R) 03 system (copyright 2003, Gaussian, Inc.),
 the Gaussian(R) 98 system (copyright 1998, Gaussian, Inc.),
 the Gaussian(R) 94 system (copyright 1995, Gaussian, Inc.),
 the Gaussian 92(TM) system (copyright 1992, Gaussian, Inc.),
 the Gaussian 90(TM) system (copyright 1990, Gaussian, Inc.),
 the Gaussian 88(TM) system (copyright 1988, Gaussian, Inc.),
 the Gaussian 86(TM) system (copyright 1986, Carnegie Mellon
 University), and the Gaussian 82(TM) system (copyright 1983,
 Carnegie Mellon University). Gaussian is a federally registered
 trademark of Gaussian, Inc.
  
 This software contains proprietary and confidential information,
 including trade secrets, belonging to Gaussian, Inc.
  
 This software is provided under written license and may be
 used, copied, transmitted, or stored only in accord with that
 written license.
  
 The following legend is applicable only to US Government
 contracts under FAR:
  
                    RESTRICTED RIGHTS LEGEND
  
 Use, reproduction and disclosure by the US Government is
 subject to restrictions as set forth in subparagraphs (a)
 and (c) of the Commercial Computer Software - Restricted
 Rights clause in FAR 52.227-19.
  
 Gaussian, Inc.
 340 Quinnipiac St., Bldg. 40, Wallingford CT 06492
  
  
 ---------------------------------------------------------------
 Warning -- This program may not be used in any manner that
 competes with the business of Gaussian, Inc. or will provide
 assistance to any competitor of Gaussian, Inc.  The licensee
 of this program is prohibited from giving any competitor of
 Gaussian, Inc. access to this program.  By using this program,
 the user acknowledges that Gaussian, Inc. is engaged in the
 business of creating and licensing software in the field of
 computational chemistry and represents and warrants to the
 licensee that it is not a competitor of Gaussian, Inc. and that
 it will not use this program in any manner prohibited above.
 ---------------------------------------------------------------
  

 Cite this work as:
 Gaussian 16, Revision A.03,
 M. J. Frisch, G. W. Trucks, H. B. Schlegel, G. E. Scuseria, 
 M. A. Robb, J. R. Cheeseman, G. Scalmani, V. Barone, 
 G. A. Petersson, H. Nakatsuji, X. Li, M. Caricato, A. V. Marenich, 
 J. Bloino, B. G. Janesko, R. Gomperts, B. Mennucci, H. P. Hratchian, 
 J. V. Ortiz, A. F. Izmaylov, J. L. Sonnenberg, D. Williams-Young, 
 F. Ding, F. Lipparini, F. Egidi, J. Goings, B. Peng, A. Petrone, 
 T. Henderson, D. Ranasinghe, V. G. Zakrzewski, J. Gao, N. Rega, 
 G. Zheng, W. Liang, M. Hada, M. Ehara, K. Toyota, R. Fukuda, 
 J. Hasegawa, M. Ishida, T. Nakajima, Y. Honda, O. Kitao, H. Nakai, 
 T. Vreven, K. Throssell, J. A. Montgomery, Jr., J. E. Peralta, 
 F. Ogliaro, M. J. Bearpark, J. J. Heyd, E. N. Brothers, K. N. Kudin, 
 V. N. Staroverov, T. A. Keith, R. Kobayashi, J. Normand, 
 K. Raghavachari, A. P. Rendell, J. C. Burant, S. S. Iyengar, 
 J. Tomasi, M. Cossi, J. M. Millam, M. Klene, C. Adamo, R. Cammi, 
 J. W. Ochterski, R. L. Martin, K. Morokuma, O. Farkas, 
 J. B. Foresman, and D. J. Fox, Gaussian, Inc., Wallingford CT, 2016.
 
 ******************************************
 Gaussian 16:  ES64L-G16RevA.03 25-Dec-2016
                15-Dec-2022 
 ******************************************
 %nproc=24
 Will use up to   24 processors via shared memory.
 %mem=10GB
 ---------------------------------------------------
 #p M062X/6-311+G(2d,p) nosymm em=GD3 counterpoise=5
 ---------------------------------------------------
 1/38=1,62=5,172=1/1;
 2/12=2,15=1,17=6,18=5,40=1/2;
 1/38=1,53=2,62=5,63=1/22;
 3/5=4,6=6,7=112,11=2,25=1,30=1,74=-55,124=31/1,2,3;
 4//1;
 5/5=2,38=5/2;
 6/7=2,8=2,9=2,10=2,28=1/1;
 1/53=2,62=5,63=1/22;
 3/5=7,6=11,7=112,11=2,25=1,30=1,74=-55,82=7,124=31/1,2,3;
 4//1;
 5/5=2,38=5/2;
 6/7=2,8=2,9=2,10=2,28=1/1;
 1/53=2,62=5,63=1/22(-4);
 99/5=1,9=1/99;
 Leave Link    1 at Thu Dec 15 15:49:46 2022, MaxMem=  1342177280 cpu:               0.7 elap:               0.0
 (Enter /data0/home/software/g16/l101.exe)
 -------------------
 Title Card Required
 -------------------
 Symbolic Z-matrix:
 Charge =  0 Multiplicity = 1 in supermolecule
 Charge =  0 Multiplicity = 1 in fragment      1.
 Charge =  0 Multiplicity = 1 in fragment      2.
 Charge =  0 Multiplicity = 1 in fragment      3.
 Charge =  0 Multiplicity = 1 in fragment      4.
 Charge =  0 Multiplicity = 1 in fragment      5.
 C                     12.29068   9.20029   9.50012    
 C                     12.88302   10.37909   9.96623    
 C                     13.93882   10.92691   9.23854    
 C                     14.36965   10.29002   8.07743    
 C                     13.72393   9.11259   7.67666    
 N                     12.70364   8.58224   8.37674    
 H                     14.42143   11.84391   9.57639    
 H                     11.45898   8.72196   10.03034    
 H                     12.52634   10.85391   10.87539    
 H                     15.19126   10.69165   7.49106    
 H                     14.02704   8.56761   6.769      
 P                     12.63864   5.4428    6.38168    
 O                     13.07041   6.401     5.36271    
 O                     13.91517   4.81638   7.09594    
 H                     13.60054   4.05584   7.71207    
 O                     11.7049   6.02041   7.53166    
 H                     12.06035   6.96363   7.83744    
 O                     11.83261   4.16794   5.89884    
 H                     10.80012   4.37738   5.93348    
 O                     11.30381   7.65713   3.37872    
 H                     11.93085   7.1331    3.90848    
 H                     11.33164   8.52447   3.78122    
 O                     8.83684   6.5088    3.81854    
 H                     9.7072    6.93505   3.68269    
 H                     8.65939   6.05874   2.9963     
 O                     9.09672   4.7561    5.95447    
 H                     9.01343   5.33755   6.71324    
 H                     8.96261   5.3435    5.18467    
 
 ITRead=  0  0  0  0  0  0  0  0  0  0  0  0  0  0  0  0  0  0  0  0
 ITRead=  0  0  0  0  0  0  0  0
 MicOpt= -1 -1 -1 -1 -1 -1 -1 -1 -1 -1 -1 -1 -1 -1 -1 -1 -1 -1 -1 -1
 MicOpt= -1 -1 -1 -1 -1 -1 -1 -1
 NAtoms=     28 NQM=       28 NQMF=       0 NMMI=      0 NMMIF=      0
                NMic=       0 NMicF=      0.
                    Isotopes and Nuclear Properties:
 (Nuclear quadrupole moments (NQMom) in fm**2, nuclear magnetic moments (NMagM)
  in nuclear magnetons)

  Atom         1           2           3           4           5           6           7           8           9          10
 IAtWgt=          12          12          12          12          12          14           1           1           1           1
 AtmWgt=  12.0000000  12.0000000  12.0000000  12.0000000  12.0000000  14.0030740   1.0078250   1.0078250   1.0078250   1.0078250
 NucSpn=           0           0           0           0           0           2           1           1           1           1
 AtZEff=  -0.0000000  -0.0000000  -0.0000000  -0.0000000  -0.0000000  -0.0000000  -0.0000000  -0.0000000  -0.0000000  -0.0000000
 NQMom=    0.0000000   0.0000000   0.0000000   0.0000000   0.0000000   2.0440000   0.0000000   0.0000000   0.0000000   0.0000000
 NMagM=    0.0000000   0.0000000   0.0000000   0.0000000   0.0000000   0.4037610   2.7928460   2.7928460   2.7928460   2.7928460
 AtZNuc=   6.0000000   6.0000000   6.0000000   6.0000000   6.0000000   7.0000000   1.0000000   1.0000000   1.0000000   1.0000000

  Atom        11          12          13          14          15          16          17          18          19          20
 IAtWgt=           1          31          16          16           1          16           1          16           1          16
 AtmWgt=   1.0078250  30.9737634  15.9949146  15.9949146   1.0078250  15.9949146   1.0078250  15.9949146   1.0078250  15.9949146
 NucSpn=           1           1           0           0           1           0           1           0           1           0
 AtZEff=  -0.0000000  -0.0000000  -0.0000000  -0.0000000  -0.0000000  -0.0000000  -0.0000000  -0.0000000  -0.0000000  -0.0000000
 NQMom=    0.0000000   0.0000000   0.0000000   0.0000000   0.0000000   0.0000000   0.0000000   0.0000000   0.0000000   0.0000000
 NMagM=    2.7928460   1.1316000   0.0000000   0.0000000   2.7928460   0.0000000   2.7928460   0.0000000   2.7928460   0.0000000
 AtZNuc=   1.0000000  15.0000000   8.0000000   8.0000000   1.0000000   8.0000000   1.0000000   8.0000000   1.0000000   8.0000000

  Atom        21          22          23          24          25          26          27          28
 IAtWgt=           1           1          16           1           1          16           1           1
 AtmWgt=   1.0078250   1.0078250  15.9949146   1.0078250   1.0078250  15.9949146   1.0078250   1.0078250
 NucSpn=           1           1           0           1           1           0           1           1
 AtZEff=  -0.0000000  -0.0000000  -0.0000000  -0.0000000  -0.0000000  -0.0000000  -0.0000000  -0.0000000
 NQMom=    0.0000000   0.0000000   0.0000000   0.0000000   0.0000000   0.0000000   0.0000000   0.0000000
 NMagM=    2.7928460   2.7928460   0.0000000   2.7928460   2.7928460   0.0000000   2.7928460   2.7928460
 AtZNuc=   1.0000000   1.0000000   8.0000000   1.0000000   1.0000000   8.0000000   1.0000000   1.0000000
 Leave Link  101 at Thu Dec 15 15:49:46 2022, MaxMem=  1342177280 cpu:               2.1 elap:               0.1
 (Enter /data0/home/software/g16/l202.exe)
                          Input orientation:                          
 ---------------------------------------------------------------------
 Center     Atomic      Atomic             Coordinates (Angstroms)
 Number     Number       Type             X           Y           Z
 ---------------------------------------------------------------------
      1          6           0       12.290676    9.200288    9.500115
      2          6           0       12.883021   10.379091    9.966227
      3          6           0       13.938821   10.926907    9.238544
      4          6           0       14.369650   10.290025    8.077426
      5          6           0       13.723931    9.112586    7.676659
      6          7           0       12.703638    8.582238    8.376735
      7          1           0       14.421426   11.843907    9.576385
      8          1           0       11.458977    8.721957   10.030335
      9          1           0       12.526343   10.853914   10.875393
     10          1           0       15.191258   10.691651    7.491061
     11          1           0       14.027041    8.567609    6.768997
     12         15           0       12.638642    5.442800    6.381676
     13          8           0       13.070413    6.401000    5.362707
     14          8           0       13.915170    4.816378    7.095938
     15          1           0       13.600535    4.055842    7.712065
     16          8           0       11.704900    6.020409    7.531657
     17          1           0       12.060355    6.963626    7.837443
     18          8           0       11.832608    4.167941    5.898838
     19          1           0       10.800121    4.377383    5.933475
     20          8           0       11.303810    7.657134    3.378717
     21          1           0       11.930852    7.133101    3.908484
     22          1           0       11.331639    8.524474    3.781223
     23          8           0        8.836836    6.508800    3.818537
     24          1           0        9.707202    6.935049    3.682691
     25          1           0        8.659386    6.058741    2.996304
     26          8           0        9.096724    4.756100    5.954467
     27          1           0        9.013434    5.337554    6.713238
     28          1           0        8.962606    5.343504    5.184670
 ---------------------------------------------------------------------
                    Distance matrix (angstroms):
                    1          2          3          4          5
     1  C    0.000000
     2  C    1.399182   0.000000
     3  C    2.401253   1.394395   0.000000
     4  C    2.744759   2.405321   1.392633   0.000000
     5  C    2.320970   2.748324   2.403627   1.401403   0.000000
     6  N    1.347036   2.405690   2.786730   2.404520   1.346244
     7  H    3.396268   2.159711   1.089923   2.159655   3.399349
     8  H    1.096201   2.185888   3.411505   3.839884   3.289741
     9  H    2.163656   1.085937   2.163261   3.397701   3.833841
    10  H    3.830645   3.398838   2.162785   1.086355   2.163548
    11  H    3.297613   3.848705   3.416538   2.189996   1.101238
    12  P    4.895351   6.105383   6.318828   5.419183   4.040070
    13  O    5.055902   6.087095   6.021634   4.917543   3.624108
    14  O    5.257158   6.344105   6.475329   5.579488   4.339494
    15  H    5.601623   6.751263   7.046709   6.292064   5.058373
    16  O    3.785445   5.129640   5.654873   5.062448   3.695818
    17  H    2.796459   4.107786   4.604271   4.056521   2.722382
    18  O    6.205122   7.498360   7.827732   6.975868   5.584556
    19  H    6.180865   7.524763   7.979422   7.231694   5.831767
    20  O    6.389581   7.300565   7.209180   6.197528   5.142726
    21  H    5.972359   6.938251   6.843569   5.770094   4.618727
    22  H    5.837996   6.640833   6.507798   5.550139   4.609052
    23  O    7.173106   8.315339   8.656003   7.940266   6.748963
    24  H    6.756335   7.837734   8.044192   7.232426   6.068571
    25  H    8.084253   9.224117   9.515095   8.736629   7.541970
    26  O    6.521024   7.877074   8.503524   7.933160   6.584524
    27  H    5.781670   7.139519   7.866224   7.421390   6.112923
    28  H    6.676369   7.974339   8.507115   7.878593   6.564008
                    6          7          8          9         10
     6  N    0.000000
     7  H    3.876653   0.000000
     8  H    2.074390   4.327672   0.000000
     9  H    3.381603   2.501769   2.529552   0.000000
    10  H    3.379689   2.503779   4.925193   4.310662   0.000000
    11  H    2.082410   4.332562   4.153926   4.933738   2.527515
    12  P    3.720290   7.372832   5.045512   7.034647   5.941130
    13  O    3.738541   7.014667   5.456218   7.107332   5.238087
    14  O    4.158119   7.469610   5.467826   7.257063   6.025227
    15  H    4.662024   8.050063   5.633230   7.574584   6.827386
    16  O    2.876561   6.743408   3.688120   5.934485   5.828966
    17  H    1.823336   5.693480   2.874397   4.957885   4.880646
    18  O    5.136602   8.896448   6.160189   8.363588   7.508295
    19  H    5.222423   9.062760   6.007801   8.327536   7.847174
    20  O    5.272146   8.103066   6.738097   8.241004   6.421208
    21  H    4.760511   7.779444   6.342254   7.920662   6.010689
    22  H    4.796295   7.358622   6.253528   7.561802   5.775484
    23  O    6.326806   9.633474   7.096487   9.071477   8.447624
    24  H    5.807401   9.003134   6.823074   8.662564   7.660980
    25  H    7.188397  10.486502   8.025461  10.001354   9.183248
    26  O    5.789347   9.576416   6.158000   8.553428   8.644954
    27  H    5.187755   8.931776   5.332729   7.752051   8.211996
    28  H    5.888463   9.557255   6.412978   8.686148   8.527498
                   11         12         13         14         15
    11  H    0.000000
    12  P    3.441235   0.000000
    13  O    2.754448   1.463855   0.000000
    14  O    3.767113   1.591257   2.495743   0.000000
    15  H    4.628966   2.149145   3.361589   1.028116   0.000000
    16  O    3.530187   1.589957   2.591104   2.554376   2.735965
    17  H    2.753578   2.183251   2.731498   2.932719   3.292884
    18  O    4.992974   1.583695   2.608860   2.488088   2.534941
    19  H    5.354354   2.171671   3.094354   3.353739   3.333030
    20  O    4.442854   3.962678   2.938533   5.357875   6.084583
    21  H    3.825488   3.078110   1.987294   4.411869   5.169583
    22  H    4.024158   4.238788   3.167581   5.604636   6.369308
    23  O    6.315231   4.707416   4.507689   6.276554   6.623397
    24  H    5.554417   4.254958   3.797216   5.817733   6.299502
    25  H    7.024198   5.260666   5.017386   6.780393   7.117932
    26  O    6.284830   3.633077   4.341207   4.952172   4.885061
    27  H    5.964279   3.641860   4.406124   4.944199   4.866409
    28  H    6.209142   3.867289   4.245477   5.334669   5.436560
                   16         17         18         19         20
    16  O    0.000000
    17  H    1.053334   0.000000
    18  O    2.472659   3.409679   0.000000
    19  H    2.464213   3.449918   1.054085   0.000000
    20  O    4.481814   4.575320   4.336485   4.187751   0.000000
    21  H    3.796909   3.934744   3.572581   3.601822   0.973882
    22  H    4.524977   4.406835   4.869768   4.702453   0.956590
    23  O    4.717158   5.171996   4.333812   3.587532   2.756460
    24  H    4.431919   4.774946   4.133466   3.578010   1.778472
    25  H    5.463154   5.985151   4.697783   4.004583   3.113531
    26  O    3.299786   4.147515   2.798944   1.745116   4.463375
    27  H    2.894838   3.632035   3.158953   2.173064   4.663186
    28  H    3.672428   4.388399   3.182593   2.206935   3.754409
                   21         22         23         24         25
    21  H    0.000000
    22  H    1.520253   0.000000
    23  O    3.157654   3.207550   0.000000
    24  H    2.243842   2.274813   0.978611   0.000000
    25  H    3.562136   3.719795   0.953996   1.528712   0.000000
    26  O    4.227110   4.890652   2.775193   3.206473   3.261728
    27  H    4.427410   4.911949   3.127667   3.495357   3.802770
    28  H    3.693480   4.207202   1.800015   2.311575   2.322165
                   26         27         28
    26  O    0.000000
    27  H    0.959562   0.000000
    28  H    0.977557   1.529424   0.000000
 Symmetry turned off by external request.
 Stoichiometry    C5H14NO7P
 Framework group  C1[X(C5H14NO7P)]
 Deg. of freedom    78
 Full point group                 C1      NOp   1
 Rotational constants (GHZ):           0.6604701           0.2490095           0.2270892
 Leave Link  202 at Thu Dec 15 15:49:46 2022, MaxMem=  1342177280 cpu:               0.1 elap:               0.0
 (Enter /data0/home/software/g16/l122.exe)
 Counterpoise: doing full-system calculation.
 Leave Link  122 at Thu Dec 15 15:49:46 2022, MaxMem=  1342177280 cpu:               0.0 elap:               0.0
 (Enter /data0/home/software/g16/l301.exe)
 Standard basis: 6-311+G(2d,p) (5D, 7F)
 Ernie: Thresh=  0.10000D-02 Tol=  0.10000D-05 Strict=F.
   470 basis functions,   714 primitive gaussians,   498 cartesian basis functions
    61 alpha electrons       61 beta electrons
       nuclear repulsion energy      1080.7233182317 Hartrees.
 IExCor= 4336 DFT=T Ex+Corr=M062X ExCW=0 ScaHFX=  0.540000
 ScaDFX=  1.000000  1.000000  1.000000  1.000000 ScalE2=  1.000000  1.000000
 IRadAn=      5 IRanWt=     -1 IRanGd=            0 ICorTp=0 IEmpDi=131
 NAtoms=   28 NActive=   28 NUniq=   28 SFac= 1.00D+00 NAtFMM=   60 NAOKFM=F Big=F
 Integral buffers will be    131072 words long.
 Raffenetti 2 integral format.
 Two-electron integral symmetry is turned off.
 R6Disp:  Grimme-D3 Dispersion energy=       -0.0014973133 Hartrees.
 Nuclear repulsion after empirical dispersion term =     1080.7218209183 Hartrees.
 Leave Link  301 at Thu Dec 15 15:49:47 2022, MaxMem=  1342177280 cpu:               1.1 elap:               0.1
 (Enter /data0/home/software/g16/l302.exe)
 NPDir=0 NMtPBC=     1 NCelOv=     1 NCel=       1 NClECP=     1 NCelD=      1
         NCelK=      1 NCelE2=     1 NClLst=     1 CellRange=     0.0.
 One-electron integrals computed using PRISM.
 NBasis=   470 RedAO= T EigKep=  6.17D-06  NBF=   470
 NBsUse=   470 1.00D-06 EigRej= -1.00D+00 NBFU=   470
 Precomputing XC quadrature grid using
 IXCGrd= 4 IRadAn=           5 IRanWt=          -1 IRanGd=           0 AccXCQ= 0.00D+00.
 Generated NRdTot=       0 NPtTot=           0 NUsed=           0 NTot=          32
 NSgBfM=   494   494   494   494   494 MxSgAt=    28 MxSgA2=    28.
 Leave Link  302 at Thu Dec 15 15:49:47 2022, MaxMem=  1342177280 cpu:              10.0 elap:               0.4
 (Enter /data0/home/software/g16/l303.exe)
 DipDrv:  MaxL=1.
 Leave Link  303 at Thu Dec 15 15:49:47 2022, MaxMem=  1342177280 cpu:               1.1 elap:               0.1
 (Enter /data0/home/software/g16/l401.exe)
 ExpMin= 3.48D-02 ExpMax= 7.75D+04 ExpMxC= 2.65D+03 IAcc=3 IRadAn=         5 AccDes= 0.00D+00
 Harris functional with IExCor= 1009 and IRadAn=       5 diagonalized for initial guess.
 HarFok:  IExCor= 1009 AccDes= 0.00D+00 IRadAn=         5 IDoV= 1 UseB2=F ITyADJ=14
 ICtDFT=  3500011 ScaDFX=  1.000000  1.000000  1.000000  1.000000
 FoFCou: FMM=F IPFlag=           0 FMFlag=      100000 FMFlg1=           0
         NFxFlg=           0 DoJE=T BraDBF=F KetDBF=T FulRan=T
         wScrn=  0.000000 ICntrl=       500 IOpCl=  0 I1Cent=   200000004 NGrid=           0
         NMat0=    1 NMatS0=      1 NMatT0=    0 NMatD0=    1 NMtDS0=    0 NMtDT0=    0
 Symmetry not used in FoFCou.
 Harris En= -1121.33855804824    
 JPrj=0 DoOrth=F DoCkMO=F.
 Leave Link  401 at Thu Dec 15 15:49:48 2022, MaxMem=  1342177280 cpu:              32.3 elap:               1.4
 (Enter /data0/home/software/g16/l502.exe)
 Two-electron integral symmetry not used.
 Closed shell SCF:
 Using DIIS extrapolation, IDIIS=  1040.
 NGot=  1342177280 LenX=  1341665790 LenY=  1341417288
 Requested convergence on RMS density matrix=1.00D-08 within 128 cycles.
 Requested convergence on MAX density matrix=1.00D-06.
 Requested convergence on             energy=1.00D-06.
 No special actions if energy rises.
 Fock matrices will be formed incrementally for  20 cycles.

 Cycle   1  Pass 1  IDiag  1:
 FoFJK:  IHMeth= 1 ICntrl=       0 DoSepK=F KAlg= 0 I1Cent=           0 FoldK=F
 IRaf= 790000000 NMat=       1 IRICut=       1 DoRegI=T DoRafI=F ISym2E= 0 IDoP0=0 IntGTp=1.
 FoFCou: FMM=F IPFlag=           0 FMFlag=      100000 FMFlg1=           0
         NFxFlg=           0 DoJE=F BraDBF=F KetDBF=F FulRan=T
         wScrn=  0.000000 ICntrl=         0 IOpCl=  0 I1Cent=           0 NGrid=           0
         NMat0=    1 NMatS0=      1 NMatT0=    0 NMatD0=    1 NMtDS0=    0 NMtDT0=    0
 Symmetry not used in FoFCou.
 E= -1121.18951653056    
 DIIS: error= 3.02D-02 at cycle   1 NSaved=   1.
 NSaved= 1 IEnMin= 1 EnMin= -1121.18951653056     IErMin= 1 ErrMin= 3.02D-02
 ErrMax= 3.02D-02  0.00D+00 EMaxC= 1.00D-01 BMatC= 9.46D-01 BMatP= 9.46D-01
 IDIUse=3 WtCom= 6.98D-01 WtEn= 3.02D-01
 Coeff-Com:  0.100D+01
 Coeff-En:   0.100D+01
 Coeff:      0.100D+01
 Gap=     0.316 Goal=   None    Shift=    0.000
 GapD=    0.316 DampG=1.000 DampE=0.500 DampFc=0.5000 IDamp=-1.
 Damping current iteration by 5.00D-01
 RMSDP=5.16D-03 MaxDP=4.91D-01              OVMax= 2.01D-01

 Cycle   2  Pass 1  IDiag  1:
 RMSU=  2.56D-03    CP:  9.76D-01
 E= -1121.44657003022     Delta-E=       -0.257053499658 Rises=F Damp=T
 DIIS: error= 8.48D-03 at cycle   2 NSaved=   2.
 NSaved= 2 IEnMin= 2 EnMin= -1121.44657003022     IErMin= 2 ErrMin= 8.48D-03
 ErrMax= 8.48D-03  0.00D+00 EMaxC= 1.00D-01 BMatC= 4.83D-02 BMatP= 9.46D-01
 IDIUse=3 WtCom= 9.15D-01 WtEn= 8.48D-02
 Coeff-Com:  0.123D-01 0.988D+00
 Coeff-En:   0.816D-01 0.918D+00
 Coeff:      0.181D-01 0.982D+00
 Gap=     0.372 Goal=   None    Shift=    0.000
 RMSDP=1.75D-03 MaxDP=2.44D-01 DE=-2.57D-01 OVMax= 1.11D-01

 Cycle   3  Pass 1  IDiag  1:
 RMSU=  1.41D-03    CP:  8.99D-01  9.40D-01
 E= -1121.74211584383     Delta-E=       -0.295545813610 Rises=F Damp=F
 DIIS: error= 4.06D-03 at cycle   3 NSaved=   3.
 NSaved= 3 IEnMin= 3 EnMin= -1121.74211584383     IErMin= 3 ErrMin= 4.06D-03
 ErrMax= 4.06D-03  0.00D+00 EMaxC= 1.00D-01 BMatC= 1.21D-02 BMatP= 4.83D-02
 IDIUse=3 WtCom= 9.59D-01 WtEn= 4.06D-02
 Coeff-Com: -0.467D-01 0.280D+00 0.766D+00
 Coeff-En:   0.000D+00 0.000D+00 0.100D+01
 Coeff:     -0.448D-01 0.269D+00 0.776D+00
 Gap=     0.314 Goal=   None    Shift=    0.000
 RMSDP=7.94D-04 MaxDP=1.49D-01 DE=-2.96D-01 OVMax= 3.31D-02

 Cycle   4  Pass 1  IDiag  1:
 RMSU=  6.01D-04    CP:  8.65D-01  1.02D+00  1.13D+00
 E= -1121.74741415059     Delta-E=       -0.005298306768 Rises=F Damp=F
 DIIS: error= 2.89D-03 at cycle   4 NSaved=   4.
 NSaved= 4 IEnMin= 4 EnMin= -1121.74741415059     IErMin= 4 ErrMin= 2.89D-03
 ErrMax= 2.89D-03  0.00D+00 EMaxC= 1.00D-01 BMatC= 4.86D-03 BMatP= 1.21D-02
 IDIUse=3 WtCom= 9.71D-01 WtEn= 2.89D-02
 Coeff-Com: -0.265D-01 0.729D-01 0.437D+00 0.517D+00
 Coeff-En:   0.000D+00 0.000D+00 0.281D+00 0.719D+00
 Coeff:     -0.258D-01 0.707D-01 0.432D+00 0.523D+00
 Gap=     0.314 Goal=   None    Shift=    0.000
 RMSDP=2.09D-04 MaxDP=2.89D-02 DE=-5.30D-03 OVMax= 1.31D-02

 Cycle   5  Pass 1  IDiag  1:
 RMSU=  1.04D-04    CP:  8.71D-01  1.01D+00  1.11D+00  7.42D-01
 E= -1121.75090479482     Delta-E=       -0.003490644223 Rises=F Damp=F
 DIIS: error= 4.37D-04 at cycle   5 NSaved=   5.
 NSaved= 5 IEnMin= 5 EnMin= -1121.75090479482     IErMin= 5 ErrMin= 4.37D-04
 ErrMax= 4.37D-04  0.00D+00 EMaxC= 1.00D-01 BMatC= 9.65D-05 BMatP= 4.86D-03
 IDIUse=3 WtCom= 9.96D-01 WtEn= 4.37D-03
 Coeff-Com: -0.659D-02 0.113D-01 0.118D+00 0.199D+00 0.679D+00
 Coeff-En:   0.000D+00 0.000D+00 0.000D+00 0.000D+00 0.100D+01
 Coeff:     -0.656D-02 0.112D-01 0.117D+00 0.198D+00 0.681D+00
 Gap=     0.314 Goal=   None    Shift=    0.000
 RMSDP=3.23D-05 MaxDP=2.02D-03 DE=-3.49D-03 OVMax= 2.04D-03

 Cycle   6  Pass 1  IDiag  1:
 RMSU=  2.28D-05    CP:  8.71D-01  1.00D+00  1.11D+00  7.56D-01  8.29D-01
 E= -1121.75097730035     Delta-E=       -0.000072505531 Rises=F Damp=F
 DIIS: error= 1.53D-04 at cycle   6 NSaved=   6.
 NSaved= 6 IEnMin= 6 EnMin= -1121.75097730035     IErMin= 6 ErrMin= 1.53D-04
 ErrMax= 1.53D-04  0.00D+00 EMaxC= 1.00D-01 BMatC= 5.78D-06 BMatP= 9.65D-05
 IDIUse=3 WtCom= 9.98D-01 WtEn= 1.53D-03
 Coeff-Com: -0.123D-02 0.960D-03 0.239D-01 0.494D-01 0.260D+00 0.667D+00
 Coeff-En:   0.000D+00 0.000D+00 0.000D+00 0.000D+00 0.000D+00 0.100D+01
 Coeff:     -0.123D-02 0.959D-03 0.238D-01 0.493D-01 0.260D+00 0.667D+00
 Gap=     0.314 Goal=   None    Shift=    0.000
 RMSDP=7.79D-06 MaxDP=3.75D-04 DE=-7.25D-05 OVMax= 6.88D-04

 Cycle   7  Pass 1  IDiag  1:
 RMSU=  6.83D-06    CP:  8.71D-01  1.00D+00  1.12D+00  7.59D-01  8.43D-01
                    CP:  1.05D+00
 E= -1121.75098238767     Delta-E=       -0.000005087325 Rises=F Damp=F
 DIIS: error= 5.43D-05 at cycle   7 NSaved=   7.
 NSaved= 7 IEnMin= 7 EnMin= -1121.75098238767     IErMin= 7 ErrMin= 5.43D-05
 ErrMax= 5.43D-05  0.00D+00 EMaxC= 1.00D-01 BMatC= 5.06D-07 BMatP= 5.78D-06
 IDIUse=1 WtCom= 1.00D+00 WtEn= 0.00D+00
 Coeff-Com:  0.378D-03-0.918D-03-0.650D-02-0.840D-02 0.271D-02 0.200D+00
 Coeff-Com:  0.812D+00
 Coeff:      0.378D-03-0.918D-03-0.650D-02-0.840D-02 0.271D-02 0.200D+00
 Coeff:      0.812D+00
 Gap=     0.314 Goal=   None    Shift=    0.000
 RMSDP=4.68D-06 MaxDP=4.87D-04 DE=-5.09D-06 OVMax= 3.00D-04

 Cycle   8  Pass 1  IDiag  1:
 RMSU=  2.77D-06    CP:  8.70D-01  1.00D+00  1.12D+00  7.62D-01  8.58D-01
                    CP:  1.12D+00  1.06D+00
 E= -1121.75098273532     Delta-E=       -0.000000347647 Rises=F Damp=F
 DIIS: error= 3.48D-05 at cycle   8 NSaved=   8.
 NSaved= 8 IEnMin= 8 EnMin= -1121.75098273532     IErMin= 8 ErrMin= 3.48D-05
 ErrMax= 3.48D-05  0.00D+00 EMaxC= 1.00D-01 BMatC= 2.23D-07 BMatP= 5.06D-07
 IDIUse=1 WtCom= 1.00D+00 WtEn= 0.00D+00
 Coeff-Com:  0.354D-03-0.663D-03-0.658D-02-0.105D-01-0.278D-01 0.363D-01
 Coeff-Com:  0.468D+00 0.541D+00
 Coeff:      0.354D-03-0.663D-03-0.658D-02-0.105D-01-0.278D-01 0.363D-01
 Coeff:      0.468D+00 0.541D+00
 Gap=     0.314 Goal=   None    Shift=    0.000
 RMSDP=1.53D-06 MaxDP=2.01D-04 DE=-3.48D-07 OVMax= 1.74D-04

 Cycle   9  Pass 1  IDiag  1:
 RMSU=  1.00D-06    CP:  8.70D-01  1.00D+00  1.12D+00  7.63D-01  8.58D-01
                    CP:  1.14D+00  1.08D+00  7.77D-01
 E= -1121.75098293538     Delta-E=       -0.000000200060 Rises=F Damp=F
 DIIS: error= 5.36D-06 at cycle   9 NSaved=   9.
 NSaved= 9 IEnMin= 9 EnMin= -1121.75098293538     IErMin= 9 ErrMin= 5.36D-06
 ErrMax= 5.36D-06  0.00D+00 EMaxC= 1.00D-01 BMatC= 5.08D-09 BMatP= 2.23D-07
 IDIUse=1 WtCom= 1.00D+00 WtEn= 0.00D+00
 Coeff-Com:  0.316D-04-0.439D-04-0.860D-03-0.153D-02-0.598D-02-0.751D-02
 Coeff-Com:  0.339D-01 0.131D+00 0.851D+00
 Coeff:      0.316D-04-0.439D-04-0.860D-03-0.153D-02-0.598D-02-0.751D-02
 Coeff:      0.339D-01 0.131D+00 0.851D+00
 Gap=     0.314 Goal=   None    Shift=    0.000
 RMSDP=4.07D-07 MaxDP=5.25D-05 DE=-2.00D-07 OVMax= 2.12D-05

 Cycle  10  Pass 1  IDiag  1:
 RMSU=  2.20D-07    CP:  8.70D-01  1.00D+00  1.12D+00  7.63D-01  8.58D-01
                    CP:  1.14D+00  1.10D+00  8.42D-01  1.11D+00
 E= -1121.75098294060     Delta-E=       -0.000000005225 Rises=F Damp=F
 DIIS: error= 1.59D-06 at cycle  10 NSaved=  10.
 NSaved=10 IEnMin=10 EnMin= -1121.75098294060     IErMin=10 ErrMin= 1.59D-06
 ErrMax= 1.59D-06  0.00D+00 EMaxC= 1.00D-01 BMatC= 8.35D-10 BMatP= 5.08D-09
 IDIUse=1 WtCom= 1.00D+00 WtEn= 0.00D+00
 Coeff-Com: -0.231D-04 0.480D-04 0.301D-03 0.404D-03 0.710D-04-0.721D-02
 Coeff-Com: -0.346D-01-0.308D-02 0.321D+00 0.723D+00
 Coeff:     -0.231D-04 0.480D-04 0.301D-03 0.404D-03 0.710D-04-0.721D-02
 Coeff:     -0.346D-01-0.308D-02 0.321D+00 0.723D+00
 Gap=     0.314 Goal=   None    Shift=    0.000
 RMSDP=1.60D-07 MaxDP=2.27D-05 DE=-5.22D-09 OVMax= 1.17D-05

 Cycle  11  Pass 1  IDiag  1:
 RMSU=  8.30D-08    CP:  8.70D-01  1.00D+00  1.12D+00  7.63D-01  8.58D-01
                    CP:  1.14D+00  1.10D+00  8.54D-01  1.20D+00  1.08D+00
 E= -1121.75098294137     Delta-E=       -0.000000000760 Rises=F Damp=F
 DIIS: error= 7.93D-07 at cycle  11 NSaved=  11.
 NSaved=11 IEnMin=11 EnMin= -1121.75098294137     IErMin=11 ErrMin= 7.93D-07
 ErrMax= 7.93D-07  0.00D+00 EMaxC= 1.00D-01 BMatC= 1.25D-10 BMatP= 8.35D-10
 IDIUse=1 WtCom= 1.00D+00 WtEn= 0.00D+00
 Coeff-Com: -0.116D-04 0.226D-04 0.201D-03 0.301D-03 0.524D-03-0.228D-02
 Coeff-Com: -0.175D-01-0.139D-01 0.405D-01 0.320D+00 0.672D+00
 Coeff:     -0.116D-04 0.226D-04 0.201D-03 0.301D-03 0.524D-03-0.228D-02
 Coeff:     -0.175D-01-0.139D-01 0.405D-01 0.320D+00 0.672D+00
 Gap=     0.314 Goal=   None    Shift=    0.000
 RMSDP=4.45D-08 MaxDP=4.69D-06 DE=-7.60D-10 OVMax= 3.89D-06

 Cycle  12  Pass 1  IDiag  1:
 RMSU=  2.70D-08    CP:  8.70D-01  1.00D+00  1.12D+00  7.63D-01  8.58D-01
                    CP:  1.14D+00  1.10D+00  8.59D-01  1.21D+00  1.14D+00
                    CP:  8.61D-01
 E= -1121.75098294156     Delta-E=       -0.000000000191 Rises=F Damp=F
 DIIS: error= 3.20D-07 at cycle  12 NSaved=  12.
 NSaved=12 IEnMin=12 EnMin= -1121.75098294156     IErMin=12 ErrMin= 3.20D-07
 ErrMax= 3.20D-07  0.00D+00 EMaxC= 1.00D-01 BMatC= 1.05D-11 BMatP= 1.25D-10
 IDIUse=1 WtCom= 1.00D+00 WtEn= 0.00D+00
 Coeff-Com: -0.759D-06 0.143D-05 0.341D-04 0.567D-04 0.172D-03 0.176D-03
 Coeff-Com: -0.170D-02-0.438D-02-0.303D-01 0.338D-01 0.249D+00 0.753D+00
 Coeff:     -0.759D-06 0.143D-05 0.341D-04 0.567D-04 0.172D-03 0.176D-03
 Coeff:     -0.170D-02-0.438D-02-0.303D-01 0.338D-01 0.249D+00 0.753D+00
 Gap=     0.314 Goal=   None    Shift=    0.000
 RMSDP=1.96D-08 MaxDP=2.95D-06 DE=-1.91D-10 OVMax= 1.92D-06

 Cycle  13  Pass 1  IDiag  1:
 RMSU=  1.02D-08    CP:  8.70D-01  1.00D+00  1.12D+00  7.63D-01  8.58D-01
                    CP:  1.14D+00  1.10D+00  8.59D-01  1.22D+00  1.18D+00
                    CP:  9.11D-01  9.38D-01
 E= -1121.75098294153     Delta-E=        0.000000000024 Rises=F Damp=F
 DIIS: error= 1.12D-07 at cycle  13 NSaved=  13.
 NSaved=13 IEnMin=12 EnMin= -1121.75098294156     IErMin=13 ErrMin= 1.12D-07
 ErrMax= 1.12D-07  0.00D+00 EMaxC= 1.00D-01 BMatC= 1.34D-12 BMatP= 1.05D-11
 IDIUse=1 WtCom= 1.00D+00 WtEn= 0.00D+00
 Coeff-Com:  0.859D-06-0.164D-05-0.521D-05-0.607D-05 0.116D-04 0.284D-03
 Coeff-Com:  0.975D-03-0.163D-03-0.158D-01-0.171D-01 0.281D-01 0.312D+00
 Coeff-Com:  0.692D+00
 Coeff:      0.859D-06-0.164D-05-0.521D-05-0.607D-05 0.116D-04 0.284D-03
 Coeff:      0.975D-03-0.163D-03-0.158D-01-0.171D-01 0.281D-01 0.312D+00
 Coeff:      0.692D+00
 Gap=     0.314 Goal=   None    Shift=    0.000
 RMSDP=3.92D-09 MaxDP=3.03D-07 DE= 2.41D-11 OVMax= 6.90D-07

 SCF Done:  E(RM062X) =  -1121.75098294     A.U. after   13 cycles
            NFock= 13  Conv=0.39D-08     -V/T= 2.0031
 KE= 1.118286600450D+03 PE=-4.808510880472D+03 EE= 1.487751476162D+03
 Leave Link  502 at Thu Dec 15 15:50:44 2022, MaxMem=  1342177280 cpu:            1320.8 elap:              55.2
 (Enter /data0/home/software/g16/l601.exe)
 Copying SCF densities to generalized density rwf, IOpCl= 0 IROHF=0.

 **********************************************************************

            Population analysis using the SCF density.

 **********************************************************************

 Alpha  occ. eigenvalues --  -78.14667 -19.65585 -19.64180 -19.63610 -19.62501
 Alpha  occ. eigenvalues --  -19.62414 -19.61752 -19.58046 -14.78980 -10.61158
 Alpha  occ. eigenvalues --  -10.60760 -10.58916 -10.58011 -10.57822  -6.95397
 Alpha  occ. eigenvalues --   -5.07312  -5.07285  -5.07119  -1.21246  -1.14372
 Alpha  occ. eigenvalues --   -1.13909  -1.13568  -1.12546  -1.12142  -1.08465
 Alpha  occ. eigenvalues --   -1.08197  -0.93198  -0.88695  -0.74446  -0.73871
 Alpha  occ. eigenvalues --   -0.69528  -0.64016  -0.62491  -0.61338  -0.61086
 Alpha  occ. eigenvalues --   -0.60909  -0.60608  -0.57845  -0.56789  -0.53448
 Alpha  occ. eigenvalues --   -0.52941  -0.52305  -0.50789  -0.50071  -0.50009
 Alpha  occ. eigenvalues --   -0.48874  -0.47887  -0.46401  -0.45639  -0.45465
 Alpha  occ. eigenvalues --   -0.45121  -0.42780  -0.41465  -0.40358  -0.40272
 Alpha  occ. eigenvalues --   -0.39679  -0.37715  -0.37500  -0.37128  -0.36293
 Alpha  occ. eigenvalues --   -0.34351
 Alpha virt. eigenvalues --   -0.02954  -0.01491  -0.00467   0.00733   0.01501
 Alpha virt. eigenvalues --    0.01951   0.03058   0.03509   0.04643   0.05225
 Alpha virt. eigenvalues --    0.06308   0.06423   0.07118   0.07823   0.08242
 Alpha virt. eigenvalues --    0.09463   0.10240   0.10548   0.11625   0.12012
 Alpha virt. eigenvalues --    0.12476   0.12994   0.13244   0.13893   0.14177
 Alpha virt. eigenvalues --    0.15006   0.15149   0.15450   0.16260   0.16731
 Alpha virt. eigenvalues --    0.17229   0.17766   0.17982   0.18666   0.19013
 Alpha virt. eigenvalues --    0.19176   0.19456   0.20040   0.20432   0.20646
 Alpha virt. eigenvalues --    0.21094   0.21351   0.21564   0.21987   0.22629
 Alpha virt. eigenvalues --    0.23332   0.23526   0.23964   0.24541   0.24935
 Alpha virt. eigenvalues --    0.25345   0.26130   0.26457   0.27231   0.27362
 Alpha virt. eigenvalues --    0.27999   0.28537   0.29553   0.30048   0.30292
 Alpha virt. eigenvalues --    0.30387   0.30949   0.31736   0.32183   0.32507
 Alpha virt. eigenvalues --    0.32813   0.33066   0.33568   0.34011   0.34797
 Alpha virt. eigenvalues --    0.35801   0.37049   0.37250   0.37562   0.38656
 Alpha virt. eigenvalues --    0.39714   0.40863   0.41600   0.42951   0.43640
 Alpha virt. eigenvalues --    0.44581   0.45255   0.46693   0.48506   0.49175
 Alpha virt. eigenvalues --    0.50216   0.51507   0.51833   0.52721   0.53389
 Alpha virt. eigenvalues --    0.53806   0.54463   0.55418   0.55963   0.57493
 Alpha virt. eigenvalues --    0.58194   0.58265   0.59146   0.60702   0.61099
 Alpha virt. eigenvalues --    0.63297   0.63979   0.64124   0.65172   0.66131
 Alpha virt. eigenvalues --    0.66283   0.66628   0.66842   0.67664   0.68004
 Alpha virt. eigenvalues --    0.70162   0.71202   0.72631   0.74058   0.75834
 Alpha virt. eigenvalues --    0.77159   0.78647   0.78689   0.80196   0.80979
 Alpha virt. eigenvalues --    0.81999   0.82255   0.83155   0.84238   0.85270
 Alpha virt. eigenvalues --    0.85829   0.87806   0.89243   0.90220   0.90487
 Alpha virt. eigenvalues --    0.91713   0.93162   0.93324   0.98712   1.01091
 Alpha virt. eigenvalues --    1.02241   1.02765   1.04214   1.05087   1.06323
 Alpha virt. eigenvalues --    1.07864   1.08106   1.09176   1.09970   1.11820
 Alpha virt. eigenvalues --    1.13094   1.14401   1.14527   1.15133   1.15476
 Alpha virt. eigenvalues --    1.16089   1.17092   1.17708   1.18655   1.19483
 Alpha virt. eigenvalues --    1.19937   1.20294   1.22352   1.22948   1.24250
 Alpha virt. eigenvalues --    1.24628   1.25366   1.25621   1.26321   1.27219
 Alpha virt. eigenvalues --    1.28674   1.29052   1.30863   1.30953   1.32670
 Alpha virt. eigenvalues --    1.32930   1.33330   1.34073   1.35807   1.36344
 Alpha virt. eigenvalues --    1.36824   1.36897   1.37087   1.38736   1.40817
 Alpha virt. eigenvalues --    1.41818   1.42817   1.44162   1.44897   1.45626
 Alpha virt. eigenvalues --    1.47277   1.47759   1.48542   1.50662   1.50978
 Alpha virt. eigenvalues --    1.51903   1.52696   1.54240   1.55914   1.56891
 Alpha virt. eigenvalues --    1.57607   1.60756   1.61837   1.63273   1.64403
 Alpha virt. eigenvalues --    1.65946   1.66603   1.69078   1.70649   1.71414
 Alpha virt. eigenvalues --    1.72120   1.73624   1.73823   1.76264   1.77246
 Alpha virt. eigenvalues --    1.79494   1.80108   1.80612   1.81701   1.82755
 Alpha virt. eigenvalues --    1.83543   1.87007   1.87866   1.88796   1.90545
 Alpha virt. eigenvalues --    1.94309   1.96271   1.97366   1.98853   2.00341
 Alpha virt. eigenvalues --    2.01245   2.02971   2.04206   2.06476   2.08211
 Alpha virt. eigenvalues --    2.09043   2.10370   2.11372   2.12652   2.13245
 Alpha virt. eigenvalues --    2.15460   2.17067   2.18799   2.19172   2.21008
 Alpha virt. eigenvalues --    2.23286   2.25117   2.26066   2.28214   2.31739
 Alpha virt. eigenvalues --    2.33514   2.34512   2.38390   2.39437   2.40317
 Alpha virt. eigenvalues --    2.44634   2.45762   2.47197   2.47832   2.51267
 Alpha virt. eigenvalues --    2.52347   2.55295   2.56186   2.58331   2.62641
 Alpha virt. eigenvalues --    2.63291   2.64154   2.64544   2.66413   2.67024
 Alpha virt. eigenvalues --    2.67973   2.68299   2.70557   2.73557   2.73858
 Alpha virt. eigenvalues --    2.75079   2.75356   2.79744   2.82802   2.84926
 Alpha virt. eigenvalues --    2.85438   2.85961   2.86115   2.87344   2.88301
 Alpha virt. eigenvalues --    2.90973   2.96628   2.96676   2.99560   3.01993
 Alpha virt. eigenvalues --    3.03010   3.05368   3.06208   3.06850   3.10751
 Alpha virt. eigenvalues --    3.11026   3.12021   3.12616   3.13805   3.16057
 Alpha virt. eigenvalues --    3.21261   3.22401   3.26539   3.27354   3.28440
 Alpha virt. eigenvalues --    3.30865   3.34823   3.40069   3.43760   3.45322
 Alpha virt. eigenvalues --    3.54166   3.54266   3.54630   3.55569   3.56599
 Alpha virt. eigenvalues --    3.57394   3.63401   3.67592   3.71456   3.72671
 Alpha virt. eigenvalues --    3.74786   3.79313   3.82714   3.86086   3.91065
 Alpha virt. eigenvalues --    3.94231   3.94947   3.97942   4.01909   4.47175
 Alpha virt. eigenvalues --    4.48861   4.53910   4.80557   4.94182   4.97120
 Alpha virt. eigenvalues --    5.01314   5.08212   5.10311   5.12549   5.13407
 Alpha virt. eigenvalues --    5.14140   5.14514   5.14976   5.16132   5.20209
 Alpha virt. eigenvalues --    5.21577   5.23888   5.28733   5.30075   5.39301
 Alpha virt. eigenvalues --    5.50083   5.53842   5.55233   5.56699   5.58299
 Alpha virt. eigenvalues --    5.58724   5.61537   5.85237   5.95562   5.96022
 Alpha virt. eigenvalues --    5.96985   6.75723   6.76767   6.78172   6.78665
 Alpha virt. eigenvalues --    6.79027   6.81113   6.81689   6.82279   6.82315
 Alpha virt. eigenvalues --    6.83605   6.84503   6.87114   6.88236   6.89851
 Alpha virt. eigenvalues --    6.90918   6.92283   6.93701   6.94738   6.95390
 Alpha virt. eigenvalues --    6.96756   7.00637   7.01490   7.02701   7.05136
 Alpha virt. eigenvalues --    7.06052   7.09392   7.13666   7.15085   7.17367
 Alpha virt. eigenvalues --    7.22186   7.25679   7.33202   7.35595   7.38893
 Alpha virt. eigenvalues --    7.43171   7.69823  14.26490  14.28767  14.39964
 Alpha virt. eigenvalues --   23.81829  24.03372  24.04376  24.08391  24.11660
 Alpha virt. eigenvalues --   35.71712  50.00793  50.02102  50.03726  50.05447
 Alpha virt. eigenvalues --   50.07445  50.08810  50.13196 163.93821
          Condensed to atoms (all electrons):
               1          2          3          4          5          6
     1  C    6.398305  -0.524608   0.271779  -0.375532  -0.241081   0.180959
     2  C   -0.524608   5.620447   0.296410   0.297854  -0.115733   0.090534
     3  C    0.271779   0.296410   5.132725  -0.046265   0.366942  -0.131757
     4  C   -0.375532   0.297854  -0.046265   7.588971  -1.805093   0.100033
     5  C   -0.241081  -0.115733   0.366942  -1.805093   7.240718   0.255559
     6  N    0.180959   0.090534  -0.131757   0.100033   0.255559   6.800119
     7  H   -0.000746  -0.013860   0.373868  -0.014075   0.000134   0.000369
     8  H    0.438232  -0.052362   0.016482  -0.007077   0.009764  -0.063182
     9  H   -0.017842   0.375274  -0.023319   0.005655  -0.001902   0.007626
    10  H    0.000068   0.004585  -0.029494   0.378165  -0.016424   0.007727
    11  H    0.013216  -0.012300   0.014329  -0.100264   0.470895  -0.055228
    12  P   -0.001114  -0.004386   0.001798  -0.038127   0.020477   0.006421
    13  O    0.010765   0.002734  -0.007186   0.059370  -0.023125  -0.017534
    14  O   -0.003425   0.001306  -0.000219  -0.004168   0.008903  -0.001439
    15  H    0.001038  -0.000177   0.000145  -0.001949  -0.003378   0.001736
    16  O   -0.003785  -0.001861   0.000761  -0.047997   0.008358   0.011647
    17  H   -0.017180   0.016386  -0.003954   0.015722  -0.015715   0.052563
    18  O   -0.000624   0.000189   0.000156  -0.001908  -0.001724   0.003905
    19  H    0.000268  -0.000038  -0.000008   0.000096   0.000361  -0.000741
    20  O   -0.001514   0.001112  -0.000270   0.009998   0.004393  -0.005254
    21  H    0.000050  -0.000338   0.000139  -0.003838  -0.000362   0.001560
    22  H   -0.000469   0.000010  -0.000007  -0.001652   0.002122   0.000206
    23  O    0.000263   0.000026  -0.000011  -0.000041   0.000005  -0.000028
    24  H   -0.000082  -0.000091   0.000021  -0.000282  -0.000787   0.000310
    25  H   -0.000021  -0.000004   0.000001   0.000006   0.000004   0.000005
    26  O    0.001051   0.000412  -0.000021   0.000117  -0.001342   0.000808
    27  H   -0.000281  -0.000044   0.000007  -0.000108   0.000088  -0.000046
    28  H   -0.000346  -0.000045   0.000001   0.000030   0.000403  -0.000175
               7          8          9         10         11         12
     1  C   -0.000746   0.438232  -0.017842   0.000068   0.013216  -0.001114
     2  C   -0.013860  -0.052362   0.375274   0.004585  -0.012300  -0.004386
     3  C    0.373868   0.016482  -0.023319  -0.029494   0.014329   0.001798
     4  C   -0.014075  -0.007077   0.005655   0.378165  -0.100264  -0.038127
     5  C    0.000134   0.009764  -0.001902  -0.016424   0.470895   0.020477
     6  N    0.000369  -0.063182   0.007626   0.007727  -0.055228   0.006421
     7  H    0.522490  -0.000266  -0.004477  -0.004641  -0.000225   0.000017
     8  H   -0.000266   0.520837  -0.002649   0.000084  -0.000090  -0.000147
     9  H   -0.004477  -0.002649   0.521643  -0.000184   0.000075   0.000011
    10  H   -0.004641   0.000084  -0.000184   0.518315  -0.001854   0.000027
    11  H   -0.000225  -0.000090   0.000075  -0.001854   0.473343   0.008803
    12  P    0.000017  -0.000147   0.000011   0.000027   0.008803  12.583181
    13  O   -0.000000   0.000054  -0.000000   0.000046  -0.001173   0.451265
    14  O    0.000000   0.000024   0.000000   0.000007  -0.000564   0.143341
    15  H    0.000000   0.000003  -0.000000  -0.000000   0.000170   0.036246
    16  O   -0.000008   0.001936   0.000045   0.000054   0.001416   0.324814
    17  H    0.000014  -0.001145  -0.000047  -0.000041  -0.000326   0.005449
    18  O   -0.000000  -0.000010   0.000000  -0.000000   0.000132   0.228137
    19  H   -0.000000   0.000001   0.000000   0.000000  -0.000004   0.021576
    20  O   -0.000000  -0.000000  -0.000000   0.000002  -0.000207  -0.011863
    21  H   -0.000000   0.000000   0.000000   0.000000  -0.000223   0.019837
    22  H    0.000000  -0.000000   0.000000  -0.000000  -0.000131   0.001565
    23  O   -0.000000   0.000000   0.000000   0.000000  -0.000000   0.000861
    24  H    0.000000  -0.000000   0.000000  -0.000000   0.000000   0.004622
    25  H    0.000000  -0.000000  -0.000000  -0.000000  -0.000000  -0.000212
    26  O    0.000000   0.000003  -0.000000  -0.000000  -0.000002  -0.022000
    27  H    0.000000  -0.000004   0.000000  -0.000000   0.000000   0.006383
    28  H   -0.000000   0.000000   0.000000   0.000000   0.000001   0.007374
              13         14         15         16         17         18
     1  C    0.010765  -0.003425   0.001038  -0.003785  -0.017180  -0.000624
     2  C    0.002734   0.001306  -0.000177  -0.001861   0.016386   0.000189
     3  C   -0.007186  -0.000219   0.000145   0.000761  -0.003954   0.000156
     4  C    0.059370  -0.004168  -0.001949  -0.047997   0.015722  -0.001908
     5  C   -0.023125   0.008903  -0.003378   0.008358  -0.015715  -0.001724
     6  N   -0.017534  -0.001439   0.001736   0.011647   0.052563   0.003905
     7  H   -0.000000   0.000000   0.000000  -0.000008   0.000014  -0.000000
     8  H    0.000054   0.000024   0.000003   0.001936  -0.001145  -0.000010
     9  H   -0.000000   0.000000  -0.000000   0.000045  -0.000047   0.000000
    10  H    0.000046   0.000007  -0.000000   0.000054  -0.000041  -0.000000
    11  H   -0.001173  -0.000564   0.000170   0.001416  -0.000326   0.000132
    12  P    0.451265   0.143341   0.036246   0.324814   0.005449   0.228137
    13  O    8.280324   0.024515  -0.005272  -0.074195   0.010950  -0.075377
    14  O    0.024515   8.166456   0.209378  -0.006598  -0.004050  -0.045852
    15  H   -0.005272   0.209378   0.462865  -0.004627  -0.002098  -0.006043
    16  O   -0.074195  -0.006598  -0.004627   8.196045   0.230724   0.040901
    17  H    0.010950  -0.004050  -0.002098   0.230724   0.240458   0.002044
    18  O   -0.075377  -0.045852  -0.006043   0.040901   0.002044   8.248647
    19  H    0.011220   0.004899  -0.000365  -0.012212   0.001489   0.211829
    20  O   -0.000841   0.000850   0.000014  -0.009352   0.002334  -0.002671
    21  H    0.038911   0.000514  -0.000098   0.003246  -0.001065  -0.000014
    22  H   -0.001232  -0.000121   0.000003   0.001398  -0.000351   0.000459
    23  O   -0.001230   0.000475   0.000000  -0.003230   0.000373  -0.003694
    24  H   -0.001623  -0.000243   0.000001   0.001749  -0.000296   0.001066
    25  H    0.000136  -0.000016  -0.000000   0.000146  -0.000014   0.000346
    26  O   -0.016731   0.003082   0.000240   0.011386  -0.000031   0.042974
    27  H    0.001014  -0.000079  -0.000035   0.000933  -0.000021  -0.009105
    28  H    0.002787  -0.000389  -0.000031  -0.000216  -0.000050  -0.012198
              19         20         21         22         23         24
     1  C    0.000268  -0.001514   0.000050  -0.000469   0.000263  -0.000082
     2  C   -0.000038   0.001112  -0.000338   0.000010   0.000026  -0.000091
     3  C   -0.000008  -0.000270   0.000139  -0.000007  -0.000011   0.000021
     4  C    0.000096   0.009998  -0.003838  -0.001652  -0.000041  -0.000282
     5  C    0.000361   0.004393  -0.000362   0.002122   0.000005  -0.000787
     6  N   -0.000741  -0.005254   0.001560   0.000206  -0.000028   0.000310
     7  H   -0.000000  -0.000000  -0.000000   0.000000  -0.000000   0.000000
     8  H    0.000001  -0.000000   0.000000  -0.000000   0.000000  -0.000000
     9  H    0.000000  -0.000000   0.000000   0.000000   0.000000   0.000000
    10  H    0.000000   0.000002   0.000000  -0.000000   0.000000  -0.000000
    11  H   -0.000004  -0.000207  -0.000223  -0.000131  -0.000000   0.000000
    12  P    0.021576  -0.011863   0.019837   0.001565   0.000861   0.004622
    13  O    0.011220  -0.000841   0.038911  -0.001232  -0.001230  -0.001623
    14  O    0.004899   0.000850   0.000514  -0.000121   0.000475  -0.000243
    15  H   -0.000365   0.000014  -0.000098   0.000003   0.000000   0.000001
    16  O   -0.012212  -0.009352   0.003246   0.001398  -0.003230   0.001749
    17  H    0.001489   0.002334  -0.001065  -0.000351   0.000373  -0.000296
    18  O    0.211829  -0.002671  -0.000014   0.000459  -0.003694   0.001066
    19  H    0.322817   0.001937  -0.000743  -0.000187   0.003281  -0.001541
    20  O    0.001937   8.119124   0.268712   0.302578  -0.001811  -0.040599
    21  H   -0.000743   0.268712   0.327847  -0.014692  -0.007929   0.015046
    22  H   -0.000187   0.302578  -0.014692   0.422216  -0.000129   0.005880
    23  O    0.003281  -0.001811  -0.007929  -0.000129   8.250711   0.249404
    24  H   -0.001541  -0.040599   0.015046   0.005880   0.249404   0.342484
    25  H   -0.000509   0.004771   0.000361   0.000409   0.282999  -0.011246
    26  O   -0.039208  -0.006651   0.000336   0.000754   0.000863   0.004111
    27  H    0.010645   0.000540   0.000043  -0.000048   0.002127  -0.000120
    28  H    0.013379   0.003304   0.000013  -0.000402  -0.045751   0.004073
              25         26         27         28
     1  C   -0.000021   0.001051  -0.000281  -0.000346
     2  C   -0.000004   0.000412  -0.000044  -0.000045
     3  C    0.000001  -0.000021   0.000007   0.000001
     4  C    0.000006   0.000117  -0.000108   0.000030
     5  C    0.000004  -0.001342   0.000088   0.000403
     6  N    0.000005   0.000808  -0.000046  -0.000175
     7  H    0.000000   0.000000   0.000000  -0.000000
     8  H   -0.000000   0.000003  -0.000004   0.000000
     9  H   -0.000000  -0.000000   0.000000   0.000000
    10  H   -0.000000  -0.000000  -0.000000   0.000000
    11  H   -0.000000  -0.000002   0.000000   0.000001
    12  P   -0.000212  -0.022000   0.006383   0.007374
    13  O    0.000136  -0.016731   0.001014   0.002787
    14  O   -0.000016   0.003082  -0.000079  -0.000389
    15  H   -0.000000   0.000240  -0.000035  -0.000031
    16  O    0.000146   0.011386   0.000933  -0.000216
    17  H   -0.000014  -0.000031  -0.000021  -0.000050
    18  O    0.000346   0.042974  -0.009105  -0.012198
    19  H   -0.000509  -0.039208   0.010645   0.013379
    20  O    0.004771  -0.006651   0.000540   0.003304
    21  H    0.000361   0.000336   0.000043   0.000013
    22  H    0.000409   0.000754  -0.000048  -0.000402
    23  O    0.282999   0.000863   0.002127  -0.045751
    24  H   -0.011246   0.004111  -0.000120   0.004073
    25  H    0.426823  -0.000914   0.000493   0.005508
    26  O   -0.000914   8.134055   0.294938   0.271182
    27  H    0.000493   0.294938   0.418995  -0.008029
    28  H    0.005508   0.271182  -0.008029   0.324752
 Mulliken charges:
               1
     1  C   -0.127341
     2  C    0.018565
     3  C   -0.233054
     4  C   -0.007641
     5  C   -0.162462
     6  N   -0.246703
     7  H    0.141407
     8  H    0.139514
     9  H    0.140092
    10  H    0.143557
    11  H    0.190210
    12  P    1.205646
    13  O   -0.668571
    14  O   -0.496588
    15  H    0.312236
    16  O   -0.671476
    17  H    0.467881
    18  O   -0.621565
    19  H    0.451760
    20  O   -0.638636
    21  H    0.352685
    22  H    0.281822
    23  O   -0.727533
    24  H    0.428142
    25  H    0.290927
    26  O   -0.679412
    27  H    0.281712
    28  H    0.434825
 Sum of Mulliken charges =  -0.00000
 Mulliken charges with hydrogens summed into heavy atoms:
               1
     1  C    0.012173
     2  C    0.158657
     3  C   -0.091647
     4  C    0.135916
     5  C    0.027747
     6  N   -0.246703
    12  P    1.205646
    13  O   -0.668571
    14  O   -0.184352
    16  O   -0.203595
    18  O   -0.169805
    20  O   -0.004130
    23  O   -0.008464
    26  O    0.037126
         Mulliken charges condensed to fragments:
      1     -0.003856
      2     -0.020676
      3     -0.004130
      4     -0.008464
      5      0.037126
 Electronic spatial extent (au):  <R**2>=         111452.8653
 Charge=              0.0000 electrons
 Dipole moment (field-independent basis, Debye):
    X=              0.6748    Y=              5.1366    Z=              4.7251  Tot=              7.0119
 Quadrupole moment (field-independent basis, Debye-Ang):
   XX=            -77.7681   YY=             -6.1983   ZZ=            -18.9554
   XY=             72.8578   XZ=             66.1017   YZ=             73.4890
 Traceless Quadrupole moment (field-independent basis, Debye-Ang):
   XX=            -43.4608   YY=             28.1090   ZZ=             15.3519
   XY=             72.8578   XZ=             66.1017   YZ=             73.4890
 Octapole moment (field-independent basis, Debye-Ang**2):
  XXX=          -3139.5719  YYY=           -889.1008  ZZZ=          -1038.0509  XYY=             81.8460
  XXY=            355.5274  XXZ=            263.6745  XZZ=           -179.6566  YZZ=            174.2797
  YYZ=            308.8499  XYZ=            987.9305
 Hexadecapole moment (field-independent basis, Debye-Ang**3):
 XXXX=         -80499.3723 YYYY=         -18595.0193 ZZZZ=         -19028.9827 XXXY=         -10549.0002
 XXXZ=         -11743.5067 YYYX=          -9198.9427 YYYZ=          -3324.6872 ZZZX=         -12962.5300
 ZZZY=          -5487.5985 XXYY=          -2349.9674 XXZZ=          -6525.8028 YYZZ=           -291.3824
 XXYZ=           8469.3976 YYXZ=           4878.5498 ZZXY=           2587.4918
 N-N= 1.080721820918D+03 E-N=-4.808510885918D+03  KE= 1.118286600450D+03
 No NMR shielding tensors so no spin-rotation constants.
 Leave Link  601 at Thu Dec 15 15:50:44 2022, MaxMem=  1342177280 cpu:               3.3 elap:               0.2
 (Enter /data0/home/software/g16/l122.exe)
 CPIOFr:  IOpCl= 0 IRwI=-1 IRwCP=  731 ICalc= -1 LCPTot=      340243 Len1MO=      893396 IndFrg=      340243
 CPIOFr:  IOpCl= 0 IRwI=-1 IRwCP=  731 ICalc=  0 LCPTot=      340243 Len1MO=      893396 IndFrg=     1233639
 Counterpoise: doing calculation for fragment   1 using the basis set of the full-system, NewBq=T
 Leave Link  122 at Thu Dec 15 15:50:44 2022, MaxMem=  1342177280 cpu:               0.4 elap:               0.0
 (Enter /data0/home/software/g16/l301.exe)
 Basis read from rwf:  (5D, 7F)
 No pseudopotential information found on rwf file.
   470 basis functions,   714 primitive gaussians,   498 cartesian basis functions
    21 alpha electrons       21 beta electrons
       nuclear repulsion energy       205.2253932613 Hartrees.
 IExCor= 4336 DFT=T Ex+Corr=M062X ExCW=0 ScaHFX=  0.540000
 ScaDFX=  1.000000  1.000000  1.000000  1.000000 ScalE2=  1.000000  1.000000
 IRadAn=      5 IRanWt=     -1 IRanGd=            0 ICorTp=0 IEmpDi=131
 NAtoms=   28 NActive=   28 NUniq=   28 SFac= 1.00D+00 NAtFMM=   60 NAOKFM=F Big=F
 Integral buffers will be    131072 words long.
 Raffenetti 2 integral format.
 Two-electron integral symmetry is turned off.
 R6Disp:  Grimme-D3 Dispersion energy=       -0.0000989734 Hartrees.
 Nuclear repulsion after empirical dispersion term =      205.2252942879 Hartrees.
 No density basis found on file   718.
 Leave Link  301 at Thu Dec 15 15:50:44 2022, MaxMem=  1342177280 cpu:               1.3 elap:               0.1
 (Enter /data0/home/software/g16/l302.exe)
 NPDir=0 NMtPBC=     1 NCelOv=     1 NCel=       1 NClECP=     1 NCelD=      1
         NCelK=      1 NCelE2=     1 NClLst=     1 CellRange=     0.0.
 One-electron integrals computed using PRISM.
 NBasis=   470 RedAO= T EigKep=  6.17D-06  NBF=   470
 NBsUse=   470 1.00D-06 EigRej= -1.00D+00 NBFU=   470
 Precomputing XC quadrature grid using
 IXCGrd= 4 IRadAn=           5 IRanWt=          -1 IRanGd=           0 AccXCQ= 0.00D+00.
 Generated NRdTot=       0 NPtTot=           0 NUsed=           0 NTot=          32
 NSgBfM=   494   494   494   494   494 MxSgAt=    28 MxSgA2=    28.
 Leave Link  302 at Thu Dec 15 15:50:44 2022, MaxMem=  1342177280 cpu:              10.0 elap:               0.4
 (Enter /data0/home/software/g16/l303.exe)
 DipDrv:  MaxL=1.
 Leave Link  303 at Thu Dec 15 15:50:44 2022, MaxMem=  1342177280 cpu:               1.1 elap:               0.1
 (Enter /data0/home/software/g16/l401.exe)
 ExpMin= 3.48D-02 ExpMax= 7.75D+04 ExpMxC= 2.65D+03 IAcc=3 IRadAn=         5 AccDes= 0.00D+00
 Harris functional with IExCor= 1009 and IRadAn=       5 diagonalized for initial guess.
 HarFok:  IExCor= 1009 AccDes= 0.00D+00 IRadAn=         5 IDoV= 1 UseB2=F ITyADJ=14
 ICtDFT=  3500011 ScaDFX=  1.000000  1.000000  1.000000  1.000000
 FoFCou: FMM=F IPFlag=           0 FMFlag=      100000 FMFlg1=           0
         NFxFlg=           0 DoJE=T BraDBF=F KetDBF=T FulRan=T
         wScrn=  0.000000 ICntrl=       500 IOpCl=  0 I1Cent=   200000004 NGrid=           0
         NMat0=    1 NMatS0=      1 NMatT0=    0 NMatD0=    1 NMtDS0=    0 NMtDT0=    0
 Symmetry not used in FoFCou.
 Harris En= -248.119117470780    
 JPrj=0 DoOrth=F DoCkMO=F.
 Leave Link  401 at Thu Dec 15 15:50:46 2022, MaxMem=  1342177280 cpu:              30.9 elap:               1.3
 (Enter /data0/home/software/g16/l502.exe)
 Two-electron integral symmetry not used.
 Closed shell SCF:
 Using DIIS extrapolation, IDIIS=  1040.
 NGot=  1342177280 LenX=  1341665790 LenY=  1341417288
 Requested convergence on RMS density matrix=1.00D-08 within 128 cycles.
 Requested convergence on MAX density matrix=1.00D-06.
 Requested convergence on             energy=1.00D-06.
 No special actions if energy rises.
 Fock matrices will be formed incrementally for  20 cycles.

 Cycle   1  Pass 1  IDiag  1:
 FoFJK:  IHMeth= 1 ICntrl=       0 DoSepK=F KAlg= 0 I1Cent=           0 FoldK=F
 IRaf= 790000000 NMat=       1 IRICut=       1 DoRegI=T DoRafI=F ISym2E= 0 IDoP0=0 IntGTp=1.
 FoFCou: FMM=F IPFlag=           0 FMFlag=      100000 FMFlg1=           0
         NFxFlg=           0 DoJE=F BraDBF=F KetDBF=F FulRan=T
         wScrn=  0.000000 ICntrl=         0 IOpCl=  0 I1Cent=           0 NGrid=           0
         NMat0=    1 NMatS0=      1 NMatT0=    0 NMatD0=    1 NMtDS0=    0 NMtDT0=    0
 Symmetry not used in FoFCou.
 E= -248.122049823786    
 DIIS: error= 3.17D-02 at cycle   1 NSaved=   1.
 NSaved= 1 IEnMin= 1 EnMin= -248.122049823786     IErMin= 1 ErrMin= 3.17D-02
 ErrMax= 3.17D-02  0.00D+00 EMaxC= 1.00D-01 BMatC= 1.51D-01 BMatP= 1.51D-01
 IDIUse=3 WtCom= 6.83D-01 WtEn= 3.17D-01
 Coeff-Com:  0.100D+01
 Coeff-En:   0.100D+01
 Coeff:      0.100D+01
 Gap=     0.340 Goal=   None    Shift=    0.000
 GapD=    0.340 DampG=1.000 DampE=0.500 DampFc=0.5000 IDamp=-1.
 Damping current iteration by 5.00D-01
 RMSDP=2.17D-03 MaxDP=2.14D-01              OVMax= 1.39D-01

 Cycle   2  Pass 1  IDiag  1:
 RMSU=  1.08D-03    CP:  1.01D+00
 E= -248.185962444033     Delta-E=       -0.063912620247 Rises=F Damp=T
 DIIS: error= 8.18D-03 at cycle   2 NSaved=   2.
 NSaved= 2 IEnMin= 2 EnMin= -248.185962444033     IErMin= 2 ErrMin= 8.18D-03
 ErrMax= 8.18D-03  0.00D+00 EMaxC= 1.00D-01 BMatC= 1.47D-02 BMatP= 1.51D-01
 IDIUse=3 WtCom= 9.18D-01 WtEn= 8.18D-02
 Coeff-Com: -0.223D+00 0.122D+01
 Coeff-En:   0.000D+00 0.100D+01
 Coeff:     -0.205D+00 0.121D+01
 Gap=     0.336 Goal=   None    Shift=    0.000
 RMSDP=7.07D-04 MaxDP=5.03D-02 DE=-6.39D-02 OVMax= 7.65D-02

 Cycle   3  Pass 1  IDiag  1:
 RMSU=  6.71D-04    CP:  9.77D-01  1.11D+00
 E= -248.242375845853     Delta-E=       -0.056413401820 Rises=F Damp=F
 DIIS: error= 4.37D-03 at cycle   3 NSaved=   3.
 NSaved= 3 IEnMin= 3 EnMin= -248.242375845853     IErMin= 3 ErrMin= 4.37D-03
 ErrMax= 4.37D-03  0.00D+00 EMaxC= 1.00D-01 BMatC= 2.65D-03 BMatP= 1.47D-02
 IDIUse=3 WtCom= 9.56D-01 WtEn= 4.37D-02
 Coeff-Com: -0.134D+00 0.395D+00 0.738D+00
 Coeff-En:   0.000D+00 0.000D+00 0.100D+01
 Coeff:     -0.128D+00 0.378D+00 0.750D+00
 Gap=     0.325 Goal=   None    Shift=    0.000
 RMSDP=2.10D-04 MaxDP=3.03D-02 DE=-5.64D-02 OVMax= 2.30D-02

 Cycle   4  Pass 1  IDiag  1:
 RMSU=  1.79D-04    CP:  9.62D-01  1.05D+00  1.02D+00
 E= -248.244664127822     Delta-E=       -0.002288281968 Rises=F Damp=F
 DIIS: error= 2.05D-03 at cycle   4 NSaved=   4.
 NSaved= 4 IEnMin= 4 EnMin= -248.244664127822     IErMin= 4 ErrMin= 2.05D-03
 ErrMax= 2.05D-03  0.00D+00 EMaxC= 1.00D-01 BMatC= 2.69D-04 BMatP= 2.65D-03
 IDIUse=3 WtCom= 9.79D-01 WtEn= 2.05D-02
 Coeff-Com: -0.459D-01 0.114D+00 0.319D+00 0.613D+00
 Coeff-En:   0.000D+00 0.000D+00 0.000D+00 0.100D+01
 Coeff:     -0.449D-01 0.111D+00 0.313D+00 0.621D+00
 Gap=     0.317 Goal=   None    Shift=    0.000
 RMSDP=4.98D-05 MaxDP=3.87D-03 DE=-2.29D-03 OVMax= 8.99D-03

 Cycle   5  Pass 1  IDiag  1:
 RMSU=  3.40D-05    CP:  9.64D-01  1.06D+00  9.96D-01  8.45D-01
 E= -248.244905829896     Delta-E=       -0.000241702074 Rises=F Damp=F
 DIIS: error= 7.65D-04 at cycle   5 NSaved=   5.
 NSaved= 5 IEnMin= 5 EnMin= -248.244905829896     IErMin= 5 ErrMin= 7.65D-04
 ErrMax= 7.65D-04  0.00D+00 EMaxC= 1.00D-01 BMatC= 3.80D-05 BMatP= 2.69D-04
 IDIUse=3 WtCom= 9.92D-01 WtEn= 7.65D-03
 Coeff-Com: -0.118D-01 0.238D-01 0.948D-01 0.319D+00 0.574D+00
 Coeff-En:   0.000D+00 0.000D+00 0.000D+00 0.691D-01 0.931D+00
 Coeff:     -0.117D-01 0.237D-01 0.940D-01 0.317D+00 0.577D+00
 Gap=     0.317 Goal=   None    Shift=    0.000
 RMSDP=2.38D-05 MaxDP=1.31D-03 DE=-2.42D-04 OVMax= 2.50D-03

 Cycle   6  Pass 1  IDiag  1:
 RMSU=  1.63D-05    CP:  9.64D-01  1.05D+00  1.01D+00  8.36D-01  6.92D-01
 E= -248.244944255802     Delta-E=       -0.000038425906 Rises=F Damp=F
 DIIS: error= 1.08D-04 at cycle   6 NSaved=   6.
 NSaved= 6 IEnMin= 6 EnMin= -248.244944255802     IErMin= 6 ErrMin= 1.08D-04
 ErrMax= 1.08D-04  0.00D+00 EMaxC= 1.00D-01 BMatC= 1.72D-06 BMatP= 3.80D-05
 IDIUse=3 WtCom= 9.99D-01 WtEn= 1.08D-03
 Coeff-Com: -0.370D-02 0.680D-02 0.319D-01 0.122D+00 0.270D+00 0.573D+00
 Coeff-En:   0.000D+00 0.000D+00 0.000D+00 0.000D+00 0.000D+00 0.100D+01
 Coeff:     -0.370D-02 0.679D-02 0.318D-01 0.122D+00 0.270D+00 0.574D+00
 Gap=     0.317 Goal=   None    Shift=    0.000
 RMSDP=3.31D-06 MaxDP=2.43D-04 DE=-3.84D-05 OVMax= 6.10D-04

 Cycle   7  Pass 1  IDiag  1:
 RMSU=  2.74D-06    CP:  9.64D-01  1.05D+00  1.01D+00  8.31D-01  7.27D-01
                    CP:  1.03D+00
 E= -248.244945703666     Delta-E=       -0.000001447864 Rises=F Damp=F
 DIIS: error= 2.46D-05 at cycle   7 NSaved=   7.
 NSaved= 7 IEnMin= 7 EnMin= -248.244945703666     IErMin= 7 ErrMin= 2.46D-05
 ErrMax= 2.46D-05  0.00D+00 EMaxC= 1.00D-01 BMatC= 1.85D-07 BMatP= 1.72D-06
 IDIUse=1 WtCom= 1.00D+00 WtEn= 0.00D+00
 Coeff-Com:  0.150D-02-0.328D-02-0.104D-01-0.314D-01-0.321D-01 0.225D+00
 Coeff-Com:  0.850D+00
 Coeff:      0.150D-02-0.328D-02-0.104D-01-0.314D-01-0.321D-01 0.225D+00
 Coeff:      0.850D+00
 Gap=     0.317 Goal=   None    Shift=    0.000
 RMSDP=3.28D-06 MaxDP=1.95D-04 DE=-1.45D-06 OVMax= 1.28D-04

 Cycle   8  Pass 1  IDiag  1:
 RMSU=  8.64D-07    CP:  9.64D-01  1.05D+00  1.01D+00  8.30D-01  7.33D-01
                    CP:  1.17D+00  9.68D-01
 E= -248.244945872107     Delta-E=       -0.000000168442 Rises=F Damp=F
 DIIS: error= 3.95D-06 at cycle   8 NSaved=   8.
 NSaved= 8 IEnMin= 8 EnMin= -248.244945872107     IErMin= 8 ErrMin= 3.95D-06
 ErrMax= 3.95D-06  0.00D+00 EMaxC= 1.00D-01 BMatC= 3.45D-09 BMatP= 1.85D-07
 IDIUse=1 WtCom= 1.00D+00 WtEn= 0.00D+00
 Coeff-Com:  0.382D-03-0.820D-03-0.278D-02-0.947D-02-0.141D-01 0.376D-01
 Coeff-Com:  0.133D+00 0.856D+00
 Coeff:      0.382D-03-0.820D-03-0.278D-02-0.947D-02-0.141D-01 0.376D-01
 Coeff:      0.133D+00 0.856D+00
 Gap=     0.317 Goal=   None    Shift=    0.000
 RMSDP=2.81D-07 MaxDP=1.65D-05 DE=-1.68D-07 OVMax= 2.36D-05

 Cycle   9  Pass 1  IDiag  1:
 RMSU=  1.85D-07    CP:  9.64D-01  1.05D+00  1.01D+00  8.29D-01  7.32D-01
                    CP:  1.18D+00  9.81D-01  1.13D+00
 E= -248.244945875538     Delta-E=       -0.000000003430 Rises=F Damp=F
 DIIS: error= 2.73D-06 at cycle   9 NSaved=   9.
 NSaved= 9 IEnMin= 9 EnMin= -248.244945875538     IErMin= 9 ErrMin= 2.73D-06
 ErrMax= 2.73D-06  0.00D+00 EMaxC= 1.00D-01 BMatC= 1.06D-09 BMatP= 3.45D-09
 IDIUse=1 WtCom= 1.00D+00 WtEn= 0.00D+00
 Coeff-Com: -0.725D-04 0.161D-03 0.483D-03 0.764D-03-0.745D-03-0.104D-01
 Coeff-Com: -0.710D-01 0.363D+00 0.717D+00
 Coeff:     -0.725D-04 0.161D-03 0.483D-03 0.764D-03-0.745D-03-0.104D-01
 Coeff:     -0.710D-01 0.363D+00 0.717D+00
 Gap=     0.317 Goal=   None    Shift=    0.000
 RMSDP=1.05D-07 MaxDP=8.05D-06 DE=-3.43D-09 OVMax= 1.85D-05

 Cycle  10  Pass 1  IDiag  1:
 RMSU=  7.15D-08    CP:  9.64D-01  1.05D+00  1.01D+00  8.29D-01  7.31D-01
                    CP:  1.18D+00  9.78D-01  1.19D+00  1.10D+00
 E= -248.244945876830     Delta-E=       -0.000000001293 Rises=F Damp=F
 DIIS: error= 5.39D-07 at cycle  10 NSaved=  10.
 NSaved=10 IEnMin=10 EnMin= -248.244945876830     IErMin=10 ErrMin= 5.39D-07
 ErrMax= 5.39D-07  0.00D+00 EMaxC= 1.00D-01 BMatC= 6.93D-11 BMatP= 1.06D-09
 IDIUse=1 WtCom= 1.00D+00 WtEn= 0.00D+00
 Coeff-Com: -0.141D-04 0.326D-04 0.147D-03 0.330D-03 0.647D-03 0.136D-03
 Coeff-Com: -0.874D-02-0.102D+00 0.503D-01 0.106D+01
 Coeff:     -0.141D-04 0.326D-04 0.147D-03 0.330D-03 0.647D-03 0.136D-03
 Coeff:     -0.874D-02-0.102D+00 0.503D-01 0.106D+01
 Gap=     0.317 Goal=   None    Shift=    0.000
 RMSDP=3.96D-08 MaxDP=2.00D-06 DE=-1.29D-09 OVMax= 5.54D-06

 Cycle  11  Pass 1  IDiag  1:
 RMSU=  2.53D-08    CP:  9.64D-01  1.05D+00  1.01D+00  8.29D-01  7.31D-01
                    CP:  1.18D+00  9.77D-01  1.21D+00  1.21D+00  1.13D+00
 E= -248.244945876919     Delta-E=       -0.000000000089 Rises=F Damp=F
 DIIS: error= 3.36D-07 at cycle  11 NSaved=  11.
 NSaved=11 IEnMin=11 EnMin= -248.244945876919     IErMin=11 ErrMin= 3.36D-07
 ErrMax= 3.36D-07  0.00D+00 EMaxC= 1.00D-01 BMatC= 1.05D-11 BMatP= 6.93D-11
 IDIUse=1 WtCom= 1.00D+00 WtEn= 0.00D+00
 Coeff-Com: -0.233D-05 0.605D-05 0.483D-04 0.124D-03 0.394D-03 0.961D-03
 Coeff-Com: -0.214D-03-0.830D-01-0.146D-01 0.564D+00 0.532D+00
 Coeff:     -0.233D-05 0.605D-05 0.483D-04 0.124D-03 0.394D-03 0.961D-03
 Coeff:     -0.214D-03-0.830D-01-0.146D-01 0.564D+00 0.532D+00
 Gap=     0.317 Goal=   None    Shift=    0.000
 RMSDP=7.92D-09 MaxDP=5.48D-07 DE=-8.86D-11 OVMax= 1.62D-06

 SCF Done:  E(RM062X) =  -248.244945877     A.U. after   11 cycles
            NFock= 11  Conv=0.79D-08     -V/T= 2.0048
 KE= 2.470592844107D+02 PE=-9.869224904155D+02 EE= 2.863929658400D+02
 Leave Link  502 at Thu Dec 15 15:51:29 2022, MaxMem=  1342177280 cpu:            1030.6 elap:              43.1
 (Enter /data0/home/software/g16/l601.exe)
 Copying SCF densities to generalized density rwf, IOpCl= 0 IROHF=0.

 **********************************************************************

            Population analysis using the SCF density.

 **********************************************************************

 Alpha  occ. eigenvalues --  -14.75055 -10.58407 -10.58333 -10.56651 -10.55701
 Alpha  occ. eigenvalues --  -10.55696  -1.04983  -0.90685  -0.86237  -0.71804
 Alpha  occ. eigenvalues --   -0.71447  -0.60849  -0.55192  -0.54679  -0.50117
 Alpha  occ. eigenvalues --   -0.47392  -0.47249  -0.43064  -0.34788  -0.32540
 Alpha  occ. eigenvalues --   -0.32089
 Alpha virt. eigenvalues --   -0.00351   0.00689   0.00827   0.02104   0.02526
 Alpha virt. eigenvalues --    0.04100   0.04336   0.04353   0.06175   0.06902
 Alpha virt. eigenvalues --    0.07064   0.07603   0.08907   0.09437   0.09832
 Alpha virt. eigenvalues --    0.10940   0.10986   0.11822   0.12761   0.13378
 Alpha virt. eigenvalues --    0.14301   0.14417   0.14722   0.14965   0.15398
 Alpha virt. eigenvalues --    0.16799   0.17343   0.17808   0.18375   0.18843
 Alpha virt. eigenvalues --    0.19569   0.20085   0.20355   0.20466   0.20951
 Alpha virt. eigenvalues --    0.21551   0.22027   0.22620   0.23312   0.23667
 Alpha virt. eigenvalues --    0.24122   0.24823   0.25196   0.25551   0.25786
 Alpha virt. eigenvalues --    0.26236   0.26645   0.27323   0.27635   0.28935
 Alpha virt. eigenvalues --    0.30117   0.30309   0.30711   0.31377   0.31552
 Alpha virt. eigenvalues --    0.32653   0.33589   0.33828   0.34252   0.34625
 Alpha virt. eigenvalues --    0.35207   0.35896   0.36651   0.36749   0.37368
 Alpha virt. eigenvalues --    0.38055   0.38563   0.39174   0.39673   0.41662
 Alpha virt. eigenvalues --    0.41936   0.43539   0.43914   0.45054   0.45956
 Alpha virt. eigenvalues --    0.47181   0.47365   0.47760   0.49835   0.50676
 Alpha virt. eigenvalues --    0.51613   0.52353   0.52848   0.53639   0.54267
 Alpha virt. eigenvalues --    0.55631   0.56397   0.56747   0.57937   0.60906
 Alpha virt. eigenvalues --    0.62117   0.64477   0.65544   0.67004   0.67371
 Alpha virt. eigenvalues --    0.67688   0.67852   0.68700   0.69498   0.70131
 Alpha virt. eigenvalues --    0.71790   0.73128   0.74505   0.75068   0.75694
 Alpha virt. eigenvalues --    0.77089   0.77406   0.77845   0.78160   0.80256
 Alpha virt. eigenvalues --    0.80598   0.80917   0.81558   0.82422   0.82860
 Alpha virt. eigenvalues --    0.83619   0.84155   0.84312   0.85246   0.85602
 Alpha virt. eigenvalues --    0.86131   0.86507   0.87728   0.88061   0.88528
 Alpha virt. eigenvalues --    0.89544   0.89835   0.91316   0.91562   0.92229
 Alpha virt. eigenvalues --    0.93111   0.93667   0.94034   0.95956   0.97276
 Alpha virt. eigenvalues --    0.98017   0.98234   0.99312   1.00577   1.00944
 Alpha virt. eigenvalues --    1.01731   1.05419   1.06711   1.07695   1.07774
 Alpha virt. eigenvalues --    1.08485   1.10197   1.11889   1.12223   1.14031
 Alpha virt. eigenvalues --    1.15480   1.16826   1.18872   1.19874   1.21412
 Alpha virt. eigenvalues --    1.21467   1.22010   1.22434   1.26264   1.27154
 Alpha virt. eigenvalues --    1.28148   1.30350   1.31408   1.33280   1.35033
 Alpha virt. eigenvalues --    1.35299   1.36226   1.37844   1.39125   1.39430
 Alpha virt. eigenvalues --    1.39981   1.42097   1.45619   1.47792   1.49333
 Alpha virt. eigenvalues --    1.51176   1.51341   1.53733   1.54774   1.55873
 Alpha virt. eigenvalues --    1.58853   1.62861   1.63899   1.65884   1.68674
 Alpha virt. eigenvalues --    1.74007   1.83904   1.84171   1.86747   1.87938
 Alpha virt. eigenvalues --    1.90078   1.90957   1.91717   1.93214   1.94002
 Alpha virt. eigenvalues --    1.95577   1.96795   1.97760   2.01984   2.02221
 Alpha virt. eigenvalues --    2.02516   2.05751   2.10832   2.12979   2.14984
 Alpha virt. eigenvalues --    2.16259   2.16994   2.17467   2.17951   2.21282
 Alpha virt. eigenvalues --    2.22771   2.25242   2.26988   2.28052   2.30219
 Alpha virt. eigenvalues --    2.32705   2.33770   2.34671   2.35820   2.39395
 Alpha virt. eigenvalues --    2.40513   2.40580   2.42293   2.44648   2.46430
 Alpha virt. eigenvalues --    2.48070   2.50955   2.53777   2.54405   2.55008
 Alpha virt. eigenvalues --    2.57297   2.58463   2.59631   2.61955   2.62760
 Alpha virt. eigenvalues --    2.63502   2.64225   2.64857   2.66710   2.67722
 Alpha virt. eigenvalues --    2.68494   2.69050   2.69777   2.69973   2.72058
 Alpha virt. eigenvalues --    2.72562   2.72924   2.74067   2.74974   2.75560
 Alpha virt. eigenvalues --    2.76053   2.76710   2.77166   2.78249   2.79395
 Alpha virt. eigenvalues --    2.81575   2.83552   2.84121   2.84320   2.85125
 Alpha virt. eigenvalues --    2.86238   2.87761   2.88014   2.88362   2.89250
 Alpha virt. eigenvalues --    2.90204   2.91165   2.93163   2.95510   2.96084
 Alpha virt. eigenvalues --    2.97738   2.98861   3.00226   3.01499   3.02729
 Alpha virt. eigenvalues --    3.03164   3.05510   3.05961   3.08281   3.08470
 Alpha virt. eigenvalues --    3.09061   3.09803   3.12704   3.12895   3.13168
 Alpha virt. eigenvalues --    3.14332   3.15092   3.16630   3.19043   3.19783
 Alpha virt. eigenvalues --    3.22065   3.23685   3.24167   3.24496   3.25170
 Alpha virt. eigenvalues --    3.27653   3.28203   3.28850   3.29323   3.29602
 Alpha virt. eigenvalues --    3.30324   3.31971   3.34261   3.36330   3.37526
 Alpha virt. eigenvalues --    3.42558   3.44121   3.46398   3.48200   3.50211
 Alpha virt. eigenvalues --    3.55724   3.56908   3.57095   3.58020   3.59493
 Alpha virt. eigenvalues --    3.59754   3.65551   3.65758   3.66704   3.69109
 Alpha virt. eigenvalues --    3.72045   3.72511   3.74288   3.76145   3.76918
 Alpha virt. eigenvalues --    3.81091   3.82347   3.86092   3.86905   3.88875
 Alpha virt. eigenvalues --    3.90219   3.91412   3.94365   3.96431   3.97578
 Alpha virt. eigenvalues --    4.00108   4.01270   4.05895   4.44408   4.46565
 Alpha virt. eigenvalues --    4.49963   4.51182   4.53415   4.56651   4.63306
 Alpha virt. eigenvalues --    4.71417   4.73499   4.78574   4.82385   4.85863
 Alpha virt. eigenvalues --    4.86836   4.94949   4.96984   4.99690   5.02282
 Alpha virt. eigenvalues --    5.03996   5.05398   5.25037   5.29476   5.32896
 Alpha virt. eigenvalues --    5.36750   5.38773   5.61791   5.71844   9.70490
 Alpha virt. eigenvalues --    9.77924   9.81522   9.92983  10.02839  10.06100
 Alpha virt. eigenvalues --   10.09503  10.14200  10.21939  10.23531  10.24918
 Alpha virt. eigenvalues --   10.26559  10.27787  10.28821  10.29617  10.29814
 Alpha virt. eigenvalues --   10.31128  10.31408  10.33245  10.34084  10.36303
 Alpha virt. eigenvalues --   10.38461  10.39158  10.39649  10.42266  10.43962
 Alpha virt. eigenvalues --   10.44095  10.46285  10.49218  10.52033  10.58715
 Alpha virt. eigenvalues --   10.59406  10.65456  10.67431  10.68002  10.72049
 Alpha virt. eigenvalues --   10.76145  10.87507  12.67763  12.81455  13.16351
 Alpha virt. eigenvalues --   13.30037  13.32063  13.33857  13.42198  13.45475
 Alpha virt. eigenvalues --   13.47372  13.47821  13.49967  13.55571  13.66203
 Alpha virt. eigenvalues --   13.82287  13.86507  13.88088  13.89601  13.98223
 Alpha virt. eigenvalues --   14.11605  14.32815  14.35556  14.36700  17.48578
 Alpha virt. eigenvalues --   18.24402  18.32785  18.45656  18.47594  18.53731
 Alpha virt. eigenvalues --   18.56693  23.84184  24.05675  24.06749  24.10860
 Alpha virt. eigenvalues --   24.14039  35.75685  52.14421  52.19952  52.31319
 Alpha virt. eigenvalues --   69.77265 129.43761 137.81207 139.04897 139.70616
 Alpha virt. eigenvalues --  139.74289 139.75844 139.77619 470.86034
          Condensed to atoms (all electrons):
               1          2          3          4          5          6
     1  C    5.192630   0.320587   0.151254  -0.278470   0.103309   0.176620
     2  C    0.320587   4.877035   0.449394   0.099867  -0.136346   0.105196
     3  C    0.151254   0.449394   4.868091   0.317985   0.212601  -0.128827
     4  C   -0.278470   0.099867   0.317985   5.444202   0.068010   0.125242
     5  C    0.103309  -0.136346   0.212601   0.068010   5.185488   0.270007
     6  N    0.176620   0.105196  -0.128827   0.125242   0.270007   6.809637
     7  H   -0.001876  -0.013909   0.367933  -0.009899   0.001797   0.000362
     8  H    0.461310  -0.079637   0.021872  -0.010142   0.011015  -0.073526
     9  H   -0.018132   0.369193  -0.018470   0.008695  -0.004743   0.006305
    10  H    0.000767   0.003768  -0.012616   0.360451  -0.016753   0.005778
    11  H    0.018414  -0.015046   0.023502  -0.078594   0.445145  -0.071702
    12  P   -0.001689   0.000416  -0.000758   0.000783  -0.003445  -0.001224
    13  O    0.000185  -0.000161   0.000130  -0.001810   0.001077  -0.000393
    14  O    0.001162  -0.000864   0.000434  -0.002969   0.002346  -0.003802
    15  H   -0.000018   0.000011   0.000001  -0.000029  -0.000110   0.000208
    16  O   -0.002750   0.004049  -0.000982   0.002681  -0.002652   0.044336
    17  H    0.011766  -0.008731   0.001684  -0.004585   0.008190  -0.099549
    18  O   -0.000318   0.000237  -0.000083   0.000470  -0.000112   0.002103
    19  H    0.000002   0.000003  -0.000002   0.000020   0.000033  -0.000118
    20  O    0.000010  -0.000015   0.000018  -0.000340   0.000330  -0.000049
    21  H    0.000057  -0.000024   0.000015   0.000045  -0.000055  -0.000130
    22  H    0.000006  -0.000004  -0.000009  -0.000065  -0.000190   0.000087
    23  O    0.000005  -0.000004   0.000003  -0.000025  -0.000003   0.000002
    24  H   -0.000012   0.000008  -0.000004   0.000037  -0.000018   0.000035
    25  H   -0.000000  -0.000000   0.000000  -0.000001  -0.000003   0.000001
    26  O   -0.000025   0.000018  -0.000003   0.000011  -0.000038   0.000173
    27  H    0.000004  -0.000015   0.000003  -0.000015  -0.000003  -0.000033
    28  H    0.000006   0.000001  -0.000000   0.000003   0.000013  -0.000022
               7          8          9         10         11         12
     1  C   -0.001876   0.461310  -0.018132   0.000767   0.018414  -0.001689
     2  C   -0.013909  -0.079637   0.369193   0.003768  -0.015046   0.000416
     3  C    0.367933   0.021872  -0.018470  -0.012616   0.023502  -0.000758
     4  C   -0.009899  -0.010142   0.008695   0.360451  -0.078594   0.000783
     5  C    0.001797   0.011015  -0.004743  -0.016753   0.445145  -0.003445
     6  N    0.000362  -0.073526   0.006305   0.005778  -0.071702  -0.001224
     7  H    0.532518  -0.000293  -0.004718  -0.004802  -0.000288   0.000016
     8  H   -0.000293   0.539678  -0.002025   0.000100  -0.000022   0.000061
     9  H   -0.004718  -0.002025   0.531875  -0.000200   0.000105   0.000031
    10  H   -0.004802   0.000100  -0.000200   0.532108  -0.001580   0.000093
    11  H   -0.000288  -0.000022   0.000105  -0.001580   0.537490  -0.000705
    12  P    0.000016   0.000061   0.000031   0.000093  -0.000705   0.008254
    13  O   -0.000000   0.000018  -0.000000   0.000014  -0.000331  -0.001184
    14  O   -0.000000   0.000029   0.000000   0.000007   0.000625  -0.001028
    15  H    0.000000  -0.000002  -0.000000  -0.000000  -0.000007   0.000101
    16  O   -0.000005   0.000220  -0.000005  -0.000009  -0.000268  -0.002698
    17  H    0.000008   0.001107   0.000054   0.000061   0.001962   0.001888
    18  O    0.000000  -0.000014  -0.000000  -0.000001  -0.000124  -0.004522
    19  H   -0.000000   0.000001   0.000000   0.000000   0.000004   0.000457
    20  O   -0.000000   0.000000   0.000000   0.000002   0.000100   0.000068
    21  H   -0.000000   0.000000   0.000000  -0.000000  -0.000022   0.000066
    22  H    0.000000  -0.000000  -0.000000  -0.000001  -0.000031  -0.000004
    23  O   -0.000000  -0.000000  -0.000000   0.000000   0.000002   0.000036
    24  H    0.000000  -0.000000  -0.000000  -0.000000  -0.000006  -0.000114
    25  H    0.000000  -0.000000  -0.000000  -0.000000  -0.000000   0.000003
    26  O    0.000000  -0.000000  -0.000000  -0.000000  -0.000004  -0.000377
    27  H   -0.000000  -0.000001   0.000000   0.000000   0.000000   0.000091
    28  H   -0.000000   0.000000   0.000000   0.000000   0.000001   0.000041
              13         14         15         16         17         18
     1  C    0.000185   0.001162  -0.000018  -0.002750   0.011766  -0.000318
     2  C   -0.000161  -0.000864   0.000011   0.004049  -0.008731   0.000237
     3  C    0.000130   0.000434   0.000001  -0.000982   0.001684  -0.000083
     4  C   -0.001810  -0.002969  -0.000029   0.002681  -0.004585   0.000470
     5  C    0.001077   0.002346  -0.000110  -0.002652   0.008190  -0.000112
     6  N   -0.000393  -0.003802   0.000208   0.044336  -0.099549   0.002103
     7  H   -0.000000  -0.000000   0.000000  -0.000005   0.000008   0.000000
     8  H    0.000018   0.000029  -0.000002   0.000220   0.001107  -0.000014
     9  H   -0.000000   0.000000  -0.000000  -0.000005   0.000054  -0.000000
[...]
     7  H    0.000000
     8  H    0.000000
     9  H    0.000000
    10  H    0.000000
    11  H    0.000000
    12  P    0.000000
    13  O    0.000000
    14  O    0.000000
    15  H    0.000000
    16  O    0.000000
    17  H    0.000000
    18  O    0.000000
    19  H    0.000000
    20  O    0.000000
    21  H    0.000000
    22  H    0.000000
    23  O   -0.557514
    24  H    0.280626
    25  H    0.276887
    26  O    0.000000
    27  H    0.000000
    28  H    0.000000
 Sum of Mulliken charges =  -0.00000
 Mulliken charges with hydrogens summed into heavy atoms:
               1
     1  C    0.000000
     2  C    0.000000
     3  C    0.000000
     4  C    0.000000
     5  C    0.000000
     6  N    0.000000
    12  P    0.000000
    13  O    0.000000
    14  O    0.000000
    16  O    0.000000
    18  O    0.000000
    20  O    0.000000
    23  O   -0.000000
    26  O    0.000000
         Mulliken charges condensed to fragments:
      1      0.000000
      2      0.000000
      3      0.000000
      4     -0.000000
      5      0.000000
 Electronic spatial extent (au):  <R**2>=           4852.8644
 Charge=             -0.0000 electrons
 Dipole moment (field-independent basis, Debye):
    X=              1.2268    Y=             -0.0509    Z=             -1.7168  Tot=              2.1107
 Quadrupole moment (field-independent basis, Debye-Ang):
   XX=             16.1453   YY=             -7.2930   ZZ=            -18.9362
   XY=              8.8305   XZ=            -10.3231   YZ=            -10.4598
 Traceless Quadrupole moment (field-independent basis, Debye-Ang):
   XX=             19.5066   YY=             -3.9317   ZZ=            -15.5749
   XY=              8.8305   XZ=            -10.3231   YZ=            -10.4598
 Octapole moment (field-independent basis, Debye-Ang**2):
  XXX=            141.0272  YYY=           -135.9590  ZZZ=           -141.7320  XYY=              4.3293
  XXY=            124.6460  XXZ=            -69.3728  XZZ=           -148.7353  YZZ=           -117.6610
  YYZ=            -88.7306  XYZ=            -56.1690
 Hexadecapole moment (field-independent basis, Debye-Ang**3):
 XXXX=            799.8728 YYYY=          -1749.4193 ZZZZ=           -897.3081 XXXY=           1203.7375
 XXXZ=           -603.9793 YYYX=           -699.6634 YYYZ=           -876.6289 ZZZX=          -1182.8062
 ZZZY=           -892.0268 XXYY=            417.5702 XXZZ=          -1232.0976 YYZZ=           -828.1965
 XXYZ=           -310.1732 YYXZ=           -517.5850 ZZXY=           -901.5074
 N-N= 9.109667024597D+00 E-N=-1.990721267161D+02  KE= 7.619793202953D+01
 No NMR shielding tensors so no spin-rotation constants.
 Leave Link  601 at Thu Dec 15 15:54:15 2022, MaxMem=  1342177280 cpu:               1.8 elap:               0.1
 (Enter /data0/home/software/g16/l122.exe)
 CPIOFr:  IOpCl= 0 IRwI=-1 IRwCP=  731 ICalc=  9 LCPTot=      340243 Len1MO=      893396 IndFrg=     9274203
 Counterpoise: doing calculation for fragment   5 using the basis set of the fragment.
 Leave Link  122 at Thu Dec 15 15:54:15 2022, MaxMem=  1342177280 cpu:               0.2 elap:               0.0
 (Enter /data0/home/software/g16/l301.exe)
 Basis read from rwf:  (5D, 7F)
 No pseudopotential information found on rwf file.
    39 basis functions,    58 primitive gaussians,    41 cartesian basis functions
     5 alpha electrons        5 beta electrons
       nuclear repulsion energy         9.0884278623 Hartrees.
 IExCor= 4336 DFT=T Ex+Corr=M062X ExCW=0 ScaHFX=  0.540000
 ScaDFX=  1.000000  1.000000  1.000000  1.000000 ScalE2=  1.000000  1.000000
 IRadAn=      5 IRanWt=     -1 IRanGd=            0 ICorTp=0 IEmpDi=131
 NAtoms=   28 NActive=    3 NUniq=    3 SFac= 1.00D+00 NAtFMM=   60 NAOKFM=F Big=F
 Integral buffers will be    131072 words long.
 Raffenetti 2 integral format.
 Two-electron integral symmetry is turned off.
 R6Disp:  Grimme-D3 Dispersion energy=       -0.0000000079 Hartrees.
 Nuclear repulsion after empirical dispersion term =        9.0884278544 Hartrees.
 No density basis found on file   718.
 Leave Link  301 at Thu Dec 15 15:54:16 2022, MaxMem=  1342177280 cpu:               1.2 elap:               0.1
 (Enter /data0/home/software/g16/l302.exe)
 NPDir=0 NMtPBC=     1 NCelOv=     1 NCel=       1 NClECP=     1 NCelD=      1
         NCelK=      1 NCelE2=     1 NClLst=     1 CellRange=     0.0.
 One-electron integrals computed using PRISM.
 NBasis=    39 RedAO= T EigKep=  3.07D-03  NBF=    39
 NBsUse=    39 1.00D-06 EigRej= -1.00D+00 NBFU=    39
 Precomputing XC quadrature grid using
 IXCGrd= 4 IRadAn=           5 IRanWt=          -1 IRanGd=           0 AccXCQ= 0.00D+00.
 Generated NRdTot=       0 NPtTot=           0 NUsed=           0 NTot=          32
 NSgBfM=    41    41    41    41    41 MxSgAt=     3 MxSgA2=     3.
 Leave Link  302 at Thu Dec 15 15:54:16 2022, MaxMem=  1342177280 cpu:               2.3 elap:               0.1
 (Enter /data0/home/software/g16/l303.exe)
 DipDrv:  MaxL=1.
 Leave Link  303 at Thu Dec 15 15:54:16 2022, MaxMem=  1342177280 cpu:               0.4 elap:               0.0
 (Enter /data0/home/software/g16/l401.exe)
 ExpMin= 8.45D-02 ExpMax= 8.59D+03 ExpMxC= 1.30D+03 IAcc=3 IRadAn=         5 AccDes= 0.00D+00
 Harris functional with IExCor= 1009 and IRadAn=       5 diagonalized for initial guess.
 HarFok:  IExCor= 1009 AccDes= 0.00D+00 IRadAn=         5 IDoV= 1 UseB2=F ITyADJ=14
 ICtDFT=  3500011 ScaDFX=  1.000000  1.000000  1.000000  1.000000
 FoFCou: FMM=F IPFlag=           0 FMFlag=      100000 FMFlg1=           0
         NFxFlg=           0 DoJE=T BraDBF=F KetDBF=T FulRan=T
         wScrn=  0.000000 ICntrl=       500 IOpCl=  0 I1Cent=   200000004 NGrid=           0
         NMat0=    1 NMatS0=      1 NMatT0=    0 NMatD0=    1 NMtDS0=    0 NMtDT0=    0
 Symmetry not used in FoFCou.
 Harris En= -76.4164245850557    
 JPrj=0 DoOrth=F DoCkMO=F.
 Leave Link  401 at Thu Dec 15 15:54:16 2022, MaxMem=  1342177280 cpu:               2.8 elap:               0.1
 (Enter /data0/home/software/g16/l502.exe)
 Keep R1 ints in memory in canonical form, NReq=21041397.
 FoFCou: FMM=F IPFlag=           0 FMFlag=           0 FMFlg1=           0
         NFxFlg=           0 DoJE=F BraDBF=F KetDBF=F FulRan=T
         wScrn=  0.000000 ICntrl=       600 IOpCl=  0 I1Cent=           0 NGrid=           0
         NMat0=    1 NMatS0=    780 NMatT0=    0 NMatD0=    1 NMtDS0=    0 NMtDT0=    0
 Symmetry not used in FoFCou.
 Two-electron integral symmetry not used.
 Closed shell SCF:
 Using DIIS extrapolation, IDIIS=  1040.
 NGot=  1342177280 LenX=  1341867099 LenY=  1341864977
 Requested convergence on RMS density matrix=1.00D-08 within 128 cycles.
 Requested convergence on MAX density matrix=1.00D-06.
 Requested convergence on             energy=1.00D-06.
 No special actions if energy rises.
 Integral accuracy reduced to 1.0D-05 until final iterations.

 Cycle   1  Pass 0  IDiag  1:
 E= -76.3464619163070    
 DIIS: error= 7.00D-02 at cycle   1 NSaved=   1.
 NSaved= 1 IEnMin= 1 EnMin= -76.3464619163070     IErMin= 1 ErrMin= 7.00D-02
 ErrMax= 7.00D-02  0.00D+00 EMaxC= 1.00D-01 BMatC= 1.20D-01 BMatP= 1.20D-01
 IDIUse=3 WtCom= 3.00D-01 WtEn= 7.00D-01
 Coeff-Com:  0.100D+01
 Coeff-En:   0.100D+01
 Coeff:      0.100D+01
 Gap=     0.325 Goal=   None    Shift=    0.000
 GapD=    0.325 DampG=1.000 DampE=0.500 DampFc=0.5000 IDamp=-1.
 Damping current iteration by 5.00D-01
 RMSDP=7.90D-03 MaxDP=1.01D-01              OVMax= 1.68D-01

 Cycle   2  Pass 0  IDiag  1:
 E= -76.3777916393247     Delta-E=       -0.031329723018 Rises=F Damp=T
 DIIS: error= 1.14D-02 at cycle   2 NSaved=   2.
 NSaved= 2 IEnMin= 2 EnMin= -76.3777916393247     IErMin= 2 ErrMin= 1.14D-02
 ErrMax= 1.14D-02  0.00D+00 EMaxC= 1.00D-01 BMatC= 4.85D-03 BMatP= 1.20D-01
 IDIUse=3 WtCom= 8.86D-01 WtEn= 1.14D-01
 Coeff-Com:  0.829D-01 0.917D+00
 Coeff-En:   0.188D+00 0.812D+00
 Coeff:      0.949D-01 0.905D+00
 Gap=     0.457 Goal=   None    Shift=    0.000
 RMSDP=9.43D-04 MaxDP=1.40D-02 DE=-3.13D-02 OVMax= 1.00D-01

 Cycle   3  Pass 0  IDiag  1:
 E= -76.4216718896394     Delta-E=       -0.043880250315 Rises=F Damp=F
 DIIS: error= 2.18D-03 at cycle   3 NSaved=   3.
 NSaved= 3 IEnMin= 3 EnMin= -76.4216718896394     IErMin= 3 ErrMin= 2.18D-03
 ErrMax= 2.18D-03  0.00D+00 EMaxC= 1.00D-01 BMatC= 9.18D-05 BMatP= 4.85D-03
 IDIUse=3 WtCom= 9.78D-01 WtEn= 2.18D-02
 Coeff-Com: -0.200D-01 0.401D-01 0.980D+00
 Coeff-En:   0.000D+00 0.000D+00 0.100D+01
 Coeff:     -0.195D-01 0.392D-01 0.980D+00
 Gap=     0.461 Goal=   None    Shift=    0.000
 RMSDP=1.15D-04 MaxDP=1.06D-03 DE=-4.39D-02 OVMax= 3.32D-03

 Cycle   4  Pass 0  IDiag  1:
 E= -76.4217501360770     Delta-E=       -0.000078246438 Rises=F Damp=F
 DIIS: error= 4.15D-04 at cycle   4 NSaved=   4.
 NSaved= 4 IEnMin= 4 EnMin= -76.4217501360770     IErMin= 4 ErrMin= 4.15D-04
 ErrMax= 4.15D-04  0.00D+00 EMaxC= 1.00D-01 BMatC= 3.34D-06 BMatP= 9.18D-05
 IDIUse=3 WtCom= 9.96D-01 WtEn= 4.15D-03
 Coeff-Com: -0.195D-02-0.217D-02 0.164D+00 0.840D+00
 Coeff-En:   0.000D+00 0.000D+00 0.000D+00 0.100D+01
 Coeff:     -0.194D-02-0.216D-02 0.163D+00 0.841D+00
 Gap=     0.462 Goal=   None    Shift=    0.000
 RMSDP=2.22D-05 MaxDP=3.54D-04 DE=-7.82D-05 OVMax= 5.37D-04

 Cycle   5  Pass 0  IDiag  1:
 E= -76.4217521929044     Delta-E=       -0.000002056827 Rises=F Damp=F
 DIIS: error= 8.99D-05 at cycle   5 NSaved=   5.
 NSaved= 5 IEnMin= 5 EnMin= -76.4217521929044     IErMin= 5 ErrMin= 8.99D-05
 ErrMax= 8.99D-05  0.00D+00 EMaxC= 1.00D-01 BMatC= 8.38D-08 BMatP= 3.34D-06
 IDIUse=1 WtCom= 1.00D+00 WtEn= 0.00D+00
 Coeff-Com:  0.118D-02-0.180D-02-0.367D-01-0.682D-01 0.111D+01
 Coeff:      0.118D-02-0.180D-02-0.367D-01-0.682D-01 0.111D+01
 Gap=     0.462 Goal=   None    Shift=    0.000
 RMSDP=9.04D-06 MaxDP=1.03D-04 DE=-2.06D-06 OVMax= 2.04D-04

 Initial convergence to 1.0D-05 achieved.  Increase integral accuracy.
 Cycle   6  Pass 1  IDiag  1:
 E= -76.4217496991703     Delta-E=        0.000002493734 Rises=F Damp=F
 DIIS: error= 2.19D-05 at cycle   1 NSaved=   1.
 NSaved= 1 IEnMin= 1 EnMin= -76.4217496991703     IErMin= 1 ErrMin= 2.19D-05
 ErrMax= 2.19D-05  0.00D+00 EMaxC= 1.00D-01 BMatC= 1.72D-08 BMatP= 1.72D-08
 IDIUse=1 WtCom= 1.00D+00 WtEn= 0.00D+00
 Coeff-Com:  0.100D+01
 Coeff:      0.100D+01
 Gap=     0.462 Goal=   None    Shift=    0.000
 RMSDP=9.04D-06 MaxDP=1.03D-04 DE= 2.49D-06 OVMax= 3.99D-05

 Cycle   7  Pass 1  IDiag  1:
 E= -76.4217497115593     Delta-E=       -0.000000012389 Rises=F Damp=F
 DIIS: error= 5.24D-06 at cycle   2 NSaved=   2.
 NSaved= 2 IEnMin= 2 EnMin= -76.4217497115593     IErMin= 2 ErrMin= 5.24D-06
 ErrMax= 5.24D-06  0.00D+00 EMaxC= 1.00D-01 BMatC= 5.05D-10 BMatP= 1.72D-08
 IDIUse=1 WtCom= 1.00D+00 WtEn= 0.00D+00
 Coeff-Com: -0.203D-01 0.102D+01
 Coeff:     -0.203D-01 0.102D+01
 Gap=     0.462 Goal=   None    Shift=    0.000
 RMSDP=5.39D-07 MaxDP=8.39D-06 DE=-1.24D-08 OVMax= 1.29D-05

 Cycle   8  Pass 1  IDiag  1:
 E= -76.4217497116346     Delta-E=       -0.000000000075 Rises=F Damp=F
 DIIS: error= 4.88D-06 at cycle   3 NSaved=   3.
 NSaved= 3 IEnMin= 3 EnMin= -76.4217497116346     IErMin= 3 ErrMin= 4.88D-06
 ErrMax= 4.88D-06  0.00D+00 EMaxC= 1.00D-01 BMatC= 5.41D-10 BMatP= 5.05D-10
 IDIUse=1 WtCom= 1.00D+00 WtEn= 0.00D+00
 Coeff-Com: -0.376D-01 0.536D+00 0.502D+00
 Coeff:     -0.376D-01 0.536D+00 0.502D+00
 Gap=     0.462 Goal=   None    Shift=    0.000
 RMSDP=2.62D-07 MaxDP=3.67D-06 DE=-7.53D-11 OVMax= 6.05D-06

 Cycle   9  Pass 1  IDiag  1:
 E= -76.4217497119862     Delta-E=       -0.000000000352 Rises=F Damp=F
 DIIS: error= 4.29D-07 at cycle   4 NSaved=   4.
 NSaved= 4 IEnMin= 4 EnMin= -76.4217497119862     IErMin= 4 ErrMin= 4.29D-07
 ErrMax= 4.29D-07  0.00D+00 EMaxC= 1.00D-01 BMatC= 2.89D-12 BMatP= 5.05D-10
 IDIUse=1 WtCom= 1.00D+00 WtEn= 0.00D+00
 Coeff-Com:  0.170D-02-0.554D-01 0.650D-02 0.105D+01
 Coeff:      0.170D-02-0.554D-01 0.650D-02 0.105D+01
 Gap=     0.462 Goal=   None    Shift=    0.000
 RMSDP=5.76D-08 MaxDP=4.43D-07 DE=-3.52D-10 OVMax= 1.10D-06

 Cycle  10  Pass 1  IDiag  1:
 E= -76.4217497119907     Delta-E=       -0.000000000004 Rises=F Damp=F
 DIIS: error= 5.19D-08 at cycle   5 NSaved=   5.
 NSaved= 5 IEnMin= 5 EnMin= -76.4217497119907     IErMin= 5 ErrMin= 5.19D-08
 ErrMax= 5.19D-08  0.00D+00 EMaxC= 1.00D-01 BMatC= 1.16D-13 BMatP= 2.89D-12
 IDIUse=1 WtCom= 1.00D+00 WtEn= 0.00D+00
 Coeff-Com:  0.145D-02-0.241D-01-0.188D-01 0.761D-01 0.965D+00
 Coeff:      0.145D-02-0.241D-01-0.188D-01 0.761D-01 0.965D+00
 Gap=     0.462 Goal=   None    Shift=    0.000
 RMSDP=1.64D-08 MaxDP=1.53D-07 DE=-4.49D-12 OVMax= 3.13D-07

 Cycle  11  Pass 1  IDiag  1:
 E= -76.4217497119910     Delta-E=       -0.000000000000 Rises=F Damp=F
 DIIS: error= 9.57D-09 at cycle   6 NSaved=   6.
 NSaved= 6 IEnMin= 6 EnMin= -76.4217497119910     IErMin= 6 ErrMin= 9.57D-09
 ErrMax= 9.57D-09  0.00D+00 EMaxC= 1.00D-01 BMatC= 5.32D-15 BMatP= 1.16D-13
 IDIUse=1 WtCom= 1.00D+00 WtEn= 0.00D+00
 Coeff-Com:  0.600D-04 0.715D-03-0.229D-02-0.579D-01 0.258D-01 0.103D+01
 Coeff:      0.600D-04 0.715D-03-0.229D-02-0.579D-01 0.258D-01 0.103D+01
 Gap=     0.462 Goal=   None    Shift=    0.000
 RMSDP=4.19D-09 MaxDP=4.54D-08 DE=-3.41D-13 OVMax= 7.88D-08

 SCF Done:  E(RM062X) =  -76.4217497120     A.U. after   11 cycles
            NFock= 11  Conv=0.42D-08     -V/T= 2.0030
 KE= 7.618986542496D+01 PE=-1.990260716404D+02 EE= 3.732602864908D+01
 Leave Link  502 at Thu Dec 15 15:54:16 2022, MaxMem=  1342177280 cpu:               8.6 elap:               0.4
 (Enter /data0/home/software/g16/l601.exe)
 Copying SCF densities to generalized density rwf, IOpCl= 0 IROHF=0.

 **********************************************************************

            Population analysis using the SCF density.

 **********************************************************************

 Alpha  occ. eigenvalues --  -19.62623  -1.13270  -0.60700  -0.47471  -0.39969
 Alpha virt. eigenvalues --    0.06239   0.13297   0.17402   0.17949   0.18930
 Alpha virt. eigenvalues --    0.23292   0.51020   0.53297   0.97956   1.00258
 Alpha virt. eigenvalues --    1.06033   1.18519   1.19865   1.32382   1.33968
 Alpha virt. eigenvalues --    1.69576   1.74058   1.75626   2.07581   2.09195
 Alpha virt. eigenvalues --    2.35453   2.41553   2.54365   2.88158   3.00883
 Alpha virt. eigenvalues --    5.05660   5.47690   5.91857   6.78297   6.80262
 Alpha virt. eigenvalues --    6.87153   6.91454   7.09691  49.95636
          Condensed to atoms (all electrons):
              26         27         28
    26  O    7.917405   0.321466   0.318440
    27  H    0.321466   0.425502  -0.024271
    28  H    0.318440  -0.024271   0.425824
 Mulliken charges:
               1
     1  C    0.000000
     2  C    0.000000
     3  C    0.000000
     4  C    0.000000
     5  C    0.000000
     6  N    0.000000
     7  H    0.000000
     8  H    0.000000
     9  H    0.000000
    10  H    0.000000
    11  H    0.000000
    12  P    0.000000
    13  O    0.000000
    14  O    0.000000
    15  H    0.000000
    16  O    0.000000
    17  H    0.000000
    18  O    0.000000
    19  H    0.000000
    20  O    0.000000
    21  H    0.000000
    22  H    0.000000
    23  O    0.000000
    24  H    0.000000
    25  H    0.000000
    26  O   -0.557310
    27  H    0.277303
    28  H    0.280007
 Sum of Mulliken charges =  -0.00000
 Mulliken charges with hydrogens summed into heavy atoms:
               1
     1  C    0.000000
     2  C    0.000000
     3  C    0.000000
     4  C    0.000000
     5  C    0.000000
     6  N    0.000000
    12  P    0.000000
    13  O    0.000000
    14  O    0.000000
    16  O    0.000000
    18  O    0.000000
    20  O    0.000000
    23  O    0.000000
    26  O   -0.000000
         Mulliken charges condensed to fragments:
      1      0.000000
      2      0.000000
      3      0.000000
      4      0.000000
      5     -0.000000
 Electronic spatial extent (au):  <R**2>=           5064.7882
 Charge=             -0.0000 electrons
 Dipole moment (field-independent basis, Debye):
    X=             -0.3867    Y=              2.0810    Z=             -0.0088  Tot=              2.1167
 Quadrupole moment (field-independent basis, Debye-Ang):
   XX=            -14.7141   YY=             13.8598   ZZ=             -4.4846
   XY=             16.7546   XZ=             -2.2709   YZ=             12.3355
 Traceless Quadrupole moment (field-independent basis, Debye-Ang):
   XX=            -12.9345   YY=             15.6394   ZZ=             -2.7050
   XY=             16.7546   XZ=             -2.2709   YZ=             12.3355
 Octapole moment (field-independent basis, Debye-Ang**2):
  XXX=           -305.2635  YYY=             55.7967  ZZZ=            -79.1673  XYY=            114.0775
  XXY=             95.6188  XXZ=            -86.3069  XZZ=            -53.3389  YZZ=             53.1787
  YYZ=             82.1943  XYZ=             99.8393
 Hexadecapole moment (field-independent basis, Debye-Ang**3):
 XXXX=          -4973.7131 YYYY=             68.4157 ZZZZ=           -945.3782 XXXY=             18.0048
 XXXZ=          -1796.5480 YYYX=            442.3487 YYYZ=            330.3437 ZZZX=           -792.8157
 ZZZY=             77.2312 XXYY=            747.7375 XXZZ=           -874.0983 YYZZ=            395.0933
 XXYZ=            575.3264 YYXZ=            679.2671 ZZXY=            412.5958
 N-N= 9.088427854409D+00 E-N=-1.990260716458D+02  KE= 7.618986542496D+01
 No NMR shielding tensors so no spin-rotation constants.
 Leave Link  601 at Thu Dec 15 15:54:16 2022, MaxMem=  1342177280 cpu:               1.8 elap:               0.1
 (Enter /data0/home/software/g16/l122.exe)
 CPIOFr:  IOpCl= 0 IRwI=-1 IRwCP=  731 ICalc= 10 LCPTot=      340243 Len1MO=      893396 IndFrg=    10167599
 Restoring MOs from calculation   1 to rwf.
 CPIOFr:  IOpCl= 0 IRwI=-2 IRwCP=  731 ICalc=  0 LCPTot=      340243 Len1MO=      893396 IndFrg=     1233639
 Counterpoise corrected energy =   -1121.745269976506
                   BSSE energy =       0.005712965026
              sum of fragments =   -1121.659427049798
           complexation energy =     -57.45 kcal/mole (raw)
           complexation energy =     -53.87 kcal/mole (corrected)
 Leave Link  122 at Thu Dec 15 15:54:16 2022, MaxMem=  1342177280 cpu:               0.4 elap:               0.0
 (Enter /data0/home/software/g16/l9999.exe)
 1\1\GINC-LOCALHOST\SP\RM062X\6-311+G(2d,p)\C5H14N1O7P1\WUHANYU\15-Dec-
 2022\0\\#p M062X/6-311+G(2d,p) nosymm em=GD3 counterpoise=5\\Title Car
 d Required\\0,1\C,0,12.290676,9.200288,9.500115\C,0,12.883021,10.37909
 1,9.966227\C,0,13.938821,10.926907,9.238544\C,0,14.36965,10.290025,8.0
 77426\C,0,13.723931,9.112586,7.676659\N,0,12.703638,8.582238,8.376735\
 H,0,14.421426,11.843907,9.576385\H,0,11.458977,8.721957,10.030335\H,0,
 12.526343,10.853914,10.875393\H,0,15.191258,10.691651,7.491061\H,0,14.
 027041,8.567609,6.768997\P,0,12.638642,5.4428,6.381676\O,0,13.070413,6
 .401,5.362707\O,0,13.91517,4.816378,7.095938\H,0,13.600535,4.055842,7.
 712065\O,0,11.7049,6.020409,7.531657\H,0,12.060355,6.963626,7.837443\O
 ,0,11.832608,4.167941,5.898838\H,0,10.800121,4.377383,5.933475\O,0,11.
 30381,7.657134,3.378717\H,0,11.930852,7.133101,3.908484\H,0,11.331639,
 8.524474,3.781223\O,0,8.836836,6.5088,3.818537\H,0,9.707202,6.935049,3
 .682691\H,0,8.659386,6.058741,2.996304\O,0,9.096724,4.7561,5.954467\H,
 0,9.013434,5.337554,6.713238\H,0,8.962606,5.343504,5.18467\\Version=ES
 64L-G16RevA.03\HF=-76.4217497\RMSD=4.193e-09\Dipole=0.3091957,2.09798,
 1.86562\Quadrupole=-31.7841045,21.4273202,10.3567843,56.3027884,49.747
 0443,55.6030053\PG=C01 [X(C5H14N1O7P1)]\\@


 GETTING A SIMPLE ANSWER FROM A PROFESSOR IS LIKE
 GETTING A THIMBLE OF WATER FROM A FIRE HYDRANT.
     -- PROF. LEN SHAPIRO, NDSU
 Job cpu time:       0 days  1 hours 45 minutes 11.9 seconds.
 Elapsed time:       0 days  0 hours  4 minutes 29.9 seconds.
 File lengths (MBytes):  RWF=    220 Int=      0 D2E=      0 Chk=     91 Scr=      1
 Normal termination of Gaussian 16 at Thu Dec 15 15:54:17 2022.
