          41
 G =       -0.578791 Gcorr = 0.219198 a.u. Nimag =   0 Frame:     1 Step:     1 Geom:     1
C          10.42050600     11.84584900      8.42494800
C          11.40248100     11.17974700      7.69600500
C          11.25491700      9.82030600      7.39295600
C          10.11020000      9.13544200      7.81603700
C           9.12860000      9.84260000      8.54864100
H          12.06085500      9.28514600      6.87318900
H          10.53551600     12.89622800      8.71657100
H          12.31223000     11.71473500      7.40296000
H           8.24104900      9.31582200      8.97027500
C           9.92431700      7.68120500      7.58933400
H           9.73822500      7.16475000      8.56221800
H           9.06182400      7.45800100      6.94703900
H          10.80574900      7.19541000      7.14964600
N           9.29236800     11.16805900      8.83871600
C           8.27413200     11.86976000      9.68272100
H           7.95062600     12.79913600      9.16736500
H           7.36707100     11.20721000      9.76211400
C           8.82656200     12.17236900     11.08838700
H           9.75884100     11.56713400     11.28706900
H           9.17396800     13.22376000     11.13489500
C           7.79665100     11.92512300     12.17871200
H           6.83595700     12.42651900     11.94804300
H           8.13052900     12.42566600     13.11430700
S           7.53970000     10.19463000     12.50357000
O           7.64021900      9.52279400     11.08174900
O           6.21753100     10.05721600     13.06396700
O           8.69179300      9.71286500     13.28295300
P          11.01290400      8.79494300     11.18485100
O          11.21128300     10.26327700     10.82071000
O          12.25202700      7.89761900     10.64234800
H          12.56297000      8.09821000      9.65328000
O          11.04186600      8.51408600     12.77621700
H          10.19890400      8.83876300     13.30411600
O           9.69708100      8.21368800     10.53559300
H           8.61299300      8.67998900     10.90121500
O          13.49030500     11.01768800      9.83056400
H          12.52709000     10.88675300     10.19990100
H          14.03968300     10.96548500     10.61113300
O          13.52740800      8.75737900      8.55086400
H          14.34765400      8.29285200      8.71466000
H          13.65543900      9.69180800      8.97017600
          41
 G =       -0.583681 Gcorr = 0.231125 a.u. Nimag =   0 Frame:     2 Step:     2 Geom:     2
C          10.72427300     11.24840600      8.47558200
C          11.50988300     10.28999200      7.83931800
C          10.98215100      9.02658800      7.57287200
C           9.67356000      8.73690000      7.96157600
C           8.90378000      9.73796100      8.57629300
H          11.60117800      8.25794600      7.10815200
H          11.13404600     12.22609700      8.75808500
H          12.55033900     10.52756400      7.60217000
H           7.87476400      9.52926600      8.94451000
C           9.10014200      7.37870500      7.80193300
H           9.49760300      6.84131700      6.93196300
H           9.34587000      6.76475800      8.69833700
H           8.00397700      7.37476800      7.72444600
N           9.42723300     10.97007200      8.79849900
C           8.58634800     12.03495900      9.39675900
H           8.59381700     12.90834300      8.70751200
H           7.52655600     11.67579200      9.44119300
C           9.06428100     12.45072600     10.80276300
H           9.98487400     11.89134100     11.09323400
H           9.38334000     13.51183800     10.78207600
C           7.98537600     12.26202800     11.85825000
H           7.03071700     12.71981400     11.55449700
H           8.27475900     12.77981700     12.79267500
S           7.69281500     10.51472100     12.28779900
O           7.91893400      9.78217100     10.98282200
O           6.32220500     10.46942000     12.77144500
O           8.76561500     10.18325500     13.25809700
P          11.23187400      8.82670900     11.26461700
O          11.48370900     10.06296700     10.47222400
O          12.35419600      7.70588800     11.10782600
H          13.17557400      8.15902400     10.64938500
O          11.16417700      9.03629500     12.81612800
H          10.19439200      9.48411500     13.04517200
O           9.95099800      8.05577300     10.75299000
H           9.09486000      8.71640000     10.89072200
O          13.66606500     11.49823700      9.68999000
H          12.87904400     11.00782400     10.02853800
H          14.03307200     11.92073000     10.46455300
O          14.69694500      8.87012300      9.69508000
H          14.80706700      8.62388100      8.78294900
H          14.43960800      9.80748500      9.67698200
          41
 G =       -0.578751 Gcorr = 0.219238 a.u. Nimag =   0 Frame:     3 Step:     3 Geom:     3
C          10.30262000     11.91603200      8.45175800
C          11.26751700     11.31665000      7.64581900
C          11.16076200      9.96181800      7.30777800
C          10.07323400      9.21400100      7.77349900
C           9.10750000      9.85421800      8.58429300
H          11.95694400      9.47878300      6.72555200
H          10.38964100     12.96133800      8.77006600
H          12.13436900     11.90056500      7.31823900
H           8.26983500      9.27592400      9.03925900
C           9.93659800      7.76062800      7.50969100
H           9.04819300      7.51892000      6.91082100
H          10.81070800      7.32815400      7.00463100
H           9.82959900      7.20666700      8.47388700
N           9.23130200     11.17636300      8.90778300
C           8.23558800     11.80583400      9.83181900
H           7.84414000     12.73619000      9.36799200
H           7.36317900     11.10214900      9.93992900
C           8.85586500     12.08729800     11.21344500
H           9.82315400     11.51834100     11.33736300
H           9.15976500     13.15118600     11.27657500
C           7.90298400     11.75887900     12.35134500
H           6.90960800     12.22334200     12.19325100
H           8.26881600     12.24381500     13.28318600
S           7.74077300     10.00896500     12.63028300
O           7.78867500      9.38806800     11.18308300
O           6.46018000      9.79397300     13.25891300
O           8.95552800      9.55553700     13.32722400
P          11.18833600      8.80894800     11.07201500
O          11.29889800     10.29499400     10.74447100
O          12.43282800      7.98683800     10.43127700
H          12.67394900      8.22837500      9.43219800
O          11.32300100      8.48270800     12.64929000
H          10.49888100      8.75273500     13.23474900
O           9.86397600      8.18619000     10.48083200
H           8.78432600      8.59346500     10.92016100
O          13.48023700     11.18261000      9.64987800
H          12.54725200     10.99604900     10.06985500
H          14.07644400     11.13329500     10.39587900
O          13.54134100      8.96531300      8.29723200
H          14.38948300      8.53374500      8.39596300
H          13.65398900      9.89112000      8.73873700
          41
 G =       -0.574764 Gcorr = 0.221207 a.u. Nimag =   0 Frame:     4 Step:     4 Geom:     4
C          10.43050000     11.11846900      7.93805300
C          11.13705200     10.15632600      7.20251600
C          10.65340800      8.85426700      7.10661300
C           9.44559600      8.51114400      7.74537100
C           8.73583500      9.51161300      8.43202700
H          11.23169500      8.08808300      6.58225600
H          10.83816300     12.12462600      8.09865300
H          12.10042600     10.42884000      6.76059500
H           7.81253800      9.27062000      8.99496900
C           8.95890900      7.11117200      7.79999900
H           9.42505600      6.45334600      7.05621100
H           9.21974200      6.69239800      8.80391300
H           7.87060700      7.01779200      7.69657700
N           9.22639500     10.79341700      8.51472900
C           8.47221100     11.81216100      9.31551800
H           8.23585200     12.67565400      8.65502600
H           7.49242500     11.36235100      9.62120800
C           9.25328700     12.27209100     10.55975200
H          10.21347600     11.68011800     10.67170700
H           9.60647400     13.31203800     10.40788300
C           8.43375200     12.19622100     11.83850300
H           7.42848000     12.64358900     11.69818100
H           8.90002700     12.85718000     12.60382900
S           8.30397500     10.55274600     12.48938200
O           8.09529300      9.65048800     11.17311100
O           7.12066300     10.50314700     13.30730100
O           9.59346500     10.16517600     13.05795700
P          11.40104800      8.95439200     10.58132200
O          11.47838800     10.38469700     10.04194600
O          12.57480600      8.08991700      9.87365500
H          13.41228300      8.70837800      9.55191500
O          11.91946100      9.03098100     12.15777700
H          11.19269400      9.22035400     12.84985500
O          10.05100400      8.22257500     10.47838800
H           8.93095400      8.84846600     10.96553200
O          14.20658600     10.05848700     12.11631600
H          13.34927900     10.45881300     12.35178700
H          14.07788900      9.11399500     12.30131000
O          14.01080500     10.16028700      9.46576700
H          13.16565800     10.69755200      9.55894500
H          14.45386000     10.25605300     10.35366200
          41
 G =       -0.578784 Gcorr = 0.219205 a.u. Nimag =   0 Frame:     5 Step:     5 Geom:     5
C          10.27612100     11.91363600      8.48987800
C          11.22621500     11.31974700      7.66276700
C          11.12258700      9.96289500      7.33135000
C          10.05314000      9.20762000      7.82569200
C           9.10162400      9.84246800      8.65742600
H          11.90833500      9.48492900      6.73112800
H          10.36219400     12.96049400      8.80334900
H          12.08021400     11.90954900      7.31272500
H           8.27994900      9.25880900      9.13402300
C           9.92273700      7.75201300      7.57074900
H           9.02101100      7.50008500      6.99656200
H          10.78697400      7.32549500      7.04413500
H           9.84651300      7.20109600      8.53957900
N           9.22199300     11.16665800      8.97355000
C           8.24324600     11.79118200      9.91886900
H           7.83174800     12.71547800      9.46027500
H           7.38055100     11.07968600     10.05155300
C           8.89416800     12.08529100     11.28356900
H           9.86955500     11.52598100     11.38669400
H           9.18977200     13.15218800     11.33428700
C           7.97233400     11.75385300     12.44589400
H           6.97124800     12.20868600     12.30986400
H           8.35629600     12.24640500     13.36633300
S           7.83270300     10.00383400     12.73652100
O           7.85059500      9.37689400     11.29118700
O           6.56992900      9.78035700     13.39734200
O           9.06808700      9.56422600     13.40544100
P          11.25224400      8.82852900     11.09761300
O          11.34243400     10.31416800     10.76225100
O          12.48723300      8.01425600     10.42929000
H          12.70131800      8.25367900      9.42315900
O          11.42813400      8.50940000     12.67219500
H          10.61647300      8.77451800     13.27676300
O           9.91906500      8.19259800     10.54126600
H           8.84692900      8.59078600     11.00668600
O          13.48914900     11.21470200      9.61050700
H          12.56875800     11.02213200     10.05399500
H          14.10413200     11.17478500     10.34128500
O          13.53526200      8.99215300      8.26588600
H          14.38881700      8.56781400      8.34778300
H          13.65022900      9.92094900      8.70059500
          41
 G =       -0.588006 Gcorr = 0.232384 a.u. Nimag =   0 Frame:     6 Step:     6 Geom:     6
C           9.26269700     11.91659000      8.61469400
C          10.04662500     11.42385700      7.57574400
C          10.01455700     10.06578000      7.25609500
C           9.18934700      9.21127100      7.99757800
C           8.44463800      9.73503000      9.05856300
H          10.64650300      9.67079200      6.45413400
H           9.29061400     12.97974600      8.90023200
H          10.72585500     12.09990300      7.05140900
H           7.85966100      9.07646800      9.72500900
C           9.13195100      7.75353200      7.72160800
H           9.97580300      7.41254100      7.09854800
H           9.21569300      7.16206400      8.65500200
H           8.20203600      7.45896000      7.22026600
N           8.46533900     11.07169200      9.32924700
C           7.58407200     11.60565500     10.39600700
H           6.81874800     12.25158900      9.90777800
H           7.03404000     10.75318100     10.86908600
C           8.32879700     12.39811700     11.48698200
H           9.28999500     12.81210000     11.10332300
H           7.72768100     13.29622500     11.74364900
C           8.57720400     11.58648400     12.74944500
H           7.64913500     11.13419900     13.13560400
H           8.94031000     12.24601200     13.56141100
S           9.81129600     10.27997000     12.51650500
O           9.27427400      9.46814300     11.37220000
O           9.90552700      9.58030000     13.78562400
O          11.04742600     11.00783000     12.07640400
P          12.39778400      8.98171000      9.58825700
O          12.08995000      9.99630100      8.57249900
O          13.49375100      7.94451400      9.09381600
H          13.77869500      7.38833700      9.93789300
O          13.00230300      9.51185900     10.95531700
H          12.31500300     10.18790200     11.41356800
O          11.18500900      8.02393700      9.96764200
H          10.43793900      8.56222900     10.48063900
O          11.34720000     12.73430800      9.86225500
H          11.86484600     12.12660600      9.32411700
H          11.31509600     12.26803000     10.72502300
O          14.13368000      6.71994800     11.71782500
H          13.25130000      6.46050200     12.00147400
H          14.23763800      7.61580500     12.06754500
          41
 G =       -0.588258 Gcorr = 0.231439 a.u. Nimag =   0 Frame:     7 Step:     7 Geom:     7
C           9.87616500     11.48119800      8.04576900
C          10.33876300     10.70037300      6.98961100
C           9.78736100      9.43843600      6.76590800
C           8.79445700      8.96430800      7.62536900
C           8.34669600      9.78573400      8.67322300
H          10.16749000      8.80767400      5.95970900
H          10.32709200     12.45230100      8.28242700
H          11.17110400     11.05971800      6.37956600
H           7.60640200      9.41957000      9.41487000
C           8.24458700      7.59323000      7.49440000
H           8.85139200      6.88915800      8.10601700
H           7.21166100      7.50171800      7.85801300
H           8.26836800      7.21589100      6.46371100
N           8.86751400     11.02731100      8.84566200
C           8.32573000     11.91393500      9.90485300
H           7.93223800     12.83232200      9.41417300
H           7.44832500     11.41098600     10.38474300
C           9.37650300     12.27666300     10.97203700
H          10.38011000     11.87548000     10.69417000
H           9.52134300     13.37675300     10.99001900
C           8.98640700     11.79619700     12.36249900
H           7.96045500     12.09422800     12.62897800
H           9.63688400     12.28257200     13.11971800
S           9.16733500     10.00121400     12.56307600
O           8.72863900      9.44638700     11.22940700
O           8.32762300      9.62729800     13.68443600
O          10.64415800      9.82610200     12.73193800
P          11.80838500      8.85091200      9.70994900
O          11.81587200     10.26552000      9.30943300
O          12.71662300      7.99169000      8.72258300
H          12.77264300      7.03698400      9.11534600
O          12.39087000      8.52798200     11.14454200
H          11.72838000      8.97092800     11.87238200
O          10.39884600      8.13596100      9.60628100
H           9.72233600      8.58182600     10.31828200
O          12.45210000     11.91800700     12.08956800
H          12.53366500     11.64521000     11.17245800
H          11.88260200     11.22645100     12.48335900
O          14.71690000     10.17668600     12.57685300
H          14.21911600      9.46832000     12.16536700
H          14.09687700     10.91678600     12.54931100
          41
 G =       -0.588249 Gcorr = 0.231448 a.u. Nimag =   0 Frame:     8 Step:     8 Geom:     8
C           9.83855200     11.60877100      8.04324200
C          10.25966100     10.83517700      6.96461100
C           9.65878700      9.60004900      6.71979500
C           8.65852400      9.14403600      7.58056000
C           8.25357700      9.95787500      8.65148200
H          10.00583400      8.97381000      5.89535600
H          10.32826900     12.55679900      8.29579200
H          11.09805800     11.17687400      6.35273900
H           7.50837500      9.60304600      9.39373800
C           8.05636300      7.79756200      7.42627800
H           7.02472400      7.73650900      7.79972700
H           8.05494900      7.44242100      6.38747700
H           8.64302900      7.05813400      8.01551500
N           8.82254400     11.17499100      8.84494000
C           8.32611300     12.05734600      9.92961000
H           7.96184000     13.00039400      9.46381900
H           7.43584200     11.57671600     10.40874900
C           9.40127000     12.35688600     10.99207200
H          10.38612600     11.92495700     10.69382200
H           9.58742600     13.45014200     11.03241700
C           9.00857700     11.86034400     12.37613000
H           7.99734600     12.18996500     12.66095700
H           9.68484500     12.30531600     13.13619400
S           9.12490100     10.05583700     12.53522000
O           8.65092600      9.54728700     11.19529900
O           8.28469600      9.68843200     13.65833800
O          10.59611100      9.82276600     12.68243000
P          11.68897700      8.87204200      9.62625100
O          11.74377200     10.29389300      9.25619400
O          12.55398200      8.00215300      8.60983600
H          12.57814000      7.03736700      8.98072000
O          12.27504200      8.49648900     11.04642300
H          11.63792700      8.94803200     11.79159000
O          10.25299000      8.21141200      9.52410500
H           9.60144400      8.66632900     10.25327500
O          12.47315800     11.85949500     12.06704700
H          12.53415400     11.60407700     11.14329800
H          11.88209200     11.18121900     12.45233900
O          14.67746400     10.02362200     12.48515900
H          14.14790400      9.34447200     12.06419700
H          14.08570400     10.78697600     12.48326900
          41
 G =       -0.583694 Gcorr = 0.231111 a.u. Nimag =   0 Frame:     9 Step:     9 Geom:     9
C          10.49344900     11.66054000      8.86992400
C          11.29108000     10.95790800      7.96957500
C          10.82846700      9.76210400      7.42025300
C           9.57333400      9.27940800      7.79313300
C           8.78707100     10.02991000      8.68258800
H          11.46054700      9.18634600      6.74279200
H          10.85836200     12.56699800      9.36868600
H          12.29382300     11.33074100      7.74435800
H           7.80337000      9.65321900      9.04098000
C           9.07927500      7.96180000      7.32538500
H           9.42990800      7.16592000      8.02147900
H           7.98298400      7.88784000      7.30988800
H           9.44558900      7.69252500      6.32693100
N           9.24423200     11.20614000      9.18150200
C           8.38187100     12.01658700     10.07508600
H           8.28237000     13.03172600      9.63066800
H           7.35369900     11.57284300     10.08429200
C           8.93300200     12.10651000     11.51255300
H           9.90679000     11.56925500     11.60120100
H           9.17990800     13.16168000     11.74461300
C           7.94857700     11.57370700     12.54245700
H           6.94653500     12.01348400     12.41708700
H           8.27107000     11.86420000     13.56060400
S           7.80243500      9.75666200     12.52960600
O           7.97972800      9.39326300     11.07110600
O           6.47667100      9.48097700     13.05963900
O           8.96250100      9.28225400     13.32418000
P          11.35959300      8.67025100     10.92112800
O          11.47216000     10.08135600     10.45661900
O          12.53779100      7.71882200     10.42407100
H          13.29230900      8.33701100     10.05175300
O          11.39190900      8.48005400     12.47628000
H          10.41482600      8.77719900     12.86407300
O          10.09762200      7.94991400     10.30046300
H           9.21266200      8.48325500     10.64799700
O          13.49409200     11.83770900      9.94615600
H          12.76719700     11.21649300     10.19164500
H          13.88865200     12.08246400     10.78135600
O          14.69120200      9.38469600      9.22760100
H          14.75077700      9.38341200      8.27831100
H          14.37258600     10.27284200      9.46200100
          41
 G =       -0.578785 Gcorr = 0.219205 a.u. Nimag =   0 Frame:    10 Step:    10 Geom:    10
C          10.21251000     12.09722400      8.67432500
C          11.12750500     11.55237800      7.77680700
C          10.97758400     10.23309000      7.33130800
C           9.89720800      9.46671300      7.78307500
C           8.98240700     10.05181900      8.68908600
H          11.73626000      9.78820900      6.67356500
H          10.33519500     13.11014600      9.07496500
H          11.99077800     12.14721500      7.45959600
H           8.15448400      9.45104500      9.13265800
C           9.71898500      8.04328600      7.40516600
H           8.80042000      7.86836900      6.82898500
H          10.56094100      7.64031500      6.82643600
H           9.64301400      7.41173800      8.32344800
N           9.14775100     11.33952600      9.11613500
C           8.20798300     11.90498600     10.13527500
H           7.81436500     12.87715800      9.76936500
H           7.32755800     11.20874900     10.22545600
C           8.89622300     12.05935300     11.50467600
H           9.85625300     11.46593000     11.53527300
H           9.22459100     13.10896700     11.64146800
C           7.98969300     11.65268900     12.65513200
H           7.00012500     12.14571500     12.58347100
H           8.40790300     12.05092900     13.60579600
S           7.80379400      9.88840100     12.79440200
O           7.77277700      9.39104700     11.30019600
O           6.54919200      9.64278000     13.46296500
O           9.03953900      9.35768900     13.39337200
P          11.15056400      8.76509700     10.97986600
O          11.27767100     10.27122000     10.77196100
O          12.34591100      7.97807200     10.21419300
H          12.54755500      8.30034600      9.22880100
O          11.34934500      8.30547200     12.51638800
H          10.55748400      8.53859600     13.15997400
O           9.78743800      8.21712300     10.40201800
H           8.73902200      8.60330500     10.92432800
O          13.42624700     11.20984000      9.65512400
H          12.51028800     11.00446900     10.10243700
H          14.05567400     11.08814800     10.36413700
O          13.37828000      9.11397100      8.12077400
H          14.22060200      8.66122000      8.14548500
H          13.52890200      9.99767400      8.63212800
          41
 G =       -0.578769 Gcorr = 0.219220 a.u. Nimag =   0 Frame:    11 Step:    11 Geom:    11
C          10.42439900     11.98700600      8.60308000
C          11.35465800     11.35854100      7.77889900
C          11.15490500     10.03301400      7.37332500
C          10.00985000      9.34483300      7.79042300
C           9.08145700     10.01387600      8.62136800
H          11.92195900      9.52210200      6.77606900
H          10.58228700     13.00650600      8.97359800
H          12.26618900     11.89266400      7.48984100
H           8.19774600      9.47695800      9.03832000
C           9.77249100      7.91952500      7.45451400
H          10.62035800      7.44930300      6.93854600
H           9.61180700      7.32930900      8.38924900
H           8.87784400      7.77220300      6.83463900
N           9.29590600     11.30631200      9.01066100
C           8.33529300     11.96159800      9.95375000
H           8.01842500     12.93895000      9.53150200
H           7.41303900     11.31871500     10.01835200
C           8.95485100     12.13099700     11.35379600
H           9.87666900     11.48775800     11.46021600
H           9.33413500     13.16562400     11.47175400
C           7.96487400     11.81911600     12.46433700
H           7.01007400     12.36185900     12.31866200
H           8.35184300     12.23083900     13.42250600
S           7.67272000     10.07428300     12.65590900
O           7.69475600      9.52164200     11.18099100
O           6.37186800      9.92320000     13.26112400
O           8.84251100      9.50109600     13.34177500
P          11.04524600      8.70123300     11.07684000
O          11.26856000     10.18918100     10.82389900
O          12.23447700      7.82165200     10.40845100
H          12.50701700      8.09400600      9.42515900
O          11.13329100      8.29009800     12.63729800
H          10.32204600      8.59047500     13.22632200
O           9.68724900      8.20673900     10.44178500
H           8.63490700      8.67001100     10.88891900
O          13.52338800     10.96553100      9.79571100
H          14.10547600     10.83780300     10.54327100
H          12.57432800     10.82784400     10.19794100
O          13.44206300      8.81687700      8.33725300
H          13.61407300      9.71037000      8.82376900
H          14.25498800      8.32037100      8.42619600
          41
 G =       -0.578853 Gcorr = 0.219135 a.u. Nimag =   0 Frame:    12 Step:    12 Geom:    12
C          10.30639000     12.13566500      8.72152400
C          11.19233900     11.58353100      7.79965800
C          11.00657100     10.27330800      7.34117300
C           9.91919000      9.52377300      7.80428000
C           9.03424400     10.11613300      8.73488400
H          11.74336300      9.82120300      6.66374300
H          10.45816400     13.14050500      9.13244500
H          12.06143500     12.16458000      7.47282400
H           8.20264500      9.52703400      9.18675400
C           9.70425500      8.10906200      7.41305900
H           9.64020900      7.46743500      8.32535100
H           8.76768900      7.95855700      6.85943900
H          10.52286100      7.69792100      6.80729900
N           9.23468300     11.39460600      9.17454800
C           8.32666400     11.96640200     10.21861100
H           7.94491900     12.95011500      9.87137300
H           7.43469200     11.28646900     10.31878400
C           9.04489400     12.09184900     11.57545100
H           9.99360600     11.47962700     11.58022300
H           9.39631300     13.13333700     11.71708900
C           8.15382400     11.68991800     12.73957700
H           7.17288300     12.20287900     12.69317300
H           8.59891400     12.06952400     13.68572300
S           7.93598000      9.92839500     12.86399400
O           7.86390000      9.44864200     11.36412400
O           6.69014700      9.69999300     13.55435300
O           9.17241400      9.36597500     13.43056500
P          11.22245300      8.76299200     10.96538600
O          11.37564000     10.26915400     10.77548300
O          12.38667600      7.96323400     10.16522400
H          12.57654100      8.29606800      9.18160500
O          11.44567100      8.27903500     12.49172800
H          10.67326900      8.51852300     13.15477300
O           9.83775900      8.24982800     10.41054500
H           8.80407100      8.65166800     10.96094600
O          13.52079800     11.18124400      9.62968800
H          14.16126400     11.03850800     10.32455700
H          12.61001700     10.98687200     10.09203500
O          13.40387300      9.10780600      8.06847900
H          13.58218400      9.98133200      8.58751600
H          14.23661700      8.63731300      8.07203400
          41
 G =       -0.588255 Gcorr = 0.231442 a.u. Nimag =   0 Frame:    13 Step:    13 Geom:    13
C           9.64093100     11.91871500      8.60546200
C           9.91561900     11.37933700      7.35134200
C           9.28537500     10.20135600      6.94925400
C           8.40552500      9.56345500      7.82578400
C           8.14579500     10.14426200      9.07814600
H           9.52021200      9.75543600      5.98059100
H          10.16155400     12.81090400      8.97332700
H          10.66737700     11.85300400      6.71529000
H           7.50332900      9.63470600      9.82631500
C           7.78568300      8.25861100      7.49024900
H           8.44206400      7.43304500      7.84486000
H           6.81079000      8.10276800      7.97267500
H           7.64938900      8.11091600      6.41096900
N           8.73763700     11.31378700      9.43088500
C           8.38908200     11.95705000     10.72172000
H           7.96878300     12.96360600     10.49990700
H           7.56822600     11.37167500     11.20823400
C           9.59453400     12.07033800     11.67489700
H          10.53114000     11.72804000     11.17380200
H           9.78635300     13.13911800     11.90382700
C           9.38552500     11.30554800     12.97405700
H           8.42095100     11.54958600     13.44568200
H          10.15642500     11.61054100     13.71280500
S           9.51816700      9.50778700     12.76102800
O           8.87209800      9.25789000     11.41977300
O           8.83119600      8.90950100     13.88907400
O          10.99550700      9.28543800     12.66942300
P          11.67772200      8.97222200      9.37152500