          37
 G =       -0.428374 Gcorr = 0.222094 a.u. Nimag =   0 Frame:     1 Step:     1 Geom:     1
C           8.88920600      8.45695200      9.84495900
C           8.05744300      9.24734000      9.05393100
C           7.88437900     10.60138700      9.38389200
C           8.55709000     11.12065400     10.48537800
C           9.38745300     10.30142400     11.25176500
H           7.24730500     11.24268100      8.76278000
H           9.06967100      7.39916600      9.60167800
H           8.49553900     12.18851300     10.72002700
H           9.95344800     10.69811900     12.10792600
C           7.39923400      8.66343100      7.85864500
H           7.91258700      7.75854900      7.49095900
H           6.35091700      8.39940500      8.05026800
H           7.40757100      9.37413500      7.00781400
N           9.52682900      8.98454900     10.93405300
C          10.37487100      8.09466500     11.76297900
H           9.83964600      7.90991000     12.72400400
H          10.47454200      7.10597200     11.25131800
C          11.78053800      8.65137300     12.04483600
H          11.72719700      9.65834800     12.51240900
H          12.26303600      8.00116300     12.80433500
C          12.65335100      8.71686600     10.79782300
H          13.71749100      8.86453400     11.06953300
H          12.62264200      7.77410100     10.22078900
C          12.26214100      9.88082500      9.87894700
O          11.62840700     10.82775200     10.38617700
O          12.58938000      9.76751400      8.68267800
P          10.31850000     11.99564000      7.36000200
O           9.31057600     10.93132400      7.23832300
O           9.91719300     13.23394300      6.43817100
H          10.65410600     13.94906600      6.55396100
O          10.41643700     12.63718400      8.81061900
H          10.96794600     11.96903900      9.43950900
O          11.79161200     11.64011700      6.91351200
H          12.17407300     10.90197600      7.60103100
O          10.50986000      8.06272500      7.80025100
H          10.05302800      8.78874000      7.35863500
H          11.36477600      8.47093700      8.02609400
          37
 G =       -0.432747 Gcorr = 0.218019 a.u. Nimag =   0 Frame:     2 Step:     2 Geom:     2
C           9.05194600      8.50165500      9.54723700
C           8.14855900      9.19665000      8.73284000
C           7.66671500     10.43950700      9.15537100
C           8.11916500     10.96532100     10.37197200
C           9.01557500     10.24441200     11.14956500
H           6.96273700     11.00538900      8.53512200
H           9.46838700      7.52628100      9.22628800
H           7.81015200     11.96741000     10.68175700
H           9.40648700     10.64164100     12.09257300
C           7.77941600      8.62854600      7.41455700
H           6.82785500      9.01894700      7.02964200
H           8.54981100      8.90723200      6.65853000
H           7.72147200      7.53264100      7.41250200
N           9.45112200      9.01581600     10.73931700
C          10.34720600      8.22913000     11.61881400
H           9.81062400      8.03539800     12.57539700
H          10.53805200      7.22543000     11.15292900
C          11.69311200      8.92313800     11.88694200
H          11.56832900     10.02058900     12.00962200
H          12.09333800      8.55805700     12.85502200
C          12.71387700      8.65841700     10.78248900
H          13.72916600      8.95777900     11.10693000
H          12.77577000      7.58742300     10.51967000
C          12.31751200      9.49662300      9.56242500
O          12.71131800     10.66364000      9.52043600
O          11.56571100      8.93536600      8.71939700
P          10.27360700     11.96131100      7.41560000
O           9.21045800     12.08099700      8.42011100
O           9.89263200     12.82226300      6.12468600
H          10.67036600     12.72760500      5.45300000
O          11.70876400     12.48962400      7.80882200
H          12.14399400     11.78460100      8.49466600
O          10.46226900     10.50040200      6.81381500
H          10.94789200      9.88617200      7.53597400
O          11.17982300      6.32828800      8.98064900
H          11.53583400      5.88399800      8.22306900
H          11.40096100      7.29231500      8.84227300
          37
 G =       -0.432769 Gcorr = 0.217996 a.u. Nimag =   0 Frame:     3 Step:     3 Geom:     3
C           9.13938900      8.59991700      9.40316800
C           8.27611100      9.32195700      8.56895300
C           7.69700400     10.50224300      9.04521900
C           8.01492000     10.94176900     10.33638400
C           8.87569500     10.19676100     11.13130700
H           7.02172000     11.08784400      8.41154000
H           9.63114600      7.67443300      9.04331400
H           7.62981500     11.89958600     10.69683100
H           9.16272000     10.52883400     12.13490100
C           8.05240600      8.85256300      7.18100500
H           8.05012800      7.75932200      7.08517700
H           7.11961000      9.23302700      6.74378700
H           8.87087400      9.22724000      6.52330900
N           9.40680200      9.02743000     10.66424600
C          10.26112200      8.20774000     11.55507100
H           9.65350600      7.91040300     12.43989600
H          10.54208000      7.25648000     11.02870600
C          11.54192900      8.93322800     12.00014300
H          11.35201100     10.01000900     12.19905400
H          11.87362400      8.50481100     12.96818900
C          12.66746400      8.80705200     10.97598700
H          13.63416200      9.12067900     11.41506100
H          12.80560900      7.76587800     10.63412600
C          12.33833100      9.72827200      9.79640300
O          12.67509700     10.91031600      9.88492100
O          11.69294800      9.20868400      8.84529100
P          10.36674100     12.27620500      7.67872100
O           9.21537500     12.26437000      8.58853300
O          10.05668600     13.22573200      6.43172200
H          10.89257400     13.21923000      5.82652500
O          11.73308300     12.83204700      8.24260800
H          12.14278800     12.09120200      8.90506800
O          10.68133100     10.88095800      6.98162200
H          11.13418200     10.22972600      7.69296800
O          11.41466400      6.57533300      8.85818900
H          11.85732500      6.21257900      8.10289700
H          11.59904900      7.55615300      8.81917100
          37
 G =       -0.432952 Gcorr = 0.218294 a.u. Nimag =   0 Frame:     4 Step:     4 Geom:     4
C           8.95834400      8.52283300      9.55194300
C           8.11048700      9.32463500      8.78992500
C           7.81178700     10.62293700      9.23794000
C           8.41057300     11.08726400     10.40423700
C           9.26442400     10.25852300     11.13323300
H           7.14032600     11.26882700      8.65947100
H           9.24288600      7.51127100      9.20949300
H           8.26608000     12.12200000     10.72718400
H           9.78157200     10.62372200     12.03260600
C           7.60041800      8.82010900      7.49166300
H           7.05183300      7.87575500      7.58008200
H           6.95278000      9.55045100      6.97975200
H           8.44515000      8.65625500      6.78852200
N           9.49959100      8.98449000     10.71877200
C          10.33898000      8.06406000     11.52488800
H           9.71248100      7.68076600     12.36298100
H          10.61761300      7.17846500     10.89284000
C          11.62735600      8.69949300     12.07237200
H          11.42429000      9.67354500     12.56528600
H          12.02988800      8.04147100     12.87018100
C          12.68179800      8.89329400     10.98811500
H          13.62659900      9.27699400     11.41728400
H          12.93612400      7.93714000     10.49153900
C          12.19752000      9.91008400      9.94815900
O          11.60567800     10.91929800     10.36517200
O          12.39017200      9.60666300      8.74968100
P          10.29817700     11.94984200      7.20820100
O           9.10038800     11.10539600      7.15202200
O          10.14247000     13.17112800      6.19009400
H          11.00085900     13.73951300      6.25905200
O          10.53768700     12.68101100      8.59946900
H          11.00498400     12.00967400      9.27731900
O          11.66833600     11.28808800      6.77841600
H          11.98021300     10.61657900      7.55460700
O          11.21270700      7.15335200      8.51888900
H          11.50958200      6.77494800      7.69895600
H          11.64986100      8.04013300      8.54966800
          37
 G =       -0.432751 Gcorr = 0.218015 a.u. Nimag =   0 Frame:     5 Step:     5 Geom:     5
C           9.15352300      8.49061000      9.45126900
C           8.20987300      9.14057400      8.64544300
C           7.62244800     10.32423100      9.10300400
C           8.01168000     10.83921300     10.34579700
C           8.95116100     10.16424900     11.11377600
H           6.88484500     10.85433800      8.49025900
H           9.65248000      7.56432900      9.10360900
H           7.61780700     11.80110100     10.68532400
H           9.29373000     10.55637700     12.07750900
C           7.90879200      8.59406600      7.30098700
H           7.93945700      7.49784000      7.25877700
H           6.93511700      8.92107700      6.91243200
H           8.66617800      8.96130400      6.57007300
N           9.49104000      8.99065800     10.66818000
C          10.43405500      8.24645500     11.53551900
H           9.90014700      7.97525400     12.47464800
H          10.71250600      7.27917200     11.03787800
C          11.71515500      9.03585100     11.85277700
H          11.50016100     10.11449700     12.01201500
H          12.12858400      8.66867900     12.81449700
C          12.77089200      8.89471500     10.75854300
H          13.75369800      9.26195300     11.11202200
H          12.92287700      7.84256900     10.45879100
C          12.32725800      9.74327000      9.56215800
O          12.62491800     10.93919000      9.57017000
O          11.63784600      9.15507600      8.68492900
P          10.12452800     12.11379300      7.46716100
O           9.03945100     12.10986300      8.45518900
O           9.69549200     12.98902200      6.20114800
H          10.48742800     12.97922800      5.53951800
O          11.50560100     12.74083600      7.90615800
H          11.98546300     12.04799200      8.57461400
O          10.44063600     10.69632000      6.81681000
H          10.96322700     10.09667400      7.52533100
O          11.45817000      6.51777400      8.84674100
H          11.86040600      6.13114000      8.08070600
H          11.60339300      7.50072500      8.74625000
          37
 G =       -0.434786 Gcorr = 0.205110 a.u. Nimag =   0 Frame:     6 Step:     6 Geom:     6
C           9.24906800      8.50014500      9.45087100
C           8.32756800      9.25944100      8.71586500
C           7.73380200     10.38454800      9.32550400
C           8.08215400     10.71157700     10.64063600
C           9.00253900      9.93400700     11.34234000
H           7.03146500     11.01954900      8.76428800
H           9.78040100      7.63562600      8.98596300
H           7.66637600     11.61135600     11.10515900
H           9.30870100     10.19375600     12.36312800
C           8.05877400      8.91185000      7.29857900
H           7.93524100      7.83682400      7.12596600
H           7.17872300      9.42721100      6.88907700
H           8.91885400      9.25028400      6.66952000
N           9.57037100      8.83258100     10.74434100
C          10.55713800      7.99185500     11.49494900
H          10.03222100      7.51483100     12.35262000
H          10.90590400      7.15536300     10.82188000
C          11.77571500      8.79068900     11.97911300
H          11.47609400      9.77339900     12.40459800
H          12.24773600      8.23440100     12.81644900
C          12.81081200      9.01727400     10.87896700
H          13.73409300      9.46021800     11.30563700
H          13.11782200      8.05778900     10.41315100
C          12.26981300      9.96252400      9.81108600
O          11.99623400     11.13850500     10.12735500
O          12.08716600      9.46965500      8.65182500
P          10.05041200     12.21105200      7.50021900
O           8.75042700     12.23434100      8.20361100
O          10.04378300     13.09082400      6.11190600
H          10.93734100     13.30098500      5.73040300
O          11.37187600     12.80834900      8.21660400
H          11.73418300     12.29757100      9.08613200
O          10.49934100     10.72425700      7.00849000
H          11.30429200     10.25815600      7.54414500
O          11.57026000      6.87976200      8.80815000
H          11.86092400      6.29860400      8.11946500
H          11.94238900      7.79085600      8.58201900
          37
 G =       -0.432942 Gcorr = 0.218304 a.u. Nimag =   0 Frame:     7 Step:     7 Geom:     7
C           9.03218800      8.46889700      9.60931000
C           8.14218600      9.24503500      8.86917700
C           7.83197400     10.54162700      9.31443600
C           8.46058100     11.03045400     10.45469500
C           9.35575200     10.22698800     11.16219500
H           7.12764200     11.16734900      8.75315900
H           9.32614200      7.45994500      9.26718500
H           8.30606700     12.06547600     10.77202500
H           9.89524700     10.61203700     12.03988400
C           7.59838900      8.71637300      7.59439500
H           8.42188000      8.55964300      6.86500500
H           7.07050100      7.76341700      7.71173400
H           6.92068500      9.42897300      7.09656900
N           9.60304200      8.95376700     10.75245600
C          10.48822300      8.05926100     11.53850800
H           9.89882300      7.67263100     12.40164300
H          10.76291800      7.17249300     10.90656900
C          11.78129400      8.72652600     12.03461600
H          11.57520800      9.70150200     12.52439600
H          12.22460300      8.08542200     12.82457400
C          12.79354900      8.92997000     10.91259800
H          13.74460400      9.33709200     11.30504800
H          13.05009500      7.97393500     10.41702200
C          12.25339600      9.92580500      9.88001000
O          11.65352700     10.92606600     10.30720800
O          12.41335700      9.61497300      8.67869400
P          10.22117200     11.89589800      7.18672900
O           9.04036600     11.02605800      7.18268800
O          10.00351200     13.10137100      6.16113300
H          10.85146800     13.68844100      6.19309800
O          10.49453500     12.64869400      8.56008900
H          10.99645200     11.99414000      9.22966500
O          11.58915200     11.25801500      6.71601100
H          11.94207600     10.60202800      7.48799800
O          11.27848400      7.13475300      8.51319100
H          11.55288200      6.75468300      7.68618400
H          11.69804800      8.03028100      8.52011400
          37
 G =       -0.432744 Gcorr = 0.218021 a.u. Nimag =   0 Frame:     8 Step:     8 Geom:     8
C           9.28973500      8.51695500      9.46525100
C           8.35494100      9.21162100      8.68681700
C           7.73506500     10.34709600      9.21767500
C           8.08371800     10.77136100     10.50601800
C           9.01563200     10.05459900     11.24469400
H           7.00360500     10.91085100      8.62803000
H           9.81391300      7.62828300      9.06112400
H           7.66414800     11.69789300     10.90741500
H           9.32684800     10.37700400     12.24425500
C           8.09734800      8.76499000      7.29718100
H           8.86415000      9.20179500      6.61605200
H           8.15178800      7.67608800      7.17166400
H           7.12653900      9.10254100      6.91039800
N           9.58754500      8.92744300     10.72522100
C          10.52154000      8.13407300     11.55797600
H           9.96912600      7.78310300     12.45918700
H          10.82978900      7.21232600     10.99568500
C          11.77980000      8.91728800     11.96823100
H          11.54132200      9.97682600     12.20389300
H          12.17569100      8.48382800     12.90956000
C          12.86495300      8.87790000     10.89459400
H          13.83170900      9.23280300     11.30102000
H          13.04362700      7.85452900     10.51942100
C          12.43611500      9.80848000      9.75515500
O          12.71296700     11.00461400      9.86112500
O          11.77838000      9.27821500      8.81849800
P          10.24407100     12.29743300      7.78967800
O           9.13445700     12.20089700      8.74530000
O           9.83156100     13.25982100      6.58277200
H          10.64062700     13.31464900      5.94451800
O          11.60188000     12.91163300      8.31194000
H          12.07783600     12.17740900      8.93710000
O          10.60221600     10.93914200      7.04246000
H          11.11709000     10.29522700      7.71726400
O          11.64433100      6.63366500      8.77226300
H          12.07210700      6.31392800      7.98938800
H          11.77384800      7.62370700      8.75119700
          37
 G =       -0.434792 Gcorr = 0.205103 a.u. Nimag =   0 Frame:     9 Step:     9 Geom:     9
C           9.25964800      8.48370000      9.43232000
C           8.34875300      9.23774700      8.67890200
C           7.73736300     10.36016600      9.27592900
C           8.05837900     10.68999100     10.59731800
C           8.96883200      9.91762300     11.31745900
H           7.04282200     10.99113100      8.70064900
H           9.80460300      7.62179200      8.97852100
H           7.62911300     11.58801000     11.05287100
H           9.25379200     10.17979400     12.34375500
C           8.10952800      8.88784100      7.25687300
H           7.98996400      7.81250800      7.08349500
H           7.23786200      9.40220900      6.82852500
H           8.98206700      9.22600700      6.64513100
N           9.55375400      8.81861000     10.73159900
C          10.52943100      7.98319300     11.50236200
H           9.98959500      7.50381600     12.34942700
H          10.89595600      7.14829200     10.83688100
C          11.73395400      8.78822500     12.01088200
H          11.42079600      9.76899600     12.43090400
H          12.19215500      8.23381600     12.85716600
C          12.78960100      9.02068600     10.93172200
H          13.70154900      9.46899200     11.37688500
H          13.11158700      8.06297000     10.47248500
C          12.26512300      9.96273400      9.85278000
O          11.97970900     11.13761100     10.16264000
O          12.10800300      9.46812000      8.69055100
P          10.07953800     12.19607400      7.49461700
O           8.76526500     12.21335300      8.17105400
O          10.09688200     13.07425400      6.10543900
H          10.99695900     13.28719800      5.74114600
O          11.38307400     12.80064600      8.23702900
H          11.73036600     12.29289000      9.11445600
O          10.54605700     10.71097700      7.01423400
H          11.34337800     10.25051200      7.56575500
O          11.60182700      6.87543300      8.83660800
H          11.90831100      6.29596500      8.15332600
H          11.97442800      7.78812900      8.61831600
          37
 G =       -0.432558 Gcorr = 0.217751 a.u. Nimag =   0 Frame:    10 Step:    10 Geom:    10
C           9.00745400      8.29030500      9.53704000
C           8.06068200      9.01749400      8.82094300
C           7.75661200     10.32808700      9.22762100
C           8.39656400     10.85465900     10.34213400
C           9.34652400     10.09538000     11.03182700
H           7.05201200     10.93233300      8.64762700
H           9.30336200      7.27558600      9.22591000
H           8.22271100     11.89120500     10.64810800
H           9.90111900     10.52449500     11.88516300
C           7.42543200      8.43337500      7.61397900
H           7.71963400      7.39255200      7.42341700
H           6.32864600      8.46704600      7.66077000
H           7.72262400      9.00746300      6.70921700
N           9.63840300      8.83371900     10.62518200
C          10.63149300      7.97603700     11.32228200
H          10.06586700      7.29883600     12.00365000
H          11.13110900      7.32999900     10.54788300
C          11.72218000      8.71896300     12.10812600
H          11.31400600      9.59227800     12.65806500
H          12.11080000      8.03801700     12.89444100
C          12.87545300      9.17312300     11.21820900
H          13.67538700      9.64594000     11.81974100
H          13.35032700      8.32142900     10.69652600
C          12.39909000     10.20721400     10.19249000
O          11.60088000     11.07605600     10.59523900
O          12.81591000     10.06959900      9.02612100
P          10.32369300     11.80234300      7.41156600
O           9.51289300     10.58132500      7.29161500
O           9.79689500     12.90372400      6.38463200
H          10.39341200     13.73919200      6.50380500
O          10.20260500     12.53005700      8.81886600
H          10.82203300     12.01589800      9.52526500
O          11.86419000     11.67271300      7.08753700
H          12.31107500     11.05530400      7.85271300
O          11.13076700      7.99174700      8.13054700
H          10.62824900      8.56310000      7.53710700
H          11.86992200      8.57342100      8.39465000
          37
 G =       -0.431407 Gcorr = 0.218951 a.u. Nimag =   0 Frame:    11 Step:    11 Geom:    11
C           9.05545000      8.31309300      9.49183600
C           8.19565900      9.11150800      8.73853700
C           7.86570500     10.39223500      9.20826700
C           8.40756000     10.83140600     10.41282200
C           9.26191000     10.00416300     11.14203200
H           7.21317900     11.04509200      8.61691400
H           9.37506200      7.32254800      9.12913300
H           8.22366400     11.85186000     10.76357200
H           9.72282500     10.34268700     12.08209800
C           7.67893700      8.61630700      7.43799300
H           7.64331100      9.42696100      6.68298500
H           8.31963600      7.83318400      6.99856800
H           6.66329900      8.20833400      7.52474600
N           9.56076900      8.75738800     10.68227000
C          10.43367700      7.84665700     11.46259200
H           9.82703900      7.43116300     12.30124200
H          10.72815100      6.98460000     10.81291400
C          11.70891400      8.50515800     12.01411400
H          11.47362300      9.43395900     12.57687000
H          12.15869900      7.81690100     12.76006000
C          12.72942100      8.81739600     10.92639700
H          13.70676900      9.09165900     11.37041600
H          12.92947100      7.94076100     10.28306600
C          12.28713400      9.99800500     10.05358900
O          11.52785300     10.84036000     10.57134100
O          12.70322300      9.99930300      8.87923900
P          10.34799500     12.12410500      7.54000800
O           9.45386700     10.99039500      7.25934300
O           9.90627600     13.39168500      6.67805000
H          10.56258100     14.15664600      6.90596000
O          10.27689000     12.65774800      9.03480600
H          10.83299000     11.98974100      9.65994000
O          11.87661700     11.93086700      7.19088300
H          12.27068200     11.17253900      7.84938900
O          10.87344600      8.19308100      7.71194300
H          10.40709400      8.89966900      7.24741500
H          11.66064000      8.66085300      8.04866500
          37
 G =       -0.432954 Gcorr = 0.218293 a.u. Nimag =   0 Frame:    12 Step:    12 Geom:    12
C           9.08190600      8.33492500      9.34746000
C           8.19100800      9.12034900      8.61825600
C           7.75929800     10.34448000      9.15748300
C           8.27236100     10.75934300     10.38179900
C           9.17280400      9.95043800     11.07627500
H           7.05188100     10.97515500      8.60569900
H           9.46970100      7.38524500      8.93614900
H           8.02275700     11.74615300     10.78146700
H           9.62290400     10.28234600     12.02335700
C           7.77442000      8.68475700      7.26291700
H           7.08023700      9.39551200      6.78564600
H           8.65429100      8.65714100      6.58475600
H           7.31245900      7.69127700      7.25090800
N           9.53788800      8.74200200     10.56976600
C          10.42938100      7.83422800     11.33311900
H           9.81166700      7.32714600     12.10974700
H          10.80982800      7.03361100     10.64346600
C          11.63412300      8.53214000     11.98493500
H          11.32555500      9.43902300     12.54647400
H          12.06696800      7.84685100     12.74295500
C          12.70386500      8.90968100     10.96606200
H          13.59422200      9.33669700     11.46513200
H          13.06141800      8.02548800     10.40409200
C          12.16599900      9.96518400      9.99330600
O          11.46869700     10.87814000     10.46578500
O          12.42935600      9.78481600      8.78356400
P          10.18346000     12.05312000      7.34988300
O           9.07013600     11.11457000      7.17492300
O           9.95227100     13.33815300      6.42925200
H          10.75144400     13.97272300      6.58175700
O          10.30781200     12.68152200      8.80483100
H          10.81052000     11.99844000      9.44496600
O          11.62173000     11.55275000      6.92441100
H          11.96836000     10.85022800      7.65699800
O          11.48654300      7.26631300      8.30229600
H          11.84235300      6.98819400      7.46577100
H          11.84039100      8.18187300      8.42435200
          37
 G =       -0.432958 Gcorr = 0.218289 a.u. Nimag =   0 Frame:    13 Step:    13 Geom:    13
C           8.99133300      8.42589800      9.31630300
C           8.19022400      9.28067500      8.56142100
C           7.82525000     10.52742600      9.09819600
C           8.31483400     10.89189600     10.34787900
C           9.12516500     10.01327600     11.06820400
H           7.18875300     11.21299300      8.52594800
H           9.32708900      7.45493800      8.90896800
H           8.11990600     11.89000300     10.74985400
H           9.55752100     10.30232000     12.03734700
C           7.80021900      8.88947100      7.18477000
H           7.26715300      7.93316100      7.14167800
H           7.18099100      9.65406500      6.68790600
H           8.70336800      8.80294400      6.54325200
N           9.42377500      8.78686200     10.56148200
C          10.21524000      7.80948800     11.34884700
H           9.53069200      7.34003100     12.09238100
H          10.56641200      6.99085900     10.66484400
C          11.43812100      8.41224000     12.05923300
H          11.17175500      9.33348500     12.61899100
H          11.78811800      7.69015000     12.82580200
C          12.57450700      8.72158400     11.09077300
H          13.47102000      9.07876600     11.63190100
H          12.89162700      7.81936900     10.53319100
C          12.15553900      9.82213200     10.10942700
O          11.50419700     10.77758600     10.56323200
O          12.45852900      9.63543300      8.91005300
P          10.44180400     12.07188500      7.41292900
O           9.27152900     11.21798800      7.18405400
O          10.34090900     13.37757500      6.49782400
H          11.17832100     13.95000600      6.68654700
O          10.55386800     12.67803000      8.87812400
H          10.97549700     11.95290900      9.53089400
O          11.85588100     11.47148500      7.03848000
H          12.12130600     10.74027000      7.77671300
O          11.35529700      7.19728800      8.35610700
H          11.72509500      6.90247300      7.53144600
H          11.76917500      8.08305600      8.50501900
          37
 G =       -0.436503 Gcorr = 0.205585 a.u. Nimag =   0 Frame:    14 Step:    14 Geom:    14
C           8.73055300      8.66221400      9.19465900
C           7.70339500      9.51782500      8.74329500
C           7.42595100     10.68229300      9.47280200
C           8.17589100     10.97141600     10.61560000
C           9.17866700     10.09853200     11.03979500
H           6.65993500     11.38063100      9.12843500
H           9.02569000      7.78279500      8.59694900
H           8.01539600     11.90308300     11.16522400
H           9.83151100     10.34788700     11.89929100
C           7.00244000      9.19280000      7.47438300
H           6.19695700      9.89774500      7.23087700
H           7.72449300      9.23836300      6.62927800
H           6.57246600      8.18241000      7.47018000
N           9.43506800      8.94312400     10.33995900
C          10.48816900      7.96568000     10.76326300
H           9.98103600      7.02083700     11.05733900
H          11.11674400      7.71276100      9.82421800
C          11.42531100      8.43635400     11.87882400
H          10.91360100      9.14150000     12.57051000
H          11.69611500      7.55788100     12.50276600
C          12.70915500      9.08442300     11.35587600
H          13.28239000      9.53709300     12.18966700
H          13.38173300      8.32443200     10.90540400
C          12.41205900     10.16012800     10.32010700
O          11.61149500     11.08759000     10.64729500
O          12.93307600     10.03962000      9.18499300
P          10.60538100     11.06009200      7.40611100
O          10.17469400      9.63237100      7.45476800
O           9.86481800     11.85900000      6.17754700
H          10.19981900     12.77808100      5.99487700
O          10.23465900     11.95041000      8.69318100
H          10.91314300     11.84149700      9.57668900
O          12.17424400     11.35156800      7.12230900
H          12.84542000     10.99902200      7.86822800
O          11.90265400      7.66629800      8.23795300
H          11.30576000      8.16173900      7.62977600
H          12.65013700      8.28052500      8.38758900
          37