 Entering Gaussian System, Link 0=g16
 Initial command:
 /data0/home/software/g16/l1.exe "/data0/home/software/g16/scratch/Gau-224918.inp" -scrdir="/data0/home/software/g16/scratch/"
 Default is to use a total of  22 processors:
                               22 via shared-memory
                                1 via Linda
 Entering Link 1 = /data0/home/software/g16/l1.exe PID=    224919.
  
 Copyright (c) 1988,1990,1992,1993,1995,1998,2003,2009,2016,
            Gaussian, Inc.  All Rights Reserved.
  
 This is part of the Gaussian(R) 16 program.  It is based on
 the Gaussian(R) 09 system (copyright 2009, Gaussian, Inc.),
 the Gaussian(R) 03 system (copyright 2003, Gaussian, Inc.),
 the Gaussian(R) 98 system (copyright 1998, Gaussian, Inc.),
 the Gaussian(R) 94 system (copyright 1995, Gaussian, Inc.),
 the Gaussian 92(TM) system (copyright 1992, Gaussian, Inc.),
 the Gaussian 90(TM) system (copyright 1990, Gaussian, Inc.),
 the Gaussian 88(TM) system (copyright 1988, Gaussian, Inc.),
 the Gaussian 86(TM) system (copyright 1986, Carnegie Mellon
 University), and the Gaussian 82(TM) system (copyright 1983,
 Carnegie Mellon University). Gaussian is a federally registered
 trademark of Gaussian, Inc.
  
 This software contains proprietary and confidential information,
 including trade secrets, belonging to Gaussian, Inc.
  
 This software is provided under written license and may be
 used, copied, transmitted, or stored only in accord with that
 written license.
  
 The following legend is applicable only to US Government
 contracts under FAR:
  
                    RESTRICTED RIGHTS LEGEND
  
 Use, reproduction and disclosure by the US Government is
 subject to restrictions as set forth in subparagraphs (a)
 and (c) of the Commercial Computer Software - Restricted
 Rights clause in FAR 52.227-19.
  
 Gaussian, Inc.
 340 Quinnipiac St., Bldg. 40, Wallingford CT 06492
  
  
 ---------------------------------------------------------------
 Warning -- This program may not be used in any manner that
 competes with the business of Gaussian, Inc. or will provide
 assistance to any competitor of Gaussian, Inc.  The licensee
 of this program is prohibited from giving any competitor of
 Gaussian, Inc. access to this program.  By using this program,
 the user acknowledges that Gaussian, Inc. is engaged in the
 business of creating and licensing software in the field of
 computational chemistry and represents and warrants to the
 licensee that it is not a competitor of Gaussian, Inc. and that
 it will not use this program in any manner prohibited above.
 ---------------------------------------------------------------
  

 Cite this work as:
 Gaussian 16, Revision A.03,
 M. J. Frisch, G. W. Trucks, H. B. Schlegel, G. E. Scuseria, 
 M. A. Robb, J. R. Cheeseman, G. Scalmani, V. Barone, 
 G. A. Petersson, H. Nakatsuji, X. Li, M. Caricato, A. V. Marenich, 
 J. Bloino, B. G. Janesko, R. Gomperts, B. Mennucci, H. P. Hratchian, 
 J. V. Ortiz, A. F. Izmaylov, J. L. Sonnenberg, D. Williams-Young, 
 F. Ding, F. Lipparini, F. Egidi, J. Goings, B. Peng, A. Petrone, 
 T. Henderson, D. Ranasinghe, V. G. Zakrzewski, J. Gao, N. Rega, 
 G. Zheng, W. Liang, M. Hada, M. Ehara, K. Toyota, R. Fukuda, 
 J. Hasegawa, M. Ishida, T. Nakajima, Y. Honda, O. Kitao, H. Nakai, 
 T. Vreven, K. Throssell, J. A. Montgomery, Jr., J. E. Peralta, 
 F. Ogliaro, M. J. Bearpark, J. J. Heyd, E. N. Brothers, K. N. Kudin, 
 V. N. Staroverov, T. A. Keith, R. Kobayashi, J. Normand, 
 K. Raghavachari, A. P. Rendell, J. C. Burant, S. S. Iyengar, 
 J. Tomasi, M. Cossi, J. M. Millam, M. Klene, C. Adamo, R. Cammi, 
 J. W. Ochterski, R. L. Martin, K. Morokuma, O. Farkas, 
 J. B. Foresman, and D. J. Fox, Gaussian, Inc., Wallingford CT, 2016.
 
 ******************************************
 Gaussian 16:  ES64L-G16RevA.03 25-Dec-2016
                17-Feb-2023 
 ******************************************
 %nproc=24
 Will use up to   24 processors via shared memory.
 %mem=50GB
 ---------------------------------------------------
 #p M062X/6-311+G(2d,p) nosymm em=GD3 counterpoise=3
 ---------------------------------------------------
 1/38=1,62=3,172=1/1;
 2/12=2,15=1,17=6,18=5,40=1/2;
 1/38=1,53=2,62=3,63=1/22;
 3/5=4,6=6,7=112,11=2,25=1,30=1,74=-55,124=31/1,2,3;
 4//1;
 5/5=2,38=5/2;
 6/7=2,8=2,9=2,10=2,28=1/1;
 1/53=2,62=3,63=1/22;
 3/5=7,6=11,7=112,11=2,25=1,30=1,74=-55,82=7,124=31/1,2,3;
 4//1;
 5/5=2,38=5/2;
 6/7=2,8=2,9=2,10=2,28=1/1;
 1/53=2,62=3,63=1/22(-4);
 99/5=1,9=1/99;
 Leave Link    1 at Fri Feb 17 21:12:04 2023, MaxMem=  6710886400 cpu:               0.7 elap:               0.0
 (Enter /data0/home/software/g16/l101.exe)
 -------------------
 Title Card Required
 -------------------
 Symbolic Z-matrix:
 Charge =  0 Multiplicity = 1 in supermolecule
 Charge =  0 Multiplicity = 1 in fragment      1.
 Charge =  0 Multiplicity = 1 in fragment      2.
 Charge =  0 Multiplicity = 1 in fragment      3.
 C                     8.7414    10.13732   10.75097    
 C                     8.60903   8.74694   10.7983    
 C                     10.39354   9.17514   9.58448    
 N                     9.86578   10.39756   9.97135    
 H                     10.30519   11.31001   9.83292    
 H                     8.14327   10.91239   11.17911    
 H                     7.86668   8.14518   11.28329    
 H                     11.29007   9.06713   8.99469    
 N                     9.63754   8.16764   10.07163    
 O                     11.17167   6.08944   10.8282    
 H                     10.33812   6.52878   10.50738    
 H                     11.82624   6.34333   10.17646    
 O                     11.9724   11.9307   10.10707    
 H                     12.12697   12.57315   10.79973    
 H                     12.34758   11.10451   10.46229    
 
 ITRead=  0  0  0  0  0  0  0  0  0  0  0  0  0  0  0
 MicOpt= -1 -1 -1 -1 -1 -1 -1 -1 -1 -1 -1 -1 -1 -1 -1
 NAtoms=     15 NQM=       15 NQMF=       0 NMMI=      0 NMMIF=      0
                NMic=       0 NMicF=      0.
                    Isotopes and Nuclear Properties:
 (Nuclear quadrupole moments (NQMom) in fm**2, nuclear magnetic moments (NMagM)
  in nuclear magnetons)

  Atom         1           2           3           4           5           6           7           8           9          10
 IAtWgt=          12          12          12          14           1           1           1           1          14          16
 AtmWgt=  12.0000000  12.0000000  12.0000000  14.0030740   1.0078250   1.0078250   1.0078250   1.0078250  14.0030740  15.9949146
 NucSpn=           0           0           0           2           1           1           1           1           2           0
 AtZEff=  -0.0000000  -0.0000000  -0.0000000  -0.0000000  -0.0000000  -0.0000000  -0.0000000  -0.0000000  -0.0000000  -0.0000000
 NQMom=    0.0000000   0.0000000   0.0000000   2.0440000   0.0000000   0.0000000   0.0000000   0.0000000   2.0440000   0.0000000
 NMagM=    0.0000000   0.0000000   0.0000000   0.4037610   2.7928460   2.7928460   2.7928460   2.7928460   0.4037610   0.0000000
 AtZNuc=   6.0000000   6.0000000   6.0000000   7.0000000   1.0000000   1.0000000   1.0000000   1.0000000   7.0000000   8.0000000

  Atom        11          12          13          14          15
 IAtWgt=           1           1          16           1           1
 AtmWgt=   1.0078250   1.0078250  15.9949146   1.0078250   1.0078250
 NucSpn=           1           1           0           1           1
 AtZEff=  -0.0000000  -0.0000000  -0.0000000  -0.0000000  -0.0000000
 NQMom=    0.0000000   0.0000000   0.0000000   0.0000000   0.0000000
 NMagM=    2.7928460   2.7928460   0.0000000   2.7928460   2.7928460
 AtZNuc=   1.0000000   1.0000000   8.0000000   1.0000000   1.0000000
 Leave Link  101 at Fri Feb 17 21:12:04 2023, MaxMem=  6710886400 cpu:               2.0 elap:               0.1
 (Enter /data0/home/software/g16/l202.exe)
                          Input orientation:                          
 ---------------------------------------------------------------------
 Center     Atomic      Atomic             Coordinates (Angstroms)
 Number     Number       Type             X           Y           Z
 ---------------------------------------------------------------------
      1          6           0        8.741396   10.137319   10.750970
      2          6           0        8.609032    8.746942   10.798303
      3          6           0       10.393544    9.175138    9.584481
      4          7           0        9.865780   10.397563    9.971354
      5          1           0       10.305194   11.310013    9.832920
      6          1           0        8.143271   10.912390   11.179106
      7          1           0        7.866675    8.145185   11.283292
      8          1           0       11.290068    9.067134    8.994688
      9          7           0        9.637543    8.167640   10.071630
     10          8           0       11.171674    6.089443   10.828202
     11          1           0       10.338122    6.528784   10.507382
     12          1           0       11.826239    6.343333   10.176461
     13          8           0       11.972402   11.930695   10.107068
     14          1           0       12.126966   12.573149   10.799733
     15          1           0       12.347576   11.104515   10.462291
 ---------------------------------------------------------------------
                    Distance matrix (angstroms):
                    1          2          3          4          5
     1  C    0.000000
     2  C    1.397465   0.000000
     3  C    2.239661   2.200272   0.000000
     4  N    1.392755   2.233341   1.386553   0.000000
     5  H    2.159512   3.221531   2.151097   1.022161   0.000000
     6  H    1.068545   2.247467   3.259540   2.165814   2.577641
     7  H    2.239889   1.071643   3.214316   3.284937   4.250422
     8  H    3.274989   3.247076   1.078553   2.180026   2.589038
     9  N    2.268087   1.386174   1.350520   2.243815   3.221374
    10  O    4.722025   3.691928   3.416700   4.582515   5.384768
    11  H    3.953529   2.827475   2.803214   3.934194   4.828678
    12  H    4.923479   4.063797   3.228339   4.508021   5.205719
    13  O    3.751027   4.682558   3.218538   2.608978   1.799996
    14  H    4.171059   5.197665   4.003507   3.245358   2.418490
    15  H    3.744775   4.432580   2.882930   2.626806   2.147012
                    6          7          8          9         10
     6  H    0.000000
     7  H    2.782945   0.000000
     8  H    4.251939   4.219872   0.000000
     9  N    3.315570   2.145834   2.167887   0.000000
    10  O    5.705714   3.918699   3.498919   2.691628   0.000000
    11  H    4.948190   3.053332   3.104459   1.834813   0.995367
    12  H    5.953640   4.488863   3.017144   2.851224   0.957957
    13  O    4.104687   5.707064   3.146895   4.428702   5.939817
    14  H    4.332652   6.163666   4.031219   5.112325   6.553765
    15  H    4.269299   5.432325   2.724537   4.015237   5.164067
                   11         12         13         14         15
    11  H    0.000000
    12  H    1.535706   0.000000
    13  O    5.657894   5.589704   0.000000
    14  H    6.310292   6.268135   0.957299   0.000000
    15  H    4.997725   4.798161   0.974429   1.522965   0.000000
 Symmetry turned off by external request.
 Stoichiometry    C3H8N2O2
 Framework group  C1[X(C3H8N2O2)]
 Deg. of freedom    39
 Full point group                 C1      NOp   1
 Rotational constants (GHZ):           3.0571455           1.3081259           0.9802310
 Leave Link  202 at Fri Feb 17 21:12:04 2023, MaxMem=  6710886400 cpu:               0.1 elap:               0.0
 (Enter /data0/home/software/g16/l122.exe)
 Counterpoise: doing full-system calculation.
 Leave Link  122 at Fri Feb 17 21:12:04 2023, MaxMem=  6710886400 cpu:               0.1 elap:               0.0
 (Enter /data0/home/software/g16/l301.exe)
 Standard basis: 6-311+G(2d,p) (5D, 7F)
 Ernie: Thresh=  0.10000D-02 Tol=  0.10000D-05 Strict=F.
   237 basis functions,   358 primitive gaussians,   251 cartesian basis functions
    28 alpha electrons       28 beta electrons
       nuclear repulsion energy       294.5957455059 Hartrees.
 IExCor= 4336 DFT=T Ex+Corr=M062X ExCW=0 ScaHFX=  0.540000
 ScaDFX=  1.000000  1.000000  1.000000  1.000000 ScalE2=  1.000000  1.000000
 IRadAn=      5 IRanWt=     -1 IRanGd=            0 ICorTp=0 IEmpDi=131
 NAtoms=   15 NActive=   15 NUniq=   15 SFac= 1.00D+00 NAtFMM=   60 NAOKFM=F Big=F
 Integral buffers will be    131072 words long.
 Raffenetti 2 integral format.
 Two-electron integral symmetry is turned off.
 R6Disp:  Grimme-D3 Dispersion energy=       -0.0003658910 Hartrees.
 Nuclear repulsion after empirical dispersion term =      294.5953796149 Hartrees.
 Leave Link  301 at Fri Feb 17 21:12:04 2023, MaxMem=  6710886400 cpu:               1.1 elap:               0.1
 (Enter /data0/home/software/g16/l302.exe)
 NPDir=0 NMtPBC=     1 NCelOv=     1 NCel=       1 NClECP=     1 NCelD=      1
         NCelK=      1 NCelE2=     1 NClLst=     1 CellRange=     0.0.
 One-electron integrals computed using PRISM.
 NBasis=   237 RedAO= T EigKep=  5.20D-05  NBF=   237
 NBsUse=   237 1.00D-06 EigRej= -1.00D+00 NBFU=   237
 Precomputing XC quadrature grid using
 IXCGrd= 4 IRadAn=           5 IRanWt=          -1 IRanGd=           0 AccXCQ= 0.00D+00.
 Generated NRdTot=       0 NPtTot=           0 NUsed=           0 NTot=          32
 NSgBfM=   251   251   251   251   251 MxSgAt=    15 MxSgA2=    15.
 Leave Link  302 at Fri Feb 17 21:12:04 2023, MaxMem=  6710886400 cpu:               3.8 elap:               0.2
 (Enter /data0/home/software/g16/l303.exe)
 DipDrv:  MaxL=1.
 Leave Link  303 at Fri Feb 17 21:12:04 2023, MaxMem=  6710886400 cpu:               0.6 elap:               0.0
 (Enter /data0/home/software/g16/l401.exe)
 ExpMin= 4.38D-02 ExpMax= 8.59D+03 ExpMxC= 1.30D+03 IAcc=3 IRadAn=         5 AccDes= 0.00D+00
 Harris functional with IExCor= 1009 and IRadAn=       5 diagonalized for initial guess.
 HarFok:  IExCor= 1009 AccDes= 0.00D+00 IRadAn=         5 IDoV= 1 UseB2=F ITyADJ=14
 ICtDFT=  3500011 ScaDFX=  1.000000  1.000000  1.000000  1.000000
 FoFCou: FMM=F IPFlag=           0 FMFlag=      100000 FMFlg1=           0
         NFxFlg=           0 DoJE=T BraDBF=F KetDBF=T FulRan=T
         wScrn=  0.000000 ICntrl=       500 IOpCl=  0 I1Cent=   200000004 NGrid=           0
         NMat0=    1 NMatS0=      1 NMatT0=    0 NMatD0=    1 NMtDS0=    0 NMtDT0=    0
 Symmetry not used in FoFCou.
 Harris En= -378.884542332889    
 JPrj=0 DoOrth=F DoCkMO=F.
 Leave Link  401 at Fri Feb 17 21:12:05 2023, MaxMem=  6710886400 cpu:              11.5 elap:               0.5
 (Enter /data0/home/software/g16/l502.exe)
 Two-electron integral symmetry not used.
 Closed shell SCF:
 Using DIIS extrapolation, IDIIS=  1040.
 NGot=  6710886400 LenX=  6710752512 LenY=  6710689070
 Requested convergence on RMS density matrix=1.00D-08 within 128 cycles.
 Requested convergence on MAX density matrix=1.00D-06.
 Requested convergence on             energy=1.00D-06.
 No special actions if energy rises.
 Fock matrices will be formed incrementally for  20 cycles.

 Cycle   1  Pass 1  IDiag  1:
 FoFJK:  IHMeth= 1 ICntrl=       0 DoSepK=F KAlg= 0 I1Cent=           0 FoldK=F
 IRaf= 930000000 NMat=       1 IRICut=       1 DoRegI=T DoRafI=F ISym2E= 0 IDoP0=0 IntGTp=1.
 FoFCou: FMM=F IPFlag=           0 FMFlag=      100000 FMFlg1=           0
         NFxFlg=           0 DoJE=F BraDBF=F KetDBF=F FulRan=T
         wScrn=  0.000000 ICntrl=         0 IOpCl=  0 I1Cent=           0 NGrid=           0
         NMat0=    1 NMatS0=      1 NMatT0=    0 NMatD0=    1 NMtDS0=    0 NMtDT0=    0
 Symmetry not used in FoFCou.
 E= -378.811887432784    
 DIIS: error= 2.81D-02 at cycle   1 NSaved=   1.
 NSaved= 1 IEnMin= 1 EnMin= -378.811887432784     IErMin= 1 ErrMin= 2.81D-02
 ErrMax= 2.81D-02  0.00D+00 EMaxC= 1.00D-01 BMatC= 3.55D-01 BMatP= 3.55D-01
 IDIUse=3 WtCom= 7.19D-01 WtEn= 2.81D-01
 Coeff-Com:  0.100D+01
 Coeff-En:   0.100D+01
 Coeff:      0.100D+01
 Gap=     0.309 Goal=   None    Shift=    0.000
 GapD=    0.309 DampG=1.000 DampE=0.500 DampFc=0.5000 IDamp=-1.
 Damping current iteration by 5.00D-01
 RMSDP=4.86D-03 MaxDP=2.94D-01              OVMax= 1.90D-01

 Cycle   2  Pass 1  IDiag  1:
 RMSU=  2.43D-03    CP:  1.01D+00
 E= -378.915748247812     Delta-E=       -0.103860815027 Rises=F Damp=T
 DIIS: error= 7.83D-03 at cycle   2 NSaved=   2.
 NSaved= 2 IEnMin= 2 EnMin= -378.915748247812     IErMin= 2 ErrMin= 7.83D-03
 ErrMax= 7.83D-03  0.00D+00 EMaxC= 1.00D-01 BMatC= 2.39D-02 BMatP= 3.55D-01
 IDIUse=3 WtCom= 9.22D-01 WtEn= 7.83D-02
 Coeff-Com:  0.146D-01 0.985D+00
 Coeff-En:   0.827D-01 0.917D+00
 Coeff:      0.200D-01 0.980D+00
 Gap=     0.343 Goal=   None    Shift=    0.000
 RMSDP=1.02D-03 MaxDP=4.81D-02 DE=-1.04D-01 OVMax= 1.14D-01

 Cycle   3  Pass 1  IDiag  1:
 RMSU=  9.26D-04    CP:  9.99D-01  8.22D-01
 E= -379.038579384874     Delta-E=       -0.122831137062 Rises=F Damp=F
 DIIS: error= 3.97D-03 at cycle   3 NSaved=   3.
 NSaved= 3 IEnMin= 3 EnMin= -379.038579384874     IErMin= 3 ErrMin= 3.97D-03
 ErrMax= 3.97D-03  0.00D+00 EMaxC= 1.00D-01 BMatC= 5.75D-03 BMatP= 2.39D-02
 IDIUse=3 WtCom= 9.60D-01 WtEn= 3.97D-02
 Coeff-Com: -0.610D-01 0.288D+00 0.773D+00
 Coeff-En:   0.000D+00 0.000D+00 0.100D+01
 Coeff:     -0.586D-01 0.276D+00 0.782D+00
 Gap=     0.292 Goal=   None    Shift=    0.000
 RMSDP=3.53D-04 MaxDP=1.29D-02 DE=-1.23D-01 OVMax= 2.27D-02

 Cycle   4  Pass 1  IDiag  1:
 RMSU=  3.37D-04    CP:  9.97D-01  8.55D-01  9.36D-01
 E= -379.041880631680     Delta-E=       -0.003301246806 Rises=F Damp=F
 DIIS: error= 2.35D-03 at cycle   4 NSaved=   4.
 NSaved= 4 IEnMin= 4 EnMin= -379.041880631680     IErMin= 4 ErrMin= 2.35D-03
 ErrMax= 2.35D-03  0.00D+00 EMaxC= 1.00D-01 BMatC= 1.36D-03 BMatP= 5.75D-03
 IDIUse=3 WtCom= 9.77D-01 WtEn= 2.35D-02
 Coeff-Com: -0.311D-01 0.830D-01 0.401D+00 0.547D+00
 Coeff-En:   0.000D+00 0.000D+00 0.160D+00 0.840D+00
 Coeff:     -0.303D-01 0.810D-01 0.395D+00 0.554D+00
 Gap=     0.286 Goal=   None    Shift=    0.000
 RMSDP=1.35D-04 MaxDP=4.85D-03 DE=-3.30D-03 OVMax= 1.01D-02

 Cycle   5  Pass 1  IDiag  1:
 RMSU=  1.11D-04    CP:  9.96D-01  8.47D-01  9.83D-01  8.29D-01
 E= -379.042974514526     Delta-E=       -0.001093882846 Rises=F Damp=F
 DIIS: error= 5.73D-04 at cycle   5 NSaved=   5.
 NSaved= 5 IEnMin= 5 EnMin= -379.042974514526     IErMin= 5 ErrMin= 5.73D-04
 ErrMax= 5.73D-04  0.00D+00 EMaxC= 1.00D-01 BMatC= 9.47D-05 BMatP= 1.36D-03
 IDIUse=3 WtCom= 9.94D-01 WtEn= 5.73D-03
 Coeff-Com: -0.108D-01 0.214D-01 0.143D+00 0.277D+00 0.569D+00
 Coeff-En:   0.000D+00 0.000D+00 0.000D+00 0.000D+00 0.100D+01
 Coeff:     -0.108D-01 0.213D-01 0.142D+00 0.276D+00 0.572D+00
 Gap=     0.284 Goal=   None    Shift=    0.000
 RMSDP=4.50D-05 MaxDP=1.44D-03 DE=-1.09D-03 OVMax= 2.96D-03

 Cycle   6  Pass 1  IDiag  1:
 RMSU=  3.02D-05    CP:  9.96D-01  8.46D-01  9.86D-01  8.09D-01  7.07D-01
 E= -379.043052803341     Delta-E=       -0.000078288815 Rises=F Damp=F
 DIIS: error= 1.40D-04 at cycle   6 NSaved=   6.
 NSaved= 6 IEnMin= 6 EnMin= -379.043052803341     IErMin= 6 ErrMin= 1.40D-04
 ErrMax= 1.40D-04  0.00D+00 EMaxC= 1.00D-01 BMatC= 7.49D-06 BMatP= 9.47D-05
 IDIUse=3 WtCom= 9.99D-01 WtEn= 1.40D-03
 Coeff-Com: -0.171D-02 0.126D-02 0.245D-01 0.648D-01 0.260D+00 0.651D+00
 Coeff-En:   0.000D+00 0.000D+00 0.000D+00 0.000D+00 0.000D+00 0.100D+01
 Coeff:     -0.171D-02 0.126D-02 0.244D-01 0.647D-01 0.260D+00 0.652D+00
 Gap=     0.285 Goal=   None    Shift=    0.000
 RMSDP=1.51D-05 MaxDP=6.27D-04 DE=-7.83D-05 OVMax= 6.77D-04

 Cycle   7  Pass 1  IDiag  1:
 RMSU=  9.04D-06    CP:  9.96D-01  8.45D-01  9.90D-01  8.28D-01  7.80D-01
                    CP:  8.64D-01
 E= -379.043059469510     Delta-E=       -0.000006666169 Rises=F Damp=F
 DIIS: error= 4.07D-05 at cycle   7 NSaved=   7.
 NSaved= 7 IEnMin= 7 EnMin= -379.043059469510     IErMin= 7 ErrMin= 4.07D-05
 ErrMax= 4.07D-05  0.00D+00 EMaxC= 1.00D-01 BMatC= 2.84D-07 BMatP= 7.49D-06
 IDIUse=1 WtCom= 1.00D+00 WtEn= 0.00D+00
 Coeff-Com:  0.923D-03-0.216D-02-0.103D-01-0.198D-01-0.133D-01 0.103D+00
 Coeff-Com:  0.942D+00
 Coeff:      0.923D-03-0.216D-02-0.103D-01-0.198D-01-0.133D-01 0.103D+00
 Coeff:      0.942D+00
 Gap=     0.285 Goal=   None    Shift=    0.000
 RMSDP=5.53D-06 MaxDP=2.40D-04 DE=-6.67D-06 OVMax= 2.44D-04

 Cycle   8  Pass 1  IDiag  1:
 RMSU=  2.97D-06    CP:  9.96D-01  8.44D-01  9.91D-01  8.29D-01  7.88D-01
                    CP:  9.52D-01  1.18D+00
 E= -379.043059760459     Delta-E=       -0.000000290948 Rises=F Damp=F
 DIIS: error= 1.99D-05 at cycle   8 NSaved=   8.
 NSaved= 8 IEnMin= 8 EnMin= -379.043059760459     IErMin= 8 ErrMin= 1.99D-05
 ErrMax= 1.99D-05  0.00D+00 EMaxC= 1.00D-01 BMatC= 1.28D-07 BMatP= 2.84D-07
 IDIUse=1 WtCom= 1.00D+00 WtEn= 0.00D+00
 Coeff-Com:  0.634D-03-0.123D-02-0.744D-02-0.161D-01-0.277D-01-0.353D-02
 Coeff-Com:  0.502D+00 0.554D+00
 Coeff:      0.634D-03-0.123D-02-0.744D-02-0.161D-01-0.277D-01-0.353D-02
 Coeff:      0.502D+00 0.554D+00
 Gap=     0.285 Goal=   None    Shift=    0.000
 RMSDP=1.52D-06 MaxDP=4.04D-05 DE=-2.91D-07 OVMax= 1.16D-04

 Cycle   9  Pass 1  IDiag  1:
 RMSU=  1.09D-06    CP:  9.96D-01  8.44D-01  9.91D-01  8.30D-01  7.93D-01
                    CP:  9.59D-01  1.24D+00  8.30D-01
 E= -379.043059875269     Delta-E=       -0.000000114810 Rises=F Damp=F
 DIIS: error= 3.18D-06 at cycle   9 NSaved=   9.
 NSaved= 9 IEnMin= 9 EnMin= -379.043059875269     IErMin= 9 ErrMin= 3.18D-06
 ErrMax= 3.18D-06  0.00D+00 EMaxC= 1.00D-01 BMatC= 2.21D-09 BMatP= 1.28D-07
 IDIUse=1 WtCom= 1.00D+00 WtEn= 0.00D+00
 Coeff-Com: -0.412D-04 0.936D-04 0.350D-03 0.217D-03-0.119D-03-0.111D-01
 Coeff-Com: -0.367D-01 0.516D-01 0.996D+00
 Coeff:     -0.412D-04 0.936D-04 0.350D-03 0.217D-03-0.119D-03-0.111D-01
 Coeff:     -0.367D-01 0.516D-01 0.996D+00
 Gap=     0.285 Goal=   None    Shift=    0.000
 RMSDP=5.43D-07 MaxDP=2.00D-05 DE=-1.15D-07 OVMax= 2.42D-05

 Cycle  10  Pass 1  IDiag  1:
 RMSU=  2.00D-07    CP:  9.96D-01  8.44D-01  9.91D-01  8.29D-01  7.93D-01
                    CP:  9.61D-01  1.27D+00  9.44D-01  1.18D+00
 E= -379.043059878184     Delta-E=       -0.000000002915 Rises=F Damp=F
 DIIS: error= 1.78D-06 at cycle  10 NSaved=  10.
 NSaved=10 IEnMin=10 EnMin= -379.043059878184     IErMin=10 ErrMin= 1.78D-06
 ErrMax= 1.78D-06  0.00D+00 EMaxC= 1.00D-01 BMatC= 4.85D-10 BMatP= 2.21D-09
 IDIUse=1 WtCom= 1.00D+00 WtEn= 0.00D+00
 Coeff-Com: -0.515D-04 0.107D-03 0.540D-03 0.884D-03 0.146D-02-0.530D-02
 Coeff-Com: -0.413D-01-0.571D-02 0.437D+00 0.612D+00
 Coeff:     -0.515D-04 0.107D-03 0.540D-03 0.884D-03 0.146D-02-0.530D-02
 Coeff:     -0.413D-01-0.571D-02 0.437D+00 0.612D+00
 Gap=     0.285 Goal=   None    Shift=    0.000
 RMSDP=9.05D-08 MaxDP=2.48D-06 DE=-2.92D-09 OVMax= 1.17D-05

 Cycle  11  Pass 1  IDiag  1:
 RMSU=  6.87D-08    CP:  9.96D-01  8.44D-01  9.91D-01  8.29D-01  7.93D-01
                    CP:  9.61D-01  1.27D+00  9.47D-01  1.22D+00  8.93D-01
 E= -379.043059878654     Delta-E=       -0.000000000470 Rises=F Damp=F
 DIIS: error= 4.52D-07 at cycle  11 NSaved=  11.
 NSaved=11 IEnMin=11 EnMin= -379.043059878654     IErMin=11 ErrMin= 4.52D-07
 ErrMax= 4.52D-07  0.00D+00 EMaxC= 1.00D-01 BMatC= 5.07D-11 BMatP= 4.85D-10
 IDIUse=1 WtCom= 1.00D+00 WtEn= 0.00D+00
 Coeff-Com: -0.776D-05 0.162D-04 0.101D-03 0.190D-03 0.457D-03-0.350D-03
 Coeff-Com: -0.690D-02-0.981D-02-0.232D-01 0.217D+00 0.823D+00
 Coeff:     -0.776D-05 0.162D-04 0.101D-03 0.190D-03 0.457D-03-0.350D-03
 Coeff:     -0.690D-02-0.981D-02-0.232D-01 0.217D+00 0.823D+00
 Gap=     0.285 Goal=   None    Shift=    0.000
 RMSDP=4.35D-08 MaxDP=2.30D-06 DE=-4.70D-10 OVMax= 2.52D-06

 Cycle  12  Pass 1  IDiag  1:
 RMSU=  2.50D-08    CP:  9.96D-01  8.44D-01  9.91D-01  8.29D-01  7.93D-01
                    CP:  9.61D-01  1.27D+00  9.53D-01  1.23D+00  9.89D-01
                    CP:  9.78D-01
 E= -379.043059878715     Delta-E=       -0.000000000061 Rises=F Damp=F
 DIIS: error= 1.50D-07 at cycle  12 NSaved=  12.
 NSaved=12 IEnMin=12 EnMin= -379.043059878715     IErMin=12 ErrMin= 1.50D-07
 ErrMax= 1.50D-07  0.00D+00 EMaxC= 1.00D-01 BMatC= 1.74D-12 BMatP= 5.07D-11
 IDIUse=1 WtCom= 1.00D+00 WtEn= 0.00D+00
 Coeff-Com:  0.274D-05-0.541D-05-0.174D-04-0.355D-04-0.986D-05 0.276D-03
 Coeff-Com:  0.185D-02-0.900D-03-0.331D-01-0.537D-02 0.130D+00 0.907D+00
 Coeff:      0.274D-05-0.541D-05-0.174D-04-0.355D-04-0.986D-05 0.276D-03
 Coeff:      0.185D-02-0.900D-03-0.331D-01-0.537D-02 0.130D+00 0.907D+00
 Gap=     0.285 Goal=   None    Shift=    0.000
 RMSDP=1.10D-08 MaxDP=2.29D-07 DE=-6.08D-11 OVMax= 1.31D-06

 Cycle  13  Pass 1  IDiag  1:
 RMSU=  7.36D-09    CP:  9.96D-01  8.44D-01  9.91D-01  8.29D-01  7.93D-01
                    CP:  9.61D-01  1.27D+00  9.53D-01  1.23D+00  1.01D+00
                    CP:  1.05D+00  1.12D+00
 E= -379.043059878715     Delta-E=        0.000000000000 Rises=F Damp=F
 DIIS: error= 4.43D-08 at cycle  13 NSaved=  13.
 NSaved=13 IEnMin=12 EnMin= -379.043059878715     IErMin=13 ErrMin= 4.43D-08
 ErrMax= 4.43D-08  0.00D+00 EMaxC= 1.00D-01 BMatC= 4.32D-13 BMatP= 1.74D-12
 IDIUse=1 WtCom= 1.00D+00 WtEn= 0.00D+00
 Coeff-Com:  0.184D-05-0.370D-05-0.144D-04-0.286D-04-0.334D-04 0.180D-03
 Coeff-Com:  0.133D-02 0.352D-03-0.138D-01-0.224D-01-0.192D-01 0.378D+00
 Coeff-Com:  0.675D+00
 Coeff:      0.184D-05-0.370D-05-0.144D-04-0.286D-04-0.334D-04 0.180D-03
 Coeff:      0.133D-02 0.352D-03-0.138D-01-0.224D-01-0.192D-01 0.378D+00
 Coeff:      0.675D+00
 Gap=     0.285 Goal=   None    Shift=    0.000
 RMSDP=3.67D-09 MaxDP=1.19D-07 DE= 1.14D-13 OVMax= 1.39D-07

 SCF Done:  E(RM062X) =  -379.043059879     A.U. after   13 cycles
            NFock= 13  Conv=0.37D-08     -V/T= 2.0041
 KE= 3.774870542046D+02 PE=-1.477260264842D+03 EE= 4.261347711438D+02
 Leave Link  502 at Fri Feb 17 21:12:19 2023, MaxMem=  6710886400 cpu:             335.4 elap:              14.0
 (Enter /data0/home/software/g16/l601.exe)
 Copying SCF densities to generalized density rwf, IOpCl= 0 IROHF=0.

 **********************************************************************

            Population analysis using the SCF density.

 **********************************************************************

 Alpha  occ. eigenvalues --  -19.67030 -19.56960 -14.80914 -14.74775 -10.61244
 Alpha  occ. eigenvalues --  -10.58064 -10.56506  -1.18302  -1.12094  -1.07711
 Alpha  occ. eigenvalues --   -0.97512  -0.84314  -0.70632  -0.67731  -0.65725
 Alpha  occ. eigenvalues --   -0.64481  -0.55678  -0.53745  -0.51407  -0.51201
 Alpha  occ. eigenvalues --   -0.50095  -0.48860  -0.44352  -0.43477  -0.35937
 Alpha  occ. eigenvalues --   -0.35256  -0.33715  -0.29078
 Alpha virt. eigenvalues --   -0.00582   0.01751   0.02695   0.03249   0.04619
 Alpha virt. eigenvalues --    0.05396   0.05844   0.06498   0.07223   0.08646
 Alpha virt. eigenvalues --    0.09482   0.10073   0.12077   0.12956   0.14253
 Alpha virt. eigenvalues --    0.15094   0.15964   0.17242   0.18719   0.18874
 Alpha virt. eigenvalues --    0.19729   0.20649   0.21039   0.21531   0.22119
 Alpha virt. eigenvalues --    0.23054   0.23431   0.24391   0.25399   0.25853
 Alpha virt. eigenvalues --    0.27066   0.27575   0.27853   0.28765   0.30007
 Alpha virt. eigenvalues --    0.31112   0.33316   0.34223   0.37173   0.41359
 Alpha virt. eigenvalues --    0.42578   0.43776   0.46961   0.48204   0.50207
 Alpha virt. eigenvalues --    0.53555   0.55647   0.56233   0.56353   0.58324
 Alpha virt. eigenvalues --    0.61087   0.61566   0.63657   0.64760   0.66976
 Alpha virt. eigenvalues --    0.67615   0.68368   0.69585   0.73006   0.75844
 Alpha virt. eigenvalues --    0.78501   0.78688   0.79868   0.81061   0.84392
 Alpha virt. eigenvalues --    0.84843   0.88022   0.89890   0.91088   0.91540
 Alpha virt. eigenvalues --    0.93202   0.95657   1.00068   1.00668   1.02208
 Alpha virt. eigenvalues --    1.03698   1.06492   1.07497   1.09039   1.10416
 Alpha virt. eigenvalues --    1.14562   1.16566   1.18448   1.19757   1.24222
 Alpha virt. eigenvalues --    1.24776   1.27483   1.28918   1.30745   1.32525
 Alpha virt. eigenvalues --    1.34451   1.35797   1.39606   1.39951   1.41354
 Alpha virt. eigenvalues --    1.42078   1.45470   1.46017   1.47430   1.48259
 Alpha virt. eigenvalues --    1.50554   1.54094   1.54965   1.65788   1.69467
 Alpha virt. eigenvalues --    1.69540   1.72260   1.73389   1.74868   1.75762
 Alpha virt. eigenvalues --    1.80366   1.81516   1.83145   1.88381   1.91112
 Alpha virt. eigenvalues --    1.94338   1.98269   2.01125   2.05167   2.06726
 Alpha virt. eigenvalues --    2.10485   2.14107   2.18827   2.24157   2.30557
 Alpha virt. eigenvalues --    2.31364   2.37648   2.42249   2.43866   2.45757
 Alpha virt. eigenvalues --    2.49685   2.50949   2.55950   2.58019   2.65481
 Alpha virt. eigenvalues --    2.68507   2.70311   2.78198   2.79521   2.82587
 Alpha virt. eigenvalues --    2.84720   2.88170   2.89806   2.93331   2.98140
 Alpha virt. eigenvalues --    3.01732   3.03393   3.09234   3.13433   3.17533
 Alpha virt. eigenvalues --    3.24579   3.30428   3.33285   3.35094   3.38208
 Alpha virt. eigenvalues --    3.38602   3.43199   3.45677   3.46075   3.52693
 Alpha virt. eigenvalues --    3.57353   3.59179   3.65745   3.66401   3.69827
 Alpha virt. eigenvalues --    3.72737   3.95981   3.98122   3.99003   4.01224
 Alpha virt. eigenvalues --    4.06935   4.48450   4.60412   4.89890   4.95693
 Alpha virt. eigenvalues --    4.98363   5.01870   5.04146   5.06018   5.09422
 Alpha virt. eigenvalues --    5.11106   5.18159   5.22068   5.26843   5.33953
 Alpha virt. eigenvalues --    5.44694   5.50229   5.54249   5.57170   5.60414
 Alpha virt. eigenvalues --    5.89538   6.00051   6.77953   6.81403   6.84748
 Alpha virt. eigenvalues --    6.87491   6.88361   6.93079   6.95231   6.98025
 Alpha virt. eigenvalues --    7.06771   7.19042  23.91116  24.08462  24.13418
 Alpha virt. eigenvalues --   35.64551  35.69548  49.96298  50.04504
          Condensed to atoms (all electrons):
               1          2          3          4          5          6
     1  C    5.565905   0.098301  -0.198837   0.298577  -0.034973   0.392827
     2  C    0.098301   5.496906  -0.153021  -0.053423   0.022787  -0.012152
     3  C   -0.198837  -0.153021   5.104270   0.362638  -0.030106   0.011110
     4  N    0.298577  -0.053423   0.362638   6.398644   0.360172  -0.037913
     5  H   -0.034973   0.022787  -0.030106   0.360172   0.387644  -0.001532
     6  H    0.392827  -0.012152   0.011110  -0.037913  -0.001532   0.506898
     7  H   -0.060116   0.436723   0.013102   0.010410  -0.000090  -0.000419
     8  H    0.003424   0.014225   0.424516  -0.048697  -0.000506  -0.000068
     9  N    0.083828   0.166644   0.473648  -0.058177   0.005248   0.006084
    10  O   -0.007566   0.005706   0.016126  -0.003274   0.000197   0.000020
    11  H   -0.003790   0.012027  -0.015034   0.002865  -0.000073  -0.000009
    12  H   -0.002126   0.008068  -0.008871   0.000802  -0.000005  -0.000001
    13  O   -0.021899   0.001122   0.024600   0.002083  -0.058081  -0.000418
    14  H    0.000967  -0.000378  -0.000054   0.000593   0.001896   0.000033
    15  H    0.002271  -0.000019   0.001475   0.000923   0.001069   0.000041
               7          8          9         10         11         12
     1  C   -0.060116   0.003424   0.083828  -0.007566  -0.003790  -0.002126
     2  C    0.436723   0.014225   0.166644   0.005706   0.012027   0.008068
     3  C    0.013102   0.424516   0.473648   0.016126  -0.015034  -0.008871
     4  N    0.010410  -0.048697  -0.058177  -0.003274   0.002865   0.000802
     5  H   -0.000090  -0.000506   0.005248   0.000197  -0.000073  -0.000005
     6  H   -0.000419  -0.000068   0.006084   0.000020  -0.000009  -0.000001
     7  H    0.518968  -0.000077  -0.049274   0.000782  -0.000289   0.000071
     8  H   -0.000077   0.497605  -0.039442   0.000595  -0.000070  -0.000505
     9  N   -0.049274  -0.039442   6.784840  -0.042706   0.030693   0.011704
    10  O    0.000782   0.000595  -0.042706   8.007645   0.316560   0.294018
    11  H   -0.000289  -0.000070   0.030693   0.316560   0.327126  -0.025173
    12  H    0.000071  -0.000505   0.011704   0.294018  -0.025173   0.479034
    13  O    0.000037   0.000549  -0.002077   0.000064   0.000050   0.000024
    14  H   -0.000001   0.000113   0.000011  -0.000007  -0.000001  -0.000001
    15  H   -0.000000   0.000435  -0.000061  -0.000164  -0.000006  -0.000029
              13         14         15
     1  C   -0.021899   0.000967   0.002271
     2  C    0.001122  -0.000378  -0.000019
     3  C    0.024600  -0.000054   0.001475
     4  N    0.002083   0.000593   0.000923
     5  H   -0.058081   0.001896   0.001069
     6  H   -0.000418   0.000033   0.000041
     7  H    0.000037  -0.000001  -0.000000
     8  H    0.000549   0.000113   0.000435
     9  N   -0.002077   0.000011  -0.000061
    10  O    0.000064  -0.000007  -0.000164
    11  H    0.000050  -0.000001  -0.000006
    12  H    0.000024  -0.000001  -0.000029
    13  O    7.987411   0.323810   0.321386
    14  H    0.323810   0.393747  -0.021835
    15  H    0.321386  -0.021835   0.393967
 Mulliken charges:
               1
     1  C   -0.116792
     2  C   -0.043513
     3  C   -0.025560
     4  N   -0.236221
     5  H    0.346354
     6  H    0.135500
     7  H    0.130175
     8  H    0.147904
     9  N   -0.370961
    10  O   -0.587996
    11  H    0.355126
    12  H    0.242991
    13  O   -0.578660
    14  H    0.301106
    15  H    0.300549
 Sum of Mulliken charges =  -0.00000
 Mulliken charges with hydrogens summed into heavy atoms:
               1
     1  C    0.018708
     2  C    0.086662
     3  C    0.122344
     4  N    0.110133
     9  N   -0.370961
    10  O    0.010120
    13  O    0.022995
         Mulliken charges condensed to fragments:
      1     -0.033115
      2      0.010120
      3      0.022995
 Electronic spatial extent (au):  <R**2>=          60386.4565
 Charge=             -0.0000 electrons
 Dipole moment (field-independent basis, Debye):
    X=              1.0503    Y=              6.2192    Z=              0.0380  Tot=              6.3074
 Quadrupole moment (field-independent basis, Debye-Ang):
   XX=            -14.4641   YY=             65.2687   ZZ=            -44.2426
   XY=             77.9994   XZ=              8.3258   YZ=             74.0752
 Traceless Quadrupole moment (field-independent basis, Debye-Ang):
   XX=            -16.6514   YY=             63.0813   ZZ=            -46.4299
   XY=             77.9994   XZ=              8.3258   YZ=             74.0752
 Octapole moment (field-independent basis, Debye-Ang**2):
  XXX=           -751.5385  YYY=            301.0225  ZZZ=          -1383.3606  XYY=            842.5902
  XXY=            616.9004  XXZ=           -194.2873  XZZ=           -395.6004  YZZ=            455.3621
  YYZ=            854.5027  XYZ=            897.8981
 Hexadecapole moment (field-independent basis, Debye-Ang**3):
 XXXX=         -17564.3761 YYYY=          -3678.3306 ZZZZ=         -28780.9595 XXXY=           1282.7929
 XXXZ=          -8286.5890 YYYX=           5124.6508 YYYZ=           5756.7144 ZZZX=         -13744.4090
 ZZZY=          -2707.3241 XXYY=           7227.6675 XXZZ=          -7165.0900 YYZZ=           6754.3498
 XXYZ=           7371.3444 YYXZ=          10653.8087 ZZXY=           6061.2294
 N-N= 2.945953796149D+02 E-N=-1.477260266670D+03  KE= 3.774870542046D+02
 No NMR shielding tensors so no spin-rotation constants.
 Leave Link  601 at Fri Feb 17 21:12:19 2023, MaxMem=  6710886400 cpu:               2.2 elap:               0.1
 (Enter /data0/home/software/g16/l122.exe)
 CPIOFr:  IOpCl= 0 IRwI=-1 IRwCP=  731 ICalc= -1 LCPTot=       88173 Len1MO=      229755 IndFrg=       88173
 CPIOFr:  IOpCl= 0 IRwI=-1 IRwCP=  731 ICalc=  0 LCPTot=       88173 Len1MO=      229755 IndFrg=      317928
 Counterpoise: doing calculation for fragment   1 using the basis set of the full-system, NewBq=T
 Leave Link  122 at Fri Feb 17 21:12:19 2023, MaxMem=  6710886400 cpu:               0.1 elap:               0.0
 (Enter /data0/home/software/g16/l301.exe)
 Basis read from rwf:  (5D, 7F)
 No pseudopotential information found on rwf file.
   237 basis functions,   358 primitive gaussians,   251 cartesian basis functions
    18 alpha electrons       18 beta electrons
       nuclear repulsion energy       160.9675367572 Hartrees.
 IExCor= 4336 DFT=T Ex+Corr=M062X ExCW=0 ScaHFX=  0.540000
 ScaDFX=  1.000000  1.000000  1.000000  1.000000 ScalE2=  1.000000  1.000000
 IRadAn=      5 IRanWt=     -1 IRanGd=            0 ICorTp=0 IEmpDi=131
 NAtoms=   15 NActive=   15 NUniq=   15 SFac= 1.00D+00 NAtFMM=   60 NAOKFM=F Big=F
 Integral buffers will be    131072 words long.
 Raffenetti 2 integral format.
 Two-electron integral symmetry is turned off.
 R6Disp:  Grimme-D3 Dispersion energy=       -0.0000417885 Hartrees.
 Nuclear repulsion after empirical dispersion term =      160.9674949687 Hartrees.
 No density basis found on file   718.
 Leave Link  301 at Fri Feb 17 21:12:19 2023, MaxMem=  6710886400 cpu:               1.3 elap:               0.1
 (Enter /data0/home/software/g16/l302.exe)
 NPDir=0 NMtPBC=     1 NCelOv=     1 NCel=       1 NClECP=     1 NCelD=      1
         NCelK=      1 NCelE2=     1 NClLst=     1 CellRange=     0.0.
 One-electron integrals computed using PRISM.
 NBasis=   237 RedAO= T EigKep=  5.20D-05  NBF=   237
 NBsUse=   237 1.00D-06 EigRej= -1.00D+00 NBFU=   237
 Precomputing XC quadrature grid using
 IXCGrd= 4 IRadAn=           5 IRanWt=          -1 IRanGd=           0 AccXCQ= 0.00D+00.
 Generated NRdTot=       0 NPtTot=           0 NUsed=           0 NTot=          32
 NSgBfM=   251   251   251   251   251 MxSgAt=    15 MxSgA2=    15.
 Leave Link  302 at Fri Feb 17 21:12:19 2023, MaxMem=  6710886400 cpu:               3.8 elap:               0.2
 (Enter /data0/home/software/g16/l303.exe)
 DipDrv:  MaxL=1.
 Leave Link  303 at Fri Feb 17 21:12:19 2023, MaxMem=  6710886400 cpu:               0.6 elap:               0.0
 (Enter /data0/home/software/g16/l401.exe)
 ExpMin= 4.38D-02 ExpMax= 8.59D+03 ExpMxC= 1.30D+03 IAcc=3 IRadAn=         5 AccDes= 0.00D+00
 Harris functional with IExCor= 1009 and IRadAn=       5 diagonalized for initial guess.
 HarFok:  IExCor= 1009 AccDes= 0.00D+00 IRadAn=         5 IDoV= 1 UseB2=F ITyADJ=14
 ICtDFT=  3500011 ScaDFX=  1.000000  1.000000  1.000000  1.000000
 FoFCou: FMM=F IPFlag=           0 FMFlag=      100000 FMFlg1=           0
         NFxFlg=           0 DoJE=T BraDBF=F KetDBF=T FulRan=T
         wScrn=  0.000000 ICntrl=       500 IOpCl=  0 I1Cent=   200000004 NGrid=           0
         NMat0=    1 NMatS0=      1 NMatT0=    0 NMatD0=    1 NMtDS0=    0 NMtDT0=    0
 Symmetry not used in FoFCou.
 Harris En= -226.053846558285    
 JPrj=0 DoOrth=F DoCkMO=F.
 Leave Link  401 at Fri Feb 17 21:12:20 2023, MaxMem=  6710886400 cpu:              11.4 elap:               0.5
 (Enter /data0/home/software/g16/l502.exe)
 Two-electron integral symmetry not used.
 Closed shell SCF:
 Using DIIS extrapolation, IDIIS=  1040.
 NGot=  6710886400 LenX=  6710752512 LenY=  6710689070
 Requested convergence on RMS density matrix=1.00D-08 within 128 cycles.
 Requested convergence on MAX density matrix=1.00D-06.
 Requested convergence on             energy=1.00D-06.
 No special actions if energy rises.
 Fock matrices will be formed incrementally for  20 cycles.

 Cycle   1  Pass 1  IDiag  1:
 FoFJK:  IHMeth= 1 ICntrl=       0 DoSepK=F KAlg= 0 I1Cent=           0 FoldK=F
 IRaf= 930000000 NMat=       1 IRICut=       1 DoRegI=T DoRafI=F ISym2E= 0 IDoP0=0 IntGTp=1.
 FoFCou: FMM=F IPFlag=           0 FMFlag=      100000 FMFlg1=           0
         NFxFlg=           0 DoJE=F BraDBF=F KetDBF=F FulRan=T
         wScrn=  0.000000 ICntrl=         0 IOpCl=  0 I1Cent=           0 NGrid=           0
         NMat0=    1 NMatS0=      1 NMatT0=    0 NMatD0=    1 NMtDS0=    0 NMtDT0=    0
 Symmetry not used in FoFCou.
 E= -226.086777157319    
 DIIS: error= 1.85D-02 at cycle   1 NSaved=   1.
 NSaved= 1 IEnMin= 1 EnMin= -226.086777157319     IErMin= 1 ErrMin= 1.85D-02
 ErrMax= 1.85D-02  0.00D+00 EMaxC= 1.00D-01 BMatC= 1.33D-01 BMatP= 1.33D-01
 IDIUse=3 WtCom= 8.15D-01 WtEn= 1.85D-01
 Coeff-Com:  0.100D+01
 Coeff-En:   0.100D+01
 Coeff:      0.100D+01
 Gap=     0.309 Goal=   None    Shift=    0.000
 GapD=    0.309 DampG=1.000 DampE=0.500 DampFc=0.5000 IDamp=-1.
 Damping current iteration by 5.00D-01
 RMSDP=3.74D-03 MaxDP=2.32D-01              OVMax= 1.75D-01

 Cycle   2  Pass 1  IDiag  1:
 RMSU=  1.87D-03    CP:  1.01D+00
 E= -226.134155124440     Delta-E=       -0.047377967121 Rises=F Damp=T
 DIIS: error= 6.45D-03 at cycle   2 NSaved=   2.
 NSaved= 2 IEnMin= 2 EnMin= -226.134155124440     IErMin= 2 ErrMin= 6.45D-03
 ErrMax= 6.45D-03  0.00D+00 EMaxC= 1.00D-01 BMatC= 1.57D-02 BMatP= 1.33D-01
 IDIUse=3 WtCom= 9.36D-01 WtEn= 6.45D-02
 Coeff-Com: -0.939D-01 0.109D+01
 Coeff-En:   0.000D+00 0.100D+01
 Coeff:     -0.878D-01 0.109D+01
 Gap=     0.288 Goal=   None    Shift=    0.000
 RMSDP=9.89D-04 MaxDP=6.14D-02 DE=-4.74D-02 OVMax= 1.16D-01

 Cycle   3  Pass 1  IDiag  1:
 RMSU=  7.84D-04    CP:  9.98D-01  6.85D-01
 E= -226.179181754147     Delta-E=       -0.045026629707 Rises=F Damp=F
 DIIS: error= 5.68D-03 at cycle   3 NSaved=   3.
 NSaved= 3 IEnMin= 3 EnMin= -226.179181754147     IErMin= 3 ErrMin= 5.68D-03
 ErrMax= 5.68D-03  0.00D+00 EMaxC= 1.00D-01 BMatC= 1.03D-02 BMatP= 1.57D-02
 IDIUse=3 WtCom= 9.43D-01 WtEn= 5.68D-02
 Coeff-Com: -0.151D+00 0.540D+00 0.611D+00
 Coeff-En:   0.000D+00 0.000D+00 0.100D+01
 Coeff:     -0.143D+00 0.510D+00 0.633D+00
 Gap=     0.291 Goal=   None    Shift=    0.000
 RMSDP=3.76D-04 MaxDP=1.40D-02 DE=-4.50D-02 OVMax= 4.31D-02

 Cycle   4  Pass 1  IDiag  1:
 RMSU=  3.03D-04    CP:  1.00D+00  7.81D-01  8.34D-01
 E= -226.186988507376     Delta-E=       -0.007806753229 Rises=F Damp=F
 DIIS: error= 1.97D-03 at cycle   4 NSaved=   4.
 NSaved= 4 IEnMin= 4 EnMin= -226.186988507376     IErMin= 4 ErrMin= 1.97D-03
 ErrMax= 1.97D-03  0.00D+00 EMaxC= 1.00D-01 BMatC= 1.42D-03 BMatP= 1.03D-02
 IDIUse=3 WtCom= 9.80D-01 WtEn= 1.97D-02
 Coeff-Com: -0.649D-01 0.161D+00 0.336D+00 0.568D+00
 Coeff-En:   0.000D+00 0.000D+00 0.785D-01 0.921D+00
 Coeff:     -0.636D-01 0.157D+00 0.331D+00 0.575D+00
 Gap=     0.285 Goal=   None    Shift=    0.000
 RMSDP=1.45D-04 MaxDP=4.17D-03 DE=-7.81D-03 OVMax= 1.03D-02

 Cycle   5  Pass 1  IDiag  1:
 RMSU=  8.61D-05    CP:  9.96D-01  7.42D-01  8.93D-01  7.65D-01
 E= -226.188199194320     Delta-E=       -0.001210686944 Rises=F Damp=F
 DIIS: error= 4.37D-04 at cycle   5 NSaved=   5.
 NSaved= 5 IEnMin= 5 EnMin= -226.188199194320     IErMin= 5 ErrMin= 4.37D-04
 ErrMax= 4.37D-04  0.00D+00 EMaxC= 1.00D-01 BMatC= 2.60D-05 BMatP= 1.42D-03
 IDIUse=3 WtCom= 9.96D-01 WtEn= 4.37D-03
 Coeff-Com: -0.155D-01 0.309D-01 0.827D-01 0.198D+00 0.704D+00
 Coeff-En:   0.000D+00 0.000D+00 0.000D+00 0.000D+00 0.100D+01
 Coeff:     -0.155D-01 0.308D-01 0.823D-01 0.197D+00 0.705D+00
 Gap=     0.285 Goal=   None    Shift=    0.000
 RMSDP=2.04D-05 MaxDP=8.34D-04 DE=-1.21D-03 OVMax= 2.25D-03

 Cycle   6  Pass 1  IDiag  1:
 RMSU=  1.73D-05    CP:  9.97D-01  7.42D-01  8.99D-01  7.84D-01  9.10D-01
 E= -226.188219532599     Delta-E=       -0.000020338279 Rises=F Damp=F
 DIIS: error= 1.68D-04 at cycle   6 NSaved=   6.
 NSaved= 6 IEnMin= 6 EnMin= -226.188219532599     IErMin= 6 ErrMin= 1.68D-04
 ErrMax= 1.68D-04  0.00D+00 EMaxC= 1.00D-01 BMatC= 4.44D-06 BMatP= 2.60D-05
 IDIUse=3 WtCom= 9.98D-01 WtEn= 1.68D-03
 Coeff-Com: -0.411D-02 0.622D-02 0.227D-01 0.638D-01 0.352D+00 0.559D+00
 Coeff-En:   0.000D+00 0.000D+00 0.000D+00 0.000D+00 0.259D-01 0.974D+00
 Coeff:     -0.410D-02 0.621D-02 0.226D-01 0.637D-01 0.352D+00 0.560D+00
 Gap=     0.285 Goal=   None    Shift=    0.000
 RMSDP=1.07D-05 MaxDP=5.52D-04 DE=-2.03D-05 OVMax= 9.54D-04

 Cycle   7  Pass 1  IDiag  1:
 RMSU=  6.33D-06    CP:  9.96D-01  7.38D-01  9.02D-01  7.88D-01  9.50D-01
                    CP:  8.94D-01
 E= -226.188223681989     Delta-E=       -0.000004149390 Rises=F Damp=F
 DIIS: error= 2.06D-05 at cycle   7 NSaved=   7.
 NSaved= 7 IEnMin= 7 EnMin= -226.188223681989     IErMin= 7 ErrMin= 2.06D-05
 ErrMax= 2.06D-05  0.00D+00 EMaxC= 1.00D-01 BMatC= 1.55D-07 BMatP= 4.44D-06
 IDIUse=1 WtCom= 1.00D+00 WtEn= 0.00D+00
 Coeff-Com:  0.193D-02-0.408D-02-0.844D-02-0.223D-01-0.539D-01 0.801D-01
 Coeff-Com:  0.101D+01
 Coeff:      0.193D-02-0.408D-02-0.844D-02-0.223D-01-0.539D-01 0.801D-01
 Coeff:      0.101D+01
 Gap=     0.285 Goal=   None    Shift=    0.000
 RMSDP=5.86D-06 MaxDP=2.97D-04 DE=-4.15D-06 OVMax= 2.34D-04

 Cycle   8  Pass 1  IDiag  1:
 RMSU=  1.61D-06    CP:  9.96D-01  7.36D-01  9.04D-01  7.88D-01  9.68D-01
                    CP:  1.02D+00  1.16D+00
 E= -226.188223907746     Delta-E=       -0.000000225757 Rises=F Damp=F
 DIIS: error= 8.31D-06 at cycle   8 NSaved=   8.
 NSaved= 8 IEnMin= 8 EnMin= -226.188223907746     IErMin= 8 ErrMin= 8.31D-06
 ErrMax= 8.31D-06  0.00D+00 EMaxC= 1.00D-01 BMatC= 1.30D-08 BMatP= 1.55D-07
 IDIUse=1 WtCom= 1.00D+00 WtEn= 0.00D+00
 Coeff-Com:  0.738D-03-0.150D-02-0.304D-02-0.896D-02-0.253D-01 0.123D-01
 Coeff-Com:  0.339D+00 0.687D+00
 Coeff:      0.738D-03-0.150D-02-0.304D-02-0.896D-02-0.253D-01 0.123D-01
 Coeff:      0.339D+00 0.687D+00
 Gap=     0.285 Goal=   None    Shift=    0.000
 RMSDP=6.54D-07 MaxDP=2.26D-05 DE=-2.26D-07 OVMax= 5.35D-05

 Cycle   9  Pass 1  IDiag  1:
 RMSU=  4.37D-07    CP:  9.96D-01  7.36D-01  9.04D-01  7.88D-01  9.70D-01
                    CP:  1.03D+00  1.20D+00  1.10D+00
 E= -226.188223919806     Delta-E=       -0.000000012060 Rises=F Damp=F
 DIIS: error= 3.15D-06 at cycle   9 NSaved=   9.
 NSaved= 9 IEnMin= 9 EnMin= -226.188223919806     IErMin= 9 ErrMin= 3.15D-06
 ErrMax= 3.15D-06  0.00D+00 EMaxC= 1.00D-01 BMatC= 3.06D-09 BMatP= 1.30D-08
 IDIUse=1 WtCom= 1.00D+00 WtEn= 0.00D+00
 Coeff-Com: -0.111D-03 0.245D-03 0.705D-03 0.107D-02 0.122D-02-0.134D-01
 Coeff-Com: -0.847D-01 0.308D+00 0.786D+00
 Coeff:     -0.111D-03 0.245D-03 0.705D-03 0.107D-02 0.122D-02-0.134D-01
 Coeff:     -0.847D-01 0.308D+00 0.786D+00
 Gap=     0.285 Goal=   None    Shift=    0.000
 RMSDP=3.72D-07 MaxDP=2.13D-05 DE=-1.21D-08 OVMax= 2.01D-05

 Cycle  10  Pass 1  IDiag  1:
 RMSU=  1.53D-07    CP:  9.96D-01  7.36D-01  9.04D-01  7.87D-01  9.69D-01
                    CP:  1.03D+00  1.21D+00  1.26D+00  1.03D+00
 E= -226.188223922861     Delta-E=       -0.000000003055 Rises=F Damp=F
 DIIS: error= 4.32D-07 at cycle  10 NSaved=  10.
 NSaved=10 IEnMin=10 EnMin= -226.188223922861     IErMin=10 ErrMin= 4.32D-07
 ErrMax= 4.32D-07  0.00D+00 EMaxC= 1.00D-01 BMatC= 6.35D-11 BMatP= 3.06D-09
 IDIUse=1 WtCom= 1.00D+00 WtEn= 0.00D+00
 Coeff-Com: -0.470D-04 0.101D-03 0.265D-03 0.524D-03 0.131D-02-0.176D-02
 Coeff-Com: -0.281D-01 0.138D-01 0.887D-01 0.925D+00
 Coeff:     -0.470D-04 0.101D-03 0.265D-03 0.524D-03 0.131D-02-0.176D-02
 Coeff:     -0.281D-01 0.138D-01 0.887D-01 0.925D+00
 Gap=     0.285 Goal=   None    Shift=    0.000
 RMSDP=6.61D-08 MaxDP=3.66D-06 DE=-3.06D-09 OVMax= 4.55D-06

 Cycle  11  Pass 1  IDiag  1:
 RMSU=  3.07D-08    CP:  9.96D-01  7.36D-01  9.04D-01  7.87D-01  9.68D-01
                    CP:  1.03D+00  1.21D+00  1.28D+00  1.08D+00  1.11D+00
 E= -226.188223922927     Delta-E=       -0.000000000066 Rises=F Damp=F
 DIIS: error= 3.12D-07 at cycle  11 NSaved=  11.
 NSaved=11 IEnMin=11 EnMin= -226.188223922927     IErMin=11 ErrMin= 3.12D-07
 ErrMax= 3.12D-07  0.00D+00 EMaxC= 1.00D-01 BMatC= 1.55D-11 BMatP= 6.35D-11
 IDIUse=1 WtCom= 1.00D+00 WtEn= 0.00D+00
 Coeff-Com: -0.656D-05 0.137D-04 0.439D-04 0.873D-04 0.329D-03 0.430D-03
 Coeff-Com: -0.420D-02-0.173D-01-0.321D-01 0.396D+00 0.657D+00
 Coeff:     -0.656D-05 0.137D-04 0.439D-04 0.873D-04 0.329D-03 0.430D-03
 Coeff:     -0.420D-02-0.173D-01-0.321D-01 0.396D+00 0.657D+00
 Gap=     0.285 Goal=   None    Shift=    0.000
 RMSDP=1.99D-08 MaxDP=1.02D-06 DE=-6.57D-11 OVMax= 1.87D-06

 Cycle  12  Pass 1  IDiag  1:
 RMSU=  1.26D-08    CP:  9.96D-01  7.36D-01  9.04D-01  7.87D-01  9.68D-01
                    CP:  1.03D+00  1.21D+00  1.29D+00  1.09D+00  1.16D+00
                    CP:  8.94D-01
 E= -226.188223922946     Delta-E=       -0.000000000019 Rises=F Damp=F
 DIIS: error= 1.00D-07 at cycle  12 NSaved=  12.
 NSaved=12 IEnMin=12 EnMin= -226.188223922946     IErMin=12 ErrMin= 1.00D-07
 ErrMax= 1.00D-07  0.00D+00 EMaxC= 1.00D-01 BMatC= 1.77D-12 BMatP= 1.55D-11
 IDIUse=1 WtCom= 1.00D+00 WtEn= 0.00D+00
 Coeff-Com:  0.362D-05-0.776D-05-0.148D-04-0.317D-04-0.260D-04 0.427D-03
 Coeff-Com:  0.198D-02-0.695D-02-0.259D-01 0.369D-02 0.262D+00 0.765D+00
 Coeff:      0.362D-05-0.776D-05-0.148D-04-0.317D-04-0.260D-04 0.427D-03
 Coeff:      0.198D-02-0.695D-02-0.259D-01 0.369D-02 0.262D+00 0.765D+00
 Gap=     0.285 Goal=   None    Shift=    0.000
 RMSDP=5.93D-09 MaxDP=2.10D-07 DE=-1.87D-11 OVMax= 4.04D-07

 SCF Done:  E(RM062X) =  -226.188223923     A.U. after   12 cycles
            NFock= 12  Conv=0.59D-08     -V/T= 2.0053
 KE= 2.249972740420D+02 PE=-8.483790240909D+02 EE= 2.362260311573D+02
 Leave Link  502 at Fri Feb 17 21:12:33 2023, MaxMem=  6710886400 cpu:             305.7 elap:              12.8
 (Enter /data0/home/software/g16/l601.exe)
 Copying SCF densities to generalized density rwf, IOpCl= 0 IROHF=0.

 **********************************************************************

            Population analysis using the SCF density.

 **********************************************************************

 Alpha  occ. eigenvalues --  -14.81546 -14.73553 -10.60429 -10.57697 -10.55856
 Alpha  occ. eigenvalues --   -1.11728  -0.96848  -0.83708  -0.70010  -0.67023
 Alpha  occ. eigenvalues --   -0.64224  -0.51456  -0.50717  -0.49946  -0.47983
 Alpha  occ. eigenvalues --   -0.34495  -0.34129  -0.28485
 Alpha virt. eigenvalues --   -0.00004   0.02499   0.03425   0.03675   0.05173
 Alpha virt. eigenvalues --    0.05816   0.05880   0.07393   0.07682   0.09494
 Alpha virt. eigenvalues --    0.10074   0.10630   0.10766   0.14245   0.14706
 Alpha virt. eigenvalues --    0.14887   0.15812   0.17801   0.18371   0.19854
 Alpha virt. eigenvalues --    0.20701   0.20939   0.22389   0.22716   0.24009
 Alpha virt. eigenvalues --    0.24257   0.25014   0.25274   0.25515   0.27363
 Alpha virt. eigenvalues --    0.28051   0.28482   0.29301   0.30852   0.31942
 Alpha virt. eigenvalues --    0.32236   0.33558   0.35972   0.38989   0.41871
 Alpha virt. eigenvalues --    0.43195   0.45024   0.48133   0.49382   0.53885
 Alpha virt. eigenvalues --    0.56750   0.57185   0.58395   0.59638   0.61828
 Alpha virt. eigenvalues --    0.62483   0.65365   0.66837   0.68653   0.69214
 Alpha virt. eigenvalues --    0.69780   0.72142   0.73058   0.75012   0.76604
 Alpha virt. eigenvalues --    0.77120   0.77532   0.78742   0.79863   0.80900
 Alpha virt. eigenvalues --    0.81953   0.82950   0.85285   0.87785   0.88709
 Alpha virt. eigenvalues --    0.91668   0.91824   0.92778   0.95109   0.98988
 Alpha virt. eigenvalues --    0.99276   1.01032   1.03652   1.04594   1.04837
 Alpha virt. eigenvalues --    1.08325   1.09975   1.13020   1.19529   1.24250
 Alpha virt. eigenvalues --    1.27259   1.29502   1.33571   1.36539   1.37081
 Alpha virt. eigenvalues --    1.40429   1.41501   1.43285   1.45298   1.47173
 Alpha virt. eigenvalues --    1.48790   1.54593   1.66526   1.68285   1.71513
 Alpha virt. eigenvalues --    1.72846   1.76415   1.77806   1.82193   1.83255
 Alpha virt. eigenvalues --    1.85321   1.87868   1.89247   1.95862   1.98453
 Alpha virt. eigenvalues --    2.02296   2.03916   2.05571   2.12074   2.17338
 Alpha virt. eigenvalues --    2.19072   2.22697   2.27822   2.29528   2.35707
 Alpha virt. eigenvalues --    2.38911   2.40226   2.44634   2.47022   2.47460
 Alpha virt. eigenvalues --    2.49385   2.50812   2.55607   2.56258   2.60132
 Alpha virt. eigenvalues --    2.60716   2.62860   2.63820   2.65094   2.68805
 Alpha virt. eigenvalues --    2.73356   2.76780   2.78996   2.79759   2.82938
 Alpha virt. eigenvalues --    2.84765   2.88983   2.89891   2.93003   2.95945
 Alpha virt. eigenvalues --    2.98579   3.02448   3.07872   3.12104   3.17560
 Alpha virt. eigenvalues --    3.25966   3.30743   3.34167   3.34917   3.38028
 Alpha virt. eigenvalues --    3.39370   3.43495   3.43842   3.43922   3.46953
 Alpha virt. eigenvalues --    3.48561   3.50660   3.54063   3.57862   3.60734
 Alpha virt. eigenvalues --    3.65798   3.67747   3.70402   3.72953   3.74736
 Alpha virt. eigenvalues --    3.96767   3.98763   3.99939   4.02300   4.08829
 Alpha virt. eigenvalues --    4.45284   4.49332   4.55953   4.62251   4.90591
 Alpha virt. eigenvalues --    4.96427   4.98295   5.01697   5.02885   5.04712
 Alpha virt. eigenvalues --    5.05918   5.11234   5.20647   5.23760   5.26958
 Alpha virt. eigenvalues --    5.34802   5.53075   5.55006   5.60620   9.63361
 Alpha virt. eigenvalues --    9.67688   9.73846   9.74001   9.77650   9.80742
 Alpha virt. eigenvalues --    9.86069   9.90021  10.00104  10.02172  12.57301
 Alpha virt. eigenvalues --   12.78682  12.96057  13.15129  13.40017  13.58344
 Alpha virt. eigenvalues --   17.25468  17.52519  23.91692  24.09268  24.13934
 Alpha virt. eigenvalues --   35.64385  35.70345 129.92640 134.43486
          Condensed to atoms (all electrons):
               1          2          3          4          5          6
     1  C    5.489973   0.227949  -0.274567   0.413586  -0.056834   0.380296
     2  C    0.227949   5.249616   0.015452  -0.196048   0.027413   0.001444
     3  C   -0.274567   0.015452   5.062765   0.340343  -0.014348   0.011103
     4  N    0.413586  -0.196048   0.340343   6.313176   0.363283  -0.034432
     5  H   -0.056834   0.027413  -0.014348   0.363283   0.410245  -0.001700
     6  H    0.380296   0.001444   0.011103  -0.034432  -0.001700   0.506009
     7  H   -0.065738   0.436622   0.018509   0.007779   0.000001   0.000044
     8  H    0.001354   0.016322   0.434345  -0.055931  -0.000015  -0.000033
     9  N    0.044048   0.236491   0.395095   0.022788  -0.000746   0.002294
    10  O    0.003288  -0.002169  -0.000754  -0.000070  -0.000018  -0.000011
    11  H   -0.003632   0.004980   0.000410  -0.000070   0.000018   0.000014
    12  H   -0.000293  -0.000015   0.000389   0.000015   0.000002   0.000000
    13  O   -0.004204   0.003292   0.005582   0.014130   0.001305  -0.000063
    14  H   -0.000067  -0.000360   0.000177  -0.000907  -0.000207   0.000019
    15  H   -0.000434  -0.000420  -0.000510  -0.002214  -0.000102   0.000012
               7          8          9         10         11         12
     1  C   -0.065738   0.001354   0.044048   0.003288  -0.003632  -0.000293
     2  C    0.436622   0.016322   0.236491  -0.002169   0.004980  -0.000015
     3  C    0.018509   0.434345   0.395095  -0.000754   0.000410   0.000389
     4  N    0.007779  -0.055931   0.022788  -0.000070  -0.000070   0.000015
     5  H    0.000001  -0.000015  -0.000746  -0.000018   0.000018   0.000002
     6  H    0.000044  -0.000033   0.002294  -0.000011   0.000014   0.000000
     7  H    0.526644  -0.000013  -0.050179  -0.000020   0.000032   0.000003
     8  H   -0.000013   0.501591  -0.042542   0.000236  -0.000040  -0.000088
     9  N   -0.050179  -0.042542   6.703672   0.016729  -0.021176  -0.000834
    10  O   -0.000020   0.000236   0.016729   0.002594  -0.001978  -0.000318
    11  H    0.000032  -0.000040  -0.021176  -0.001978   0.002001   0.000109
    12  H    0.000003  -0.000088  -0.000834  -0.000318   0.000109   0.000147
    13  O   -0.000009   0.000676  -0.000751  -0.000023   0.000015   0.000002
    14  H    0.000000   0.000035   0.000062   0.000000  -0.000000   0.000000
    15  H    0.000002  -0.000118   0.000178  -0.000003  -0.000002   0.000001
              13         14         15
     1  C   -0.004204  -0.000067  -0.000434
     2  C    0.003292  -0.000360  -0.000420
     3  C    0.005582   0.000177  -0.000510
     4  N    0.014130  -0.000907  -0.002214
     5  H    0.001305  -0.000207  -0.000102
     6  H   -0.000063   0.000019   0.000012
     7  H   -0.000009   0.000000   0.000002
     8  H    0.000676   0.000035  -0.000118
     9  N   -0.000751   0.000062   0.000178
    10  O   -0.000023   0.000000  -0.000003
    11  H    0.000015  -0.000000  -0.000002
    12  H    0.000002   0.000000   0.000001
    13  O    0.013406  -0.003355  -0.002708
    14  H   -0.003355   0.001431   0.000693
    15  H   -0.002708   0.000693   0.000937
 Mulliken charges:
               1
     1  C   -0.154724
     2  C   -0.020570
     3  C    0.006009
     4  N   -0.185428
     5  H    0.271704
     6  H    0.135006
     7  H    0.126322
     8  H    0.144222
     9  N   -0.305130
    10  O   -0.017481
    11  H    0.019319
    12  H    0.000880
    13  O   -0.027293
    14  H    0.002478
    15  H    0.004687
 Sum of Mulliken charges =  -0.00000
 Mulliken charges with hydrogens summed into heavy atoms:
               1
     1  C   -0.019719
     2  C    0.105752
     3  C    0.150230
     4  N    0.086276
     9  N   -0.305130
    10  O    0.002718
    13  O   -0.020128
         Mulliken charges condensed to fragments:
      1      0.017410
      2      0.002718
      3     -0.020128
 Electronic spatial extent (au):  <R**2>=          36518.4215
 Charge=             -0.0000 electrons
 Dipole moment (field-independent basis, Debye):
    X=              0.5583    Y=              3.6952    Z=             -0.0476  Tot=              3.7374
 Quadrupole moment (field-independent basis, Debye-Ang):
   XX=            -15.6035   YY=             40.6964   ZZ=            -31.0713
   XY=             42.6398   XZ=              1.0853   YZ=             36.2497
 Traceless Quadrupole moment (field-independent basis, Debye-Ang):
   XX=            -13.6107   YY=             42.6892   ZZ=            -29.0785
   XY=             42.6398   XZ=              1.0853   YZ=             36.2497
 Octapole moment (field-independent basis, Debye-Ang**2):
  XXX=           -588.1437  YYY=            191.5249  ZZZ=           -941.2323  XYY=            479.8863
  XXY=            232.1396  XXZ=           -244.1605  XZZ=           -319.6514  YZZ=             73.2915
  YYZ=            393.0197  XYZ=            382.1254
 Hexadecapole moment (field-independent basis, Debye-Ang**3):
 XXXX=         -12117.7231 YYYY=          -2270.2386 ZZZZ=         -19297.4163 XXXY=          -1687.5471
 XXXZ=          -7190.7633 YYYX=           2925.9277 YYYZ=           1666.4924 ZZZX=          -9544.5502
 ZZZY=          -5201.7669 XXYY=           3119.2738 XXZZ=          -6061.6264 YYZZ=           1103.2965
 XXYZ=           1477.8585 YYXZ=           4322.0789 ZZXY=            703.0217
 N-N= 1.609674949687D+02 E-N=-8.483790277615D+02  KE= 2.249972740420D+02
 No NMR shielding tensors so no spin-rotation constants.
 Leave Link  601 at Fri Feb 17 21:12:33 2023, MaxMem=  6710886400 cpu:               2.1 elap:               0.1
 (Enter /data0/home/software/g16/l122.exe)
 CPIOFr:  IOpCl= 0 IRwI=-1 IRwCP=  731 ICalc=  1 LCPTot=       88173 Len1MO=      229755 IndFrg=      547683
 Counterpoise: doing calculation for fragment   2 using the basis set of the full-system, NewBq=T
 Leave Link  122 at Fri Feb 17 21:12:33 2023, MaxMem=  6710886400 cpu:               0.1 elap:               0.0
 (Enter /data0/home/software/g16/l301.exe)
 Basis read from rwf:  (5D, 7F)
 No pseudopotential information found on rwf file.
   237 basis functions,   358 primitive gaussians,   251 cartesian basis functions
     5 alpha electrons        5 beta electrons
       nuclear repulsion energy         9.0169202072 Hartrees.
 IExCor= 4336 DFT=T Ex+Corr=M062X ExCW=0 ScaHFX=  0.540000
 ScaDFX=  1.000000  1.000000  1.000000  1.000000 ScalE2=  1.000000  1.000000
 IRadAn=      5 IRanWt=     -1 IRanGd=            0 ICorTp=0 IEmpDi=131
 NAtoms=   15 NActive=   15 NUniq=   15 SFac= 1.00D+00 NAtFMM=   60 NAOKFM=F Big=F
 Integral buffers will be    131072 words long.
 Raffenetti 2 integral format.
 Two-electron integral symmetry is turned off.
 R6Disp:  Grimme-D3 Dispersion energy=       -0.0000000081 Hartrees.
 Nuclear repulsion after empirical dispersion term =        9.0169201991 Hartrees.
 No density basis found on file   718.
 Leave Link  301 at Fri Feb 17 21:12:33 2023, MaxMem=  6710886400 cpu:               1.3 elap:               0.1
 (Enter /data0/home/software/g16/l302.exe)
 NPDir=0 NMtPBC=     1 NCelOv=     1 NCel=       1 NClECP=     1 NCelD=      1
         NCelK=      1 NCelE2=     1 NClLst=     1 CellRange=     0.0.
 One-electron integrals computed using PRISM.
 NBasis=   237 RedAO= T EigKep=  5.20D-05  NBF=   237
 NBsUse=   237 1.00D-06 EigRej= -1.00D+00 NBFU=   237
 Precomputing XC quadrature grid using
 IXCGrd= 4 IRadAn=           5 IRanWt=          -1 IRanGd=           0 AccXCQ= 0.00D+00.
 Generated NRdTot=       0 NPtTot=           0 NUsed=           0 NTot=          32
 NSgBfM=   251   251   251   251   251 MxSgAt=    15 MxSgA2=    15.
 Leave Link  302 at Fri Feb 17 21:12:33 2023, MaxMem=  6710886400 cpu:               3.8 elap:               0.2
 (Enter /data0/home/software/g16/l303.exe)
 DipDrv:  MaxL=1.
 Leave Link  303 at Fri Feb 17 21:12:33 2023, MaxMem=  6710886400 cpu:               0.6 elap:               0.0
 (Enter /data0/home/software/g16/l401.exe)
 ExpMin= 4.38D-02 ExpMax= 8.59D+03 ExpMxC= 1.30D+03 IAcc=3 IRadAn=         5 AccDes= 0.00D+00
 Harris functional with IExCor= 1009 and IRadAn=       5 diagonalized for initial guess.
 HarFok:  IExCor= 1009 AccDes= 0.00D+00 IRadAn=         5 IDoV= 1 UseB2=F ITyADJ=14
 ICtDFT=  3500011 ScaDFX=  1.000000  1.000000  1.000000  1.000000
 FoFCou: FMM=F IPFlag=           0 FMFlag=      100000 FMFlg1=           0
         NFxFlg=           0 DoJE=T BraDBF=F KetDBF=T FulRan=T
         wScrn=  0.000000 ICntrl=       500 IOpCl=  0 I1Cent=   200000004 NGrid=           0
         NMat0=    1 NMatS0=      1 NMatT0=    0 NMatD0=    1 NMtDS0=    0 NMtDT0=    0
 Symmetry not used in FoFCou.
 Harris En= -76.4156487483515    
 JPrj=0 DoOrth=F DoCkMO=F.
 Leave Link  401 at Fri Feb 17 21:12:33 2023, MaxMem=  6710886400 cpu:              11.4 elap:               0.5
 (Enter /data0/home/software/g16/l502.exe)
 Two-electron integral symmetry not used.
 Closed shell SCF:
 Using DIIS extrapolation, IDIIS=  1040.
 NGot=  6710886400 LenX=  6710752512 LenY=  6710689070
 Requested convergence on RMS density matrix=1.00D-08 within 128 cycles.
 Requested convergence on MAX density matrix=1.00D-06.
 Requested convergence on             energy=1.00D-06.
 No special actions if energy rises.
 Fock matrices will be formed incrementally for  20 cycles.

 Cycle   1  Pass 1  IDiag  1:
 FoFJK:  IHMeth= 1 ICntrl=       0 DoSepK=F KAlg= 0 I1Cent=           0 FoldK=F
 IRaf= 930000000 NMat=       1 IRICut=       1 DoRegI=T DoRafI=F ISym2E= 0 IDoP0=0 IntGTp=1.
 FoFCou: FMM=F IPFlag=           0 FMFlag=      100000 FMFlg1=           0
         NFxFlg=           0 DoJE=F BraDBF=F KetDBF=F FulRan=T
         wScrn=  0.000000 ICntrl=         0 IOpCl=  0 I1Cent=           0 NGrid=           0
         NMat0=    1 NMatS0=      1 NMatT0=    0 NMatD0=    1 NMtDS0=    0 NMtDT0=    0
 Symmetry not used in FoFCou.
 E= -76.3471373970550    
 DIIS: error= 2.70D-02 at cycle   1 NSaved=   1.
 NSaved= 1 IEnMin= 1 EnMin= -76.3471373970550     IErMin= 1 ErrMin= 2.70D-02
 ErrMax= 2.70D-02  0.00D+00 EMaxC= 1.00D-01 BMatC= 1.19D-01 BMatP= 1.19D-01
 IDIUse=3 WtCom= 7.30D-01 WtEn= 2.70D-01
 Coeff-Com:  0.100D+01
 Coeff-En:   0.100D+01
 Coeff:      0.100D+01
 Gap=     0.266 Goal=   None    Shift=    0.000
 GapD=    0.266 DampG=1.000 DampE=0.500 DampFc=0.5000 IDamp=-1.
 Damping current iteration by 5.00D-01
 RMSDP=3.66D-03 MaxDP=2.65D-01              OVMax= 1.70D-01

 Cycle   2  Pass 1  IDiag  1:
 RMSU=  1.83D-03    CP:  1.00D+00
 E= -76.3774824754833     Delta-E=       -0.030345078428 Rises=F Damp=T
 DIIS: error= 5.46D-03 at cycle   2 NSaved=   2.
 NSaved= 2 IEnMin= 2 EnMin= -76.3774824754833     IErMin= 2 ErrMin= 5.46D-03
 ErrMax= 5.46D-03  0.00D+00 EMaxC= 1.00D-01 BMatC= 5.10D-03 BMatP= 1.19D-01
 IDIUse=3 WtCom= 9.45D-01 WtEn= 5.46D-02
 Coeff-Com:  0.908D-01 0.909D+00
 Coeff-En:   0.203D+00 0.797D+00
 Coeff:      0.969D-01 0.903D+00
 Gap=     0.392 Goal=   None    Shift=    0.000
 RMSDP=6.08D-04 MaxDP=6.00D-02 DE=-3.03D-02 OVMax= 1.03D-01

 Cycle   3  Pass 1  IDiag  1:
 RMSU=  3.94D-04    CP:  1.00D+00  7.47D-01
 E= -76.4215401924597     Delta-E=       -0.044057716976 Rises=F Damp=F
 DIIS: error= 9.49D-04 at cycle   3 NSaved=   3.
 NSaved= 3 IEnMin= 3 EnMin= -76.4215401924597     IErMin= 3 ErrMin= 9.49D-04
 ErrMax= 9.49D-04  0.00D+00 EMaxC= 1.00D-01 BMatC= 1.54D-04 BMatP= 5.10D-03
 IDIUse=3 WtCom= 9.91D-01 WtEn= 9.49D-03
 Coeff-Com: -0.277D-01 0.521D-01 0.976D+00
 Coeff-En:   0.000D+00 0.000D+00 0.100D+01
 Coeff:     -0.274D-01 0.516D-01 0.976D+00
 Gap=     0.394 Goal=   None    Shift=    0.000
 RMSDP=3.38D-05 MaxDP=1.30D-03 DE=-4.41D-02 OVMax= 3.99D-03

 Cycle   4  Pass 1  IDiag  1:
 RMSU=  3.08D-05    CP:  1.00D+00  7.48D-01  1.03D+00
 E= -76.4216641293158     Delta-E=       -0.000123936856 Rises=F Damp=F
 DIIS: error= 1.48D-04 at cycle   4 NSaved=   4.
 NSaved= 4 IEnMin= 4 EnMin= -76.4216641293158     IErMin= 4 ErrMin= 1.48D-04
 ErrMax= 1.48D-04  0.00D+00 EMaxC= 1.00D-01 BMatC= 2.87D-06 BMatP= 1.54D-04
 IDIUse=3 WtCom= 9.99D-01 WtEn= 1.48D-03
 Coeff-Com: -0.319D-02 0.413D-03 0.149D+00 0.853D+00
 Coeff-En:   0.000D+00 0.000D+00 0.000D+00 0.100D+01
 Coeff:     -0.319D-02 0.413D-03 0.149D+00 0.854D+00
 Gap=     0.394 Goal=   None    Shift=    0.000
 RMSDP=6.09D-06 MaxDP=3.26D-04 DE=-1.24D-04 OVMax= 5.35D-04

 Cycle   5  Pass 1  IDiag  1:
 RMSU=  5.11D-06    CP:  1.00D+00  7.47D-01  1.03D+00  1.07D+00
 E= -76.4216659828834     Delta-E=       -0.000001853568 Rises=F Damp=F
 DIIS: error= 3.34D-05 at cycle   5 NSaved=   5.
 NSaved= 5 IEnMin= 5 EnMin= -76.4216659828834     IErMin= 5 ErrMin= 3.34D-05
 ErrMax= 3.34D-05  0.00D+00 EMaxC= 1.00D-01 BMatC= 8.20D-08 BMatP= 2.87D-06
 IDIUse=1 WtCom= 1.00D+00 WtEn= 0.00D+00
 Coeff-Com:  0.151D-02-0.237D-02-0.380D-01-0.553D-01 0.109D+01
 Coeff:      0.151D-02-0.237D-02-0.380D-01-0.553D-01 0.109D+01
 Gap=     0.395 Goal=   None    Shift=    0.000
 RMSDP=6.88D-06 MaxDP=4.60D-04 DE=-1.85D-06 OVMax= 2.23D-04

 Cycle   6  Pass 1  IDiag  1:
 RMSU=  1.36D-06    CP:  1.00D+00  7.44D-01  1.03D+00  1.16D+00  1.19D+00
 E= -76.4216661288283     Delta-E=       -0.000000145945 Rises=F Damp=F
 DIIS: error= 2.67D-06 at cycle   6 NSaved=   6.
 NSaved= 6 IEnMin= 6 EnMin= -76.4216661288283     IErMin= 6 ErrMin= 2.67D-06
 ErrMax= 2.67D-06  0.00D+00 EMaxC= 1.00D-01 BMatC= 1.80D-09 BMatP= 8.20D-08
 IDIUse=1 WtCom= 1.00D+00 WtEn= 0.00D+00
 Coeff-Com: -0.274D-03 0.389D-03 0.369D-02-0.489D-02-0.156D+00 0.116D+01
 Coeff:     -0.274D-03 0.389D-03 0.369D-02-0.489D-02-0.156D+00 0.116D+01
 Gap=     0.395 Goal=   None    Shift=    0.000
 RMSDP=6.89D-07 MaxDP=4.07D-05 DE=-1.46D-07 OVMax= 3.97D-05

 Cycle   7  Pass 1  IDiag  1:
 RMSU=  1.34D-07    CP:  1.00D+00  7.43D-01  1.03D+00  1.17D+00  1.22D+00
                    CP:  1.22D+00
 E= -76.4216661325035     Delta-E=       -0.000000003675 Rises=F Damp=F
 DIIS: error= 4.36D-07 at cycle   7 NSaved=   7.
 NSaved= 7 IEnMin= 7 EnMin= -76.4216661325035     IErMin= 7 ErrMin= 4.36D-07
 ErrMax= 4.36D-07  0.00D+00 EMaxC= 1.00D-01 BMatC= 2.73D-11 BMatP= 1.80D-09
 IDIUse=1 WtCom= 1.00D+00 WtEn= 0.00D+00
 Coeff-Com:  0.106D-04 0.271D-05-0.356D-04 0.165D-02-0.764D-02-0.768D-01
 Coeff-Com:  0.108D+01
 Coeff:      0.106D-04 0.271D-05-0.356D-04 0.165D-02-0.764D-02-0.768D-01
 Coeff:      0.108D+01
 Gap=     0.395 Goal=   None    Shift=    0.000
 RMSDP=8.53D-08 MaxDP=4.22D-06 DE=-3.68D-09 OVMax= 5.07D-06

 Cycle   8  Pass 1  IDiag  1:
 RMSU=  2.48D-08    CP:  1.00D+00  7.43D-01  1.03D+00  1.17D+00  1.22D+00
                    CP:  1.24D+00  1.13D+00
 E= -76.4216661325599     Delta-E=       -0.000000000056 Rises=F Damp=F
 DIIS: error= 9.75D-08 at cycle   8 NSaved=   8.
 NSaved= 8 IEnMin= 8 EnMin= -76.4216661325599     IErMin= 8 ErrMin= 9.75D-08
 ErrMax= 9.75D-08  0.00D+00 EMaxC= 1.00D-01 BMatC= 1.57D-12 BMatP= 2.73D-11
 IDIUse=1 WtCom= 1.00D+00 WtEn= 0.00D+00
 Coeff-Com:  0.119D-04-0.145D-04-0.123D-03 0.516D-03 0.399D-02-0.507D-01
 Coeff-Com:  0.160D+00 0.886D+00
 Coeff:      0.119D-04-0.145D-04-0.123D-03 0.516D-03 0.399D-02-0.507D-01
 Coeff:      0.160D+00 0.886D+00
 Gap=     0.395 Goal=   None    Shift=    0.000
 RMSDP=7.39D-09 MaxDP=2.33D-07 DE=-5.64D-11 OVMax= 7.18D-07

 SCF Done:  E(RM062X) =  -76.4216661326     A.U. after    8 cycles
            NFock=  8  Conv=0.74D-08     -V/T= 2.0035
 KE= 7.615804035930D+01 PE=-1.988635752165D+02 EE= 3.726694852560D+01
 Leave Link  502 at Fri Feb 17 21:12:42 2023, MaxMem=  6710886400 cpu:             204.3 elap:               8.6
 (Enter /data0/home/software/g16/l601.exe)
 Copying SCF densities to generalized density rwf, IOpCl= 0 IROHF=0.

 **********************************************************************

            Population analysis using the SCF density.

 **********************************************************************

 Alpha  occ. eigenvalues --  -19.62833  -1.12981  -0.60247  -0.47536  -0.39953
 Alpha virt. eigenvalues --   -0.00500   0.03443   0.04020   0.05602   0.07691
 Alpha virt. eigenvalues --    0.08518   0.09854   0.10643   0.11024   0.12437
 Alpha virt. eigenvalues --    0.13202   0.14469   0.15372   0.15697   0.16249
 Alpha virt. eigenvalues --    0.17870   0.19056   0.19593   0.20369   0.20953
 Alpha virt. eigenvalues --    0.22231   0.23280   0.24217   0.24611   0.26402
 Alpha virt. eigenvalues --    0.27118   0.27659   0.29489   0.30559   0.32227
 Alpha virt. eigenvalues --    0.33449   0.34472   0.36371   0.37242   0.40508
 Alpha virt. eigenvalues --    0.41741   0.43488   0.44038   0.46295   0.46909
 Alpha virt. eigenvalues --    0.49352   0.51882   0.53929   0.56046   0.58621
 Alpha virt. eigenvalues --    0.59123   0.60512   0.63406   0.66191   0.67560
 Alpha virt. eigenvalues --    0.68171   0.70584   0.71574   0.73746   0.79465
 Alpha virt. eigenvalues --    0.81182   0.83341   0.86297   0.86566   0.89561
 Alpha virt. eigenvalues --    0.93635   0.95947   0.97689   1.00649   1.02111
 Alpha virt. eigenvalues --    1.05422   1.06803   1.08013   1.11284   1.12977
 Alpha virt. eigenvalues --    1.15483   1.20102   1.21409   1.23501   1.23787
 Alpha virt. eigenvalues --    1.25771   1.27475   1.31692   1.32819   1.35869
 Alpha virt. eigenvalues --    1.37204   1.39911   1.40886   1.44218   1.46991
 Alpha virt. eigenvalues --    1.49217   1.49865   1.51378   1.53680   1.54003
 Alpha virt. eigenvalues --    1.56037   1.62054   1.66419   1.68567   1.71071
 Alpha virt. eigenvalues --    1.73939   1.76791   1.78733   1.81568   1.81801
 Alpha virt. eigenvalues --    1.88768   1.90683   1.92548   1.95171   1.97808
 Alpha virt. eigenvalues --    2.00595   2.01228   2.02674   2.07115   2.08844
 Alpha virt. eigenvalues --    2.09716   2.13027   2.14860   2.19623   2.22037
 Alpha virt. eigenvalues --    2.23127   2.26925   2.27763   2.29113   2.31252
 Alpha virt. eigenvalues --    2.34248   2.35907   2.38646   2.43220   2.47909
 Alpha virt. eigenvalues --    2.48830   2.51307   2.54386   2.57553   2.58402
 Alpha virt. eigenvalues --    2.60883   2.65853   2.68942   2.72383   2.73713
 Alpha virt. eigenvalues --    2.76263   2.79940   2.82634   2.83540   2.85117
 Alpha virt. eigenvalues --    2.88430   2.92065   2.95548   2.99340   3.02376
 Alpha virt. eigenvalues --    3.07201   3.09321   3.12121   3.15610   3.28259
 Alpha virt. eigenvalues --    3.43036   3.54991   3.58425   3.62939   3.67776
 Alpha virt. eigenvalues --    3.72788   3.83641   4.31380   4.63377   4.70520
 Alpha virt. eigenvalues --    4.74177   4.83839   4.88421   4.91751   4.94394
 Alpha virt. eigenvalues --    4.95849   5.00702   5.08775   5.13103   5.17320
 Alpha virt. eigenvalues --    5.19350   5.26660   5.30444   5.34637   5.39475
 Alpha virt. eigenvalues --    5.50063   5.53504   5.60665   5.85781   5.91947
 Alpha virt. eigenvalues --    6.03511   6.79404   6.81492   6.88877   6.91392
 Alpha virt. eigenvalues --    6.96689   7.01648   7.05578   7.09316   7.14839
 Alpha virt. eigenvalues --    7.16419   7.20717   7.33174   7.43095   7.45214
 Alpha virt. eigenvalues --    7.50094   7.55103   7.64941   7.68626   7.81345
 Alpha virt. eigenvalues --    7.98980   8.04214   8.09517   8.21972   8.31416
 Alpha virt. eigenvalues --    9.44998   9.60081   9.66164  10.07358  10.14580
 Alpha virt. eigenvalues --   10.29649  10.33916  10.38039  10.43103  10.47283
 Alpha virt. eigenvalues --   10.60107  10.91055  11.36595  11.43601  13.17642
 Alpha virt. eigenvalues --   13.47339  13.86560  13.90617  14.31942  18.47159
 Alpha virt. eigenvalues --   49.98584  68.77089  69.30868  69.95880  97.41643
 Alpha virt. eigenvalues --  101.62059 139.75978
          Condensed to atoms (all electrons):
               1          2          3          4          5          6
     1  C    0.077321  -0.140372   0.039792  -0.028730  -0.001888   0.001114
     2  C   -0.140372   0.293937  -0.102468   0.060149   0.003148  -0.001802
     3  C    0.039792  -0.102468   0.062804  -0.024739  -0.001363   0.000485
     4  N   -0.028730   0.060149  -0.024739   0.019425   0.000586  -0.000339
     5  H   -0.001888   0.003148  -0.001363   0.000586   0.000413  -0.000044
     6  H    0.001114  -0.001802   0.000485  -0.000339  -0.000044   0.000055
     7  H   -0.004332   0.009397  -0.002744   0.001197   0.000019  -0.000051
     8  H   -0.000351   0.001029  -0.000699   0.000984   0.000021  -0.000001
     9  N    0.056224  -0.119832   0.026136  -0.028856  -0.000882   0.000579
    10  O   -0.001427  -0.003238   0.010661  -0.001234   0.000031  -0.000004
    11  H   -0.006162   0.018220  -0.013731   0.002478   0.000012  -0.000002
    12  H   -0.001627   0.006728  -0.008193   0.000259   0.000001  -0.000000
    13  O    0.000451  -0.002055   0.002516  -0.002409  -0.000048   0.000008
    14  H    0.000044   0.000074  -0.000257   0.000347  -0.000028   0.000000
    15  H   -0.000446   0.001514  -0.001708   0.001477   0.000089  -0.000006
               7          8          9         10         11         12
     1  C   -0.004332  -0.000351   0.056224  -0.001427  -0.006162  -0.001627
     2  C    0.009397   0.001029  -0.119832  -0.003238   0.018220   0.006728
     3  C   -0.002744  -0.000699   0.026136   0.010661  -0.013731  -0.008193
     4  N    0.001197   0.000984  -0.028856  -0.001234   0.002478   0.000259
     5  H    0.000019   0.000021  -0.000882   0.000031   0.000012   0.000001
     6  H   -0.000051  -0.000001   0.000579  -0.000004  -0.000002  -0.000000
     7  H    0.000703   0.000001  -0.004090   0.000044   0.000365   0.000058
     8  H    0.000001   0.000513  -0.001779  -0.000205   0.000169  -0.000433
     9  N   -0.004090  -0.001779   0.080042   0.026960   0.012379   0.010141
    10  O    0.000044  -0.000205   0.026960   7.893239   0.310117   0.305922
    11  H    0.000365   0.000169   0.012379   0.310117   0.369766  -0.023580
    12  H    0.000058  -0.000433   0.010141   0.305922  -0.023580   0.441578
    13  O   -0.000003  -0.000154   0.001388   0.000084  -0.000006   0.000022
    14  H   -0.000000   0.000009  -0.000113  -0.000004   0.000000  -0.000001
    15  H    0.000002   0.000129  -0.001010  -0.000087   0.000006  -0.000029
              13         14         15
     1  C    0.000451   0.000044  -0.000446
     2  C   -0.002055   0.000074   0.001514
     3  C    0.002516  -0.000257  -0.001708
     4  N   -0.002409   0.000347   0.001477
     5  H   -0.000048  -0.000028   0.000089
     6  H    0.000008   0.000000  -0.000006
     7  H   -0.000003  -0.000000   0.000002
     8  H   -0.000154   0.000009   0.000129
     9  N    0.001388  -0.000113  -0.001010
    10  O    0.000084  -0.000004  -0.000087
    11  H   -0.000006   0.000000   0.000006
    12  H    0.000022  -0.000001  -0.000029
    13  O    0.002815  -0.000688  -0.001664
    14  H   -0.000688   0.000279   0.000323
    15  H   -0.001664   0.000323   0.001160
 Mulliken charges:
               1
     1  C    0.010390
     2  C   -0.024429
     3  C    0.013508
     4  N   -0.000596
     5  H   -0.000066
     6  H    0.000009
     7  H   -0.000565
     8  H    0.000767
     9  N   -0.057287
    10  O   -0.540858
    11  H    0.329968
    12  H    0.269154
    13  O   -0.000258
    14  H    0.000014
    15  H    0.000250
 Sum of Mulliken charges =   0.00000
 Mulliken charges with hydrogens summed into heavy atoms:
               1
     1  C    0.010399
     2  C   -0.024994
     3  C    0.014275
     4  N   -0.000662
     9  N   -0.057287
    10  O    0.058263
    13  O    0.000006
         Mulliken charges condensed to fragments:
      1     -0.058270
      2      0.058263
      3      0.000006
 Electronic spatial extent (au):  <R**2>=           9949.5722
 Charge=              0.0000 electrons
 Dipole moment (field-independent basis, Debye):
    X=             -0.2609    Y=              1.1572    Z=             -1.6545  Tot=              2.0358
 Quadrupole moment (field-independent basis, Debye-Ang):
   XX=            -10.3901   YY=              6.9675   ZZ=            -42.2000
   XY=             10.8276   XZ=            -21.8328   YZ=              1.6837
 Traceless Quadrupole moment (field-independent basis, Debye-Ang):
   XX=              4.8175   YY=             22.1750   ZZ=            -26.9925
   XY=             10.8276   XZ=            -21.8328   YZ=              1.6837
 Octapole moment (field-independent basis, Debye-Ang**2):
  XXX=           -250.7735  YYY=             -2.4653  ZZZ=           -788.0116  XYY=             61.8377
  XXY=             70.2104  XXZ=           -331.2611  XZZ=           -512.8226  YZZ=           -138.1007
  YYZ=              4.9845  XYZ=             -7.1074
 Hexadecapole moment (field-independent basis, Debye-Ang**3):
 XXXX=          -4887.4451 YYYY=           -572.9473 ZZZZ=         -12853.0883 XXXY=            -89.0645
 XXXZ=          -5237.0193 YYYX=           -144.9702 YYYZ=           -480.6407 ZZZX=          -9301.0812
 ZZZY=          -3603.7474 XXYY=            346.5585 XXZZ=          -6740.0780 YYZZ=           -948.8605
 XXYZ=           -668.0251 YYXZ=           -136.7098 ZZXY=          -1854.1623
 N-N= 9.016920199052D+00 E-N=-1.988635774040D+02  KE= 7.615804035930D+01
 No NMR shielding tensors so no spin-rotation constants.
 Leave Link  601 at Fri Feb 17 21:12:42 2023, MaxMem=  6710886400 cpu:               2.2 elap:               0.1
 (Enter /data0/home/software/g16/l122.exe)
 CPIOFr:  IOpCl= 0 IRwI=-1 IRwCP=  731 ICalc=  2 LCPTot=       88173 Len1MO=      229755 IndFrg=      777438
 Counterpoise: doing calculation for fragment   3 using the basis set of the full-system, NewBq=T
 Leave Link  122 at Fri Feb 17 21:12:42 2023, MaxMem=  6710886400 cpu:               0.1 elap:               0.0
 (Enter /data0/home/software/g16/l301.exe)
 Basis read from rwf:  (5D, 7F)
 No pseudopotential information found on rwf file.
   237 basis functions,   358 primitive gaussians,   251 cartesian basis functions
     5 alpha electrons        5 beta electrons
       nuclear repulsion energy         9.1142262121 Hartrees.
 IExCor= 4336 DFT=T Ex+Corr=M062X ExCW=0 ScaHFX=  0.540000
 ScaDFX=  1.000000  1.000000  1.000000  1.000000 ScalE2=  1.000000  1.000000
 IRadAn=      5 IRanWt=     -1 IRanGd=            0 ICorTp=0 IEmpDi=131
 NAtoms=   15 NActive=   15 NUniq=   15 SFac= 1.00D+00 NAtFMM=   60 NAOKFM=F Big=F
 Integral buffers will be    131072 words long.
 Raffenetti 2 integral format.
 Two-electron integral symmetry is turned off.
 R6Disp:  Grimme-D3 Dispersion energy=       -0.0000000076 Hartrees.
 Nuclear repulsion after empirical dispersion term =        9.1142262045 Hartrees.
 No density basis found on file   718.
 Leave Link  301 at Fri Feb 17 21:12:42 2023, MaxMem=  6710886400 cpu:               1.2 elap:               0.1
 (Enter /data0/home/software/g16/l302.exe)
[...]
 (Enter /data0/home/software/g16/l601.exe)
 Copying SCF densities to generalized density rwf, IOpCl= 0 IROHF=0.

 **********************************************************************

            Population analysis using the SCF density.

 **********************************************************************

 Alpha  occ. eigenvalues --  -19.62769  -1.12976  -0.60241  -0.47485  -0.39918
 Alpha virt. eigenvalues --    0.06041   0.13167   0.17438   0.17955   0.18916
 Alpha virt. eigenvalues --    0.23403   0.49884   0.53282   0.98113   1.00518
 Alpha virt. eigenvalues --    1.05997   1.18057   1.19782   1.32063   1.34389
 Alpha virt. eigenvalues --    1.69376   1.73561   1.75246   2.06120   2.09488
 Alpha virt. eigenvalues --    2.35603   2.39733   2.54296   2.86514   3.00271
 Alpha virt. eigenvalues --    5.05585   5.46730   5.88540   6.78404   6.80204
 Alpha virt. eigenvalues --    6.87361   6.91324   7.10221  49.94864
          Condensed to atoms (all electrons):
              10         11         12
    10  O    7.925128   0.313135   0.319351
    11  H    0.313135   0.428798  -0.023493
    12  H    0.319351  -0.023493   0.428088
 Mulliken charges:
               1
     1  C    0.000000
     2  C    0.000000
     3  C    0.000000
     4  N    0.000000
     5  H    0.000000
     6  H    0.000000
     7  H    0.000000
     8  H    0.000000
     9  N    0.000000
    10  O   -0.557614
    11  H    0.281560
    12  H    0.276054
    13  O    0.000000
    14  H    0.000000
    15  H    0.000000
 Sum of Mulliken charges =  -0.00000
 Mulliken charges with hydrogens summed into heavy atoms:
               1
     1  C    0.000000
     2  C    0.000000
     3  C    0.000000
     4  N    0.000000
     9  N    0.000000
    10  O   -0.000000
    13  O    0.000000
         Mulliken charges condensed to fragments:
      1      0.000000
      2     -0.000000
      3      0.000000
 Electronic spatial extent (au):  <R**2>=           9950.6004
 Charge=              0.0000 electrons
 Dipole moment (field-independent basis, Debye):
    X=             -0.2943    Y=              1.2222    Z=             -1.7234  Tot=              2.1331
 Quadrupole moment (field-independent basis, Debye-Ang):
   XX=            -11.1346   YY=              7.7995   ZZ=            -43.6704
   XY=             11.3232   XZ=            -22.9413   YZ=              1.9395
 Traceless Quadrupole moment (field-independent basis, Debye-Ang):
   XX=              4.5339   YY=             23.4680   ZZ=            -28.0019
   XY=             11.3232   XZ=            -22.9413   YZ=              1.9395
 Octapole moment (field-independent basis, Debye-Ang**2):
  XXX=           -263.3000  YYY=              5.7868  ZZZ=           -811.7575  XYY=             69.5245
  XXY=             73.2357  XXZ=           -347.4639  XZZ=           -532.7468  YZZ=           -139.9654
  YYZ=             11.0278  XYZ=             -6.6067
 Hexadecapole moment (field-independent basis, Debye-Ang**3):
 XXXX=          -5075.7955 YYYY=           -497.9485 ZZZZ=         -13196.7458 XXXY=            -83.2667
 XXXZ=          -5461.8537 YYYX=            -64.2306 YYYZ=           -411.3004 ZZZX=          -9603.0285
 ZZZY=          -3673.1925 XXYY=            415.1941 XXZZ=          -7002.5592 YYZZ=           -913.6525
 XXYZ=           -688.4756 YYXZ=            -85.8133 ZZXY=          -1899.5466
 N-N= 9.016920199052D+00 E-N=-1.988710381165D+02  KE= 7.616403083376D+01
 No NMR shielding tensors so no spin-rotation constants.
 Leave Link  601 at Fri Feb 17 21:13:00 2023, MaxMem=  6710886400 cpu:               1.8 elap:               0.1
 (Enter /data0/home/software/g16/l122.exe)
 CPIOFr:  IOpCl= 0 IRwI=-1 IRwCP=  731 ICalc=  5 LCPTot=       88173 Len1MO=      229755 IndFrg=     1466703
 Counterpoise: doing calculation for fragment   3 using the basis set of the fragment.
 Leave Link  122 at Fri Feb 17 21:13:00 2023, MaxMem=  6710886400 cpu:               0.1 elap:               0.0
 (Enter /data0/home/software/g16/l301.exe)
 Basis read from rwf:  (5D, 7F)
 No pseudopotential information found on rwf file.
    39 basis functions,    58 primitive gaussians,    41 cartesian basis functions
     5 alpha electrons        5 beta electrons
       nuclear repulsion energy         9.1142262121 Hartrees.
 IExCor= 4336 DFT=T Ex+Corr=M062X ExCW=0 ScaHFX=  0.540000
 ScaDFX=  1.000000  1.000000  1.000000  1.000000 ScalE2=  1.000000  1.000000
 IRadAn=      5 IRanWt=     -1 IRanGd=            0 ICorTp=0 IEmpDi=131
 NAtoms=   15 NActive=    3 NUniq=    3 SFac= 1.00D+00 NAtFMM=   60 NAOKFM=F Big=F
 Integral buffers will be    131072 words long.
 Raffenetti 2 integral format.
 Two-electron integral symmetry is turned off.
 R6Disp:  Grimme-D3 Dispersion energy=       -0.0000000076 Hartrees.
 Nuclear repulsion after empirical dispersion term =        9.1142262045 Hartrees.
 No density basis found on file   718.
 Leave Link  301 at Fri Feb 17 21:13:00 2023, MaxMem=  6710886400 cpu:               1.3 elap:               0.1
 (Enter /data0/home/software/g16/l302.exe)
 NPDir=0 NMtPBC=     1 NCelOv=     1 NCel=       1 NClECP=     1 NCelD=      1
         NCelK=      1 NCelE2=     1 NClLst=     1 CellRange=     0.0.
 One-electron integrals computed using PRISM.
 NBasis=    39 RedAO= T EigKep=  3.02D-03  NBF=    39
 NBsUse=    39 1.00D-06 EigRej= -1.00D+00 NBFU=    39
 Precomputing XC quadrature grid using
 IXCGrd= 4 IRadAn=           5 IRanWt=          -1 IRanGd=           0 AccXCQ= 0.00D+00.
 Generated NRdTot=       0 NPtTot=           0 NUsed=           0 NTot=          32
 NSgBfM=    41    41    41    41    41 MxSgAt=     3 MxSgA2=     3.
 Leave Link  302 at Fri Feb 17 21:13:00 2023, MaxMem=  6710886400 cpu:               2.2 elap:               0.1
 (Enter /data0/home/software/g16/l303.exe)
 DipDrv:  MaxL=1.
 Leave Link  303 at Fri Feb 17 21:13:00 2023, MaxMem=  6710886400 cpu:               0.4 elap:               0.0
 (Enter /data0/home/software/g16/l401.exe)
 ExpMin= 8.45D-02 ExpMax= 8.59D+03 ExpMxC= 1.30D+03 IAcc=3 IRadAn=         5 AccDes= 0.00D+00
 Harris functional with IExCor= 1009 and IRadAn=       5 diagonalized for initial guess.
 HarFok:  IExCor= 1009 AccDes= 0.00D+00 IRadAn=         5 IDoV= 1 UseB2=F ITyADJ=14
 ICtDFT=  3500011 ScaDFX=  1.000000  1.000000  1.000000  1.000000
 FoFCou: FMM=F IPFlag=           0 FMFlag=      100000 FMFlg1=           0
         NFxFlg=           0 DoJE=T BraDBF=F KetDBF=T FulRan=T
         wScrn=  0.000000 ICntrl=       500 IOpCl=  0 I1Cent=   200000004 NGrid=           0
         NMat0=    1 NMatS0=      1 NMatT0=    0 NMatD0=    1 NMtDS0=    0 NMtDT0=    0
 Symmetry not used in FoFCou.
 Harris En= -76.4166426125955    
 JPrj=0 DoOrth=F DoCkMO=F.
 Leave Link  401 at Fri Feb 17 21:13:00 2023, MaxMem=  6710886400 cpu:               2.9 elap:               0.1
 (Enter /data0/home/software/g16/l502.exe)
 Keep R1 ints in memory in canonical form, NReq=21037974.
 FoFCou: FMM=F IPFlag=           0 FMFlag=           0 FMFlg1=           0
         NFxFlg=           0 DoJE=F BraDBF=F KetDBF=F FulRan=T
         wScrn=  0.000000 ICntrl=       600 IOpCl=  0 I1Cent=           0 NGrid=           0
         NMat0=    1 NMatS0=    780 NMatT0=    0 NMatD0=    1 NMtDS0=    0 NMtDT0=    0
 Symmetry not used in FoFCou.
 Two-electron integral symmetry not used.
 Closed shell SCF:
 Using DIIS extrapolation, IDIIS=  1040.
 NGot=  6710886400 LenX=  6710576652 LenY=  6710574530
 Requested convergence on RMS density matrix=1.00D-08 within 128 cycles.
 Requested convergence on MAX density matrix=1.00D-06.
 Requested convergence on             energy=1.00D-06.
 No special actions if energy rises.
 Integral accuracy reduced to 1.0D-05 until final iterations.

 Cycle   1  Pass 0  IDiag  1:
 E= -76.3462845449474    
 DIIS: error= 7.03D-02 at cycle   1 NSaved=   1.
 NSaved= 1 IEnMin= 1 EnMin= -76.3462845449474     IErMin= 1 ErrMin= 7.03D-02
 ErrMax= 7.03D-02  0.00D+00 EMaxC= 1.00D-01 BMatC= 1.21D-01 BMatP= 1.21D-01
 IDIUse=3 WtCom= 2.97D-01 WtEn= 7.03D-01
 Coeff-Com:  0.100D+01
 Coeff-En:   0.100D+01
 Coeff:      0.100D+01
 Gap=     0.325 Goal=   None    Shift=    0.000
 GapD=    0.325 DampG=1.000 DampE=0.500 DampFc=0.5000 IDamp=-1.
 Damping current iteration by 5.00D-01
 RMSDP=7.92D-03 MaxDP=1.01D-01              OVMax= 1.68D-01

 Cycle   2  Pass 0  IDiag  1:
 E= -76.3778011607943     Delta-E=       -0.031516615847 Rises=F Damp=T
 DIIS: error= 1.14D-02 at cycle   2 NSaved=   2.
 NSaved= 2 IEnMin= 2 EnMin= -76.3778011607943     IErMin= 2 ErrMin= 1.14D-02
 ErrMax= 1.14D-02  0.00D+00 EMaxC= 1.00D-01 BMatC= 4.81D-03 BMatP= 1.21D-01
 IDIUse=3 WtCom= 8.86D-01 WtEn= 1.14D-01
 Coeff-Com:  0.817D-01 0.918D+00
 Coeff-En:   0.186D+00 0.814D+00
 Coeff:      0.937D-01 0.906D+00
 Gap=     0.458 Goal=   None    Shift=    0.000
 RMSDP=9.39D-04 MaxDP=1.39D-02 DE=-3.15D-02 OVMax= 1.00D-01

 Cycle   3  Pass 0  IDiag  1:
 E= -76.4217424991673     Delta-E=       -0.043941338373 Rises=F Damp=F
 DIIS: error= 2.17D-03 at cycle   3 NSaved=   3.
 NSaved= 3 IEnMin= 3 EnMin= -76.4217424991673     IErMin= 3 ErrMin= 2.17D-03
 ErrMax= 2.17D-03  0.00D+00 EMaxC= 1.00D-01 BMatC= 9.07D-05 BMatP= 4.81D-03
 IDIUse=3 WtCom= 9.78D-01 WtEn= 2.17D-02
 Coeff-Com: -0.199D-01 0.394D-01 0.981D+00
 Coeff-En:   0.000D+00 0.000D+00 0.100D+01
 Coeff:     -0.195D-01 0.386D-01 0.981D+00
 Gap=     0.462 Goal=   None    Shift=    0.000
 RMSDP=1.14D-04 MaxDP=1.04D-03 DE=-4.39D-02 OVMax= 3.30D-03

 Cycle   4  Pass 0  IDiag  1:
 E= -76.4218197347931     Delta-E=       -0.000077235626 Rises=F Damp=F
 DIIS: error= 4.11D-04 at cycle   4 NSaved=   4.
 NSaved= 4 IEnMin= 4 EnMin= -76.4218197347931     IErMin= 4 ErrMin= 4.11D-04
 ErrMax= 4.11D-04  0.00D+00 EMaxC= 1.00D-01 BMatC= 3.26D-06 BMatP= 9.07D-05
 IDIUse=3 WtCom= 9.96D-01 WtEn= 4.11D-03
 Coeff-Com: -0.188D-02-0.220D-02 0.162D+00 0.842D+00
 Coeff-En:   0.000D+00 0.000D+00 0.000D+00 0.100D+01
 Coeff:     -0.188D-02-0.219D-02 0.162D+00 0.842D+00
 Gap=     0.463 Goal=   None    Shift=    0.000
 RMSDP=2.20D-05 MaxDP=3.52D-04 DE=-7.72D-05 OVMax= 5.32D-04

 Cycle   5  Pass 0  IDiag  1:
 E= -76.4218217459715     Delta-E=       -0.000002011178 Rises=F Damp=F
 DIIS: error= 8.83D-05 at cycle   5 NSaved=   5.
 NSaved= 5 IEnMin= 5 EnMin= -76.4218217459715     IErMin= 5 ErrMin= 8.83D-05
 ErrMax= 8.83D-05  0.00D+00 EMaxC= 1.00D-01 BMatC= 8.18D-08 BMatP= 3.26D-06
 IDIUse=1 WtCom= 1.00D+00 WtEn= 0.00D+00
 Coeff-Com:  0.117D-02-0.178D-02-0.364D-01-0.648D-01 0.110D+01
 Coeff:      0.117D-02-0.178D-02-0.364D-01-0.648D-01 0.110D+01
 Gap=     0.463 Goal=   None    Shift=    0.000
 RMSDP=8.91D-06 MaxDP=1.02D-04 DE=-2.01D-06 OVMax= 2.00D-04

 Initial convergence to 1.0D-05 achieved.  Increase integral accuracy.
 Cycle   6  Pass 1  IDiag  1:
 E= -76.4218212779169     Delta-E=        0.000000468055 Rises=F Damp=F
 DIIS: error= 1.86D-05 at cycle   1 NSaved=   1.
 NSaved= 1 IEnMin= 1 EnMin= -76.4218212779169     IErMin= 1 ErrMin= 1.86D-05
 ErrMax= 1.86D-05  0.00D+00 EMaxC= 1.00D-01 BMatC= 1.17D-08 BMatP= 1.17D-08
 IDIUse=1 WtCom= 1.00D+00 WtEn= 0.00D+00
 Coeff-Com:  0.100D+01
 Coeff:      0.100D+01
 Gap=     0.463 Goal=   None    Shift=    0.000
 RMSDP=8.91D-06 MaxDP=1.02D-04 DE= 4.68D-07 OVMax= 5.01D-05

 Cycle   7  Pass 1  IDiag  1:
 E= -76.4218212881308     Delta-E=       -0.000000010214 Rises=F Damp=F
 DIIS: error= 1.10D-05 at cycle   2 NSaved=   2.
 NSaved= 2 IEnMin= 2 EnMin= -76.4218212881308     IErMin= 2 ErrMin= 1.10D-05
 ErrMax= 1.10D-05  0.00D+00 EMaxC= 1.00D-01 BMatC= 1.67D-09 BMatP= 1.17D-08
 IDIUse=1 WtCom= 1.00D+00 WtEn= 0.00D+00
 Coeff-Com:  0.135D+00 0.865D+00
 Coeff:      0.135D+00 0.865D+00
 Gap=     0.463 Goal=   None    Shift=    0.000
 RMSDP=8.04D-07 MaxDP=1.38D-05 DE=-1.02D-08 OVMax= 2.13D-05

 Cycle   8  Pass 1  IDiag  1:
 E= -76.4218212886876     Delta-E=       -0.000000000557 Rises=F Damp=F
 DIIS: error= 6.45D-06 at cycle   3 NSaved=   3.
 NSaved= 3 IEnMin= 3 EnMin= -76.4218212886876     IErMin= 3 ErrMin= 6.45D-06
 ErrMax= 6.45D-06  0.00D+00 EMaxC= 1.00D-01 BMatC= 1.16D-09 BMatP= 1.67D-09
 IDIUse=1 WtCom= 1.00D+00 WtEn= 0.00D+00
 Coeff-Com: -0.548D-01 0.460D+00 0.594D+00
 Coeff:     -0.548D-01 0.460D+00 0.594D+00
 Gap=     0.463 Goal=   None    Shift=    0.000
 RMSDP=3.98D-07 MaxDP=4.78D-06 DE=-5.57D-10 OVMax= 1.02D-05

 Cycle   9  Pass 1  IDiag  1:
 E= -76.4218212894647     Delta-E=       -0.000000000777 Rises=F Damp=F
 DIIS: error= 6.71D-07 at cycle   4 NSaved=   4.
 NSaved= 4 IEnMin= 4 EnMin= -76.4218212894647     IErMin= 4 ErrMin= 6.71D-07
 ErrMax= 6.71D-07  0.00D+00 EMaxC= 1.00D-01 BMatC= 5.44D-12 BMatP= 1.16D-09
 IDIUse=1 WtCom= 1.00D+00 WtEn= 0.00D+00
 Coeff-Com: -0.357D-02-0.183D-01 0.178D-01 0.100D+01
 Coeff:     -0.357D-02-0.183D-01 0.178D-01 0.100D+01
 Gap=     0.463 Goal=   None    Shift=    0.000
 RMSDP=7.16D-08 MaxDP=5.67D-07 DE=-7.77D-10 OVMax= 1.69D-06

 Cycle  10  Pass 1  IDiag  1:
 E= -76.4218212894742     Delta-E=       -0.000000000009 Rises=F Damp=F
 DIIS: error= 1.18D-07 at cycle   5 NSaved=   5.
 NSaved= 5 IEnMin= 5 EnMin= -76.4218212894742     IErMin= 5 ErrMin= 1.18D-07
 ErrMax= 1.18D-07  0.00D+00 EMaxC= 1.00D-01 BMatC= 4.46D-13 BMatP= 5.44D-12
 IDIUse=1 WtCom= 1.00D+00 WtEn= 0.00D+00
 Coeff-Com:  0.288D-02-0.358D-01-0.378D-01 0.146D+00 0.925D+00
 Coeff:      0.288D-02-0.358D-01-0.378D-01 0.146D+00 0.925D+00
 Gap=     0.463 Goal=   None    Shift=    0.000
 RMSDP=2.24D-08 MaxDP=2.16D-07 DE=-9.45D-12 OVMax= 5.54D-07

 Cycle  11  Pass 1  IDiag  1:
 E= -76.4218212894751     Delta-E=       -0.000000000001 Rises=F Damp=F
 DIIS: error= 1.65D-08 at cycle   6 NSaved=   6.
 NSaved= 6 IEnMin= 6 EnMin= -76.4218212894751     IErMin= 6 ErrMin= 1.65D-08
 ErrMax= 1.65D-08  0.00D+00 EMaxC= 1.00D-01 BMatC= 4.86D-15 BMatP= 4.46D-13
 IDIUse=1 WtCom= 1.00D+00 WtEn= 0.00D+00
 Coeff-Com:  0.186D-03-0.694D-03-0.134D-02-0.248D-01-0.216D-01 0.105D+01
 Coeff:      0.186D-03-0.694D-03-0.134D-02-0.248D-01-0.216D-01 0.105D+01
 Gap=     0.463 Goal=   None    Shift=    0.000
 RMSDP=3.80D-09 MaxDP=3.48D-08 DE=-9.66D-13 OVMax= 8.79D-08

 SCF Done:  E(RM062X) =  -76.4218212895     A.U. after   11 cycles
            NFock= 11  Conv=0.38D-08     -V/T= 2.0029
 KE= 7.619989657894D+01 PE=-1.990812263712D+02 EE= 3.734528229829D+01
 Leave Link  502 at Fri Feb 17 21:13:01 2023, MaxMem=  6710886400 cpu:               8.8 elap:               0.4
 (Enter /data0/home/software/g16/l601.exe)
 Copying SCF densities to generalized density rwf, IOpCl= 0 IROHF=0.

 **********************************************************************

            Population analysis using the SCF density.

 **********************************************************************

 Alpha  occ. eigenvalues --  -19.62590  -1.13406  -0.60779  -0.47544  -0.39997
 Alpha virt. eigenvalues --    0.06289   0.13343   0.17396   0.17945   0.18931
 Alpha virt. eigenvalues --    0.23293   0.51182   0.53537   0.97920   1.00203
 Alpha virt. eigenvalues --    1.06033   1.18361   1.19988   1.32353   1.33831
 Alpha virt. eigenvalues --    1.69917   1.74220   1.75712   2.07796   2.09433
 Alpha virt. eigenvalues --    2.35767   2.41434   2.54567   2.88495   3.01415
 Alpha virt. eigenvalues --    5.05680   5.48281   5.92754   6.78315   6.80202
 Alpha virt. eigenvalues --    6.87172   6.91500   7.09434  49.95919
          Condensed to atoms (all electrons):
              13         14         15
    13  O    7.914996   0.321862   0.318982
    14  H    0.321862   0.425900  -0.024392
    15  H    0.318982  -0.024392   0.426200
 Mulliken charges:
               1
     1  C    0.000000
     2  C    0.000000
     3  C    0.000000
     4  N    0.000000
     5  H    0.000000
     6  H    0.000000
     7  H    0.000000
     8  H    0.000000
     9  N    0.000000
    10  O    0.000000
    11  H    0.000000
    12  H    0.000000
    13  O   -0.555840
    14  H    0.276630
    15  H    0.279210
 Sum of Mulliken charges =  -0.00000
 Mulliken charges with hydrogens summed into heavy atoms:
               1
     1  C    0.000000
     2  C    0.000000
     3  C    0.000000
     4  N    0.000000
     9  N    0.000000
    10  O    0.000000
    13  O   -0.000000
         Mulliken charges condensed to fragments:
      1      0.000000
      2      0.000000
      3     -0.000000
 Electronic spatial extent (au):  <R**2>=          13935.8363
 Charge=             -0.0000 electrons
 Dipole moment (field-independent basis, Debye):
    X=              0.9425    Y=             -0.3175    Z=              1.8697  Tot=              2.1178
 Quadrupole moment (field-independent basis, Debye-Ang):
   XX=             15.2716   YY=            -12.1606   ZZ=             31.6841
   XY=              6.8549   XZ=             32.5395   YZ=             19.5711
 Traceless Quadrupole moment (field-independent basis, Debye-Ang):
   XX=              3.6732   YY=            -23.7590   ZZ=             20.0857
   XY=              6.8549   XZ=             32.5395   YZ=             19.5711
 Octapole moment (field-independent basis, Debye-Ang**2):
  XXX=            142.6288  YYY=           -300.0335  ZZZ=            387.1038  XYY=            -25.0683
  XXY=            122.4700  XXZ=            437.0765  XZZ=            488.3255  YZZ=            355.6486
  YYZ=            155.1370  XYZ=            349.4231
 Hexadecapole moment (field-independent basis, Debye-Ang**3):
 XXXX=            158.9165 YYYY=          -6095.6228 ZZZZ=           3944.5944 XXXY=            899.3034
 XXXZ=           4908.7045 YYYX=          -2228.2907 YYYZ=            367.0450 ZZZX=           5800.5124
 ZZZY=           4451.4116 XXYY=             99.0639 XXZZ=           6396.9152 YYZZ=           3518.6084
 XXYZ=           4676.5822 YYXZ=           3163.1986 ZZXY=           5496.4695
 N-N= 9.114226204528D+00 E-N=-1.990812264679D+02  KE= 7.619989657894D+01
 No NMR shielding tensors so no spin-rotation constants.
 Leave Link  601 at Fri Feb 17 21:13:01 2023, MaxMem=  6710886400 cpu:               1.8 elap:               0.1
 (Enter /data0/home/software/g16/l122.exe)
 CPIOFr:  IOpCl= 0 IRwI=-1 IRwCP=  731 ICalc=  6 LCPTot=       88173 Len1MO=      229755 IndFrg=     1696458
 Restoring MOs from calculation   1 to rwf.
 CPIOFr:  IOpCl= 0 IRwI=-2 IRwCP=  731 ICalc=  0 LCPTot=       88173 Len1MO=      229755 IndFrg=      317928
 Counterpoise corrected energy =    -379.040963091492
                   BSSE energy =       0.002096787222
              sum of fragments =    -379.030626833212
           complexation energy =      -7.80 kcal/mole (raw)
           complexation energy =      -6.49 kcal/mole (corrected)
 Leave Link  122 at Fri Feb 17 21:13:01 2023, MaxMem=  6710886400 cpu:               0.1 elap:               0.0
 (Enter /data0/home/software/g16/l9999.exe)
 1\1\GINC-LOCALHOST\SP\RM062X\6-311+G(2d,p)\C3H8N2O2\WUHANYU\17-Feb-202
 3\0\\#p M062X/6-311+G(2d,p) nosymm em=GD3 counterpoise=3\\Title Card R
 equired\\0,1\C,0,8.741396,10.137319,10.75097\C,0,8.609032,8.746942,10.
 798303\C,0,10.393544,9.175138,9.584481\N,0,9.86578,10.397563,9.971354\
 H,0,10.305194,11.310013,9.83292\H,0,8.143271,10.91239,11.179106\H,0,7.
 866675,8.145185,11.283292\H,0,11.290068,9.067134,8.994688\N,0,9.637543
 ,8.16764,10.07163\O,0,11.171674,6.089443,10.828202\H,0,10.338122,6.528
 784,10.507382\H,0,11.826239,6.343333,10.176461\O,0,11.972402,11.930695
 ,10.107068\H,0,12.126966,12.573149,10.799733\H,0,12.347576,11.104515,1
 0.462291\\Version=ES64L-G16RevA.03\HF=-76.4218213\RMSD=3.795e-09\Dipol
 e=0.4244006,2.480115,0.0138183\Quadrupole=-12.322425,47.3790741,-35.05
 66491,59.0496934,6.392973,55.992752\PG=C01 [X(C3H8N2O2)]\\@


 ERROR IS THE FORCE THAT WELDS MEN TOGETHER....
 TRUTH IS COMMUNICATED TO MEN ONLY BY DEEDS OF TRUTH.
           TOLSTOI,MY RELIGION
 Job cpu time:       0 days  0 hours 21 minutes 42.3 seconds.
 Elapsed time:       0 days  0 hours  0 minutes 57.0 seconds.
 File lengths (MBytes):  RWF=     52 Int=      0 D2E=      0 Chk=     17 Scr=      1
 Normal termination of Gaussian 16 at Fri Feb 17 21:13:01 2023.
