 Entering Gaussian System, Link 0=g16
 Initial command:
 /data0/home/software/g16/l1.exe "/data0/home/software/g16/scratch/Gau-3371231.inp" -scrdir="/data0/home/software/g16/scratch/"
 Default is to use a total of  22 processors:
                               22 via shared-memory
                                1 via Linda
 Entering Link 1 = /data0/home/software/g16/l1.exe PID=   3371232.
  
 Copyright (c) 1988,1990,1992,1993,1995,1998,2003,2009,2016,
            Gaussian, Inc.  All Rights Reserved.
  
 This is part of the Gaussian(R) 16 program.  It is based on
 the Gaussian(R) 09 system (copyright 2009, Gaussian, Inc.),
 the Gaussian(R) 03 system (copyright 2003, Gaussian, Inc.),
 the Gaussian(R) 98 system (copyright 1998, Gaussian, Inc.),
 the Gaussian(R) 94 system (copyright 1995, Gaussian, Inc.),
 the Gaussian 92(TM) system (copyright 1992, Gaussian, Inc.),
 the Gaussian 90(TM) system (copyright 1990, Gaussian, Inc.),
 the Gaussian 88(TM) system (copyright 1988, Gaussian, Inc.),
 the Gaussian 86(TM) system (copyright 1986, Carnegie Mellon
 University), and the Gaussian 82(TM) system (copyright 1983,
 Carnegie Mellon University). Gaussian is a federally registered
 trademark of Gaussian, Inc.
  
 This software contains proprietary and confidential information,
 including trade secrets, belonging to Gaussian, Inc.
  
 This software is provided under written license and may be
 used, copied, transmitted, or stored only in accord with that
 written license.
  
 The following legend is applicable only to US Government
 contracts under FAR:
  
                    RESTRICTED RIGHTS LEGEND
  
 Use, reproduction and disclosure by the US Government is
 subject to restrictions as set forth in subparagraphs (a)
 and (c) of the Commercial Computer Software - Restricted
 Rights clause in FAR 52.227-19.
  
 Gaussian, Inc.
 340 Quinnipiac St., Bldg. 40, Wallingford CT 06492
  
  
 ---------------------------------------------------------------
 Warning -- This program may not be used in any manner that
 competes with the business of Gaussian, Inc. or will provide
 assistance to any competitor of Gaussian, Inc.  The licensee
 of this program is prohibited from giving any competitor of
 Gaussian, Inc. access to this program.  By using this program,
 the user acknowledges that Gaussian, Inc. is engaged in the
 business of creating and licensing software in the field of
 computational chemistry and represents and warrants to the
 licensee that it is not a competitor of Gaussian, Inc. and that
 it will not use this program in any manner prohibited above.
 ---------------------------------------------------------------
  

 Cite this work as:
 Gaussian 16, Revision A.03,
 M. J. Frisch, G. W. Trucks, H. B. Schlegel, G. E. Scuseria, 
 M. A. Robb, J. R. Cheeseman, G. Scalmani, V. Barone, 
 G. A. Petersson, H. Nakatsuji, X. Li, M. Caricato, A. V. Marenich, 
 J. Bloino, B. G. Janesko, R. Gomperts, B. Mennucci, H. P. Hratchian, 
 J. V. Ortiz, A. F. Izmaylov, J. L. Sonnenberg, D. Williams-Young, 
 F. Ding, F. Lipparini, F. Egidi, J. Goings, B. Peng, A. Petrone, 
 T. Henderson, D. Ranasinghe, V. G. Zakrzewski, J. Gao, N. Rega, 
 G. Zheng, W. Liang, M. Hada, M. Ehara, K. Toyota, R. Fukuda, 
 J. Hasegawa, M. Ishida, T. Nakajima, Y. Honda, O. Kitao, H. Nakai, 
 T. Vreven, K. Throssell, J. A. Montgomery, Jr., J. E. Peralta, 
 F. Ogliaro, M. J. Bearpark, J. J. Heyd, E. N. Brothers, K. N. Kudin, 
 V. N. Staroverov, T. A. Keith, R. Kobayashi, J. Normand, 
 K. Raghavachari, A. P. Rendell, J. C. Burant, S. S. Iyengar, 
 J. Tomasi, M. Cossi, J. M. Millam, M. Klene, C. Adamo, R. Cammi, 
 J. W. Ochterski, R. L. Martin, K. Morokuma, O. Farkas, 
 J. B. Foresman, and D. J. Fox, Gaussian, Inc., Wallingford CT, 2016.
 
 ******************************************
 Gaussian 16:  ES64L-G16RevA.03 25-Dec-2016
                15-Dec-2022 
 ******************************************
 %nproc=24
 Will use up to   24 processors via shared memory.
 %mem=10GB
 ---------------------------------------------------
 #p M062X/6-311+G(2d,p) nosymm em=GD3 counterpoise=3
 ---------------------------------------------------
 1/38=1,62=3,172=1/1;
 2/12=2,15=1,17=6,18=5,40=1/2;
 1/38=1,53=2,62=3,63=1/22;
 3/5=4,6=6,7=112,11=2,25=1,30=1,74=-55,124=31/1,2,3;
 4//1;
 5/5=2,38=5/2;
 6/7=2,8=2,9=2,10=2,28=1/1;
 1/53=2,62=3,63=1/22;
 3/5=7,6=11,7=112,11=2,25=1,30=1,74=-55,82=7,124=31/1,2,3;
 4//1;
 5/5=2,38=5/2;
 6/7=2,8=2,9=2,10=2,28=1/1;
 1/53=2,62=3,63=1/22(-4);
 99/5=1,9=1/99;
 Leave Link    1 at Thu Dec 15 15:25:29 2022, MaxMem=  1342177280 cpu:               0.7 elap:               0.0
 (Enter /data0/home/software/g16/l101.exe)
 -------------------
 Title Card Required
 -------------------
 Symbolic Z-matrix:
 Charge =  0 Multiplicity = 1 in supermolecule
 Charge =  0 Multiplicity = 1 in fragment      1.
 Charge =  0 Multiplicity = 1 in fragment      2.
 Charge =  0 Multiplicity = 1 in fragment      3.
 C                     7.98594   12.72277   14.01329    
 C                     6.94908   11.83256   14.3243    
 C                     5.65622   12.33272   14.45765    
 C                     5.42947   13.69669   14.27737    
 C                     6.51772   14.52016   13.96781    
 N                     7.76993   14.04045   13.84229    
 H                     4.82919   11.6657   14.69936    
 H                     9.02604   12.38163   13.89192    
 H                     7.15616   10.77471   14.45593    
 H                     4.43172   14.11369   14.37333    
 H                     6.40153   15.5989   13.81088    
 P                     10.87657   14.65175   11.97969    
 O                     10.9275   13.19636   12.10783    
 O                     10.22076   15.20662   10.63263    
 H                     10.34629   14.49813   9.891      
 O                     10.12245   15.50604   13.07767    
 H                     9.19689   15.02733   13.29028    
 O                     12.3372   15.28948   12.00587    
 H                     12.24237   16.31309   12.01891    
 O                     10.71145   12.95589   8.78142    
 H                     10.35152   12.30706   9.39688    
 H                     11.66401   12.8783   8.8837     
 
 ITRead=  0  0  0  0  0  0  0  0  0  0  0  0  0  0  0  0  0  0  0  0
 ITRead=  0  0
 MicOpt= -1 -1 -1 -1 -1 -1 -1 -1 -1 -1 -1 -1 -1 -1 -1 -1 -1 -1 -1 -1
 MicOpt= -1 -1
 NAtoms=     22 NQM=       22 NQMF=       0 NMMI=      0 NMMIF=      0
                NMic=       0 NMicF=      0.
                    Isotopes and Nuclear Properties:
 (Nuclear quadrupole moments (NQMom) in fm**2, nuclear magnetic moments (NMagM)
  in nuclear magnetons)

  Atom         1           2           3           4           5           6           7           8           9          10
 IAtWgt=          12          12          12          12          12          14           1           1           1           1
 AtmWgt=  12.0000000  12.0000000  12.0000000  12.0000000  12.0000000  14.0030740   1.0078250   1.0078250   1.0078250   1.0078250
 NucSpn=           0           0           0           0           0           2           1           1           1           1
 AtZEff=  -0.0000000  -0.0000000  -0.0000000  -0.0000000  -0.0000000  -0.0000000  -0.0000000  -0.0000000  -0.0000000  -0.0000000
 NQMom=    0.0000000   0.0000000   0.0000000   0.0000000   0.0000000   2.0440000   0.0000000   0.0000000   0.0000000   0.0000000
 NMagM=    0.0000000   0.0000000   0.0000000   0.0000000   0.0000000   0.4037610   2.7928460   2.7928460   2.7928460   2.7928460
 AtZNuc=   6.0000000   6.0000000   6.0000000   6.0000000   6.0000000   7.0000000   1.0000000   1.0000000   1.0000000   1.0000000

  Atom        11          12          13          14          15          16          17          18          19          20
 IAtWgt=           1          31          16          16           1          16           1          16           1          16
 AtmWgt=   1.0078250  30.9737634  15.9949146  15.9949146   1.0078250  15.9949146   1.0078250  15.9949146   1.0078250  15.9949146
 NucSpn=           1           1           0           0           1           0           1           0           1           0
 AtZEff=  -0.0000000  -0.0000000  -0.0000000  -0.0000000  -0.0000000  -0.0000000  -0.0000000  -0.0000000  -0.0000000  -0.0000000
 NQMom=    0.0000000   0.0000000   0.0000000   0.0000000   0.0000000   0.0000000   0.0000000   0.0000000   0.0000000   0.0000000
 NMagM=    2.7928460   1.1316000   0.0000000   0.0000000   2.7928460   0.0000000   2.7928460   0.0000000   2.7928460   0.0000000
 AtZNuc=   1.0000000  15.0000000   8.0000000   8.0000000   1.0000000   8.0000000   1.0000000   8.0000000   1.0000000   8.0000000

  Atom        21          22
 IAtWgt=           1           1
 AtmWgt=   1.0078250   1.0078250
 NucSpn=           1           1
 AtZEff=  -0.0000000  -0.0000000
 NQMom=    0.0000000   0.0000000
 NMagM=    2.7928460   2.7928460
 AtZNuc=   1.0000000   1.0000000
 Leave Link  101 at Thu Dec 15 15:25:29 2022, MaxMem=  1342177280 cpu:               2.1 elap:               0.1
 (Enter /data0/home/software/g16/l202.exe)
                          Input orientation:                          
 ---------------------------------------------------------------------
 Center     Atomic      Atomic             Coordinates (Angstroms)
 Number     Number       Type             X           Y           Z
 ---------------------------------------------------------------------
      1          6           0        7.985942   12.722765   14.013287
      2          6           0        6.949082   11.832562   14.324303
      3          6           0        5.656219   12.332715   14.457650
      4          6           0        5.429465   13.696686   14.277371
      5          6           0        6.517722   14.520160   13.967808
      6          7           0        7.769928   14.040455   13.842294
      7          1           0        4.829188   11.665702   14.699362
      8          1           0        9.026037   12.381632   13.891924
      9          1           0        7.156161   10.774712   14.455931
     10          1           0        4.431720   14.113685   14.373329
     11          1           0        6.401533   15.598899   13.810883
     12         15           0       10.876570   14.651748   11.979689
     13          8           0       10.927497   13.196358   12.107827
     14          8           0       10.220757   15.206617   10.632632
     15          1           0       10.346293   14.498131    9.890996
     16          8           0       10.122449   15.506035   13.077668
     17          1           0        9.196895   15.027331   13.290280
     18          8           0       12.337200   15.289483   12.005871
     19          1           0       12.242368   16.313086   12.018911
     20          8           0       10.711450   12.955889    8.781419
     21          1           0       10.351519   12.307059    9.396880
     22          1           0       11.664012   12.878303    8.883697
 ---------------------------------------------------------------------
                    Distance matrix (angstroms):
                    1          2          3          4          5
     1  C    0.000000
     2  C    1.401525   0.000000
     3  C    2.403582   1.392634   0.000000
     4  C    2.748424   2.405493   1.394394   0.000000
     5  C    2.321286   2.745240   2.401468   1.399372   0.000000
     6  N    1.346183   2.404353   2.786181   2.405252   1.346808
     7  H    3.398996   2.159274   1.089638   2.159469   3.396211
     8  H    1.101317   2.191386   3.417325   3.848801   3.297075
     9  H    2.163188   1.085935   2.162684   3.398720   3.830698
    10  H    3.833638   3.397505   2.162952   1.085629   2.163579
    11  H    3.289904   3.840404   3.412002   2.186536   1.096268
    12  P    4.026441   5.373098   6.226578   5.988526   4.792649
    13  O    3.536639   4.753997   5.835574   5.931746   4.965692
    14  O    4.753183   5.976332   6.612494   6.206488   5.030615
    15  H    5.071140   6.188741   6.894936   6.637605   5.592749
    16  O    3.631341   5.011862   5.649913   5.170796   3.841661
    17  H    2.701883   4.040843   4.600010   4.115640   2.809668
    18  O    5.436102   6.808616   7.706439   7.444026   6.189296
    19  H    5.914821   7.308133   8.072680   7.639492   6.307484
    20  O    5.903828   6.792705   7.626487   7.658566   6.850761
    21  H    5.203843   6.006765   6.903470   7.069432   6.363112
    22  H    6.313880   7.274911   8.213416   8.284386   7.418098
                    6          7          8          9         10
     6  N    0.000000
     7  H    3.875819   0.000000
     8  H    2.081338   4.333365   0.000000
     9  H    3.379103   2.503582   2.529176   0.000000
    10  H    3.380975   2.501379   4.933509   4.310237   0.000000
    11  H    2.074184   4.328014   4.152758   4.925275   2.530290
    12  P    3.673445   7.272133   3.497791   5.916471   6.896022
    13  O    3.700151   6.800613   2.731727   5.059737   6.940397
    14  O    4.203383   7.625312   4.475587   6.606901   6.978557
    15  H    4.739186   7.847387   4.714877   6.699211   7.431102
    16  O    2.875227   6.737704   3.409843   5.751860   6.000148
    17  H    1.820681   5.688842   2.718619   4.858817   4.971382
    18  O    5.078631   8.761103   4.793391   7.295829   8.335705
    19  H    5.337818   9.150860   5.413806   7.904565   8.449075
    20  O    5.953259   8.443201   5.411806   7.042563   8.487930
    21  H    5.425033   7.682694   4.686991   6.176763   7.941849
    22  H    6.411098   9.055782   5.682247   7.469646   9.163421
                   11         12         13         14         15
    11  H    0.000000
    12  P    4.927101   0.000000
    13  O    5.399718   1.461907   0.000000
    14  O    4.984138   1.597665   2.591683   0.000000
    15  H    5.669068   2.160424   2.635669   1.033313   0.000000
    16  O    3.793606   1.582423   2.631217   2.465262   3.349754
    17  H    2.900304   2.163335   2.783099   2.853687   3.627161
    18  O    6.211759   1.593999   2.525635   2.524279   3.010423
    19  H    6.151145   2.151043   3.383901   2.689415   3.378932
    20  O    7.131367   3.623829   3.342079   2.955257   1.934686
    21  H    6.776579   3.527626   2.910642   3.154619   2.246102
    22  H    7.705355   3.653812   3.322443   3.250047   2.318378
                   16         17         18         19         20
    16  O    0.000000
    17  H    1.063490   0.000000
    18  O    2.469973   3.402932   0.000000
    19  H    2.503269   3.541815   1.028069   0.000000
    20  O    5.030698   5.187926   4.299513   4.908751   0.000000
    21  H    4.882020   4.887903   4.432225   5.147680   0.964014
    22  H    5.183704   5.488439   4.001867   4.686342   0.961174
                   21         22
    21  H    0.000000
    22  H    1.520630   0.000000
 Symmetry turned off by external request.
 Stoichiometry    C5H10NO5P
 Framework group  C1[X(C5H10NO5P)]
 Deg. of freedom    60
 Full point group                 C1      NOp   1
 Rotational constants (GHZ):           1.2816739           0.3382292           0.3082187
 Leave Link  202 at Thu Dec 15 15:25:29 2022, MaxMem=  1342177280 cpu:               0.1 elap:               0.0
 (Enter /data0/home/software/g16/l122.exe)
 Counterpoise: doing full-system calculation.
 Leave Link  122 at Thu Dec 15 15:25:29 2022, MaxMem=  1342177280 cpu:               0.1 elap:               0.0
 (Enter /data0/home/software/g16/l301.exe)
 Standard basis: 6-311+G(2d,p) (5D, 7F)
 Ernie: Thresh=  0.10000D-02 Tol=  0.10000D-05 Strict=F.
   392 basis functions,   598 primitive gaussians,   416 cartesian basis functions
    51 alpha electrons       51 beta electrons
       nuclear repulsion energy       825.6951570265 Hartrees.
 IExCor= 4336 DFT=T Ex+Corr=M062X ExCW=0 ScaHFX=  0.540000
 ScaDFX=  1.000000  1.000000  1.000000  1.000000 ScalE2=  1.000000  1.000000
 IRadAn=      5 IRanWt=     -1 IRanGd=            0 ICorTp=0 IEmpDi=131
 NAtoms=   22 NActive=   22 NUniq=   22 SFac= 1.00D+00 NAtFMM=   60 NAOKFM=F Big=F
 Integral buffers will be    131072 words long.
 Raffenetti 2 integral format.
 Two-electron integral symmetry is turned off.
 R6Disp:  Grimme-D3 Dispersion energy=       -0.0008328497 Hartrees.
 Nuclear repulsion after empirical dispersion term =      825.6943241768 Hartrees.
 Leave Link  301 at Thu Dec 15 15:25:29 2022, MaxMem=  1342177280 cpu:               1.1 elap:               0.1
 (Enter /data0/home/software/g16/l302.exe)
 NPDir=0 NMtPBC=     1 NCelOv=     1 NCel=       1 NClECP=     1 NCelD=      1
         NCelK=      1 NCelE2=     1 NClLst=     1 CellRange=     0.0.
 One-electron integrals computed using PRISM.
 NBasis=   392 RedAO= T EigKep=  1.03D-05  NBF=   392
 NBsUse=   392 1.00D-06 EigRej= -1.00D+00 NBFU=   392
 Precomputing XC quadrature grid using
 IXCGrd= 4 IRadAn=           5 IRanWt=          -1 IRanGd=           0 AccXCQ= 0.00D+00.
 Generated NRdTot=       0 NPtTot=           0 NUsed=           0 NTot=          32
 NSgBfM=   414   414   414   414   414 MxSgAt=    22 MxSgA2=    22.
 Leave Link  302 at Thu Dec 15 15:25:29 2022, MaxMem=  1342177280 cpu:               6.8 elap:               0.3
 (Enter /data0/home/software/g16/l303.exe)
 DipDrv:  MaxL=1.
 Leave Link  303 at Thu Dec 15 15:25:29 2022, MaxMem=  1342177280 cpu:               0.9 elap:               0.1
 (Enter /data0/home/software/g16/l401.exe)
 ExpMin= 3.48D-02 ExpMax= 7.75D+04 ExpMxC= 2.65D+03 IAcc=3 IRadAn=         5 AccDes= 0.00D+00
 Harris functional with IExCor= 1009 and IRadAn=       5 diagonalized for initial guess.
 HarFok:  IExCor= 1009 AccDes= 0.00D+00 IRadAn=         5 IDoV= 1 UseB2=F ITyADJ=14
 ICtDFT=  3500011 ScaDFX=  1.000000  1.000000  1.000000  1.000000
 FoFCou: FMM=F IPFlag=           0 FMFlag=      100000 FMFlg1=           0
         NFxFlg=           0 DoJE=T BraDBF=F KetDBF=T FulRan=T
         wScrn=  0.000000 ICntrl=       500 IOpCl=  0 I1Cent=   200000004 NGrid=           0
         NMat0=    1 NMatS0=      1 NMatT0=    0 NMatD0=    1 NMtDS0=    0 NMtDT0=    0
 Symmetry not used in FoFCou.
 Harris En= -968.493793619938    
 JPrj=0 DoOrth=F DoCkMO=F.
 Leave Link  401 at Thu Dec 15 15:25:30 2022, MaxMem=  1342177280 cpu:              22.6 elap:               1.0
 (Enter /data0/home/software/g16/l502.exe)
 Two-electron integral symmetry not used.
 Closed shell SCF:
 Using DIIS extrapolation, IDIIS=  1040.
 NGot=  1342177280 LenX=  1341818250 LenY=  1341644753
 Requested convergence on RMS density matrix=1.00D-08 within 128 cycles.
 Requested convergence on MAX density matrix=1.00D-06.
 Requested convergence on             energy=1.00D-06.
 No special actions if energy rises.
 Fock matrices will be formed incrementally for  20 cycles.

 Cycle   1  Pass 1  IDiag  1:
 FoFJK:  IHMeth= 1 ICntrl=       0 DoSepK=F KAlg= 0 I1Cent=           0 FoldK=F
 IRaf= 830000000 NMat=       1 IRICut=       1 DoRegI=T DoRafI=F ISym2E= 0 IDoP0=0 IntGTp=1.
 FoFCou: FMM=F IPFlag=           0 FMFlag=      100000 FMFlg1=           0
         NFxFlg=           0 DoJE=F BraDBF=F KetDBF=F FulRan=T
         wScrn=  0.000000 ICntrl=         0 IOpCl=  0 I1Cent=           0 NGrid=           0
         NMat0=    1 NMatS0=      1 NMatT0=    0 NMatD0=    1 NMtDS0=    0 NMtDT0=    0
 Symmetry not used in FoFCou.
 E= -968.416172292671    
 DIIS: error= 3.32D-02 at cycle   1 NSaved=   1.
 NSaved= 1 IEnMin= 1 EnMin= -968.416172292671     IErMin= 1 ErrMin= 3.32D-02
 ErrMax= 3.32D-02  0.00D+00 EMaxC= 1.00D-01 BMatC= 7.50D-01 BMatP= 7.50D-01
 IDIUse=3 WtCom= 6.68D-01 WtEn= 3.32D-01
 Coeff-Com:  0.100D+01
 Coeff-En:   0.100D+01
 Coeff:      0.100D+01
 Gap=     0.315 Goal=   None    Shift=    0.000
 GapD=    0.315 DampG=1.000 DampE=0.500 DampFc=0.5000 IDamp=-1.
 Damping current iteration by 5.00D-01
 RMSDP=5.13D-03 MaxDP=4.54D-01              OVMax= 2.18D-01

 Cycle   2  Pass 1  IDiag  1:
 RMSU=  2.52D-03    CP:  1.04D+00
 E= -968.619562608638     Delta-E=       -0.203390315967 Rises=F Damp=T
 DIIS: error= 7.81D-03 at cycle   2 NSaved=   2.
 NSaved= 2 IEnMin= 2 EnMin= -968.619562608638     IErMin= 2 ErrMin= 7.81D-03
 ErrMax= 7.81D-03  0.00D+00 EMaxC= 1.00D-01 BMatC= 4.25D-02 BMatP= 7.50D-01
 IDIUse=3 WtCom= 9.22D-01 WtEn= 7.81D-02
 Coeff-Com:  0.161D-01 0.984D+00
 Coeff-En:   0.900D-01 0.910D+00
 Coeff:      0.218D-01 0.978D+00
 Gap=     0.375 Goal=   None    Shift=    0.000
 RMSDP=1.45D-03 MaxDP=1.43D-01 DE=-2.03D-01 OVMax= 1.31D-01

 Cycle   3  Pass 1  IDiag  1:
 RMSU=  1.22D-03    CP:  9.91D-01  7.91D-01
 E= -968.855834130100     Delta-E=       -0.236271521462 Rises=F Damp=F
 DIIS: error= 4.71D-03 at cycle   3 NSaved=   3.
 NSaved= 3 IEnMin= 3 EnMin= -968.855834130100     IErMin= 3 ErrMin= 4.71D-03
 ErrMax= 4.71D-03  0.00D+00 EMaxC= 1.00D-01 BMatC= 1.38D-02 BMatP= 4.25D-02
 IDIUse=3 WtCom= 9.53D-01 WtEn= 4.71D-02
 Coeff-Com: -0.501D-01 0.325D+00 0.725D+00
 Coeff-En:   0.000D+00 0.000D+00 0.100D+01
 Coeff:     -0.477D-01 0.310D+00 0.738D+00
 Gap=     0.314 Goal=   None    Shift=    0.000
 RMSDP=5.44D-04 MaxDP=4.17D-02 DE=-2.36D-01 OVMax= 3.59D-02

 Cycle   4  Pass 1  IDiag  1:
 RMSU=  5.25D-04    CP:  9.87D-01  8.26D-01  9.17D-01
 E= -968.862515406454     Delta-E=       -0.006681276354 Rises=F Damp=F
 DIIS: error= 2.56D-03 at cycle   4 NSaved=   4.
 NSaved= 4 IEnMin= 4 EnMin= -968.862515406454     IErMin= 4 ErrMin= 2.56D-03
 ErrMax= 2.56D-03  0.00D+00 EMaxC= 1.00D-01 BMatC= 4.69D-03 BMatP= 1.38D-02
 IDIUse=3 WtCom= 9.74D-01 WtEn= 2.56D-02
 Coeff-Com: -0.288D-01 0.825D-01 0.414D+00 0.533D+00
 Coeff-En:   0.000D+00 0.000D+00 0.244D+00 0.756D+00
 Coeff:     -0.280D-01 0.804D-01 0.409D+00 0.538D+00
 Gap=     0.314 Goal=   None    Shift=    0.000
 RMSDP=1.91D-04 MaxDP=1.23D-02 DE=-6.68D-03 OVMax= 1.27D-02

 Cycle   5  Pass 1  IDiag  1:
 RMSU=  1.05D-04    CP:  9.89D-01  8.25D-01  9.41D-01  7.04D-01
 E= -968.865821389035     Delta-E=       -0.003305982581 Rises=F Damp=F
 DIIS: error= 4.04D-04 at cycle   5 NSaved=   5.
 NSaved= 5 IEnMin= 5 EnMin= -968.865821389035     IErMin= 5 ErrMin= 4.04D-04
 ErrMax= 4.04D-04  0.00D+00 EMaxC= 1.00D-01 BMatC= 9.21D-05 BMatP= 4.69D-03
 IDIUse=3 WtCom= 9.96D-01 WtEn= 4.04D-03
 Coeff-Com: -0.712D-02 0.125D-01 0.110D+00 0.202D+00 0.683D+00
 Coeff-En:   0.000D+00 0.000D+00 0.000D+00 0.000D+00 0.100D+01
 Coeff:     -0.710D-02 0.125D-01 0.110D+00 0.201D+00 0.684D+00
 Gap=     0.313 Goal=   None    Shift=    0.000
 RMSDP=3.29D-05 MaxDP=1.67D-03 DE=-3.31D-03 OVMax= 1.66D-03

 Cycle   6  Pass 1  IDiag  1:
 RMSU=  2.38D-05    CP:  9.88D-01  8.23D-01  9.44D-01  7.27D-01  8.43D-01
 E= -968.865889630410     Delta-E=       -0.000068241375 Rises=F Damp=F
 DIIS: error= 1.26D-04 at cycle   6 NSaved=   6.
 NSaved= 6 IEnMin= 6 EnMin= -968.865889630410     IErMin= 6 ErrMin= 1.26D-04
 ErrMax= 1.26D-04  0.00D+00 EMaxC= 1.00D-01 BMatC= 5.76D-06 BMatP= 9.21D-05
 IDIUse=3 WtCom= 9.99D-01 WtEn= 1.26D-03
 Coeff-Com: -0.138D-02 0.108D-02 0.230D-01 0.514D-01 0.266D+00 0.660D+00
 Coeff-En:   0.000D+00 0.000D+00 0.000D+00 0.000D+00 0.000D+00 0.100D+01
 Coeff:     -0.138D-02 0.108D-02 0.230D-01 0.513D-01 0.266D+00 0.660D+00
 Gap=     0.314 Goal=   None    Shift=    0.000
 RMSDP=8.91D-06 MaxDP=4.64D-04 DE=-6.82D-05 OVMax= 5.46D-04

 Cycle   7  Pass 1  IDiag  1:
 RMSU=  7.62D-06    CP:  9.88D-01  8.22D-01  9.44D-01  7.31D-01  8.63D-01
                    CP:  1.01D+00
 E= -968.865894748144     Delta-E=       -0.000005117734 Rises=F Damp=F
 DIIS: error= 4.10D-05 at cycle   7 NSaved=   7.
 NSaved= 7 IEnMin= 7 EnMin= -968.865894748144     IErMin= 7 ErrMin= 4.10D-05
 ErrMax= 4.10D-05  0.00D+00 EMaxC= 1.00D-01 BMatC= 3.75D-07 BMatP= 5.76D-06
 IDIUse=1 WtCom= 1.00D+00 WtEn= 0.00D+00
 Coeff-Com:  0.440D-03-0.106D-02-0.646D-02-0.979D-02-0.513D-02 0.164D+00
 Coeff-Com:  0.858D+00
 Coeff:      0.440D-03-0.106D-02-0.646D-02-0.979D-02-0.513D-02 0.164D+00
 Coeff:      0.858D+00
 Gap=     0.314 Goal=   None    Shift=    0.000
 RMSDP=4.64D-06 MaxDP=2.02D-04 DE=-5.12D-06 OVMax= 2.84D-04

 Cycle   8  Pass 1  IDiag  1:
 RMSU=  2.83D-06    CP:  9.88D-01  8.22D-01  9.44D-01  7.35D-01  8.81D-01
                    CP:  1.08D+00  1.06D+00
 E= -968.865895022936     Delta-E=       -0.000000274793 Rises=F Damp=F
 DIIS: error= 2.90D-05 at cycle   8 NSaved=   8.
 NSaved= 8 IEnMin= 8 EnMin= -968.865895022936     IErMin= 8 ErrMin= 2.90D-05
 ErrMax= 2.90D-05  0.00D+00 EMaxC= 1.00D-01 BMatC= 1.73D-07 BMatP= 3.75D-07
 IDIUse=1 WtCom= 1.00D+00 WtEn= 0.00D+00
 Coeff-Com:  0.378D-03-0.731D-03-0.594D-02-0.105D-01-0.280D-01 0.264D-01
 Coeff-Com:  0.481D+00 0.538D+00
 Coeff:      0.378D-03-0.731D-03-0.594D-02-0.105D-01-0.280D-01 0.264D-01
 Coeff:      0.481D+00 0.538D+00
 Gap=     0.314 Goal=   None    Shift=    0.000
 RMSDP=1.33D-06 MaxDP=9.33D-05 DE=-2.75D-07 OVMax= 1.44D-04

 Cycle   9  Pass 1  IDiag  1:
 RMSU=  9.85D-07    CP:  9.88D-01  8.21D-01  9.44D-01  7.35D-01  8.79D-01
                    CP:  1.09D+00  1.09D+00  7.90D-01
 E= -968.865895178546     Delta-E=       -0.000000155610 Rises=F Damp=F
 DIIS: error= 6.20D-06 at cycle   9 NSaved=   9.
 NSaved= 9 IEnMin= 9 EnMin= -968.865895178546     IErMin= 9 ErrMin= 6.20D-06
 ErrMax= 6.20D-06  0.00D+00 EMaxC= 1.00D-01 BMatC= 5.24D-09 BMatP= 1.73D-07
 IDIUse=1 WtCom= 1.00D+00 WtEn= 0.00D+00
 Coeff-Com:  0.522D-04-0.831D-04-0.101D-02-0.191D-02-0.691D-02-0.595D-02
 Coeff-Com:  0.557D-01 0.159D+00 0.801D+00
 Coeff:      0.522D-04-0.831D-04-0.101D-02-0.191D-02-0.691D-02-0.595D-02
 Coeff:      0.557D-01 0.159D+00 0.801D+00
 Gap=     0.314 Goal=   None    Shift=    0.000
 RMSDP=3.89D-07 MaxDP=2.87D-05 DE=-1.56D-07 OVMax= 2.75D-05

 Cycle  10  Pass 1  IDiag  1:
 RMSU=  2.55D-07    CP:  9.88D-01  8.21D-01  9.44D-01  7.36D-01  8.79D-01
                    CP:  1.09D+00  1.10D+00  8.65D-01  1.05D+00
 E= -968.865895183505     Delta-E=       -0.000000004958 Rises=F Damp=F
 DIIS: error= 1.69D-06 at cycle  10 NSaved=  10.
 NSaved=10 IEnMin=10 EnMin= -968.865895183505     IErMin=10 ErrMin= 1.69D-06
 ErrMax= 1.69D-06  0.00D+00 EMaxC= 1.00D-01 BMatC= 1.10D-09 BMatP= 5.24D-09
 IDIUse=1 WtCom= 1.00D+00 WtEn= 0.00D+00
 Coeff-Com: -0.171D-04 0.390D-04 0.163D-03 0.231D-03-0.457D-03-0.622D-02
 Coeff-Com: -0.279D-01 0.130D-01 0.356D+00 0.665D+00
 Coeff:     -0.171D-04 0.390D-04 0.163D-03 0.231D-03-0.457D-03-0.622D-02
 Coeff:     -0.279D-01 0.130D-01 0.356D+00 0.665D+00
 Gap=     0.314 Goal=   None    Shift=    0.000
 RMSDP=1.67D-07 MaxDP=1.45D-05 DE=-4.96D-09 OVMax= 1.31D-05

 Cycle  11  Pass 1  IDiag  1:
 RMSU=  1.27D-07    CP:  9.88D-01  8.21D-01  9.44D-01  7.36D-01  8.79D-01
                    CP:  1.09D+00  1.10D+00  8.79D-01  1.13D+00  9.57D-01
 E= -968.865895184478     Delta-E=       -0.000000000974 Rises=F Damp=F
 DIIS: error= 6.84D-07 at cycle  11 NSaved=  11.
 NSaved=11 IEnMin=11 EnMin= -968.865895184478     IErMin=11 ErrMin= 6.84D-07
 ErrMax= 6.84D-07  0.00D+00 EMaxC= 1.00D-01 BMatC= 1.40D-10 BMatP= 1.10D-09
 IDIUse=1 WtCom= 1.00D+00 WtEn= 0.00D+00
 Coeff-Com: -0.123D-04 0.250D-04 0.180D-03 0.304D-03 0.484D-03-0.211D-02
 Coeff-Com: -0.184D-01-0.135D-01 0.504D-01 0.304D+00 0.678D+00
 Coeff:     -0.123D-04 0.250D-04 0.180D-03 0.304D-03 0.484D-03-0.211D-02
 Coeff:     -0.184D-01-0.135D-01 0.504D-01 0.304D+00 0.678D+00
 Gap=     0.314 Goal=   None    Shift=    0.000
 RMSDP=5.40D-08 MaxDP=1.65D-06 DE=-9.74D-10 OVMax= 3.35D-06

 Cycle  12  Pass 1  IDiag  1:
 RMSU=  2.82D-08    CP:  9.88D-01  8.21D-01  9.44D-01  7.36D-01  8.79D-01
                    CP:  1.09D+00  1.10D+00  8.87D-01  1.15D+00  1.04D+00
                    CP:  8.79D-01
 E= -968.865895184611     Delta-E=       -0.000000000133 Rises=F Damp=F
 DIIS: error= 1.60D-07 at cycle  12 NSaved=  12.
 NSaved=12 IEnMin=12 EnMin= -968.865895184611     IErMin=12 ErrMin= 1.60D-07
 ErrMax= 1.60D-07  0.00D+00 EMaxC= 1.00D-01 BMatC= 8.43D-12 BMatP= 1.40D-10
 IDIUse=1 WtCom= 1.00D+00 WtEn= 0.00D+00
 Coeff-Com: -0.138D-05 0.261D-05 0.371D-04 0.675D-04 0.190D-03 0.101D-03
 Coeff-Com: -0.231D-02-0.549D-02-0.277D-01 0.333D-01 0.217D+00 0.785D+00
 Coeff:     -0.138D-05 0.261D-05 0.371D-04 0.675D-04 0.190D-03 0.101D-03
 Coeff:     -0.231D-02-0.549D-02-0.277D-01 0.333D-01 0.217D+00 0.785D+00
 Gap=     0.314 Goal=   None    Shift=    0.000
 RMSDP=1.93D-08 MaxDP=2.30D-06 DE=-1.33D-10 OVMax= 1.50D-06

 Cycle  13  Pass 1  IDiag  1:
 RMSU=  9.67D-09    CP:  9.88D-01  8.21D-01  9.44D-01  7.36D-01  8.79D-01
                    CP:  1.09D+00  1.10D+00  8.87D-01  1.16D+00  1.08D+00
                    CP:  9.50D-01  9.70D-01
 E= -968.865895184619     Delta-E=       -0.000000000008 Rises=F Damp=F
 DIIS: error= 9.88D-08 at cycle  13 NSaved=  13.
 NSaved=13 IEnMin=13 EnMin= -968.865895184619     IErMin=13 ErrMin= 9.88D-08
 ErrMax= 9.88D-08  0.00D+00 EMaxC= 1.00D-01 BMatC= 1.25D-12 BMatP= 8.43D-12
 IDIUse=1 WtCom= 1.00D+00 WtEn= 0.00D+00
 Coeff-Com:  0.755D-06-0.152D-05-0.305D-05-0.416D-05 0.175D-04 0.241D-03
 Coeff-Com:  0.935D-03-0.531D-03-0.158D-01-0.158D-01 0.114D-01 0.319D+00
 Coeff-Com:  0.700D+00
 Coeff:      0.755D-06-0.152D-05-0.305D-05-0.416D-05 0.175D-04 0.241D-03
 Coeff:      0.935D-03-0.531D-03-0.158D-01-0.158D-01 0.114D-01 0.319D+00
 Coeff:      0.700D+00
 Gap=     0.314 Goal=   None    Shift=    0.000
 RMSDP=4.67D-09 MaxDP=1.71D-07 DE=-7.73D-12 OVMax= 6.10D-07

 SCF Done:  E(RM062X) =  -968.865895185     A.U. after   13 cycles
            NFock= 13  Conv=0.47D-08     -V/T= 2.0031
 KE= 9.658395688327D+02 PE=-3.937031730540D+03 EE= 1.176631942345D+03
 Leave Link  502 at Thu Dec 15 15:26:06 2022, MaxMem=  1342177280 cpu:             847.1 elap:              35.4
 (Enter /data0/home/software/g16/l601.exe)
 Copying SCF densities to generalized density rwf, IOpCl= 0 IROHF=0.

 **********************************************************************

            Population analysis using the SCF density.

 **********************************************************************

 Alpha  occ. eigenvalues --  -78.13942 -19.64932 -19.64710 -19.63731 -19.63291
 Alpha  occ. eigenvalues --  -19.57470 -14.78334 -10.60532 -10.60133 -10.58359
 Alpha  occ. eigenvalues --  -10.57417 -10.57245  -6.94693  -5.06600  -5.06555
 Alpha  occ. eigenvalues --   -5.06436  -1.20672  -1.15725  -1.13140  -1.12209
 Alpha  occ. eigenvalues --   -1.07756  -1.07563  -0.92616  -0.88082  -0.73845
 Alpha  occ. eigenvalues --   -0.73272  -0.69248  -0.62952  -0.62881  -0.62336
 Alpha  occ. eigenvalues --   -0.59508  -0.57238  -0.56194  -0.53639  -0.51958
 Alpha  occ. eigenvalues --   -0.51673  -0.50030  -0.49722  -0.49437  -0.47704
 Alpha  occ. eigenvalues --   -0.45805  -0.44729  -0.44422  -0.42928  -0.41911
 Alpha  occ. eigenvalues --   -0.39569  -0.37237  -0.36863  -0.36623  -0.35845
 Alpha  occ. eigenvalues --   -0.33727
 Alpha virt. eigenvalues --   -0.02359  -0.00854   0.00089   0.00881   0.01827
 Alpha virt. eigenvalues --    0.02563   0.02974   0.04159   0.05103   0.05289
 Alpha virt. eigenvalues --    0.06171   0.07190   0.08251   0.08528   0.09311
 Alpha virt. eigenvalues --    0.09982   0.11363   0.12392   0.12606   0.13015
 Alpha virt. eigenvalues --    0.13429   0.13841   0.14264   0.14950   0.15690
 Alpha virt. eigenvalues --    0.15945   0.16697   0.17212   0.17820   0.18092
 Alpha virt. eigenvalues --    0.18687   0.19330   0.19664   0.20033   0.20393
 Alpha virt. eigenvalues --    0.20626   0.21210   0.21842   0.21956   0.22723
 Alpha virt. eigenvalues --    0.22810   0.23243   0.23969   0.24474   0.24712
 Alpha virt. eigenvalues --    0.25886   0.26580   0.27551   0.28056   0.28467
 Alpha virt. eigenvalues --    0.29335   0.29484   0.30709   0.30988   0.31528
 Alpha virt. eigenvalues --    0.31893   0.32478   0.33023   0.33670   0.34036
 Alpha virt. eigenvalues --    0.34588   0.35261   0.35977   0.36450   0.38081
 Alpha virt. eigenvalues --    0.38951   0.40052   0.41974   0.42488   0.44449
 Alpha virt. eigenvalues --    0.45668   0.46648   0.48450   0.49905   0.50703
 Alpha virt. eigenvalues --    0.51397   0.52503   0.52998   0.53174   0.54361
 Alpha virt. eigenvalues --    0.55134   0.55793   0.57046   0.58170   0.59072
 Alpha virt. eigenvalues --    0.61294   0.62344   0.63492   0.64137   0.64756
 Alpha virt. eigenvalues --    0.65556   0.66817   0.67209   0.68064   0.70402
 Alpha virt. eigenvalues --    0.71428   0.73071   0.73731   0.75820   0.78039
 Alpha virt. eigenvalues --    0.78770   0.79537   0.80059   0.80918   0.82078
 Alpha virt. eigenvalues --    0.82499   0.82998   0.83466   0.84812   0.86349
 Alpha virt. eigenvalues --    0.87511   0.89193   0.89509   0.91105   0.92462
 Alpha virt. eigenvalues --    0.93722   0.94267   0.97506   1.01730   1.02508
 Alpha virt. eigenvalues --    1.04015   1.05819   1.07460   1.08591   1.09376
 Alpha virt. eigenvalues --    1.12368   1.12936   1.15144   1.16293   1.17560
 Alpha virt. eigenvalues --    1.17948   1.19117   1.20009   1.20165   1.20419
 Alpha virt. eigenvalues --    1.21658   1.23213   1.24538   1.25880   1.26138
 Alpha virt. eigenvalues --    1.29141   1.29323   1.29920   1.30463   1.32214
 Alpha virt. eigenvalues --    1.33520   1.34234   1.35154   1.35324   1.36931
 Alpha virt. eigenvalues --    1.37323   1.38179   1.39128   1.41411   1.43262
 Alpha virt. eigenvalues --    1.44079   1.46627   1.48482   1.48939   1.49636
 Alpha virt. eigenvalues --    1.51051   1.51809   1.52646   1.53855   1.56912
 Alpha virt. eigenvalues --    1.59420   1.61612   1.62351   1.63006   1.65086
 Alpha virt. eigenvalues --    1.65147   1.67314   1.68420   1.69760   1.70576
 Alpha virt. eigenvalues --    1.72181   1.73634   1.75821   1.76620   1.79713
 Alpha virt. eigenvalues --    1.82100   1.82733   1.83475   1.86049   1.88553
 Alpha virt. eigenvalues --    1.89344   1.91167   1.93932   1.96295   1.98251
 Alpha virt. eigenvalues --    1.99803   2.00540   2.01069   2.04520   2.05914
 Alpha virt. eigenvalues --    2.09419   2.11625   2.13415   2.16301   2.17032
 Alpha virt. eigenvalues --    2.18068   2.21539   2.22620   2.26378   2.28926
 Alpha virt. eigenvalues --    2.30889   2.35029   2.39030   2.40531   2.40640
 Alpha virt. eigenvalues --    2.43072   2.47400   2.52607   2.52902   2.54153
 Alpha virt. eigenvalues --    2.55771   2.57293   2.63125   2.64441   2.66508
 Alpha virt. eigenvalues --    2.68632   2.69803   2.71710   2.74546   2.75360
 Alpha virt. eigenvalues --    2.75699   2.79350   2.82041   2.82616   2.85455
 Alpha virt. eigenvalues --    2.86153   2.87012   2.87894   2.88757   2.92392
 Alpha virt. eigenvalues --    2.96421   2.97718   3.00026   3.02596   3.03742
 Alpha virt. eigenvalues --    3.07162   3.07508   3.11233   3.12535   3.13521
 Alpha virt. eigenvalues --    3.21356   3.22207   3.27394   3.28119   3.28664
 Alpha virt. eigenvalues --    3.31083   3.35869   3.40907   3.44198   3.45763
 Alpha virt. eigenvalues --    3.54045   3.54539   3.55248   3.56205   3.56900
 Alpha virt. eigenvalues --    3.58014   3.63965   3.67603   3.71551   3.72872
 Alpha virt. eigenvalues --    3.75103   3.79660   3.82991   3.86301   3.91329
 Alpha virt. eigenvalues --    3.94713   3.95210   3.98490   4.02560   4.47245
 Alpha virt. eigenvalues --    4.49430   4.54208   4.80692   4.94430   4.97801
 Alpha virt. eigenvalues --    5.02014   5.08768   5.11782   5.12497   5.12891
 Alpha virt. eigenvalues --    5.13632   5.16040   5.17672   5.20829   5.22208
 Alpha virt. eigenvalues --    5.26843   5.27122   5.38154   5.49475   5.50644
 Alpha virt. eigenvalues --    5.56615   5.59129   5.62378   5.82285   5.92884
 Alpha virt. eigenvalues --    6.76008   6.77179   6.78109   6.78451   6.80528
 Alpha virt. eigenvalues --    6.81390   6.81970   6.84050   6.84911   6.88496
 Alpha virt. eigenvalues --    6.89510   6.91968   6.93351   6.98791   6.99602
 Alpha virt. eigenvalues --    7.00631   7.07498   7.08029   7.10426   7.16551
 Alpha virt. eigenvalues --    7.25636   7.30206   7.34501   7.38803   7.42504
 Alpha virt. eigenvalues --    7.68854  14.26799  14.27927  14.39935  23.82235
 Alpha virt. eigenvalues --   24.03841  24.04899  24.08469  24.12250  35.72168
 Alpha virt. eigenvalues --   49.98972  50.05314  50.06934  50.07321  50.11816
 Alpha virt. eigenvalues --  163.91962
          Condensed to atoms (all electrons):
               1          2          3          4          5          6
     1  C    6.745327  -0.844046   0.060638   0.093632  -0.598746   0.293033
     2  C   -0.844046   6.032342   0.373623  -0.011270   0.040536   0.077100
     3  C    0.060638   0.373623   5.006860   0.410987   0.122772  -0.101522
     4  C    0.093632  -0.011270   0.410987   5.259977  -0.172600   0.082737
     5  C   -0.598746   0.040536   0.122772  -0.172600   6.165937   0.185645
     6  N    0.293033   0.077100  -0.101522   0.082737   0.185645   6.768911
     7  H   -0.003259  -0.010067   0.372229  -0.012995  -0.000840   0.000366
     8  H    0.431753  -0.052974   0.010405  -0.008362   0.012874  -0.051764
     9  H   -0.009712   0.371799  -0.028458   0.005807  -0.002289   0.007084
    10  H   -0.003280   0.008212  -0.024534   0.378896  -0.022592   0.008000
    11  H    0.012336  -0.008014   0.016929  -0.052900   0.432020  -0.058199
    12  P    0.037380  -0.025921  -0.000166   0.005300  -0.020863  -0.004395
    13  O    0.020212  -0.019819  -0.003519   0.000338   0.002798  -0.006517
    14  O   -0.018223   0.009956  -0.000167  -0.002720   0.007862   0.000557
    15  H    0.001080  -0.001559   0.000120   0.000160  -0.000264  -0.000968
    16  O    0.000710  -0.004370  -0.001451  -0.002278  -0.003420   0.006992
    17  H   -0.005701   0.001473  -0.002810   0.021803  -0.026124   0.053116
    18  O   -0.002341  -0.002777  -0.000004  -0.000054   0.000266  -0.000222
    19  H    0.000990   0.000508  -0.000028   0.000076  -0.000287  -0.000279
    20  O   -0.002053   0.002164  -0.000139   0.000092  -0.000033   0.000295
    21  H    0.001305  -0.001123   0.000021   0.000005  -0.000047  -0.000199
    22  H   -0.000107  -0.000002   0.000000   0.000000   0.000024   0.000019
               7          8          9         10         11         12
     1  C   -0.003259   0.431753  -0.009712  -0.003280   0.012336   0.037380
     2  C   -0.010067  -0.052974   0.371799   0.008212  -0.008014  -0.025921
     3  C    0.372229   0.010405  -0.028458  -0.024534   0.016929  -0.000166
     4  C   -0.012995  -0.008362   0.005807   0.378896  -0.052900   0.005300
     5  C   -0.000840   0.012874  -0.002289  -0.022592   0.432020  -0.020863
     6  N    0.000366  -0.051764   0.007084   0.008000  -0.058199  -0.004395
     7  H    0.524795  -0.000228  -0.004682  -0.004523  -0.000260   0.000011
     8  H   -0.000228   0.472175  -0.002101   0.000072  -0.000114   0.000653
     9  H   -0.004682  -0.002101   0.521602  -0.000187   0.000082   0.000045
    10  H   -0.004523   0.000072  -0.000187   0.523403  -0.002686  -0.000021
    11  H   -0.000260  -0.000114   0.000082  -0.002686   0.518657  -0.000314
    12  P    0.000011   0.000653   0.000045  -0.000021  -0.000314  12.529361
    13  O    0.000000  -0.001513   0.000059  -0.000001   0.000057   0.518025
    14  O   -0.000000  -0.000005   0.000001   0.000001   0.000009   0.336305
    15  H    0.000000  -0.000001  -0.000000  -0.000000  -0.000004  -0.005019
    16  O   -0.000008   0.002362   0.000059   0.000045   0.001412   0.254114
    17  H    0.000015  -0.000727  -0.000043  -0.000046  -0.001160   0.012602
    18  O   -0.000000   0.000006   0.000000   0.000000   0.000009   0.199181
    19  H    0.000000   0.000020  -0.000000   0.000000  -0.000002   0.026116
    20  O    0.000000  -0.000005  -0.000001  -0.000000  -0.000001   0.025469
    21  H   -0.000000   0.000000   0.000001  -0.000000   0.000000  -0.001611
    22  H    0.000000   0.000001  -0.000000  -0.000000   0.000000  -0.003307
              13         14         15         16         17         18
     1  C    0.020212  -0.018223   0.001080   0.000710  -0.005701  -0.002341
     2  C   -0.019819   0.009956  -0.001559  -0.004370   0.001473  -0.002777
     3  C   -0.003519  -0.000167   0.000120  -0.001451  -0.002810  -0.000004
     4  C    0.000338  -0.002720   0.000160  -0.002278   0.021803  -0.000054
     5  C    0.002798   0.007862  -0.000264  -0.003420  -0.026124   0.000266
     6  N   -0.006517   0.000557  -0.000968   0.006992   0.053116  -0.000222
     7  H    0.000000  -0.000000   0.000000  -0.000008   0.000015  -0.000000
     8  H   -0.001513  -0.000005  -0.000001   0.002362  -0.000727   0.000006
     9  H    0.000059   0.000001  -0.000000   0.000059  -0.000043   0.000000
    10  H   -0.000001   0.000001  -0.000000   0.000045  -0.000046   0.000000
    11  H    0.000057   0.000009  -0.000004   0.001412  -0.001160   0.000009
    12  P    0.518025   0.336305  -0.005019   0.254114   0.012602   0.199181
    13  O    8.246888  -0.046414  -0.010028  -0.064212   0.001880   0.011839
    14  O   -0.046414   8.046096   0.271663   0.002121   0.002470  -0.025176
    15  H   -0.010028   0.271663   0.335185  -0.002099   0.001211   0.004270
    16  O   -0.064212   0.002121  -0.002099   8.234775   0.234314  -0.023411
    17  H    0.001880   0.002470   0.001211   0.234314   0.253969   0.000529
    18  O    0.011839  -0.025176   0.004270  -0.023411   0.000529   8.064103
    19  H    0.001344  -0.008689  -0.001737  -0.014786   0.000966   0.237151
    20  O    0.003282   0.024612   0.003272   0.003138   0.000074  -0.013062
    21  H    0.002392  -0.006195   0.001299  -0.000256   0.000025   0.000594
    22  H   -0.001440  -0.003712  -0.001566  -0.000207   0.000004   0.000952
              19         20         21         22
     1  C    0.000990  -0.002053   0.001305  -0.000107
     2  C    0.000508   0.002164  -0.001123  -0.000002
     3  C   -0.000028  -0.000139   0.000021   0.000000
     4  C    0.000076   0.000092   0.000005   0.000000
     5  C   -0.000287  -0.000033  -0.000047   0.000024
     6  N   -0.000279   0.000295  -0.000199   0.000019
     7  H    0.000000   0.000000  -0.000000   0.000000
     8  H    0.000020  -0.000005   0.000000   0.000001
     9  H   -0.000000  -0.000001   0.000001  -0.000000
    10  H    0.000000  -0.000000  -0.000000  -0.000000
    11  H   -0.000002  -0.000001   0.000000   0.000000
    12  P    0.026116   0.025469  -0.001611  -0.003307
    13  O    0.001344   0.003282   0.002392  -0.001440
    14  O   -0.008689   0.024612  -0.006195  -0.003712
    15  H   -0.001737   0.003272   0.001299  -0.001566
    16  O   -0.014786   0.003138  -0.000256  -0.000207
    17  H    0.000966   0.000074   0.000025   0.000004
    18  O    0.237151  -0.013062   0.000594   0.000952
    19  H    0.449689   0.000699  -0.000085  -0.000077
    20  O    0.000699   7.815898   0.353192   0.355022
    21  H   -0.000085   0.353192   0.372692  -0.025291
    22  H   -0.000077   0.355022  -0.025291   0.383957
 Mulliken charges:
               1
     1  C   -0.210927
     2  C    0.064229
     3  C   -0.211788
     4  C    0.003365
     5  C   -0.122628
     6  N   -0.259791
     7  H    0.139447
     8  H    0.187475
     9  H    0.140933
    10  H    0.139241
    11  H    0.142141
    12  P    1.117057
    13  O   -0.655653
    14  O   -0.590351
    15  H    0.404985
    16  O   -0.623542
    17  H    0.452161
    18  O   -0.451854
    19  H    0.308409
    20  O   -0.571917
    21  H    0.303278
    22  H    0.295730
 Sum of Mulliken charges =  -0.00000
 Mulliken charges with hydrogens summed into heavy atoms:
               1
     1  C   -0.023452
     2  C    0.205161
     3  C   -0.072341
     4  C    0.142607
     5  C    0.019513
     6  N   -0.259791
    12  P    1.117057
    13  O   -0.655653
    14  O   -0.185366
    16  O   -0.171381
    18  O   -0.143445
    20  O    0.027092
         Mulliken charges condensed to fragments:
      1      0.011697
      2     -0.038788
      3      0.027092
 Electronic spatial extent (au):  <R**2>=         162239.6724
 Charge=             -0.0000 electrons
 Dipole moment (field-independent basis, Debye):
    X=             -3.8863    Y=             -1.3318    Z=              1.0135  Tot=              4.2314
 Quadrupole moment (field-independent basis, Debye-Ang):
   XX=           -135.2212   YY=           -105.0502   ZZ=            -54.5633
   XY=            -61.0555   XZ=            -51.5520   YZ=             -3.1414
 Traceless Quadrupole moment (field-independent basis, Debye-Ang):
   XX=            -36.9430   YY=             -6.7720   ZZ=             43.7150
   XY=            -61.0555   XZ=            -51.5520   YZ=             -3.1414
 Octapole moment (field-independent basis, Debye-Ang**2):
  XXX=          -2758.2341  YYY=          -3612.7994  ZZZ=          -2546.9947  XYY=          -1555.5227
  XXY=          -1892.1874  XXZ=          -1835.6607  XZZ=          -1392.1955  YZZ=           -995.0059
  YYZ=          -1140.5369  XYZ=           -798.2903
 Hexadecapole moment (field-independent basis, Debye-Ang**3):
 XXXX=         -47115.1378 YYYY=         -94051.8714 ZZZZ=         -69882.1050 XXXY=         -38190.0805
 XXXZ=         -36484.5830 YYYX=         -40179.5782 YYYZ=         -42973.2653 ZZZX=         -35218.8694
 ZZZY=         -38689.5630 XXYY=         -32344.1624 XXZZ=         -31611.4340 YYZZ=         -28260.1303
 XXYZ=         -25484.2164 YYXZ=         -19743.8932 ZZXY=         -20535.6783
 N-N= 8.256943241768D+02 E-N=-3.937031735394D+03  KE= 9.658395688327D+02
 No NMR shielding tensors so no spin-rotation constants.
 Leave Link  601 at Thu Dec 15 15:26:06 2022, MaxMem=  1342177280 cpu:               2.7 elap:               0.2
 (Enter /data0/home/software/g16/l122.exe)
 CPIOFr:  IOpCl= 0 IRwI=-1 IRwCP=  731 ICalc= -1 LCPTot=      236915 Len1MO=      622702 IndFrg=      236915
 CPIOFr:  IOpCl= 0 IRwI=-1 IRwCP=  731 ICalc=  0 LCPTot=      236915 Len1MO=      622702 IndFrg=      859617
 Counterpoise: doing calculation for fragment   1 using the basis set of the full-system, NewBq=T
 Leave Link  122 at Thu Dec 15 15:26:06 2022, MaxMem=  1342177280 cpu:               0.3 elap:               0.0
 (Enter /data0/home/software/g16/l301.exe)
 Basis read from rwf:  (5D, 7F)
 No pseudopotential information found on rwf file.
   392 basis functions,   598 primitive gaussians,   416 cartesian basis functions
    21 alpha electrons       21 beta electrons
       nuclear repulsion energy       205.2295186574 Hartrees.
 IExCor= 4336 DFT=T Ex+Corr=M062X ExCW=0 ScaHFX=  0.540000
 ScaDFX=  1.000000  1.000000  1.000000  1.000000 ScalE2=  1.000000  1.000000
 IRadAn=      5 IRanWt=     -1 IRanGd=            0 ICorTp=0 IEmpDi=131
 NAtoms=   22 NActive=   22 NUniq=   22 SFac= 1.00D+00 NAtFMM=   60 NAOKFM=F Big=F
 Integral buffers will be    131072 words long.
 Raffenetti 2 integral format.
 Two-electron integral symmetry is turned off.
 R6Disp:  Grimme-D3 Dispersion energy=       -0.0000989618 Hartrees.
 Nuclear repulsion after empirical dispersion term =      205.2294196956 Hartrees.
 No density basis found on file   718.
 Leave Link  301 at Thu Dec 15 15:26:06 2022, MaxMem=  1342177280 cpu:               1.3 elap:               0.1
 (Enter /data0/home/software/g16/l302.exe)
 NPDir=0 NMtPBC=     1 NCelOv=     1 NCel=       1 NClECP=     1 NCelD=      1
         NCelK=      1 NCelE2=     1 NClLst=     1 CellRange=     0.0.
 One-electron integrals computed using PRISM.
 NBasis=   392 RedAO= T EigKep=  1.03D-05  NBF=   392
 NBsUse=   392 1.00D-06 EigRej= -1.00D+00 NBFU=   392
 Precomputing XC quadrature grid using
 IXCGrd= 4 IRadAn=           5 IRanWt=          -1 IRanGd=           0 AccXCQ= 0.00D+00.
 Generated NRdTot=       0 NPtTot=           0 NUsed=           0 NTot=          32
 NSgBfM=   414   414   414   414   414 MxSgAt=    22 MxSgA2=    22.
 Leave Link  302 at Thu Dec 15 15:26:06 2022, MaxMem=  1342177280 cpu:               6.8 elap:               0.3
 (Enter /data0/home/software/g16/l303.exe)
 DipDrv:  MaxL=1.
 Leave Link  303 at Thu Dec 15 15:26:06 2022, MaxMem=  1342177280 cpu:               0.9 elap:               0.1
 (Enter /data0/home/software/g16/l401.exe)
 ExpMin= 3.48D-02 ExpMax= 7.75D+04 ExpMxC= 2.65D+03 IAcc=3 IRadAn=         5 AccDes= 0.00D+00
 Harris functional with IExCor= 1009 and IRadAn=       5 diagonalized for initial guess.
 HarFok:  IExCor= 1009 AccDes= 0.00D+00 IRadAn=         5 IDoV= 1 UseB2=F ITyADJ=14
 ICtDFT=  3500011 ScaDFX=  1.000000  1.000000  1.000000  1.000000
 FoFCou: FMM=F IPFlag=           0 FMFlag=      100000 FMFlg1=           0
         NFxFlg=           0 DoJE=T BraDBF=F KetDBF=T FulRan=T
         wScrn=  0.000000 ICntrl=       500 IOpCl=  0 I1Cent=   200000004 NGrid=           0
         NMat0=    1 NMatS0=      1 NMatT0=    0 NMatD0=    1 NMtDS0=    0 NMtDT0=    0
 Symmetry not used in FoFCou.
 Harris En= -248.119113993093    
 JPrj=0 DoOrth=F DoCkMO=F.
 Leave Link  401 at Thu Dec 15 15:26:07 2022, MaxMem=  1342177280 cpu:              21.8 elap:               0.9
 (Enter /data0/home/software/g16/l502.exe)
 Two-electron integral symmetry not used.
 Closed shell SCF:
 Using DIIS extrapolation, IDIIS=  1040.
 NGot=  1342177280 LenX=  1341818250 LenY=  1341644753
 Requested convergence on RMS density matrix=1.00D-08 within 128 cycles.
 Requested convergence on MAX density matrix=1.00D-06.
 Requested convergence on             energy=1.00D-06.
 No special actions if energy rises.
 Fock matrices will be formed incrementally for  20 cycles.

 Cycle   1  Pass 1  IDiag  1:
 FoFJK:  IHMeth= 1 ICntrl=       0 DoSepK=F KAlg= 0 I1Cent=           0 FoldK=F
 IRaf= 830000000 NMat=       1 IRICut=       1 DoRegI=T DoRafI=F ISym2E= 0 IDoP0=0 IntGTp=1.
 FoFCou: FMM=F IPFlag=           0 FMFlag=      100000 FMFlg1=           0
         NFxFlg=           0 DoJE=F BraDBF=F KetDBF=F FulRan=T
         wScrn=  0.000000 ICntrl=         0 IOpCl=  0 I1Cent=           0 NGrid=           0
         NMat0=    1 NMatS0=      1 NMatT0=    0 NMatD0=    1 NMtDS0=    0 NMtDT0=    0
 Symmetry not used in FoFCou.
 E= -248.122017758553    
 DIIS: error= 3.01D-02 at cycle   1 NSaved=   1.
 NSaved= 1 IEnMin= 1 EnMin= -248.122017758553     IErMin= 1 ErrMin= 3.01D-02
 ErrMax= 3.01D-02  0.00D+00 EMaxC= 1.00D-01 BMatC= 1.51D-01 BMatP= 1.51D-01
 IDIUse=3 WtCom= 6.99D-01 WtEn= 3.01D-01
 Coeff-Com:  0.100D+01
 Coeff-En:   0.100D+01
 Coeff:      0.100D+01
 Gap=     0.339 Goal=   None    Shift=    0.000
 GapD=    0.339 DampG=1.000 DampE=0.500 DampFc=0.5000 IDamp=-1.
 Damping current iteration by 5.00D-01
 RMSDP=2.34D-03 MaxDP=1.41D-01              OVMax= 1.39D-01

 Cycle   2  Pass 1  IDiag  1:
 RMSU=  1.17D-03    CP:  9.95D-01
 E= -248.185935245311     Delta-E=       -0.063917486758 Rises=F Damp=T
 DIIS: error= 7.10D-03 at cycle   2 NSaved=   2.
 NSaved= 2 IEnMin= 2 EnMin= -248.185935245311     IErMin= 2 ErrMin= 7.10D-03
 ErrMax= 7.10D-03  0.00D+00 EMaxC= 1.00D-01 BMatC= 1.47D-02 BMatP= 1.51D-01
 IDIUse=3 WtCom= 9.29D-01 WtEn= 7.10D-02
 Coeff-Com: -0.223D+00 0.122D+01
 Coeff-En:   0.000D+00 0.100D+01
 Coeff:     -0.207D+00 0.121D+01
 Gap=     0.337 Goal=   None    Shift=    0.000
 RMSDP=8.40D-04 MaxDP=5.90D-02 DE=-6.39D-02 OVMax= 7.67D-02

 Cycle   3  Pass 1  IDiag  1:
 RMSU=  8.07D-04    CP:  9.58D-01  1.06D+00
 E= -248.242303486594     Delta-E=       -0.056368241283 Rises=F Damp=F
 DIIS: error= 4.61D-03 at cycle   3 NSaved=   3.
 NSaved= 3 IEnMin= 3 EnMin= -248.242303486594     IErMin= 3 ErrMin= 4.61D-03
 ErrMax= 4.61D-03  0.00D+00 EMaxC= 1.00D-01 BMatC= 2.70D-03 BMatP= 1.47D-02
 IDIUse=3 WtCom= 9.54D-01 WtEn= 4.61D-02
 Coeff-Com: -0.135D+00 0.398D+00 0.737D+00
 Coeff-En:   0.000D+00 0.000D+00 0.100D+01
 Coeff:     -0.129D+00 0.380D+00 0.749D+00
 Gap=     0.324 Goal=   None    Shift=    0.000
 RMSDP=1.79D-04 MaxDP=1.48D-02 DE=-5.64D-02 OVMax= 2.32D-02

 Cycle   4  Pass 1  IDiag  1:
 RMSU=  1.67D-04    CP:  9.49D-01  1.03D+00  1.02D+00
 E= -248.244643223666     Delta-E=       -0.002339737072 Rises=F Damp=F
 DIIS: error= 2.14D-03 at cycle   4 NSaved=   4.
 NSaved= 4 IEnMin= 4 EnMin= -248.244643223666     IErMin= 4 ErrMin= 2.14D-03
 ErrMax= 2.14D-03  0.00D+00 EMaxC= 1.00D-01 BMatC= 2.70D-04 BMatP= 2.70D-03
 IDIUse=3 WtCom= 9.79D-01 WtEn= 2.14D-02
 Coeff-Com: -0.463D-01 0.115D+00 0.319D+00 0.613D+00
 Coeff-En:   0.000D+00 0.000D+00 0.000D+00 0.100D+01
 Coeff:     -0.453D-01 0.112D+00 0.312D+00 0.621D+00
 Gap=     0.317 Goal=   None    Shift=    0.000
 RMSDP=5.51D-05 MaxDP=2.99D-03 DE=-2.34D-03 OVMax= 9.02D-03

 Cycle   5  Pass 1  IDiag  1:
 RMSU=  3.74D-05    CP:  9.51D-01  1.04D+00  9.93D-01  8.06D-01
 E= -248.244886080600     Delta-E=       -0.000242856934 Rises=F Damp=F
 DIIS: error= 7.97D-04 at cycle   5 NSaved=   5.
 NSaved= 5 IEnMin= 5 EnMin= -248.244886080600     IErMin= 5 ErrMin= 7.97D-04
 ErrMax= 7.97D-04  0.00D+00 EMaxC= 1.00D-01 BMatC= 3.79D-05 BMatP= 2.70D-04
 IDIUse=3 WtCom= 9.92D-01 WtEn= 7.97D-03
 Coeff-Com: -0.119D-01 0.240D-01 0.947D-01 0.319D+00 0.574D+00
 Coeff-En:   0.000D+00 0.000D+00 0.000D+00 0.677D-01 0.932D+00
 Coeff:     -0.118D-01 0.238D-01 0.939D-01 0.317D+00 0.577D+00
 Gap=     0.317 Goal=   None    Shift=    0.000
 RMSDP=2.88D-05 MaxDP=1.29D-03 DE=-2.43D-04 OVMax= 2.51D-03

 Cycle   6  Pass 1  IDiag  1:
 RMSU=  1.74D-05    CP:  9.50D-01  1.03D+00  1.01D+00  8.31D-01  7.40D-01
 E= -248.244924419895     Delta-E=       -0.000038339295 Rises=F Damp=F
 DIIS: error= 1.04D-04 at cycle   6 NSaved=   6.
 NSaved= 6 IEnMin= 6 EnMin= -248.244924419895     IErMin= 6 ErrMin= 1.04D-04
 ErrMax= 1.04D-04  0.00D+00 EMaxC= 1.00D-01 BMatC= 1.72D-06 BMatP= 3.79D-05
 IDIUse=3 WtCom= 9.99D-01 WtEn= 1.04D-03
 Coeff-Com: -0.373D-02 0.686D-02 0.318D-01 0.122D+00 0.271D+00 0.573D+00
 Coeff-En:   0.000D+00 0.000D+00 0.000D+00 0.000D+00 0.000D+00 0.100D+01
 Coeff:     -0.373D-02 0.685D-02 0.318D-01 0.121D+00 0.270D+00 0.573D+00
 Gap=     0.317 Goal=   None    Shift=    0.000
 RMSDP=3.84D-06 MaxDP=2.44D-04 DE=-3.83D-05 OVMax= 6.14D-04

 Cycle   7  Pass 1  IDiag  1:
 RMSU=  3.17D-06    CP:  9.51D-01  1.03D+00  1.01D+00  8.26D-01  7.80D-01
                    CP:  1.04D+00
 E= -248.244925873291     Delta-E=       -0.000001453396 Rises=F Damp=F
 DIIS: error= 2.55D-05 at cycle   7 NSaved=   7.
 NSaved= 7 IEnMin= 7 EnMin= -248.244925873291     IErMin= 7 ErrMin= 2.55D-05
 ErrMax= 2.55D-05  0.00D+00 EMaxC= 1.00D-01 BMatC= 1.86D-07 BMatP= 1.72D-06
 IDIUse=1 WtCom= 1.00D+00 WtEn= 0.00D+00
 Coeff-Com:  0.152D-02-0.331D-02-0.104D-01-0.314D-01-0.320D-01 0.226D+00
 Coeff-Com:  0.850D+00
 Coeff:      0.152D-02-0.331D-02-0.104D-01-0.314D-01-0.320D-01 0.226D+00
 Coeff:      0.850D+00
 Gap=     0.317 Goal=   None    Shift=    0.000
 RMSDP=4.03D-06 MaxDP=1.97D-04 DE=-1.45D-06 OVMax= 1.28D-04

 Cycle   8  Pass 1  IDiag  1:
 RMSU=  1.00D-06    CP:  9.50D-01  1.03D+00  1.01D+00  8.28D-01  7.92D-01
                    CP:  1.17D+00  9.49D-01
 E= -248.244926042600     Delta-E=       -0.000000169308 Rises=F Damp=F
 DIIS: error= 4.03D-06 at cycle   8 NSaved=   8.
 NSaved= 8 IEnMin= 8 EnMin= -248.244926042600     IErMin= 8 ErrMin= 4.03D-06
 ErrMax= 4.03D-06  0.00D+00 EMaxC= 1.00D-01 BMatC= 3.46D-09 BMatP= 1.86D-07
 IDIUse=1 WtCom= 1.00D+00 WtEn= 0.00D+00
 Coeff-Com:  0.386D-03-0.829D-03-0.278D-02-0.950D-02-0.141D-01 0.378D-01
 Coeff-Com:  0.134D+00 0.856D+00
 Coeff:      0.386D-03-0.829D-03-0.278D-02-0.950D-02-0.141D-01 0.378D-01
 Coeff:      0.134D+00 0.856D+00
 Gap=     0.317 Goal=   None    Shift=    0.000
 RMSDP=3.12D-07 MaxDP=1.65D-05 DE=-1.69D-07 OVMax= 2.36D-05

 Cycle   9  Pass 1  IDiag  1:
 RMSU=  1.95D-07    CP:  9.50D-01  1.03D+00  1.01D+00  8.28D-01  7.91D-01
                    CP:  1.18D+00  9.56D-01  1.11D+00
 E= -248.244926046031     Delta-E=       -0.000000003432 Rises=F Damp=F
 DIIS: error= 2.69D-06 at cycle   9 NSaved=   9.
 NSaved= 9 IEnMin= 9 EnMin= -248.244926046031     IErMin= 9 ErrMin= 2.69D-06
 ErrMax= 2.69D-06  0.00D+00 EMaxC= 1.00D-01 BMatC= 1.06D-09 BMatP= 3.46D-09
 IDIUse=1 WtCom= 1.00D+00 WtEn= 0.00D+00
 Coeff-Com: -0.734D-04 0.163D-03 0.485D-03 0.765D-03-0.740D-03-0.104D-01
 Coeff-Com: -0.711D-01 0.363D+00 0.718D+00
 Coeff:     -0.734D-04 0.163D-03 0.485D-03 0.765D-03-0.740D-03-0.104D-01
 Coeff:     -0.711D-01 0.363D+00 0.718D+00
 Gap=     0.317 Goal=   None    Shift=    0.000
 RMSDP=1.15D-07 MaxDP=4.29D-06 DE=-3.43D-09 OVMax= 1.85D-05

 Cycle  10  Pass 1  IDiag  1:
 RMSU=  8.00D-08    CP:  9.50D-01  1.03D+00  1.01D+00  8.28D-01  7.90D-01
                    CP:  1.18D+00  9.51D-01  1.17D+00  1.04D+00
 E= -248.244926047342     Delta-E=       -0.000000001311 Rises=F Damp=F
 DIIS: error= 5.36D-07 at cycle  10 NSaved=  10.
 NSaved=10 IEnMin=10 EnMin= -248.244926047342     IErMin=10 ErrMin= 5.36D-07
 ErrMax= 5.36D-07  0.00D+00 EMaxC= 1.00D-01 BMatC= 6.96D-11 BMatP= 1.06D-09
 IDIUse=1 WtCom= 1.00D+00 WtEn= 0.00D+00
 Coeff-Com: -0.143D-04 0.329D-04 0.147D-03 0.329D-03 0.651D-03 0.136D-03
 Coeff-Com: -0.867D-02-0.103D+00 0.496D-01 0.106D+01
 Coeff:     -0.143D-04 0.329D-04 0.147D-03 0.329D-03 0.651D-03 0.136D-03
 Coeff:     -0.867D-02-0.103D+00 0.496D-01 0.106D+01
 Gap=     0.317 Goal=   None    Shift=    0.000
 RMSDP=3.99D-08 MaxDP=2.01D-06 DE=-1.31D-09 OVMax= 5.54D-06

 Cycle  11  Pass 1  IDiag  1:
 RMSU=  2.53D-08    CP:  9.50D-01  1.03D+00  1.01D+00  8.28D-01  7.90D-01
                    CP:  1.18D+00  9.49D-01  1.19D+00  1.15D+00  1.13D+00
 E= -248.244926047423     Delta-E=       -0.000000000081 Rises=F Damp=F
 DIIS: error= 3.16D-07 at cycle  11 NSaved=  11.
 NSaved=11 IEnMin=11 EnMin= -248.244926047423     IErMin=11 ErrMin= 3.16D-07
 ErrMax= 3.16D-07  0.00D+00 EMaxC= 1.00D-01 BMatC= 1.04D-11 BMatP= 6.96D-11
 IDIUse=1 WtCom= 1.00D+00 WtEn= 0.00D+00
 Coeff-Com: -0.240D-05 0.621D-05 0.481D-04 0.123D-03 0.395D-03 0.954D-03
 Coeff-Com: -0.220D-03-0.829D-01-0.145D-01 0.564D+00 0.532D+00
 Coeff:     -0.240D-05 0.621D-05 0.481D-04 0.123D-03 0.395D-03 0.954D-03
 Coeff:     -0.220D-03-0.829D-01-0.145D-01 0.564D+00 0.532D+00
 Gap=     0.317 Goal=   None    Shift=    0.000
 RMSDP=8.58D-09 MaxDP=5.30D-07 DE=-8.13D-11 OVMax= 1.61D-06

 SCF Done:  E(RM062X) =  -248.244926047     A.U. after   11 cycles
            NFock= 11  Conv=0.86D-08     -V/T= 2.0048
 KE= 2.470612040118D+02 PE=-9.869324919870D+02 EE= 2.863969422321D+02
 Leave Link  502 at Thu Dec 15 15:26:36 2022, MaxMem=  1342177280 cpu:             676.8 elap:              28.3
 (Enter /data0/home/software/g16/l601.exe)
 Copying SCF densities to generalized density rwf, IOpCl= 0 IROHF=0.

 **********************************************************************

            Population analysis using the SCF density.

 **********************************************************************

 Alpha  occ. eigenvalues --  -14.75044 -10.58405 -10.58330 -10.56649 -10.55700
 Alpha  occ. eigenvalues --  -10.55696  -1.04985  -0.90685  -0.86237  -0.71814
 Alpha  occ. eigenvalues --   -0.71440  -0.60852  -0.55188  -0.54687  -0.50122
 Alpha  occ. eigenvalues --   -0.47396  -0.47250  -0.43071  -0.34789  -0.32529
 Alpha  occ. eigenvalues --   -0.32088
 Alpha virt. eigenvalues --   -0.00348   0.00685   0.00891   0.02164   0.02553
 Alpha virt. eigenvalues --    0.04123   0.04372   0.04503   0.06218   0.06714
 Alpha virt. eigenvalues --    0.07285   0.07870   0.09134   0.09497   0.10307
 Alpha virt. eigenvalues --    0.11166   0.12641   0.13282   0.13373   0.13673
 Alpha virt. eigenvalues --    0.14359   0.14656   0.15611   0.15767   0.17211
 Alpha virt. eigenvalues --    0.17820   0.18745   0.19401   0.19583   0.20260
 Alpha virt. eigenvalues --    0.20692   0.21059   0.21308   0.22021   0.22367
 Alpha virt. eigenvalues --    0.22958   0.23137   0.24588   0.24992   0.25349
 Alpha virt. eigenvalues --    0.25625   0.26239   0.27470   0.28637   0.28802
 Alpha virt. eigenvalues --    0.29245   0.29808   0.30691   0.30908   0.32049
 Alpha virt. eigenvalues --    0.32859   0.33615   0.33923   0.35018   0.35309
 Alpha virt. eigenvalues --    0.36071   0.36697   0.37266   0.37912   0.38453
 Alpha virt. eigenvalues --    0.39542   0.40747   0.41492   0.42380   0.42977
 Alpha virt. eigenvalues --    0.44638   0.46566   0.48279   0.50383   0.51191
 Alpha virt. eigenvalues --    0.51692   0.52232   0.53621   0.55045   0.55709
 Alpha virt. eigenvalues --    0.56550   0.57631   0.60193   0.62189   0.64500
 Alpha virt. eigenvalues --    0.64747   0.66071   0.66835   0.67639   0.68297
 Alpha virt. eigenvalues --    0.68669   0.70393   0.72227   0.73406   0.73790
 Alpha virt. eigenvalues --    0.74949   0.75453   0.75986   0.77030   0.77834
 Alpha virt. eigenvalues --    0.79020   0.79948   0.80423   0.80948   0.81566
 Alpha virt. eigenvalues --    0.82238   0.83255   0.83656   0.84333   0.84370
 Alpha virt. eigenvalues --    0.84944   0.85974   0.86997   0.87721   0.87987
 Alpha virt. eigenvalues --    0.89259   0.91259   0.91776   0.92180   0.93086
 Alpha virt. eigenvalues --    0.94687   0.95670   0.96444   0.97539   0.99222
 Alpha virt. eigenvalues --    1.02635   1.04150   1.04980   1.05894   1.07159
 Alpha virt. eigenvalues --    1.08405   1.10253   1.11604   1.16713   1.16858
 Alpha virt. eigenvalues --    1.16988   1.17709   1.20831   1.21115   1.21749
 Alpha virt. eigenvalues --    1.23288   1.26847   1.27952   1.28711   1.31607
 Alpha virt. eigenvalues --    1.32592   1.32973   1.35437   1.35778   1.38122
 Alpha virt. eigenvalues --    1.39163   1.39513   1.39902   1.44723   1.46937
 Alpha virt. eigenvalues --    1.48750   1.50698   1.52099   1.53244   1.54224
 Alpha virt. eigenvalues --    1.55420   1.58212   1.60951   1.63260   1.65173
 Alpha virt. eigenvalues --    1.68727   1.73971   1.84179   1.87206   1.89015
 Alpha virt. eigenvalues --    1.90296   1.91900   1.92938   1.95170   1.96700
 Alpha virt. eigenvalues --    2.01813   2.02152   2.02299   2.05828   2.07873
 Alpha virt. eigenvalues --    2.10500   2.15712   2.17595   2.18034   2.21128
 Alpha virt. eigenvalues --    2.23626   2.24888   2.27546   2.31854   2.33408
 Alpha virt. eigenvalues --    2.34676   2.39906   2.41779   2.42036   2.44998
 Alpha virt. eigenvalues --    2.45811   2.48503   2.50049   2.52272   2.53673
 Alpha virt. eigenvalues --    2.54888   2.56396   2.57201   2.61883   2.62839
 Alpha virt. eigenvalues --    2.63746   2.64694   2.65895   2.67770   2.68473
 Alpha virt. eigenvalues --    2.70464   2.71378   2.73214   2.75691   2.75977
 Alpha virt. eigenvalues --    2.76399   2.76442   2.76742   2.78107   2.79352
 Alpha virt. eigenvalues --    2.81696   2.82670   2.83097   2.84520   2.87095
 Alpha virt. eigenvalues --    2.87355   2.88029   2.88575   2.89655   2.90372
 Alpha virt. eigenvalues --    2.91009   2.94580   2.96232   2.99890   3.01526
 Alpha virt. eigenvalues --    3.02427   3.05189   3.07307   3.08447   3.08983
 Alpha virt. eigenvalues --    3.09588   3.11669   3.12041   3.12699   3.13153
 Alpha virt. eigenvalues --    3.14671   3.15695   3.16741   3.22102   3.23314
 Alpha virt. eigenvalues --    3.24036   3.25856   3.27550   3.29163   3.29721
 Alpha virt. eigenvalues --    3.29915   3.31217   3.31682   3.36746   3.37897
 Alpha virt. eigenvalues --    3.41142   3.42933   3.45320   3.46475   3.48046
 Alpha virt. eigenvalues --    3.55426   3.56307   3.56919   3.57991   3.59185
 Alpha virt. eigenvalues --    3.59604   3.64488   3.65659   3.68933   3.70643
 Alpha virt. eigenvalues --    3.73605   3.75657   3.76837   3.78025   3.80569
 Alpha virt. eigenvalues --    3.85424   3.86312   3.89424   3.90491   3.93834
 Alpha virt. eigenvalues --    3.96354   3.97232   4.00935   4.05985   4.43864
 Alpha virt. eigenvalues --    4.45808   4.48426   4.49530   4.51272   4.56385
 Alpha virt. eigenvalues --    4.63614   4.67346   4.74267   4.82814   4.86424
 Alpha virt. eigenvalues --    4.93241   4.96419   4.97559   5.00121   5.02674
 Alpha virt. eigenvalues --    5.05534   5.24736   5.28868   5.30871   5.61763
 Alpha virt. eigenvalues --    5.70890   9.70787   9.78921   9.81296   9.91702
 Alpha virt. eigenvalues --    9.98834  10.02260  10.10548  10.11563  10.16015
 Alpha virt. eigenvalues --   10.17594  10.21105  10.24113  10.27425  10.28450
 Alpha virt. eigenvalues --   10.30140  10.31877  10.36671  10.36939  10.41744
 Alpha virt. eigenvalues --   10.43222  10.44073  10.45725  10.53659  10.58949
 Alpha virt. eigenvalues --   10.59725  10.65757  10.71979  10.83623  12.68098
 Alpha virt. eigenvalues --   12.80424  13.14062  13.21104  13.25400  13.27714
 Alpha virt. eigenvalues --   13.34871  13.46555  13.48621  13.53661  13.63230
 Alpha virt. eigenvalues --   13.80369  13.85843  13.93672  14.06012  14.33092
 Alpha virt. eigenvalues --   17.45666  18.15335  18.29367  18.49003  18.52972
 Alpha virt. eigenvalues --   23.83998  24.05565  24.06695  24.10301  24.14037
 Alpha virt. eigenvalues --   35.75503  52.02288  52.03820  52.16754  69.55038
 Alpha virt. eigenvalues --  129.66270 137.68532 138.64637 139.70282 139.77060
 Alpha virt. eigenvalues --  471.08186
          Condensed to atoms (all electrons):
               1          2          3          4          5          6
     1  C    5.029143   0.327432   0.139047  -0.113524   0.067429   0.312260
     2  C    0.327432   5.058702   0.394941   0.054951  -0.216702   0.086137
     3  C    0.139047   0.394941   4.836964   0.469099   0.123816  -0.115829
     4  C   -0.113524   0.054951   0.469099   4.871974   0.348156   0.091763
     5  C    0.067429  -0.216702   0.123816   0.348156   5.155230   0.201181
     6  N    0.312260   0.086137  -0.115829   0.091763   0.201181   6.783876
     7  H   -0.002010  -0.006989   0.367952  -0.013732  -0.000981   0.000362
     8  H    0.445448  -0.072255   0.022676  -0.012880   0.015292  -0.071571
     9  H   -0.019206   0.364888  -0.014370   0.005247  -0.000630   0.005863
    10  H   -0.003422   0.008157  -0.016614   0.368757  -0.020934   0.006248
    11  H    0.014761  -0.012374   0.023058  -0.074861   0.450283  -0.070404
    12  P   -0.000779  -0.003670   0.000687  -0.000528   0.000921  -0.006894
    13  O    0.000076   0.001003  -0.000192   0.000326  -0.000639   0.002141
    14  O    0.001384  -0.000731   0.000156  -0.000607   0.000554  -0.003252
    15  H   -0.000349   0.000024   0.000018  -0.000030   0.000002  -0.000095
    16  O   -0.002551   0.004197  -0.001322   0.004558  -0.005171   0.045126
    17  H    0.007460  -0.006198   0.001866  -0.008482   0.012621  -0.093040
    18  O   -0.000085   0.000261  -0.000050   0.000121   0.000003   0.000588
    19  H    0.000007   0.000004  -0.000000   0.000003  -0.000002   0.000002
    20  O    0.000147  -0.000026  -0.000001   0.000001  -0.000002  -0.000012
    21  H   -0.000103   0.000018  -0.000003   0.000003   0.000005   0.000023
    22  H   -0.000024   0.000009  -0.000000   0.000001   0.000000   0.000008
               7          8          9         10         11         12
     1  C   -0.002010   0.445448  -0.019206  -0.003422   0.014761  -0.000779
     2  C   -0.006989  -0.072255   0.364888   0.008157  -0.012374  -0.003670
     3  C    0.367952   0.022676  -0.014370  -0.016614   0.023058   0.000687
     4  C   -0.013732  -0.012880   0.005247   0.368757  -0.074861  -0.000528
     5  C   -0.000981   0.015292  -0.000630  -0.020934   0.450283   0.000921
     6  N    0.000362  -0.071571   0.005863   0.006248  -0.070404  -0.006894
     7  H    0.532438  -0.000289  -0.004795  -0.004724  -0.000287   0.000013
     8  H   -0.000289   0.536602  -0.001824   0.000101  -0.000042   0.000132
     9  H   -0.004795  -0.001824   0.532163  -0.000200   0.000100   0.000034
    10  H   -0.004724   0.000101  -0.000200   0.532014  -0.002016   0.000003
    11  H   -0.000287  -0.000042   0.000100  -0.002016   0.538844  -0.000041
    12  P    0.000013   0.000132   0.000034   0.000003  -0.000041   0.007081
    13  O    0.000000  -0.000855   0.000002  -0.000000   0.000006  -0.002341
    14  O   -0.000000   0.000181   0.000003   0.000000   0.000062  -0.000476
    15  H    0.000000  -0.000005  -0.000000   0.000000  -0.000000   0.000225
    16  O   -0.000004  -0.000283  -0.000014  -0.000003  -0.000125  -0.002199
    17  H    0.000007   0.001482   0.000064   0.000048   0.001312   0.001805
    18  O   -0.000000  -0.000022  -0.000000   0.000000  -0.000004  -0.001880
    19  H   -0.000000   0.000002   0.000000   0.000000  -0.000000  -0.000022
    20  O   -0.000000   0.000001  -0.000000  -0.000000  -0.000000  -0.000099
    21  H   -0.000000   0.000000   0.000000  -0.000000  -0.000000  -0.000037
    22  H    0.000000  -0.000000  -0.000000  -0.000000  -0.000000   0.000010
              13         14         15         16         17         18
     1  C    0.000076   0.001384  -0.000349  -0.002551   0.007460  -0.000085
     2  C    0.001003  -0.000731   0.000024   0.004197  -0.006198   0.000261
     3  C   -0.000192   0.000156   0.000018  -0.001322   0.001866  -0.000050
     4  C    0.000326  -0.000607  -0.000030   0.004558  -0.008482   0.000121
     5  C   -0.000639   0.000554   0.000002  -0.005171   0.012621   0.000003
     6  N    0.002141  -0.003252  -0.000095   0.045126  -0.093040   0.000588
     7  H    0.000000  -0.000000   0.000000  -0.000004   0.000007  -0.000000
     8  H   -0.000855   0.000181  -0.000005  -0.000283   0.001482  -0.000022
     9  H    0.000002   0.000003  -0.000000  -0.000014   0.000064  -0.000000
    10  H   -0.000000   0.000000   0.000000  -0.000003   0.000048   0.000000
    11  H    0.000006   0.000062  -0.000000  -0.000125   0.001312  -0.000004
    12  P   -0.002341  -0.000476   0.000225  -0.002199   0.001805  -0.001880
    13  O    0.001897   0.000079  -0.000238   0.000638  -0.000618   0.000284
    14  O    0.000079   0.002264  -0.000613  -0.001720   0.001610  -0.000866
    15  H   -0.000238  -0.000613   0.000891  -0.000148   0.000123  -0.000079
    16  O    0.000638  -0.001720  -0.000148   0.011308  -0.012992   0.000967
    17  H   -0.000618   0.001610   0.000123  -0.012992   0.018179  -0.000751
    18  O    0.000284  -0.000866  -0.000079   0.000967  -0.000751   0.002134
    19  H    0.000003  -0.000034  -0.000004   0.000049  -0.000032   0.000004
    20  O    0.000036   0.000205  -0.000292   0.000022  -0.000013   0.000027
    21  H    0.000012  -0.000051   0.000083  -0.000004   0.000001  -0.000005
    22  H   -0.000001  -0.000059   0.000079   0.000000  -0.000000  -0.000007
              19         20         21         22
     1  C    0.000007   0.000147  -0.000103  -0.000024
     2  C    0.000004  -0.000026   0.000018   0.000009
     3  C   -0.000000  -0.000001  -0.000003  -0.000000
     4  C    0.000003   0.000001   0.000003   0.000001
     5  C   -0.000002  -0.000002   0.000005   0.000000
     6  N    0.000002  -0.000012   0.000023   0.000008
     7  H   -0.000000  -0.000000  -0.000000   0.000000
     8  H    0.000002   0.000001   0.000000  -0.000000
     9  H    0.000000  -0.000000   0.000000  -0.000000
    10  H    0.000000  -0.000000  -0.000000  -0.000000
    11  H   -0.000000  -0.000000  -0.000000  -0.000000
    12  P   -0.000022  -0.000099  -0.000037   0.000010
    13  O    0.000003   0.000036   0.000012  -0.000001
    14  O   -0.000034   0.000205  -0.000051  -0.000059
    15  H   -0.000004  -0.000292   0.000083   0.000079
    16  O    0.000049   0.000022  -0.000004   0.000000
    17  H   -0.000032  -0.000013   0.000001  -0.000000
    18  O    0.000004   0.000027  -0.000005  -0.000007
    19  H    0.000037   0.000000  -0.000000  -0.000000
    20  O    0.000000   0.000348  -0.000134  -0.000137
    21  H   -0.000000  -0.000134   0.000090   0.000048
    22  H   -0.000000  -0.000137   0.000048   0.000071
 Mulliken charges:
               1
     1  C   -0.202539
     2  C    0.018221
     3  C   -0.231899
     4  C    0.009683
     5  C   -0.130431
     6  N   -0.174478
     7  H    0.133038
     8  H    0.138108
     9  H    0.132676
    10  H    0.132585
    11  H    0.131729
    12  P    0.008052
    13  O   -0.001616
    14  O    0.001910
    15  H    0.000411
    16  O   -0.040330
    17  H    0.075547
    18  O   -0.000639
    19  H   -0.000016
    20  O   -0.000072
    21  H    0.000055
    22  H    0.000004
 Sum of Mulliken charges =  -0.00000
 Mulliken charges with hydrogens summed into heavy atoms:
               1
     1  C   -0.064432
     2  C    0.150897
     3  C   -0.098860
     4  C    0.142268
     5  C    0.001298
     6  N   -0.174478
    12  P    0.008052
    13  O   -0.001616
    14  O    0.002321
    16  O    0.035218
    18  O   -0.000654
    20  O   -0.000013
         Mulliken charges condensed to fragments:
      1     -0.043307
      2      0.043320
      3     -0.000013
 Electronic spatial extent (au):  <R**2>=          63288.4863
 Charge=              0.0000 electrons
 Dipole moment (field-independent basis, Debye):
    X=             -1.7032    Y=             -1.3768    Z=              0.4846  Tot=              2.2431
 Quadrupole moment (field-independent basis, Debye-Ang):
   XX=            -56.2612   YY=            -68.2960   ZZ=            -24.7128
   XY=            -35.2859   XZ=            -21.1384   YZ=            -13.5580
 Traceless Quadrupole moment (field-independent basis, Debye-Ang):
   XX=             -6.5045   YY=            -18.5393   ZZ=             25.0439
   XY=            -35.2859   XZ=            -21.1384   YZ=            -13.5580
 Octapole moment (field-independent basis, Debye-Ang**2):
  XXX=           -906.2897  YYY=          -1983.5104  ZZZ=          -1340.9619  XYY=           -853.4766
  XXY=           -858.3906  XXZ=           -776.1234  XZZ=           -514.4871  YZZ=           -614.1484
  YYZ=           -893.3486  XYZ=           -461.2181
 Hexadecapole moment (field-independent basis, Debye-Ang**3):
 XXXX=         -11439.3397 YYYY=         -46246.0374 ZZZZ=         -40776.1116 XXXY=         -12987.2119
 XXXZ=         -12661.3841 YYYX=         -19263.4210 YYYZ=         -27144.7628 ZZZX=         -13953.6303
 ZZZY=         -21818.9346 XXYY=         -14447.1709 XXZZ=         -12481.8897 YYZZ=         -18333.5596
 XXYZ=         -11867.6436 YYXZ=         -11573.9075 ZZXY=          -9374.2388
 N-N= 2.052294196956D+02 E-N=-9.869324930970D+02  KE= 2.470612040118D+02
 No NMR shielding tensors so no spin-rotation constants.
 Leave Link  601 at Thu Dec 15 15:26:36 2022, MaxMem=  1342177280 cpu:               2.7 elap:               0.2
 (Enter /data0/home/software/g16/l122.exe)
 CPIOFr:  IOpCl= 0 IRwI=-1 IRwCP=  731 ICalc=  1 LCPTot=      236915 Len1MO=      622702 IndFrg=     1482319
 Counterpoise: doing calculation for fragment   2 using the basis set of the full-system, NewBq=T
 Leave Link  122 at Thu Dec 15 15:26:36 2022, MaxMem=  1342177280 cpu:               0.2 elap:               0.0
 (Enter /data0/home/software/g16/l301.exe)
 Basis read from rwf:  (5D, 7F)
 No pseudopotential information found on rwf file.
   392 basis functions,   598 primitive gaussians,   416 cartesian basis functions
    25 alpha electrons       25 beta electrons
       nuclear repulsion energy       280.0870413345 Hartrees.
 IExCor= 4336 DFT=T Ex+Corr=M062X ExCW=0 ScaHFX=  0.540000
 ScaDFX=  1.000000  1.000000  1.000000  1.000000 ScalE2=  1.000000  1.000000
 IRadAn=      5 IRanWt=     -1 IRanGd=            0 ICorTp=0 IEmpDi=131
 NAtoms=   22 NActive=   22 NUniq=   22 SFac= 1.00D+00 NAtFMM=   60 NAOKFM=F Big=F
 Integral buffers will be    131072 words long.
 Raffenetti 2 integral format.
 Two-electron integral symmetry is turned off.
 R6Disp:  Grimme-D3 Dispersion energy=       -0.0000466012 Hartrees.
 Nuclear repulsion after empirical dispersion term =      280.0869947333 Hartrees.
 No density basis found on file   718.
 Leave Link  301 at Thu Dec 15 15:26:36 2022, MaxMem=  1342177280 cpu:               1.3 elap:               0.1
 (Enter /data0/home/software/g16/l302.exe)
 NPDir=0 NMtPBC=     1 NCelOv=     1 NCel=       1 NClECP=     1 NCelD=      1
         NCelK=      1 NCelE2=     1 NClLst=     1 CellRange=     0.0.
 One-electron integrals computed using PRISM.
 NBasis=   392 RedAO= T EigKep=  1.03D-05  NBF=   392
 NBsUse=   392 1.00D-06 EigRej= -1.00D+00 NBFU=   392
 Precomputing XC quadrature grid using
 IXCGrd= 4 IRadAn=           5 IRanWt=          -1 IRanGd=           0 AccXCQ= 0.00D+00.
 Generated NRdTot=       0 NPtTot=           0 NUsed=           0 NTot=          32
 NSgBfM=   414   414   414   414   414 MxSgAt=    22 MxSgA2=    22.
 Leave Link  302 at Thu Dec 15 15:26:36 2022, MaxMem=  1342177280 cpu:               6.8 elap:               0.3
 (Enter /data0/home/software/g16/l303.exe)
 DipDrv:  MaxL=1.
 Leave Link  303 at Thu Dec 15 15:26:36 2022, MaxMem=  1342177280 cpu:               0.9 elap:               0.1
 (Enter /data0/home/software/g16/l401.exe)
 ExpMin= 3.48D-02 ExpMax= 7.75D+04 ExpMxC= 2.65D+03 IAcc=3 IRadAn=         5 AccDes= 0.00D+00
 Harris functional with IExCor= 1009 and IRadAn=       5 diagonalized for initial guess.
 HarFok:  IExCor= 1009 AccDes= 0.00D+00 IRadAn=         5 IDoV= 1 UseB2=F ITyADJ=14
 ICtDFT=  3500011 ScaDFX=  1.000000  1.000000  1.000000  1.000000
 FoFCou: FMM=F IPFlag=           0 FMFlag=      100000 FMFlg1=           0
         NFxFlg=           0 DoJE=T BraDBF=F KetDBF=T FulRan=T
         wScrn=  0.000000 ICntrl=       500 IOpCl=  0 I1Cent=   200000004 NGrid=           0
         NMat0=    1 NMatS0=      1 NMatT0=    0 NMatD0=    1 NMtDS0=    0 NMtDT0=    0
 Symmetry not used in FoFCou.
 Harris En= -643.943655299274    
 JPrj=0 DoOrth=F DoCkMO=F.
 Leave Link  401 at Thu Dec 15 15:26:37 2022, MaxMem=  1342177280 cpu:              21.7 elap:               0.9
 (Enter /data0/home/software/g16/l502.exe)
 Two-electron integral symmetry not used.
 Closed shell SCF:
 Using DIIS extrapolation, IDIIS=  1040.
 NGot=  1342177280 LenX=  1341818250 LenY=  1341644753
 Requested convergence on RMS density matrix=1.00D-08 within 128 cycles.
 Requested convergence on MAX density matrix=1.00D-06.
 Requested convergence on             energy=1.00D-06.
 No special actions if energy rises.
 Fock matrices will be formed incrementally for  20 cycles.

 Cycle   1  Pass 1  IDiag  1:
 FoFJK:  IHMeth= 1 ICntrl=       0 DoSepK=F KAlg= 0 I1Cent=           0 FoldK=F
 IRaf= 830000000 NMat=       1 IRICut=       1 DoRegI=T DoRafI=F ISym2E= 0 IDoP0=0 IntGTp=1.
 FoFCou: FMM=F IPFlag=           0 FMFlag=      100000 FMFlg1=           0
         NFxFlg=           0 DoJE=F BraDBF=F KetDBF=F FulRan=T
         wScrn=  0.000000 ICntrl=         0 IOpCl=  0 I1Cent=           0 NGrid=           0
         NMat0=    1 NMatS0=      1 NMatT0=    0 NMatD0=    1 NMtDS0=    0 NMtDT0=    0
 Symmetry not used in FoFCou.
 E= -643.872270519220    
 DIIS: error= 3.35D-02 at cycle   1 NSaved=   1.
 NSaved= 1 IEnMin= 1 EnMin= -643.872270519220     IErMin= 1 ErrMin= 3.35D-02
 ErrMax= 3.35D-02  0.00D+00 EMaxC= 1.00D-01 BMatC= 5.02D-01 BMatP= 5.02D-01
 IDIUse=3 WtCom= 6.65D-01 WtEn= 3.35D-01
 Coeff-Com:  0.100D+01
 Coeff-En:   0.100D+01
 Coeff:      0.100D+01
 Gap=     0.311 Goal=   None    Shift=    0.000
 GapD=    0.311 DampG=1.000 DampE=0.500 DampFc=0.5000 IDamp=-1.
 Damping current iteration by 5.00D-01
 RMSDP=4.47D-03 MaxDP=4.28D-01              OVMax= 2.43D-01

 Cycle   2  Pass 1  IDiag  1:
 RMSU=  2.20D-03    CP:  1.04D+00
 E= -643.988828215820     Delta-E=       -0.116557696601 Rises=F Damp=T
 DIIS: error= 7.20D-03 at cycle   2 NSaved=   2.
 NSaved= 2 IEnMin= 2 EnMin= -643.988828215820     IErMin= 2 ErrMin= 7.20D-03
 ErrMax= 7.20D-03  0.00D+00 EMaxC= 1.00D-01 BMatC= 2.56D-02 BMatP= 5.02D-01
 IDIUse=3 WtCom= 9.28D-01 WtEn= 7.20D-02
 Coeff-Com:  0.635D-01 0.936D+00
 Coeff-En:   0.188D+00 0.812D+00
 Coeff:      0.725D-01 0.927D+00
 Gap=     0.366 Goal=   None    Shift=    0.000
 RMSDP=9.88D-04 MaxDP=8.19D-02 DE=-1.17D-01 OVMax= 1.43D-01

 Cycle   3  Pass 1  IDiag  1:
 RMSU=  7.58D-04    CP:  1.00D+00  7.57D-01
 E= -644.147878431216     Delta-E=       -0.159050215395 Rises=F Damp=F
 DIIS: error= 4.32D-03 at cycle   3 NSaved=   3.
 NSaved= 3 IEnMin= 3 EnMin= -644.147878431216     IErMin= 3 ErrMin= 4.32D-03
 ErrMax= 4.32D-03  0.00D+00 EMaxC= 1.00D-01 BMatC= 9.03D-03 BMatP= 2.56D-02
 IDIUse=3 WtCom= 9.57D-01 WtEn= 4.32D-02
 Coeff-Com: -0.202D-01 0.327D+00 0.694D+00
 Coeff-En:   0.000D+00 0.000D+00 0.100D+01
 Coeff:     -0.194D-01 0.313D+00 0.707D+00
 Gap=     0.358 Goal=   None    Shift=    0.000
 RMSDP=3.72D-04 MaxDP=2.19D-02 DE=-1.59D-01 OVMax= 3.33D-02

 Cycle   4  Pass 1  IDiag  1:
 RMSU=  3.60D-04    CP:  9.99D-01  7.78D-01  9.09D-01
[...]
    19  H    0.039107   0.003713  -0.012058   0.000801  -0.015340   0.000855
              18         19
    12  P    0.202985   0.039107
    13  O   -0.011797   0.003713
    14  O    0.009190  -0.012058
    15  H   -0.003453   0.000801
    16  O   -0.007800  -0.015340
    17  H    0.003641   0.000855
    18  O    8.062856   0.236384
    19  H    0.236384   0.438673
 Mulliken charges:
               1
     1  C    0.000000
     2  C    0.000000
     3  C    0.000000
     4  C    0.000000
     5  C    0.000000
     6  N    0.000000
     7  H    0.000000
     8  H    0.000000
     9  H    0.000000
    10  H    0.000000
    11  H    0.000000
    12  P    1.218593
    13  O   -0.605593
    14  O   -0.546560
    15  H    0.333808
    16  O   -0.552007
    17  H    0.335899
    18  O   -0.492006
    19  H    0.307864
    20  O    0.000000
    21  H    0.000000
    22  H    0.000000
 Sum of Mulliken charges =  -0.00000
 Mulliken charges with hydrogens summed into heavy atoms:
               1
     1  C    0.000000
     2  C    0.000000
     3  C    0.000000
     4  C    0.000000
     5  C    0.000000
     6  N    0.000000
    12  P    1.218593
    13  O   -0.605593
    14  O   -0.212752
    16  O   -0.216107
    18  O   -0.184141
    20  O    0.000000
         Mulliken charges condensed to fragments:
      1      0.000000
      2     -0.000000
      3      0.000000
 Electronic spatial extent (au):  <R**2>=          86033.0412
 Charge=             -0.0000 electrons
 Dipole moment (field-independent basis, Debye):
    X=             -1.7370    Y=              2.5996    Z=             -0.9706  Tot=              3.2737
 Quadrupole moment (field-independent basis, Debye-Ang):
   XX=            -70.8770   YY=             37.4729   ZZ=            -54.1294
   XY=              6.5440   XZ=            -34.0077   YZ=             19.0199
 Traceless Quadrupole moment (field-independent basis, Debye-Ang):
   XX=            -41.6992   YY=             66.6508   ZZ=            -24.9516
   XY=              6.5440   XZ=            -34.0077   YZ=             19.0199
 Octapole moment (field-independent basis, Debye-Ang**2):
  XXX=          -1708.5196  YYY=            -23.0255  ZZZ=          -1536.7797  XYY=            151.7258
  XXY=           -651.4897  XXZ=          -1013.0977  XZZ=           -907.0774  YZZ=           -380.0582
  YYZ=            301.9262  XYZ=            -93.4435
 Hexadecapole moment (field-independent basis, Debye-Ang**3):
 XXXX=         -33106.6275 YYYY=         -17073.8021 ZZZZ=         -33826.0685 XXXY=         -20413.6570
 XXXZ=         -22398.7418 YYYX=          -2949.7885 YYYZ=          -1983.8315 ZZZX=         -21045.3930
 ZZZY=         -17509.2711 XXYY=          -8325.6464 XXZZ=         -17921.8830 YYZZ=          -5132.7505
 XXYZ=          -9984.7426 YYXZ=           -385.2400 ZZXY=          -8292.6750
 N-N= 2.800869947333D+02 E-N=-2.087899017030D+03  KE= 6.425413750230D+02
 No NMR shielding tensors so no spin-rotation constants.
 Leave Link  601 at Thu Dec 15 15:27:44 2022, MaxMem=  1342177280 cpu:               1.9 elap:               0.1
 (Enter /data0/home/software/g16/l122.exe)
 CPIOFr:  IOpCl= 0 IRwI=-1 IRwCP=  731 ICalc=  5 LCPTot=      236915 Len1MO=      622702 IndFrg=     3973127
 Counterpoise: doing calculation for fragment   3 using the basis set of the fragment.
 Leave Link  122 at Thu Dec 15 15:27:44 2022, MaxMem=  1342177280 cpu:               0.2 elap:               0.0
 (Enter /data0/home/software/g16/l301.exe)
 Basis read from rwf:  (5D, 7F)
 No pseudopotential information found on rwf file.
    39 basis functions,    58 primitive gaussians,    41 cartesian basis functions
     5 alpha electrons        5 beta electrons
       nuclear repulsion energy         9.1438727962 Hartrees.
 IExCor= 4336 DFT=T Ex+Corr=M062X ExCW=0 ScaHFX=  0.540000
 ScaDFX=  1.000000  1.000000  1.000000  1.000000 ScalE2=  1.000000  1.000000
 IRadAn=      5 IRanWt=     -1 IRanGd=            0 ICorTp=0 IEmpDi=131
 NAtoms=   22 NActive=    3 NUniq=    3 SFac= 1.00D+00 NAtFMM=   60 NAOKFM=F Big=F
 Integral buffers will be    131072 words long.
 Raffenetti 2 integral format.
 Two-electron integral symmetry is turned off.
 R6Disp:  Grimme-D3 Dispersion energy=       -0.0000000075 Hartrees.
 Nuclear repulsion after empirical dispersion term =        9.1438727887 Hartrees.
 No density basis found on file   718.
 Leave Link  301 at Thu Dec 15 15:27:44 2022, MaxMem=  1342177280 cpu:               1.3 elap:               0.1
 (Enter /data0/home/software/g16/l302.exe)
 NPDir=0 NMtPBC=     1 NCelOv=     1 NCel=       1 NClECP=     1 NCelD=      1
         NCelK=      1 NCelE2=     1 NClLst=     1 CellRange=     0.0.
 One-electron integrals computed using PRISM.
 NBasis=    39 RedAO= T EigKep=  3.00D-03  NBF=    39
 NBsUse=    39 1.00D-06 EigRej= -1.00D+00 NBFU=    39
 Precomputing XC quadrature grid using
 IXCGrd= 4 IRadAn=           5 IRanWt=          -1 IRanGd=           0 AccXCQ= 0.00D+00.
 Generated NRdTot=       0 NPtTot=           0 NUsed=           0 NTot=          32
 NSgBfM=    41    41    41    41    41 MxSgAt=     3 MxSgA2=     3.
 Leave Link  302 at Thu Dec 15 15:27:44 2022, MaxMem=  1342177280 cpu:               2.3 elap:               0.1
 (Enter /data0/home/software/g16/l303.exe)
 DipDrv:  MaxL=1.
 Leave Link  303 at Thu Dec 15 15:27:44 2022, MaxMem=  1342177280 cpu:               0.4 elap:               0.0
 (Enter /data0/home/software/g16/l401.exe)
 ExpMin= 8.45D-02 ExpMax= 8.59D+03 ExpMxC= 1.30D+03 IAcc=3 IRadAn=         5 AccDes= 0.00D+00
 Harris functional with IExCor= 1009 and IRadAn=       5 diagonalized for initial guess.
 HarFok:  IExCor= 1009 AccDes= 0.00D+00 IRadAn=         5 IDoV= 1 UseB2=F ITyADJ=14
 ICtDFT=  3500011 ScaDFX=  1.000000  1.000000  1.000000  1.000000
 FoFCou: FMM=F IPFlag=           0 FMFlag=      100000 FMFlg1=           0
         NFxFlg=           0 DoJE=T BraDBF=F KetDBF=T FulRan=T
         wScrn=  0.000000 ICntrl=       500 IOpCl=  0 I1Cent=   200000004 NGrid=           0
         NMat0=    1 NMatS0=      1 NMatT0=    0 NMatD0=    1 NMtDS0=    0 NMtDT0=    0
 Symmetry not used in FoFCou.
 Harris En= -76.4170430680560    
 JPrj=0 DoOrth=F DoCkMO=F.
 Leave Link  401 at Thu Dec 15 15:27:44 2022, MaxMem=  1342177280 cpu:               2.8 elap:               0.1
 (Enter /data0/home/software/g16/l502.exe)
 Keep R1 ints in memory in canonical form, NReq=21039747.
 FoFCou: FMM=F IPFlag=           0 FMFlag=           0 FMFlg1=           0
         NFxFlg=           0 DoJE=F BraDBF=F KetDBF=F FulRan=T
         wScrn=  0.000000 ICntrl=       600 IOpCl=  0 I1Cent=           0 NGrid=           0
         NMat0=    1 NMatS0=    780 NMatT0=    0 NMatD0=    1 NMtDS0=    0 NMtDT0=    0
 Symmetry not used in FoFCou.
 Two-electron integral symmetry not used.
 Closed shell SCF:
 Using DIIS extrapolation, IDIIS=  1040.
 NGot=  1342177280 LenX=  1341867285 LenY=  1341865163
 Requested convergence on RMS density matrix=1.00D-08 within 128 cycles.
 Requested convergence on MAX density matrix=1.00D-06.
 Requested convergence on             energy=1.00D-06.
 No special actions if energy rises.
 Integral accuracy reduced to 1.0D-05 until final iterations.

 Cycle   1  Pass 0  IDiag  1:
 E= -76.3461184866291    
 DIIS: error= 7.07D-02 at cycle   1 NSaved=   1.
 NSaved= 1 IEnMin= 1 EnMin= -76.3461184866291     IErMin= 1 ErrMin= 7.07D-02
 ErrMax= 7.07D-02  0.00D+00 EMaxC= 1.00D-01 BMatC= 1.22D-01 BMatP= 1.22D-01
 IDIUse=3 WtCom= 2.93D-01 WtEn= 7.07D-01
 Coeff-Com:  0.100D+01
 Coeff-En:   0.100D+01
 Coeff:      0.100D+01
 Gap=     0.326 Goal=   None    Shift=    0.000
 GapD=    0.326 DampG=1.000 DampE=0.500 DampFc=0.5000 IDamp=-1.
 Damping current iteration by 5.00D-01
 RMSDP=7.91D-03 MaxDP=1.02D-01              OVMax= 1.69D-01

 Cycle   2  Pass 0  IDiag  1:
 E= -76.3778782580303     Delta-E=       -0.031759771401 Rises=F Damp=T
 DIIS: error= 1.16D-02 at cycle   2 NSaved=   2.
 NSaved= 2 IEnMin= 2 EnMin= -76.3778782580303     IErMin= 2 ErrMin= 1.16D-02
 ErrMax= 1.16D-02  0.00D+00 EMaxC= 1.00D-01 BMatC= 4.77D-03 BMatP= 1.22D-01
 IDIUse=3 WtCom= 8.84D-01 WtEn= 1.16D-01
 Coeff-Com:  0.802D-01 0.920D+00
 Coeff-En:   0.184D+00 0.816D+00
 Coeff:      0.922D-01 0.908D+00
 Gap=     0.459 Goal=   None    Shift=    0.000
 RMSDP=9.32D-04 MaxDP=1.38D-02 DE=-3.18D-02 OVMax= 1.00D-01

 Cycle   3  Pass 0  IDiag  1:
 E= -76.4219141449946     Delta-E=       -0.044035886964 Rises=F Damp=F
 DIIS: error= 2.15D-03 at cycle   3 NSaved=   3.
 NSaved= 3 IEnMin= 3 EnMin= -76.4219141449946     IErMin= 3 ErrMin= 2.15D-03
 ErrMax= 2.15D-03  0.00D+00 EMaxC= 1.00D-01 BMatC= 8.94D-05 BMatP= 4.77D-03
 IDIUse=3 WtCom= 9.78D-01 WtEn= 2.15D-02
 Coeff-Com: -0.199D-01 0.388D-01 0.981D+00
 Coeff-En:   0.000D+00 0.000D+00 0.100D+01
 Coeff:     -0.195D-01 0.379D-01 0.982D+00
 Gap=     0.463 Goal=   None    Shift=    0.000
 RMSDP=1.14D-04 MaxDP=1.02D-03 DE=-4.40D-02 OVMax= 3.27D-03

 Cycle   4  Pass 0  IDiag  1:
 E= -76.4219902663312     Delta-E=       -0.000076121337 Rises=F Damp=F
 DIIS: error= 4.06D-04 at cycle   4 NSaved=   4.
 NSaved= 4 IEnMin= 4 EnMin= -76.4219902663312     IErMin= 4 ErrMin= 4.06D-04
 ErrMax= 4.06D-04  0.00D+00 EMaxC= 1.00D-01 BMatC= 3.19D-06 BMatP= 8.94D-05
 IDIUse=3 WtCom= 9.96D-01 WtEn= 4.06D-03
 Coeff-Com: -0.182D-02-0.223D-02 0.161D+00 0.843D+00
 Coeff-En:   0.000D+00 0.000D+00 0.000D+00 0.100D+01
 Coeff:     -0.181D-02-0.222D-02 0.160D+00 0.844D+00
 Gap=     0.464 Goal=   None    Shift=    0.000
 RMSDP=2.19D-05 MaxDP=3.51D-04 DE=-7.61D-05 OVMax= 5.25D-04

 Cycle   5  Pass 0  IDiag  1:
 E= -76.4219922329958     Delta-E=       -0.000001966665 Rises=F Damp=F
 DIIS: error= 8.66D-05 at cycle   5 NSaved=   5.
 NSaved= 5 IEnMin= 5 EnMin= -76.4219922329958     IErMin= 5 ErrMin= 8.66D-05
 ErrMax= 8.66D-05  0.00D+00 EMaxC= 1.00D-01 BMatC= 7.97D-08 BMatP= 3.19D-06
 IDIUse=1 WtCom= 1.00D+00 WtEn= 0.00D+00
 Coeff-Com:  0.115D-02-0.176D-02-0.360D-01-0.624D-01 0.110D+01
 Coeff:      0.115D-02-0.176D-02-0.360D-01-0.624D-01 0.110D+01
 Gap=     0.464 Goal=   None    Shift=    0.000
 RMSDP=8.78D-06 MaxDP=1.01D-04 DE=-1.97D-06 OVMax= 1.96D-04

 Initial convergence to 1.0D-05 achieved.  Increase integral accuracy.
 Cycle   6  Pass 1  IDiag  1:
 E= -76.4220156683886     Delta-E=       -0.000023435393 Rises=F Damp=F
 DIIS: error= 2.23D-05 at cycle   1 NSaved=   1.
 NSaved= 1 IEnMin= 1 EnMin= -76.4220156683886     IErMin= 1 ErrMin= 2.23D-05
 ErrMax= 2.23D-05  0.00D+00 EMaxC= 1.00D-01 BMatC= 1.44D-08 BMatP= 1.44D-08
 IDIUse=1 WtCom= 1.00D+00 WtEn= 0.00D+00
 Coeff-Com:  0.100D+01
 Coeff:      0.100D+01
 Gap=     0.464 Goal=   None    Shift=    0.000
 RMSDP=8.78D-06 MaxDP=1.01D-04 DE=-2.34D-05 OVMax= 3.63D-05

 Cycle   7  Pass 1  IDiag  1:
 E= -76.4220156796508     Delta-E=       -0.000000011262 Rises=F Damp=F
 DIIS: error= 4.90D-06 at cycle   2 NSaved=   2.
 NSaved= 2 IEnMin= 2 EnMin= -76.4220156796508     IErMin= 2 ErrMin= 4.90D-06
 ErrMax= 4.90D-06  0.00D+00 EMaxC= 1.00D-01 BMatC= 3.81D-10 BMatP= 1.44D-08
 IDIUse=1 WtCom= 1.00D+00 WtEn= 0.00D+00
 Coeff-Com: -0.227D-01 0.102D+01
 Coeff:     -0.227D-01 0.102D+01
 Gap=     0.464 Goal=   None    Shift=    0.000
 RMSDP=4.74D-07 MaxDP=5.08D-06 DE=-1.13D-08 OVMax= 1.17D-05

 Cycle   8  Pass 1  IDiag  1:
 E= -76.4220156798749     Delta-E=       -0.000000000224 Rises=F Damp=F
 DIIS: error= 3.06D-06 at cycle   3 NSaved=   3.
 NSaved= 3 IEnMin= 3 EnMin= -76.4220156798749     IErMin= 3 ErrMin= 3.06D-06
 ErrMax= 3.06D-06  0.00D+00 EMaxC= 1.00D-01 BMatC= 2.88D-10 BMatP= 3.81D-10
 IDIUse=1 WtCom= 1.00D+00 WtEn= 0.00D+00
 Coeff-Com: -0.419D-01 0.482D+00 0.560D+00
 Coeff:     -0.419D-01 0.482D+00 0.560D+00
 Gap=     0.464 Goal=   None    Shift=    0.000
 RMSDP=2.24D-07 MaxDP=2.95D-06 DE=-2.24D-10 OVMax= 5.26D-06

 Cycle   9  Pass 1  IDiag  1:
 E= -76.4220156800626     Delta-E=       -0.000000000188 Rises=F Damp=F
 DIIS: error= 9.41D-07 at cycle   4 NSaved=   4.
 NSaved= 4 IEnMin= 4 EnMin= -76.4220156800626     IErMin= 4 ErrMin= 9.41D-07
 ErrMax= 9.41D-07  0.00D+00 EMaxC= 1.00D-01 BMatC= 1.01D-11 BMatP= 2.88D-10
 IDIUse=1 WtCom= 1.00D+00 WtEn= 0.00D+00
 Coeff-Com: -0.318D-02-0.244D-01 0.128D+00 0.900D+00
 Coeff:     -0.318D-02-0.244D-01 0.128D+00 0.900D+00
 Gap=     0.464 Goal=   None    Shift=    0.000
 RMSDP=5.95D-08 MaxDP=6.39D-07 DE=-1.88D-10 OVMax= 1.55D-06

 Cycle  10  Pass 1  IDiag  1:
 E= -76.4220156800720     Delta-E=       -0.000000000009 Rises=F Damp=F
 DIIS: error= 7.22D-08 at cycle   5 NSaved=   5.
 NSaved= 5 IEnMin= 5 EnMin= -76.4220156800720     IErMin= 5 ErrMin= 7.22D-08
 ErrMax= 7.22D-08  0.00D+00 EMaxC= 1.00D-01 BMatC= 2.48D-13 BMatP= 1.01D-11
 IDIUse=1 WtCom= 1.00D+00 WtEn= 0.00D+00
 Coeff-Com:  0.175D-02-0.282D-01-0.136D-01 0.111D+00 0.929D+00
 Coeff:      0.175D-02-0.282D-01-0.136D-01 0.111D+00 0.929D+00
 Gap=     0.464 Goal=   None    Shift=    0.000
 RMSDP=1.74D-08 MaxDP=1.41D-07 DE=-9.44D-12 OVMax= 3.95D-07

 Cycle  11  Pass 1  IDiag  1:
 E= -76.4220156800725     Delta-E=       -0.000000000001 Rises=F Damp=F
 DIIS: error= 1.47D-08 at cycle   6 NSaved=   6.
 NSaved= 6 IEnMin= 6 EnMin= -76.4220156800725     IErMin= 6 ErrMin= 1.47D-08
 ErrMax= 1.47D-08  0.00D+00 EMaxC= 1.00D-01 BMatC= 8.35D-15 BMatP= 2.48D-13
 IDIUse=1 WtCom= 1.00D+00 WtEn= 0.00D+00
 Coeff-Com:  0.236D-03-0.110D-02-0.864D-02-0.335D-01-0.179D-01 0.106D+01
 Coeff:      0.236D-03-0.110D-02-0.864D-02-0.335D-01-0.179D-01 0.106D+01
 Gap=     0.464 Goal=   None    Shift=    0.000
 RMSDP=4.96D-09 MaxDP=4.23D-08 DE=-5.12D-13 OVMax= 1.03D-07

 SCF Done:  E(RM062X) =  -76.4220156801     A.U. after   11 cycles
            NFock= 11  Conv=0.50D-08     -V/T= 2.0028
 KE= 7.621085940072D+01 PE=-1.991454846427D+02 EE= 3.736873677321D+01
 Leave Link  502 at Thu Dec 15 15:27:44 2022, MaxMem=  1342177280 cpu:               8.5 elap:               0.4
 (Enter /data0/home/software/g16/l601.exe)
 Copying SCF densities to generalized density rwf, IOpCl= 0 IROHF=0.

 **********************************************************************

            Population analysis using the SCF density.

 **********************************************************************

 Alpha  occ. eigenvalues --  -19.62529  -1.13529  -0.60971  -0.47534  -0.40017
 Alpha virt. eigenvalues --    0.06366   0.13393   0.17381   0.17942   0.18941
 Alpha virt. eigenvalues --    0.23247   0.51635   0.53564   0.97841   1.00109
 Alpha virt. eigenvalues --    1.06045   1.18568   1.20021   1.32495   1.33657
 Alpha virt. eigenvalues --    1.69969   1.74356   1.75925   2.08586   2.09112
 Alpha virt. eigenvalues --    2.35681   2.42203   2.54600   2.89180   3.01718
 Alpha virt. eigenvalues --    5.05716   5.48601   5.94201   6.78266   6.80221
 Alpha virt. eigenvalues --    6.87080   6.91545   7.09206  49.96275
          Condensed to atoms (all electrons):
              20         21         22
    20  O    7.911825   0.321725   0.322205
    21  H    0.321725   0.424889  -0.024710
    22  H    0.322205  -0.024710   0.424844
 Mulliken charges:
               1
     1  C    0.000000
     2  C    0.000000
     3  C    0.000000
     4  C    0.000000
     5  C    0.000000
     6  N    0.000000
     7  H    0.000000
     8  H    0.000000
     9  H    0.000000
    10  H    0.000000
    11  H    0.000000
    12  P    0.000000
    13  O    0.000000
    14  O    0.000000
    15  H    0.000000
    16  O    0.000000
    17  H    0.000000
    18  O    0.000000
    19  H    0.000000
    20  O   -0.555755
    21  H    0.278095
    22  H    0.277660
 Sum of Mulliken charges =  -0.00000
 Mulliken charges with hydrogens summed into heavy atoms:
               1
     1  C    0.000000
     2  C    0.000000
     3  C    0.000000
     4  C    0.000000
     5  C    0.000000
     6  N    0.000000
    12  P    0.000000
    13  O    0.000000
    14  O    0.000000
    16  O    0.000000
    18  O    0.000000
    20  O   -0.000000
         Mulliken charges condensed to fragments:
      1      0.000000
      2      0.000000
      3     -0.000000
 Electronic spatial extent (au):  <R**2>=          12879.7381
 Charge=              0.0000 electrons
 Dipole moment (field-independent basis, Debye):
    X=              1.0609    Y=             -1.2980    Z=              1.2826  Tot=              2.1108
 Quadrupole moment (field-independent basis, Debye-Ang):
   XX=             17.9586   YY=            -40.1914   ZZ=             15.8601
   XY=              0.3528   XZ=             22.6470   YZ=              4.1024
 Traceless Quadrupole moment (field-independent basis, Debye-Ang):
   XX=             20.0829   YY=            -38.0672   ZZ=             17.9843
   XY=              0.3528   XZ=             22.6470   YZ=              4.1024
 Octapole moment (field-independent basis, Debye-Ang**2):
  XXX=            212.8230  YYY=           -908.1301  ZZZ=            120.6582  XYY=           -239.7420
  XXY=             94.6909  XXZ=            296.1662  XZZ=            244.0203  YZZ=             85.6002
  YYZ=           -166.3531  XYZ=            164.1362
 Hexadecapole moment (field-independent basis, Debye-Ang**3):
 XXXX=           1965.1634 YYYY=         -17882.9050 ZZZZ=            366.8042 XXXY=           1337.9203
 XXXZ=           3306.2565 YYYX=          -7184.2871 YYYZ=          -5739.1753 ZZZX=           1902.7092
 ZZZY=            421.0039 XXYY=          -1327.6610 XXZZ=           3038.3613 YYZZ=           -948.1629
 XXYZ=           2503.3832 YYXZ=           -167.9897 ZZXY=           1921.9969
 N-N= 9.143872788685D+00 E-N=-1.991454844593D+02  KE= 7.621085940072D+01
 No NMR shielding tensors so no spin-rotation constants.
 Leave Link  601 at Thu Dec 15 15:27:45 2022, MaxMem=  1342177280 cpu:               1.8 elap:               0.1
 (Enter /data0/home/software/g16/l122.exe)
 CPIOFr:  IOpCl= 0 IRwI=-1 IRwCP=  731 ICalc=  6 LCPTot=      236915 Len1MO=      622702 IndFrg=     4595829
 Restoring MOs from calculation   1 to rwf.
 CPIOFr:  IOpCl= 0 IRwI=-2 IRwCP=  731 ICalc=  0 LCPTot=      236915 Len1MO=      622702 IndFrg=      859617
 Counterpoise corrected energy =    -968.863601986856
                   BSSE energy =       0.002293197763
              sum of fragments =    -968.819833794423
           complexation energy =     -28.90 kcal/mole (raw)
           complexation energy =     -27.46 kcal/mole (corrected)
 Leave Link  122 at Thu Dec 15 15:27:45 2022, MaxMem=  1342177280 cpu:               0.3 elap:               0.0
 (Enter /data0/home/software/g16/l9999.exe)
 1\1\GINC-LOCALHOST\SP\RM062X\6-311+G(2d,p)\C5H10N1O5P1\WUHANYU\15-Dec-
 2022\0\\#p M062X/6-311+G(2d,p) nosymm em=GD3 counterpoise=3\\Title Car
 d Required\\0,1\C,0,7.985942,12.722765,14.013287\C,0,6.949082,11.83256
 2,14.324303\C,0,5.656219,12.332715,14.45765\C,0,5.429465,13.696686,14.
 277371\C,0,6.517722,14.52016,13.967808\N,0,7.769928,14.040455,13.84229
 4\H,0,4.829188,11.665702,14.699362\H,0,9.026037,12.381632,13.891924\H,
 0,7.156161,10.774712,14.455931\H,0,4.43172,14.113685,14.373329\H,0,6.4
 01533,15.598899,13.810883\P,0,10.87657,14.651748,11.979689\O,0,10.9274
 97,13.196358,12.107827\O,0,10.220757,15.206617,10.632632\H,0,10.346293
 ,14.498131,9.890996\O,0,10.122449,15.506035,13.077668\H,0,9.196895,15.
 027331,13.29028\O,0,12.3372,15.289483,12.005871\H,0,12.242368,16.31308
 6,12.018911\O,0,10.71145,12.955889,8.781419\H,0,10.351519,12.307059,9.
 39688\H,0,11.664012,12.878303,8.883697\\Version=ES64L-G16RevA.03\HF=-7
 6.4220157\RMSD=4.960e-09\Dipole=-1.5246513,-0.5558892,0.4188534\Quadru
 pole=-27.0297462,-6.4401221,33.4698683,-45.9281321,-37.9741632,-2.4335
 061\PG=C01 [X(C5H10N1O5P1)]\\@


 ...THOSE SCIENCES ARE VAIN AND FULL OF ERRORS WHICH 
 ARE NOT BORN FROM EXPERIMENT, THE MOTHER OF CERTAINTY...

                          -- LEONARDO DA VINCI, 1452-1519
 Job cpu time:       0 days  0 hours 52 minutes 15.1 seconds.
 Elapsed time:       0 days  0 hours  2 minutes 15.9 seconds.
 File lengths (MBytes):  RWF=    131 Int=      0 D2E=      0 Chk=     45 Scr=      1
 Normal termination of Gaussian 16 at Thu Dec 15 15:27:45 2022.
