          22
 Energy =     -968.86550860 a.u.  Frame:     1 Step:     1 Geom:     1
C          10.98674800     14.75625000      8.75730400
C          12.14158600     13.96290800      8.79950400
C          13.36185400     14.53969900      8.45757300
C          13.40177000     15.88302200      8.08492500
C          12.20515400     16.60765000      8.06808600
N          11.02264400     16.05291300      8.39787100
H          14.27729200     13.94895700      8.48073700
H           9.99580600     14.35071900      9.01738000
H          12.07847400     12.91926000      9.09430600
H          14.33908300     16.35901200      7.81381700
H          12.17373500     17.66559100      7.78419400
P           7.31700800     16.58823900      8.80941100
O           7.51618400     15.14701000      8.86614400
O           6.15071100     17.14255500      7.85674600
H           6.27973000     16.74056400      6.92667200
O           6.88748000     17.23027500     10.19186400
H           6.91102800     18.26886100     10.08601600
O           8.53536900     17.48641000      8.30900500
H           9.43324200     16.94069500      8.36626900
O           7.14606100     20.11289400      9.59153500
H           6.53415200     20.13496200      8.85044400
H           8.00490000     19.93157100      9.19020200
          22
 Energy =     -968.86573990 a.u.  Frame:     2 Step:     2 Geom:     2
C          11.29748700     15.63756200      9.40318300
C          12.17930000     14.82186300     10.12547000
C          12.13595300     13.44522600      9.92096100
C          11.22099600     12.91852300      9.00980400
C          10.37347600     13.79921200      8.32880900
N          10.41502700     15.13172100      8.52130900
H          12.80906000     12.78482800     10.46713300
H          11.28644300     16.73204400      9.52866700
H          12.87868300     15.26156400     10.83080700
H          11.16449600     11.84924300      8.83101300
H           9.63211000     13.44392000      7.60441000
P           8.22926900     18.09954500      8.56429800
O           9.25935000     18.51929900      9.50458700
O           6.96130400     17.33858700      9.19543200
H           6.78198800     17.71145300     10.12482800
O           7.59516600     19.29661100      7.74110300
H           7.00595200     18.89482000      6.98070700
O           8.60093300     17.06752500      7.41376700
H           9.22218600     16.31288900      7.82018900
O           6.08310200     17.84354300      5.66314800
H           6.87768000     17.35042600      5.42637300
H           5.61004600     17.25961600      6.26400900
          22
 Energy =     -968.86248520 a.u.  Frame:     3 Step:     3 Geom:     3
C           9.98422200     15.13490400     10.05826400
C          10.58393100     14.29520300     11.00589100
C          11.22319800     13.13905700     10.56416400
C          11.25064200     12.85231800      9.20005600
C          10.62879700     13.74216400      8.31680500
N          10.00541200     14.85791700      8.74097500
H          11.69915600     12.46585200     11.27707800
H           9.46977500     16.06339700     10.34764400
H          10.54997400     14.54649700     12.06184000
H          11.74446100     11.95970500      8.82736600
H          10.62157100     13.57334800      7.23333500
P           9.04804900     18.31146900      7.54163000
O          10.30550200     18.89889600      7.11641200
O           8.83076600     18.20128500      9.13627800
H           9.14360100     19.05727500      9.57927600
O           7.77966200     19.10332000      7.01371400
H           6.93920700     18.49996900      7.12460700
O           8.69327800     16.81691900      7.13397500
H           9.32850800     16.15166200      7.65389100
O           5.62935600     17.10892800      7.33377800
H           5.81351900     16.87125500      8.24714900
H           6.15742000     16.48868000      6.81587900
          22
 Energy =     -968.85576910 a.u.  Frame:     4 Step:     4 Geom:     4
C          11.53080600     14.91861200      8.66077300
C          11.71897800     15.01555100     10.04452300
C          10.63525300     14.76429000     10.88335600
C           9.40637600     14.41590700     10.32695300
C           9.29994500     14.34411500      8.93222100
N          10.34264600     14.59186200      8.11227400
H          10.74678200     14.84562500     11.96375500
H          12.34036000     15.12891500      7.95207300
H          12.68466700     15.30352900     10.44823300
H           8.54265000     14.21986700     10.95243800
H           8.35193100     14.10436500      8.43839700
P           9.39132200     17.80721700      8.04318000
O          10.66368600     18.17029800      8.64451500
O           8.42621200     16.88602200      8.94870500
H           8.50659900     17.15885400      9.92202800
O           8.50755500     19.05035700      7.62619800
H           7.71522900     18.71296700      7.03417800
O           9.37746900     16.93142100      6.70875300
H           9.81821400     16.00218500      6.90464300
O           6.45717800     17.86344500      5.91327000
H           6.19030100     17.13769100      6.48524300
H           7.11585100     17.47692500      5.32429800
          22
 Energy =     -968.86195660 a.u.  Frame:     5 Step:     5 Geom:     5
C          11.48027400     15.12453100      6.96469300
C          12.74700400     14.61902300      7.27768400
C          13.22996200     14.78847100      8.57474600
C          12.44346700     15.45037200      9.51428400
C          11.18572200     15.92816400      9.12190700
N          10.71834000     15.76893100      7.86947500
H          14.21226300     14.40490100      8.84954400
H          11.04594900     15.01770600      5.96399900
H          13.33734000     14.10505800      6.52526900
H          12.79102700     15.59370000     10.53336400
H          10.52255400     16.45378100      9.82554100
P           7.20212500     16.55351000      8.75536300
O           6.86844300     15.19230800      9.13479100
O           5.98727300     17.55372300      8.42351400
H           5.38908600     17.10791000      7.72657900
O           7.94725900     17.35276400      9.90973800
H           8.08063000     18.33624000      9.60474000
O           8.07627300     16.78170600      7.44586600
H           8.99096100     16.26639400      7.54484000
O           8.24112500     20.03045200      8.73854400
H           8.60354200     19.69904800      7.90940800
H           7.29939700     20.13132600      8.56611600
          22
 Energy =     -968.85169180 a.u.  Frame:     6 Step:     6 Geom:     6
C          11.10920100     17.18804400      9.85334300
C          10.57551600     16.21274300     10.70417400
C          10.56685500     14.88670900     10.27333600
C          11.11280600     14.56939600      9.03027900
C          11.61789700     15.60705200      8.23780600
N          11.60451500     16.89595700      8.63421700
H          10.12022700     14.11002300     10.89181700
H          11.12828700     18.24573200     10.13601700
H          10.15058100     16.49788900     11.66310200
H          11.10795900     13.54809000      8.66218400
H          12.02726700     15.42165900      7.23890400
P           8.07583400     16.25647300      7.67662500
O           8.44667500     15.31175000      6.63899200
O           6.58214100     16.82451400      7.70763600
H           6.37370500     17.21075300      6.77881400
O           8.21114200     15.67960500      9.14689500
H           8.19268100     16.47512900      9.81859300
O           8.86850900     17.65601700      7.72464500
H           9.85547100     17.51964400      7.47866800
O           8.43395400     18.22794500     10.70140900
H           8.74591300     18.51810600      9.83259000
H           7.55287400     18.59678600     10.77996100
          22
 Energy =     -968.85860390 a.u.  Frame:     7 Step:     7 Geom:     7
C          11.82832700     16.60842100      9.36840900
C          12.66232400     15.79567000     10.14276800
C          12.22072300     14.51596600     10.47905700
C          10.97305600     14.08649400     10.03487800
C          10.19704000     14.95995600      9.26111400
N          10.61883900     16.19769700      8.93773700
H          12.84688300     13.86010200     11.08378200
H          12.12004200     17.62321800      9.07353100
H          13.63172000     16.15575400     10.47404200
H          10.59956300     13.09703100     10.28368700
H           9.20222000     14.67214700      8.88833900
P           7.58584100     17.30109200      6.93638700
O           7.84132300     17.18931600      5.51267000
O           6.38056900     18.24722900      7.40598800
H           6.55198300     19.18350400      7.02744600
O           7.16801100     15.91935400      7.60553800
H           7.22830400     16.01938400      8.63504300
O           8.74262500     17.89060200      7.86684300
H           9.58351200     17.26679500      7.84318400
O           7.94448500     16.41145300     10.43331900
H           8.62688100     16.96520900     10.02096700
H           7.28573900     17.03362300     10.74528100
