          22
 G =       -0.377026 Gcorr = 0.101292 a.u. Nimag =   0 Frame:     1 Step:     1 Geom:     1
C          10.48532900     15.50277700     10.56957700
C          11.51774200     15.48874000      9.62421700
C          11.30400700     14.82808400      8.41513800
C          10.09229200     14.17263100      8.20043000
C           9.11630800     14.22771500      9.20266000
N           9.29965700     14.89574900     10.35891500
H          12.06752500     14.84146700      7.63918700
H          10.58403900     16.03442100     11.52212500
H          12.44549300     16.01947900      9.81445000
H           9.88751200     13.65530900      7.26671400
H           8.14228600     13.74266200      9.08027700
P           9.07014300     17.96335200      8.28419600
O           9.89140200     18.73698500      9.19741400
O           8.23095600     18.72970300      7.16025900
H           7.67446300     19.45727900      7.62539500
O           9.88927800     16.93324200      7.40069000
H           9.22353100     16.24654700      6.98852200
O           7.88045100     17.08486100      8.91847900
H           8.16824400     16.68658300      9.81956200
O           7.71937200     15.00628200      6.67677000
H           7.20364100     15.40420700      5.97369200
H           7.35633800     15.38194500      7.49134600
          22
 G =       -0.378668 Gcorr = 0.098329 a.u. Nimag =   0 Frame:     2 Step:     2 Geom:     2
C          11.28961300     15.48426000      9.59636300
C          11.96163800     14.69715800     10.54164200
C          11.69078200     13.33216900     10.58886800
C          10.76293300     12.78880800      9.70079700
C          10.13334900     13.64138700      8.78738100
N          10.39542400     14.96167200      8.73637400
H          12.19734200     12.69381000     11.31232500
H          11.46268500     16.56945100      9.51809500
H          12.67686600     15.15012300     11.22226100
H          10.53137700     11.72829900      9.71578000
H           9.39335400     13.27299800      8.06813200
P           8.76831400     18.18885100      8.01118900
O           9.79035900     18.61775700      8.95605400
O           7.34673100     17.78069800      8.64193400
H           7.17055900     18.35981800      9.45962700
O           8.41162200     19.28377300      6.92180000
H           7.81638200     18.83738400      6.19168900
O           9.02911400     16.90256400      7.11438000
H           9.47972100     16.15490100      7.71337800
O           6.82001100     17.70498800      5.00189200
H           6.21057400     17.33325400      5.64697700
H           7.53125800     17.05589600      4.94307100
          22
 G =       -0.378672 Gcorr = 0.098325 a.u. Nimag =   0 Frame:     3 Step:     3 Geom:     3
C          11.14760300     15.33333100      9.54108700
C          11.83104900     14.52866500     10.46308100
C          11.40382300     13.21682400     10.65115000
C          10.31343800     12.74249500      9.92255100
C           9.68373100     13.60848000      9.02191100
N          10.09635900     14.87698800      8.83474700
H          11.91486700     12.56645400     11.36061800
H          11.44053400     16.37913800      9.35611000
H          12.67530200     14.92774000     11.01801800
H           9.95802600     11.72462300     10.04957400
H           8.82064100     13.29370800      8.42472900
P           8.80202400     18.23524200      8.03495500
O           9.97772100     18.58813200      8.81886000
O           7.42953700     18.06267600      8.85452900
H           7.42756700     18.71513300      9.63513500
O           8.45199100     19.29137100      6.90579500
H           7.72029400     18.87971300      6.28800200
O           8.78962200     16.86787400      7.22442300
H           9.21441000     16.10946400      7.82874300
O           6.45160600     17.81177300      5.31757200
H           5.88560100     17.56861600      6.05665200
H           7.06426300     17.07157900      5.23176800
          22
 G =       -0.378083 Gcorr = 0.098925 a.u. Nimag =   0 Frame:     4 Step:     4 Geom:     4
C          11.53080600     14.91861200      8.66077300
C          11.71897800     15.01555100     10.04452300
C          10.63525300     14.76429000     10.88335600
C           9.40637600     14.41590700     10.32695300
C           9.29994500     14.34411500      8.93222100
N          10.34264600     14.59186200      8.11227400
H          10.74678200     14.84562500     11.96375500
H          12.34036000     15.12891500      7.95207300
H          12.68466700     15.30352900     10.44823300
H           8.54265000     14.21986700     10.95243800
H           8.35193100     14.10436500      8.43839700
P           9.39132200     17.80721700      8.04318000
O          10.66368600     18.17029800      8.64451500
O           8.42621200     16.88602200      8.94870500
H           8.50659900     17.15885400      9.92202800
O           8.50755500     19.05035700      7.62619800
H           7.71522900     18.71296700      7.03417800
O           9.37746900     16.93142100      6.70875300
H           9.81821400     16.00218500      6.90464300
O           6.45717800     17.86344500      5.91327000
H           6.19030100     17.13769100      6.48524300
H           7.11585100     17.47692500      5.32429800
          22
 G =       -0.378080 Gcorr = 0.098928 a.u. Nimag =   0 Frame:     5 Step:     5 Geom:     5
C          11.62666600     15.23576300      8.57318500
C          11.77389800     15.03411100      9.95060100
C          10.75445300     14.38199100     10.64104100
C           9.63001300     13.94264000      9.94551800
C           9.55769400     14.18702200      8.56828900
N          10.53756100     14.82310200      7.89286200
H          10.83362100     14.22286700     11.71562400
H          12.38465800     15.76390200      7.98294500
H          12.65495600     15.40100100     10.46788700
H           8.81722200     13.43715600     10.45497800
H           8.68499900     13.89136400      7.97578700
P           8.94831500     17.71086400      8.51017900
O          10.11186800     18.16247500      9.25485300
O           8.18133300     16.42961200      9.11852500
H           8.19181300     16.47325200     10.13157600
O           7.83381100     18.81941500      8.33883300
H           7.13538800     18.48474500      7.63714400
O           9.13040400     17.19313600      7.01127200
H           9.75033200     16.34953000      7.01343100
O           6.09329200     17.69790300      6.27483800
H           5.97258200     16.81887900      6.64620600
H           6.82512900     17.59928900      5.65443300
          22
 G =       -0.378289 Gcorr = 0.098792 a.u. Nimag =   0 Frame:     6 Step:     6 Geom:     6
C           9.98422200     15.13490400     10.05826400
C          10.58393100     14.29520300     11.00589100
C          11.22319800     13.13905700     10.56416400
C          11.25064200     12.85231800      9.20005600
C          10.62879700     13.74216400      8.31680500
N          10.00541200     14.85791700      8.74097500
H          11.69915600     12.46585200     11.27707800
H           9.46977500     16.06339700     10.34764400
H          10.54997400     14.54649700     12.06184000
H          11.74446100     11.95970500      8.82736600
H          10.62157100     13.57334800      7.23333500
P           9.04804900     18.31146900      7.54163000
O          10.30550200     18.89889600      7.11641200
O           8.83076600     18.20128500      9.13627800
H           9.14360100     19.05727500      9.57927600
O           7.77966200     19.10332000      7.01371400
H           6.93920700     18.49996900      7.12460700
O           8.69327800     16.81691900      7.13397500
H           9.32850800     16.15166200      7.65389100
O           5.62935600     17.10892800      7.33377800
H           5.81351900     16.87125500      8.24714900
H           6.15742000     16.48868000      6.81587900
          22
 G =       -0.378655 Gcorr = 0.098343 a.u. Nimag =   0 Frame:     7 Step:     7 Geom:     7
C          11.29186800     15.30824900      9.26337500
C          12.13949800     14.53237400     10.06598400
C          11.73169800     13.25023500     10.42466400
C          10.49800900     12.77630700      9.97949200
C           9.70892300     13.61258100      9.18222900
N          10.10164600     14.85205500      8.83029100
H          12.36869300     12.62264700     11.04745100
H          11.56283900     16.33016300      8.95353100
H          13.09346100     14.93054800     10.39972200
H          10.15414800     11.78130000     10.24451800
H           8.72940500     13.29684300      8.80610000
P           8.74411000     18.20522000      8.12212100
O          10.07035100     18.55822200      8.60972400
O           7.58006600     18.12687300      9.22857600
H           7.76351700     18.82068200      9.94965500
O           8.18021600     19.20977900      7.03317200
H           7.32150000     18.79160700      6.61562700
O           8.52368700     16.79688800      7.41872400
H           9.05197900     16.05784700      7.96244600
O           5.84601900     17.71874000      6.01181400
H           6.40750500     16.95321600      5.84059600
H           5.45087000     17.53763800      6.87019700
          22
 G =       -0.378678 Gcorr = 0.098320 a.u. Nimag =   0 Frame:     8 Step:     8 Geom:     8
C          11.29748700     15.63756200      9.40318300
C          12.17930000     14.82186300     10.12547000
C          12.13595300     13.44522600      9.92096100
C          11.22099600     12.91852300      9.00980400
C          10.37347600     13.79921200      8.32880900
N          10.41502700     15.13172100      8.52130900
H          12.80906000     12.78482800     10.46713300
H          11.28644300     16.73204400      9.52866700
H          12.87868300     15.26156400     10.83080700
H          11.16449600     11.84924300      8.83101300
H           9.63211000     13.44392000      7.60441000
P           8.22926900     18.09954500      8.56429800
O           9.25935000     18.51929900      9.50458700
O           6.96130400     17.33858700      9.19543200
H           6.78198800     17.71145300     10.12482800
O           7.59516600     19.29661100      7.74110300
H           7.00595200     18.89482000      6.98070700
O           8.60093300     17.06752500      7.41376700
H           9.22218600     16.31288900      7.82018900
O           6.08310200     17.84354300      5.66314800
H           6.87768000     17.35042600      5.42637300
H           5.61004600     17.25961600      6.26400900
          22
 G =       -0.377040 Gcorr = 0.101278 a.u. Nimag =   0 Frame:     9 Step:     9 Geom:     9
C          11.10920100     17.18804400      9.85334300
C          10.57551600     16.21274300     10.70417400
C          10.56685500     14.88670900     10.27333600
C          11.11280600     14.56939600      9.03027900
C          11.61789700     15.60705200      8.23780600
N          11.60451500     16.89595700      8.63421700
H          10.12022700     14.11002300     10.89181700
H          11.12828700     18.24573200     10.13601700
H          10.15058100     16.49788900     11.66310200
H          11.10795900     13.54809000      8.66218400
H          12.02726700     15.42165900      7.23890400
P           8.07583400     16.25647300      7.67662500
O           8.44667500     15.31175000      6.63899200
O           6.58214100     16.82451400      7.70763600
H           6.37370500     17.21075300      6.77881400
O           8.21114200     15.67960500      9.14689500
H           8.19268100     16.47512900      9.81859300
O           8.86850900     17.65601700      7.72464500
H           9.85547100     17.51964400      7.47866800
O           8.43395400     18.22794500     10.70140900
H           8.74591300     18.51810600      9.83259000
H           7.55287400     18.59678600     10.77996100
          22
 G =       -0.378617 Gcorr = 0.098370 a.u. Nimag =   0 Frame:    10 Step:    10 Geom:    10
C          10.81942100     14.82736000      9.40273200
C          11.86431000     14.00699500      9.84992400
C          13.14604700     14.54405900      9.93603600
C          13.35413300     15.87559500      9.57739600
C          12.25909000     16.62899800      9.14081600
N          11.01765200     16.11281800      9.05610400
H          13.97906300     13.93154900     10.28023500
H           9.78666400     14.45351200      9.31489200
H          11.67075700     12.97335000     10.12231400
H          14.34260300     16.32082800      9.63490900
H          12.36074100     17.67940300      8.84564400
P           7.43345400     16.72219900      8.07340400
O           7.55851700     15.28180200      8.24528800
O           6.71923100     17.25432500      6.73852200
H           7.17533900     16.81663500      5.93612200
O           6.53901800     17.42306100      9.17648900
H           6.62567100     18.45623600      9.05314800
O           8.77400800     17.58406900      8.03294400
H           9.56976500     17.03346600      8.44629700
O           7.07258600     20.27691500      8.62051200
H           6.77774800     20.27621000      7.70548000
H           8.01419000     20.07063800      8.57080000
          22
 G =       -0.377028 Gcorr = 0.101290 a.u. Nimag =   0 Frame:    11 Step:    12 Geom:    12
C          11.54822800     16.26621800      9.82328200
C          12.13565400     16.16057600      8.55701600
C          11.71479300     15.13479700      7.71160500
C          10.75711100     14.22778300      8.16331300
C          10.22774600     14.39972400      9.44795500
N          10.60058900     15.41065700     10.25776500
H          12.11501500     15.05560400      6.70226000
H          11.81458800     17.07155100     10.51627900
H          12.86963400     16.88976400      8.22814100
H          10.39899400     13.42134900      7.52862700
H           9.46331600     13.72484600      9.84695300
P           8.75853800     17.59731300      7.89317500
O           9.57952300     18.75442600      8.19945500
O           7.39109200     17.80898200      7.09307000
H           6.84438200     18.52332400      7.58930400
O           9.48099000     16.52240200      6.97902100
H           8.94722300     15.62985600      7.03089600
O           8.18510000     16.74443600      9.13134300
H           8.87615500     16.70050800      9.88891900
O           7.86574400     14.08970100      7.64175400
H           7.04351700     14.15344300      7.15342900
H           7.72207000     14.62275800      8.43644000
          22
 G =       -0.378630 Gcorr = 0.098357 a.u. Nimag =   0 Frame:    12 Step:    13 Geom:    13
C          11.39072600     16.09257400      9.50014100
C          12.65022800     15.64622900      9.92347700
C          12.95703900     14.29383100      9.79859700
C          12.00871200     13.42537900      9.25880000
C          10.77421400     13.94863900      8.85935500
N          10.47377100     15.25641100      8.97871600
H          13.92793000     13.91636700     10.11867400
H          11.09573900     17.15142700      9.57679800
H          13.36807000     16.34720700     10.33991300
H          12.22067300     12.36628300      9.14924300
H           9.99000500     13.31579800      8.42884400
P           7.85203900     17.92160800      8.52348200
O           8.89237600     18.52412200      9.34479000
O           6.33141800     18.08271900      9.01015600
H           6.27184500     17.76945500      9.98061600
O           7.75325600     18.53273500      7.06581700
H           7.08711000     17.94691100      6.51513500
O           7.90526100     16.34436300      8.29732000
H           8.86666900     15.97975600      8.52069300
O           5.90432300     16.62597700      5.76788400
H           5.16910400     16.74020500      6.37664600
H           6.41950300     15.90202500      6.14491200
          22
 G =       -0.376682 Gcorr = 0.100874 a.u. Nimag =   0 Frame:    13 Step:    14 Geom:    14
C          11.82832700     16.60842100      9.36840900
C          12.66232400     15.79567000     10.14276800
C          12.22072300     14.51596600     10.47905700
C          10.97305600     14.08649400     10.03487800
C          10.19704000     14.95995600      9.26111400
N          10.61883900     16.19769700      8.93773700
H          12.84688300     13.86010200     11.08378200
H          12.12004200     17.62321800      9.07353100
H          13.63172000     16.15575400     10.47404200
H          10.59956300     13.09703100     10.28368700
H           9.20222000     14.67214700      8.88833900
P           7.58584100     17.30109200      6.93638700
O           7.84132300     17.18931600      5.51267000
O           6.38056900     18.24722900      7.40598800
H           6.55198300     19.18350400      7.02744600
O           7.16801100     15.91935400      7.60553800
H           7.22830400     16.01938400      8.63504300
O           8.74262500     17.89060200      7.86684300
H           9.58351200     17.26679500      7.84318400
O           7.94448500     16.41145300     10.43331900
H           8.62688100     16.96520900     10.02096700
H           7.28573900     17.03362300     10.74528100
          22
 G =       -0.378677 Gcorr = 0.098310 a.u. Nimag =   0 Frame:    14 Step:    16 Geom:    16
C          11.02943600     15.18537600      9.49341000
C          12.21824100     14.50436400      9.78961300
C          13.12127600     14.25641900      8.75920700
C          12.82038600     14.68994600      7.46829500
C          11.61294900     15.36334900      7.25398500
N          10.73675600     15.60486100      8.24834300
H          14.05418800     13.72939200      8.95787800
H          10.28012100     15.40714400     10.27021700
H          12.42457500     14.17930400     10.80541200
H          13.50592900     14.51081000      6.64576800
H          11.32202700     15.72735900      6.26219100
P           7.39218000     17.05743200      9.19153100
O           7.82147700     16.27299700     10.34058200
O           5.89245800     16.84433700      8.66185700
H           5.74509400     15.84459000      8.51340300
O           7.38593600     18.61994400      9.44952100
H           7.20545600     19.09637200      8.53809500
O           8.19659100     16.87656800      7.82710200
H           9.13368800     16.43669400      8.01630300
O           6.95201500     19.65256300      6.71359700
H           6.12090200     19.19898900      6.54696100
H           7.62832500     19.04121100      6.39673600
          22
 G =       -0.377472 Gcorr = 0.098545 a.u. Nimag =   0 Frame:    15 Step:    17 Geom:    17
C          11.36560800     16.42343600      8.83231400
C          12.73479400     16.25467800      9.07928500
C          13.36883600     15.11908700      8.58139900
C          12.62837500     14.18609000      7.85646400
C          11.26489700     14.42677500      7.65359200
N          10.64897500     15.52591400      8.12995000
H          14.43235500     14.95926600      8.75729200
H          10.81512700     17.29984800      9.20655100
H          13.28441900     16.99680500      9.65114300
H          13.09583200     13.29065400      7.45837500
H          10.63082000     13.72772200      7.09617800
P           7.35695100     16.82737300      9.24214700
O           7.31537300     16.02750800     10.45322400
O           5.96963200     17.43696500      8.70357300
H           5.29545100     16.67419900      8.62602700
O           8.22741400     18.14773500      9.40195200
H           8.14691400     18.70983500      8.53267300
O           7.86480100     16.14193200      7.89925500
H           8.84073300     15.77064900      8.04671400
O           7.86288000     19.46475800      6.80141700
H           6.90213900     19.46950200      6.86313600
H           8.06768300     18.66928100      6.29734900
          22
 G =       -0.377028 Gcorr = 0.101290 a.u. Nimag =   0 Frame:    16 Step:    18 Geom:    18
C          11.19477400     17.19203900      9.67486200
C          10.97491800     15.86832700     10.07400000
C          11.17192300     14.85078400      9.14130300
C          11.60768300     15.17659300      7.85762600
C          11.79519900     16.52667600      7.53822000
N          11.57944200     17.51936700      8.42510400
H          10.96809100     13.81463500      9.40602500
H          11.04146700     18.03020800     10.36258000
H          10.62740100     15.65210100     11.08092100
H          11.75653000     14.40743400      7.10607400
H          12.10344300     16.84377900      6.53612200
P           8.15257300     16.51072400      7.42056200
O           8.56780800     16.15647900      6.07564700
O           6.59262900     16.66287700      7.73363200
H           6.19765600     17.31947900      7.04928200
O           8.58103200     15.45522100      8.52298100
H           8.49448900     15.90076400      9.46028300
O           8.65614400     17.92271600      8.00551600
H           9.61225500     18.12281400      7.69069400
O           8.49935200     17.17784600     10.97004300
H           7.58046500     17.27317400     11.22522300
H           8.63473200     17.84598000     10.28331100
          22
 G =       -0.378718 Gcorr = 0.098267 a.u. Nimag =   0 Frame:    17 Step:    19 Geom:    19
C          10.98674800     14.75625000      8.75730400
C          12.14158600     13.96290800      8.79950400
C          13.36185400     14.53969900      8.45757300
C          13.40177000     15.88302200      8.08492500
C          12.20515400     16.60765000      8.06808600
N          11.02264400     16.05291300      8.39787100
H          14.27729200     13.94895700      8.48073700
H           9.99580600     14.35071900      9.01738000
H          12.07847400     12.91926000      9.09430600
H          14.33908300     16.35901200      7.81381700
H          12.17373500     17.66559100      7.78419400
P           7.31700800     16.58823900      8.80941100
O           7.51618400     15.14701000      8.86614400
O           6.15071100     17.14255500      7.85674600
H           6.27973000     16.74056400      6.92667200
O           6.88748000     17.23027500     10.19186400
H           6.91102800     18.26886100     10.08601600
O           8.53536900     17.48641000      8.30900500
H           9.43324200     16.94069500      8.36626900
O           7.14606100     20.11289400      9.59153500
H           6.53415200     20.13496200      8.85044400
H           8.00490000     19.93157100      9.19020200
          22
 G =       -0.377522 Gcorr = 0.098495 a.u. Nimag =   0 Frame:    18 Step:    20 Geom:    20
C          11.48027400     15.12453100      6.96469300
C          12.74700400     14.61902300      7.27768400
C          13.22996200     14.78847100      8.57474600
C          12.44346700     15.45037200      9.51428400
C          11.18572200     15.92816400      9.12190700
N          10.71834000     15.76893100      7.86947500
H          14.21226300     14.40490100      8.84954400
H          11.04594900     15.01770600      5.96399900
H          13.33734000     14.10505800      6.52526900
H          12.79102700     15.59370000     10.53336400
H          10.52255400     16.45378100      9.82554100
P           7.20212500     16.55351000      8.75536300
O           6.86844300     15.19230800      9.13479100
O           5.98727300     17.55372300      8.42351400
H           5.38908600     17.10791000      7.72657900
O           7.94725900     17.35276400      9.90973800
H           8.08063000     18.33624000      9.60474000
O           8.07627300     16.78170600      7.44586600
H           8.99096100     16.26639400      7.54484000
O           8.24112500     20.03045200      8.73854400
H           8.60354200     19.69904800      7.90940800
H           7.29939700     20.13132600      8.56611600
          22
 G =       -0.378620 Gcorr = 0.098367 a.u. Nimag =   0 Frame:    19 Step:    21 Geom:    21
C          11.12066800     14.71057000      9.93109900
C          12.44698000     14.26847300      9.98366000
C          13.36631300     14.81196700      9.08679100
C          12.94093100     15.77156700      8.17196700
C          11.59472500     16.16195600      8.18299100
N          10.70545900     15.63879700      9.04747000
H          14.40657300     14.48768800      9.10286900
H          10.35388900     14.32063300     10.60992700
H          12.75044700     13.51848900     10.70757500
H          13.63330500     16.21317800      7.46085800
H          11.20510400     16.91741400      7.48187800
P           7.82459300     17.73916600      7.83371600
O           9.01712500     18.31043900      7.22430100
O           6.79942400     18.74438200      8.55041700
H           7.32415100     19.31493500      9.21566600
O           6.85594100     17.02884100      6.80164100
H           6.11484500     16.53238300      7.34432600
O           8.02618600     16.67059800      8.99959700
H           9.00448200     16.28418800      8.96999000
O           4.97210400     15.66624300      8.62765200
H           4.66873500     16.45070500      9.09326200
H           5.72803000     15.35740300      9.14235200
