 Entering Gaussian System, Link 0=g16
 Initial command:
 /data0/home/software/g16/l1.exe "/data0/home/software/g16/scratch/Gau-2479048.inp" -scrdir="/data0/home/software/g16/scratch/"
 Default is to use a total of  22 processors:
                               22 via shared-memory
                                1 via Linda
 Entering Link 1 = /data0/home/software/g16/l1.exe PID=   2479049.
  
 Copyright (c) 1988,1990,1992,1993,1995,1998,2003,2009,2016,
            Gaussian, Inc.  All Rights Reserved.
  
 This is part of the Gaussian(R) 16 program.  It is based on
 the Gaussian(R) 09 system (copyright 2009, Gaussian, Inc.),
 the Gaussian(R) 03 system (copyright 2003, Gaussian, Inc.),
 the Gaussian(R) 98 system (copyright 1998, Gaussian, Inc.),
 the Gaussian(R) 94 system (copyright 1995, Gaussian, Inc.),
 the Gaussian 92(TM) system (copyright 1992, Gaussian, Inc.),
 the Gaussian 90(TM) system (copyright 1990, Gaussian, Inc.),
 the Gaussian 88(TM) system (copyright 1988, Gaussian, Inc.),
 the Gaussian 86(TM) system (copyright 1986, Carnegie Mellon
 University), and the Gaussian 82(TM) system (copyright 1983,
 Carnegie Mellon University). Gaussian is a federally registered
 trademark of Gaussian, Inc.
  
 This software contains proprietary and confidential information,
 including trade secrets, belonging to Gaussian, Inc.
  
 This software is provided under written license and may be
 used, copied, transmitted, or stored only in accord with that
 written license.
  
 The following legend is applicable only to US Government
 contracts under FAR:
  
                    RESTRICTED RIGHTS LEGEND
  
 Use, reproduction and disclosure by the US Government is
 subject to restrictions as set forth in subparagraphs (a)
 and (c) of the Commercial Computer Software - Restricted
 Rights clause in FAR 52.227-19.
  
 Gaussian, Inc.
 340 Quinnipiac St., Bldg. 40, Wallingford CT 06492
  
  
 ---------------------------------------------------------------
 Warning -- This program may not be used in any manner that
 competes with the business of Gaussian, Inc. or will provide
 assistance to any competitor of Gaussian, Inc.  The licensee
 of this program is prohibited from giving any competitor of
 Gaussian, Inc. access to this program.  By using this program,
 the user acknowledges that Gaussian, Inc. is engaged in the
 business of creating and licensing software in the field of
 computational chemistry and represents and warrants to the
 licensee that it is not a competitor of Gaussian, Inc. and that
 it will not use this program in any manner prohibited above.
 ---------------------------------------------------------------
  

 Cite this work as:
 Gaussian 16, Revision A.03,
 M. J. Frisch, G. W. Trucks, H. B. Schlegel, G. E. Scuseria, 
 M. A. Robb, J. R. Cheeseman, G. Scalmani, V. Barone, 
 G. A. Petersson, H. Nakatsuji, X. Li, M. Caricato, A. V. Marenich, 
 J. Bloino, B. G. Janesko, R. Gomperts, B. Mennucci, H. P. Hratchian, 
 J. V. Ortiz, A. F. Izmaylov, J. L. Sonnenberg, D. Williams-Young, 
 F. Ding, F. Lipparini, F. Egidi, J. Goings, B. Peng, A. Petrone, 
 T. Henderson, D. Ranasinghe, V. G. Zakrzewski, J. Gao, N. Rega, 
 G. Zheng, W. Liang, M. Hada, M. Ehara, K. Toyota, R. Fukuda, 
 J. Hasegawa, M. Ishida, T. Nakajima, Y. Honda, O. Kitao, H. Nakai, 
 T. Vreven, K. Throssell, J. A. Montgomery, Jr., J. E. Peralta, 
 F. Ogliaro, M. J. Bearpark, J. J. Heyd, E. N. Brothers, K. N. Kudin, 
 V. N. Staroverov, T. A. Keith, R. Kobayashi, J. Normand, 
 K. Raghavachari, A. P. Rendell, J. C. Burant, S. S. Iyengar, 
 J. Tomasi, M. Cossi, J. M. Millam, M. Klene, C. Adamo, R. Cammi, 
 J. W. Ochterski, R. L. Martin, K. Morokuma, O. Farkas, 
 J. B. Foresman, and D. J. Fox, Gaussian, Inc., Wallingford CT, 2016.
 
 ******************************************
 Gaussian 16:  ES64L-G16RevA.03 25-Dec-2016
                20-Feb-2023 
 ******************************************
 %nproc=24
 Will use up to   24 processors via shared memory.
 %mem=50GB
 ---------------------------------------------------
 #p M062X/6-311+G(2d,p) nosymm em=GD3 counterpoise=2
 ---------------------------------------------------
 1/38=1,62=2,172=1/1;
 2/12=2,15=1,17=6,18=5,40=1/2;
 1/38=1,53=2,62=2,63=1/22;
 3/5=4,6=6,7=112,11=2,25=1,30=1,74=-55,124=31/1,2,3;
 4//1;
 5/5=2,38=5/2;
 6/7=2,8=2,9=2,10=2,28=1/1;
 1/53=2,62=2,63=1/22;
 3/5=7,6=11,7=112,11=2,25=1,30=1,74=-55,82=7,124=31/1,2,3;
 4//1;
 5/5=2,38=5/2;
 6/7=2,8=2,9=2,10=2,28=1/1;
 1/53=2,62=2,63=1/22(-4);
 99/5=1,9=1/99;
 Leave Link    1 at Mon Feb 20 21:06:32 2023, MaxMem=  6710886400 cpu:               0.7 elap:               0.0
 (Enter /data0/home/software/g16/l101.exe)
 -------------------
 Title Card Required
 -------------------
 Symbolic Z-matrix:
 Charge =  0 Multiplicity = 1 in supermolecule
 Charge =  0 Multiplicity = 1 in fragment      1.
 Charge =  0 Multiplicity = 1 in fragment      2.
 C                     8.80187   19.05551   7.3937     
 C                     8.53599   18.95323   6.02279    
 C                     9.60481   18.76209   5.14911    
 C                     10.89862   18.67877   5.66077    
 C                     11.07931   18.79108   7.04434    
 N                     10.0498   18.97665   7.893      
 H                     9.43072   18.67821   4.07642    
 H                     8.00236   19.2049   8.12937    
 H                     7.51697   19.0212   5.65278    
 H                     11.75087   18.52912   5.00401    
 H                     12.07243   18.7325   7.50823    
 O                     10.92516   19.50677   10.42476    
 H                     10.49687   18.9462   9.74987    
 H                     10.95423   20.36379   10.01085    
 
 ITRead=  0  0  0  0  0  0  0  0  0  0  0  0  0  0
 MicOpt= -1 -1 -1 -1 -1 -1 -1 -1 -1 -1 -1 -1 -1 -1
 NAtoms=     14 NQM=       14 NQMF=       0 NMMI=      0 NMMIF=      0
                NMic=       0 NMicF=      0.
                    Isotopes and Nuclear Properties:
 (Nuclear quadrupole moments (NQMom) in fm**2, nuclear magnetic moments (NMagM)
  in nuclear magnetons)

  Atom         1           2           3           4           5           6           7           8           9          10
 IAtWgt=          12          12          12          12          12          14           1           1           1           1
 AtmWgt=  12.0000000  12.0000000  12.0000000  12.0000000  12.0000000  14.0030740   1.0078250   1.0078250   1.0078250   1.0078250
 NucSpn=           0           0           0           0           0           2           1           1           1           1
 AtZEff=  -0.0000000  -0.0000000  -0.0000000  -0.0000000  -0.0000000  -0.0000000  -0.0000000  -0.0000000  -0.0000000  -0.0000000
 NQMom=    0.0000000   0.0000000   0.0000000   0.0000000   0.0000000   2.0440000   0.0000000   0.0000000   0.0000000   0.0000000
 NMagM=    0.0000000   0.0000000   0.0000000   0.0000000   0.0000000   0.4037610   2.7928460   2.7928460   2.7928460   2.7928460
 AtZNuc=   6.0000000   6.0000000   6.0000000   6.0000000   6.0000000   7.0000000   1.0000000   1.0000000   1.0000000   1.0000000

  Atom        11          12          13          14
 IAtWgt=           1          16           1           1
 AtmWgt=   1.0078250  15.9949146   1.0078250   1.0078250
 NucSpn=           1           0           1           1
 AtZEff=  -0.0000000  -0.0000000  -0.0000000  -0.0000000
 NQMom=    0.0000000   0.0000000   0.0000000   0.0000000
 NMagM=    2.7928460   0.0000000   2.7928460   2.7928460
 AtZNuc=   1.0000000   8.0000000   1.0000000   1.0000000
 Leave Link  101 at Mon Feb 20 21:06:32 2023, MaxMem=  6710886400 cpu:               1.9 elap:               0.1
 (Enter /data0/home/software/g16/l202.exe)
                          Input orientation:                          
 ---------------------------------------------------------------------
 Center     Atomic      Atomic             Coordinates (Angstroms)
 Number     Number       Type             X           Y           Z
 ---------------------------------------------------------------------
      1          6           0        8.801874   19.055509    7.393696
      2          6           0        8.535987   18.953226    6.022791
      3          6           0        9.604807   18.762089    5.149112
      4          6           0       10.898615   18.678772    5.660771
      5          6           0       11.079312   18.791077    7.044344
      6          7           0       10.049805   18.976650    7.892998
      7          1           0        9.430717   18.678212    4.076421
      8          1           0        8.002357   19.204897    8.129366
      9          1           0        7.516973   19.021205    5.652783
     10          1           0       11.750867   18.529121    5.004014
     11          1           0       12.072431   18.732503    7.508226
     12          8           0       10.925159   19.506765   10.424757
     13          1           0       10.496869   18.946198    9.749870
     14          1           0       10.954232   20.363792   10.010851
 ---------------------------------------------------------------------
                    Distance matrix (angstroms):
                    1          2          3          4          5
     1  C    0.000000
     2  C    1.400192   0.000000
     3  C    2.401865   1.393637   0.000000
     4  C    2.746140   2.405908   1.393799   0.000000
     5  C    2.319201   2.745608   2.401439   1.399835   0.000000
     6  N    1.346422   2.406214   2.788005   2.406667   1.347047
     7  H    3.397368   2.159752   1.089958   2.159836   3.396936
     8  H    1.096702   2.187637   3.412600   3.841755   3.288795
     9  H    2.164007   1.086240   2.163302   3.398945   3.831404
    10  H    3.832000   3.399004   2.163539   1.086305   2.163921
    11  H    3.288464   3.842092   3.414010   2.189480   1.097681
    12  O    3.728177   5.039033   5.489108   4.835477   3.458781
    13  H    2.904568   4.211440   4.690058   4.117481   2.771854
    14  H    3.632320   4.872600   5.293667   4.665360   3.359947
                    6          7          8          9         10
     6  N    0.000000
     7  H    3.877963   0.000000
     8  H    2.073647   4.329431   0.000000
     9  H    3.381684   2.502994   2.530376   0.000000
    10  H    3.382325   2.503149   4.927050   4.311485   0.000000
    11  H    2.073324   4.331153   4.144210   4.927293   2.532952
    12  O    2.730764   6.574285   3.728635   5.884151   5.569743
    13  H    1.910175   5.778972   2.985892   5.066708   4.926420
    14  H    2.688392   6.354505   3.687355   5.710521   5.391573
                   11         12         13         14
    11  H    0.000000
    12  O    3.228292   0.000000
    13  H    2.748277   0.976289   0.000000
    14  H    3.189766   0.952186   1.512238   0.000000
 Symmetry turned off by external request.
 Stoichiometry    C5H7NO
 Framework group  C1[X(C5H7NO)]
 Deg. of freedom    36
 Full point group                 C1      NOp   1
 Rotational constants (GHZ):           5.8259002           1.5461038           1.2318075
 Leave Link  202 at Mon Feb 20 21:06:32 2023, MaxMem=  6710886400 cpu:               0.1 elap:               0.0
 (Enter /data0/home/software/g16/l122.exe)
 Counterpoise: doing full-system calculation.
 Leave Link  122 at Mon Feb 20 21:06:32 2023, MaxMem=  6710886400 cpu:               0.0 elap:               0.0
 (Enter /data0/home/software/g16/l301.exe)
 Standard basis: 6-311+G(2d,p) (5D, 7F)
 Ernie: Thresh=  0.10000D-02 Tol=  0.10000D-05 Strict=F.
   231 basis functions,   350 primitive gaussians,   245 cartesian basis functions
    26 alpha electrons       26 beta electrons
       nuclear repulsion energy       271.6380104176 Hartrees.
 IExCor= 4336 DFT=T Ex+Corr=M062X ExCW=0 ScaHFX=  0.540000
 ScaDFX=  1.000000  1.000000  1.000000  1.000000 ScalE2=  1.000000  1.000000
 IRadAn=      5 IRanWt=     -1 IRanGd=            0 ICorTp=0 IEmpDi=131
 NAtoms=   14 NActive=   14 NUniq=   14 SFac= 1.00D+00 NAtFMM=   60 NAOKFM=F Big=F
 Integral buffers will be    131072 words long.
 Raffenetti 2 integral format.
 Two-electron integral symmetry is turned off.
 R6Disp:  Grimme-D3 Dispersion energy=       -0.0002685711 Hartrees.
 Nuclear repulsion after empirical dispersion term =      271.6377418465 Hartrees.
 Leave Link  301 at Mon Feb 20 21:06:33 2023, MaxMem=  6710886400 cpu:               1.1 elap:               0.1
 (Enter /data0/home/software/g16/l302.exe)
 NPDir=0 NMtPBC=     1 NCelOv=     1 NCel=       1 NClECP=     1 NCelD=      1
         NCelK=      1 NCelE2=     1 NClLst=     1 CellRange=     0.0.
 One-electron integrals computed using PRISM.
 NBasis=   231 RedAO= T EigKep=  1.52D-05  NBF=   231
 NBsUse=   231 1.00D-06 EigRej= -1.00D+00 NBFU=   231
 Precomputing XC quadrature grid using
 IXCGrd= 4 IRadAn=           5 IRanWt=          -1 IRanGd=           0 AccXCQ= 0.00D+00.
 Generated NRdTot=       0 NPtTot=           0 NUsed=           0 NTot=          32
 NSgBfM=   245   245   245   245   245 MxSgAt=    14 MxSgA2=    14.
 Leave Link  302 at Mon Feb 20 21:06:33 2023, MaxMem=  6710886400 cpu:               3.7 elap:               0.2
 (Enter /data0/home/software/g16/l303.exe)
 DipDrv:  MaxL=1.
 Leave Link  303 at Mon Feb 20 21:06:33 2023, MaxMem=  6710886400 cpu:               0.6 elap:               0.0
 (Enter /data0/home/software/g16/l401.exe)
 ExpMin= 4.38D-02 ExpMax= 8.59D+03 ExpMxC= 1.30D+03 IAcc=3 IRadAn=         5 AccDes= 0.00D+00
 Harris functional with IExCor= 1009 and IRadAn=       5 diagonalized for initial guess.
 HarFok:  IExCor= 1009 AccDes= 0.00D+00 IRadAn=         5 IDoV= 1 UseB2=F ITyADJ=14
 ICtDFT=  3500011 ScaDFX=  1.000000  1.000000  1.000000  1.000000
 FoFCou: FMM=F IPFlag=           0 FMFlag=      100000 FMFlg1=           0
         NFxFlg=           0 DoJE=T BraDBF=F KetDBF=T FulRan=T
         wScrn=  0.000000 ICntrl=       500 IOpCl=  0 I1Cent=   200000004 NGrid=           0
         NMat0=    1 NMatS0=      1 NMatT0=    0 NMatD0=    1 NMtDS0=    0 NMtDT0=    0
 Symmetry not used in FoFCou.
 Harris En= -324.539003751604    
 JPrj=0 DoOrth=F DoCkMO=F.
 Leave Link  401 at Mon Feb 20 21:06:33 2023, MaxMem=  6710886400 cpu:              10.9 elap:               0.5
 (Enter /data0/home/software/g16/l502.exe)
 Two-electron integral symmetry not used.
 Closed shell SCF:
 Using DIIS extrapolation, IDIIS=  1040.
 NGot=  6710886400 LenX=  6710758667 LenY=  6710698201
 Requested convergence on RMS density matrix=1.00D-08 within 128 cycles.
 Requested convergence on MAX density matrix=1.00D-06.
 Requested convergence on             energy=1.00D-06.
 No special actions if energy rises.
 Fock matrices will be formed incrementally for  20 cycles.

 Cycle   1  Pass 1  IDiag  1:
 FoFJK:  IHMeth= 1 ICntrl=       0 DoSepK=F KAlg= 0 I1Cent=           0 FoldK=F
 IRaf= 960000000 NMat=       1 IRICut=       1 DoRegI=T DoRafI=F ISym2E= 0 IDoP0=0 IntGTp=1.
 FoFCou: FMM=F IPFlag=           0 FMFlag=      100000 FMFlg1=           0
         NFxFlg=           0 DoJE=F BraDBF=F KetDBF=F FulRan=T
         wScrn=  0.000000 ICntrl=         0 IOpCl=  0 I1Cent=           0 NGrid=           0
         NMat0=    1 NMatS0=      1 NMatT0=    0 NMatD0=    1 NMtDS0=    0 NMtDT0=    0
 Symmetry not used in FoFCou.
 E= -324.478992911740    
 DIIS: error= 4.87D-02 at cycle   1 NSaved=   1.
 NSaved= 1 IEnMin= 1 EnMin= -324.478992911740     IErMin= 1 ErrMin= 4.87D-02
 ErrMax= 4.87D-02  0.00D+00 EMaxC= 1.00D-01 BMatC= 2.74D-01 BMatP= 2.74D-01
 IDIUse=3 WtCom= 5.13D-01 WtEn= 4.87D-01
 Coeff-Com:  0.100D+01
 Coeff-En:   0.100D+01
 Coeff:      0.100D+01
 Gap=     0.323 Goal=   None    Shift=    0.000
 GapD=    0.323 DampG=1.000 DampE=0.500 DampFc=0.5000 IDamp=-1.
 Damping current iteration by 5.00D-01
 RMSDP=1.66D-02 MaxDP=1.45D+00              OVMax= 1.93D-01

 Cycle   2  Pass 1  IDiag  1:
 RMSU=  7.78D-03    CP:  1.21D+00
 E= -324.571931002935     Delta-E=       -0.092938091195 Rises=F Damp=T
 DIIS: error= 7.33D-03 at cycle   2 NSaved=   2.
 NSaved= 2 IEnMin= 2 EnMin= -324.571931002935     IErMin= 2 ErrMin= 7.33D-03
 ErrMax= 7.33D-03  0.00D+00 EMaxC= 1.00D-01 BMatC= 2.02D-02 BMatP= 2.74D-01
 IDIUse=3 WtCom= 9.27D-01 WtEn= 7.33D-02
 Coeff-Com: -0.352D-01 0.104D+01
 Coeff-En:   0.000D+00 0.100D+01
 Coeff:     -0.326D-01 0.103D+01
 Gap=     0.374 Goal=   None    Shift=    0.000
 RMSDP=5.53D-03 MaxDP=4.92D-01 DE=-9.29D-02 OVMax= 1.26D-01

 Cycle   3  Pass 1  IDiag  1:
 RMSU=  2.27D-03    CP:  1.02D+00  4.45D-01
 E= -324.669403046691     Delta-E=       -0.097472043756 Rises=F Damp=F
 DIIS: error= 9.69D-03 at cycle   3 NSaved=   3.
 NSaved= 3 IEnMin= 3 EnMin= -324.669403046691     IErMin= 2 ErrMin= 7.33D-03
 ErrMax= 9.69D-03  0.00D+00 EMaxC= 1.00D-01 BMatC= 6.84D-03 BMatP= 2.02D-02
 IDIUse=3 WtCom= 9.03D-01 WtEn= 9.69D-02
 Coeff-Com: -0.867D-01 0.367D+00 0.720D+00
 Coeff-En:   0.000D+00 0.000D+00 0.100D+01
 Coeff:     -0.783D-01 0.332D+00 0.747D+00
 Gap=     0.316 Goal=   None    Shift=    0.000
 RMSDP=1.38D-03 MaxDP=1.08D-01 DE=-9.75D-02 OVMax= 2.05D-02

 Cycle   4  Pass 1  IDiag  1:
 RMSU=  7.63D-04    CP:  1.05D+00  5.85D-01  9.36D-01
 E= -324.673407646603     Delta-E=       -0.004004599912 Rises=F Damp=F
 DIIS: error= 2.59D-03 at cycle   4 NSaved=   4.
 NSaved= 4 IEnMin= 4 EnMin= -324.673407646603     IErMin= 4 ErrMin= 2.59D-03
 ErrMax= 2.59D-03  0.00D+00 EMaxC= 1.00D-01 BMatC= 1.16D-03 BMatP= 6.84D-03
 IDIUse=3 WtCom= 9.74D-01 WtEn= 2.59D-02
 Coeff-Com: -0.350D-01 0.994D-01 0.365D+00 0.570D+00
 Coeff-En:   0.000D+00 0.000D+00 0.112D+00 0.888D+00
 Coeff:     -0.341D-01 0.968D-01 0.359D+00 0.579D+00
 Gap=     0.316 Goal=   None    Shift=    0.000
 RMSDP=3.80D-04 MaxDP=3.04D-02 DE=-4.00D-03 OVMax= 1.34D-02

 Cycle   5  Pass 1  IDiag  1:
 RMSU=  1.13D-04    CP:  1.04D+00  5.50D-01  9.66D-01  7.66D-01
 E= -324.674367166623     Delta-E=       -0.000959520020 Rises=F Damp=F
 DIIS: error= 7.25D-04 at cycle   5 NSaved=   5.
 NSaved= 5 IEnMin= 5 EnMin= -324.674367166623     IErMin= 5 ErrMin= 7.25D-04
 ErrMax= 7.25D-04  0.00D+00 EMaxC= 1.00D-01 BMatC= 8.29D-05 BMatP= 1.16D-03
 IDIUse=3 WtCom= 9.93D-01 WtEn= 7.25D-03
 Coeff-Com: -0.108D-01 0.225D-01 0.122D+00 0.285D+00 0.581D+00
 Coeff-En:   0.000D+00 0.000D+00 0.000D+00 0.000D+00 0.100D+01
 Coeff:     -0.107D-01 0.223D-01 0.121D+00 0.283D+00 0.584D+00
 Gap=     0.315 Goal=   None    Shift=    0.000
 RMSDP=7.57D-05 MaxDP=3.85D-03 DE=-9.60D-04 OVMax= 3.62D-03

 Cycle   6  Pass 1  IDiag  1:
 RMSU=  4.42D-05    CP:  1.03D+00  5.46D-01  9.67D-01  8.26D-01  9.08D-01
 E= -324.674437426898     Delta-E=       -0.000070260275 Rises=F Damp=F
 DIIS: error= 1.88D-04 at cycle   6 NSaved=   6.
 NSaved= 6 IEnMin= 6 EnMin= -324.674437426898     IErMin= 6 ErrMin= 1.88D-04
 ErrMax= 1.88D-04  0.00D+00 EMaxC= 1.00D-01 BMatC= 6.00D-06 BMatP= 8.29D-05
 IDIUse=3 WtCom= 9.98D-01 WtEn= 1.88D-03
 Coeff-Com: -0.226D-02 0.281D-02 0.284D-01 0.855D-01 0.273D+00 0.612D+00
 Coeff-En:   0.000D+00 0.000D+00 0.000D+00 0.000D+00 0.000D+00 0.100D+01
 Coeff:     -0.226D-02 0.280D-02 0.283D-01 0.853D-01 0.273D+00 0.613D+00
 Gap=     0.315 Goal=   None    Shift=    0.000
 RMSDP=1.90D-05 MaxDP=1.06D-03 DE=-7.03D-05 OVMax= 8.33D-04

 Cycle   7  Pass 1  IDiag  1:
 RMSU=  1.19D-05    CP:  1.03D+00  5.45D-01  9.67D-01  8.33D-01  9.61D-01
                    CP:  1.11D+00
 E= -324.674443034827     Delta-E=       -0.000005607929 Rises=F Damp=F
 DIIS: error= 3.99D-05 at cycle   7 NSaved=   7.
 NSaved= 7 IEnMin= 7 EnMin= -324.674443034827     IErMin= 7 ErrMin= 3.99D-05
 ErrMax= 3.99D-05  0.00D+00 EMaxC= 1.00D-01 BMatC= 1.33D-07 BMatP= 6.00D-06
 IDIUse=1 WtCom= 1.00D+00 WtEn= 0.00D+00
 Coeff-Com:  0.108D-02-0.235D-02-0.110D-01-0.250D-01-0.457D-01 0.500D-01
 Coeff-Com:  0.103D+01
 Coeff:      0.108D-02-0.235D-02-0.110D-01-0.250D-01-0.457D-01 0.500D-01
 Coeff:      0.103D+01
 Gap=     0.315 Goal=   None    Shift=    0.000
 RMSDP=2.10D-05 MaxDP=1.58D-03 DE=-5.61D-06 OVMax= 2.17D-04

 Cycle   8  Pass 1  IDiag  1:
 RMSU=  3.60D-06    CP:  1.03D+00  5.43D-01  9.68D-01  8.43D-01  9.93D-01
                    CP:  1.28D+00  1.18D+00
 E= -324.674443245590     Delta-E=       -0.000000210763 Rises=F Damp=F
 DIIS: error= 9.11D-06 at cycle   8 NSaved=   8.
 NSaved= 8 IEnMin= 8 EnMin= -324.674443245590     IErMin= 8 ErrMin= 9.11D-06
 ErrMax= 9.11D-06  0.00D+00 EMaxC= 1.00D-01 BMatC= 1.35D-08 BMatP= 1.33D-07
 IDIUse=1 WtCom= 1.00D+00 WtEn= 0.00D+00
 Coeff-Com:  0.422D-03-0.881D-03-0.451D-02-0.106D-01-0.232D-01 0.319D-02
 Coeff-Com:  0.354D+00 0.681D+00
 Coeff:      0.422D-03-0.881D-03-0.451D-02-0.106D-01-0.232D-01 0.319D-02
 Coeff:      0.354D+00 0.681D+00
 Gap=     0.315 Goal=   None    Shift=    0.000
 RMSDP=2.42D-06 MaxDP=2.18D-04 DE=-2.11D-07 OVMax= 4.58D-05

 Cycle   9  Pass 1  IDiag  1:
 RMSU=  5.53D-07    CP:  1.03D+00  5.43D-01  9.68D-01  8.44D-01  9.94D-01
                    CP:  1.29D+00  1.20D+00  1.13D+00
 E= -324.674443257201     Delta-E=       -0.000000011611 Rises=F Damp=F
 DIIS: error= 6.70D-06 at cycle   9 NSaved=   9.
 NSaved= 9 IEnMin= 9 EnMin= -324.674443257201     IErMin= 9 ErrMin= 6.70D-06
 ErrMax= 6.70D-06  0.00D+00 EMaxC= 1.00D-01 BMatC= 1.99D-09 BMatP= 1.35D-08
 IDIUse=1 WtCom= 1.00D+00 WtEn= 0.00D+00
 Coeff-Com: -0.667D-04 0.150D-03 0.517D-03 0.113D-02-0.227D-03-0.723D-02
 Coeff-Com: -0.654D-01 0.241D+00 0.830D+00
 Coeff:     -0.667D-04 0.150D-03 0.517D-03 0.113D-02-0.227D-03-0.723D-02
 Coeff:     -0.654D-01 0.241D+00 0.830D+00
 Gap=     0.315 Goal=   None    Shift=    0.000
 RMSDP=1.49D-06 MaxDP=1.36D-04 DE=-1.16D-08 OVMax= 3.55D-05

 Cycle  10  Pass 1  IDiag  1:
 RMSU=  2.61D-07    CP:  1.03D+00  5.43D-01  9.68D-01  8.44D-01  9.94D-01
                    CP:  1.30D+00  1.21D+00  1.23D+00  1.12D+00
 E= -324.674443260100     Delta-E=       -0.000000002899 Rises=F Damp=F
 DIIS: error= 6.39D-07 at cycle  10 NSaved=  10.
 NSaved=10 IEnMin=10 EnMin= -324.674443260100     IErMin=10 ErrMin= 6.39D-07
 ErrMax= 6.39D-07  0.00D+00 EMaxC= 1.00D-01 BMatC= 1.29D-10 BMatP= 1.99D-09
 IDIUse=1 WtCom= 1.00D+00 WtEn= 0.00D+00
 Coeff-Com: -0.272D-04 0.603D-04 0.245D-03 0.608D-03 0.480D-03-0.196D-02
 Coeff-Com: -0.245D-01-0.621D-02 0.200D+00 0.831D+00
 Coeff:     -0.272D-04 0.603D-04 0.245D-03 0.608D-03 0.480D-03-0.196D-02
 Coeff:     -0.245D-01-0.621D-02 0.200D+00 0.831D+00
 Gap=     0.315 Goal=   None    Shift=    0.000
 RMSDP=1.85D-07 MaxDP=1.44D-05 DE=-2.90D-09 OVMax= 7.27D-06

 Cycle  11  Pass 1  IDiag  1:
 RMSU=  5.62D-08    CP:  1.03D+00  5.43D-01  9.68D-01  8.44D-01  9.94D-01
                    CP:  1.30D+00  1.21D+00  1.25D+00  1.18D+00  1.06D+00
 E= -324.674443260245     Delta-E=       -0.000000000144 Rises=F Damp=F
 DIIS: error= 5.09D-07 at cycle  11 NSaved=  11.
 NSaved=11 IEnMin=11 EnMin= -324.674443260245     IErMin=11 ErrMin= 5.09D-07
 ErrMax= 5.09D-07  0.00D+00 EMaxC= 1.00D-01 BMatC= 3.32D-11 BMatP= 1.29D-10
 IDIUse=1 WtCom= 1.00D+00 WtEn= 0.00D+00
 Coeff-Com: -0.329D-05 0.736D-05 0.464D-04 0.144D-03 0.199D-03 0.559D-04
 Coeff-Com: -0.258D-02-0.465D-01-0.137D-01 0.419D+00 0.643D+00
 Coeff:     -0.329D-05 0.736D-05 0.464D-04 0.144D-03 0.199D-03 0.559D-04
 Coeff:     -0.258D-02-0.465D-01-0.137D-01 0.419D+00 0.643D+00
 Gap=     0.315 Goal=   None    Shift=    0.000
 RMSDP=7.39D-08 MaxDP=6.34D-06 DE=-1.44D-10 OVMax= 1.77D-06

 Cycle  12  Pass 1  IDiag  1:
 RMSU=  2.27D-08    CP:  1.03D+00  5.43D-01  9.69D-01  8.44D-01  9.94D-01
                    CP:  1.30D+00  1.21D+00  1.25D+00  1.20D+00  1.12D+00
                    CP:  1.11D+00
 E= -324.674443260276     Delta-E=       -0.000000000031 Rises=F Damp=F
 DIIS: error= 7.25D-08 at cycle  12 NSaved=  12.
 NSaved=12 IEnMin=12 EnMin= -324.674443260276     IErMin=12 ErrMin= 7.25D-08
 ErrMax= 7.25D-08  0.00D+00 EMaxC= 1.00D-01 BMatC= 1.22D-12 BMatP= 3.32D-11
 IDIUse=1 WtCom= 1.00D+00 WtEn= 0.00D+00
 Coeff-Com:  0.218D-05-0.457D-05-0.959D-05-0.199D-04-0.110D-04 0.316D-03
 Coeff-Com:  0.195D-02-0.120D-01-0.175D-01 0.176D-01 0.109D+00 0.900D+00
 Coeff:      0.218D-05-0.457D-05-0.959D-05-0.199D-04-0.110D-04 0.316D-03
 Coeff:      0.195D-02-0.120D-01-0.175D-01 0.176D-01 0.109D+00 0.900D+00
 Gap=     0.315 Goal=   None    Shift=    0.000
 RMSDP=2.46D-08 MaxDP=1.80D-06 DE=-3.09D-11 OVMax= 7.66D-07

 Cycle  13  Pass 1  IDiag  1:
 RMSU=  8.33D-09    CP:  1.03D+00  5.43D-01  9.69D-01  8.44D-01  9.94D-01
                    CP:  1.30D+00  1.21D+00  1.25D+00  1.21D+00  1.13D+00
                    CP:  1.22D+00  1.17D+00
 E= -324.674443260272     Delta-E=        0.000000000003 Rises=F Damp=F
 DIIS: error= 5.63D-08 at cycle  13 NSaved=  13.
 NSaved=13 IEnMin=12 EnMin= -324.674443260276     IErMin=13 ErrMin= 5.63D-08
 ErrMax= 5.63D-08  0.00D+00 EMaxC= 1.00D-01 BMatC= 3.58D-13 BMatP= 1.22D-12
 IDIUse=1 WtCom= 1.00D+00 WtEn= 0.00D+00
 Coeff-Com:  0.126D-05-0.270D-05-0.682D-05-0.177D-04-0.180D-04 0.163D-03
 Coeff-Com:  0.106D-02-0.275D-02-0.629D-02-0.209D-01-0.383D-02 0.450D+00
 Coeff-Com:  0.582D+00
 Coeff:      0.126D-05-0.270D-05-0.682D-05-0.177D-04-0.180D-04 0.163D-03
 Coeff:      0.106D-02-0.275D-02-0.629D-02-0.209D-01-0.383D-02 0.450D+00
 Coeff:      0.582D+00
 Gap=     0.315 Goal=   None    Shift=    0.000
 RMSDP=4.81D-09 MaxDP=3.04D-07 DE= 3.41D-12 OVMax= 2.83D-07

 SCF Done:  E(RM062X) =  -324.674443260     A.U. after   13 cycles
            NFock= 13  Conv=0.48D-08     -V/T= 2.0042
 KE= 3.233201744948D+02 PE=-1.300412670692D+03 EE= 3.807803110908D+02
 Leave Link  502 at Mon Feb 20 21:06:46 2023, MaxMem=  6710886400 cpu:             305.5 elap:              12.8
 (Enter /data0/home/software/g16/l601.exe)
 Copying SCF densities to generalized density rwf, IOpCl= 0 IROHF=0.

 **********************************************************************

            Population analysis using the SCF density.

 **********************************************************************

 Alpha  occ. eigenvalues --  -19.57743 -14.77032 -10.59986 -10.59935 -10.58088
 Alpha  occ. eigenvalues --  -10.57112 -10.57100  -1.09176  -1.06818  -0.92247
 Alpha  occ. eigenvalues --   -0.87771  -0.73448  -0.72957  -0.62515  -0.56835
 Alpha  occ. eigenvalues --   -0.56629  -0.56008  -0.51538  -0.49338  -0.48958
 Alpha  occ. eigenvalues --   -0.44475  -0.43902  -0.36480  -0.35852  -0.34289
 Alpha  occ. eigenvalues --   -0.33531
 Alpha virt. eigenvalues --   -0.01992  -0.00705   0.00345   0.01942   0.02495
 Alpha virt. eigenvalues --    0.04532   0.04575   0.05000   0.06201   0.07954
 Alpha virt. eigenvalues --    0.08490   0.09208   0.09397   0.12459   0.13131
 Alpha virt. eigenvalues --    0.13370   0.13695   0.14643   0.14856   0.16864
 Alpha virt. eigenvalues --    0.17545   0.19395   0.19739   0.20268   0.21237
 Alpha virt. eigenvalues --    0.21535   0.21636   0.22695   0.23267   0.23690
 Alpha virt. eigenvalues --    0.24378   0.24940   0.25822   0.28089   0.28750
 Alpha virt. eigenvalues --    0.31142   0.32430   0.33073   0.33518   0.34788
 Alpha virt. eigenvalues --    0.34997   0.38977   0.45296   0.48763   0.50083
 Alpha virt. eigenvalues --    0.50463   0.53163   0.53338   0.54165   0.54674
 Alpha virt. eigenvalues --    0.57598   0.58000   0.60736   0.62450   0.62730
 Alpha virt. eigenvalues --    0.63400   0.64730   0.65737   0.66040   0.66590
 Alpha virt. eigenvalues --    0.67956   0.70128   0.71883   0.74955   0.76517
 Alpha virt. eigenvalues --    0.78741   0.79403   0.81447   0.81880   0.82809
 Alpha virt. eigenvalues --    0.83122   0.83356   0.85841   0.86278   0.89818
 Alpha virt. eigenvalues --    0.90323   0.91388   0.92740   0.97625   1.02294
 Alpha virt. eigenvalues --    1.04751   1.07070   1.15026   1.16092   1.16905
 Alpha virt. eigenvalues --    1.18938   1.19963   1.20766   1.25942   1.27338
 Alpha virt. eigenvalues --    1.30280   1.33615   1.34201   1.35416   1.35799
 Alpha virt. eigenvalues --    1.36993   1.37765   1.39243   1.44709   1.48608
 Alpha virt. eigenvalues --    1.48982   1.51312   1.52320   1.53255   1.54485
 Alpha virt. eigenvalues --    1.56542   1.62768   1.64707   1.67159   1.71866
 Alpha virt. eigenvalues --    1.78209   1.81845   1.82546   1.83139   1.89416
 Alpha virt. eigenvalues --    1.93214   1.98282   2.00938   2.06585   2.09980
 Alpha virt. eigenvalues --    2.13945   2.16410   2.23045   2.25437   2.38567
 Alpha virt. eigenvalues --    2.40195   2.46558   2.47001   2.56112   2.59784
 Alpha virt. eigenvalues --    2.63175   2.66060   2.67331   2.70071   2.74421
 Alpha virt. eigenvalues --    2.75235   2.75288   2.80976   2.83840   2.85979
 Alpha virt. eigenvalues --    2.86565   2.88128   2.95170   3.00106   3.05726
 Alpha virt. eigenvalues --    3.06993   3.08513   3.10502   3.12178   3.13434
 Alpha virt. eigenvalues --    3.20966   3.21595   3.27302   3.27737   3.27927
 Alpha virt. eigenvalues --    3.29137   3.35740   3.40915   3.44057   3.45273
 Alpha virt. eigenvalues --    3.53566   3.54565   3.55387   3.56412   3.56523
 Alpha virt. eigenvalues --    3.58143   3.64076   3.64913   3.71006   3.71812
 Alpha virt. eigenvalues --    3.75076   3.78945   3.82009   3.86056   3.90059
 Alpha virt. eigenvalues --    3.94648   3.95332   3.98296   4.02056   4.45908
 Alpha virt. eigenvalues --    4.49463   4.53877   4.80214   4.94256   4.98069
 Alpha virt. eigenvalues --    5.03011   5.14488   5.17437   5.22293   5.56340
 Alpha virt. eigenvalues --    5.59418   5.60809   6.01290   6.83982   6.85809
 Alpha virt. eigenvalues --    6.93091   6.98713   7.17079  23.81827  24.04089
 Alpha virt. eigenvalues --   24.05070  24.08283  24.12496  35.72819  50.05034
          Condensed to atoms (all electrons):
               1          2          3          4          5          6
     1  C    6.261501  -0.183994  -0.004727   0.161676  -0.685323   0.145719
     2  C   -0.183994   5.254627   0.461440   0.127842  -0.093304   0.128202
     3  C   -0.004727   0.461440   4.885126   0.423785   0.146016  -0.076697
     4  C    0.161676   0.127842   0.423785   5.875446  -1.014452   0.133966
     5  C   -0.685323  -0.093304   0.146016  -1.014452   7.135933   0.178399
     6  N    0.145719   0.128202  -0.076697   0.133966   0.178399   6.938039
     7  H   -0.000992  -0.010499   0.367164  -0.011608   0.001246  -0.000263
     8  H    0.456175  -0.069681   0.017395  -0.005710   0.005316  -0.066475
     9  H   -0.022785   0.371444  -0.017984   0.004438   0.000844   0.006844
    10  H   -0.000218   0.004371  -0.021484   0.369484  -0.015698   0.006430
    11  H    0.007909  -0.009052   0.018559  -0.087545   0.471977  -0.064551
    12  O   -0.005509  -0.000226   0.001110   0.006634   0.004955  -0.016778
    13  H   -0.003342   0.007342  -0.002432   0.014062  -0.015935   0.016812
    14  H   -0.002575  -0.003781   0.000566  -0.010590   0.006677   0.017233
               7          8          9         10         11         12
     1  C   -0.000992   0.456175  -0.022785  -0.000218   0.007909  -0.005509
     2  C   -0.010499  -0.069681   0.371444   0.004371  -0.009052  -0.000226
     3  C    0.367164   0.017395  -0.017984  -0.021484   0.018559   0.001110
     4  C   -0.011608  -0.005710   0.004438   0.369484  -0.087545   0.006634
     5  C    0.001246   0.005316   0.000844  -0.015698   0.471977   0.004955
     6  N   -0.000263  -0.066475   0.006844   0.006430  -0.064551  -0.016778
     7  H    0.526693  -0.000270  -0.004699  -0.004734  -0.000255  -0.000005
     8  H   -0.000270   0.522183  -0.002256   0.000091  -0.000134   0.000133
     9  H   -0.004699  -0.002256   0.526060  -0.000171   0.000087   0.000037
    10  H   -0.004734   0.000091  -0.000171   0.525549  -0.002060   0.000086
    11  H   -0.000255  -0.000134   0.000087  -0.002060   0.510224  -0.000003
    12  O   -0.000005   0.000133   0.000037   0.000086  -0.000003   7.891126
    13  H    0.000002   0.000100  -0.000000  -0.000013   0.000270   0.351698
    14  H    0.000000  -0.000062   0.000002   0.000004   0.000059   0.328331
              13         14
     1  C   -0.003342  -0.002575
     2  C    0.007342  -0.003781
     3  C   -0.002432   0.000566
     4  C    0.014062  -0.010590
     5  C   -0.015935   0.006677
     6  N    0.016812   0.017233
     7  H    0.000002   0.000000
     8  H    0.000100  -0.000062
     9  H   -0.000000   0.000002
    10  H   -0.000013   0.000004
    11  H    0.000270   0.000059
    12  O    0.351698   0.328331
    13  H    0.325307  -0.046812
    14  H   -0.046812   0.447682
 Mulliken charges:
               1
     1  C   -0.123516
     2  C    0.015270
     3  C   -0.197839
     4  C    0.012572
     5  C   -0.126652
     6  N   -0.346880
     7  H    0.138218
     8  H    0.143194
     9  H    0.138137
    10  H    0.138362
    11  H    0.154513
    12  O   -0.561588
    13  H    0.352943
    14  H    0.263265
 Sum of Mulliken charges =  -0.00000
 Mulliken charges with hydrogens summed into heavy atoms:
               1
     1  C    0.019678
     2  C    0.153407
     3  C   -0.059621
     4  C    0.150934
     5  C    0.027861
     6  N   -0.346880
    12  O    0.054620
         Mulliken charges condensed to fragments:
      1     -0.054620
      2      0.054620
 Electronic spatial extent (au):  <R**2>=          96416.4751
 Charge=             -0.0000 electrons
 Dipole moment (field-independent basis, Debye):
    X=             -1.2936    Y=              0.1280    Z=             -5.0917  Tot=              5.2550
 Quadrupole moment (field-independent basis, Debye-Ang):
   XX=            -63.1051   YY=            -37.7190   ZZ=           -126.3870
   XY=            -23.6069   XZ=            -64.6786   YZ=            -94.7264
 Traceless Quadrupole moment (field-independent basis, Debye-Ang):
   XX=             12.6319   YY=             38.0181   ZZ=            -50.6500
   XY=            -23.6069   XZ=            -64.6786   YZ=            -94.7264
 Octapole moment (field-independent basis, Debye-Ang**2):
  XXX=          -1511.0854  YYY=          -2279.8501  ZZZ=          -2010.5258  XYY=           -852.3581
  XXY=          -1191.3062  XXZ=          -1059.6900  XZZ=          -1413.9495  YZZ=          -2382.4819
  YYZ=          -2056.0661  XYZ=          -1209.1425
 Hexadecapole moment (field-independent basis, Debye-Ang**3):
 XXXX=         -28054.0145 YYYY=         -88123.4782 ZZZZ=         -27202.7546 XXXY=         -28648.3406
 XXXZ=         -17603.4314 YYYX=         -31798.0316 YYYZ=         -49513.3357 ZZZX=         -21824.4087
 ZZZY=         -38121.5077 XXYY=         -26744.9592 XXZZ=         -17872.0277 YYZZ=         -47077.0346
 XXYZ=         -19948.3478 YYXZ=         -25536.5019 ZZXY=         -26665.8861
 N-N= 2.716377418465D+02 E-N=-1.300412671273D+03  KE= 3.233201744948D+02
 No NMR shielding tensors so no spin-rotation constants.
 Leave Link  601 at Mon Feb 20 21:06:46 2023, MaxMem=  6710886400 cpu:               1.9 elap:               0.1
 (Enter /data0/home/software/g16/l122.exe)
 CPIOFr:  IOpCl= 0 IRwI=-1 IRwCP=  731 ICalc= -1 LCPTot=       83644 Len1MO=      218311 IndFrg=       83644
 CPIOFr:  IOpCl= 0 IRwI=-1 IRwCP=  731 ICalc=  0 LCPTot=       83644 Len1MO=      218311 IndFrg=      301955
 Counterpoise: doing calculation for fragment   1 using the basis set of the full-system, NewBq=T
 Leave Link  122 at Mon Feb 20 21:06:46 2023, MaxMem=  6710886400 cpu:               0.1 elap:               0.0
 (Enter /data0/home/software/g16/l301.exe)
 Basis read from rwf:  (5D, 7F)
 No pseudopotential information found on rwf file.
   231 basis functions,   350 primitive gaussians,   245 cartesian basis functions
    21 alpha electrons       21 beta electrons
       nuclear repulsion energy       205.2403017202 Hartrees.
 IExCor= 4336 DFT=T Ex+Corr=M062X ExCW=0 ScaHFX=  0.540000
 ScaDFX=  1.000000  1.000000  1.000000  1.000000 ScalE2=  1.000000  1.000000
 IRadAn=      5 IRanWt=     -1 IRanGd=            0 ICorTp=0 IEmpDi=131
 NAtoms=   14 NActive=   14 NUniq=   14 SFac= 1.00D+00 NAtFMM=   60 NAOKFM=F Big=F
 Integral buffers will be    131072 words long.
 Raffenetti 2 integral format.
 Two-electron integral symmetry is turned off.
 R6Disp:  Grimme-D3 Dispersion energy=       -0.0000989304 Hartrees.
 Nuclear repulsion after empirical dispersion term =      205.2402027898 Hartrees.
 No density basis found on file   718.
 Leave Link  301 at Mon Feb 20 21:06:46 2023, MaxMem=  6710886400 cpu:               1.3 elap:               0.1
 (Enter /data0/home/software/g16/l302.exe)
 NPDir=0 NMtPBC=     1 NCelOv=     1 NCel=       1 NClECP=     1 NCelD=      1
         NCelK=      1 NCelE2=     1 NClLst=     1 CellRange=     0.0.
 One-electron integrals computed using PRISM.
 NBasis=   231 RedAO= T EigKep=  1.52D-05  NBF=   231
 NBsUse=   231 1.00D-06 EigRej= -1.00D+00 NBFU=   231
 Precomputing XC quadrature grid using
 IXCGrd= 4 IRadAn=           5 IRanWt=          -1 IRanGd=           0 AccXCQ= 0.00D+00.
 Generated NRdTot=       0 NPtTot=           0 NUsed=           0 NTot=          32
 NSgBfM=   245   245   245   245   245 MxSgAt=    14 MxSgA2=    14.
 Leave Link  302 at Mon Feb 20 21:06:46 2023, MaxMem=  6710886400 cpu:               3.7 elap:               0.2
 (Enter /data0/home/software/g16/l303.exe)
 DipDrv:  MaxL=1.
 Leave Link  303 at Mon Feb 20 21:06:46 2023, MaxMem=  6710886400 cpu:               0.6 elap:               0.0
 (Enter /data0/home/software/g16/l401.exe)
 ExpMin= 4.38D-02 ExpMax= 8.59D+03 ExpMxC= 1.30D+03 IAcc=3 IRadAn=         5 AccDes= 0.00D+00
 Harris functional with IExCor= 1009 and IRadAn=       5 diagonalized for initial guess.
 HarFok:  IExCor= 1009 AccDes= 0.00D+00 IRadAn=         5 IDoV= 1 UseB2=F ITyADJ=14
 ICtDFT=  3500011 ScaDFX=  1.000000  1.000000  1.000000  1.000000
 FoFCou: FMM=F IPFlag=           0 FMFlag=      100000 FMFlg1=           0
         NFxFlg=           0 DoJE=T BraDBF=F KetDBF=T FulRan=T
         wScrn=  0.000000 ICntrl=       500 IOpCl=  0 I1Cent=   200000004 NGrid=           0
         NMat0=    1 NMatS0=      1 NMatT0=    0 NMatD0=    1 NMtDS0=    0 NMtDT0=    0
 Symmetry not used in FoFCou.
 Harris En= -248.119106391766    
 JPrj=0 DoOrth=F DoCkMO=F.
 Leave Link  401 at Mon Feb 20 21:06:47 2023, MaxMem=  6710886400 cpu:              11.2 elap:               0.5
 (Enter /data0/home/software/g16/l502.exe)
 Two-electron integral symmetry not used.
 Closed shell SCF:
 Using DIIS extrapolation, IDIIS=  1040.
 NGot=  6710886400 LenX=  6710758667 LenY=  6710698201
 Requested convergence on RMS density matrix=1.00D-08 within 128 cycles.
 Requested convergence on MAX density matrix=1.00D-06.
 Requested convergence on             energy=1.00D-06.
 No special actions if energy rises.
 Fock matrices will be formed incrementally for  20 cycles.

 Cycle   1  Pass 1  IDiag  1:
 FoFJK:  IHMeth= 1 ICntrl=       0 DoSepK=F KAlg= 0 I1Cent=           0 FoldK=F
 IRaf= 960000000 NMat=       1 IRICut=       1 DoRegI=T DoRafI=F ISym2E= 0 IDoP0=0 IntGTp=1.
 FoFCou: FMM=F IPFlag=           0 FMFlag=      100000 FMFlg1=           0
         NFxFlg=           0 DoJE=F BraDBF=F KetDBF=F FulRan=T
         wScrn=  0.000000 ICntrl=         0 IOpCl=  0 I1Cent=           0 NGrid=           0
         NMat0=    1 NMatS0=      1 NMatT0=    0 NMatD0=    1 NMtDS0=    0 NMtDT0=    0
 Symmetry not used in FoFCou.
 E= -248.122220975785    
 DIIS: error= 2.97D-02 at cycle   1 NSaved=   1.
 NSaved= 1 IEnMin= 1 EnMin= -248.122220975785     IErMin= 1 ErrMin= 2.97D-02
 ErrMax= 2.97D-02  0.00D+00 EMaxC= 1.00D-01 BMatC= 1.51D-01 BMatP= 1.51D-01
 IDIUse=3 WtCom= 7.03D-01 WtEn= 2.97D-01
 Coeff-Com:  0.100D+01
 Coeff-En:   0.100D+01
 Coeff:      0.100D+01
 Gap=     0.340 Goal=   None    Shift=    0.000
 GapD=    0.340 DampG=1.000 DampE=0.500 DampFc=0.5000 IDamp=-1.
 Damping current iteration by 5.00D-01
 RMSDP=4.03D-03 MaxDP=1.17D-01              OVMax= 1.38D-01

 Cycle   2  Pass 1  IDiag  1:
 RMSU=  2.01D-03    CP:  9.87D-01
 E= -248.186081515188     Delta-E=       -0.063860539403 Rises=F Damp=T
 DIIS: error= 7.20D-03 at cycle   2 NSaved=   2.
 NSaved= 2 IEnMin= 2 EnMin= -248.186081515188     IErMin= 2 ErrMin= 7.20D-03
 ErrMax= 7.20D-03  0.00D+00 EMaxC= 1.00D-01 BMatC= 1.47D-02 BMatP= 1.51D-01
 IDIUse=3 WtCom= 9.28D-01 WtEn= 7.20D-02
 Coeff-Com: -0.224D+00 0.122D+01
 Coeff-En:   0.000D+00 0.100D+01
 Coeff:     -0.208D+00 0.121D+01
 Gap=     0.338 Goal=   None    Shift=    0.000
 RMSDP=1.17D-03 MaxDP=3.68D-02 DE=-6.39D-02 OVMax= 7.62D-02

 Cycle   3  Pass 1  IDiag  1:
 RMSU=  1.14D-03    CP:  9.65D-01  1.07D+00
 E= -248.242366508938     Delta-E=       -0.056284993750 Rises=F Damp=F
 DIIS: error= 4.06D-03 at cycle   3 NSaved=   3.
 NSaved= 3 IEnMin= 3 EnMin= -248.242366508938     IErMin= 3 ErrMin= 4.06D-03
 ErrMax= 4.06D-03  0.00D+00 EMaxC= 1.00D-01 BMatC= 2.68D-03 BMatP= 1.47D-02
 IDIUse=3 WtCom= 9.59D-01 WtEn= 4.06D-02
 Coeff-Com: -0.135D+00 0.398D+00 0.737D+00
 Coeff-En:   0.000D+00 0.000D+00 0.100D+01
 Coeff:     -0.130D+00 0.382D+00 0.748D+00
 Gap=     0.325 Goal=   None    Shift=    0.000
 RMSDP=2.75D-04 MaxDP=9.54D-03 DE=-5.63D-02 OVMax= 2.29D-02

 Cycle   4  Pass 1  IDiag  1:
 RMSU=  2.60D-04    CP:  9.58D-01  1.05D+00  1.01D+00
 E= -248.244690496460     Delta-E=       -0.002323987522 Rises=F Damp=F
 DIIS: error= 1.78D-03 at cycle   4 NSaved=   4.
 NSaved= 4 IEnMin= 4 EnMin= -248.244690496460     IErMin= 4 ErrMin= 1.78D-03
 ErrMax= 1.78D-03  0.00D+00 EMaxC= 1.00D-01 BMatC= 2.63D-04 BMatP= 2.68D-03
 IDIUse=3 WtCom= 9.82D-01 WtEn= 1.78D-02
 Coeff-Com: -0.466D-01 0.115D+00 0.317D+00 0.614D+00
 Coeff-En:   0.000D+00 0.000D+00 0.000D+00 0.100D+01
 Coeff:     -0.457D-01 0.113D+00 0.312D+00 0.621D+00
 Gap=     0.317 Goal=   None    Shift=    0.000
 RMSDP=8.48D-05 MaxDP=2.61D-03 DE=-2.32D-03 OVMax= 8.91D-03

 Cycle   5  Pass 1  IDiag  1:
 RMSU=  5.82D-05    CP:  9.59D-01  1.06D+00  9.94D-01  7.93D-01
 E= -248.244927263185     Delta-E=       -0.000236766725 Rises=F Damp=F
 DIIS: error= 6.66D-04 at cycle   5 NSaved=   5.
 NSaved= 5 IEnMin= 5 EnMin= -248.244927263185     IErMin= 5 ErrMin= 6.66D-04
 ErrMax= 6.66D-04  0.00D+00 EMaxC= 1.00D-01 BMatC= 3.77D-05 BMatP= 2.63D-04
 IDIUse=3 WtCom= 9.93D-01 WtEn= 6.66D-03
 Coeff-Com: -0.120D-01 0.244D-01 0.942D-01 0.319D+00 0.574D+00
 Coeff-En:   0.000D+00 0.000D+00 0.000D+00 0.711D-01 0.929D+00
 Coeff:     -0.119D-01 0.242D-01 0.936D-01 0.318D+00 0.576D+00
 Gap=     0.317 Goal=   None    Shift=    0.000
 RMSDP=4.77D-05 MaxDP=1.29D-03 DE=-2.37D-04 OVMax= 2.48D-03

 Cycle   6  Pass 1  IDiag  1:
 RMSU=  2.63D-05    CP:  9.58D-01  1.04D+00  1.01D+00  8.37D-01  7.79D-01
 E= -248.244965380323     Delta-E=       -0.000038117138 Rises=F Damp=F
 DIIS: error= 1.30D-04 at cycle   6 NSaved=   6.
 NSaved= 6 IEnMin= 6 EnMin= -248.244965380323     IErMin= 6 ErrMin= 1.30D-04
 ErrMax= 1.30D-04  0.00D+00 EMaxC= 1.00D-01 BMatC= 1.69D-06 BMatP= 3.77D-05
 IDIUse=3 WtCom= 9.99D-01 WtEn= 1.30D-03
 Coeff-Com: -0.380D-02 0.699D-02 0.317D-01 0.122D+00 0.269D+00 0.574D+00
 Coeff-En:   0.000D+00 0.000D+00 0.000D+00 0.000D+00 0.000D+00 0.100D+01
 Coeff:     -0.379D-02 0.699D-02 0.316D-01 0.122D+00 0.269D+00 0.575D+00
 Gap=     0.317 Goal=   None    Shift=    0.000
 RMSDP=6.25D-06 MaxDP=2.41D-04 DE=-3.81D-05 OVMax= 6.01D-04

 Cycle   7  Pass 1  IDiag  1:
 RMSU=  4.99D-06    CP:  9.59D-01  1.04D+00  1.01D+00  8.32D-01  8.23D-01
                    CP:  1.04D+00
 E= -248.244966795883     Delta-E=       -0.000001415560 Rises=F Damp=F
 DIIS: error= 3.13D-05 at cycle   7 NSaved=   7.
 NSaved= 7 IEnMin= 7 EnMin= -248.244966795883     IErMin= 7 ErrMin= 3.13D-05
 ErrMax= 3.13D-05  0.00D+00 EMaxC= 1.00D-01 BMatC= 1.83D-07 BMatP= 1.69D-06
 IDIUse=1 WtCom= 1.00D+00 WtEn= 0.00D+00
 Coeff-Com:  0.152D-02-0.332D-02-0.103D-01-0.312D-01-0.320D-01 0.226D+00
 Coeff-Com:  0.849D+00
 Coeff:      0.152D-02-0.332D-02-0.103D-01-0.312D-01-0.320D-01 0.226D+00
 Coeff:      0.849D+00
 Gap=     0.317 Goal=   None    Shift=    0.000
 RMSDP=7.29D-06 MaxDP=2.20D-04 DE=-1.42D-06 OVMax= 1.26D-04

 Cycle   8  Pass 1  IDiag  1:
 RMSU=  1.58D-06    CP:  9.58D-01  1.04D+00  1.01D+00  8.37D-01  8.39D-01
                    CP:  1.17D+00  9.58D-01
 E= -248.244966961967     Delta-E=       -0.000000166084 Rises=F Damp=F
 DIIS: error= 5.66D-06 at cycle   8 NSaved=   8.
 NSaved= 8 IEnMin= 8 EnMin= -248.244966961967     IErMin= 8 ErrMin= 5.66D-06
 ErrMax= 5.66D-06  0.00D+00 EMaxC= 1.00D-01 BMatC= 3.33D-09 BMatP= 1.83D-07
 IDIUse=1 WtCom= 1.00D+00 WtEn= 0.00D+00
 Coeff-Com:  0.383D-03-0.822D-03-0.272D-02-0.930D-02-0.139D-01 0.373D-01
 Coeff-Com:  0.131D+00 0.858D+00
 Coeff:      0.383D-03-0.822D-03-0.272D-02-0.930D-02-0.139D-01 0.373D-01
 Coeff:      0.131D+00 0.858D+00
 Gap=     0.317 Goal=   None    Shift=    0.000
 RMSDP=5.66D-07 MaxDP=1.64D-05 DE=-1.66D-07 OVMax= 2.27D-05

 Cycle   9  Pass 1  IDiag  1:
 RMSU=  3.05D-07    CP:  9.58D-01  1.04D+00  1.01D+00  8.37D-01  8.38D-01
                    CP:  1.18D+00  9.67D-01  1.11D+00
 E= -248.244966965278     Delta-E=       -0.000000003311 Rises=F Damp=F
 DIIS: error= 2.84D-06 at cycle   9 NSaved=   9.
 NSaved= 9 IEnMin= 9 EnMin= -248.244966965278     IErMin= 9 ErrMin= 2.84D-06
 ErrMax= 2.84D-06  0.00D+00 EMaxC= 1.00D-01 BMatC= 1.01D-09 BMatP= 3.33D-09
 IDIUse=1 WtCom= 1.00D+00 WtEn= 0.00D+00
 Coeff-Com: -0.713D-04 0.158D-03 0.467D-03 0.741D-03-0.756D-03-0.101D-01
 Coeff-Com: -0.695D-01 0.362D+00 0.717D+00
 Coeff:     -0.713D-04 0.158D-03 0.467D-03 0.741D-03-0.756D-03-0.101D-01
 Coeff:     -0.695D-01 0.362D+00 0.717D+00
 Gap=     0.317 Goal=   None    Shift=    0.000
 RMSDP=1.97D-07 MaxDP=4.38D-06 DE=-3.31D-09 OVMax= 1.81D-05

 Cycle  10  Pass 1  IDiag  1:
 RMSU=  1.26D-07    CP:  9.58D-01  1.04D+00  1.01D+00  8.37D-01  8.37D-01
                    CP:  1.18D+00  9.64D-01  1.16D+00  1.02D+00
 E= -248.244966966520     Delta-E=       -0.000000001243 Rises=F Damp=F
 DIIS: error= 7.69D-07 at cycle  10 NSaved=  10.
 NSaved=10 IEnMin=10 EnMin= -248.244966966520     IErMin=10 ErrMin= 7.69D-07
 ErrMax= 7.69D-07  0.00D+00 EMaxC= 1.00D-01 BMatC= 6.37D-11 BMatP= 1.01D-09
 IDIUse=1 WtCom= 1.00D+00 WtEn= 0.00D+00
 Coeff-Com: -0.993D-05 0.233D-04 0.118D-03 0.281D-03 0.706D-03 0.843D-03
 Coeff-Com: -0.449D-02-0.132D+00 0.640D-02 0.113D+01
 Coeff:     -0.993D-05 0.233D-04 0.118D-03 0.281D-03 0.706D-03 0.843D-03
 Coeff:     -0.449D-02-0.132D+00 0.640D-02 0.113D+01
 Gap=     0.317 Goal=   None    Shift=    0.000
 RMSDP=6.15D-08 MaxDP=1.65D-06 DE=-1.24D-09 OVMax= 5.16D-06

 Cycle  11  Pass 1  IDiag  1:
 RMSU=  3.56D-08    CP:  9.58D-01  1.04D+00  1.01D+00  8.37D-01  8.37D-01
                    CP:  1.18D+00  9.62D-01  1.18D+00  1.14D+00  1.16D+00
 E= -248.244966966604     Delta-E=       -0.000000000084 Rises=F Damp=F
 DIIS: error= 9.76D-08 at cycle  11 NSaved=  11.
 NSaved=11 IEnMin=11 EnMin= -248.244966966604     IErMin=11 ErrMin= 9.76D-08
 ErrMax= 9.76D-08  0.00D+00 EMaxC= 1.00D-01 BMatC= 9.26D-13 BMatP= 6.37D-11
 IDIUse=1 WtCom= 1.00D+00 WtEn= 0.00D+00
 Coeff-Com:  0.215D-05-0.439D-05-0.441D-05 0.108D-06 0.809D-04 0.742D-03
 Coeff-Com:  0.180D-02-0.257D-01-0.137D-01 0.739D-01 0.963D+00
 Coeff:      0.215D-05-0.439D-05-0.441D-05 0.108D-06 0.809D-04 0.742D-03
 Coeff:      0.180D-02-0.257D-01-0.137D-01 0.739D-01 0.963D+00
 Gap=     0.317 Goal=   None    Shift=    0.000
 RMSDP=9.27D-09 MaxDP=2.07D-07 DE=-8.38D-11 OVMax= 7.35D-07

 SCF Done:  E(RM062X) =  -248.244966967     A.U. after   11 cycles
            NFock= 11  Conv=0.93D-08     -V/T= 2.0048
 KE= 2.470660791102D+02 PE=-9.869563833860D+02 EE= 2.864051345194D+02
 Leave Link  502 at Mon Feb 20 21:06:59 2023, MaxMem=  6710886400 cpu:             284.7 elap:              11.9
 (Enter /data0/home/software/g16/l601.exe)
 Copying SCF densities to generalized density rwf, IOpCl= 0 IROHF=0.

 **********************************************************************

            Population analysis using the SCF density.

 **********************************************************************

 Alpha  occ. eigenvalues --  -14.75054 -10.58346 -10.58335 -10.56667 -10.55713
 Alpha  occ. eigenvalues --  -10.55706  -1.04993  -0.90698  -0.86242  -0.71825
 Alpha  occ. eigenvalues --   -0.71447  -0.60869  -0.55183  -0.54693  -0.50128
 Alpha  occ. eigenvalues --   -0.47401  -0.47255  -0.43044  -0.34792  -0.32584
 Alpha  occ. eigenvalues --   -0.32096
 Alpha virt. eigenvalues --   -0.00359   0.00694   0.01096   0.02548   0.03078
 Alpha virt. eigenvalues --    0.04914   0.05175   0.05900   0.06952   0.08870
 Alpha virt. eigenvalues --    0.09324   0.09449   0.09627   0.13334   0.13799
 Alpha virt. eigenvalues --    0.13928   0.14089   0.14645   0.15334   0.17568
 Alpha virt. eigenvalues --    0.18428   0.19588   0.20041   0.20741   0.21226
 Alpha virt. eigenvalues --    0.22211   0.22422   0.22528   0.24505   0.25377
 Alpha virt. eigenvalues --    0.25462   0.26475   0.27739   0.28885   0.30738
 Alpha virt. eigenvalues --    0.32001   0.32625   0.34501   0.35972   0.36222
 Alpha virt. eigenvalues --    0.37445   0.39647   0.46849   0.50615   0.51362
 Alpha virt. eigenvalues --    0.51827   0.54408   0.54522   0.55920   0.56720
 Alpha virt. eigenvalues --    0.59185   0.61070   0.63630   0.63898   0.64408
 Alpha virt. eigenvalues --    0.65636   0.66700   0.67298   0.67753   0.69298
 Alpha virt. eigenvalues --    0.71280   0.72871   0.75184   0.77085   0.77934
 Alpha virt. eigenvalues --    0.78910   0.79429   0.80798   0.80989   0.83669
 Alpha virt. eigenvalues --    0.84226   0.84590   0.84760   0.87373   0.89270
 Alpha virt. eigenvalues --    0.90600   0.91337   0.91707   0.94946   0.96547
 Alpha virt. eigenvalues --    1.00325   1.02496   1.08517   1.09406   1.16540
 Alpha virt. eigenvalues --    1.17451   1.20257   1.21796   1.26626   1.30012
 Alpha virt. eigenvalues --    1.32021   1.35191   1.35625   1.37846   1.38784
 Alpha virt. eigenvalues --    1.39025   1.44370   1.47236   1.50590   1.51437
 Alpha virt. eigenvalues --    1.52591   1.54419   1.57337   1.61578   1.64255
 Alpha virt. eigenvalues --    1.68510   1.73609   1.80524   1.84032   1.84997
 Alpha virt. eigenvalues --    1.90295   1.91813   1.94361   2.01561   2.02190
 Alpha virt. eigenvalues --    2.06883   2.17355   2.17795   2.19310   2.26877
 Alpha virt. eigenvalues --    2.34250   2.39889   2.41669   2.44827   2.46562
 Alpha virt. eigenvalues --    2.47630   2.54355   2.55849   2.63728   2.64353
 Alpha virt. eigenvalues --    2.65272   2.68333   2.70570   2.72383   2.75992
 Alpha virt. eigenvalues --    2.76481   2.76571   2.82551   2.85313   2.87483
 Alpha virt. eigenvalues --    2.87970   2.89168   2.89612   3.01448   3.05771
 Alpha virt. eigenvalues --    3.07232   3.08722   3.11962   3.13114   3.14280
 Alpha virt. eigenvalues --    3.22443   3.23117   3.28659   3.29138   3.29487
 Alpha virt. eigenvalues --    3.30282   3.37177   3.41524   3.42507   3.46358
 Alpha virt. eigenvalues --    3.47606   3.54013   3.56107   3.56834   3.57970
 Alpha virt. eigenvalues --    3.58349   3.59465   3.65183   3.65614   3.68955
 Alpha virt. eigenvalues --    3.72711   3.74041   3.76460   3.80492   3.84377
 Alpha virt. eigenvalues --    3.87339   3.91674   3.96053   3.96916   3.99975
 Alpha virt. eigenvalues --    4.04682   4.47913   4.50899   4.55565   4.59074
 Alpha virt. eigenvalues --    4.82098   4.95966   4.99634   5.05345   5.06656
 Alpha virt. eigenvalues --    5.23376   5.27388   5.61285   5.64411   9.62352
 Alpha virt. eigenvalues --    9.65913   9.71669   9.81207   9.98319  12.56970
 Alpha virt. eigenvalues --   12.96921  13.40309  17.25414  23.83309  24.05570
 Alpha virt. eigenvalues --   24.06529  24.09822  24.13994  35.74822 129.32278
          Condensed to atoms (all electrons):
               1          2          3          4          5          6
     1  C    5.082648   0.378805   0.073071  -0.163289   0.072909   0.268717
     2  C    0.378805   4.876132   0.483185   0.056751  -0.164083   0.081464
     3  C    0.073071   0.483185   4.814616   0.482186   0.072111  -0.092716
     4  C   -0.163289   0.056751   0.482186   4.913613   0.353790   0.083097
     5  C    0.072909  -0.164083   0.072111   0.353790   5.084730   0.263205
     6  N    0.268717   0.081464  -0.092716   0.083097   0.263205   6.722732
     7  H   -0.000423  -0.010867   0.365692  -0.009565  -0.000519   0.000001
     8  H    0.442363  -0.071771   0.022340  -0.012652   0.017993  -0.067756
     9  H   -0.022731   0.369171  -0.016767   0.006032   0.000441   0.005804
    10  H   -0.002098   0.006910  -0.018338   0.366403  -0.015622   0.004749
    11  H    0.016176  -0.013599   0.023147  -0.080530   0.455789  -0.072295
    12  O   -0.001502   0.000645  -0.000030   0.000748  -0.000443   0.010033
    13  H    0.002353  -0.000527  -0.000228  -0.000720   0.002678  -0.019295
    14  H    0.000707  -0.000263   0.000012  -0.000479   0.000941  -0.004454
               7          8          9         10         11         12
     1  C   -0.000423   0.442363  -0.022731  -0.002098   0.016176  -0.001502
     2  C   -0.010867  -0.071771   0.369171   0.006910  -0.013599   0.000645
     3  C    0.365692   0.022340  -0.016767  -0.018338   0.023147  -0.000030
     4  C   -0.009565  -0.012652   0.006032   0.366403  -0.080530   0.000748
     5  C   -0.000519   0.017993   0.000441  -0.015622   0.455789  -0.000443
     6  N    0.000001  -0.067756   0.005804   0.004749  -0.072295   0.010033
     7  H    0.532588  -0.000279  -0.004708  -0.004700  -0.000283  -0.000001
     8  H   -0.000279   0.539222  -0.002092   0.000098  -0.000028   0.000018
     9  H   -0.004708  -0.002092   0.531809  -0.000202   0.000103  -0.000002
    10  H   -0.004700   0.000098  -0.000202   0.531662  -0.001967  -0.000001
    11  H   -0.000283  -0.000028   0.000103  -0.001967   0.540105  -0.000049
    12  O   -0.000001   0.000018  -0.000002  -0.000001  -0.000049   0.001129
    13  H    0.000000   0.000487   0.000020   0.000023   0.000739  -0.001234
    14  H    0.000000   0.000079   0.000002   0.000003   0.000299  -0.000311
              13         14
     1  C    0.002353   0.000707
     2  C   -0.000527  -0.000263
     3  C   -0.000228   0.000012
     4  C   -0.000720  -0.000479
     5  C    0.002678   0.000941
     6  N   -0.019295  -0.004454
     7  H    0.000000   0.000000
     8  H    0.000487   0.000079
     9  H    0.000020   0.000002
    10  H    0.000023   0.000003
    11  H    0.000739   0.000299
    12  O   -0.001234  -0.000311
    13  H    0.002286   0.000338
    14  H    0.000338   0.000311
 Mulliken charges:
               1
     1  C   -0.147707
     2  C    0.008046
     3  C   -0.208280
     4  C    0.004615
     5  C   -0.143919
     6  N   -0.183285
     7  H    0.133066
     8  H    0.131979
     9  H    0.133119
    10  H    0.133079
    11  H    0.132393
    12  O   -0.008998
    13  H    0.013079
    14  H    0.002815
 Sum of Mulliken charges =  -0.00000
 Mulliken charges with hydrogens summed into heavy atoms:
               1
     1  C   -0.015728
     2  C    0.141165
     3  C   -0.075214
     4  C    0.137694
     5  C   -0.011527
     6  N   -0.183285
    12  O    0.006896
         Mulliken charges condensed to fragments:
      1     -0.006896
      2      0.006896
 Electronic spatial extent (au):  <R**2>=          74689.0746
 Charge=             -0.0000 electrons
 Dipole moment (field-independent basis, Debye):
    X=             -0.3605    Y=             -0.1777    Z=             -2.2154  Tot=              2.2516
 Quadrupole moment (field-independent basis, Debye-Ang):
   XX=            -36.4128   YY=            -45.1228   ZZ=            -64.9600
   XY=             -9.5857   XZ=            -25.1575   YZ=            -42.6285
 Traceless Quadrupole moment (field-independent basis, Debye-Ang):
   XX=             12.4191   YY=              3.7091   ZZ=            -16.1281
   XY=             -9.5857   XZ=            -25.1575   YZ=            -42.6285
 Octapole moment (field-independent basis, Debye-Ang**2):
  XXX=           -967.8431  YYY=          -2364.0489  ZZZ=          -1001.4071  XYY=           -610.6743
  XXY=           -724.5031  XXZ=           -469.5258  XZZ=           -670.2353  YZZ=          -1230.2614
  YYZ=          -1068.7312  XYZ=           -489.9329
 Hexadecapole moment (field-independent basis, Debye-Ang**3):
 XXXX=         -18566.6955 YYYY=         -86860.4913 ZZZZ=         -12286.3034 XXXY=         -18720.3776
 XXXZ=          -8646.9190 YYYX=         -26733.6634 YYYZ=         -29858.1564 ZZZX=         -10139.7787
 ZZZY=         -18937.5413 XXYY=         -18142.1366 XXZZ=          -8198.9214 YYZZ=         -24968.9562
 XXYZ=          -9080.5080 YYXZ=         -11975.8223 ZZXY=         -12738.2863
 N-N= 2.052402027898D+02 E-N=-9.869563861151D+02  KE= 2.470660791102D+02
 No NMR shielding tensors so no spin-rotation constants.
 Leave Link  601 at Mon Feb 20 21:06:59 2023, MaxMem=  6710886400 cpu:               2.2 elap:               0.1
 (Enter /data0/home/software/g16/l122.exe)
 CPIOFr:  IOpCl= 0 IRwI=-1 IRwCP=  731 ICalc=  1 LCPTot=       83644 Len1MO=      218311 IndFrg=      520266
 Counterpoise: doing calculation for fragment   2 using the basis set of the full-system, NewBq=T
 Leave Link  122 at Mon Feb 20 21:06:59 2023, MaxMem=  6710886400 cpu:               0.1 elap:               0.0
 (Enter /data0/home/software/g16/l301.exe)
 Basis read from rwf:  (5D, 7F)
 No pseudopotential information found on rwf file.
   231 basis functions,   350 primitive gaussians,   245 cartesian basis functions
     5 alpha electrons        5 beta electrons
       nuclear repulsion energy         9.1321614520 Hartrees.
 IExCor= 4336 DFT=T Ex+Corr=M062X ExCW=0 ScaHFX=  0.540000
 ScaDFX=  1.000000  1.000000  1.000000  1.000000 ScalE2=  1.000000  1.000000
 IRadAn=      5 IRanWt=     -1 IRanGd=            0 ICorTp=0 IEmpDi=131
 NAtoms=   14 NActive=   14 NUniq=   14 SFac= 1.00D+00 NAtFMM=   60 NAOKFM=F Big=F
 Integral buffers will be    131072 words long.
 Raffenetti 2 integral format.
 Two-electron integral symmetry is turned off.
 R6Disp:  Grimme-D3 Dispersion energy=       -0.0000000072 Hartrees.
 Nuclear repulsion after empirical dispersion term =        9.1321614448 Hartrees.
 No density basis found on file   718.
 Leave Link  301 at Mon Feb 20 21:06:59 2023, MaxMem=  6710886400 cpu:               1.3 elap:               0.1
 (Enter /data0/home/software/g16/l302.exe)
 NPDir=0 NMtPBC=     1 NCelOv=     1 NCel=       1 NClECP=     1 NCelD=      1
         NCelK=      1 NCelE2=     1 NClLst=     1 CellRange=     0.0.
 One-electron integrals computed using PRISM.
 NBasis=   231 RedAO= T EigKep=  1.52D-05  NBF=   231
 NBsUse=   231 1.00D-06 EigRej= -1.00D+00 NBFU=   231
 Precomputing XC quadrature grid using
 IXCGrd= 4 IRadAn=           5 IRanWt=          -1 IRanGd=           0 AccXCQ= 0.00D+00.
 Generated NRdTot=       0 NPtTot=           0 NUsed=           0 NTot=          32
 NSgBfM=   245   245   245   245   245 MxSgAt=    14 MxSgA2=    14.
 Leave Link  302 at Mon Feb 20 21:06:59 2023, MaxMem=  6710886400 cpu:               3.7 elap:               0.2
 (Enter /data0/home/software/g16/l303.exe)
 DipDrv:  MaxL=1.
 Leave Link  303 at Mon Feb 20 21:06:59 2023, MaxMem=  6710886400 cpu:               0.6 elap:               0.0
 (Enter /data0/home/software/g16/l401.exe)
 ExpMin= 4.38D-02 ExpMax= 8.59D+03 ExpMxC= 1.30D+03 IAcc=3 IRadAn=         5 AccDes= 0.00D+00
 Harris functional with IExCor= 1009 and IRadAn=       5 diagonalized for initial guess.
 HarFok:  IExCor= 1009 AccDes= 0.00D+00 IRadAn=         5 IDoV= 1 UseB2=F ITyADJ=14
 ICtDFT=  3500011 ScaDFX=  1.000000  1.000000  1.000000  1.000000
 FoFCou: FMM=F IPFlag=           0 FMFlag=      100000 FMFlg1=           0
         NFxFlg=           0 DoJE=T BraDBF=F KetDBF=T FulRan=T
         wScrn=  0.000000 ICntrl=       500 IOpCl=  0 I1Cent=   200000004 NGrid=           0
         NMat0=    1 NMatS0=      1 NMatT0=    0 NMatD0=    1 NMtDS0=    0 NMtDT0=    0
 Symmetry not used in FoFCou.
 Harris En= -76.4171245406259    
 JPrj=0 DoOrth=F DoCkMO=F.
 Leave Link  401 at Mon Feb 20 21:07:00 2023, MaxMem=  6710886400 cpu:              11.0 elap:               0.5
 (Enter /data0/home/software/g16/l502.exe)
 Two-electron integral symmetry not used.
 Closed shell SCF:
 Using DIIS extrapolation, IDIIS=  1040.
 NGot=  6710886400 LenX=  6710758667 LenY=  6710698201
 Requested convergence on RMS density matrix=1.00D-08 within 128 cycles.
 Requested convergence on MAX density matrix=1.00D-06.
 Requested convergence on             energy=1.00D-06.
 No special actions if energy rises.
 Fock matrices will be formed incrementally for  20 cycles.

 Cycle   1  Pass 1  IDiag  1:
 FoFJK:  IHMeth= 1 ICntrl=       0 DoSepK=F KAlg= 0 I1Cent=           0 FoldK=F
 IRaf= 960000000 NMat=       1 IRICut=       1 DoRegI=T DoRafI=F ISym2E= 0 IDoP0=0 IntGTp=1.
 FoFCou: FMM=F IPFlag=           0 FMFlag=      100000 FMFlg1=           0
         NFxFlg=           0 DoJE=F BraDBF=F KetDBF=F FulRan=T
         wScrn=  0.000000 ICntrl=         0 IOpCl=  0 I1Cent=           0 NGrid=           0
         NMat0=    1 NMatS0=      1 NMatT0=    0 NMatD0=    1 NMtDS0=    0 NMtDT0=    0
 Symmetry not used in FoFCou.
 E= -76.3471029162617    
 DIIS: error= 4.35D-02 at cycle   1 NSaved=   1.
 NSaved= 1 IEnMin= 1 EnMin= -76.3471029162617     IErMin= 1 ErrMin= 4.35D-02
 ErrMax= 4.35D-02  0.00D+00 EMaxC= 1.00D-01 BMatC= 1.21D-01 BMatP= 1.21D-01
 IDIUse=3 WtCom= 5.65D-01 WtEn= 4.35D-01
 Coeff-Com:  0.100D+01
 Coeff-En:   0.100D+01
 Coeff:      0.100D+01
 Gap=     0.263 Goal=   None    Shift=    0.000
 GapD=    0.263 DampG=1.000 DampE=0.500 DampFc=0.5000 IDamp=-1.
 Damping current iteration by 5.00D-01
 RMSDP=1.08D-02 MaxDP=9.51D-01              OVMax= 1.72D-01

 Cycle   2  Pass 1  IDiag  1:
 RMSU=  4.99D-03    CP:  1.23D+00
 E= -76.3781682339833     Delta-E=       -0.031065317722 Rises=F Damp=T
 DIIS: error= 6.56D-03 at cycle   2 NSaved=   2.
 NSaved= 2 IEnMin= 2 EnMin= -76.3781682339833     IErMin= 2 ErrMin= 6.56D-03
 ErrMax= 6.56D-03  0.00D+00 EMaxC= 1.00D-01 BMatC= 4.96D-03 BMatP= 1.21D-01
 IDIUse=3 WtCom= 9.34D-01 WtEn= 6.56D-02
 Coeff-Com:  0.863D-01 0.914D+00
 Coeff-En:   0.196D+00 0.804D+00
 Coeff:      0.935D-01 0.907D+00
 Gap=     0.391 Goal=   None    Shift=    0.000
 RMSDP=2.74D-03 MaxDP=2.50D-01 DE=-3.11D-02 OVMax= 1.04D-01

 Cycle   3  Pass 1  IDiag  1:
 RMSU=  1.01D-03    CP:  1.07D+00  5.76D-01
 E= -76.4225535446899     Delta-E=       -0.044385310707 Rises=F Damp=F
 DIIS: error= 1.44D-03 at cycle   3 NSaved=   3.
 NSaved= 3 IEnMin= 3 EnMin= -76.4225535446899     IErMin= 3 ErrMin= 1.44D-03
 ErrMax= 1.44D-03  0.00D+00 EMaxC= 1.00D-01 BMatC= 1.40D-04 BMatP= 4.96D-03
 IDIUse=3 WtCom= 9.86D-01 WtEn= 1.44D-02
 Coeff-Com: -0.269D-01 0.473D-01 0.980D+00
 Coeff-En:   0.000D+00 0.000D+00 0.100D+01
 Coeff:     -0.266D-01 0.466D-01 0.980D+00
 Gap=     0.393 Goal=   None    Shift=    0.000
 RMSDP=1.57D-04 MaxDP=1.11D-02 DE=-4.44D-02 OVMax= 3.84D-03

 Cycle   4  Pass 1  IDiag  1:
 RMSU=  9.29D-05    CP:  1.06D+00  5.71D-01  1.04D+00
 E= -76.4226667071468     Delta-E=       -0.000113162457 Rises=F Damp=F
 DIIS: error= 2.35D-04 at cycle   4 NSaved=   4.
 NSaved= 4 IEnMin= 4 EnMin= -76.4226667071468     IErMin= 4 ErrMin= 2.35D-04
 ErrMax= 2.35D-04  0.00D+00 EMaxC= 1.00D-01 BMatC= 2.60D-06 BMatP= 1.40D-04
 IDIUse=3 WtCom= 9.98D-01 WtEn= 2.35D-03
 Coeff-Com: -0.223D-02-0.773D-03 0.131D+00 0.872D+00
 Coeff-En:   0.000D+00 0.000D+00 0.000D+00 0.100D+01
 Coeff:     -0.222D-02-0.772D-03 0.131D+00 0.872D+00
 Gap=     0.394 Goal=   None    Shift=    0.000
 RMSDP=3.96D-05 MaxDP=3.41D-03 DE=-1.13D-04 OVMax= 5.32D-04

 Cycle   5  Pass 1  IDiag  1:
 RMSU=  9.97D-06    CP:  1.05D+00  5.66D-01  1.04D+00  1.16D+00
 E= -76.4226684194249     Delta-E=       -0.000001712278 Rises=F Damp=F
 DIIS: error= 4.78D-05 at cycle   5 NSaved=   5.
 NSaved= 5 IEnMin= 5 EnMin= -76.4226684194249     IErMin= 5 ErrMin= 4.78D-05
 ErrMax= 4.78D-05  0.00D+00 EMaxC= 1.00D-01 BMatC= 7.03D-08 BMatP= 2.60D-06
 IDIUse=1 WtCom= 1.00D+00 WtEn= 0.00D+00
 Coeff-Com:  0.140D-02-0.218D-02-0.364D-01-0.293D-01 0.107D+01
 Coeff:      0.140D-02-0.218D-02-0.364D-01-0.293D-01 0.107D+01
 Gap=     0.394 Goal=   None    Shift=    0.000
 RMSDP=2.60D-05 MaxDP=2.46D-03 DE=-1.71D-06 OVMax= 2.02D-04

 Cycle   6  Pass 1  IDiag  1:
 RMSU=  2.62D-06    CP:  1.05D+00  5.62D-01  1.04D+00  1.22D+00  1.23D+00
 E= -76.4226685452132     Delta-E=       -0.000000125788 Rises=F Damp=F
 DIIS: error= 3.13D-06 at cycle   6 NSaved=   6.
 NSaved= 6 IEnMin= 6 EnMin= -76.4226685452132     IErMin= 6 ErrMin= 3.13D-06
 ErrMax= 3.13D-06  0.00D+00 EMaxC= 1.00D-01 BMatC= 1.84D-09 BMatP= 7.03D-08
 IDIUse=1 WtCom= 1.00D+00 WtEn= 0.00D+00
 Coeff-Com: -0.270D-03 0.384D-03 0.356D-02-0.116D-01-0.146D+00 0.115D+01
 Coeff:     -0.270D-03 0.384D-03 0.356D-02-0.116D-01-0.146D+00 0.115D+01
 Gap=     0.394 Goal=   None    Shift=    0.000
 RMSDP=3.34D-06 MaxDP=3.11D-04 DE=-1.26D-07 OVMax= 3.91D-05

 Cycle   7  Pass 1  IDiag  1:
 RMSU=  2.71D-07    CP:  1.05D+00  5.61D-01  1.04D+00  1.23D+00  1.29D+00
                    CP:  1.19D+00
 E= -76.4226685488121     Delta-E=       -0.000000003599 Rises=F Damp=F
 DIIS: error= 6.99D-07 at cycle   7 NSaved=   7.
 NSaved= 7 IEnMin= 7 EnMin= -76.4226685488121     IErMin= 7 ErrMin= 6.99D-07
 ErrMax= 6.99D-07  0.00D+00 EMaxC= 1.00D-01 BMatC= 2.10D-11 BMatP= 1.84D-09
 IDIUse=1 WtCom= 1.00D+00 WtEn= 0.00D+00
 Coeff-Com:  0.308D-04-0.252D-04-0.327D-03 0.249D-02 0.191D-02-0.148D+00
 Coeff-Com:  0.114D+01
 Coeff:      0.308D-04-0.252D-04-0.327D-03 0.249D-02 0.191D-02-0.148D+00
 Coeff:      0.114D+01
 Gap=     0.394 Goal=   None    Shift=    0.000
 RMSDP=4.48D-07 MaxDP=3.97D-05 DE=-3.60D-09 OVMax= 5.08D-06

 Cycle   8  Pass 1  IDiag  1:
 RMSU=  4.71D-08    CP:  1.05D+00  5.61D-01  1.04D+00  1.23D+00  1.30D+00
                    CP:  1.21D+00  1.12D+00
 E= -76.4226685488624     Delta-E=       -0.000000000050 Rises=F Damp=F
 DIIS: error= 9.24D-08 at cycle   8 NSaved=   8.
 NSaved= 8 IEnMin= 8 EnMin= -76.4226685488624     IErMin= 8 ErrMin= 9.24D-08
 ErrMax= 9.24D-08  0.00D+00 EMaxC= 1.00D-01 BMatC= 5.56D-13 BMatP= 2.10D-11
 IDIUse=1 WtCom= 1.00D+00 WtEn= 0.00D+00
 Coeff-Com:  0.508D-05-0.814D-05-0.329D-04 0.326D-03 0.224D-02-0.212D-01
 Coeff-Com:  0.144D-01 0.100D+01
 Coeff:      0.508D-05-0.814D-05-0.329D-04 0.326D-03 0.224D-02-0.212D-01
 Coeff:      0.144D-01 0.100D+01
 Gap=     0.394 Goal=   None    Shift=    0.000
 RMSDP=1.78D-08 MaxDP=1.92D-06 DE=-5.03D-11 OVMax= 4.86D-07

 Cycle   9  Pass 1  IDiag  1:
 RMSU=  6.55D-09    CP:  1.05D+00  5.61D-01  1.04D+00  1.23D+00  1.30D+00
                    CP:  1.21D+00  1.13D+00  1.16D+00
 E= -76.4226685488633     Delta-E=       -0.000000000001 Rises=F Damp=F
 DIIS: error= 1.98D-08 at cycle   9 NSaved=   9.
 NSaved= 9 IEnMin= 9 EnMin= -76.4226685488633     IErMin= 9 ErrMin= 1.98D-08
 ErrMax= 1.98D-08  0.00D+00 EMaxC= 1.00D-01 BMatC= 2.93D-14 BMatP= 5.56D-13
 IDIUse=1 WtCom= 1.00D+00 WtEn= 0.00D+00
 Coeff-Com: -0.791D-06-0.559D-07 0.149D-04-0.547D-04 0.151D-03 0.388D-02
 Coeff-Com: -0.503D-01 0.122D+00 0.925D+00
 Coeff:     -0.791D-06-0.559D-07 0.149D-04-0.547D-04 0.151D-03 0.388D-02
 Coeff:     -0.503D-01 0.122D+00 0.925D+00
 Gap=     0.394 Goal=   None    Shift=    0.000
 RMSDP=5.67D-09 MaxDP=3.08D-07 DE=-9.24D-13 OVMax= 9.90D-08

 SCF Done:  E(RM062X) =  -76.4226685489     A.U. after    9 cycles
            NFock=  9  Conv=0.57D-08     -V/T= 2.0029
 KE= 7.620053147373D+01 PE=-1.991088719970D+02 EE= 3.735351052961D+01
 Leave Link  502 at Mon Feb 20 21:07:09 2023, MaxMem=  6710886400 cpu:             228.0 elap:               9.6
 (Enter /data0/home/software/g16/l601.exe)
 Copying SCF densities to generalized density rwf, IOpCl= 0 IROHF=0.

 **********************************************************************

            Population analysis using the SCF density.

 **********************************************************************

 Alpha  occ. eigenvalues --  -19.62683  -1.13552  -0.60718  -0.47788  -0.40082
 Alpha virt. eigenvalues --   -0.00653   0.03777   0.03875   0.05053   0.07441
 Alpha virt. eigenvalues --    0.07811   0.08378   0.09907   0.10626   0.11364
 Alpha virt. eigenvalues --    0.13294   0.13505   0.14630   0.14975   0.15450
 Alpha virt. eigenvalues --    0.15760   0.18228   0.18961   0.19205   0.20197
 Alpha virt. eigenvalues --    0.20639   0.20819   0.21757   0.22106   0.23893
 Alpha virt. eigenvalues --    0.24088   0.25283   0.26120   0.28269   0.29721
 Alpha virt. eigenvalues --    0.30088   0.31617   0.33808   0.35216   0.37040
 Alpha virt. eigenvalues --    0.39476   0.41397   0.42842   0.42929   0.44101
 Alpha virt. eigenvalues --    0.47619   0.49540   0.50170   0.53109   0.54493
 Alpha virt. eigenvalues --    0.56251   0.57066   0.59885   0.61661   0.64240
 Alpha virt. eigenvalues --    0.65567   0.66659   0.67252   0.68761   0.70564
 Alpha virt. eigenvalues --    0.78594   0.78909   0.83192   0.84778   0.87846
 Alpha virt. eigenvalues --    0.90413   0.94266   0.98044   1.01592   1.04863
 Alpha virt. eigenvalues --    1.06247   1.10544   1.12700   1.15170   1.15225
 Alpha virt. eigenvalues --    1.15391   1.17056   1.19204   1.21137   1.22666
 Alpha virt. eigenvalues --    1.24023   1.26344   1.28684   1.32084   1.32597
 Alpha virt. eigenvalues --    1.33908   1.35814   1.38151   1.40564   1.40978
 Alpha virt. eigenvalues --    1.42752   1.43295   1.44600   1.47171   1.48298
 Alpha virt. eigenvalues --    1.49306   1.49366   1.51544   1.55912   1.58114
 Alpha virt. eigenvalues --    1.61708   1.67682   1.68748   1.69748   1.70813
 Alpha virt. eigenvalues --    1.72632   1.75519   1.77846   1.78915   1.81100
 Alpha virt. eigenvalues --    1.82589   1.85146   1.86532   1.89005   1.90025
 Alpha virt. eigenvalues --    1.98696   2.01016   2.04393   2.06483   2.06805
 Alpha virt. eigenvalues --    2.08846   2.10584   2.12529   2.14367   2.20152
 Alpha virt. eigenvalues --    2.22289   2.24003   2.26161   2.29784   2.37716
 Alpha virt. eigenvalues --    2.41160   2.44208   2.48484   2.48569   2.52564
 Alpha virt. eigenvalues --    2.57011   2.57454   2.59433   2.65230   2.66183
 Alpha virt. eigenvalues --    2.70989   2.77736   2.84175   2.91099   2.94236
 Alpha virt. eigenvalues --    2.98874   3.01342   3.09356   3.11220   3.19667
 Alpha virt. eigenvalues --    3.22001   3.38521   3.44661   3.56153   3.60360
 Alpha virt. eigenvalues --    3.65582   3.65961   4.25861   4.46595   4.53229
 Alpha virt. eigenvalues --    4.67525   4.69985   4.71486   4.74602   4.86191
 Alpha virt. eigenvalues --    4.88128   4.88663   4.90253   4.95692   4.98947
 Alpha virt. eigenvalues --    5.01346   5.03517   5.12612   5.20590   5.23261
 Alpha virt. eigenvalues --    5.27358   5.31189   5.31834   5.35246   5.42959
 Alpha virt. eigenvalues --    5.53594   5.55289   5.60003   5.60915   5.65969
 Alpha virt. eigenvalues --    5.94982   6.00243   6.03376   6.16285   6.27291
 Alpha virt. eigenvalues --    6.79680   6.80884   6.88218   6.92433   6.95136
 Alpha virt. eigenvalues --    7.01903   7.04595   7.09937   7.10723   7.12116
 Alpha virt. eigenvalues --    7.18984   7.20402   7.30991   7.40268   7.51649
 Alpha virt. eigenvalues --    7.63016   7.80346   7.82280   7.88699   7.90857
 Alpha virt. eigenvalues --    8.06573   8.24599   8.29213   8.39295   8.80040
 Alpha virt. eigenvalues --    9.63201   9.66147   9.80865  10.13495  10.18771
 Alpha virt. eigenvalues --   10.20347  10.31986  11.19276  13.28755  50.00079
 Alpha virt. eigenvalues --   68.04080  69.51620  69.89841  69.96377  69.97117
 Alpha virt. eigenvalues --   98.44535
          Condensed to atoms (all electrons):
               1          2          3          4          5          6
     1  C    0.898304  -0.413995  -0.064859   0.178431  -0.517159  -0.093390
     2  C   -0.413995   0.330055  -0.029748   0.117238  -0.040463   0.039554
     3  C   -0.064859  -0.029748   0.074566  -0.046596   0.049570   0.020479
     4  C    0.178431   0.117238  -0.046596   0.797538  -1.090377   0.046580
     5  C   -0.517159  -0.040463   0.049570  -1.090377   1.670904  -0.085559
     6  N   -0.093390   0.039554   0.020479   0.046580  -0.085559   0.106472
     7  H   -0.000892  -0.000077  -0.000357  -0.000630   0.002040  -0.000151
     8  H    0.018198  -0.007239  -0.002397   0.003991  -0.008948  -0.004642
     9  H    0.003444  -0.002677  -0.000046  -0.000367  -0.000094  -0.000352
    10  H    0.001423  -0.001201   0.000237  -0.003404   0.002926  -0.000054
    11  H   -0.006551   0.002380  -0.000912  -0.006802   0.014346  -0.003579
    12  O   -0.016254   0.005863  -0.000151   0.010861  -0.001027   0.049848
    13  H   -0.004140   0.005205  -0.001915   0.009923  -0.013543   0.020325
    14  H   -0.002009  -0.003458   0.000400  -0.007429   0.003774   0.019106
               7          8          9         10         11         12
     1  C   -0.000892   0.018198   0.003444   0.001423  -0.006551  -0.016254
     2  C   -0.000077  -0.007239  -0.002677  -0.001201   0.002380   0.005863
     3  C   -0.000357  -0.002397  -0.000046   0.000237  -0.000912  -0.000151
     4  C   -0.000630   0.003991  -0.000367  -0.003404  -0.006802   0.010861
     5  C    0.002040  -0.008948  -0.000094   0.002926   0.014346  -0.001027
     6  N   -0.000151  -0.004642  -0.000352  -0.000054  -0.003579   0.049848
     7  H    0.000075  -0.000004  -0.000006  -0.000001   0.000003   0.000001
     8  H   -0.000004   0.000852   0.000038   0.000001  -0.000035  -0.001037
     9  H   -0.000006   0.000038   0.000063   0.000002  -0.000002   0.000001
    10  H   -0.000001   0.000001   0.000002   0.000134  -0.000046   0.000018
    11  H    0.000003  -0.000035  -0.000002  -0.000046   0.000640  -0.001372
    12  O    0.000001  -0.001037   0.000001   0.000018  -0.001372   7.801404
    13  H   -0.000001   0.000127  -0.000004  -0.000011   0.000070   0.346468
    14  H   -0.000000  -0.000039   0.000001   0.000002  -0.000092   0.329039
              13         14
     1  C   -0.004140  -0.002009
     2  C    0.005205  -0.003458
     3  C   -0.001915   0.000400
     4  C    0.009923  -0.007429
     5  C   -0.013543   0.003774
     6  N    0.020325   0.019106
     7  H   -0.000001  -0.000000
     8  H    0.000127  -0.000039
     9  H   -0.000004   0.000001
    10  H   -0.000011   0.000002
    11  H    0.000070  -0.000092
    12  O    0.346468   0.329039
    13  H    0.340531  -0.042307
    14  H   -0.042307   0.431433
 Mulliken charges:
               1
     1  C    0.019448
     2  C   -0.001437
     3  C    0.001728
     4  C   -0.008956
     5  C    0.013609
     6  N   -0.114636
     7  H   -0.000001
     8  H    0.001133
     9  H   -0.000001
    10  H   -0.000026
    11  H    0.001953
    12  O   -0.523662
    13  H    0.339271
    14  H    0.271577
 Sum of Mulliken charges =   0.00000
 Mulliken charges with hydrogens summed into heavy atoms:
               1
     1  C    0.020581
     2  C   -0.001438
     3  C    0.001727
     4  C   -0.008982
     5  C    0.015562
     6  N   -0.114636
    12  O    0.087186
         Mulliken charges condensed to fragments:
      1     -0.087186
      2      0.087186
 Electronic spatial extent (au):  <R**2>=          21704.1106
 Charge=             -0.0000 electrons
 Dipole moment (field-independent basis, Debye):
    X=             -0.6592    Y=              0.5350    Z=             -1.8123  Tot=              2.0013
 Quadrupole moment (field-independent basis, Debye-Ang):
   XX=            -21.6402   YY=             16.1740   ZZ=            -43.9236
   XY=             -6.2396   XZ=            -25.9603   YZ=            -29.6936
 Traceless Quadrupole moment (field-independent basis, Debye-Ang):
   XX=             -5.1769   YY=             32.6373   ZZ=            -27.4604
   XY=             -6.2396   XZ=            -25.9603   YZ=            -29.6936
 Octapole moment (field-independent basis, Debye-Ang**2):
  XXX=           -472.6674  YYY=            336.4141  ZZZ=           -781.7440  XYY=            -43.9365
  XXY=           -341.6589  XXZ=           -425.9987  XZZ=           -536.8485  YZZ=           -797.3223
  YYZ=           -518.3081  XYZ=           -436.8851
 Hexadecapole moment (field-independent basis, Debye-Ang**3):
 XXXX=          -8604.3930 YYYY=           5200.2295 ZZZZ=         -12178.2364 XXXY=          -8255.5903
 XXXZ=          -7024.3085 YYYX=           -334.7758 YYYZ=          -9881.0502 ZZZX=          -9060.8515
 ZZZY=         -14627.4606 XXYY=          -5658.8363 XXZZ=          -7269.0302 YYZZ=         -14915.6617
 XXYZ=          -7469.5124 YYXZ=          -7706.7753 ZZXY=          -9745.8246
 N-N= 9.132161444776D+00 E-N=-1.991088723004D+02  KE= 7.620053147373D+01
 No NMR shielding tensors so no spin-rotation constants.
 Leave Link  601 at Mon Feb 20 21:07:10 2023, MaxMem=  6710886400 cpu:               2.1 elap:               0.1
 (Enter /data0/home/software/g16/l122.exe)
 CPIOFr:  IOpCl= 0 IRwI=-1 IRwCP=  731 ICalc=  2 LCPTot=       83644 Len1MO=      218311 IndFrg=      738577
 Counterpoise: doing calculation for fragment   1 using the basis set of the fragment.
 Leave Link  122 at Mon Feb 20 21:07:10 2023, MaxMem=  6710886400 cpu:               0.1 elap:               0.0
 (Enter /data0/home/software/g16/l301.exe)
 Basis read from rwf:  (5D, 7F)
 No pseudopotential information found on rwf file.
   192 basis functions,   292 primitive gaussians,   204 cartesian basis functions
    21 alpha electrons       21 beta electrons
       nuclear repulsion energy       205.2403017202 Hartrees.
 IExCor= 4336 DFT=T Ex+Corr=M062X ExCW=0 ScaHFX=  0.540000
 ScaDFX=  1.000000  1.000000  1.000000  1.000000 ScalE2=  1.000000  1.000000
 IRadAn=      5 IRanWt=     -1 IRanGd=            0 ICorTp=0 IEmpDi=131
 NAtoms=   14 NActive=   11 NUniq=   11 SFac= 1.00D+00 NAtFMM=   60 NAOKFM=F Big=F
 Integral buffers will be    131072 words long.
 Raffenetti 2 integral format.
 Two-electron integral symmetry is turned off.
 R6Disp:  Grimme-D3 Dispersion energy=       -0.0000989304 Hartrees.
 Nuclear repulsion after empirical dispersion term =      205.2402027898 Hartrees.
 No density basis found on file   718.
 Leave Link  301 at Mon Feb 20 21:07:10 2023, MaxMem=  6710886400 cpu:               1.3 elap:               0.1
 (Enter /data0/home/software/g16/l302.exe)
 NPDir=0 NMtPBC=     1 NCelOv=     1 NCel=       1 NClECP=     1 NCelD=      1
         NCelK=      1 NCelE2=     1 NClLst=     1 CellRange=     0.0.
 One-electron integrals computed using PRISM.
 NBasis=   192 RedAO= T EigKep=  1.98D-05  NBF=   192
 NBsUse=   192 1.00D-06 EigRej= -1.00D+00 NBFU=   192
 Precomputing XC quadrature grid using
 IXCGrd= 4 IRadAn=           5 IRanWt=          -1 IRanGd=           0 AccXCQ= 0.00D+00.
 Generated NRdTot=       0 NPtTot=           0 NUsed=           0 NTot=          32
 NSgBfM=   204   204   204   204   204 MxSgAt=    11 MxSgA2=    11.
 Leave Link  302 at Mon Feb 20 21:07:10 2023, MaxMem=  6710886400 cpu:               3.2 elap:               0.1
 (Enter /data0/home/software/g16/l303.exe)
 DipDrv:  MaxL=1.
 Leave Link  303 at Mon Feb 20 21:07:10 2023, MaxMem=  6710886400 cpu:               0.5 elap:               0.0
 (Enter /data0/home/software/g16/l401.exe)
 ExpMin= 4.38D-02 ExpMax= 6.29D+03 ExpMxC= 9.49D+02 IAcc=3 IRadAn=         5 AccDes= 0.00D+00
 Harris functional with IExCor= 1009 and IRadAn=       5 diagonalized for initial guess.
 HarFok:  IExCor= 1009 AccDes= 0.00D+00 IRadAn=         5 IDoV= 1 UseB2=F ITyADJ=14
 ICtDFT=  3500011 ScaDFX=  1.000000  1.000000  1.000000  1.000000
 FoFCou: FMM=F IPFlag=           0 FMFlag=      100000 FMFlg1=           0
         NFxFlg=           0 DoJE=T BraDBF=F KetDBF=T FulRan=T
         wScrn=  0.000000 ICntrl=       500 IOpCl=  0 I1Cent=   200000004 NGrid=           0
         NMat0=    1 NMatS0=      1 NMatT0=    0 NMatD0=    1 NMtDS0=    0 NMtDT0=    0
 Symmetry not used in FoFCou.
 Harris En= -248.118985919860    
 JPrj=0 DoOrth=F DoCkMO=F.
 Leave Link  401 at Mon Feb 20 21:07:10 2023, MaxMem=  6710886400 cpu:               8.2 elap:               0.4
 (Enter /data0/home/software/g16/l502.exe)
 Keep R1 ints in memory in canonical form, NReq=196464098.
 FoFCou: FMM=F IPFlag=           0 FMFlag=           0 FMFlg1=           0
         NFxFlg=           0 DoJE=F BraDBF=F KetDBF=F FulRan=T
         wScrn=  0.000000 ICntrl=       600 IOpCl=  0 I1Cent=           0 NGrid=           0
[...]
     6  N    0.241940   0.116478  -0.097689   0.116702   0.241209   6.716360
     7  H   -0.001118  -0.009530   0.365377  -0.009562  -0.001129   0.000306
     8  H    0.444186  -0.069733   0.017940  -0.010661   0.018782  -0.073504
     9  H   -0.019066   0.376296  -0.027199   0.011717  -0.001198   0.002934
    10  H   -0.001227   0.011723  -0.027339   0.376248  -0.018876   0.002943
    11  H    0.018781  -0.010676   0.017923  -0.069549   0.444141  -0.073667
               7          8          9         10         11
     1  C   -0.001118   0.444186  -0.019066  -0.001227   0.018781
     2  C   -0.009530  -0.069733   0.376296   0.011723  -0.010676
     3  C    0.365377   0.017940  -0.027199  -0.027339   0.017923
     4  C   -0.009562  -0.010661   0.011717   0.376248  -0.069549
     5  C   -0.001129   0.018782  -0.001198  -0.018876   0.444141
     6  N    0.000306  -0.073504   0.002934   0.002943  -0.073667
     7  H    0.532596  -0.000261  -0.004416  -0.004412  -0.000260
     8  H   -0.000261   0.542752  -0.002134   0.000096   0.000034
     9  H   -0.004416  -0.002134   0.529995  -0.000233   0.000096
    10  H   -0.004412   0.000096  -0.000233   0.529949  -0.002148
    11  H   -0.000260   0.000034   0.000096  -0.002148   0.542612
 Mulliken charges:
               1
     1  C   -0.149329
     2  C    0.017808
     3  C   -0.206540
     4  C    0.017567
     5  C   -0.149597
     6  N   -0.194014
     7  H    0.132408
     8  H    0.132501
     9  H    0.133209
    10  H    0.133276
    11  H    0.132712
    12  O    0.000000
    13  H    0.000000
    14  H    0.000000
 Sum of Mulliken charges =  -0.00000
 Mulliken charges with hydrogens summed into heavy atoms:
               1
     1  C   -0.016828
     2  C    0.151017
     3  C   -0.074132
     4  C    0.150843
     5  C   -0.016885
     6  N   -0.194014
    12  O    0.000000
         Mulliken charges condensed to fragments:
      1     -0.000000
      2      0.000000
 Electronic spatial extent (au):  <R**2>=          74689.1379
 Charge=             -0.0000 electrons
 Dipole moment (field-independent basis, Debye):
    X=             -0.3616    Y=             -0.1769    Z=             -2.2216  Tot=              2.2578
 Quadrupole moment (field-independent basis, Debye-Ang):
   XX=            -36.4245   YY=            -45.0899   ZZ=            -65.0664
   XY=             -9.6004   XZ=            -25.2333   YZ=            -42.7387
 Traceless Quadrupole moment (field-independent basis, Debye-Ang):
   XX=             12.4358   YY=              3.7703   ZZ=            -16.2061
   XY=             -9.6004   XZ=            -25.2333   YZ=            -42.7387
 Octapole moment (field-independent basis, Debye-Ang**2):
  XXX=           -967.8542  YYY=          -2362.9881  ZZZ=          -1002.8148  XYY=           -610.7763
  XXY=           -724.6602  XXZ=           -470.3425  XZZ=           -671.4431  YZZ=          -1232.1976
  YYZ=          -1070.6216  XYZ=           -491.2918
 Hexadecapole moment (field-independent basis, Debye-Ang**3):
 XXXX=         -18564.5850 YYYY=         -86830.5728 ZZZZ=         -12303.2076 XXXY=         -18720.0127
 XXXZ=          -8654.9435 YYYX=         -26731.3860 YYYZ=         -29889.4107 ZZZX=         -10155.3510
 ZZZY=         -18963.4659 XXYY=         -18143.4199 XXZZ=          -8211.8915 YYZZ=         -25003.7130
 XXYZ=          -9095.2240 YYXZ=         -11999.6400 ZZXY=         -12760.3909
 N-N= 2.052402027898D+02 E-N=-9.869565398288D+02  KE= 2.470671510063D+02
 No NMR shielding tensors so no spin-rotation constants.
 Leave Link  601 at Mon Feb 20 21:07:20 2023, MaxMem=  6710886400 cpu:               1.9 elap:               0.1
 (Enter /data0/home/software/g16/l122.exe)
 CPIOFr:  IOpCl= 0 IRwI=-1 IRwCP=  731 ICalc=  3 LCPTot=       83644 Len1MO=      218311 IndFrg=      956888
 Counterpoise: doing calculation for fragment   2 using the basis set of the fragment.
 Leave Link  122 at Mon Feb 20 21:07:20 2023, MaxMem=  6710886400 cpu:               0.1 elap:               0.0
 (Enter /data0/home/software/g16/l301.exe)
 Basis read from rwf:  (5D, 7F)
 No pseudopotential information found on rwf file.
    39 basis functions,    58 primitive gaussians,    41 cartesian basis functions
     5 alpha electrons        5 beta electrons
       nuclear repulsion energy         9.1321614520 Hartrees.
 IExCor= 4336 DFT=T Ex+Corr=M062X ExCW=0 ScaHFX=  0.540000
 ScaDFX=  1.000000  1.000000  1.000000  1.000000 ScalE2=  1.000000  1.000000
 IRadAn=      5 IRanWt=     -1 IRanGd=            0 ICorTp=0 IEmpDi=131
 NAtoms=   14 NActive=    3 NUniq=    3 SFac= 1.00D+00 NAtFMM=   60 NAOKFM=F Big=F
 Integral buffers will be    131072 words long.
 Raffenetti 2 integral format.
 Two-electron integral symmetry is turned off.
 R6Disp:  Grimme-D3 Dispersion energy=       -0.0000000072 Hartrees.
 Nuclear repulsion after empirical dispersion term =        9.1321614448 Hartrees.
 No density basis found on file   718.
 Leave Link  301 at Mon Feb 20 21:07:20 2023, MaxMem=  6710886400 cpu:               1.3 elap:               0.1
 (Enter /data0/home/software/g16/l302.exe)
 NPDir=0 NMtPBC=     1 NCelOv=     1 NCel=       1 NClECP=     1 NCelD=      1
         NCelK=      1 NCelE2=     1 NClLst=     1 CellRange=     0.0.
 One-electron integrals computed using PRISM.
 NBasis=    39 RedAO= T EigKep=  2.96D-03  NBF=    39
 NBsUse=    39 1.00D-06 EigRej= -1.00D+00 NBFU=    39
 Precomputing XC quadrature grid using
 IXCGrd= 4 IRadAn=           5 IRanWt=          -1 IRanGd=           0 AccXCQ= 0.00D+00.
 Generated NRdTot=       0 NPtTot=           0 NUsed=           0 NTot=          32
 NSgBfM=    41    41    41    41    41 MxSgAt=     3 MxSgA2=     3.
 Leave Link  302 at Mon Feb 20 21:07:20 2023, MaxMem=  6710886400 cpu:               2.3 elap:               0.1
 (Enter /data0/home/software/g16/l303.exe)
 DipDrv:  MaxL=1.
 Leave Link  303 at Mon Feb 20 21:07:20 2023, MaxMem=  6710886400 cpu:               0.4 elap:               0.0
 (Enter /data0/home/software/g16/l401.exe)
 ExpMin= 8.45D-02 ExpMax= 8.59D+03 ExpMxC= 1.30D+03 IAcc=3 IRadAn=         5 AccDes= 0.00D+00
 Harris functional with IExCor= 1009 and IRadAn=       5 diagonalized for initial guess.
 HarFok:  IExCor= 1009 AccDes= 0.00D+00 IRadAn=         5 IDoV= 1 UseB2=F ITyADJ=14
 ICtDFT=  3500011 ScaDFX=  1.000000  1.000000  1.000000  1.000000
 FoFCou: FMM=F IPFlag=           0 FMFlag=      100000 FMFlg1=           0
         NFxFlg=           0 DoJE=T BraDBF=F KetDBF=T FulRan=T
         wScrn=  0.000000 ICntrl=       500 IOpCl=  0 I1Cent=   200000004 NGrid=           0
         NMat0=    1 NMatS0=      1 NMatT0=    0 NMatD0=    1 NMtDS0=    0 NMtDT0=    0
 Symmetry not used in FoFCou.
 Harris En= -76.4165435445318    
 JPrj=0 DoOrth=F DoCkMO=F.
 Leave Link  401 at Mon Feb 20 21:07:20 2023, MaxMem=  6710886400 cpu:               3.0 elap:               0.1
 (Enter /data0/home/software/g16/l502.exe)
 Keep R1 ints in memory in canonical form, NReq=21037743.
 FoFCou: FMM=F IPFlag=           0 FMFlag=           0 FMFlg1=           0
         NFxFlg=           0 DoJE=F BraDBF=F KetDBF=F FulRan=T
         wScrn=  0.000000 ICntrl=       600 IOpCl=  0 I1Cent=           0 NGrid=           0
         NMat0=    1 NMatS0=    780 NMatT0=    0 NMatD0=    1 NMtDS0=    0 NMtDT0=    0
 Symmetry not used in FoFCou.
 Two-electron integral symmetry not used.
 Closed shell SCF:
 Using DIIS extrapolation, IDIIS=  1040.
 NGot=  6710886400 LenX=  6710576681 LenY=  6710574559
 Requested convergence on RMS density matrix=1.00D-08 within 128 cycles.
 Requested convergence on MAX density matrix=1.00D-06.
 Requested convergence on             energy=1.00D-06.
 No special actions if energy rises.
 Integral accuracy reduced to 1.0D-05 until final iterations.

 Cycle   1  Pass 0  IDiag  1:
 E= -76.3459722526953    
 DIIS: error= 7.04D-02 at cycle   1 NSaved=   1.
 NSaved= 1 IEnMin= 1 EnMin= -76.3459722526953     IErMin= 1 ErrMin= 7.04D-02
 ErrMax= 7.04D-02  0.00D+00 EMaxC= 1.00D-01 BMatC= 1.21D-01 BMatP= 1.21D-01
 IDIUse=3 WtCom= 2.96D-01 WtEn= 7.04D-01
 Coeff-Com:  0.100D+01
 Coeff-En:   0.100D+01
 Coeff:      0.100D+01
 Gap=     0.325 Goal=   None    Shift=    0.000
 GapD=    0.325 DampG=1.000 DampE=0.500 DampFc=0.5000 IDamp=-1.
 Damping current iteration by 5.00D-01
 RMSDP=7.96D-03 MaxDP=1.01D-01              OVMax= 1.68D-01

 Cycle   2  Pass 0  IDiag  1:
 E= -76.3775929556840     Delta-E=       -0.031620702989 Rises=F Damp=T
 DIIS: error= 1.14D-02 at cycle   2 NSaved=   2.
 NSaved= 2 IEnMin= 2 EnMin= -76.3775929556840     IErMin= 2 ErrMin= 1.14D-02
 ErrMax= 1.14D-02  0.00D+00 EMaxC= 1.00D-01 BMatC= 4.79D-03 BMatP= 1.21D-01
 IDIUse=3 WtCom= 8.86D-01 WtEn= 1.14D-01
 Coeff-Com:  0.812D-01 0.919D+00
 Coeff-En:   0.185D+00 0.815D+00
 Coeff:      0.931D-01 0.907D+00
 Gap=     0.458 Goal=   None    Shift=    0.000
 RMSDP=9.41D-04 MaxDP=1.39D-02 DE=-3.16D-02 OVMax= 1.00D-01

 Cycle   3  Pass 0  IDiag  1:
 E= -76.4215795087766     Delta-E=       -0.043986553093 Rises=F Damp=F
 DIIS: error= 2.15D-03 at cycle   3 NSaved=   3.
 NSaved= 3 IEnMin= 3 EnMin= -76.4215795087766     IErMin= 3 ErrMin= 2.15D-03
 ErrMax= 2.15D-03  0.00D+00 EMaxC= 1.00D-01 BMatC= 8.99D-05 BMatP= 4.79D-03
 IDIUse=3 WtCom= 9.78D-01 WtEn= 2.15D-02
 Coeff-Com: -0.200D-01 0.387D-01 0.981D+00
 Coeff-En:   0.000D+00 0.000D+00 0.100D+01
 Coeff:     -0.196D-01 0.379D-01 0.982D+00
 Gap=     0.463 Goal=   None    Shift=    0.000
 RMSDP=1.14D-04 MaxDP=1.01D-03 DE=-4.40D-02 OVMax= 3.30D-03

 Cycle   4  Pass 0  IDiag  1:
 E= -76.4216562012200     Delta-E=       -0.000076692443 Rises=F Damp=F
 DIIS: error= 4.09D-04 at cycle   4 NSaved=   4.
 NSaved= 4 IEnMin= 4 EnMin= -76.4216562012200     IErMin= 4 ErrMin= 4.09D-04
 ErrMax= 4.09D-04  0.00D+00 EMaxC= 1.00D-01 BMatC= 3.19D-06 BMatP= 8.99D-05
 IDIUse=3 WtCom= 9.96D-01 WtEn= 4.09D-03
 Coeff-Com: -0.181D-02-0.229D-02 0.160D+00 0.845D+00
 Coeff-En:   0.000D+00 0.000D+00 0.000D+00 0.100D+01
 Coeff:     -0.180D-02-0.228D-02 0.159D+00 0.845D+00
 Gap=     0.463 Goal=   None    Shift=    0.000
 RMSDP=2.20D-05 MaxDP=3.52D-04 DE=-7.67D-05 OVMax= 5.30D-04

 Cycle   5  Pass 0  IDiag  1:
 E= -76.4216581802096     Delta-E=       -0.000001978990 Rises=F Damp=F
 DIIS: error= 8.68D-05 at cycle   5 NSaved=   5.
 NSaved= 5 IEnMin= 5 EnMin= -76.4216581802096     IErMin= 5 ErrMin= 8.68D-05
 ErrMax= 8.68D-05  0.00D+00 EMaxC= 1.00D-01 BMatC= 8.03D-08 BMatP= 3.19D-06
 IDIUse=1 WtCom= 1.00D+00 WtEn= 0.00D+00
 Coeff-Com:  0.117D-02-0.179D-02-0.365D-01-0.596D-01 0.110D+01
 Coeff:      0.117D-02-0.179D-02-0.365D-01-0.596D-01 0.110D+01
 Gap=     0.463 Goal=   None    Shift=    0.000
 RMSDP=8.83D-06 MaxDP=1.00D-04 DE=-1.98D-06 OVMax= 1.98D-04

 Initial convergence to 1.0D-05 achieved.  Increase integral accuracy.
 Cycle   6  Pass 1  IDiag  1:
 E= -76.4216510794465     Delta-E=        0.000007100763 Rises=F Damp=F
 DIIS: error= 1.02D-05 at cycle   1 NSaved=   1.
 NSaved= 1 IEnMin= 1 EnMin= -76.4216510794465     IErMin= 1 ErrMin= 1.02D-05
 ErrMax= 1.02D-05  0.00D+00 EMaxC= 1.00D-01 BMatC= 5.60D-09 BMatP= 5.60D-09
 IDIUse=1 WtCom= 1.00D+00 WtEn= 0.00D+00
 Coeff-Com:  0.100D+01
 Coeff:      0.100D+01
 Gap=     0.463 Goal=   None    Shift=    0.000
 RMSDP=8.83D-06 MaxDP=1.00D-04 DE= 7.10D-06 OVMax= 3.99D-05

 Cycle   7  Pass 1  IDiag  1:
 E= -76.4216510842490     Delta-E=       -0.000000004803 Rises=F Damp=F
 DIIS: error= 7.24D-06 at cycle   2 NSaved=   2.
 NSaved= 2 IEnMin= 2 EnMin= -76.4216510842490     IErMin= 2 ErrMin= 7.24D-06
 ErrMax= 7.24D-06  0.00D+00 EMaxC= 1.00D-01 BMatC= 8.07D-10 BMatP= 5.60D-09
 IDIUse=1 WtCom= 1.00D+00 WtEn= 0.00D+00
 Coeff-Com:  0.125D+00 0.875D+00
 Coeff:      0.125D+00 0.875D+00
 Gap=     0.463 Goal=   None    Shift=    0.000
 RMSDP=5.77D-07 MaxDP=9.87D-06 DE=-4.80D-09 OVMax= 1.49D-05

 Cycle   8  Pass 1  IDiag  1:
 E= -76.4216510845499     Delta-E=       -0.000000000301 Rises=F Damp=F
 DIIS: error= 4.62D-06 at cycle   3 NSaved=   3.
 NSaved= 3 IEnMin= 3 EnMin= -76.4216510845499     IErMin= 3 ErrMin= 4.62D-06
 ErrMax= 4.62D-06  0.00D+00 EMaxC= 1.00D-01 BMatC= 5.83D-10 BMatP= 8.07D-10
 IDIUse=1 WtCom= 1.00D+00 WtEn= 0.00D+00
 Coeff-Com: -0.516D-01 0.469D+00 0.582D+00
 Coeff:     -0.516D-01 0.469D+00 0.582D+00
 Gap=     0.463 Goal=   None    Shift=    0.000
 RMSDP=2.93D-07 MaxDP=4.00D-06 DE=-3.01D-10 OVMax= 7.78D-06

 Cycle   9  Pass 1  IDiag  1:
 E= -76.4216510849493     Delta-E=       -0.000000000399 Rises=F Damp=F
 DIIS: error= 4.62D-07 at cycle   4 NSaved=   4.
 NSaved= 4 IEnMin= 4 EnMin= -76.4216510849493     IErMin= 4 ErrMin= 4.62D-07
 ErrMax= 4.62D-07  0.00D+00 EMaxC= 1.00D-01 BMatC= 2.89D-12 BMatP= 5.83D-10
 IDIUse=1 WtCom= 1.00D+00 WtEn= 0.00D+00
 Coeff-Com: -0.321D-02-0.485D-01-0.212D-01 0.107D+01
 Coeff:     -0.321D-02-0.485D-01-0.212D-01 0.107D+01
 Gap=     0.463 Goal=   None    Shift=    0.000
 RMSDP=6.77D-08 MaxDP=6.01D-07 DE=-3.99D-10 OVMax= 1.67D-06

 Cycle  10  Pass 1  IDiag  1:
 E= -76.4216510849554     Delta-E=       -0.000000000006 Rises=F Damp=F
 DIIS: error= 6.84D-08 at cycle   5 NSaved=   5.
 NSaved= 5 IEnMin= 5 EnMin= -76.4216510849554     IErMin= 5 ErrMin= 6.84D-08
 ErrMax= 6.84D-08  0.00D+00 EMaxC= 1.00D-01 BMatC= 1.56D-13 BMatP= 2.89D-12
 IDIUse=1 WtCom= 1.00D+00 WtEn= 0.00D+00
 Coeff-Com:  0.254D-02-0.341D-01-0.354D-01 0.109D+00 0.958D+00
 Coeff:      0.254D-02-0.341D-01-0.354D-01 0.109D+00 0.958D+00
 Gap=     0.463 Goal=   None    Shift=    0.000
 RMSDP=1.55D-08 MaxDP=1.40D-07 DE=-6.17D-12 OVMax= 4.20D-07

 Cycle  11  Pass 1  IDiag  1:
 E= -76.4216510849559     Delta-E=       -0.000000000000 Rises=F Damp=F
 DIIS: error= 1.01D-08 at cycle   6 NSaved=   6.
 NSaved= 6 IEnMin= 6 EnMin= -76.4216510849559     IErMin= 6 ErrMin= 1.01D-08
 ErrMax= 1.01D-08  0.00D+00 EMaxC= 1.00D-01 BMatC= 2.15D-15 BMatP= 1.56D-13
 IDIUse=1 WtCom= 1.00D+00 WtEn= 0.00D+00
 Coeff-Com:  0.126D-03 0.157D-03 0.301D-03-0.232D-01 0.170D-01 0.101D+01
 Coeff:      0.126D-03 0.157D-03 0.301D-03-0.232D-01 0.170D-01 0.101D+01
 Gap=     0.463 Goal=   None    Shift=    0.000
 RMSDP=1.76D-09 MaxDP=1.30D-08 DE=-4.55D-13 OVMax= 3.77D-08

 SCF Done:  E(RM062X) =  -76.4216510850     A.U. after   11 cycles
            NFock= 11  Conv=0.18D-08     -V/T= 2.0028
 KE= 7.620774107001D+01 PE=-1.991185885814D+02 EE= 3.735703498169D+01
 Leave Link  502 at Mon Feb 20 21:07:21 2023, MaxMem=  6710886400 cpu:               8.8 elap:               0.4
 (Enter /data0/home/software/g16/l601.exe)
 Copying SCF densities to generalized density rwf, IOpCl= 0 IROHF=0.

 **********************************************************************

            Population analysis using the SCF density.

 **********************************************************************

 Alpha  occ. eigenvalues --  -19.62595  -1.13542  -0.60706  -0.47711  -0.40030
 Alpha virt. eigenvalues --    0.06299   0.13377   0.17401   0.17938   0.18921
 Alpha virt. eigenvalues --    0.23350   0.51015   0.53960   0.97943   1.00207
 Alpha virt. eigenvalues --    1.06016   1.17764   1.20211   1.32120   1.33759
 Alpha virt. eigenvalues --    1.70543   1.74381   1.75670   2.07509   2.10090
 Alpha virt. eigenvalues --    2.36339   2.40410   2.54961   2.88386   3.02142
 Alpha virt. eigenvalues --    5.05681   5.49127   5.92863   6.78418   6.80043
 Alpha virt. eigenvalues --    6.87264   6.91613   7.09170  49.96090
          Condensed to atoms (all electrons):
              12         13         14
    12  O    7.913982   0.317424   0.321445
    13  H    0.317424   0.428576  -0.024222
    14  H    0.321445  -0.024222   0.428151
 Mulliken charges:
               1
     1  C    0.000000
     2  C    0.000000
     3  C    0.000000
     4  C    0.000000
     5  C    0.000000
     6  N    0.000000
     7  H    0.000000
     8  H    0.000000
     9  H    0.000000
    10  H    0.000000
    11  H    0.000000
    12  O   -0.552851
    13  H    0.278223
    14  H    0.274627
 Sum of Mulliken charges =  -0.00000
 Mulliken charges with hydrogens summed into heavy atoms:
               1
     1  C    0.000000
     2  C    0.000000
     3  C    0.000000
     4  C    0.000000
     5  C    0.000000
     6  N    0.000000
    12  O   -0.000000
         Mulliken charges condensed to fragments:
      1      0.000000
      2     -0.000000
 Electronic spatial extent (au):  <R**2>=          21706.5166
 Charge=             -0.0000 electrons
 Dipole moment (field-independent basis, Debye):
    X=             -0.7056    Y=              0.5411    Z=             -1.9340  Tot=              2.1286
 Quadrupole moment (field-independent basis, Debye-Ang):
   XX=            -22.6407   YY=             16.4069   ZZ=            -46.3922
   XY=             -7.0787   XZ=            -27.7441   YZ=            -31.9973
 Traceless Quadrupole moment (field-independent basis, Debye-Ang):
   XX=             -5.0987   YY=             33.9489   ZZ=            -28.8502
   XY=             -7.0787   XZ=            -27.7441   YZ=            -31.9973
 Octapole moment (field-independent basis, Debye-Ang**2):
  XXX=           -489.0204  YYY=            343.0397  ZZZ=           -819.6752  XYY=            -59.1048
  XXY=           -360.4735  XXZ=           -450.4497  XZZ=           -568.2800  YZZ=           -844.6585
  YYZ=           -562.0154  XYZ=           -470.8942
 Hexadecapole moment (field-independent basis, Debye-Ang**3):
 XXXX=          -8844.1252 YYYY=           5366.8332 ZZZZ=         -12701.1962 XXXY=          -8567.0582
 XXXZ=          -7347.2725 YYYX=           -609.1874 YYYZ=         -10712.7447 ZZZX=          -9519.1729
 ZZZY=         -15357.8111 XXYY=          -6013.2016 XXZZ=          -7662.4192 YYZZ=         -15825.4148
 XXYZ=          -7937.6533 YYXZ=          -8356.5845 ZZXY=         -10349.5157
 N-N= 9.132161444776D+00 E-N=-1.991185887135D+02  KE= 7.620774107001D+01
 No NMR shielding tensors so no spin-rotation constants.
 Leave Link  601 at Mon Feb 20 21:07:21 2023, MaxMem=  6710886400 cpu:               1.8 elap:               0.1
 (Enter /data0/home/software/g16/l122.exe)
 CPIOFr:  IOpCl= 0 IRwI=-1 IRwCP=  731 ICalc=  4 LCPTot=       83644 Len1MO=      218311 IndFrg=     1175199
 Restoring MOs from calculation   1 to rwf.
 CPIOFr:  IOpCl= 0 IRwI=-2 IRwCP=  731 ICalc=  0 LCPTot=       83644 Len1MO=      218311 IndFrg=      301955
 Counterpoise corrected energy =    -324.673300717708
                   BSSE energy =       0.001142542565
              sum of fragments =    -324.666492972903
           complexation energy =      -4.99 kcal/mole (raw)
           complexation energy =      -4.27 kcal/mole (corrected)
 Leave Link  122 at Mon Feb 20 21:07:21 2023, MaxMem=  6710886400 cpu:               0.1 elap:               0.0
 (Enter /data0/home/software/g16/l9999.exe)
 1\1\GINC-LOCALHOST\SP\RM062X\6-311+G(2d,p)\C5H7N1O1\WUHANYU\20-Feb-202
 3\0\\#p M062X/6-311+G(2d,p) nosymm em=GD3 counterpoise=2\\Title Card R
 equired\\0,1\C,0,8.801874,19.055509,7.393696\C,0,8.535987,18.953226,6.
 022791\C,0,9.604807,18.762089,5.149112\C,0,10.898615,18.678772,5.66077
 1\C,0,11.079312,18.791077,7.044344\N,0,10.049805,18.97665,7.892998\H,0
 ,9.430717,18.678212,4.076421\H,0,8.002357,19.204897,8.129366\H,0,7.516
 973,19.021205,5.652783\H,0,11.750867,18.529121,5.004014\H,0,12.072431,
 18.732503,7.508226\O,0,10.925159,19.506765,10.424757\H,0,10.496869,18.
 946198,9.74987\H,0,10.954232,20.363792,10.010851\\Version=ES64L-G16Rev
 A.03\HF=-76.4216511\RMSD=1.757e-09\Dipole=-0.5276256,0.0530577,-2.0535
 486\Quadrupole=9.4620879,29.2861966,-38.7482846,-18.1858933,-49.469534
 ,-72.2213956\PG=C01 [X(C5H7N1O1)]\\@


 I do not feel obliged to believe that the same God who
 has endowed us with sense, reason, and intellect has
 intended us to forgo their use.
                   --Galileo Galilei
 Job cpu time:       0 days  0 hours 17 minutes 54.9 seconds.
 Elapsed time:       0 days  0 hours  0 minutes 48.5 seconds.
 File lengths (MBytes):  RWF=     50 Int=      0 D2E=      0 Chk=     13 Scr=      1
 Normal termination of Gaussian 16 at Mon Feb 20 21:07:21 2023.
