 Entering Gaussian System, Link 0=g16
 Initial command:
 /data0/home/software/g16/l1.exe "/data0/home/software/g16/scratch/Gau-243853.inp" -scrdir="/data0/home/software/g16/scratch/"
 Default is to use a total of  22 processors:
                               22 via shared-memory
                                1 via Linda
 Entering Link 1 = /data0/home/software/g16/l1.exe PID=    243854.
  
 Copyright (c) 1988,1990,1992,1993,1995,1998,2003,2009,2016,
            Gaussian, Inc.  All Rights Reserved.
  
 This is part of the Gaussian(R) 16 program.  It is based on
 the Gaussian(R) 09 system (copyright 2009, Gaussian, Inc.),
 the Gaussian(R) 03 system (copyright 2003, Gaussian, Inc.),
 the Gaussian(R) 98 system (copyright 1998, Gaussian, Inc.),
 the Gaussian(R) 94 system (copyright 1995, Gaussian, Inc.),
 the Gaussian 92(TM) system (copyright 1992, Gaussian, Inc.),
 the Gaussian 90(TM) system (copyright 1990, Gaussian, Inc.),
 the Gaussian 88(TM) system (copyright 1988, Gaussian, Inc.),
 the Gaussian 86(TM) system (copyright 1986, Carnegie Mellon
 University), and the Gaussian 82(TM) system (copyright 1983,
 Carnegie Mellon University). Gaussian is a federally registered
 trademark of Gaussian, Inc.
  
 This software contains proprietary and confidential information,
 including trade secrets, belonging to Gaussian, Inc.
  
 This software is provided under written license and may be
 used, copied, transmitted, or stored only in accord with that
 written license.
  
 The following legend is applicable only to US Government
 contracts under FAR:
  
                    RESTRICTED RIGHTS LEGEND
  
 Use, reproduction and disclosure by the US Government is
 subject to restrictions as set forth in subparagraphs (a)
 and (c) of the Commercial Computer Software - Restricted
 Rights clause in FAR 52.227-19.
  
 Gaussian, Inc.
 340 Quinnipiac St., Bldg. 40, Wallingford CT 06492
  
  
 ---------------------------------------------------------------
 Warning -- This program may not be used in any manner that
 competes with the business of Gaussian, Inc. or will provide
 assistance to any competitor of Gaussian, Inc.  The licensee
 of this program is prohibited from giving any competitor of
 Gaussian, Inc. access to this program.  By using this program,
 the user acknowledges that Gaussian, Inc. is engaged in the
 business of creating and licensing software in the field of
 computational chemistry and represents and warrants to the
 licensee that it is not a competitor of Gaussian, Inc. and that
 it will not use this program in any manner prohibited above.
 ---------------------------------------------------------------
  

 Cite this work as:
 Gaussian 16, Revision A.03,
 M. J. Frisch, G. W. Trucks, H. B. Schlegel, G. E. Scuseria, 
 M. A. Robb, J. R. Cheeseman, G. Scalmani, V. Barone, 
 G. A. Petersson, H. Nakatsuji, X. Li, M. Caricato, A. V. Marenich, 
 J. Bloino, B. G. Janesko, R. Gomperts, B. Mennucci, H. P. Hratchian, 
 J. V. Ortiz, A. F. Izmaylov, J. L. Sonnenberg, D. Williams-Young, 
 F. Ding, F. Lipparini, F. Egidi, J. Goings, B. Peng, A. Petrone, 
 T. Henderson, D. Ranasinghe, V. G. Zakrzewski, J. Gao, N. Rega, 
 G. Zheng, W. Liang, M. Hada, M. Ehara, K. Toyota, R. Fukuda, 
 J. Hasegawa, M. Ishida, T. Nakajima, Y. Honda, O. Kitao, H. Nakai, 
 T. Vreven, K. Throssell, J. A. Montgomery, Jr., J. E. Peralta, 
 F. Ogliaro, M. J. Bearpark, J. J. Heyd, E. N. Brothers, K. N. Kudin, 
 V. N. Staroverov, T. A. Keith, R. Kobayashi, J. Normand, 
 K. Raghavachari, A. P. Rendell, J. C. Burant, S. S. Iyengar, 
 J. Tomasi, M. Cossi, J. M. Millam, M. Klene, C. Adamo, R. Cammi, 
 J. W. Ochterski, R. L. Martin, K. Morokuma, O. Farkas, 
 J. B. Foresman, and D. J. Fox, Gaussian, Inc., Wallingford CT, 2016.
 
 ******************************************
 Gaussian 16:  ES64L-G16RevA.03 25-Dec-2016
                17-Feb-2023 
 ******************************************
 %nproc=24
 Will use up to   24 processors via shared memory.
 %mem=50GB
 ---------------------------------------------------
 #p M062X/6-311+G(2d,p) nosymm em=GD3 counterpoise=2
 ---------------------------------------------------
 1/38=1,62=2,172=1/1;
 2/12=2,15=1,17=6,18=5,40=1/2;
 1/38=1,53=2,62=2,63=1/22;
 3/5=4,6=6,7=112,11=2,25=1,30=1,74=-55,124=31/1,2,3;
 4//1;
 5/5=2,38=5/2;
 6/7=2,8=2,9=2,10=2,28=1/1;
 1/53=2,62=2,63=1/22;
 3/5=7,6=11,7=112,11=2,25=1,30=1,74=-55,82=7,124=31/1,2,3;
 4//1;
 5/5=2,38=5/2;
 6/7=2,8=2,9=2,10=2,28=1/1;
 1/53=2,62=2,63=1/22(-4);
 99/5=1,9=1/99;
 Leave Link    1 at Fri Feb 17 23:49:48 2023, MaxMem=  6710886400 cpu:               0.7 elap:               0.0
 (Enter /data0/home/software/g16/l101.exe)
 -------------------
 Title Card Required
 -------------------
 Symbolic Z-matrix:
 Charge =  0 Multiplicity = 1 in supermolecule
 Charge =  0 Multiplicity = 1 in fragment      1.
 Charge =  0 Multiplicity = 1 in fragment      2.
 C                     7.98594   12.72277   14.01329    
 C                     6.94908   11.83256   14.3243    
 C                     5.65622   12.33272   14.45765    
 C                     5.42947   13.69669   14.27737    
 C                     6.51772   14.52016   13.96781    
 N                     7.76993   14.04045   13.84229    
 H                     4.82919   11.6657   14.69936    
 H                     9.02604   12.38163   13.89192    
 H                     7.15616   10.77471   14.45593    
 H                     4.43172   14.11369   14.37333    
 H                     6.40153   15.5989   13.81088    
 O                     10.71145   12.95589   8.78142    
 H                     10.35152   12.30706   9.39688    
 H                     11.66401   12.8783   8.8837     
 
 ITRead=  0  0  0  0  0  0  0  0  0  0  0  0  0  0
 MicOpt= -1 -1 -1 -1 -1 -1 -1 -1 -1 -1 -1 -1 -1 -1
 NAtoms=     14 NQM=       14 NQMF=       0 NMMI=      0 NMMIF=      0
                NMic=       0 NMicF=      0.
                    Isotopes and Nuclear Properties:
 (Nuclear quadrupole moments (NQMom) in fm**2, nuclear magnetic moments (NMagM)
  in nuclear magnetons)

  Atom         1           2           3           4           5           6           7           8           9          10
 IAtWgt=          12          12          12          12          12          14           1           1           1           1
 AtmWgt=  12.0000000  12.0000000  12.0000000  12.0000000  12.0000000  14.0030740   1.0078250   1.0078250   1.0078250   1.0078250
 NucSpn=           0           0           0           0           0           2           1           1           1           1
 AtZEff=  -0.0000000  -0.0000000  -0.0000000  -0.0000000  -0.0000000  -0.0000000  -0.0000000  -0.0000000  -0.0000000  -0.0000000
 NQMom=    0.0000000   0.0000000   0.0000000   0.0000000   0.0000000   2.0440000   0.0000000   0.0000000   0.0000000   0.0000000
 NMagM=    0.0000000   0.0000000   0.0000000   0.0000000   0.0000000   0.4037610   2.7928460   2.7928460   2.7928460   2.7928460
 AtZNuc=   6.0000000   6.0000000   6.0000000   6.0000000   6.0000000   7.0000000   1.0000000   1.0000000   1.0000000   1.0000000

  Atom        11          12          13          14
 IAtWgt=           1          16           1           1
 AtmWgt=   1.0078250  15.9949146   1.0078250   1.0078250
 NucSpn=           1           0           1           1
 AtZEff=  -0.0000000  -0.0000000  -0.0000000  -0.0000000
 NQMom=    0.0000000   0.0000000   0.0000000   0.0000000
 NMagM=    2.7928460   0.0000000   2.7928460   2.7928460
 AtZNuc=   1.0000000   8.0000000   1.0000000   1.0000000
 Leave Link  101 at Fri Feb 17 23:49:48 2023, MaxMem=  6710886400 cpu:               2.1 elap:               0.1
 (Enter /data0/home/software/g16/l202.exe)
                          Input orientation:                          
 ---------------------------------------------------------------------
 Center     Atomic      Atomic             Coordinates (Angstroms)
 Number     Number       Type             X           Y           Z
 ---------------------------------------------------------------------
      1          6           0        7.985942   12.722765   14.013287
      2          6           0        6.949082   11.832562   14.324303
      3          6           0        5.656219   12.332715   14.457650
      4          6           0        5.429465   13.696686   14.277371
      5          6           0        6.517722   14.520160   13.967808
      6          7           0        7.769928   14.040455   13.842294
      7          1           0        4.829188   11.665702   14.699362
      8          1           0        9.026037   12.381632   13.891924
      9          1           0        7.156161   10.774712   14.455931
     10          1           0        4.431720   14.113685   14.373329
     11          1           0        6.401533   15.598899   13.810883
     12          8           0       10.711450   12.955889    8.781419
     13          1           0       10.351519   12.307059    9.396880
     14          1           0       11.664012   12.878303    8.883697
 ---------------------------------------------------------------------
                    Distance matrix (angstroms):
                    1          2          3          4          5
     1  C    0.000000
     2  C    1.401525   0.000000
     3  C    2.403582   1.392634   0.000000
     4  C    2.748424   2.405493   1.394394   0.000000
     5  C    2.321286   2.745240   2.401468   1.399372   0.000000
     6  N    1.346183   2.404353   2.786181   2.405252   1.346808
     7  H    3.398996   2.159274   1.089638   2.159469   3.396211
     8  H    1.101317   2.191386   3.417325   3.848801   3.297075
     9  H    2.163188   1.085935   2.162684   3.398720   3.830698
    10  H    3.833638   3.397505   2.162952   1.085629   2.163579
    11  H    3.289904   3.840404   3.412002   2.186536   1.096268
    12  O    5.903828   6.792705   7.626487   7.658566   6.850761
    13  H    5.203843   6.006765   6.903470   7.069432   6.363112
    14  H    6.313880   7.274911   8.213416   8.284386   7.418098
                    6          7          8          9         10
     6  N    0.000000
     7  H    3.875819   0.000000
     8  H    2.081338   4.333365   0.000000
     9  H    3.379103   2.503582   2.529176   0.000000
    10  H    3.380975   2.501379   4.933509   4.310237   0.000000
    11  H    2.074184   4.328014   4.152758   4.925275   2.530290
    12  O    5.953259   8.443201   5.411806   7.042563   8.487930
    13  H    5.425033   7.682694   4.686991   6.176763   7.941849
    14  H    6.411098   9.055782   5.682247   7.469646   9.163421
                   11         12         13         14
    11  H    0.000000
    12  O    7.131367   0.000000
    13  H    6.776579   0.964014   0.000000
    14  H    7.705355   0.961174   1.520630   0.000000
 Symmetry turned off by external request.
 Stoichiometry    C5H7NO
 Framework group  C1[X(C5H7NO)]
 Deg. of freedom    36
 Full point group                 C1      NOp   1
 Rotational constants (GHZ):           4.0591008           0.6812901           0.6403529
 Leave Link  202 at Fri Feb 17 23:49:48 2023, MaxMem=  6710886400 cpu:               0.1 elap:               0.0
 (Enter /data0/home/software/g16/l122.exe)
 Counterpoise: doing full-system calculation.
 Leave Link  122 at Fri Feb 17 23:49:48 2023, MaxMem=  6710886400 cpu:               0.0 elap:               0.0
 (Enter /data0/home/software/g16/l301.exe)
 Standard basis: 6-311+G(2d,p) (5D, 7F)
 Ernie: Thresh=  0.10000D-02 Tol=  0.10000D-05 Strict=F.
   231 basis functions,   350 primitive gaussians,   245 cartesian basis functions
    26 alpha electrons       26 beta electrons
       nuclear repulsion energy       247.4304521961 Hartrees.
 IExCor= 4336 DFT=T Ex+Corr=M062X ExCW=0 ScaHFX=  0.540000
 ScaDFX=  1.000000  1.000000  1.000000  1.000000 ScalE2=  1.000000  1.000000
 IRadAn=      5 IRanWt=     -1 IRanGd=            0 ICorTp=0 IEmpDi=131
 NAtoms=   14 NActive=   14 NUniq=   14 SFac= 1.00D+00 NAtFMM=   60 NAOKFM=F Big=F
 Integral buffers will be    131072 words long.
 Raffenetti 2 integral format.
 Two-electron integral symmetry is turned off.
 R6Disp:  Grimme-D3 Dispersion energy=       -0.0001766118 Hartrees.
 Nuclear repulsion after empirical dispersion term =      247.4302755842 Hartrees.
 Leave Link  301 at Fri Feb 17 23:49:48 2023, MaxMem=  6710886400 cpu:               1.1 elap:               0.1
 (Enter /data0/home/software/g16/l302.exe)
 NPDir=0 NMtPBC=     1 NCelOv=     1 NCel=       1 NClECP=     1 NCelD=      1
         NCelK=      1 NCelE2=     1 NClLst=     1 CellRange=     0.0.
 One-electron integrals computed using PRISM.
 NBasis=   231 RedAO= T EigKep=  1.95D-05  NBF=   231
 NBsUse=   231 1.00D-06 EigRej= -1.00D+00 NBFU=   231
 Precomputing XC quadrature grid using
 IXCGrd= 4 IRadAn=           5 IRanWt=          -1 IRanGd=           0 AccXCQ= 0.00D+00.
 Generated NRdTot=       0 NPtTot=           0 NUsed=           0 NTot=          32
 NSgBfM=   243   243   243   243   243 MxSgAt=    14 MxSgA2=    14.
 Leave Link  302 at Fri Feb 17 23:49:49 2023, MaxMem=  6710886400 cpu:               3.7 elap:               0.2
 (Enter /data0/home/software/g16/l303.exe)
 DipDrv:  MaxL=1.
 Leave Link  303 at Fri Feb 17 23:49:49 2023, MaxMem=  6710886400 cpu:               0.6 elap:               0.0
 (Enter /data0/home/software/g16/l401.exe)
 ExpMin= 4.38D-02 ExpMax= 8.59D+03 ExpMxC= 1.30D+03 IAcc=3 IRadAn=         5 AccDes= 0.00D+00
 Harris functional with IExCor= 1009 and IRadAn=       5 diagonalized for initial guess.
 HarFok:  IExCor= 1009 AccDes= 0.00D+00 IRadAn=         5 IDoV= 1 UseB2=F ITyADJ=14
 ICtDFT=  3500011 ScaDFX=  1.000000  1.000000  1.000000  1.000000
 FoFCou: FMM=F IPFlag=           0 FMFlag=      100000 FMFlg1=           0
         NFxFlg=           0 DoJE=T BraDBF=F KetDBF=T FulRan=T
         wScrn=  0.000000 ICntrl=       500 IOpCl=  0 I1Cent=   200000004 NGrid=           0
         NMat0=    1 NMatS0=      1 NMatT0=    0 NMatD0=    1 NMtDS0=    0 NMtDT0=    0
 Symmetry not used in FoFCou.
 Harris En= -324.536039476904    
 JPrj=0 DoOrth=F DoCkMO=F.
 Leave Link  401 at Fri Feb 17 23:49:49 2023, MaxMem=  6710886400 cpu:               9.5 elap:               0.4
 (Enter /data0/home/software/g16/l502.exe)
 Two-electron integral symmetry not used.
 Closed shell SCF:
 Using DIIS extrapolation, IDIIS=  1040.
 NGot=  6710886400 LenX=  6710758667 LenY=  6710698201
 Requested convergence on RMS density matrix=1.00D-08 within 128 cycles.
 Requested convergence on MAX density matrix=1.00D-06.
 Requested convergence on             energy=1.00D-06.
 No special actions if energy rises.
 Fock matrices will be formed incrementally for  20 cycles.

 Cycle   1  Pass 1  IDiag  1:
 FoFJK:  IHMeth= 1 ICntrl=       0 DoSepK=F KAlg= 0 I1Cent=           0 FoldK=F
 IRaf= 860000000 NMat=       1 IRICut=       1 DoRegI=T DoRafI=F ISym2E= 0 IDoP0=0 IntGTp=1.
 FoFCou: FMM=F IPFlag=           0 FMFlag=      100000 FMFlg1=           0
         NFxFlg=           0 DoJE=F BraDBF=F KetDBF=F FulRan=T
         wScrn=  0.000000 ICntrl=         0 IOpCl=  0 I1Cent=           0 NGrid=           0
         NMat0=    1 NMatS0=      1 NMatT0=    0 NMatD0=    1 NMtDS0=    0 NMtDT0=    0
 Symmetry not used in FoFCou.
 E= -324.467682763087    
 DIIS: error= 5.47D-02 at cycle   1 NSaved=   1.
 NSaved= 1 IEnMin= 1 EnMin= -324.467682763087     IErMin= 1 ErrMin= 5.47D-02
 ErrMax= 5.47D-02  0.00D+00 EMaxC= 1.00D-01 BMatC= 2.73D-01 BMatP= 2.73D-01
 IDIUse=3 WtCom= 4.53D-01 WtEn= 5.47D-01
 Coeff-Com:  0.100D+01
 Coeff-En:   0.100D+01
 Coeff:      0.100D+01
 Gap=     0.339 Goal=   None    Shift=    0.000
 GapD=    0.339 DampG=1.000 DampE=0.500 DampFc=0.5000 IDamp=-1.
 Damping current iteration by 5.00D-01
 RMSDP=4.13D-03 MaxDP=1.12D-01              OVMax= 1.69D-01

 Cycle   2  Pass 1  IDiag  1:
 RMSU=  2.06D-03    CP:  9.88D-01
 E= -324.563347312600     Delta-E=       -0.095664549513 Rises=F Damp=T
 DIIS: error= 9.91D-03 at cycle   2 NSaved=   2.
 NSaved= 2 IEnMin= 2 EnMin= -324.563347312600     IErMin= 2 ErrMin= 9.91D-03
 ErrMax= 9.91D-03  0.00D+00 EMaxC= 1.00D-01 BMatC= 1.95D-02 BMatP= 2.73D-01
 IDIUse=3 WtCom= 9.01D-01 WtEn= 9.91D-02
 Coeff-Com: -0.419D-01 0.104D+01
 Coeff-En:   0.000D+00 0.100D+01
 Coeff:     -0.377D-01 0.104D+01
 Gap=     0.325 Goal=   None    Shift=    0.000
 RMSDP=1.07D-03 MaxDP=2.84D-02 DE=-9.57D-02 OVMax= 1.13D-01

 Cycle   3  Pass 1  IDiag  1:
 RMSU=  1.04D-03    CP:  9.78D-01  1.09D+00
 E= -324.662967052069     Delta-E=       -0.099619739469 Rises=F Damp=F
 DIIS: error= 1.05D-02 at cycle   3 NSaved=   3.
 NSaved= 3 IEnMin= 3 EnMin= -324.662967052069     IErMin= 2 ErrMin= 9.91D-03
 ErrMax= 1.05D-02  0.00D+00 EMaxC= 1.00D-01 BMatC= 5.32D-03 BMatP= 1.95D-02
 IDIUse=3 WtCom= 8.95D-01 WtEn= 1.05D-01
 Coeff-Com: -0.846D-01 0.336D+00 0.749D+00
 Coeff-En:   0.000D+00 0.000D+00 0.100D+01
 Coeff:     -0.757D-01 0.301D+00 0.775D+00
 Gap=     0.323 Goal=   None    Shift=    0.000
 RMSDP=4.21D-04 MaxDP=1.86D-02 DE=-9.96D-02 OVMax= 1.80D-02

 Cycle   4  Pass 1  IDiag  1:
 RMSU=  3.63D-04    CP:  9.69D-01  9.99D-01  1.01D+00
 E= -324.666167611076     Delta-E=       -0.003200559007 Rises=F Damp=F
 DIIS: error= 2.75D-03 at cycle   4 NSaved=   4.
 NSaved= 4 IEnMin= 4 EnMin= -324.666167611076     IErMin= 4 ErrMin= 2.75D-03
 ErrMax= 2.75D-03  0.00D+00 EMaxC= 1.00D-01 BMatC= 5.62D-04 BMatP= 5.32D-03
 IDIUse=3 WtCom= 9.73D-01 WtEn= 2.75D-02
 Coeff-Com: -0.266D-01 0.717D-01 0.319D+00 0.636D+00
 Coeff-En:   0.000D+00 0.000D+00 0.000D+00 0.100D+01
 Coeff:     -0.258D-01 0.698D-01 0.310D+00 0.646D+00
 Gap=     0.317 Goal=   None    Shift=    0.000
 RMSDP=9.12D-05 MaxDP=3.27D-03 DE=-3.20D-03 OVMax= 5.34D-03

 Cycle   5  Pass 1  IDiag  1:
 RMSU=  6.40D-05    CP:  9.69D-01  1.02D+00  1.02D+00  8.58D-01
 E= -324.666606769509     Delta-E=       -0.000439158433 Rises=F Damp=F
 DIIS: error= 4.60D-04 at cycle   5 NSaved=   5.
 NSaved= 5 IEnMin= 5 EnMin= -324.666606769509     IErMin= 5 ErrMin= 4.60D-04
 ErrMax= 4.60D-04  0.00D+00 EMaxC= 1.00D-01 BMatC= 2.53D-05 BMatP= 5.62D-04
 IDIUse=3 WtCom= 9.95D-01 WtEn= 4.60D-03
 Coeff-Com: -0.608D-02 0.112D-01 0.825D-01 0.255D+00 0.657D+00
 Coeff-En:   0.000D+00 0.000D+00 0.000D+00 0.000D+00 0.100D+01
 Coeff:     -0.605D-02 0.112D-01 0.821D-01 0.254D+00 0.659D+00
 Gap=     0.317 Goal=   None    Shift=    0.000
 RMSDP=3.80D-05 MaxDP=9.39D-04 DE=-4.39D-04 OVMax= 1.79D-03

 Cycle   6  Pass 1  IDiag  1:
 RMSU=  2.55D-05    CP:  9.70D-01  1.01D+00  1.02D+00  8.72D-01  7.45D-01
 E= -324.666627088930     Delta-E=       -0.000020319421 Rises=F Damp=F
 DIIS: error= 2.03D-04 at cycle   6 NSaved=   6.
 NSaved= 6 IEnMin= 6 EnMin= -324.666627088930     IErMin= 6 ErrMin= 2.03D-04
 ErrMax= 2.03D-04  0.00D+00 EMaxC= 1.00D-01 BMatC= 2.45D-06 BMatP= 2.53D-05
 IDIUse=3 WtCom= 9.98D-01 WtEn= 2.03D-03
 Coeff-Com: -0.178D-02 0.244D-02 0.273D-01 0.965D-01 0.317D+00 0.558D+00
 Coeff-En:   0.000D+00 0.000D+00 0.000D+00 0.000D+00 0.000D+00 0.100D+01
 Coeff:     -0.178D-02 0.243D-02 0.272D-01 0.963D-01 0.317D+00 0.559D+00
 Gap=     0.317 Goal=   None    Shift=    0.000
 RMSDP=7.22D-06 MaxDP=2.46D-04 DE=-2.03D-05 OVMax= 8.54D-04

 Cycle   7  Pass 1  IDiag  1:
 RMSU=  6.58D-06    CP:  9.70D-01  1.01D+00  1.02D+00  8.66D-01  7.72D-01
                    CP:  9.78D-01
 E= -324.666629290819     Delta-E=       -0.000002201889 Rises=F Damp=F
 DIIS: error= 5.98D-05 at cycle   7 NSaved=   7.
 NSaved= 7 IEnMin= 7 EnMin= -324.666629290819     IErMin= 7 ErrMin= 5.98D-05
 ErrMax= 5.98D-05  0.00D+00 EMaxC= 1.00D-01 BMatC= 2.93D-07 BMatP= 2.45D-06
 IDIUse=1 WtCom= 1.00D+00 WtEn= 0.00D+00
 Coeff-Com:  0.905D-03-0.199D-02-0.957D-02-0.261D-01-0.428D-01 0.239D+00
 Coeff-Com:  0.841D+00
 Coeff:      0.905D-03-0.199D-02-0.957D-02-0.261D-01-0.428D-01 0.239D+00
 Coeff:      0.841D+00
 Gap=     0.317 Goal=   None    Shift=    0.000
 RMSDP=6.57D-06 MaxDP=1.84D-04 DE=-2.20D-06 OVMax= 2.16D-04

 Cycle   8  Pass 1  IDiag  1:
 RMSU=  1.67D-06    CP:  9.70D-01  1.00D+00  1.02D+00  8.71D-01  7.69D-01
                    CP:  1.12D+00  9.05D-01
 E= -324.666629583953     Delta-E=       -0.000000293134 Rises=F Damp=F
 DIIS: error= 6.63D-06 at cycle   8 NSaved=   8.
 NSaved= 8 IEnMin= 8 EnMin= -324.666629583953     IErMin= 8 ErrMin= 6.63D-06
 ErrMax= 6.63D-06  0.00D+00 EMaxC= 1.00D-01 BMatC= 6.26D-09 BMatP= 2.93D-07
 IDIUse=1 WtCom= 1.00D+00 WtEn= 0.00D+00
 Coeff-Com:  0.301D-03-0.642D-03-0.339D-02-0.986D-02-0.206D-01 0.610D-01
 Coeff-Com:  0.227D+00 0.746D+00
 Coeff:      0.301D-03-0.642D-03-0.339D-02-0.986D-02-0.206D-01 0.610D-01
 Coeff:      0.227D+00 0.746D+00
 Gap=     0.317 Goal=   None    Shift=    0.000
 RMSDP=4.49D-07 MaxDP=1.79D-05 DE=-2.93D-07 OVMax= 2.78D-05

 Cycle   9  Pass 1  IDiag  1:
 RMSU=  3.56D-07    CP:  9.70D-01  1.00D+00  1.02D+00  8.71D-01  7.69D-01
                    CP:  1.13D+00  9.15D-01  1.06D+00
 E= -324.666629589454     Delta-E=       -0.000000005501 Rises=F Damp=F
 DIIS: error= 5.59D-06 at cycle   9 NSaved=   9.
 NSaved= 9 IEnMin= 9 EnMin= -324.666629589454     IErMin= 9 ErrMin= 5.59D-06
 ErrMax= 5.59D-06  0.00D+00 EMaxC= 1.00D-01 BMatC= 1.42D-09 BMatP= 6.26D-09
 IDIUse=1 WtCom= 1.00D+00 WtEn= 0.00D+00
 Coeff-Com: -0.489D-04 0.111D-03 0.426D-03 0.901D-03-0.654D-03-0.137D-01
 Coeff-Com: -0.618D-01 0.299D+00 0.776D+00
 Coeff:     -0.489D-04 0.111D-03 0.426D-03 0.901D-03-0.654D-03-0.137D-01
 Coeff:     -0.618D-01 0.299D+00 0.776D+00
 Gap=     0.317 Goal=   None    Shift=    0.000
 RMSDP=2.68D-07 MaxDP=5.85D-06 DE=-5.50D-09 OVMax= 2.76D-05

 Cycle  10  Pass 1  IDiag  1:
 RMSU=  1.45D-07    CP:  9.70D-01  1.00D+00  1.02D+00  8.71D-01  7.68D-01
                    CP:  1.13D+00  9.13D-01  1.14D+00  9.12D-01
 E= -324.666629591321     Delta-E=       -0.000000001867 Rises=F Damp=F
 DIIS: error= 1.37D-06 at cycle  10 NSaved=  10.
 NSaved=10 IEnMin=10 EnMin= -324.666629591321     IErMin=10 ErrMin= 1.37D-06
 ErrMax= 1.37D-06  0.00D+00 EMaxC= 1.00D-01 BMatC= 1.26D-10 BMatP= 1.42D-09
 IDIUse=1 WtCom= 1.00D+00 WtEn= 0.00D+00
 Coeff-Com: -0.239D-04 0.537D-04 0.237D-03 0.606D-03 0.255D-03-0.558D-02
 Coeff-Com: -0.267D-01 0.262D-01 0.264D+00 0.741D+00
 Coeff:     -0.239D-04 0.537D-04 0.237D-03 0.606D-03 0.255D-03-0.558D-02
 Coeff:     -0.267D-01 0.262D-01 0.264D+00 0.741D+00
 Gap=     0.317 Goal=   None    Shift=    0.000
 RMSDP=5.95D-08 MaxDP=1.88D-06 DE=-1.87D-09 OVMax= 7.21D-06

 Cycle  11  Pass 1  IDiag  1:
 RMSU=  4.69D-08    CP:  9.70D-01  1.00D+00  1.02D+00  8.71D-01  7.68D-01
                    CP:  1.13D+00  9.13D-01  1.15D+00  9.98D-01  1.02D+00
 E= -324.666629591450     Delta-E=       -0.000000000129 Rises=F Damp=F
 DIIS: error= 6.32D-07 at cycle  11 NSaved=  11.
 NSaved=11 IEnMin=11 EnMin= -324.666629591450     IErMin=11 ErrMin= 6.32D-07
 ErrMax= 6.32D-07  0.00D+00 EMaxC= 1.00D-01 BMatC= 4.02D-11 BMatP= 1.26D-10
 IDIUse=1 WtCom= 1.00D+00 WtEn= 0.00D+00
 Coeff-Com: -0.219D-05 0.538D-05 0.386D-04 0.138D-03 0.169D-03-0.878D-04
 Coeff-Com: -0.242D-02-0.605D-01-0.648D-02 0.420D+00 0.649D+00
 Coeff:     -0.219D-05 0.538D-05 0.386D-04 0.138D-03 0.169D-03-0.878D-04
 Coeff:     -0.242D-02-0.605D-01-0.648D-02 0.420D+00 0.649D+00
 Gap=     0.317 Goal=   None    Shift=    0.000
 RMSDP=2.80D-08 MaxDP=1.11D-06 DE=-1.29D-10 OVMax= 2.30D-06

 Cycle  12  Pass 1  IDiag  1:
 RMSU=  1.75D-08    CP:  9.70D-01  1.00D+00  1.02D+00  8.71D-01  7.68D-01
                    CP:  1.13D+00  9.12D-01  1.16D+00  1.02D+00  1.13D+00
                    CP:  8.79D-01
 E= -324.666629591492     Delta-E=       -0.000000000042 Rises=F Damp=F
 DIIS: error= 1.03D-07 at cycle  12 NSaved=  12.
 NSaved=12 IEnMin=12 EnMin= -324.666629591492     IErMin=12 ErrMin= 1.03D-07
 ErrMax= 1.03D-07  0.00D+00 EMaxC= 1.00D-01 BMatC= 6.66D-13 BMatP= 4.02D-11
 IDIUse=1 WtCom= 1.00D+00 WtEn= 0.00D+00
 Coeff-Com:  0.183D-05-0.387D-05-0.971D-05-0.262D-04 0.159D-04 0.683D-03
 Coeff-Com:  0.181D-02-0.916D-02-0.147D-01-0.240D-01 0.824D-02 0.104D+01
 Coeff:      0.183D-05-0.387D-05-0.971D-05-0.262D-04 0.159D-04 0.683D-03
 Coeff:      0.181D-02-0.916D-02-0.147D-01-0.240D-01 0.824D-02 0.104D+01
 Gap=     0.317 Goal=   None    Shift=    0.000
 RMSDP=8.60D-09 MaxDP=1.77D-07 DE=-4.16D-11 OVMax= 6.79D-07

 SCF Done:  E(RM062X) =  -324.666629591     A.U. after   12 cycles
            NFock= 12  Conv=0.86D-08     -V/T= 2.0043
 KE= 3.232732982596D+02 PE=-1.252180381263D+03 EE= 3.568101778282D+02
 Leave Link  502 at Fri Feb 17 23:49:59 2023, MaxMem=  6710886400 cpu:             248.4 elap:              10.4
 (Enter /data0/home/software/g16/l601.exe)
 Copying SCF densities to generalized density rwf, IOpCl= 0 IROHF=0.

 **********************************************************************

            Population analysis using the SCF density.

 **********************************************************************

 Alpha  occ. eigenvalues --  -19.62145 -14.75159 -10.58568 -10.58420 -10.56765
 Alpha  occ. eigenvalues --  -10.55845 -10.55796  -1.13141  -1.05106  -0.90803
 Alpha  occ. eigenvalues --   -0.86364  -0.71937  -0.71564  -0.60976  -0.60583
 Alpha  occ. eigenvalues --   -0.55311  -0.54818  -0.50254  -0.47509  -0.47370
 Alpha  occ. eigenvalues --   -0.47146  -0.43201  -0.39621  -0.34903  -0.32626
 Alpha  occ. eigenvalues --   -0.32216
 Alpha virt. eigenvalues --   -0.00486   0.00509   0.00832   0.02013   0.02761
 Alpha virt. eigenvalues --    0.04217   0.05086   0.05457   0.06946   0.07267
 Alpha virt. eigenvalues --    0.09050   0.09204   0.09614   0.09850   0.12928
 Alpha virt. eigenvalues --    0.13269   0.13624   0.14148   0.14498   0.15289
 Alpha virt. eigenvalues --    0.16665   0.18029   0.18277   0.18952   0.19519
 Alpha virt. eigenvalues --    0.19720   0.20458   0.20983   0.21935   0.22532
 Alpha virt. eigenvalues --    0.23065   0.24347   0.25171   0.25577   0.26822
 Alpha virt. eigenvalues --    0.28595   0.29387   0.32081   0.33525   0.34510
 Alpha virt. eigenvalues --    0.35143   0.36164   0.46295   0.49299   0.50353
 Alpha virt. eigenvalues --    0.51343   0.52535   0.54015   0.54232   0.54859
 Alpha virt. eigenvalues --    0.55500   0.57840   0.58745   0.59629   0.60559
 Alpha virt. eigenvalues --    0.64133   0.64652   0.65094   0.65816   0.66147
 Alpha virt. eigenvalues --    0.67759   0.69092   0.73139   0.76608   0.77212
 Alpha virt. eigenvalues --    0.79666   0.80659   0.82695   0.82897   0.84060
 Alpha virt. eigenvalues --    0.84247   0.84525   0.86183   0.88432   0.90051
 Alpha virt. eigenvalues --    0.91288   0.95016   0.96545   0.97192   0.99385
 Alpha virt. eigenvalues --    1.01110   1.03564   1.07693   1.08368   1.16417
 Alpha virt. eigenvalues --    1.17516   1.19172   1.20069   1.20902   1.21592
 Alpha virt. eigenvalues --    1.27886   1.31677   1.32997   1.34965   1.35280
 Alpha virt. eigenvalues --    1.35441   1.35748   1.38462   1.38808   1.44124
 Alpha virt. eigenvalues --    1.44416   1.49698   1.50548   1.52410   1.53070
 Alpha virt. eigenvalues --    1.56192   1.61664   1.63711   1.68258   1.70617
 Alpha virt. eigenvalues --    1.73537   1.75172   1.77195   1.83750   1.86280
 Alpha virt. eigenvalues --    1.90312   1.93857   1.99514   2.01965   2.09052
 Alpha virt. eigenvalues --    2.09560   2.17228   2.17416   2.25555   2.37159
 Alpha virt. eigenvalues --    2.39431   2.41068   2.43331   2.47540   2.50805
 Alpha virt. eigenvalues --    2.55550   2.64204   2.67700   2.69721   2.74930
 Alpha virt. eigenvalues --    2.75684   2.76152   2.81463   2.83758   2.87492
 Alpha virt. eigenvalues --    2.87639   2.89477   2.89985   3.00932   3.03049
 Alpha virt. eigenvalues --    3.06520   3.08028   3.10630   3.11793   3.13757
 Alpha virt. eigenvalues --    3.21017   3.22127   3.28118   3.28257   3.28671
 Alpha virt. eigenvalues --    3.29019   3.35750   3.42318   3.42621   3.46100
 Alpha virt. eigenvalues --    3.53687   3.54927   3.56687   3.57164   3.57413
 Alpha virt. eigenvalues --    3.59195   3.60475   3.65356   3.71443   3.71599
 Alpha virt. eigenvalues --    3.76279   3.79205   3.81189   3.85589   3.89606
 Alpha virt. eigenvalues --    3.95691   3.96584   3.98942   4.03289   4.45319
 Alpha virt. eigenvalues --    4.50576   4.54267   4.81293   4.95533   4.99899
 Alpha virt. eigenvalues --    5.05183   5.06952   5.13017   5.23005   5.49215
 Alpha virt. eigenvalues --    5.56843   5.61240   5.94816   6.78661   6.80630
 Alpha virt. eigenvalues --    6.87524   6.91936   7.09679  23.81093  24.05171
 Alpha virt. eigenvalues --   24.06380  24.09584  24.13579  35.73652  49.96916
          Condensed to atoms (all electrons):
               1          2          3          4          5          6
     1  C    5.235182   0.279833   0.080468  -0.219654   0.120043   0.236902
     2  C    0.279833   4.970409   0.442086   0.076323  -0.215035   0.120291
     3  C    0.080468   0.442086   4.904733   0.465755   0.075706  -0.099990
     4  C   -0.219654   0.076323   0.465755   4.944354   0.297211   0.116263
     5  C    0.120043  -0.215035   0.075706   0.297211   5.182724   0.242788
     6  N    0.236902   0.120291  -0.099990   0.116263   0.242788   6.704760
     7  H   -0.001268  -0.009639   0.365068  -0.009090  -0.000865   0.000296
     8  H    0.449263  -0.073915   0.017758  -0.010899   0.017836  -0.075026
     9  H   -0.020295   0.375738  -0.025791   0.011877  -0.001250   0.002917
    10  H   -0.001192   0.012497  -0.027359   0.375668  -0.018983   0.002992
    11  H    0.018577  -0.010547   0.018060  -0.069787   0.444037  -0.072649
    12  O    0.002006  -0.000178   0.000046   0.000012  -0.000433  -0.000417
    13  H    0.000550  -0.000369  -0.000041  -0.000011   0.000028   0.000001
    14  H   -0.000070   0.000008  -0.000013   0.000003   0.000018   0.000021
               7          8          9         10         11         12
     1  C   -0.001268   0.449263  -0.020295  -0.001192   0.018577   0.002006
     2  C   -0.009639  -0.073915   0.375738   0.012497  -0.010547  -0.000178
     3  C    0.365068   0.017758  -0.025791  -0.027359   0.018060   0.000046
     4  C   -0.009090  -0.010899   0.011877   0.375668  -0.069787   0.000012
     5  C   -0.000865   0.017836  -0.001250  -0.018983   0.444037  -0.000433
     6  N    0.000296  -0.075026   0.002917   0.002992  -0.072649  -0.000417
     7  H    0.532207  -0.000260  -0.004439  -0.004380  -0.000260   0.000000
     8  H   -0.000260   0.545316  -0.002067   0.000096   0.000041  -0.000043
     9  H   -0.004439  -0.002067   0.531172  -0.000235   0.000096   0.000000
    10  H   -0.004380   0.000096  -0.000235   0.529340  -0.002124  -0.000000
    11  H   -0.000260   0.000041   0.000096  -0.002124   0.540990  -0.000000
    12  O    0.000000  -0.000043   0.000000  -0.000000  -0.000000   7.909331
    13  H   -0.000000  -0.000014   0.000000   0.000000   0.000000   0.321978
    14  H    0.000000  -0.000001  -0.000000   0.000000  -0.000000   0.321931
              13         14
     1  C    0.000550  -0.000070
     2  C   -0.000369   0.000008
     3  C   -0.000041  -0.000013
     4  C   -0.000011   0.000003
     5  C    0.000028   0.000018
     6  N    0.000001   0.000021
     7  H   -0.000000   0.000000
     8  H   -0.000014  -0.000001
     9  H    0.000000  -0.000000
    10  H    0.000000   0.000000
    11  H    0.000000  -0.000000
    12  O    0.321978   0.321931
    13  H    0.423404  -0.024809
    14  H   -0.024809   0.426698
 Mulliken charges:
               1
     1  C   -0.180346
     2  C    0.032498
     3  C   -0.216484
     4  C    0.021977
     5  C   -0.143824
     6  N   -0.179148
     7  H    0.132630
     8  H    0.131916
     9  H    0.132274
    10  H    0.133680
    11  H    0.133566
    12  O   -0.554233
    13  H    0.279282
    14  H    0.276214
 Sum of Mulliken charges =  -0.00000
 Mulliken charges with hydrogens summed into heavy atoms:
               1
     1  C   -0.048431
     2  C    0.164772
     3  C   -0.083855
     4  C    0.155657
     5  C   -0.010258
     6  N   -0.179148
    12  O    0.001262
         Mulliken charges condensed to fragments:
      1     -0.001262
      2      0.001262
 Electronic spatial extent (au):  <R**2>=          76167.4441
 Charge=             -0.0000 electrons
 Dipole moment (field-independent basis, Debye):
    X=             -0.7109    Y=             -2.6065    Z=              1.7770  Tot=              3.2337
 Quadrupole moment (field-independent basis, Debye-Ang):
   XX=            -39.3163   YY=           -106.6691   ZZ=             -8.6078
   XY=            -35.3112   XZ=              0.6664   YZ=             -8.4405
 Traceless Quadrupole moment (field-independent basis, Debye-Ang):
   XX=             12.2148   YY=            -55.1380   ZZ=             42.9232
   XY=            -35.3112   XZ=              0.6664   YZ=             -8.4405
 Octapole moment (field-independent basis, Debye-Ang**2):
  XXX=           -705.2540  YYY=          -2855.1067  ZZZ=          -1215.5357  XYY=          -1091.3340
  XXY=           -772.8037  XXZ=           -492.7090  XZZ=           -281.1112  YZZ=           -513.6161
  YYZ=          -1034.3745  XYZ=           -301.5065
 Hexadecapole moment (field-independent basis, Debye-Ang**3):
 XXXX=          -9601.5836 YYYY=         -63471.7413 ZZZZ=         -40324.0789 XXXY=         -11768.4960
 XXXZ=          -9502.5737 YYYX=         -26331.2868 YYYZ=         -32385.4347 ZZZX=         -12187.3558
 ZZZY=         -21177.8403 XXYY=         -15840.5297 XXZZ=          -9608.8762 YYZZ=         -18926.0729
 XXYZ=          -9479.6189 YYXZ=         -11712.5693 ZZXY=          -7505.4231
 N-N= 2.474302755842D+02 E-N=-1.252180383598D+03  KE= 3.232732982596D+02
 No NMR shielding tensors so no spin-rotation constants.
 Leave Link  601 at Fri Feb 17 23:50:00 2023, MaxMem=  6710886400 cpu:               2.1 elap:               0.1
 (Enter /data0/home/software/g16/l122.exe)
 CPIOFr:  IOpCl= 0 IRwI=-1 IRwCP=  731 ICalc= -1 LCPTot=       83644 Len1MO=      218311 IndFrg=       83644
 CPIOFr:  IOpCl= 0 IRwI=-1 IRwCP=  731 ICalc=  0 LCPTot=       83644 Len1MO=      218311 IndFrg=      301955
 Counterpoise: doing calculation for fragment   1 using the basis set of the full-system, NewBq=T
 Leave Link  122 at Fri Feb 17 23:50:00 2023, MaxMem=  6710886400 cpu:               0.2 elap:               0.0
 (Enter /data0/home/software/g16/l301.exe)
 Basis read from rwf:  (5D, 7F)
 No pseudopotential information found on rwf file.
   231 basis functions,   350 primitive gaussians,   245 cartesian basis functions
    21 alpha electrons       21 beta electrons
       nuclear repulsion energy       205.2295186574 Hartrees.
 IExCor= 4336 DFT=T Ex+Corr=M062X ExCW=0 ScaHFX=  0.540000
 ScaDFX=  1.000000  1.000000  1.000000  1.000000 ScalE2=  1.000000  1.000000
 IRadAn=      5 IRanWt=     -1 IRanGd=            0 ICorTp=0 IEmpDi=131
 NAtoms=   14 NActive=   14 NUniq=   14 SFac= 1.00D+00 NAtFMM=   60 NAOKFM=F Big=F
 Integral buffers will be    131072 words long.
 Raffenetti 2 integral format.
 Two-electron integral symmetry is turned off.
 R6Disp:  Grimme-D3 Dispersion energy=       -0.0000989618 Hartrees.
 Nuclear repulsion after empirical dispersion term =      205.2294196956 Hartrees.
 No density basis found on file   718.
 Leave Link  301 at Fri Feb 17 23:50:00 2023, MaxMem=  6710886400 cpu:               1.3 elap:               0.1
 (Enter /data0/home/software/g16/l302.exe)
 NPDir=0 NMtPBC=     1 NCelOv=     1 NCel=       1 NClECP=     1 NCelD=      1
         NCelK=      1 NCelE2=     1 NClLst=     1 CellRange=     0.0.
 One-electron integrals computed using PRISM.
 NBasis=   231 RedAO= T EigKep=  1.95D-05  NBF=   231
 NBsUse=   231 1.00D-06 EigRej= -1.00D+00 NBFU=   231
 Precomputing XC quadrature grid using
 IXCGrd= 4 IRadAn=           5 IRanWt=          -1 IRanGd=           0 AccXCQ= 0.00D+00.
 Generated NRdTot=       0 NPtTot=           0 NUsed=           0 NTot=          32
 NSgBfM=   243   243   243   243   243 MxSgAt=    14 MxSgA2=    14.
 Leave Link  302 at Fri Feb 17 23:50:00 2023, MaxMem=  6710886400 cpu:               3.7 elap:               0.2
 (Enter /data0/home/software/g16/l303.exe)
 DipDrv:  MaxL=1.
 Leave Link  303 at Fri Feb 17 23:50:00 2023, MaxMem=  6710886400 cpu:               0.6 elap:               0.0
 (Enter /data0/home/software/g16/l401.exe)
 ExpMin= 4.38D-02 ExpMax= 8.59D+03 ExpMxC= 1.30D+03 IAcc=3 IRadAn=         5 AccDes= 0.00D+00
 Harris functional with IExCor= 1009 and IRadAn=       5 diagonalized for initial guess.
 HarFok:  IExCor= 1009 AccDes= 0.00D+00 IRadAn=         5 IDoV= 1 UseB2=F ITyADJ=14
 ICtDFT=  3500011 ScaDFX=  1.000000  1.000000  1.000000  1.000000
 FoFCou: FMM=F IPFlag=           0 FMFlag=      100000 FMFlg1=           0
         NFxFlg=           0 DoJE=T BraDBF=F KetDBF=T FulRan=T
         wScrn=  0.000000 ICntrl=       500 IOpCl=  0 I1Cent=   200000004 NGrid=           0
         NMat0=    1 NMatS0=      1 NMatT0=    0 NMatD0=    1 NMtDS0=    0 NMtDT0=    0
 Symmetry not used in FoFCou.
 Harris En= -248.118886024803    
 JPrj=0 DoOrth=F DoCkMO=F.
 Leave Link  401 at Fri Feb 17 23:50:00 2023, MaxMem=  6710886400 cpu:               9.3 elap:               0.4
 (Enter /data0/home/software/g16/l502.exe)
 Two-electron integral symmetry not used.
 Closed shell SCF:
 Using DIIS extrapolation, IDIIS=  1040.
 NGot=  6710886400 LenX=  6710758667 LenY=  6710698201
 Requested convergence on RMS density matrix=1.00D-08 within 128 cycles.
 Requested convergence on MAX density matrix=1.00D-06.
 Requested convergence on             energy=1.00D-06.
 No special actions if energy rises.
 Fock matrices will be formed incrementally for  20 cycles.

 Cycle   1  Pass 1  IDiag  1:
 FoFJK:  IHMeth= 1 ICntrl=       0 DoSepK=F KAlg= 0 I1Cent=           0 FoldK=F
 IRaf= 860000000 NMat=       1 IRICut=       1 DoRegI=T DoRafI=F ISym2E= 0 IDoP0=0 IntGTp=1.
 FoFCou: FMM=F IPFlag=           0 FMFlag=      100000 FMFlg1=           0
         NFxFlg=           0 DoJE=F BraDBF=F KetDBF=F FulRan=T
         wScrn=  0.000000 ICntrl=         0 IOpCl=  0 I1Cent=           0 NGrid=           0
         NMat0=    1 NMatS0=      1 NMatT0=    0 NMatD0=    1 NMtDS0=    0 NMtDT0=    0
 Symmetry not used in FoFCou.
 E= -248.121852043785    
 DIIS: error= 3.94D-02 at cycle   1 NSaved=   1.
 NSaved= 1 IEnMin= 1 EnMin= -248.121852043785     IErMin= 1 ErrMin= 3.94D-02
 ErrMax= 3.94D-02  0.00D+00 EMaxC= 1.00D-01 BMatC= 1.51D-01 BMatP= 1.51D-01
 IDIUse=3 WtCom= 6.06D-01 WtEn= 3.94D-01
 Coeff-Com:  0.100D+01
 Coeff-En:   0.100D+01
 Coeff:      0.100D+01
 Gap=     0.339 Goal=   None    Shift=    0.000
 GapD=    0.339 DampG=1.000 DampE=0.500 DampFc=0.5000 IDamp=-1.
 Damping current iteration by 5.00D-01
 RMSDP=3.70D-03 MaxDP=8.90D-02              OVMax= 1.39D-01

 Cycle   2  Pass 1  IDiag  1:
 RMSU=  1.85D-03    CP:  9.91D-01
 E= -248.185752075080     Delta-E=       -0.063900031295 Rises=F Damp=T
 DIIS: error= 9.91D-03 at cycle   2 NSaved=   2.
 NSaved= 2 IEnMin= 2 EnMin= -248.185752075080     IErMin= 2 ErrMin= 9.91D-03
 ErrMax= 9.91D-03  0.00D+00 EMaxC= 1.00D-01 BMatC= 1.47D-02 BMatP= 1.51D-01
 IDIUse=3 WtCom= 9.01D-01 WtEn= 9.91D-02
 Coeff-Com: -0.223D+00 0.122D+01
 Coeff-En:   0.000D+00 0.100D+01
 Coeff:     -0.201D+00 0.120D+01
 Gap=     0.338 Goal=   None    Shift=    0.000
 RMSDP=1.02D-03 MaxDP=2.48D-02 DE=-6.39D-02 OVMax= 7.63D-02

 Cycle   3  Pass 1  IDiag  1:
 RMSU=  9.80D-04    CP:  9.76D-01  1.12D+00
 E= -248.242234886823     Delta-E=       -0.056482811742 Rises=F Damp=F
 DIIS: error= 4.98D-03 at cycle   3 NSaved=   3.
 NSaved= 3 IEnMin= 3 EnMin= -248.242234886823     IErMin= 3 ErrMin= 4.98D-03
 ErrMax= 4.98D-03  0.00D+00 EMaxC= 1.00D-01 BMatC= 2.57D-03 BMatP= 1.47D-02
 IDIUse=3 WtCom= 9.50D-01 WtEn= 4.98D-02
 Coeff-Com: -0.131D+00 0.391D+00 0.741D+00
 Coeff-En:   0.000D+00 0.000D+00 0.100D+01
 Coeff:     -0.125D+00 0.371D+00 0.754D+00
 Gap=     0.324 Goal=   None    Shift=    0.000
 RMSDP=3.07D-04 MaxDP=1.23D-02 DE=-5.65D-02 OVMax= 2.29D-02

 Cycle   4  Pass 1  IDiag  1:
 RMSU=  2.85D-04    CP:  9.67D-01  1.08D+00  1.02D+00
 E= -248.244438952353     Delta-E=       -0.002204065530 Rises=F Damp=F
 DIIS: error= 2.37D-03 at cycle   4 NSaved=   4.
 NSaved= 4 IEnMin= 4 EnMin= -248.244438952353     IErMin= 4 ErrMin= 2.37D-03
 ErrMax= 2.37D-03  0.00D+00 EMaxC= 1.00D-01 BMatC= 2.71D-04 BMatP= 2.57D-03
 IDIUse=3 WtCom= 9.76D-01 WtEn= 2.37D-02
 Coeff-Com: -0.445D-01 0.111D+00 0.321D+00 0.612D+00
 Coeff-En:   0.000D+00 0.000D+00 0.000D+00 0.100D+01
 Coeff:     -0.435D-01 0.108D+00 0.314D+00 0.621D+00
 Gap=     0.317 Goal=   None    Shift=    0.000
 RMSDP=8.32D-05 MaxDP=2.74D-03 DE=-2.20D-03 OVMax= 9.05D-03

 Cycle   5  Pass 1  IDiag  1:
 RMSU=  5.81D-05    CP:  9.67D-01  1.10D+00  1.00D+00  8.13D-01
 E= -248.244682818527     Delta-E=       -0.000243866175 Rises=F Damp=F
 DIIS: error= 8.85D-04 at cycle   5 NSaved=   5.
 NSaved= 5 IEnMin= 5 EnMin= -248.244682818527     IErMin= 5 ErrMin= 8.85D-04
 ErrMax= 8.85D-04  0.00D+00 EMaxC= 1.00D-01 BMatC= 3.81D-05 BMatP= 2.71D-04
 IDIUse=3 WtCom= 9.91D-01 WtEn= 8.85D-03
 Coeff-Com: -0.113D-01 0.229D-01 0.956D-01 0.319D+00 0.573D+00
 Coeff-En:   0.000D+00 0.000D+00 0.000D+00 0.683D-01 0.932D+00
 Coeff:     -0.112D-01 0.227D-01 0.948D-01 0.317D+00 0.577D+00
 Gap=     0.317 Goal=   None    Shift=    0.000
 RMSDP=4.21D-05 MaxDP=1.02D-03 DE=-2.44D-04 OVMax= 2.53D-03

 Cycle   6  Pass 1  IDiag  1:
 RMSU=  2.64D-05    CP:  9.67D-01  1.08D+00  1.01D+00  8.36D-01  7.09D-01
 E= -248.244721419459     Delta-E=       -0.000038600932 Rises=F Damp=F
 DIIS: error= 1.69D-04 at cycle   6 NSaved=   6.
 NSaved= 6 IEnMin= 6 EnMin= -248.244721419459     IErMin= 6 ErrMin= 1.69D-04
 ErrMax= 1.69D-04  0.00D+00 EMaxC= 1.00D-01 BMatC= 1.72D-06 BMatP= 3.81D-05
 IDIUse=3 WtCom= 9.98D-01 WtEn= 1.69D-03
 Coeff-Com: -0.355D-02 0.650D-02 0.323D-01 0.122D+00 0.271D+00 0.572D+00
 Coeff-En:   0.000D+00 0.000D+00 0.000D+00 0.000D+00 0.000D+00 0.100D+01
 Coeff:     -0.355D-02 0.648D-02 0.322D-01 0.122D+00 0.270D+00 0.573D+00
 Gap=     0.317 Goal=   None    Shift=    0.000
 RMSDP=6.03D-06 MaxDP=2.42D-04 DE=-3.86D-05 OVMax= 6.13D-04

 Cycle   7  Pass 1  IDiag  1:
 RMSU=  5.07D-06    CP:  9.68D-01  1.08D+00  1.01D+00  8.31D-01  7.49D-01
                    CP:  1.04D+00
 E= -248.244722873701     Delta-E=       -0.000001454242 Rises=F Damp=F
 DIIS: error= 3.40D-05 at cycle   7 NSaved=   7.
 NSaved= 7 IEnMin= 7 EnMin= -248.244722873701     IErMin= 7 ErrMin= 3.40D-05
 ErrMax= 3.40D-05  0.00D+00 EMaxC= 1.00D-01 BMatC= 1.84D-07 BMatP= 1.72D-06
 IDIUse=1 WtCom= 1.00D+00 WtEn= 0.00D+00
 Coeff-Com:  0.146D-02-0.320D-02-0.104D-01-0.314D-01-0.319D-01 0.226D+00
 Coeff-Com:  0.850D+00
 Coeff:      0.146D-02-0.320D-02-0.104D-01-0.314D-01-0.319D-01 0.226D+00
 Coeff:      0.850D+00
 Gap=     0.317 Goal=   None    Shift=    0.000
 RMSDP=6.23D-06 MaxDP=1.73D-04 DE=-1.45D-06 OVMax= 1.28D-04

 Cycle   8  Pass 1  IDiag  1:
 RMSU=  1.54D-06    CP:  9.67D-01  1.08D+00  1.01D+00  8.34D-01  7.53D-01
                    CP:  1.17D+00  9.56D-01
 E= -248.244723041613     Delta-E=       -0.000000167912 Rises=F Damp=F
 DIIS: error= 5.55D-06 at cycle   8 NSaved=   8.
 NSaved= 8 IEnMin= 8 EnMin= -248.244723041613     IErMin= 8 ErrMin= 5.55D-06
 ErrMax= 5.55D-06  0.00D+00 EMaxC= 1.00D-01 BMatC= 3.45D-09 BMatP= 1.84D-07
 IDIUse=1 WtCom= 1.00D+00 WtEn= 0.00D+00
 Coeff-Com:  0.374D-03-0.806D-03-0.283D-02-0.957D-02-0.141D-01 0.384D-01
 Coeff-Com:  0.135D+00 0.853D+00
 Coeff:      0.374D-03-0.806D-03-0.283D-02-0.957D-02-0.141D-01 0.384D-01
 Coeff:      0.135D+00 0.853D+00
 Gap=     0.317 Goal=   None    Shift=    0.000
 RMSDP=5.17D-07 MaxDP=1.64D-05 DE=-1.68D-07 OVMax= 2.34D-05

 Cycle   9  Pass 1  IDiag  1:
 RMSU=  3.06D-07    CP:  9.67D-01  1.08D+00  1.01D+00  8.34D-01  7.52D-01
                    CP:  1.18D+00  9.65D-01  1.11D+00
 E= -248.244723045025     Delta-E=       -0.000000003412 Rises=F Damp=F
 DIIS: error= 3.05D-06 at cycle   9 NSaved=   9.
 NSaved= 9 IEnMin= 9 EnMin= -248.244723045025     IErMin= 9 ErrMin= 3.05D-06
 ErrMax= 3.05D-06  0.00D+00 EMaxC= 1.00D-01 BMatC= 1.04D-09 BMatP= 3.45D-09
 IDIUse=1 WtCom= 1.00D+00 WtEn= 0.00D+00
 Coeff-Com: -0.709D-04 0.158D-03 0.486D-03 0.769D-03-0.711D-03-0.104D-01
 Coeff-Com: -0.716D-01 0.361D+00 0.720D+00
 Coeff:     -0.709D-04 0.158D-03 0.486D-03 0.769D-03-0.711D-03-0.104D-01
 Coeff:     -0.716D-01 0.361D+00 0.720D+00
 Gap=     0.317 Goal=   None    Shift=    0.000
 RMSDP=1.92D-07 MaxDP=4.22D-06 DE=-3.41D-09 OVMax= 1.85D-05

 Cycle  10  Pass 1  IDiag  1:
 RMSU=  1.29D-07    CP:  9.67D-01  1.08D+00  1.01D+00  8.34D-01  7.51D-01
                    CP:  1.18D+00  9.63D-01  1.17D+00  1.02D+00
 E= -248.244723046316     Delta-E=       -0.000000001291 Rises=F Damp=F
 DIIS: error= 7.07D-07 at cycle  10 NSaved=  10.
 NSaved=10 IEnMin=10 EnMin= -248.244723046316     IErMin=10 ErrMin= 7.07D-07
 ErrMax= 7.07D-07  0.00D+00 EMaxC= 1.00D-01 BMatC= 6.92D-11 BMatP= 1.04D-09
 IDIUse=1 WtCom= 1.00D+00 WtEn= 0.00D+00
 Coeff-Com: -0.140D-04 0.323D-04 0.151D-03 0.339D-03 0.655D-03 0.632D-04
 Coeff-Com: -0.898D-02-0.101D+00 0.524D-01 0.106D+01
 Coeff:     -0.140D-04 0.323D-04 0.151D-03 0.339D-03 0.655D-03 0.632D-04
 Coeff:     -0.898D-02-0.101D+00 0.524D-01 0.106D+01
 Gap=     0.317 Goal=   None    Shift=    0.000
 RMSDP=6.12D-08 MaxDP=2.01D-06 DE=-1.29D-09 OVMax= 5.51D-06

 Cycle  11  Pass 1  IDiag  1:
 RMSU=  3.79D-08    CP:  9.67D-01  1.08D+00  1.01D+00  8.34D-01  7.51D-01
                    CP:  1.18D+00  9.61D-01  1.18D+00  1.13D+00  1.15D+00
 E= -248.244723046401     Delta-E=       -0.000000000085 Rises=F Damp=F
 DIIS: error= 4.04D-07 at cycle  11 NSaved=  11.
 NSaved=11 IEnMin=11 EnMin= -248.244723046401     IErMin=11 ErrMin= 4.04D-07
 ErrMax= 4.04D-07  0.00D+00 EMaxC= 1.00D-01 BMatC= 1.07D-11 BMatP= 6.92D-11
 IDIUse=1 WtCom= 1.00D+00 WtEn= 0.00D+00
 Coeff-Com: -0.224D-05 0.584D-05 0.496D-04 0.127D-03 0.400D-03 0.943D-03
 Coeff-Com: -0.170D-03-0.833D-01-0.151D-01 0.565D+00 0.532D+00
 Coeff:     -0.224D-05 0.584D-05 0.496D-04 0.127D-03 0.400D-03 0.943D-03
 Coeff:     -0.170D-03-0.833D-01-0.151D-01 0.565D+00 0.532D+00
 Gap=     0.317 Goal=   None    Shift=    0.000
 RMSDP=1.38D-08 MaxDP=5.38D-07 DE=-8.46D-11 OVMax= 1.63D-06

 Cycle  12  Pass 1  IDiag  1:
 RMSU=  1.20D-08    CP:  9.67D-01  1.08D+00  1.01D+00  8.34D-01  7.51D-01
                    CP:  1.18D+00  9.60D-01  1.18D+00  1.14D+00  1.18D+00
                    CP:  1.01D+00
 E= -248.244723046410     Delta-E=       -0.000000000009 Rises=F Damp=F
 DIIS: error= 8.43D-08 at cycle  12 NSaved=  12.
 NSaved=12 IEnMin=12 EnMin= -248.244723046410     IErMin=12 ErrMin= 8.43D-08
 ErrMax= 8.43D-08  0.00D+00 EMaxC= 1.00D-01 BMatC= 4.58D-13 BMatP= 1.07D-11
 IDIUse=1 WtCom= 1.00D+00 WtEn= 0.00D+00
 Coeff-Com:  0.151D-05-0.323D-05-0.639D-05-0.795D-05 0.262D-04 0.388D-03
 Coeff-Com:  0.118D-02-0.990D-02-0.694D-02-0.265D-03 0.155D+00 0.860D+00
 Coeff:      0.151D-05-0.323D-05-0.639D-05-0.795D-05 0.262D-04 0.388D-03
 Coeff:      0.118D-02-0.990D-02-0.694D-02-0.265D-03 0.155D+00 0.860D+00
 Gap=     0.317 Goal=   None    Shift=    0.000
 RMSDP=5.65D-09 MaxDP=1.17D-07 DE=-8.81D-12 OVMax= 4.02D-07

 SCF Done:  E(RM062X) =  -248.244723046     A.U. after   12 cycles
            NFock= 12  Conv=0.56D-08     -V/T= 2.0048
 KE= 2.470630509391D+02 PE=-9.869323277363D+02 EE= 2.863951340552D+02
 Leave Link  502 at Fri Feb 17 23:50:11 2023, MaxMem=  6710886400 cpu:             245.7 elap:              10.3
 (Enter /data0/home/software/g16/l601.exe)
 Copying SCF densities to generalized density rwf, IOpCl= 0 IROHF=0.

 **********************************************************************

            Population analysis using the SCF density.

 **********************************************************************

 Alpha  occ. eigenvalues --  -14.75048 -10.58408 -10.58332 -10.56653 -10.55702
 Alpha  occ. eigenvalues --  -10.55698  -1.04992  -0.90689  -0.86242  -0.71819
 Alpha  occ. eigenvalues --   -0.71444  -0.60856  -0.55193  -0.54692  -0.50127
 Alpha  occ. eigenvalues --   -0.47398  -0.47256  -0.43075  -0.34795  -0.32522
 Alpha  occ. eigenvalues --   -0.32093
 Alpha virt. eigenvalues --   -0.00347   0.00681   0.01132   0.02531   0.03114
 Alpha virt. eigenvalues --    0.04858   0.05295   0.05937   0.07183   0.08451
 Alpha virt. eigenvalues --    0.09219   0.09563   0.09828   0.11510   0.13392
 Alpha virt. eigenvalues --    0.13879   0.14298   0.14501   0.14997   0.15400
 Alpha virt. eigenvalues --    0.18342   0.18729   0.18927   0.19442   0.19932
 Alpha virt. eigenvalues --    0.20794   0.21150   0.22103   0.22697   0.23229
 Alpha virt. eigenvalues --    0.25175   0.25469   0.26137   0.28427   0.28826
 Alpha virt. eigenvalues --    0.30760   0.32270   0.33251   0.33711   0.34866
 Alpha virt. eigenvalues --    0.35269   0.36297   0.46432   0.49424   0.50912
 Alpha virt. eigenvalues --    0.51561   0.54312   0.54467   0.55569   0.55714
 Alpha virt. eigenvalues --    0.57588   0.58826   0.59909   0.60731   0.64223
 Alpha virt. eigenvalues --    0.64779   0.65075   0.65904   0.66411   0.67848
 Alpha virt. eigenvalues --    0.69207   0.73192   0.76682   0.77137   0.79643
 Alpha virt. eigenvalues --    0.80306   0.80666   0.81070   0.82773   0.83038
 Alpha virt. eigenvalues --    0.83180   0.84215   0.84481   0.84779   0.86295
 Alpha virt. eigenvalues --    0.88688   0.90167   0.91407   0.95147   0.96704
 Alpha virt. eigenvalues --    0.97330   1.03691   1.04015   1.08438   1.13492
 Alpha virt. eigenvalues --    1.16561   1.17701   1.20328   1.21673   1.28014
 Alpha virt. eigenvalues --    1.31862   1.35203   1.35403   1.35891   1.38568
 Alpha virt. eigenvalues --    1.38927   1.44288   1.44474   1.49797   1.50620
 Alpha virt. eigenvalues --    1.52550   1.53186   1.56309   1.61790   1.63830
 Alpha virt. eigenvalues --    1.68380   1.73658   1.83869   1.85416   1.86418
 Alpha virt. eigenvalues --    1.89728   1.90435   1.93989   1.98556   1.99642
 Alpha virt. eigenvalues --    2.02099   2.17317   2.17479   2.21326   2.25693
 Alpha virt. eigenvalues --    2.32545   2.39497   2.41182   2.47665   2.50897
 Alpha virt. eigenvalues --    2.53906   2.59314   2.64321   2.67817   2.69789
 Alpha virt. eigenvalues --    2.69993   2.73289   2.75046   2.75611   2.75952
 Alpha virt. eigenvalues --    2.76406   2.78027   2.81630   2.83912   2.87597
 Alpha virt. eigenvalues --    2.87772   2.89737   3.01065   3.01559   3.06668
 Alpha virt. eigenvalues --    3.08122   3.10722   3.10861   3.11903   3.13872
 Alpha virt. eigenvalues --    3.21137   3.22230   3.28233   3.28372   3.28782
 Alpha virt. eigenvalues --    3.29138   3.35869   3.42441   3.42740   3.46223
 Alpha virt. eigenvalues --    3.53805   3.55042   3.56811   3.57277   3.57529
 Alpha virt. eigenvalues --    3.59308   3.60314   3.61578   3.63494   3.65545
 Alpha virt. eigenvalues --    3.71619   3.71737   3.76413   3.79325   3.81320
 Alpha virt. eigenvalues --    3.85707   3.89734   3.95811   3.96714   3.99059
 Alpha virt. eigenvalues --    4.03432   4.45434   4.50700   4.54382   4.68527
 Alpha virt. eigenvalues --    4.81418   4.95655   5.00014   5.05293   5.13110
 Alpha virt. eigenvalues --    5.23109   5.29345   5.56946   5.61358  10.25483
 Alpha virt. eigenvalues --   10.28868  10.34609  10.42528  10.58340  13.40031
 Alpha virt. eigenvalues --   13.79967  14.32377  18.40648  23.81214  24.05297
 Alpha virt. eigenvalues --   24.06492  24.09708  24.13699  35.73762 139.75802
          Condensed to atoms (all electrons):
               1          2          3          4          5          6
     1  C    5.196871   0.296447   0.082712  -0.216497   0.123378   0.243587
     2  C    0.296447   4.934824   0.459603   0.083584  -0.217038   0.115740
     3  C    0.082712   0.459603   4.884723   0.460530   0.078443  -0.097225
     4  C   -0.216497   0.083584   0.460530   4.936835   0.299290   0.117963
     5  C    0.123378  -0.217038   0.078443   0.299290   5.184014   0.235967
     6  N    0.243587   0.115740  -0.097225   0.117963   0.235967   6.710471
     7  H   -0.001024  -0.008786   0.364989  -0.010036  -0.001030   0.000300
     8  H    0.444004  -0.070040   0.018294  -0.010696   0.018414  -0.073836
     9  H   -0.019616   0.376171  -0.026769   0.011820  -0.001207   0.002993
    10  H   -0.001308   0.011761  -0.027321   0.376225  -0.018794   0.002926
    11  H    0.018714  -0.010701   0.017974  -0.070088   0.444720  -0.073575
    12  O    0.000053  -0.000042   0.000002  -0.000009   0.000009  -0.000021
    13  H   -0.000092   0.000039  -0.000006   0.000008  -0.000007   0.000014
    14  H   -0.000006   0.000005  -0.000000   0.000001  -0.000001   0.000002
               7          8          9         10         11         12
     1  C   -0.001024   0.444004  -0.019616  -0.001308   0.018714   0.000053
     2  C   -0.008786  -0.070040   0.376171   0.011761  -0.010701  -0.000042
     3  C    0.364989   0.018294  -0.026769  -0.027321   0.017974   0.000002
     4  C   -0.010036  -0.010696   0.011820   0.376225  -0.070088  -0.000009
     5  C   -0.001030   0.018414  -0.001207  -0.018794   0.444720   0.000009
     6  N    0.000300  -0.073836   0.002993   0.002926  -0.073575  -0.000021
     7  H    0.532598  -0.000258  -0.004439  -0.004393  -0.000262   0.000000
     8  H   -0.000258   0.541743  -0.002091   0.000096   0.000041   0.000003
     9  H   -0.004439  -0.002091   0.530362  -0.000234   0.000097   0.000000
    10  H   -0.004393   0.000096  -0.000234   0.530087  -0.002117   0.000000
    11  H   -0.000262   0.000041   0.000097  -0.002117   0.542771   0.000000
    12  O    0.000000   0.000003   0.000000   0.000000   0.000000   0.000057
    13  H   -0.000000  -0.000002   0.000000   0.000000  -0.000000  -0.000038
    14  H    0.000000  -0.000000  -0.000000  -0.000000  -0.000000  -0.000020
              13         14
     1  C   -0.000092  -0.000006
     2  C    0.000039   0.000005
     3  C   -0.000006  -0.000000
     4  C    0.000008   0.000001
     5  C   -0.000007  -0.000001
     6  N    0.000014   0.000002
     7  H   -0.000000   0.000000
     8  H   -0.000002  -0.000000
     9  H    0.000000  -0.000000
    10  H    0.000000  -0.000000
    11  H   -0.000000  -0.000000
    12  O   -0.000038  -0.000020
    13  H    0.000040   0.000009
    14  H    0.000009   0.000011
 Mulliken charges:
               1
     1  C   -0.167222
     2  C    0.028435
     3  C   -0.215948
     4  C    0.021070
     5  C   -0.146158
     6  N   -0.185305
     7  H    0.132342
     8  H    0.134331
     9  H    0.132913
    10  H    0.133073
    11  H    0.132429
    12  O    0.000007
    13  H    0.000035
    14  H   -0.000000
 Sum of Mulliken charges =  -0.00000
 Mulliken charges with hydrogens summed into heavy atoms:
               1
     1  C   -0.032891
     2  C    0.161347
     3  C   -0.083606
     4  C    0.154143
     5  C   -0.013730
     6  N   -0.185305
    12  O    0.000042
         Mulliken charges condensed to fragments:
      1     -0.000042
      2      0.000042
 Electronic spatial extent (au):  <R**2>=          63288.6484
 Charge=             -0.0000 electrons
 Dipole moment (field-independent basis, Debye):
    X=             -1.7106    Y=             -1.3848    Z=              0.4881  Tot=              2.2543
 Quadrupole moment (field-independent basis, Debye-Ang):
   XX=            -56.3697   YY=            -68.5018   ZZ=            -24.6167
   XY=            -35.4564   XZ=            -21.2114   YZ=            -13.6172
 Traceless Quadrupole moment (field-independent basis, Debye-Ang):
   XX=             -6.5403   YY=            -18.6724   ZZ=             25.2127
   XY=            -35.4564   XZ=            -21.2114   YZ=            -13.6172
 Octapole moment (field-independent basis, Debye-Ang**2):
  XXX=           -907.5203  YYY=          -1987.5885  ZZZ=          -1338.9971  XYY=           -856.7190
  XXY=           -860.4971  XXZ=           -777.3711  XZZ=           -515.0958  YZZ=           -614.2911
  YYZ=           -895.4519  XYZ=           -463.1466
 Hexadecapole moment (field-independent basis, Debye-Ang**3):
 XXXX=         -11451.9523 YYYY=         -46318.8700 ZZZZ=         -40740.5070 XXXY=         -13009.7193
 XXXZ=         -12676.1895 YYYX=         -19320.2318 YYYZ=         -27189.8839 ZZZX=         -13956.6072
 ZZZY=         -21811.8810 XXYY=         -14484.4719 XXZZ=         -12495.6032 YYZZ=         -18352.5877
 XXYZ=         -11892.9803 YYXZ=         -11612.2565 ZZXY=          -9395.0009
 N-N= 2.052294196956D+02 E-N=-9.869323291170D+02  KE= 2.470630509391D+02
 No NMR shielding tensors so no spin-rotation constants.
 Leave Link  601 at Fri Feb 17 23:50:11 2023, MaxMem=  6710886400 cpu:               2.1 elap:               0.1
 (Enter /data0/home/software/g16/l122.exe)
 CPIOFr:  IOpCl= 0 IRwI=-1 IRwCP=  731 ICalc=  1 LCPTot=       83644 Len1MO=      218311 IndFrg=      520266
 Counterpoise: doing calculation for fragment   2 using the basis set of the full-system, NewBq=T
 Leave Link  122 at Fri Feb 17 23:50:11 2023, MaxMem=  6710886400 cpu:               0.1 elap:               0.0
 (Enter /data0/home/software/g16/l301.exe)
 Basis read from rwf:  (5D, 7F)
 No pseudopotential information found on rwf file.
   231 basis functions,   350 primitive gaussians,   245 cartesian basis functions
     5 alpha electrons        5 beta electrons
       nuclear repulsion energy         9.1438727962 Hartrees.
 IExCor= 4336 DFT=T Ex+Corr=M062X ExCW=0 ScaHFX=  0.540000
 ScaDFX=  1.000000  1.000000  1.000000  1.000000 ScalE2=  1.000000  1.000000
 IRadAn=      5 IRanWt=     -1 IRanGd=            0 ICorTp=0 IEmpDi=131
 NAtoms=   14 NActive=   14 NUniq=   14 SFac= 1.00D+00 NAtFMM=   60 NAOKFM=F Big=F
 Integral buffers will be    131072 words long.
 Raffenetti 2 integral format.
 Two-electron integral symmetry is turned off.
 R6Disp:  Grimme-D3 Dispersion energy=       -0.0000000075 Hartrees.
 Nuclear repulsion after empirical dispersion term =        9.1438727887 Hartrees.
 No density basis found on file   718.
 Leave Link  301 at Fri Feb 17 23:50:11 2023, MaxMem=  6710886400 cpu:               1.3 elap:               0.1
 (Enter /data0/home/software/g16/l302.exe)
 NPDir=0 NMtPBC=     1 NCelOv=     1 NCel=       1 NClECP=     1 NCelD=      1
         NCelK=      1 NCelE2=     1 NClLst=     1 CellRange=     0.0.
 One-electron integrals computed using PRISM.
 NBasis=   231 RedAO= T EigKep=  1.95D-05  NBF=   231
 NBsUse=   231 1.00D-06 EigRej= -1.00D+00 NBFU=   231
 Precomputing XC quadrature grid using
 IXCGrd= 4 IRadAn=           5 IRanWt=          -1 IRanGd=           0 AccXCQ= 0.00D+00.
 Generated NRdTot=       0 NPtTot=           0 NUsed=           0 NTot=          32
 NSgBfM=   243   243   243   243   243 MxSgAt=    14 MxSgA2=    14.
 Leave Link  302 at Fri Feb 17 23:50:11 2023, MaxMem=  6710886400 cpu:               3.6 elap:               0.2
 (Enter /data0/home/software/g16/l303.exe)
 DipDrv:  MaxL=1.
 Leave Link  303 at Fri Feb 17 23:50:11 2023, MaxMem=  6710886400 cpu:               0.6 elap:               0.0
 (Enter /data0/home/software/g16/l401.exe)
 ExpMin= 4.38D-02 ExpMax= 8.59D+03 ExpMxC= 1.30D+03 IAcc=3 IRadAn=         5 AccDes= 0.00D+00
 Harris functional with IExCor= 1009 and IRadAn=       5 diagonalized for initial guess.
 HarFok:  IExCor= 1009 AccDes= 0.00D+00 IRadAn=         5 IDoV= 1 UseB2=F ITyADJ=14
 ICtDFT=  3500011 ScaDFX=  1.000000  1.000000  1.000000  1.000000
 FoFCou: FMM=F IPFlag=           0 FMFlag=      100000 FMFlg1=           0
         NFxFlg=           0 DoJE=T BraDBF=F KetDBF=T FulRan=T
         wScrn=  0.000000 ICntrl=       500 IOpCl=  0 I1Cent=   200000004 NGrid=           0
         NMat0=    1 NMatS0=      1 NMatT0=    0 NMatD0=    1 NMtDS0=    0 NMtDT0=    0
 Symmetry not used in FoFCou.
 Harris En= -76.4170757403609    
 JPrj=0 DoOrth=F DoCkMO=F.
 Leave Link  401 at Fri Feb 17 23:50:12 2023, MaxMem=  6710886400 cpu:               8.9 elap:               0.4
 (Enter /data0/home/software/g16/l502.exe)
 Two-electron integral symmetry not used.
 Closed shell SCF:
 Using DIIS extrapolation, IDIIS=  1040.
 NGot=  6710886400 LenX=  6710758667 LenY=  6710698201
 Requested convergence on RMS density matrix=1.00D-08 within 128 cycles.
 Requested convergence on MAX density matrix=1.00D-06.
 Requested convergence on             energy=1.00D-06.
 No special actions if energy rises.
 Fock matrices will be formed incrementally for  20 cycles.

 Cycle   1  Pass 1  IDiag  1:
 FoFJK:  IHMeth= 1 ICntrl=       0 DoSepK=F KAlg= 0 I1Cent=           0 FoldK=F
 IRaf= 860000000 NMat=       1 IRICut=       1 DoRegI=T DoRafI=F ISym2E= 0 IDoP0=0 IntGTp=1.
 FoFCou: FMM=F IPFlag=           0 FMFlag=      100000 FMFlg1=           0
         NFxFlg=           0 DoJE=F BraDBF=F KetDBF=F FulRan=T
         wScrn=  0.000000 ICntrl=         0 IOpCl=  0 I1Cent=           0 NGrid=           0
         NMat0=    1 NMatS0=      1 NMatT0=    0 NMatD0=    1 NMtDS0=    0 NMtDT0=    0
 Symmetry not used in FoFCou.
 E= -76.3461715787351    
 DIIS: error= 5.45D-02 at cycle   1 NSaved=   1.
 NSaved= 1 IEnMin= 1 EnMin= -76.3461715787351     IErMin= 1 ErrMin= 5.45D-02
 ErrMax= 5.45D-02  0.00D+00 EMaxC= 1.00D-01 BMatC= 1.22D-01 BMatP= 1.22D-01
 IDIUse=3 WtCom= 4.55D-01 WtEn= 5.45D-01
 Coeff-Com:  0.100D+01
 Coeff-En:   0.100D+01
 Coeff:      0.100D+01
 Gap=     0.307 Goal=   None    Shift=    0.000
 GapD=    0.307 DampG=1.000 DampE=0.500 DampFc=0.5000 IDamp=-1.
 Damping current iteration by 5.00D-01
 RMSDP=1.63D-03 MaxDP=1.01D-01              OVMax= 1.69D-01

 Cycle   2  Pass 1  IDiag  1:
 RMSU=  7.98D-04    CP:  9.67D-01
 E= -76.3779019512225     Delta-E=       -0.031730372487 Rises=F Damp=T
 DIIS: error= 9.50D-03 at cycle   2 NSaved=   2.
 NSaved= 2 IEnMin= 2 EnMin= -76.3779019512225     IErMin= 2 ErrMin= 9.50D-03
 ErrMax= 9.50D-03  0.00D+00 EMaxC= 1.00D-01 BMatC= 4.78D-03 BMatP= 1.22D-01
 IDIUse=3 WtCom= 9.05D-01 WtEn= 9.50D-02
 Coeff-Com:  0.804D-01 0.920D+00
 Coeff-En:   0.184D+00 0.816D+00
 Coeff:      0.903D-01 0.910D+00
 Gap=     0.417 Goal=   None    Shift=    0.000
 RMSDP=2.73D-04 MaxDP=1.40D-02 DE=-3.17D-02 OVMax= 1.01D-01

 Cycle   3  Pass 1  IDiag  1:
 RMSU=  2.04D-04    CP:  9.76D-01  7.80D-01
 E= -76.4219525262816     Delta-E=       -0.044050575059 Rises=F Damp=F
 DIIS: error= 2.19D-03 at cycle   3 NSaved=   3.
 NSaved= 3 IEnMin= 3 EnMin= -76.4219525262816     IErMin= 3 ErrMin= 2.19D-03
 ErrMax= 2.19D-03  0.00D+00 EMaxC= 1.00D-01 BMatC= 1.07D-04 BMatP= 4.78D-03
 IDIUse=3 WtCom= 9.78D-01 WtEn= 2.19D-02
 Coeff-Com: -0.223D-01 0.434D-01 0.979D+00
 Coeff-En:   0.000D+00 0.000D+00 0.100D+01
 Coeff:     -0.218D-01 0.425D-01 0.979D+00
 Gap=     0.420 Goal=   None    Shift=    0.000
 RMSDP=2.98D-05 MaxDP=1.09D-03 DE=-4.41D-02 OVMax= 3.47D-03

 Cycle   4  Pass 1  IDiag  1:
 RMSU=  2.09D-05    CP:  9.75D-01  7.87D-01  1.10D+00
 E= -76.4220414627794     Delta-E=       -0.000088936498 Rises=F Damp=F
 DIIS: error= 2.64D-04 at cycle   4 NSaved=   4.
 NSaved= 4 IEnMin= 4 EnMin= -76.4220414627794     IErMin= 4 ErrMin= 2.64D-04
 ErrMax= 2.64D-04  0.00D+00 EMaxC= 1.00D-01 BMatC= 3.19D-06 BMatP= 1.07D-04
 IDIUse=3 WtCom= 9.97D-01 WtEn= 2.64D-03
 Coeff-Com: -0.221D-02-0.142D-02 0.160D+00 0.844D+00
 Coeff-En:   0.000D+00 0.000D+00 0.000D+00 0.100D+01
 Coeff:     -0.221D-02-0.141D-02 0.159D+00 0.844D+00
 Gap=     0.420 Goal=   None    Shift=    0.000
 RMSDP=4.35D-06 MaxDP=3.48D-04 DE=-8.89D-05 OVMax= 5.30D-04

 Cycle   5  Pass 1  IDiag  1:
 RMSU=  3.53D-06    CP:  9.75D-01  7.85D-01  1.10D+00  1.03D+00
 E= -76.4220434251502     Delta-E=       -0.000001962371 Rises=F Damp=F
 DIIS: error= 5.59D-05 at cycle   5 NSaved=   5.
 NSaved= 5 IEnMin= 5 EnMin= -76.4220434251502     IErMin= 5 ErrMin= 5.59D-05
 ErrMax= 5.59D-05  0.00D+00 EMaxC= 1.00D-01 BMatC= 7.96D-08 BMatP= 3.19D-06
 IDIUse=1 WtCom= 1.00D+00 WtEn= 0.00D+00
 Coeff-Com:  0.125D-02-0.193D-02-0.362D-01-0.627D-01 0.110D+01
 Coeff:      0.125D-02-0.193D-02-0.362D-01-0.627D-01 0.110D+01
 Gap=     0.421 Goal=   None    Shift=    0.000
 RMSDP=2.33D-06 MaxDP=1.00D-04 DE=-1.96D-06 OVMax= 1.99D-04

 Cycle   6  Pass 1  IDiag  1:
 RMSU=  6.87D-07    CP:  9.75D-01  7.84D-01  1.11D+00  1.09D+00  1.26D+00
 E= -76.4220435548386     Delta-E=       -0.000000129688 Rises=F Damp=F
 DIIS: error= 6.79D-06 at cycle   6 NSaved=   6.
 NSaved= 6 IEnMin= 6 EnMin= -76.4220435548386     IErMin= 6 ErrMin= 6.79D-06
 ErrMax= 6.79D-06  0.00D+00 EMaxC= 1.00D-01 BMatC= 1.62D-09 BMatP= 7.96D-08
 IDIUse=1 WtCom= 1.00D+00 WtEn= 0.00D+00
 Coeff-Com: -0.249D-03 0.362D-03 0.337D-02-0.226D-02-0.163D+00 0.116D+01
 Coeff:     -0.249D-03 0.362D-03 0.337D-02-0.226D-02-0.163D+00 0.116D+01
 Gap=     0.421 Goal=   None    Shift=    0.000
 RMSDP=3.00D-07 MaxDP=1.94D-05 DE=-1.30D-07 OVMax= 3.81D-05

 Cycle   7  Pass 1  IDiag  1:
 RMSU=  9.57D-08    CP:  9.75D-01  7.84D-01  1.11D+00  1.10D+00  1.30D+00
                    CP:  1.24D+00
 E= -76.4220435579725     Delta-E=       -0.000000003134 Rises=F Damp=F
 DIIS: error= 7.11D-07 at cycle   7 NSaved=   7.
 NSaved= 7 IEnMin= 7 EnMin= -76.4220435579725     IErMin= 7 ErrMin= 7.11D-07
 ErrMax= 7.11D-07  0.00D+00 EMaxC= 1.00D-01 BMatC= 1.75D-11 BMatP= 1.62D-09
 IDIUse=1 WtCom= 1.00D+00 WtEn= 0.00D+00
 Coeff-Com:  0.386D-04-0.388D-04-0.431D-03 0.147D-02 0.122D-01-0.189D+00
 Coeff-Com:  0.118D+01
 Coeff:      0.386D-04-0.388D-04-0.431D-03 0.147D-02 0.122D-01-0.189D+00
 Coeff:      0.118D+01
 Gap=     0.421 Goal=   None    Shift=    0.000
 RMSDP=4.05D-08 MaxDP=2.33D-06 DE=-3.13D-09 OVMax= 4.67D-06

 Cycle   8  Pass 1  IDiag  1:
 RMSU=  1.74D-08    CP:  9.75D-01  7.84D-01  1.11D+00  1.10D+00  1.30D+00
                    CP:  1.27D+00  1.22D+00
 E= -76.4220435580135     Delta-E=       -0.000000000041 Rises=F Damp=F
 DIIS: error= 1.22D-07 at cycle   8 NSaved=   8.
 NSaved= 8 IEnMin= 8 EnMin= -76.4220435580135     IErMin= 8 ErrMin= 1.22D-07
 ErrMax= 1.22D-07  0.00D+00 EMaxC= 1.00D-01 BMatC= 2.83D-13 BMatP= 1.75D-11
 IDIUse=1 WtCom= 1.00D+00 WtEn= 0.00D+00
 Coeff-Com: -0.143D-05-0.172D-05 0.479D-04-0.310D-04 0.358D-03 0.667D-02
 Coeff-Com: -0.137D+00 0.113D+01
 Coeff:     -0.143D-05-0.172D-05 0.479D-04-0.310D-04 0.358D-03 0.667D-02
 Coeff:     -0.137D+00 0.113D+01
 Gap=     0.421 Goal=   None    Shift=    0.000
 RMSDP=3.99D-09 MaxDP=1.38D-07 DE=-4.10D-11 OVMax= 4.00D-07

 SCF Done:  E(RM062X) =  -76.4220435580     A.U. after    8 cycles
            NFock=  8  Conv=0.40D-08     -V/T= 2.0028
 KE= 7.621052602299D+01 PE=-1.991450053746D+02 EE= 3.736856300496D+01
 Leave Link  502 at Fri Feb 17 23:50:19 2023, MaxMem=  6710886400 cpu:             166.9 elap:               7.0
 (Enter /data0/home/software/g16/l601.exe)
 Copying SCF densities to generalized density rwf, IOpCl= 0 IROHF=0.

 **********************************************************************

            Population analysis using the SCF density.

 **********************************************************************

 Alpha  occ. eigenvalues --  -19.62533  -1.13530  -0.60972  -0.47536  -0.40019
 Alpha virt. eigenvalues --    0.02036   0.04235   0.05677   0.06420   0.08034
 Alpha virt. eigenvalues --    0.09006   0.09097   0.10823   0.11388   0.12195
 Alpha virt. eigenvalues --    0.13016   0.14161   0.14693   0.16126   0.16942
 Alpha virt. eigenvalues --    0.17264   0.17570   0.17983   0.18276   0.19486
 Alpha virt. eigenvalues --    0.19726   0.20743   0.21120   0.22812   0.23896
 Alpha virt. eigenvalues --    0.24222   0.24912   0.25631   0.26147   0.26980
 Alpha virt. eigenvalues --    0.28773   0.31840   0.32709   0.34321   0.39736
 Alpha virt. eigenvalues --    0.40264   0.41032   0.44588   0.45778   0.49341
 Alpha virt. eigenvalues --    0.49938   0.51405   0.51970   0.52386   0.55547
 Alpha virt. eigenvalues --    0.56552   0.58879   0.61770   0.61957   0.64324
 Alpha virt. eigenvalues --    0.66365   0.68846   0.69724   0.73022   0.78869
 Alpha virt. eigenvalues --    0.81048   0.81287   0.86842   0.88896   0.93306
 Alpha virt. eigenvalues --    0.95475   0.96447   0.98797   1.00616   1.03555
 Alpha virt. eigenvalues --    1.07260   1.09248   1.10908   1.15933   1.17146
 Alpha virt. eigenvalues --    1.17580   1.19019   1.19174   1.20364   1.23217
 Alpha virt. eigenvalues --    1.25212   1.27634   1.29463   1.32591   1.33492
 Alpha virt. eigenvalues --    1.34620   1.35406   1.35961   1.40703   1.42121
 Alpha virt. eigenvalues --    1.43597   1.45345   1.45492   1.49697   1.50060
 Alpha virt. eigenvalues --    1.51440   1.54402   1.56548   1.59841   1.59992
 Alpha virt. eigenvalues --    1.66362   1.70250   1.71714   1.71868   1.72620
 Alpha virt. eigenvalues --    1.74814   1.76864   1.78412   1.79874   1.82916
 Alpha virt. eigenvalues --    1.85246   1.86008   1.90345   1.91373   1.92278
 Alpha virt. eigenvalues --    1.93789   2.04665   2.06523   2.08660   2.09173
 Alpha virt. eigenvalues --    2.09650   2.12622   2.17372   2.22571   2.26392
 Alpha virt. eigenvalues --    2.28280   2.30703   2.36153   2.37139   2.40155
 Alpha virt. eigenvalues --    2.43202   2.48776   2.50489   2.53160   2.53795
 Alpha virt. eigenvalues --    2.55236   2.56976   2.61837   2.62164   2.71225
 Alpha virt. eigenvalues --    2.78507   2.81485   2.89472   2.91932   2.94389
 Alpha virt. eigenvalues --    3.02595   3.05861   3.08134   3.17681   3.24706
 Alpha virt. eigenvalues --    3.27554   3.46142   3.54327   3.64881   3.65962
 Alpha virt. eigenvalues --    3.69108   3.70441   4.33520   4.55462   4.59398
 Alpha virt. eigenvalues --    4.73840   4.75269   4.79114   4.79271   4.91658
 Alpha virt. eigenvalues --    4.92516   4.94051   4.94816   5.04971   5.06526
 Alpha virt. eigenvalues --    5.07099   5.09281   5.10963   5.30064   5.32446
 Alpha virt. eigenvalues --    5.33887   5.35733   5.42022   5.45993   5.46338
 Alpha virt. eigenvalues --    5.48834   5.62156   5.64858   5.72341   5.75858
 Alpha virt. eigenvalues --    5.94427   6.06646   6.08953   6.19204   6.31396
 Alpha virt. eigenvalues --    6.78268   6.80233   6.87126   6.91546   7.06479
 Alpha virt. eigenvalues --    7.09274   7.15702   7.17483   7.19887   7.29662
 Alpha virt. eigenvalues --    7.48882   7.54829   7.55768   7.73417   7.76941
 Alpha virt. eigenvalues --    7.80755   7.89304   7.92008   7.97701   8.00308
 Alpha virt. eigenvalues --    8.14672   8.34602   8.41005   8.48163   8.92100
 Alpha virt. eigenvalues --    9.76825  10.01922  10.18556  10.18994  10.22544
 Alpha virt. eigenvalues --   10.26300  10.76064  11.73455  13.99141  49.96529
 Alpha virt. eigenvalues --   69.84393  69.96415  69.97813  70.01989  70.04396
 Alpha virt. eigenvalues --  101.69071
          Condensed to atoms (all electrons):
               1          2          3          4          5          6
     1  C    0.011142  -0.003731   0.000023  -0.000480  -0.003531  -0.002785
     2  C   -0.003731   0.022820  -0.015484  -0.006261   0.000835   0.001903
     3  C    0.000023  -0.015484   0.017125   0.002901  -0.001511  -0.003341
     4  C   -0.000480  -0.006261   0.002901   0.007256  -0.002973  -0.000253
     5  C   -0.003531   0.000835  -0.001511  -0.002973   0.005538   0.001339
     6  N   -0.002785   0.001903  -0.003341  -0.000253   0.001339   0.003069
     7  H    0.000002  -0.000015   0.000012  -0.000003   0.000004  -0.000001
     8  H   -0.000431  -0.000167   0.000240  -0.000085   0.000216   0.000059
     9  H    0.000019   0.000004   0.000003   0.000063  -0.000063  -0.000023
    10  H   -0.000036   0.000127   0.000005  -0.000122   0.000028  -0.000009
    11  H    0.000010  -0.000034   0.000034  -0.000032   0.000046  -0.000029
    12  O    0.001774  -0.000080   0.000041   0.000022  -0.000421  -0.000372
    13  H    0.000467  -0.000327  -0.000032  -0.000016   0.000037   0.000002
    14  H   -0.000061  -0.000001  -0.000012   0.000002   0.000018   0.000019
               7          8          9         10         11         12
     1  C    0.000002  -0.000431   0.000019  -0.000036   0.000010   0.001774
     2  C   -0.000015  -0.000167   0.000004   0.000127  -0.000034  -0.000080
     3  C    0.000012   0.000240   0.000003   0.000005   0.000034   0.000041
     4  C   -0.000003  -0.000085   0.000063  -0.000122  -0.000032   0.000022
     5  C    0.000004   0.000216  -0.000063   0.000028   0.000046  -0.000421
     6  N   -0.000001   0.000059  -0.000023  -0.000009  -0.000029  -0.000372
     7  H    0.000000   0.000000  -0.000000   0.000000   0.000000  -0.000000
     8  H    0.000000   0.000168  -0.000015   0.000000   0.000001  -0.000038
     9  H   -0.000000  -0.000015   0.000013  -0.000000  -0.000000   0.000000
    10  H    0.000000   0.000000  -0.000000   0.000007   0.000000  -0.000000
    11  H    0.000000   0.000001  -0.000000   0.000000   0.000004  -0.000000
    12  O   -0.000000  -0.000038   0.000000  -0.000000  -0.000000   7.910524
    13  H   -0.000000  -0.000013   0.000000   0.000000   0.000000   0.321817
    14  H    0.000000  -0.000001  -0.000000   0.000000  -0.000000   0.322358
              13         14
     1  C    0.000467  -0.000061
     2  C   -0.000327  -0.000001
     3  C   -0.000032  -0.000012
     4  C   -0.000016   0.000002
     5  C    0.000037   0.000018
     6  N    0.000002   0.000019
     7  H   -0.000000   0.000000
     8  H   -0.000013  -0.000001
     9  H    0.000000  -0.000000
    10  H    0.000000   0.000000
    11  H    0.000000  -0.000000
    12  O    0.321817   0.322358
    13  H    0.423389  -0.024681
    14  H   -0.024681   0.425024
 Mulliken charges:
               1
     1  C   -0.002381
     2  C    0.000411
     3  C   -0.000006
     4  C   -0.000019
     5  C    0.000438
     6  N    0.000423
     7  H    0.000000
     8  H    0.000066
     9  H   -0.000001
    10  H    0.000000
    11  H    0.000000
    12  O   -0.555623
    13  H    0.279357
    14  H    0.277335
 Sum of Mulliken charges =  -0.00000
 Mulliken charges with hydrogens summed into heavy atoms:
               1
     1  C   -0.002316
     2  C    0.000411
     3  C   -0.000006
     4  C   -0.000018
     5  C    0.000438
     6  N    0.000423
    12  O    0.001068
         Mulliken charges condensed to fragments:
      1     -0.001068
      2      0.001068
 Electronic spatial extent (au):  <R**2>=          12879.7642
 Charge=              0.0000 electrons
 Dipole moment (field-independent basis, Debye):
    X=              1.0626    Y=             -1.2970    Z=              1.2777  Tot=              2.1081
 Quadrupole moment (field-independent basis, Debye-Ang):
   XX=             17.9923   YY=            -40.1666   ZZ=             15.7665
   XY=              0.3839   XZ=             22.6120   YZ=              4.0491
 Traceless Quadrupole moment (field-independent basis, Debye-Ang):
   XX=             20.1283   YY=            -38.0306   ZZ=             17.9024
   XY=              0.3839   XZ=             22.6120   YZ=              4.0491
 Octapole moment (field-independent basis, Debye-Ang**2):
  XXX=            213.3552  YYY=           -907.6476  ZZZ=            119.2629  XYY=           -239.2106
  XXY=             95.2293  XXZ=            295.9487  XZZ=            243.1943  YZZ=             84.4741
  YYZ=           -166.9321  XYZ=            163.7789
 Hexadecapole moment (field-independent basis, Debye-Ang**3):
 XXXX=           1972.7394 YYYY=         -17874.5342 ZZZZ=            347.8512 XXXY=           1345.8535
 XXXZ=           3305.4963 YYYX=          -7175.6876 YYYZ=          -5745.3176 ZZZX=           1889.6980
 ZZZY=            403.7316 XXYY=          -1319.3401 XXZZ=           3031.0861 YYZZ=           -961.7880
 XXYZ=           2501.5619 YYXZ=           -171.4357 ZZXY=           1912.2019
 N-N= 9.143872788685D+00 E-N=-1.991450074246D+02  KE= 7.621052602299D+01
 No NMR shielding tensors so no spin-rotation constants.
 Leave Link  601 at Fri Feb 17 23:50:19 2023, MaxMem=  6710886400 cpu:               2.1 elap:               0.1
 (Enter /data0/home/software/g16/l122.exe)
 CPIOFr:  IOpCl= 0 IRwI=-1 IRwCP=  731 ICalc=  2 LCPTot=       83644 Len1MO=      218311 IndFrg=      738577
 Counterpoise: doing calculation for fragment   1 using the basis set of the fragment.
 Leave Link  122 at Fri Feb 17 23:50:19 2023, MaxMem=  6710886400 cpu:               0.1 elap:               0.0
 (Enter /data0/home/software/g16/l301.exe)
 Basis read from rwf:  (5D, 7F)
 No pseudopotential information found on rwf file.
   192 basis functions,   292 primitive gaussians,   204 cartesian basis functions
    21 alpha electrons       21 beta electrons
       nuclear repulsion energy       205.2295186574 Hartrees.
 IExCor= 4336 DFT=T Ex+Corr=M062X ExCW=0 ScaHFX=  0.540000
 ScaDFX=  1.000000  1.000000  1.000000  1.000000 ScalE2=  1.000000  1.000000
 IRadAn=      5 IRanWt=     -1 IRanGd=            0 ICorTp=0 IEmpDi=131
 NAtoms=   14 NActive=   11 NUniq=   11 SFac= 1.00D+00 NAtFMM=   60 NAOKFM=F Big=F
 Integral buffers will be    131072 words long.
 Raffenetti 2 integral format.
 Two-electron integral symmetry is turned off.
 R6Disp:  Grimme-D3 Dispersion energy=       -0.0000989618 Hartrees.
 Nuclear repulsion after empirical dispersion term =      205.2294196956 Hartrees.
 No density basis found on file   718.
 Leave Link  301 at Fri Feb 17 23:50:19 2023, MaxMem=  6710886400 cpu:               1.3 elap:               0.1
 (Enter /data0/home/software/g16/l302.exe)
 NPDir=0 NMtPBC=     1 NCelOv=     1 NCel=       1 NClECP=     1 NCelD=      1
         NCelK=      1 NCelE2=     1 NClLst=     1 CellRange=     0.0.
 One-electron integrals computed using PRISM.
 NBasis=   192 RedAO= T EigKep=  1.98D-05  NBF=   192
 NBsUse=   192 1.00D-06 EigRej= -1.00D+00 NBFU=   192
 Precomputing XC quadrature grid using
 IXCGrd= 4 IRadAn=           5 IRanWt=          -1 IRanGd=           0 AccXCQ= 0.00D+00.
 Generated NRdTot=       0 NPtTot=           0 NUsed=           0 NTot=          32
 NSgBfM=   204   204   204   204   204 MxSgAt=    11 MxSgA2=    11.
 Leave Link  302 at Fri Feb 17 23:50:19 2023, MaxMem=  6710886400 cpu:               3.2 elap:               0.2
 (Enter /data0/home/software/g16/l303.exe)
 DipDrv:  MaxL=1.
 Leave Link  303 at Fri Feb 17 23:50:19 2023, MaxMem=  6710886400 cpu:               0.5 elap:               0.0
 (Enter /data0/home/software/g16/l401.exe)
 ExpMin= 4.38D-02 ExpMax= 6.29D+03 ExpMxC= 9.49D+02 IAcc=3 IRadAn=         5 AccDes= 0.00D+00
 Harris functional with IExCor= 1009 and IRadAn=       5 diagonalized for initial guess.
 HarFok:  IExCor= 1009 AccDes= 0.00D+00 IRadAn=         5 IDoV= 1 UseB2=F ITyADJ=14
 ICtDFT=  3500011 ScaDFX=  1.000000  1.000000  1.000000  1.000000
 FoFCou: FMM=F IPFlag=           0 FMFlag=      100000 FMFlg1=           0
         NFxFlg=           0 DoJE=T BraDBF=F KetDBF=T FulRan=T
         wScrn=  0.000000 ICntrl=       500 IOpCl=  0 I1Cent=   200000004 NGrid=           0
         NMat0=    1 NMatS0=      1 NMatT0=    0 NMatD0=    1 NMtDS0=    0 NMtDT0=    0
 Symmetry not used in FoFCou.
 Harris En= -248.118878536410    
 JPrj=0 DoOrth=F DoCkMO=F.
 Leave Link  401 at Fri Feb 17 23:50:19 2023, MaxMem=  6710886400 cpu:               8.4 elap:               0.4
 (Enter /data0/home/software/g16/l502.exe)
 Keep R1 ints in memory in canonical form, NReq=196464098.
 FoFCou: FMM=F IPFlag=           0 FMFlag=           0 FMFlg1=           0
         NFxFlg=           0 DoJE=F BraDBF=F KetDBF=F FulRan=T
         wScrn=  0.000000 ICntrl=       600 IOpCl=  0 I1Cent=           0 NGrid=           0
         NMat0=    1 NMatS0=  18528 NMatT0=    0 NMatD0=    1 NMtDS0=    0 NMtDT0=    0
 Symmetry not used in FoFCou.
 Two-electron integral symmetry not used.
 Closed shell SCF:
 Using DIIS extrapolation, IDIIS=  1040.
 NGot=  6710886400 LenX=  6539144018 LenY=  6539101961
 Requested convergence on RMS density matrix=1.00D-08 within 128 cycles.
 Requested convergence on MAX density matrix=1.00D-06.
 Requested convergence on             energy=1.00D-06.
 No special actions if energy rises.

 Cycle   1  Pass 1  IDiag  1:
 E= -248.121847651604    
 DIIS: error= 3.94D-02 at cycle   1 NSaved=   1.
 NSaved= 1 IEnMin= 1 EnMin= -248.121847651604     IErMin= 1 ErrMin= 3.94D-02
 ErrMax= 3.94D-02  0.00D+00 EMaxC= 1.00D-01 BMatC= 1.51D-01 BMatP= 1.51D-01
 IDIUse=3 WtCom= 6.06D-01 WtEn= 3.94D-01
 Coeff-Com:  0.100D+01
 Coeff-En:   0.100D+01
 Coeff:      0.100D+01
 Gap=     0.339 Goal=   None    Shift=    0.000
[...]
     7  H   -0.001120  -0.009409   0.365495  -0.009720  -0.001118   0.000290
     8  H    0.443702  -0.069954   0.018203  -0.010814   0.018733  -0.073155
     9  H   -0.019547   0.376161  -0.026942   0.011866  -0.001255   0.002978
    10  H   -0.001261   0.011754  -0.027319   0.376284  -0.018892   0.002942
    11  H    0.018600  -0.010612   0.017908  -0.070025   0.444684  -0.073563
               7          8          9         10         11
     1  C   -0.001120   0.443702  -0.019547  -0.001261   0.018600
     2  C   -0.009409  -0.069954   0.376161   0.011754  -0.010612
     3  C    0.365495   0.018203  -0.026942  -0.027319   0.017908
     4  C   -0.009720  -0.010814   0.011866   0.376284  -0.070025
     5  C   -0.001118   0.018733  -0.001255  -0.018892   0.444684
     6  N    0.000290  -0.073155   0.002978   0.002942  -0.073563
     7  H    0.532592  -0.000259  -0.004437  -0.004398  -0.000262
     8  H   -0.000259   0.542160  -0.002120   0.000095   0.000041
     9  H   -0.004437  -0.002120   0.530401  -0.000234   0.000097
    10  H   -0.004398   0.000095  -0.000234   0.530084  -0.002118
    11  H   -0.000262   0.000041   0.000097  -0.002118   0.542751
 Mulliken charges:
               1
     1  C   -0.150922
     2  C    0.019141
     3  C   -0.207971
     4  C    0.019071
     5  C   -0.150152
     6  N   -0.193472
     7  H    0.132345
     8  H    0.133366
     9  H    0.133031
    10  H    0.133062
    11  H    0.132499
    12  O    0.000000
    13  H    0.000000
    14  H    0.000000
 Sum of Mulliken charges =  -0.00000
 Mulliken charges with hydrogens summed into heavy atoms:
               1
     1  C   -0.017555
     2  C    0.152173
     3  C   -0.075625
     4  C    0.152133
     5  C   -0.017653
     6  N   -0.193472
    12  O    0.000000
         Mulliken charges condensed to fragments:
      1     -0.000000
      2      0.000000
 Electronic spatial extent (au):  <R**2>=          63288.6494
 Charge=             -0.0000 electrons
 Dipole moment (field-independent basis, Debye):
    X=             -1.7106    Y=             -1.3850    Z=              0.4883  Tot=              2.2545
 Quadrupole moment (field-independent basis, Debye-Ang):
   XX=            -56.3705   YY=            -68.5070   ZZ=            -24.6119
   XY=            -35.4590   XZ=            -21.2103   YZ=            -13.6172
 Traceless Quadrupole moment (field-independent basis, Debye-Ang):
   XX=             -6.5407   YY=            -18.6772   ZZ=             25.2179
   XY=            -35.4590   XZ=            -21.2103   YZ=            -13.6172
 Octapole moment (field-independent basis, Debye-Ang**2):
  XXX=           -907.5293  YYY=          -1987.6896  ZZZ=          -1338.9098  XYY=           -856.7764
  XXY=           -860.5242  XXZ=           -777.3645  XZZ=           -515.0619  YZZ=           -614.2608
  YYZ=           -895.4829  XYZ=           -463.1555
 Hexadecapole moment (field-independent basis, Debye-Ang**3):
 XXXX=         -11452.0231 YYYY=         -46320.6118 ZZZZ=         -40739.0561 XXXY=         -13009.9670
 XXXZ=         -12676.1273 YYYX=         -19321.2795 YYYZ=         -27190.6830 ZZZX=         -13955.9410
 ZZZY=         -21811.1436 XXYY=         -14485.0253 XXZZ=         -12495.3248 YYZZ=         -18352.5807
 XXYZ=         -11893.0889 YYXZ=         -11612.6580 ZZXY=          -9394.8446
 N-N= 2.052294196956D+02 E-N=-9.869323862197D+02  KE= 2.470631548176D+02
 No NMR shielding tensors so no spin-rotation constants.
 Leave Link  601 at Fri Feb 17 23:50:30 2023, MaxMem=  6710886400 cpu:               2.0 elap:               0.1
 (Enter /data0/home/software/g16/l122.exe)
 CPIOFr:  IOpCl= 0 IRwI=-1 IRwCP=  731 ICalc=  3 LCPTot=       83644 Len1MO=      218311 IndFrg=      956888
 Counterpoise: doing calculation for fragment   2 using the basis set of the fragment.
 Leave Link  122 at Fri Feb 17 23:50:30 2023, MaxMem=  6710886400 cpu:               0.1 elap:               0.0
 (Enter /data0/home/software/g16/l301.exe)
 Basis read from rwf:  (5D, 7F)
 No pseudopotential information found on rwf file.
    39 basis functions,    58 primitive gaussians,    41 cartesian basis functions
     5 alpha electrons        5 beta electrons
       nuclear repulsion energy         9.1438727962 Hartrees.
 IExCor= 4336 DFT=T Ex+Corr=M062X ExCW=0 ScaHFX=  0.540000
 ScaDFX=  1.000000  1.000000  1.000000  1.000000 ScalE2=  1.000000  1.000000
 IRadAn=      5 IRanWt=     -1 IRanGd=            0 ICorTp=0 IEmpDi=131
 NAtoms=   14 NActive=    3 NUniq=    3 SFac= 1.00D+00 NAtFMM=   60 NAOKFM=F Big=F
 Integral buffers will be    131072 words long.
 Raffenetti 2 integral format.
 Two-electron integral symmetry is turned off.
 R6Disp:  Grimme-D3 Dispersion energy=       -0.0000000075 Hartrees.
 Nuclear repulsion after empirical dispersion term =        9.1438727887 Hartrees.
 No density basis found on file   718.
 Leave Link  301 at Fri Feb 17 23:50:30 2023, MaxMem=  6710886400 cpu:               1.3 elap:               0.1
 (Enter /data0/home/software/g16/l302.exe)
 NPDir=0 NMtPBC=     1 NCelOv=     1 NCel=       1 NClECP=     1 NCelD=      1
         NCelK=      1 NCelE2=     1 NClLst=     1 CellRange=     0.0.
 One-electron integrals computed using PRISM.
 NBasis=    39 RedAO= T EigKep=  3.00D-03  NBF=    39
 NBsUse=    39 1.00D-06 EigRej= -1.00D+00 NBFU=    39
 Precomputing XC quadrature grid using
 IXCGrd= 4 IRadAn=           5 IRanWt=          -1 IRanGd=           0 AccXCQ= 0.00D+00.
 Generated NRdTot=       0 NPtTot=           0 NUsed=           0 NTot=          32
 NSgBfM=    41    41    41    41    41 MxSgAt=     3 MxSgA2=     3.
 Leave Link  302 at Fri Feb 17 23:50:30 2023, MaxMem=  6710886400 cpu:               2.2 elap:               0.1
 (Enter /data0/home/software/g16/l303.exe)
 DipDrv:  MaxL=1.
 Leave Link  303 at Fri Feb 17 23:50:30 2023, MaxMem=  6710886400 cpu:               0.4 elap:               0.0
 (Enter /data0/home/software/g16/l401.exe)
 ExpMin= 8.45D-02 ExpMax= 8.59D+03 ExpMxC= 1.30D+03 IAcc=3 IRadAn=         5 AccDes= 0.00D+00
 Harris functional with IExCor= 1009 and IRadAn=       5 diagonalized for initial guess.
 HarFok:  IExCor= 1009 AccDes= 0.00D+00 IRadAn=         5 IDoV= 1 UseB2=F ITyADJ=14
 ICtDFT=  3500011 ScaDFX=  1.000000  1.000000  1.000000  1.000000
 FoFCou: FMM=F IPFlag=           0 FMFlag=      100000 FMFlg1=           0
         NFxFlg=           0 DoJE=T BraDBF=F KetDBF=T FulRan=T
         wScrn=  0.000000 ICntrl=       500 IOpCl=  0 I1Cent=   200000004 NGrid=           0
         NMat0=    1 NMatS0=      1 NMatT0=    0 NMatD0=    1 NMtDS0=    0 NMtDT0=    0
 Symmetry not used in FoFCou.
 Harris En= -76.4170430680560    
 JPrj=0 DoOrth=F DoCkMO=F.
 Leave Link  401 at Fri Feb 17 23:50:30 2023, MaxMem=  6710886400 cpu:               2.9 elap:               0.1
 (Enter /data0/home/software/g16/l502.exe)
 Keep R1 ints in memory in canonical form, NReq=21037743.
 FoFCou: FMM=F IPFlag=           0 FMFlag=           0 FMFlg1=           0
         NFxFlg=           0 DoJE=F BraDBF=F KetDBF=F FulRan=T
         wScrn=  0.000000 ICntrl=       600 IOpCl=  0 I1Cent=           0 NGrid=           0
         NMat0=    1 NMatS0=    780 NMatT0=    0 NMatD0=    1 NMtDS0=    0 NMtDT0=    0
 Symmetry not used in FoFCou.
 Two-electron integral symmetry not used.
 Closed shell SCF:
 Using DIIS extrapolation, IDIIS=  1040.
 NGot=  6710886400 LenX=  6710576681 LenY=  6710574559
 Requested convergence on RMS density matrix=1.00D-08 within 128 cycles.
 Requested convergence on MAX density matrix=1.00D-06.
 Requested convergence on             energy=1.00D-06.
 No special actions if energy rises.
 Integral accuracy reduced to 1.0D-05 until final iterations.

 Cycle   1  Pass 0  IDiag  1:
 E= -76.3461184866292    
 DIIS: error= 7.07D-02 at cycle   1 NSaved=   1.
 NSaved= 1 IEnMin= 1 EnMin= -76.3461184866292     IErMin= 1 ErrMin= 7.07D-02
 ErrMax= 7.07D-02  0.00D+00 EMaxC= 1.00D-01 BMatC= 1.22D-01 BMatP= 1.22D-01
 IDIUse=3 WtCom= 2.93D-01 WtEn= 7.07D-01
 Coeff-Com:  0.100D+01
 Coeff-En:   0.100D+01
 Coeff:      0.100D+01
 Gap=     0.326 Goal=   None    Shift=    0.000
 GapD=    0.326 DampG=1.000 DampE=0.500 DampFc=0.5000 IDamp=-1.
 Damping current iteration by 5.00D-01
 RMSDP=7.91D-03 MaxDP=1.02D-01              OVMax= 1.69D-01

 Cycle   2  Pass 0  IDiag  1:
 E= -76.3778782580303     Delta-E=       -0.031759771401 Rises=F Damp=T
 DIIS: error= 1.16D-02 at cycle   2 NSaved=   2.
 NSaved= 2 IEnMin= 2 EnMin= -76.3778782580303     IErMin= 2 ErrMin= 1.16D-02
 ErrMax= 1.16D-02  0.00D+00 EMaxC= 1.00D-01 BMatC= 4.77D-03 BMatP= 1.22D-01
 IDIUse=3 WtCom= 8.84D-01 WtEn= 1.16D-01
 Coeff-Com:  0.802D-01 0.920D+00
 Coeff-En:   0.184D+00 0.816D+00
 Coeff:      0.922D-01 0.908D+00
 Gap=     0.459 Goal=   None    Shift=    0.000
 RMSDP=9.32D-04 MaxDP=1.38D-02 DE=-3.18D-02 OVMax= 1.00D-01

 Cycle   3  Pass 0  IDiag  1:
 E= -76.4219141449947     Delta-E=       -0.044035886964 Rises=F Damp=F
 DIIS: error= 2.15D-03 at cycle   3 NSaved=   3.
 NSaved= 3 IEnMin= 3 EnMin= -76.4219141449947     IErMin= 3 ErrMin= 2.15D-03
 ErrMax= 2.15D-03  0.00D+00 EMaxC= 1.00D-01 BMatC= 8.94D-05 BMatP= 4.77D-03
 IDIUse=3 WtCom= 9.78D-01 WtEn= 2.15D-02
 Coeff-Com: -0.199D-01 0.388D-01 0.981D+00
 Coeff-En:   0.000D+00 0.000D+00 0.100D+01
 Coeff:     -0.195D-01 0.379D-01 0.982D+00
 Gap=     0.463 Goal=   None    Shift=    0.000
 RMSDP=1.14D-04 MaxDP=1.02D-03 DE=-4.40D-02 OVMax= 3.27D-03

 Cycle   4  Pass 0  IDiag  1:
 E= -76.4219902663312     Delta-E=       -0.000076121336 Rises=F Damp=F
 DIIS: error= 4.06D-04 at cycle   4 NSaved=   4.
 NSaved= 4 IEnMin= 4 EnMin= -76.4219902663312     IErMin= 4 ErrMin= 4.06D-04
 ErrMax= 4.06D-04  0.00D+00 EMaxC= 1.00D-01 BMatC= 3.19D-06 BMatP= 8.94D-05
 IDIUse=3 WtCom= 9.96D-01 WtEn= 4.06D-03
 Coeff-Com: -0.182D-02-0.223D-02 0.161D+00 0.843D+00
 Coeff-En:   0.000D+00 0.000D+00 0.000D+00 0.100D+01
 Coeff:     -0.181D-02-0.222D-02 0.160D+00 0.844D+00
 Gap=     0.464 Goal=   None    Shift=    0.000
 RMSDP=2.19D-05 MaxDP=3.51D-04 DE=-7.61D-05 OVMax= 5.25D-04

 Cycle   5  Pass 0  IDiag  1:
 E= -76.4219922329956     Delta-E=       -0.000001966664 Rises=F Damp=F
 DIIS: error= 8.66D-05 at cycle   5 NSaved=   5.
 NSaved= 5 IEnMin= 5 EnMin= -76.4219922329956     IErMin= 5 ErrMin= 8.66D-05
 ErrMax= 8.66D-05  0.00D+00 EMaxC= 1.00D-01 BMatC= 7.97D-08 BMatP= 3.19D-06
 IDIUse=1 WtCom= 1.00D+00 WtEn= 0.00D+00
 Coeff-Com:  0.115D-02-0.176D-02-0.360D-01-0.624D-01 0.110D+01
 Coeff:      0.115D-02-0.176D-02-0.360D-01-0.624D-01 0.110D+01
 Gap=     0.464 Goal=   None    Shift=    0.000
 RMSDP=8.78D-06 MaxDP=1.01D-04 DE=-1.97D-06 OVMax= 1.96D-04

 Initial convergence to 1.0D-05 achieved.  Increase integral accuracy.
 Cycle   6  Pass 1  IDiag  1:
 E= -76.4220156683883     Delta-E=       -0.000023435393 Rises=F Damp=F
 DIIS: error= 2.23D-05 at cycle   1 NSaved=   1.
 NSaved= 1 IEnMin= 1 EnMin= -76.4220156683883     IErMin= 1 ErrMin= 2.23D-05
 ErrMax= 2.23D-05  0.00D+00 EMaxC= 1.00D-01 BMatC= 1.44D-08 BMatP= 1.44D-08
 IDIUse=1 WtCom= 1.00D+00 WtEn= 0.00D+00
 Coeff-Com:  0.100D+01
 Coeff:      0.100D+01
 Gap=     0.464 Goal=   None    Shift=    0.000
 RMSDP=8.78D-06 MaxDP=1.01D-04 DE=-2.34D-05 OVMax= 3.63D-05

 Cycle   7  Pass 1  IDiag  1:
 E= -76.4220156796507     Delta-E=       -0.000000011262 Rises=F Damp=F
 DIIS: error= 4.90D-06 at cycle   2 NSaved=   2.
 NSaved= 2 IEnMin= 2 EnMin= -76.4220156796507     IErMin= 2 ErrMin= 4.90D-06
 ErrMax= 4.90D-06  0.00D+00 EMaxC= 1.00D-01 BMatC= 3.81D-10 BMatP= 1.44D-08
 IDIUse=1 WtCom= 1.00D+00 WtEn= 0.00D+00
 Coeff-Com: -0.227D-01 0.102D+01
 Coeff:     -0.227D-01 0.102D+01
 Gap=     0.464 Goal=   None    Shift=    0.000
 RMSDP=4.74D-07 MaxDP=5.08D-06 DE=-1.13D-08 OVMax= 1.17D-05

 Cycle   8  Pass 1  IDiag  1:
 E= -76.4220156798747     Delta-E=       -0.000000000224 Rises=F Damp=F
 DIIS: error= 3.06D-06 at cycle   3 NSaved=   3.
 NSaved= 3 IEnMin= 3 EnMin= -76.4220156798747     IErMin= 3 ErrMin= 3.06D-06
 ErrMax= 3.06D-06  0.00D+00 EMaxC= 1.00D-01 BMatC= 2.88D-10 BMatP= 3.81D-10
 IDIUse=1 WtCom= 1.00D+00 WtEn= 0.00D+00
 Coeff-Com: -0.419D-01 0.482D+00 0.560D+00
 Coeff:     -0.419D-01 0.482D+00 0.560D+00
 Gap=     0.464 Goal=   None    Shift=    0.000
 RMSDP=2.24D-07 MaxDP=2.95D-06 DE=-2.24D-10 OVMax= 5.26D-06

 Cycle   9  Pass 1  IDiag  1:
 E= -76.4220156800623     Delta-E=       -0.000000000188 Rises=F Damp=F
 DIIS: error= 9.41D-07 at cycle   4 NSaved=   4.
 NSaved= 4 IEnMin= 4 EnMin= -76.4220156800623     IErMin= 4 ErrMin= 9.41D-07
 ErrMax= 9.41D-07  0.00D+00 EMaxC= 1.00D-01 BMatC= 1.01D-11 BMatP= 2.88D-10
 IDIUse=1 WtCom= 1.00D+00 WtEn= 0.00D+00
 Coeff-Com: -0.318D-02-0.244D-01 0.128D+00 0.900D+00
 Coeff:     -0.318D-02-0.244D-01 0.128D+00 0.900D+00
 Gap=     0.464 Goal=   None    Shift=    0.000
 RMSDP=5.95D-08 MaxDP=6.39D-07 DE=-1.88D-10 OVMax= 1.55D-06

 Cycle  10  Pass 1  IDiag  1:
 E= -76.4220156800718     Delta-E=       -0.000000000009 Rises=F Damp=F
 DIIS: error= 7.22D-08 at cycle   5 NSaved=   5.
 NSaved= 5 IEnMin= 5 EnMin= -76.4220156800718     IErMin= 5 ErrMin= 7.22D-08
 ErrMax= 7.22D-08  0.00D+00 EMaxC= 1.00D-01 BMatC= 2.48D-13 BMatP= 1.01D-11
 IDIUse=1 WtCom= 1.00D+00 WtEn= 0.00D+00
 Coeff-Com:  0.175D-02-0.282D-01-0.136D-01 0.111D+00 0.929D+00
 Coeff:      0.175D-02-0.282D-01-0.136D-01 0.111D+00 0.929D+00
 Gap=     0.464 Goal=   None    Shift=    0.000
 RMSDP=1.74D-08 MaxDP=1.41D-07 DE=-9.44D-12 OVMax= 3.95D-07

 Cycle  11  Pass 1  IDiag  1:
 E= -76.4220156800723     Delta-E=       -0.000000000001 Rises=F Damp=F
 DIIS: error= 1.47D-08 at cycle   6 NSaved=   6.
 NSaved= 6 IEnMin= 6 EnMin= -76.4220156800723     IErMin= 6 ErrMin= 1.47D-08
 ErrMax= 1.47D-08  0.00D+00 EMaxC= 1.00D-01 BMatC= 8.35D-15 BMatP= 2.48D-13
 IDIUse=1 WtCom= 1.00D+00 WtEn= 0.00D+00
 Coeff-Com:  0.236D-03-0.110D-02-0.864D-02-0.335D-01-0.179D-01 0.106D+01
 Coeff:      0.236D-03-0.110D-02-0.864D-02-0.335D-01-0.179D-01 0.106D+01
 Gap=     0.464 Goal=   None    Shift=    0.000
 RMSDP=4.96D-09 MaxDP=4.23D-08 DE=-5.26D-13 OVMax= 1.03D-07

 SCF Done:  E(RM062X) =  -76.4220156801     A.U. after   11 cycles
            NFock= 11  Conv=0.50D-08     -V/T= 2.0028
 KE= 7.621085940072D+01 PE=-1.991454846427D+02 EE= 3.736873677321D+01
 Leave Link  502 at Fri Feb 17 23:50:30 2023, MaxMem=  6710886400 cpu:               8.9 elap:               0.4
 (Enter /data0/home/software/g16/l601.exe)
 Copying SCF densities to generalized density rwf, IOpCl= 0 IROHF=0.

 **********************************************************************

            Population analysis using the SCF density.

 **********************************************************************

 Alpha  occ. eigenvalues --  -19.62529  -1.13529  -0.60971  -0.47534  -0.40017
 Alpha virt. eigenvalues --    0.06366   0.13393   0.17381   0.17942   0.18941
 Alpha virt. eigenvalues --    0.23247   0.51635   0.53564   0.97841   1.00109
 Alpha virt. eigenvalues --    1.06045   1.18568   1.20021   1.32495   1.33657
 Alpha virt. eigenvalues --    1.69969   1.74356   1.75925   2.08586   2.09112
 Alpha virt. eigenvalues --    2.35681   2.42203   2.54600   2.89180   3.01718
 Alpha virt. eigenvalues --    5.05716   5.48601   5.94201   6.78266   6.80221
 Alpha virt. eigenvalues --    6.87080   6.91545   7.09206  49.96275
          Condensed to atoms (all electrons):
              12         13         14
    12  O    7.911825   0.321725   0.322205
    13  H    0.321725   0.424889  -0.024710
    14  H    0.322205  -0.024710   0.424844
 Mulliken charges:
               1
     1  C    0.000000
     2  C    0.000000
     3  C    0.000000
     4  C    0.000000
     5  C    0.000000
     6  N    0.000000
     7  H    0.000000
     8  H    0.000000
     9  H    0.000000
    10  H    0.000000
    11  H    0.000000
    12  O   -0.555755
    13  H    0.278095
    14  H    0.277660
 Sum of Mulliken charges =  -0.00000
 Mulliken charges with hydrogens summed into heavy atoms:
               1
     1  C    0.000000
     2  C    0.000000
     3  C    0.000000
     4  C    0.000000
     5  C    0.000000
     6  N    0.000000
    12  O   -0.000000
         Mulliken charges condensed to fragments:
      1      0.000000
      2     -0.000000
 Electronic spatial extent (au):  <R**2>=          12879.7381
 Charge=              0.0000 electrons
 Dipole moment (field-independent basis, Debye):
    X=              1.0609    Y=             -1.2980    Z=              1.2826  Tot=              2.1108
 Quadrupole moment (field-independent basis, Debye-Ang):
   XX=             17.9586   YY=            -40.1914   ZZ=             15.8601
   XY=              0.3528   XZ=             22.6470   YZ=              4.1024
 Traceless Quadrupole moment (field-independent basis, Debye-Ang):
   XX=             20.0829   YY=            -38.0672   ZZ=             17.9843
   XY=              0.3528   XZ=             22.6470   YZ=              4.1024
 Octapole moment (field-independent basis, Debye-Ang**2):
  XXX=            212.8230  YYY=           -908.1301  ZZZ=            120.6582  XYY=           -239.7420
  XXY=             94.6909  XXZ=            296.1662  XZZ=            244.0203  YZZ=             85.6002
  YYZ=           -166.3531  XYZ=            164.1362
 Hexadecapole moment (field-independent basis, Debye-Ang**3):
 XXXX=           1965.1634 YYYY=         -17882.9050 ZZZZ=            366.8042 XXXY=           1337.9203
 XXXZ=           3306.2565 YYYX=          -7184.2871 YYYZ=          -5739.1753 ZZZX=           1902.7092
 ZZZY=            421.0039 XXYY=          -1327.6610 XXZZ=           3038.3613 YYZZ=           -948.1629
 XXYZ=           2503.3832 YYXZ=           -167.9897 ZZXY=           1921.9969
 N-N= 9.143872788685D+00 E-N=-1.991454844593D+02  KE= 7.621085940072D+01
 No NMR shielding tensors so no spin-rotation constants.
 Leave Link  601 at Fri Feb 17 23:50:31 2023, MaxMem=  6710886400 cpu:               1.8 elap:               0.1
 (Enter /data0/home/software/g16/l122.exe)
 CPIOFr:  IOpCl= 0 IRwI=-1 IRwCP=  731 ICalc=  4 LCPTot=       83644 Len1MO=      218311 IndFrg=     1175199
 Restoring MOs from calculation   1 to rwf.
 CPIOFr:  IOpCl= 0 IRwI=-2 IRwCP=  731 ICalc=  0 LCPTot=       83644 Len1MO=      218311 IndFrg=      301955
 Counterpoise corrected energy =    -324.666596486357
                   BSSE energy =       0.000033105134
              sum of fragments =    -324.666733499289
           complexation energy =       0.07 kcal/mole (raw)
           complexation energy =       0.09 kcal/mole (corrected)
 Leave Link  122 at Fri Feb 17 23:50:31 2023, MaxMem=  6710886400 cpu:               0.1 elap:               0.0
 (Enter /data0/home/software/g16/l9999.exe)
 1\1\GINC-LOCALHOST\SP\RM062X\6-311+G(2d,p)\C5H7N1O1\WUHANYU\17-Feb-202
 3\0\\#p M062X/6-311+G(2d,p) nosymm em=GD3 counterpoise=2\\Title Card R
 equired\\0,1\C,0,7.985942,12.722765,14.013287\C,0,6.949082,11.832562,1
 4.324303\C,0,5.656219,12.332715,14.45765\C,0,5.429465,13.696686,14.277
 371\C,0,6.517722,14.52016,13.967808\N,0,7.769928,14.040455,13.842294\H
 ,0,4.829188,11.665702,14.699362\H,0,9.026037,12.381632,13.891924\H,0,7
 .156161,10.774712,14.455931\H,0,4.43172,14.113685,14.373329\H,0,6.4015
 33,15.598899,13.810883\O,0,10.71145,12.955889,8.781419\H,0,10.351519,1
 2.307059,9.39688\H,0,11.664012,12.878303,8.883697\\Version=ES64L-G16Re
 vA.03\HF=-76.4220157\RMSD=4.960e-09\Dipole=-0.2803371,-1.0259282,0.701
 0998\Quadrupole=9.0473423,-41.0244901,31.9771477,-26.2780685,0.5222571
 ,-6.2356269\PG=C01 [X(C5H7N1O1)]\\@


 ADVERTISING--  HE WHO HAS SOMETHING TO SELL AND GOES AND WHISPERS
                IN A WELL, IS NOT SO APT TO GET THE DOLLARS AS HE
                WHO CLIMBS A TREE AND HOLLERS.

                   -- FROM THE BACK OF A SUGAR PACKET
 Job cpu time:       0 days  0 hours 15 minutes 22.3 seconds.
 Elapsed time:       0 days  0 hours  0 minutes 42.4 seconds.
 File lengths (MBytes):  RWF=     50 Int=      0 D2E=      0 Chk=     13 Scr=      1
 Normal termination of Gaussian 16 at Fri Feb 17 23:50:31 2023.
