 Entering Gaussian System, Link 0=g16
 Initial command:
 /data0/home/software/g16/l1.exe "/data0/home/software/g16/scratch/Gau-2481496.inp" -scrdir="/data0/home/software/g16/scratch/"
 Default is to use a total of  22 processors:
                               22 via shared-memory
                                1 via Linda
 Entering Link 1 = /data0/home/software/g16/l1.exe PID=   2481497.
  
 Copyright (c) 1988,1990,1992,1993,1995,1998,2003,2009,2016,
            Gaussian, Inc.  All Rights Reserved.
  
 This is part of the Gaussian(R) 16 program.  It is based on
 the Gaussian(R) 09 system (copyright 2009, Gaussian, Inc.),
 the Gaussian(R) 03 system (copyright 2003, Gaussian, Inc.),
 the Gaussian(R) 98 system (copyright 1998, Gaussian, Inc.),
 the Gaussian(R) 94 system (copyright 1995, Gaussian, Inc.),
 the Gaussian 92(TM) system (copyright 1992, Gaussian, Inc.),
 the Gaussian 90(TM) system (copyright 1990, Gaussian, Inc.),
 the Gaussian 88(TM) system (copyright 1988, Gaussian, Inc.),
 the Gaussian 86(TM) system (copyright 1986, Carnegie Mellon
 University), and the Gaussian 82(TM) system (copyright 1983,
 Carnegie Mellon University). Gaussian is a federally registered
 trademark of Gaussian, Inc.
  
 This software contains proprietary and confidential information,
 including trade secrets, belonging to Gaussian, Inc.
  
 This software is provided under written license and may be
 used, copied, transmitted, or stored only in accord with that
 written license.
  
 The following legend is applicable only to US Government
 contracts under FAR:
  
                    RESTRICTED RIGHTS LEGEND
  
 Use, reproduction and disclosure by the US Government is
 subject to restrictions as set forth in subparagraphs (a)
 and (c) of the Commercial Computer Software - Restricted
 Rights clause in FAR 52.227-19.
  
 Gaussian, Inc.
 340 Quinnipiac St., Bldg. 40, Wallingford CT 06492
  
  
 ---------------------------------------------------------------
 Warning -- This program may not be used in any manner that
 competes with the business of Gaussian, Inc. or will provide
 assistance to any competitor of Gaussian, Inc.  The licensee
 of this program is prohibited from giving any competitor of
 Gaussian, Inc. access to this program.  By using this program,
 the user acknowledges that Gaussian, Inc. is engaged in the
 business of creating and licensing software in the field of
 computational chemistry and represents and warrants to the
 licensee that it is not a competitor of Gaussian, Inc. and that
 it will not use this program in any manner prohibited above.
 ---------------------------------------------------------------
  

 Cite this work as:
 Gaussian 16, Revision A.03,
 M. J. Frisch, G. W. Trucks, H. B. Schlegel, G. E. Scuseria, 
 M. A. Robb, J. R. Cheeseman, G. Scalmani, V. Barone, 
 G. A. Petersson, H. Nakatsuji, X. Li, M. Caricato, A. V. Marenich, 
 J. Bloino, B. G. Janesko, R. Gomperts, B. Mennucci, H. P. Hratchian, 
 J. V. Ortiz, A. F. Izmaylov, J. L. Sonnenberg, D. Williams-Young, 
 F. Ding, F. Lipparini, F. Egidi, J. Goings, B. Peng, A. Petrone, 
 T. Henderson, D. Ranasinghe, V. G. Zakrzewski, J. Gao, N. Rega, 
 G. Zheng, W. Liang, M. Hada, M. Ehara, K. Toyota, R. Fukuda, 
 J. Hasegawa, M. Ishida, T. Nakajima, Y. Honda, O. Kitao, H. Nakai, 
 T. Vreven, K. Throssell, J. A. Montgomery, Jr., J. E. Peralta, 
 F. Ogliaro, M. J. Bearpark, J. J. Heyd, E. N. Brothers, K. N. Kudin, 
 V. N. Staroverov, T. A. Keith, R. Kobayashi, J. Normand, 
 K. Raghavachari, A. P. Rendell, J. C. Burant, S. S. Iyengar, 
 J. Tomasi, M. Cossi, J. M. Millam, M. Klene, C. Adamo, R. Cammi, 
 J. W. Ochterski, R. L. Martin, K. Morokuma, O. Farkas, 
 J. B. Foresman, and D. J. Fox, Gaussian, Inc., Wallingford CT, 2016.
 
 ******************************************
 Gaussian 16:  ES64L-G16RevA.03 25-Dec-2016
                11-Oct-2023 
 ******************************************
 %nprocshared=24
 Will use up to   24 processors via shared memory.
 %mem=50GB
 -----------------------------------------------------------------
 #p opt freq b3lyp/6-311+g(2d,p) scrf=(smd,solvent=water) em=gd3bj
 -----------------------------------------------------------------
 1/18=20,19=15,26=3,38=1/1,3;
 2/9=110,12=2,17=6,18=5,40=1/2;
 3/5=4,6=6,7=112,11=2,25=1,30=1,70=32201,71=1,72=1,74=-5,124=41/1,2,3;
 4//1;
 5/5=2,38=5,53=1/2;
 6/7=2,8=2,9=2,10=2,28=1/1;
 7//1,2,3,16;
 1/18=20,19=15,26=3/3(2);
 2/9=110/2;
 99//99;
 2/9=110/2;
 3/5=4,6=6,7=112,11=2,25=1,30=1,70=32205,71=1,72=1,74=-5,124=41/1,2,3;
 4/5=5,16=3,69=1/1;
 5/5=2,38=5,53=1/2;
 7//1,2,3,16;
 1/18=20,19=15,26=3/3(-5);
 2/9=110/2;
 6/7=2,8=2,9=2,10=2,19=2,28=1/1;
 99/9=1/99;
 Leave Link    1 at Wed Oct 11 11:42:37 2023, MaxMem=  6710886400 cpu:               0.9 elap:               0.0
 (Enter /data0/home/software/g16/l101.exe)
 -------------------
 Title Card Required
 -------------------
 Symbolic Z-matrix:
 Charge =  0 Multiplicity = 1
 C                    -0.26121   0.68116  -0.00003 
 C                    -0.2602   -0.72908  -0.00006 
 C                     0.95096  -1.42443   0.00001 
 C                     2.12519  -0.68455   0.00014 
 C                     2.10571   0.72309   0.00017 
 C                     0.91147   1.43126   0.00007 
 H                     0.96765  -2.5078   -0.00011 
 H                     3.07916  -1.19806   0.00013 
 H                     3.0435    1.26545   0.00021 
 H                     0.89183   2.51394   0.00006 
 H                    -1.97686   1.96954  -0.00036 
 C                    -2.31467  -0.12192   0.00041 
 H                    -3.39369  -0.11011   0.0005 
 N                    -1.59564   1.03423  -0.0002 
 N                    -1.56937  -1.20369  -0.00047 
 
 ITRead=  0  0  0  0  0  0  0  0  0  0  0  0  0  0  0
 MicOpt= -1 -1 -1 -1 -1 -1 -1 -1 -1 -1 -1 -1 -1 -1 -1
 NAtoms=     15 NQM=       15 NQMF=       0 NMMI=      0 NMMIF=      0
                NMic=       0 NMicF=      0.
                    Isotopes and Nuclear Properties:
 (Nuclear quadrupole moments (NQMom) in fm**2, nuclear magnetic moments (NMagM)
  in nuclear magnetons)

  Atom         1           2           3           4           5           6           7           8           9          10
 IAtWgt=          12          12          12          12          12          12           1           1           1           1
 AtmWgt=  12.0000000  12.0000000  12.0000000  12.0000000  12.0000000  12.0000000   1.0078250   1.0078250   1.0078250   1.0078250
 NucSpn=           0           0           0           0           0           0           1           1           1           1
 AtZEff=  -0.0000000  -0.0000000  -0.0000000  -0.0000000  -0.0000000  -0.0000000  -0.0000000  -0.0000000  -0.0000000  -0.0000000
 NQMom=    0.0000000   0.0000000   0.0000000   0.0000000   0.0000000   0.0000000   0.0000000   0.0000000   0.0000000   0.0000000
 NMagM=    0.0000000   0.0000000   0.0000000   0.0000000   0.0000000   0.0000000   2.7928460   2.7928460   2.7928460   2.7928460
 AtZNuc=   6.0000000   6.0000000   6.0000000   6.0000000   6.0000000   6.0000000   1.0000000   1.0000000   1.0000000   1.0000000

  Atom        11          12          13          14          15
 IAtWgt=           1          12           1          14          14
 AtmWgt=   1.0078250  12.0000000   1.0078250  14.0030740  14.0030740
 NucSpn=           1           0           1           2           2
 AtZEff=  -0.0000000  -0.0000000  -0.0000000  -0.0000000  -0.0000000
 NQMom=    0.0000000   0.0000000   0.0000000   2.0440000   2.0440000
 NMagM=    2.7928460   0.0000000   2.7928460   0.4037610   0.4037610
 AtZNuc=   1.0000000   6.0000000   1.0000000   7.0000000   7.0000000
 Leave Link  101 at Wed Oct 11 11:42:37 2023, MaxMem=  6710886400 cpu:               7.7 elap:               0.3
 (Enter /data0/home/software/g16/l103.exe)

 GradGradGradGradGradGradGradGradGradGradGradGradGradGradGradGradGradGrad
 Berny optimization.
 Initialization pass.
                           ----------------------------
                           !    Initial Parameters    !
                           ! (Angstroms and Degrees)  !
 --------------------------                            --------------------------
 ! Name  Definition              Value          Derivative Info.                !
 --------------------------------------------------------------------------------
 ! R1    R(1,2)                  1.4102         estimate D2E/DX2                !
 ! R2    R(1,6)                  1.3921         estimate D2E/DX2                !
 ! R3    R(1,14)                 1.3804         estimate D2E/DX2                !
 ! R4    R(2,3)                  1.3966         estimate D2E/DX2                !
 ! R5    R(2,15)                 1.3925         estimate D2E/DX2                !
 ! R6    R(3,4)                  1.3879         estimate D2E/DX2                !
 ! R7    R(3,7)                  1.0835         estimate D2E/DX2                !
 ! R8    R(4,5)                  1.4078         estimate D2E/DX2                !
 ! R9    R(4,8)                  1.0834         estimate D2E/DX2                !
 ! R10   R(5,6)                  1.3884         estimate D2E/DX2                !
 ! R11   R(5,9)                  1.0833         estimate D2E/DX2                !
 ! R12   R(6,10)                 1.0829         estimate D2E/DX2                !
 ! R13   R(11,14)                1.01           estimate D2E/DX2                !
 ! R14   R(12,13)                1.0791         estimate D2E/DX2                !
 ! R15   R(12,14)                1.3615         estimate D2E/DX2                !
 ! R16   R(12,15)                1.3137         estimate D2E/DX2                !
 ! A1    A(2,1,6)              122.5638         estimate D2E/DX2                !
 ! A2    A(2,1,14)             104.861          estimate D2E/DX2                !
 ! A3    A(6,1,14)             132.5752         estimate D2E/DX2                !
 ! A4    A(1,2,3)              119.9023         estimate D2E/DX2                !
 ! A5    A(1,2,15)             109.886          estimate D2E/DX2                !
 ! A6    A(3,2,15)             130.2117         estimate D2E/DX2                !
 ! A7    A(2,3,4)              117.9236         estimate D2E/DX2                !
 ! A8    A(2,3,7)              120.744          estimate D2E/DX2                !
 ! A9    A(4,3,7)              121.3323         estimate D2E/DX2                !
 ! A10   A(3,4,5)              121.4223         estimate D2E/DX2                !
 ! A11   A(3,4,8)              119.4919         estimate D2E/DX2                !
 ! A12   A(5,4,8)              119.0859         estimate D2E/DX2                !
 ! A13   A(4,5,6)              121.4601         estimate D2E/DX2                !
 ! A14   A(4,5,9)              119.2495         estimate D2E/DX2                !
 ! A15   A(6,5,9)              119.2904         estimate D2E/DX2                !
 ! A16   A(1,6,5)              116.7278         estimate D2E/DX2                !
 ! A17   A(1,6,10)             121.5657         estimate D2E/DX2                !
 ! A18   A(5,6,10)             121.7065         estimate D2E/DX2                !
 ! A19   A(13,12,14)           121.2511         estimate D2E/DX2                !
 ! A20   A(13,12,15)           125.1926         estimate D2E/DX2                !
 ! A21   A(14,12,15)           113.5563         estimate D2E/DX2                !
 ! A22   A(1,14,11)            126.9947         estimate D2E/DX2                !
 ! A23   A(1,14,12)            107.0582         estimate D2E/DX2                !
 ! A24   A(11,14,12)           125.9471         estimate D2E/DX2                !
 ! A25   A(2,15,12)            104.6385         estimate D2E/DX2                !
 ! D1    D(6,1,2,3)              0.0004         estimate D2E/DX2                !
 ! D2    D(6,1,2,15)          -179.9865         estimate D2E/DX2                !
 ! D3    D(14,1,2,3)           179.9964         estimate D2E/DX2                !
 ! D4    D(14,1,2,15)            0.0095         estimate D2E/DX2                !
 ! D5    D(2,1,6,5)             -0.0014         estimate D2E/DX2                !
 ! D6    D(2,1,6,10)           179.9974         estimate D2E/DX2                !
 ! D7    D(14,1,6,5)          -179.9961         estimate D2E/DX2                !
 ! D8    D(14,1,6,10)            0.0027         estimate D2E/DX2                !
 ! D9    D(2,1,14,11)         -179.9908         estimate D2E/DX2                !
 ! D10   D(2,1,14,12)            0.0325         estimate D2E/DX2                !
 ! D11   D(6,1,14,11)            0.0046         estimate D2E/DX2                !
 ! D12   D(6,1,14,12)         -179.9721         estimate D2E/DX2                !
 ! D13   D(1,2,3,4)              0.0007         estimate D2E/DX2                !
 ! D14   D(1,2,3,7)           -179.9942         estimate D2E/DX2                !
 ! D15   D(15,2,3,4)           179.9845         estimate D2E/DX2                !
 ! D16   D(15,2,3,7)            -0.0103         estimate D2E/DX2                !
 ! D17   D(1,2,15,12)           -0.0486         estimate D2E/DX2                !
 ! D18   D(3,2,15,12)          179.9663         estimate D2E/DX2                !
 ! D19   D(2,3,4,5)             -0.0008         estimate D2E/DX2                !
 ! D20   D(2,3,4,8)           -179.9963         estimate D2E/DX2                !
 ! D21   D(7,3,4,5)            179.994          estimate D2E/DX2                !
 ! D22   D(7,3,4,8)             -0.0015         estimate D2E/DX2                !
 ! D23   D(3,4,5,6)             -0.0002         estimate D2E/DX2                !
 ! D24   D(3,4,5,9)           -179.9967         estimate D2E/DX2                !
 ! D25   D(8,4,5,6)            179.9954         estimate D2E/DX2                !
 ! D26   D(8,4,5,9)             -0.0011         estimate D2E/DX2                !
 ! D27   D(4,5,6,1)              0.0012         estimate D2E/DX2                !
 ! D28   D(4,5,6,10)          -179.9975         estimate D2E/DX2                !
 ! D29   D(9,5,6,1)            179.9977         estimate D2E/DX2                !
 ! D30   D(9,5,6,10)            -0.001          estimate D2E/DX2                !
 ! D31   D(13,12,14,1)         179.9947         estimate D2E/DX2                !
 ! D32   D(13,12,14,11)          0.0177         estimate D2E/DX2                !
 ! D33   D(15,12,14,1)          -0.0685         estimate D2E/DX2                !
 ! D34   D(15,12,14,11)        179.9545         estimate D2E/DX2                !
 ! D35   D(13,12,15,2)        -179.994          estimate D2E/DX2                !
 ! D36   D(14,12,15,2)           0.0722         estimate D2E/DX2                !
 --------------------------------------------------------------------------------
 Trust Radius=3.00D-01 FncErr=1.00D-07 GrdErr=1.00D-06 EigMax=2.50D+02 EigMin=1.00D-04
 Number of steps in this run=     87 maximum allowed number of steps=    100.
 GradGradGradGradGradGradGradGradGradGradGradGradGradGradGradGradGradGrad

 Leave Link  103 at Wed Oct 11 11:42:37 2023, MaxMem=  6710886400 cpu:               0.2 elap:               0.0
 (Enter /data0/home/software/g16/l202.exe)
                          Input orientation:                          
 ---------------------------------------------------------------------
 Center     Atomic      Atomic             Coordinates (Angstroms)
 Number     Number       Type             X           Y           Z
 ---------------------------------------------------------------------
      1          6           0       -0.261205    0.681161   -0.000025
      2          6           0       -0.260195   -0.729077   -0.000060
      3          6           0        0.950956   -1.424431    0.000014
      4          6           0        2.125187   -0.684546    0.000135
      5          6           0        2.105708    0.723092    0.000166
      6          6           0        0.911470    1.431258    0.000073
      7          1           0        0.967649   -2.507797   -0.000106
      8          1           0        3.079156   -1.198056    0.000134
      9          1           0        3.043496    1.265447    0.000207
     10          1           0        0.891831    2.513940    0.000057
     11          1           0       -1.976857    1.969543   -0.000360
     12          6           0       -2.314672   -0.121919    0.000409
     13          1           0       -3.393690   -0.110110    0.000495
     14          7           0       -1.595644    1.034232   -0.000201
     15          7           0       -1.569368   -1.203689   -0.000470
 ---------------------------------------------------------------------
                    Distance matrix (angstroms):
                    1          2          3          4          5
     1  C    0.000000
     2  C    1.410238   0.000000
     3  C    2.429579   1.396569   0.000000
     4  C    2.749549   2.385798   1.387893   0.000000
     5  C    2.367284   2.776021   2.438300   1.407773   0.000000
     6  C    1.392053   2.457610   2.855962   2.439208   1.388418
     7  H    3.417534   2.161353   1.083495   2.159662   3.425467
     8  H    3.832684   3.372122   2.140206   1.083397   2.153697
     9  H    3.355956   3.859080   3.407956   2.155403   1.083326
    10  H    2.165311   3.441558   3.938815   3.428043   2.163477
    11  H    2.145551   3.198356   4.482315   4.885791   4.268604
    12  C    2.204918   2.142316   3.515802   4.475366   4.500423
    13  H    3.230878   3.194043   4.539096   5.548692   5.562158
    14  N    1.380357   2.211941   3.539802   4.098632   3.714406
    15  N    2.294330   1.392548   2.529972   3.730851   4.149538
                    6          7          8          9         10
     6  C    0.000000
     7  H    3.939456   0.000000
     8  H    3.407661   2.484730   0.000000
     9  H    2.138464   4.306566   2.463761   0.000000
    10  H    1.082860   5.022309   4.308515   2.487649   0.000000
    11  H    2.938058   5.358795   5.966318   5.069487   2.919887
    12  C    3.580552   4.057838   5.500132   5.534867   4.150833
    13  H    4.572769   4.976965   6.563639   6.582516   5.025070
    14  N    2.538356   4.372235   5.180431   4.644898   2.894316
    15  N    3.619047   2.852570   4.648527   5.232126   4.458505
                   11         12         13         14         15
    11  H    0.000000
    12  C    2.118569   0.000000
    13  H    2.516421   1.079083   0.000000
    14  N    1.010015   1.361502   2.131311   0.000000
    15  N    3.199289   1.313661   2.126985   2.238075   0.000000
 Stoichiometry    C7H6N2
 Framework group  C1[X(C7H6N2)]
 Deg. of freedom    39
 Full point group                 C1      NOp   1
 Largest Abelian subgroup         C1      NOp   1
 Largest concise Abelian subgroup C1      NOp   1
                         Standard orientation:                         
 ---------------------------------------------------------------------
 Center     Atomic      Atomic             Coordinates (Angstroms)
 Number     Number       Type             X           Y           Z
 ---------------------------------------------------------------------
      1          6           0       -0.261205    0.681161   -0.000025
      2          6           0       -0.260195   -0.729077   -0.000060
      3          6           0        0.950956   -1.424431    0.000014
      4          6           0        2.125187   -0.684546    0.000135
      5          6           0        2.105708    0.723092    0.000166
      6          6           0        0.911470    1.431258    0.000073
      7          1           0        0.967649   -2.507797   -0.000106
      8          1           0        3.079156   -1.198056    0.000134
      9          1           0        3.043496    1.265447    0.000207
     10          1           0        0.891831    2.513940    0.000057
     11          1           0       -1.976857    1.969543   -0.000360
     12          6           0       -2.314672   -0.121919    0.000409
     13          1           0       -3.393690   -0.110110    0.000495
     14          7           0       -1.595644    1.034232   -0.000201
     15          7           0       -1.569368   -1.203689   -0.000470
 ---------------------------------------------------------------------
 Rotational constants (GHZ):           3.9542088           1.6818743           1.1799830
 Leave Link  202 at Wed Oct 11 11:42:37 2023, MaxMem=  6710886400 cpu:               0.1 elap:               0.0
 (Enter /data0/home/software/g16/l301.exe)
 Standard basis: 6-311+G(2d,p) (5D, 7F)
 Ernie: Thresh=  0.10000D-02 Tol=  0.10000D-05 Strict=F.
 There are   297 symmetry adapted cartesian basis functions of A   symmetry.
 There are   279 symmetry adapted basis functions of A   symmetry.
   279 basis functions,   426 primitive gaussians,   297 cartesian basis functions
    31 alpha electrons       31 beta electrons
       nuclear repulsion energy       404.7559430756 Hartrees.
 IExCor=  402 DFT=T Ex+Corr=B3LYP ExCW=0 ScaHFX=  0.200000
 ScaDFX=  0.800000  0.720000  1.000000  0.810000 ScalE2=  1.000000  1.000000
 IRadAn=      5 IRanWt=     -1 IRanGd=            0 ICorTp=0 IEmpDi=141
 NAtoms=   15 NActive=   15 NUniq=   15 SFac= 1.00D+00 NAtFMM=   60 NAOKFM=F Big=F
 Integral buffers will be    131072 words long.
 Raffenetti 2 integral format.
 Two-electron integral symmetry is turned on.
 R6Disp:  Grimme-D3(BJ) Dispersion energy=       -0.0276363847 Hartrees.
 Nuclear repulsion after empirical dispersion term =      404.7283066909 Hartrees.
 ------------------------------------------------------------------------------
 Polarizable Continuum Model (PCM)
 =================================
 Model                : PCM.
 Atomic radii         : SMD-Coulomb.
 Polarization charges : Total charges.
 Charge compensation  : None.
 Solution method      : On-the-fly selection.
 Cavity type          : VdW (van der Waals Surface) (Alpha=1.000).
 Cavity algorithm     : GePol (No added spheres)
                        Default sphere list used, NSphG=   15.
                        Lebedev-Laikov grids with approx.  5.0 points / Ang**2.
                        Smoothing algorithm: York/Karplus (Gamma=1.0000).
                        Polarization charges: spherical gaussians, with
                                              point-specific exponents (IZeta= 3).
                        Self-potential: point-specific (ISelfS= 7).
                        Self-field    : sphere-specific E.n sum rule (ISelfD= 2).
 1st derivatives      : Analytical E(r).r(x)/FMM algorithm (CHGder, D1EAlg=3).
                        Cavity 1st derivative terms included.
 Solvent              : Water, Eps=  78.355300 Eps(inf)=   1.777849
 ------------------------------------------------------------------------------
 Spheres list:
 ISph  on   Nord     Re0    Alpha      Xe            Ye            Ze
    1   C      1    1.8500  1.000     -0.261205      0.681161     -0.000025
    2   C      2    1.8500  1.000     -0.260195     -0.729077     -0.000060
    3   C      3    1.8500  1.000      0.950956     -1.424431      0.000014
    4   C      4    1.8500  1.000      2.125187     -0.684546      0.000135
    5   C      5    1.8500  1.000      2.105708      0.723092      0.000166
    6   C      6    1.8500  1.000      0.911470      1.431258      0.000073
    7   H      7    1.2000  1.000      0.967649     -2.507797     -0.000106
    8   H      8    1.2000  1.000      3.079156     -1.198056      0.000134
    9   H      9    1.2000  1.000      3.043496      1.265447      0.000207
   10   H     10    1.2000  1.000      0.891831      2.513940      0.000057
   11   H     11    1.2000  1.000     -1.976857      1.969543     -0.000360
   12   C     12    1.8500  1.000     -2.314672     -0.121919      0.000409
   13   H     13    1.2000  1.000     -3.393690     -0.110110      0.000495
   14   N     14    1.8900  1.000     -1.595644      1.034232     -0.000201
   15   N     15    1.8900  1.000     -1.569368     -1.203689     -0.000470
 ------------------------------------------------------------------------------
 GePol: Number of generator spheres                  =      15
 GePol: Total number of spheres                      =      15
 GePol: Number of exposed spheres                    =      15 (100.00%)
 GePol: Number of points                             =    1278
 GePol: Average weight of points                     =       0.11
 GePol: Minimum weight of points                     =   0.89D-08
 GePol: Maximum weight of points                     =    0.17992
 GePol: Number of points with low weight             =      51
 GePol: Fraction of low-weight points (<1% of avg)   =       3.99%
 GePol: Cavity surface area                          =    143.211 Ang**2
 GePol: Cavity volume                                =    126.394 Ang**3
 ------------------------------------------------------------------------------
 Atomic radii for non-electrostatic terms: SMD-CDS.
 ------------------------------------------------------------------------------
 PCM non-electrostatic energy =         0.0023186350 Hartrees.
 Nuclear repulsion after PCM non-electrostatic terms =      404.7306253258 Hartrees.
 Leave Link  301 at Wed Oct 11 11:42:37 2023, MaxMem=  6710886400 cpu:               1.5 elap:               0.1
 (Enter /data0/home/software/g16/l302.exe)
 NPDir=0 NMtPBC=     1 NCelOv=     1 NCel=       1 NClECP=     1 NCelD=      1
         NCelK=      1 NCelE2=     1 NClLst=     1 CellRange=     0.0.
 One-electron integrals computed using PRISM.
 One-electron integral symmetry used in STVInt
 NBasis=   279 RedAO= T EigKep=  1.37D-06  NBF=   279
 NBsUse=   279 1.00D-06 EigRej= -1.00D+00 NBFU=   279
 Precomputing XC quadrature grid using
 IXCGrd= 4 IRadAn=           5 IRanWt=          -1 IRanGd=           0 AccXCQ= 0.00D+00.
 Generated NRdTot=       0 NPtTot=           0 NUsed=           0 NTot=          32
 NSgBfM=   297   297   297   297   297 MxSgAt=    15 MxSgA2=    15.
 Leave Link  302 at Wed Oct 11 11:42:37 2023, MaxMem=  6710886400 cpu:               4.3 elap:               0.2
 (Enter /data0/home/software/g16/l303.exe)
 DipDrv:  MaxL=1.
 Leave Link  303 at Wed Oct 11 11:42:37 2023, MaxMem=  6710886400 cpu:               0.6 elap:               0.0
 (Enter /data0/home/software/g16/l401.exe)
 ExpMin= 4.38D-02 ExpMax= 6.29D+03 ExpMxC= 9.49D+02 IAcc=3 IRadAn=         5 AccDes= 0.00D+00
 Harris functional with IExCor=  402 and IRadAn=       5 diagonalized for initial guess.
 HarFok:  IExCor=  402 AccDes= 0.00D+00 IRadAn=         5 IDoV= 1 UseB2=F ITyADJ=14
 ICtDFT=  3500011 ScaDFX=  1.000000  1.000000  1.000000  1.000000
 FoFCou: FMM=F IPFlag=           0 FMFlag=      100000 FMFlg1=           0
         NFxFlg=           0 DoJE=T BraDBF=F KetDBF=T FulRan=T
         wScrn=  0.000000 ICntrl=       500 IOpCl=  0 I1Cent=   200000004 NGrid=           0
         NMat0=    1 NMatS0=      1 NMatT0=    0 NMatD0=    1 NMtDS0=    0 NMtDT0=    0
 Petite list used in FoFCou.
 Harris En= -380.003012406558    
 JPrj=0 DoOrth=F DoCkMO=F.
 Leave Link  401 at Wed Oct 11 11:42:38 2023, MaxMem=  6710886400 cpu:              14.2 elap:               0.6
 (Enter /data0/home/software/g16/l502.exe)
 Integral symmetry usage will be decided dynamically.
 Closed shell SCF:
 Using DIIS extrapolation, IDIIS=  1040.
 NGot=  6710886400 LenX=  6710700099 LenY=  6710611449
 Requested convergence on RMS density matrix=1.00D-08 within 128 cycles.
 Requested convergence on MAX density matrix=1.00D-06.
 Requested convergence on             energy=1.00D-06.
 No special actions if energy rises.
 Fock matrices will be formed incrementally for  20 cycles.

 Cycle   1  Pass 1  IDiag  1:
 FoFJK:  IHMeth= 1 ICntrl=       0 DoSepK=F KAlg= 0 I1Cent=           0 FoldK=F
 IRaf= 960000000 NMat=       1 IRICut=       1 DoRegI=T DoRafI=F ISym2E= 0 IDoP0=0 IntGTp=1.
 FoFCou: FMM=F IPFlag=           0 FMFlag=      100000 FMFlg1=           0
         NFxFlg=           0 DoJE=F BraDBF=F KetDBF=F FulRan=T
         wScrn=  0.000000 ICntrl=         0 IOpCl=  0 I1Cent=           0 NGrid=           0
         NMat0=    1 NMatS0=      1 NMatT0=    0 NMatD0=    1 NMtDS0=    0 NMtDT0=    0
 Symmetry not used in FoFCou.
 Inv3:  Mode=1 IEnd=     4899852.
 Iteration    1 A*A^-1 deviation from unit magnitude is 4.44D-15 for    476.
 Iteration    1 A*A^-1 deviation from orthogonality  is 2.55D-15 for   1259     15.
 Iteration    1 A^-1*A deviation from unit magnitude is 4.11D-15 for   1277.
 Iteration    1 A^-1*A deviation from orthogonality  is 1.91D-11 for    618    578.
 E= -379.830840444205    
 DIIS: error= 3.42D-02 at cycle   1 NSaved=   1.
 NSaved= 1 IEnMin= 1 EnMin= -379.830840444205     IErMin= 1 ErrMin= 3.42D-02
 ErrMax= 3.42D-02  0.00D+00 EMaxC= 1.00D-01 BMatC= 2.06D-01 BMatP= 2.06D-01
 IDIUse=3 WtCom= 6.58D-01 WtEn= 3.42D-01
 Coeff-Com:  0.100D+01
 Coeff-En:   0.100D+01
 Coeff:      0.100D+01
 Gap=     0.229 Goal=   None    Shift=    0.000
 GapD=    0.229 DampG=1.000 DampE=0.500 DampFc=0.5000 IDamp=-1.
 Damping current iteration by 5.00D-01
 RMSDP=1.08D-02 MaxDP=8.47D-01              OVMax= 2.20D-01

 Cycle   2  Pass 1  IDiag  1:
 RMSU=  5.31D-03    CP:  9.48D-01
 E= -379.913399191654     Delta-E=       -0.082558747449 Rises=F Damp=T
 DIIS: error= 5.05D-03 at cycle   2 NSaved=   2.
 NSaved= 2 IEnMin= 2 EnMin= -379.913399191654     IErMin= 2 ErrMin= 5.05D-03
 ErrMax= 5.05D-03  0.00D+00 EMaxC= 1.00D-01 BMatC= 1.53D-02 BMatP= 2.06D-01
 IDIUse=3 WtCom= 9.50D-01 WtEn= 5.05D-02
 Coeff-Com:  0.165D-01 0.984D+00
 Coeff-En:   0.102D+00 0.898D+00
 Coeff:      0.208D-01 0.979D+00
 Gap=     0.249 Goal=   None    Shift=    0.000
 RMSDP=3.17D-03 MaxDP=2.68D-01 DE=-8.26D-02 OVMax= 1.59D-01

 Cycle   3  Pass 1  IDiag  1:
 RMSU=  2.61D-03    CP:  8.67D-01  8.25D-01
 E= -380.006832224685     Delta-E=       -0.093433033031 Rises=F Damp=F
 DIIS: error= 7.48D-03 at cycle   3 NSaved=   3.
 NSaved= 3 IEnMin= 3 EnMin= -380.006832224685     IErMin= 2 ErrMin= 5.05D-03
 ErrMax= 7.48D-03  0.00D+00 EMaxC= 1.00D-01 BMatC= 1.54D-02 BMatP= 1.53D-02
 IDIUse=3 WtCom= 9.25D-01 WtEn= 7.48D-02
 Coeff-Com: -0.678D-01 0.527D+00 0.540D+00
 Coeff-En:   0.000D+00 0.000D+00 0.100D+01
 Coeff:     -0.627D-01 0.488D+00 0.575D+00
 Gap=     0.211 Goal=   None    Shift=    0.000
 RMSDP=1.06D-03 MaxDP=9.85D-02 DE=-9.34D-02 OVMax= 5.77D-02

 Cycle   4  Pass 1  IDiag  1:
 RMSU=  8.15D-04    CP:  8.38D-01  9.03D-01  9.76D-01
 E= -380.017951553776     Delta-E=       -0.011119329091 Rises=F Damp=F
 DIIS: error= 3.98D-03 at cycle   4 NSaved=   4.
 NSaved= 4 IEnMin= 4 EnMin= -380.017951553776     IErMin= 4 ErrMin= 3.98D-03
 ErrMax= 3.98D-03  0.00D+00 EMaxC= 1.00D-01 BMatC= 3.44D-03 BMatP= 1.53D-02
 IDIUse=3 WtCom= 9.60D-01 WtEn= 3.98D-02
 Coeff-Com: -0.432D-01 0.156D+00 0.359D+00 0.528D+00
 Coeff-En:   0.000D+00 0.000D+00 0.186D+00 0.814D+00
 Coeff:     -0.415D-01 0.150D+00 0.352D+00 0.539D+00
 Gap=     0.206 Goal=   None    Shift=    0.000
 RMSDP=3.86D-04 MaxDP=2.51D-02 DE=-1.11D-02 OVMax= 1.79D-02

 Cycle   5  Pass 1  IDiag  1:
 RMSU=  3.23D-04    CP:  8.40D-01  8.67D-01  9.49D-01  9.42D-01
 E= -380.020834406378     Delta-E=       -0.002882852602 Rises=F Damp=F
 DIIS: error= 7.78D-04 at cycle   5 NSaved=   5.
 NSaved= 5 IEnMin= 5 EnMin= -380.020834406378     IErMin= 5 ErrMin= 7.78D-04
 ErrMax= 7.78D-04  0.00D+00 EMaxC= 1.00D-01 BMatC= 1.44D-04 BMatP= 3.44D-03
 IDIUse=3 WtCom= 9.92D-01 WtEn= 7.78D-03
 Coeff-Com: -0.179D-01 0.460D-01 0.144D+00 0.277D+00 0.550D+00
 Coeff-En:   0.000D+00 0.000D+00 0.000D+00 0.000D+00 0.100D+01
 Coeff:     -0.178D-01 0.457D-01 0.143D+00 0.275D+00 0.554D+00
 Gap=     0.207 Goal=   None    Shift=    0.000
 RMSDP=1.54D-04 MaxDP=1.42D-02 DE=-2.88D-03 OVMax= 5.01D-03

 Cycle   6  Pass 1  IDiag  1:
 RMSU=  8.86D-05    CP:  8.35D-01  8.78D-01  9.64D-01  9.93D-01  9.71D-01
 E= -380.020952468414     Delta-E=       -0.000118062036 Rises=F Damp=F
 DIIS: error= 2.41D-04 at cycle   6 NSaved=   6.
 NSaved= 6 IEnMin= 6 EnMin= -380.020952468414     IErMin= 6 ErrMin= 2.41D-04
 ErrMax= 2.41D-04  0.00D+00 EMaxC= 1.00D-01 BMatC= 1.68D-05 BMatP= 1.44D-04
 IDIUse=3 WtCom= 9.98D-01 WtEn= 2.41D-03
 Coeff-Com: -0.522D-02 0.924D-02 0.398D-01 0.912D-01 0.307D+00 0.558D+00
 Coeff-En:   0.000D+00 0.000D+00 0.000D+00 0.000D+00 0.796D-01 0.920D+00
 Coeff:     -0.521D-02 0.922D-02 0.397D-01 0.910D-01 0.306D+00 0.559D+00
 Gap=     0.207 Goal=   None    Shift=    0.000
 RMSDP=3.92D-05 MaxDP=2.92D-03 DE=-1.18D-04 OVMax= 1.79D-03

 Cycle   7  Pass 1  IDiag  1:
 RMSU=  2.20D-05    CP:  8.36D-01  8.77D-01  9.66D-01  9.79D-01  9.09D-01
                    CP:  7.87D-01
 E= -380.020969101384     Delta-E=       -0.000016632970 Rises=F Damp=F
 DIIS: error= 4.45D-05 at cycle   7 NSaved=   7.
 NSaved= 7 IEnMin= 7 EnMin= -380.020969101384     IErMin= 7 ErrMin= 4.45D-05
 ErrMax= 4.45D-05  0.00D+00 EMaxC= 1.00D-01 BMatC= 2.82D-07 BMatP= 1.68D-05
 IDIUse=1 WtCom= 1.00D+00 WtEn= 0.00D+00
 Coeff-Com: -0.125D-02 0.168D-02 0.102D-01 0.246D-01 0.938D-01 0.203D+00
 Coeff-Com:  0.668D+00
 Coeff:     -0.125D-02 0.168D-02 0.102D-01 0.246D-01 0.938D-01 0.203D+00
 Coeff:      0.668D+00
 Gap=     0.207 Goal=   None    Shift=    0.000
 RMSDP=6.27D-06 MaxDP=5.57D-04 DE=-1.66D-05 OVMax= 2.72D-04

 Cycle   8  Pass 1  IDiag  1:
 RMSU=  3.40D-06    CP:  8.36D-01  8.78D-01  9.67D-01  9.82D-01  9.13D-01
                    CP:  8.04D-01  1.05D+00
 E= -380.020969275441     Delta-E=       -0.000000174057 Rises=F Damp=F
 DIIS: error= 2.55D-05 at cycle   8 NSaved=   8.
 NSaved= 8 IEnMin= 8 EnMin= -380.020969275441     IErMin= 8 ErrMin= 2.55D-05
 ErrMax= 2.55D-05  0.00D+00 EMaxC= 1.00D-01 BMatC= 1.22D-07 BMatP= 2.82D-07
 IDIUse=1 WtCom= 1.00D+00 WtEn= 0.00D+00
 Coeff-Com:  0.148D-03-0.525D-03-0.454D-03-0.524D-03 0.516D-02 0.308D-01
 Coeff-Com:  0.414D+00 0.551D+00
 Coeff:      0.148D-03-0.525D-03-0.454D-03-0.524D-03 0.516D-02 0.308D-01
 Coeff:      0.414D+00 0.551D+00
 Gap=     0.207 Goal=   None    Shift=    0.000
 RMSDP=2.80D-06 MaxDP=2.21D-04 DE=-1.74D-07 OVMax= 1.42D-04

 Cycle   9  Pass 1  IDiag  1:
 RMSU=  1.41D-06    CP:  8.36D-01  8.78D-01  9.67D-01  9.83D-01  9.13D-01
                    CP:  8.16D-01  1.11D+00  8.17D-01
 E= -380.020969397207     Delta-E=       -0.000000121767 Rises=F Damp=F
 DIIS: error= 3.25D-06 at cycle   9 NSaved=   9.
 NSaved= 9 IEnMin= 9 EnMin= -380.020969397207     IErMin= 9 ErrMin= 3.25D-06
 ErrMax= 3.25D-06  0.00D+00 EMaxC= 1.00D-01 BMatC= 1.26D-09 BMatP= 1.22D-07
 IDIUse=1 WtCom= 1.00D+00 WtEn= 0.00D+00
 Coeff-Com:  0.853D-04-0.198D-03-0.475D-03-0.109D-02-0.219D-02 0.520D-03
 Coeff-Com:  0.727D-01 0.152D+00 0.779D+00
 Coeff:      0.853D-04-0.198D-03-0.475D-03-0.109D-02-0.219D-02 0.520D-03
 Coeff:      0.727D-01 0.152D+00 0.779D+00
 Gap=     0.207 Goal=   None    Shift=    0.000
 RMSDP=7.10D-07 MaxDP=4.19D-05 DE=-1.22D-07 OVMax= 1.42D-05

 Cycle  10  Pass 1  IDiag  1:
 RMSU=  2.75D-07    CP:  8.36D-01  8.78D-01  9.67D-01  9.83D-01  9.14D-01
                    CP:  8.21D-01  1.12D+00  8.55D-01  1.02D+00
 E= -380.020969398442     Delta-E=       -0.000000001234 Rises=F Damp=F
 DIIS: error= 7.70D-07 at cycle  10 NSaved=  10.
 NSaved=10 IEnMin=10 EnMin= -380.020969398442     IErMin=10 ErrMin= 7.70D-07
 ErrMax= 7.70D-07  0.00D+00 EMaxC= 1.00D-01 BMatC= 2.07D-10 BMatP= 1.26D-09
 IDIUse=1 WtCom= 1.00D+00 WtEn= 0.00D+00
 Coeff-Com:  0.281D-04-0.538D-04-0.164D-03-0.436D-03-0.120D-02-0.103D-02
 Coeff-Com:  0.888D-02 0.380D-01 0.342D+00 0.614D+00
 Coeff:      0.281D-04-0.538D-04-0.164D-03-0.436D-03-0.120D-02-0.103D-02
 Coeff:      0.888D-02 0.380D-01 0.342D+00 0.614D+00
 Gap=     0.207 Goal=   None    Shift=    0.000
 RMSDP=1.72D-07 MaxDP=1.42D-05 DE=-1.23D-09 OVMax= 7.58D-06

 Cycle  11  Pass 1  IDiag  1:
 RMSU=  9.97D-08    CP:  8.36D-01  8.78D-01  9.67D-01  9.83D-01  9.14D-01
                    CP:  8.21D-01  1.12D+00  8.62D-01  1.06D+00  9.62D-01
 E= -380.020969398624     Delta-E=       -0.000000000182 Rises=F Damp=F
 DIIS: error= 3.89D-07 at cycle  11 NSaved=  11.
 NSaved=11 IEnMin=11 EnMin= -380.020969398624     IErMin=11 ErrMin= 3.89D-07
 ErrMax= 3.89D-07  0.00D+00 EMaxC= 1.00D-01 BMatC= 3.14D-11 BMatP= 2.07D-10
 IDIUse=1 WtCom= 1.00D+00 WtEn= 0.00D+00
 Coeff-Com:  0.914D-06 0.172D-05-0.784D-05-0.546D-04-0.300D-03-0.584D-03
 Coeff-Com: -0.831D-02-0.682D-02 0.412D-01 0.300D+00 0.675D+00
 Coeff:      0.914D-06 0.172D-05-0.784D-05-0.546D-04-0.300D-03-0.584D-03
 Coeff:     -0.831D-02-0.682D-02 0.412D-01 0.300D+00 0.675D+00
 Gap=     0.207 Goal=   None    Shift=    0.000
 RMSDP=8.62D-08 MaxDP=5.90D-06 DE=-1.82D-10 OVMax= 2.21D-06

 Cycle  12  Pass 1  IDiag  1:
 RMSU=  3.33D-08    CP:  8.36D-01  8.78D-01  9.67D-01  9.83D-01  9.14D-01
                    CP:  8.21D-01  1.13D+00  8.68D-01  1.08D+00  9.74D-01
                    CP:  1.09D+00
 E= -380.020969398656     Delta-E=       -0.000000000032 Rises=F Damp=F
 DIIS: error= 5.89D-08 at cycle  12 NSaved=  12.
 NSaved=12 IEnMin=12 EnMin= -380.020969398656     IErMin=12 ErrMin= 5.89D-08
 ErrMax= 5.89D-08  0.00D+00 EMaxC= 1.00D-01 BMatC= 7.54D-13 BMatP= 3.14D-11
 IDIUse=1 WtCom= 1.00D+00 WtEn= 0.00D+00
 Coeff-Com: -0.102D-05 0.304D-05 0.755D-05 0.970D-05-0.198D-04-0.783D-04
 Coeff-Com: -0.243D-02-0.419D-02-0.108D-01 0.381D-01 0.164D+00 0.816D+00
 Coeff:     -0.102D-05 0.304D-05 0.755D-05 0.970D-05-0.198D-04-0.783D-04
 Coeff:     -0.243D-02-0.419D-02-0.108D-01 0.381D-01 0.164D+00 0.816D+00
 Gap=     0.207 Goal=   None    Shift=    0.000
 RMSDP=1.00D-08 MaxDP=3.55D-07 DE=-3.19D-11 OVMax= 6.82D-07

 Cycle  13  Pass 1  IDiag  1:
 RMSU=  7.32D-09    CP:  8.36D-01  8.78D-01  9.67D-01  9.83D-01  9.14D-01
                    CP:  8.21D-01  1.13D+00  8.69D-01  1.08D+00  9.76D-01
                    CP:  1.12D+00  1.09D+00
 E= -380.020969398661     Delta-E=       -0.000000000005 Rises=F Damp=F
 DIIS: error= 5.62D-08 at cycle  13 NSaved=  13.
 NSaved=13 IEnMin=13 EnMin= -380.020969398661     IErMin=13 ErrMin= 5.62D-08
 ErrMax= 5.62D-08  0.00D+00 EMaxC= 1.00D-01 BMatC= 3.56D-13 BMatP= 7.54D-13
 IDIUse=1 WtCom= 1.00D+00 WtEn= 0.00D+00
 Coeff-Com: -0.660D-06 0.150D-05 0.546D-05 0.112D-04 0.178D-04 0.224D-04
 Coeff-Com: -0.486D-03-0.159D-02-0.898D-02-0.565D-02 0.272D-01 0.467D+00
 Coeff-Com:  0.522D+00
 Coeff:     -0.660D-06 0.150D-05 0.546D-05 0.112D-04 0.178D-04 0.224D-04
 Coeff:     -0.486D-03-0.159D-02-0.898D-02-0.565D-02 0.272D-01 0.467D+00
 Coeff:      0.522D+00
 Gap=     0.207 Goal=   None    Shift=    0.000
 RMSDP=3.46D-09 MaxDP=2.02D-07 DE=-5.34D-12 OVMax= 2.03D-07

 Error on total polarization charges =  0.04328
 SCF Done:  E(RB3LYP) =  -380.020969399     A.U. after   13 cycles
            NFock= 13  Conv=0.35D-08     -V/T= 2.0043
 KE= 3.784028198398D+02 PE=-1.693343762374D+03 EE= 5.301893478097D+02
 SMD-CDS (non-electrostatic) energy       (kcal/mol) =       1.45
 (included in total energy above)
 Leave Link  502 at Wed Oct 11 11:42:55 2023, MaxMem=  6710886400 cpu:             406.0 elap:              17.2
 (Enter /data0/home/software/g16/l601.exe)
 Copying SCF densities to generalized density rwf, IOpCl= 0 IROHF=0.

 **********************************************************************

            Population analysis using the SCF density.

 **********************************************************************

 Orbital symmetries:
       Occupied  (A) (A) (A) (A) (A) (A) (A) (A) (A) (A) (A) (A)
                 (A) (A) (A) (A) (A) (A) (A) (A) (A) (A) (A) (A)
                 (A) (A) (A) (A) (A) (A) (A)
       Virtual   (A) (A) (A) (A) (A) (A) (A) (A) (A) (A) (A) (A)
                 (A) (A) (A) (A) (A) (A) (A) (A) (A) (A) (A) (A)
                 (A) (A) (A) (A) (A) (A) (A) (A) (A) (A) (A) (A)
                 (A) (A) (A) (A) (A) (A) (A) (A) (A) (A) (A) (A)
                 (A) (A) (A) (A) (A) (A) (A) (A) (A) (A) (A) (A)
                 (A) (A) (A) (A) (A) (A) (A) (A) (A) (A) (A) (A)
                 (A) (A) (A) (A) (A) (A) (A) (A) (A) (A) (A) (A)
                 (A) (A) (A) (A) (A) (A) (A) (A) (A) (A) (A) (A)
                 (A) (A) (A) (A) (A) (A) (A) (A) (A) (A) (A) (A)
                 (A) (A) (A) (A) (A) (A) (A) (A) (A) (A) (A) (A)
                 (A) (A) (A) (A) (A) (A) (A) (A) (A) (A) (A) (A)
                 (A) (A) (A) (A) (A) (A) (A) (A) (A) (A) (A) (A)
                 (A) (A) (A) (A) (A) (A) (A) (A) (A) (A) (A) (A)
                 (A) (A) (A) (A) (A) (A) (A) (A) (A) (A) (A) (A)
                 (A) (A) (A) (A) (A) (A) (A) (A) (A) (A) (A) (A)
                 (A) (A) (A) (A) (A) (A) (A) (A) (A) (A) (A) (A)
                 (A) (A) (A) (A) (A) (A) (A) (A) (A) (A) (A) (A)
                 (A) (A) (A) (A) (A) (A) (A) (A) (A) (A) (A) (A)
                 (A) (A) (A) (A) (A) (A) (A) (A) (A) (A) (A) (A)
                 (A) (A) (A) (A) (A) (A) (A) (A) (A) (A) (A) (A)
                 (A) (A) (A) (A) (A) (A) (A) (A)
 The electronic state is 1-A.
 Alpha  occ. eigenvalues --  -14.36678 -14.30642 -10.23912 -10.21145 -10.19827
 Alpha  occ. eigenvalues --  -10.17839 -10.17435 -10.17298 -10.17067  -1.02418
 Alpha  occ. eigenvalues --   -0.88444  -0.85125  -0.74959  -0.74275  -0.63622
 Alpha  occ. eigenvalues --   -0.62063  -0.60414  -0.54906  -0.50389  -0.48431
 Alpha  occ. eigenvalues --   -0.45069  -0.44725  -0.43910  -0.41883  -0.37058
 Alpha  occ. eigenvalues --   -0.36161  -0.35209  -0.31677  -0.29298  -0.24024
 Alpha  occ. eigenvalues --   -0.23696
 Alpha virt. eigenvalues --   -0.03038   0.00509   0.00956   0.02170   0.02965
 Alpha virt. eigenvalues --    0.02976   0.04377   0.04613   0.05189   0.05470
 Alpha virt. eigenvalues --    0.07602   0.07847   0.08491   0.08681   0.10086
 Alpha virt. eigenvalues --    0.11309   0.12725   0.12844   0.12908   0.13689
 Alpha virt. eigenvalues --    0.15105   0.15645   0.16279   0.17420   0.17674
 Alpha virt. eigenvalues --    0.18143   0.18725   0.19004   0.19084   0.19765
 Alpha virt. eigenvalues --    0.20195   0.21154   0.21664   0.21945   0.22572
 Alpha virt. eigenvalues --    0.23340   0.23712   0.24861   0.25136   0.25487
 Alpha virt. eigenvalues --    0.25699   0.26325   0.27393   0.27849   0.28077
 Alpha virt. eigenvalues --    0.30331   0.31632   0.33675   0.34069   0.35241
 Alpha virt. eigenvalues --    0.38379   0.41345   0.42739   0.43930   0.46790
 Alpha virt. eigenvalues --    0.48538   0.50877   0.51417   0.52180   0.52412
 Alpha virt. eigenvalues --    0.53307   0.53815   0.53818   0.56017   0.56215
 Alpha virt. eigenvalues --    0.57749   0.58261   0.61170   0.62029   0.63169
 Alpha virt. eigenvalues --    0.63492   0.64083   0.66402   0.67287   0.68517
 Alpha virt. eigenvalues --    0.69331   0.70745   0.71287   0.71610   0.73381
 Alpha virt. eigenvalues --    0.74133   0.75319   0.78313   0.79126   0.79469
 Alpha virt. eigenvalues --    0.81033   0.81528   0.81586   0.82370   0.83381
 Alpha virt. eigenvalues --    0.83813   0.84838   0.85463   0.87118   0.88571
 Alpha virt. eigenvalues --    0.89552   0.91047   0.91769   0.92048   0.96423
 Alpha virt. eigenvalues --    0.99421   0.99824   1.04912   1.07878   1.11433
 Alpha virt. eigenvalues --    1.13793   1.14241   1.17207   1.20004   1.20052
 Alpha virt. eigenvalues --    1.23614   1.23808   1.30393   1.30552   1.31483
 Alpha virt. eigenvalues --    1.32371   1.33584   1.34091   1.38882   1.40329
 Alpha virt. eigenvalues --    1.41678   1.42376   1.43477   1.46912   1.50137
 Alpha virt. eigenvalues --    1.51320   1.53512   1.55178   1.58274   1.59203
 Alpha virt. eigenvalues --    1.61820   1.63556   1.66170   1.66544   1.71641
 Alpha virt. eigenvalues --    1.73587   1.76374   1.82762   1.82927   1.87792
 Alpha virt. eigenvalues --    1.90643   1.94592   1.96829   1.97305   2.04188
 Alpha virt. eigenvalues --    2.07772   2.08134   2.10284   2.19025   2.27696
 Alpha virt. eigenvalues --    2.29085   2.34785   2.46473   2.51135   2.59207
 Alpha virt. eigenvalues --    2.63245   2.63716   2.65595   2.66111   2.71162
 Alpha virt. eigenvalues --    2.75932   2.76143   2.78972   2.80300   2.80832
 Alpha virt. eigenvalues --    2.81926   2.84037   2.85279   2.87553   2.89899
 Alpha virt. eigenvalues --    2.95111   3.05281   3.06812   3.07972   3.10701
 Alpha virt. eigenvalues --    3.13298   3.14446   3.21457   3.27187   3.27567
 Alpha virt. eigenvalues --    3.28116   3.29035   3.29994   3.33309   3.35821
 Alpha virt. eigenvalues --    3.36869   3.37399   3.37807   3.41108   3.41132
 Alpha virt. eigenvalues --    3.44887   3.46641   3.47124   3.50512   3.51887
 Alpha virt. eigenvalues --    3.56558   3.58402   3.58546   3.59413   3.60243
 Alpha virt. eigenvalues --    3.63098   3.66889   3.67070   3.70716   3.75558
 Alpha virt. eigenvalues --    3.76054   3.76976   3.78782   3.87686   3.91603
 Alpha virt. eigenvalues --    3.91750   3.93594   3.94747   3.96351   3.99002
 Alpha virt. eigenvalues --    4.00919   4.01225   4.04905   4.11428   4.27810
 Alpha virt. eigenvalues --    4.46111   4.59897   4.62243   4.72384   4.76944
 Alpha virt. eigenvalues --    4.91969   4.99359   5.00308   5.04133   5.06981
 Alpha virt. eigenvalues --    5.12374   5.18060   5.26279   5.33833   5.35736
 Alpha virt. eigenvalues --    5.43275   5.50234   5.66258   5.74362  23.70955
 Alpha virt. eigenvalues --   23.98867  24.01727  24.05994  24.11378  24.18915
 Alpha virt. eigenvalues --   24.22364  35.66432  35.75112
          Condensed to atoms (all electrons):
               1          2          3          4          5          6
     1  C    6.990680  -1.136472  -0.316426  -0.441201   0.166435  -0.047927
     2  C   -1.136472   7.728303  -0.914772   0.295842  -0.613170  -0.265863
     3  C   -0.316426  -0.914772   7.891452   0.028418   0.599485  -0.582878
     4  C   -0.441201   0.295842   0.028418   5.382962   0.117116   0.430671
     5  C    0.166435  -0.613170   0.599485   0.117116   5.399110   0.153768
     6  C   -0.047927  -0.265863  -0.582878   0.430671   0.153768   6.720887
     7  H   -0.009071  -0.166836   0.564003  -0.062255   0.038394  -0.022253
     8  H   -0.013176   0.051124  -0.106774   0.468120  -0.085687   0.032693
     9  H    0.041078  -0.012195   0.033282  -0.082473   0.466635  -0.100203
    10  H   -0.171367  -0.021352  -0.022663   0.041921  -0.055241   0.575603
    11  H   -0.098005   0.103327   0.012965   0.000067  -0.007584  -0.036083
    12  C   -0.297176   0.003540  -0.015691   0.002918  -0.000812  -0.051327
    13  H   -0.017236   0.027856   0.008344   0.000431   0.000589  -0.005172
    14  N    0.363915   0.008369  -0.027940   0.000734  -0.004270  -0.192215
    15  N    0.312415   0.348749  -0.543436  -0.022441  -0.012735   0.041509
               7          8          9         10         11         12
     1  C   -0.009071  -0.013176   0.041078  -0.171367  -0.098005  -0.297176
     2  C   -0.166836   0.051124  -0.012195  -0.021352   0.103327   0.003540
     3  C    0.564003  -0.106774   0.033282  -0.022663   0.012965  -0.015691
     4  C   -0.062255   0.468120  -0.082473   0.041921   0.000067   0.002918
     5  C    0.038394  -0.085687   0.466635  -0.055241  -0.007584  -0.000812
     6  C   -0.022253   0.032693  -0.100203   0.575603  -0.036083  -0.051327
     7  H    0.523825  -0.005070  -0.000317   0.000092   0.000019   0.000750
     8  H   -0.005070   0.541900  -0.004807  -0.000329  -0.000001   0.000175
     9  H   -0.000317  -0.004807   0.541434  -0.005004  -0.000016  -0.000144
    10  H    0.000092  -0.000329  -0.005004   0.520058   0.001451   0.000907
    11  H    0.000019  -0.000001  -0.000016   0.001451   0.337713  -0.031422
    12  C    0.000750   0.000175  -0.000144   0.000907  -0.031422   4.965369
    13  H   -0.000016  -0.000001  -0.000001  -0.000014  -0.001238   0.432535
    14  N   -0.000395   0.000579  -0.000582  -0.000823   0.385993   0.391536
    15  N    0.007796  -0.000761   0.000387  -0.000302  -0.004344   0.365153
              13         14         15
     1  C   -0.017236   0.363915   0.312415
     2  C    0.027856   0.008369   0.348749
     3  C    0.008344  -0.027940  -0.543436
     4  C    0.000431   0.000734  -0.022441
     5  C    0.000589  -0.004270  -0.012735
     6  C   -0.005172  -0.192215   0.041509
     7  H   -0.000016  -0.000395   0.007796
     8  H   -0.000001   0.000579  -0.000761
     9  H   -0.000001  -0.000582   0.000387
    10  H   -0.000014  -0.000823  -0.000302
    11  H   -0.001238   0.385993  -0.004344
    12  C    0.432535   0.391536   0.365153
    13  H    0.480813  -0.038112  -0.054923
    14  N   -0.038112   6.466176   0.017742
    15  N   -0.054923   0.017742   7.080451
 Mulliken charges:
               1
     1  C    0.673533
     2  C    0.563550
     3  C   -0.607368
     4  C   -0.160832
     5  C   -0.162033
     6  C   -0.651210
     7  H    0.131335
     8  H    0.122013
     9  H    0.122926
    10  H    0.137062
    11  H    0.337158
    12  C    0.233686
    13  H    0.166145
    14  N   -0.370706
    15  N   -0.535260
 Sum of Mulliken charges =  -0.00000
 Mulliken charges with hydrogens summed into heavy atoms:
               1
     1  C    0.673533
     2  C    0.563550
     3  C   -0.476033
     4  C   -0.038819
     5  C   -0.039107
     6  C   -0.514147
    12  C    0.399831
    14  N   -0.033549
    15  N   -0.535260
 Electronic spatial extent (au):  <R**2>=            971.6355
 Charge=              0.0000 electrons
 Dipole moment (field-independent basis, Debye):
    X=             -1.1713    Y=              5.2298    Z=              0.0009  Tot=              5.3594
 Quadrupole moment (field-independent basis, Debye-Ang):
   XX=            -41.4839   YY=            -47.7120   ZZ=            -56.8422
   XY=             -9.9231   XZ=             -0.0028   YZ=             -0.0022
 Traceless Quadrupole moment (field-independent basis, Debye-Ang):
   XX=              7.1954   YY=              0.9674   ZZ=             -8.1628
   XY=             -9.9231   XZ=             -0.0028   YZ=             -0.0022
 Octapole moment (field-independent basis, Debye-Ang**2):
  XXX=            -24.0229  YYY=             28.5992  ZZZ=             -0.0014  XYY=              3.8939
  XXY=             20.9923  XXZ=              0.0077  XZZ=             -5.4346  YZZ=              1.8788
  YYZ=             -0.0023  XYZ=              0.0055
 Hexadecapole moment (field-independent basis, Debye-Ang**3):
 XXXX=           -712.6110 YYYY=           -367.5632 ZZZZ=            -66.7750 XXXY=            -43.9896
 XXXZ=             -0.0358 YYYX=            -53.6515 YYYZ=             -0.0159 ZZZX=             -0.0189
 ZZZY=             -0.0089 XXYY=           -200.6749 XXZZ=           -173.8544 YYZZ=            -88.4032
 XXYZ=             -0.0114 YYXZ=             -0.0037 ZZXY=             -3.5864
 N-N= 4.047306253258D+02 E-N=-1.693343763512D+03  KE= 3.784028198398D+02
 No NMR shielding tensors so no spin-rotation constants.
 Leave Link  601 at Wed Oct 11 11:42:55 2023, MaxMem=  6710886400 cpu:               2.7 elap:               0.1
 (Enter /data0/home/software/g16/l701.exe)
 ... and contract with generalized density number  0.
 Compute integral first derivatives.
 R6Disp: Adding Grimme-D3(BJ) dispersion energy 1st derivatives to the gradient.
 D1PCM: PCM CHGder 1st derivatives, ID1Alg=3 FixD1E=F DoIter=F DoCFld=F I1PDM=0.
 GePol: Maximum number of non-zero 1st derivatives   =     203
 Leave Link  701 at Wed Oct 11 11:42:56 2023, MaxMem=  6710886400 cpu:              13.7 elap:               0.6
 (Enter /data0/home/software/g16/l702.exe)
 L702 exits ... SP integral derivatives will be done elsewhere.
 Leave Link  702 at Wed Oct 11 11:42:56 2023, MaxMem=  6710886400 cpu:               0.4 elap:               0.0
 (Enter /data0/home/software/g16/l703.exe)
 Integral derivatives from FoFJK, PRISM(SPDF).
 Compute integral first derivatives, UseDBF=F ICtDFT=           0.
 Calling FoFJK, ICntrl=      2127 FMM=F ISym2X=0 I1Cent= 0 IOpClX= 0 NMat=1 NMatS=1 NMatT=0.
 FoFJK:  IHMeth= 1 ICntrl=    2127 DoSepK=F KAlg= 0 I1Cent=           0 FoldK=F
 IRaf=         0 NMat=       1 IRICut=       1 DoRegI=T DoRafI=F ISym2E= 0 IDoP0=0 IntGTp=1.
 FoFCou: FMM=F IPFlag=           0 FMFlag=      100000 FMFlg1=         800
         NFxFlg=           0 DoJE=F BraDBF=F KetDBF=F FulRan=T
         wScrn=  0.000000 ICntrl=      2127 IOpCl=  0 I1Cent=           0 NGrid=           0
         NMat0=    1 NMatS0=      1 NMatT0=    0 NMatD0=    1 NMtDS0=    0 NMtDT0=    0
 Symmetry not used in FoFCou.
 Leave Link  703 at Wed Oct 11 11:43:00 2023, MaxMem=  6710886400 cpu:              86.9 elap:               3.7
 (Enter /data0/home/software/g16/l716.exe)
 Dipole        =-4.60837192D-01 2.05757914D+00 3.64213212D-04
 ***** Axes restored to original set *****
 -------------------------------------------------------------------
 Center     Atomic                   Forces (Hartrees/Bohr)
 Number     Number              X              Y              Z
 -------------------------------------------------------------------
      1        6           0.001120608    0.000764964   -0.000019687
      2        6           0.002069215   -0.000954809   -0.000056599
      3        6          -0.000084978    0.000491769   -0.000012090
      4        6          -0.000187438    0.000294751   -0.000000646
      5        6          -0.000117485   -0.000292666   -0.000002952
      6        6           0.000029281   -0.000551115   -0.000003885
      7        1           0.000119764    0.000183265    0.000001886
      8        1          -0.000219824    0.000149407    0.000003878
      9        1          -0.000204798   -0.000169515    0.000002667
     10        1           0.000138667   -0.000193699    0.000000533
     11        1          -0.000033596   -0.000106442    0.000019738
     12        6          -0.002634467    0.000209046   -0.000177726
     13        1           0.000199979   -0.000010155    0.000003570
     14        7          -0.000209042   -0.000006405    0.000087899
     15        7           0.000014116    0.000191605    0.000153413
 -------------------------------------------------------------------
 Cartesian Forces:  Max     0.002634467 RMS     0.000581945
 Leave Link  716 at Wed Oct 11 11:43:00 2023, MaxMem=  6710886400 cpu:               0.5 elap:               0.0
 (Enter /data0/home/software/g16/l103.exe)

 GradGradGradGradGradGradGradGradGradGradGradGradGradGradGradGradGradGrad
 Berny optimization.
 FormGI is forming the generalized inverse of G from B-inverse, IUseBI=4.
 Internal  Forces:  Max     0.001295468 RMS     0.000354418
 Search for a local minimum.
 Step number   1 out of a maximum of   87
 All quantities printed in internal units (Hartrees-Bohrs-Radians)
 RMS Force = .35442D-03 SwitMx=.10000D-02 MixMth= 2
 Mixed Optimization -- En-DIIS/RFO-DIIS
 Second derivative matrix not updated -- first step.
 ITU=  0
     Eigenvalues ---    0.01996   0.02015   0.02042   0.02077   0.02092
     Eigenvalues ---    0.02129   0.02131   0.02196   0.02209   0.02219
     Eigenvalues ---    0.02282   0.02449   0.16000   0.16000   0.16000
     Eigenvalues ---    0.16000   0.16000   0.16000   0.22000   0.22491
     Eigenvalues ---    0.22792   0.24457   0.24812   0.35575   0.35587
     Eigenvalues ---    0.35595   0.35651   0.36105   0.37834   0.42652
     Eigenvalues ---    0.43106   0.43896   0.45970   0.46076   0.47129
     Eigenvalues ---    0.47411   0.47860   0.50669   0.60738
 RFO step:  Lambda=-2.95384405D-05 EMin= 1.99625468D-02
 Linear search not attempted -- first point.
 Iteration  1 RMS(Cart)=  0.00156451 RMS(Int)=  0.00000220
 Iteration  2 RMS(Cart)=  0.00000181 RMS(Int)=  0.00000111
 Iteration  3 RMS(Cart)=  0.00000000 RMS(Int)=  0.00000111
 ITry= 1 IFail=0 DXMaxC= 6.78D-03 DCOld= 1.00D+10 DXMaxT= 3.00D-01 DXLimC= 3.00D+00 Rises=F
 Variable       Old X    -DE/DX   Delta X   Delta X   Delta X     New X
                                 (Linear)    (Quad)   (Total)
    R1        2.66496   0.00026   0.00000   0.00055   0.00055   2.66551
    R2        2.63060  -0.00036   0.00000  -0.00074  -0.00074   2.62986
    R3        2.60850   0.00130   0.00000   0.00259   0.00259   2.61109
    R4        2.63913  -0.00051   0.00000  -0.00108  -0.00108   2.63805
    R5        2.63153   0.00112   0.00000   0.00238   0.00238   2.63391
    R6        2.62274  -0.00052   0.00000  -0.00112  -0.00112   2.62162
    R7        2.04751  -0.00018   0.00000  -0.00051  -0.00051   2.04700
    R8        2.66030  -0.00076   0.00000  -0.00177  -0.00177   2.65854
    R9        2.04732  -0.00026   0.00000  -0.00074  -0.00074   2.04658
   R10        2.62373  -0.00042   0.00000  -0.00091  -0.00091   2.62282
   R11        2.04719  -0.00026   0.00000  -0.00074  -0.00074   2.04645
   R12        2.04631  -0.00020   0.00000  -0.00055  -0.00055   2.04576
   R13        1.90865  -0.00009   0.00000  -0.00019  -0.00019   1.90846
   R14        2.03917  -0.00020   0.00000  -0.00055  -0.00055   2.03862
   R15        2.57287   0.00054   0.00000   0.00108   0.00109   2.57395
   R16        2.48246   0.00087   0.00000   0.00143   0.00143   2.48389
    A1        2.13914  -0.00037   0.00000  -0.00127  -0.00127   2.13787
    A2        1.83017   0.00005   0.00000  -0.00007  -0.00007   1.83010
    A3        2.31387   0.00032   0.00000   0.00134   0.00134   2.31521
    A4        2.09269   0.00006   0.00000   0.00039   0.00039   2.09308
    A5        1.91787  -0.00055   0.00000  -0.00235  -0.00235   1.91552
    A6        2.27262   0.00049   0.00000   0.00196   0.00196   2.27458
    A7        2.05816   0.00003   0.00000   0.00005   0.00005   2.05820
    A8        2.10738   0.00012   0.00000   0.00077   0.00077   2.10816
    A9        2.11765  -0.00014   0.00000  -0.00082  -0.00082   2.11683
   A10        2.11922   0.00006   0.00000   0.00003   0.00003   2.11925
   A11        2.08553   0.00000   0.00000   0.00017   0.00017   2.08570
   A12        2.07844  -0.00006   0.00000  -0.00021  -0.00021   2.07823
   A13        2.11988   0.00009   0.00000   0.00018   0.00018   2.12006
   A14        2.08130  -0.00009   0.00000  -0.00036  -0.00036   2.08094
   A15        2.08201  -0.00000   0.00000   0.00017   0.00017   2.08218
   A16        2.03728   0.00014   0.00000   0.00061   0.00061   2.03789
   A17        2.12172   0.00007   0.00000   0.00055   0.00055   2.12227
   A18        2.12418  -0.00021   0.00000  -0.00116  -0.00116   2.12302
   A19        2.11623   0.00053   0.00000   0.00227   0.00227   2.11850
   A20        2.18502   0.00051   0.00000   0.00213   0.00213   2.18715
   A21        1.98193  -0.00104   0.00000  -0.00439  -0.00439   1.97754
   A22        2.21648  -0.00022   0.00000  -0.00090  -0.00090   2.21558
   A23        1.86852   0.00058   0.00000   0.00267   0.00267   1.87119
   A24        2.19819  -0.00036   0.00000  -0.00177  -0.00177   2.19642
   A25        1.82629   0.00096   0.00000   0.00414   0.00414   1.83042
    D1        0.00001   0.00000   0.00000  -0.00002  -0.00002  -0.00001
    D2       -3.14136  -0.00001   0.00000  -0.00057  -0.00057   3.14126
    D3        3.14153   0.00000   0.00000   0.00017   0.00017  -3.14149
    D4        0.00017  -0.00001   0.00000  -0.00038  -0.00038  -0.00022
    D5       -0.00002   0.00000   0.00000   0.00006   0.00006   0.00004
    D6        3.14155   0.00000   0.00000   0.00011   0.00011  -3.14153
    D7       -3.14152  -0.00000   0.00000  -0.00018  -0.00018   3.14148
    D8        0.00005  -0.00000   0.00000  -0.00013  -0.00013  -0.00009
    D9       -3.14143  -0.00001   0.00000  -0.00031  -0.00031   3.14144
   D10        0.00057  -0.00003   0.00000  -0.00140  -0.00140  -0.00083
   D11        0.00008  -0.00000   0.00000  -0.00010  -0.00010  -0.00002
   D12       -3.14111  -0.00003   0.00000  -0.00118  -0.00118   3.14090
   D13        0.00001  -0.00000   0.00000  -0.00003  -0.00003  -0.00002
   D14       -3.14149  -0.00001   0.00000  -0.00025  -0.00025   3.14145
   D15        3.14132   0.00002   0.00000   0.00065   0.00065  -3.14122
   D16       -0.00018   0.00001   0.00000   0.00043   0.00043   0.00025
   D17       -0.00085   0.00005   0.00000   0.00205   0.00205   0.00120
   D18        3.14100   0.00003   0.00000   0.00142   0.00143  -3.14076
   D19       -0.00001   0.00000   0.00000   0.00004   0.00004   0.00002
   D20       -3.14153  -0.00000   0.00000  -0.00015  -0.00015   3.14150
   D21        3.14149   0.00001   0.00000   0.00025   0.00025  -3.14144
   D22       -0.00003   0.00000   0.00000   0.00006   0.00006   0.00004
   D23       -0.00000   0.00000   0.00000   0.00001   0.00001   0.00001
   D24       -3.14153  -0.00000   0.00000  -0.00014  -0.00014   3.14151
   D25        3.14151   0.00000   0.00000   0.00020   0.00020  -3.14148
   D26       -0.00002   0.00000   0.00000   0.00005   0.00005   0.00003
   D27        0.00002  -0.00000   0.00000  -0.00006  -0.00006  -0.00004
   D28       -3.14155  -0.00000   0.00000  -0.00011  -0.00011   3.14153
   D29        3.14155   0.00000   0.00000   0.00009   0.00009  -3.14154
   D30       -0.00002   0.00000   0.00000   0.00004   0.00004   0.00002
   D31        3.14150   0.00001   0.00000   0.00023   0.00023  -3.14145
   D32        0.00031  -0.00002   0.00000  -0.00084  -0.00084  -0.00053
   D33       -0.00120   0.00007   0.00000   0.00292   0.00292   0.00172
   D34        3.14080   0.00004   0.00000   0.00185   0.00185  -3.14054
   D35       -3.14149  -0.00001   0.00000  -0.00025  -0.00025   3.14145
   D36        0.00126  -0.00007   0.00000  -0.00306  -0.00306  -0.00180
         Item               Value     Threshold  Converged?
 Maximum Force            0.001295     0.000450     NO 
 RMS     Force            0.000354     0.000300     NO 
 Maximum Displacement     0.006776     0.001800     NO 
 RMS     Displacement     0.001564     0.001200     NO 
 Predicted change in Energy=-1.476873D-05
 Lowest energy point so far.  Saving SCF results.
 GradGradGradGradGradGradGradGradGradGradGradGradGradGradGradGradGradGrad

 Leave Link  103 at Wed Oct 11 11:43:00 2023, MaxMem=  6710886400 cpu:               0.5 elap:               0.0
 (Enter /data0/home/software/g16/l202.exe)
                          Input orientation:                          
 ---------------------------------------------------------------------
 Center     Atomic      Atomic             Coordinates (Angstroms)
 Number     Number       Type             X           Y           Z
 ---------------------------------------------------------------------
      1          6           0       -0.260645    0.681280    0.000107
      2          6           0       -0.258731   -0.729248    0.000132
      3          6           0        0.952098   -1.424015    0.000058
      4          6           0        2.125680   -0.684209   -0.000064
      5          6           0        2.105980    0.722490   -0.000085
      6          6           0        0.912169    1.430430    0.000024
      7          1           0        0.969896   -2.507093    0.000211
      8          1           0        3.079496   -1.197174   -0.000041
      9          1           0        3.043535    1.264470   -0.000103
     10          1           0        0.893806    2.512844    0.000068
     11          1           0       -1.977661    1.969042    0.000513
     12          6           0       -2.318258   -0.121474   -0.000595
     13          1           0       -3.396986   -0.109997   -0.000753
     14          7           0       -1.596661    1.033752    0.000338
     15          7           0       -1.569896   -1.202051    0.000657
 ---------------------------------------------------------------------
                    Distance matrix (angstroms):
                    1          2          3          4          5
     1  C    0.000000
     2  C    1.410529   0.000000
     3  C    2.429612   1.395998   0.000000
     4  C    2.749383   2.384837   1.387302   0.000000
     5  C    2.366983   2.774779   2.436992   1.406837   0.000000
     6  C    1.391661   2.456668   2.854725   2.438095   1.387935
     7  H    3.417595   2.161078   1.083224   2.158412   3.423579
     8  H    3.832118   3.370862   2.139457   1.083004   2.152404
     9  H    3.355252   3.857444   3.406180   2.154022   1.082937
    10  H    2.165037   3.440858   3.937291   3.426173   2.162113
    11  H    2.146270   3.199295   4.482893   4.886425   4.269662
    12  C    2.208661   2.147333   3.520205   4.479426   4.504015
    13  H    3.234618   3.198768   4.543256   5.552437   5.565579
    14  N    1.381729   2.213193   3.540734   4.099660   3.715700
    15  N    2.293703   1.393806   2.531743   3.731681   4.149207
                    6          7          8          9         10
     6  C    0.000000
     7  H    3.937946   0.000000
     8  H    3.406113   2.483204   0.000000
     9  H    2.137817   4.304030   2.461907   0.000000
    10  H    1.082570   5.020514   4.305981   2.485915   0.000000
    11  H    2.939595   5.359466   5.966553   5.070387   2.922506
    12  C    3.583862   4.062405   5.503896   5.538020   4.154153
    13  H    4.576214   4.981539   6.567097   6.585550   5.028935
    14  N    2.539996   4.373191   5.181068   4.645928   2.896573
    15  N    3.618094   2.855464   4.649394   5.231393   4.457609
                   11         12         13         14         15
    11  H    0.000000
    12  C    2.118080   0.000000
    13  H    2.517318   1.078789   0.000000
    14  N    1.009915   1.362076   2.132917   0.000000
    15  N    3.197203   1.314419   2.128578   2.235964   0.000000
 Stoichiometry    C7H6N2
 Framework group  C1[X(C7H6N2)]
 Deg. of freedom    39
 Full point group                 C1      NOp   1
 RotChk:  IX=2 Diff= 5.29D-04
 Largest Abelian subgroup         C1      NOp   1
 Largest concise Abelian subgroup C1      NOp   1
                         Standard orientation:                         
 ---------------------------------------------------------------------
 Center     Atomic      Atomic             Coordinates (Angstroms)
 Number     Number       Type             X           Y           Z
 ---------------------------------------------------------------------
      1          6           0       -0.260834    0.681093    0.000037
      2          6           0       -0.258393   -0.729433    0.000063
      3          6           0        0.952696   -1.423748   -0.000012
      4          6           0        2.126001   -0.683503   -0.000134
      5          6           0        2.105775    0.723189   -0.000154
      6          6           0        0.911700    1.430682   -0.000046
      7          1           0        0.970899   -2.506819    0.000141
      8          1           0        3.080008   -1.196111   -0.000110
      9          1           0        3.043127    1.265520   -0.000173
     10          1           0        0.892931    2.513089   -0.000002
     11          1           0       -1.978332    1.968213    0.000443
     12          6           0       -2.318147   -0.122430   -0.000665
     13          1           0       -3.396879   -0.111356   -0.000822
     14          7           0       -1.596982    1.033066    0.000268
     15          7           0       -1.569380   -1.202728    0.000587
 ---------------------------------------------------------------------
 Rotational constants (GHZ):           3.9584350           1.6798149           1.1793444
 Leave Link  202 at Wed Oct 11 11:43:00 2023, MaxMem=  6710886400 cpu:               0.1 elap:               0.0
 (Enter /data0/home/software/g16/l301.exe)
 Standard basis: 6-311+G(2d,p) (5D, 7F)
 Ernie: Thresh=  0.10000D-02 Tol=  0.10000D-05 Strict=F.
 There are   297 symmetry adapted cartesian basis functions of A   symmetry.
 There are   279 symmetry adapted basis functions of A   symmetry.
   279 basis functions,   426 primitive gaussians,   297 cartesian basis functions
    31 alpha electrons       31 beta electrons
       nuclear repulsion energy       404.6948268941 Hartrees.
 IExCor=  402 DFT=T Ex+Corr=B3LYP ExCW=0 ScaHFX=  0.200000
 ScaDFX=  0.800000  0.720000  1.000000  0.810000 ScalE2=  1.000000  1.000000
 IRadAn=      5 IRanWt=     -1 IRanGd=            0 ICorTp=0 IEmpDi=141
 NAtoms=   15 NActive=   15 NUniq=   15 SFac= 1.00D+00 NAtFMM=   60 NAOKFM=F Big=F
 Integral buffers will be    131072 words long.
 Raffenetti 2 integral format.
 Two-electron integral symmetry is turned on.
 R6Disp:  Grimme-D3(BJ) Dispersion energy=       -0.0276639503 Hartrees.
 Nuclear repulsion after empirical dispersion term =      404.6671629437 Hartrees.
 ------------------------------------------------------------------------------
 Polarizable Continuum Model (PCM)
 =================================
 Model                : PCM.
 Atomic radii         : SMD-Coulomb.
 Polarization charges : Total charges.
 Charge compensation  : None.
 Solution method      : On-the-fly selection.
 Cavity type          : VdW (van der Waals Surface) (Alpha=1.000).
 Cavity algorithm     : GePol (No added spheres)
                        Default sphere list used, NSphG=   15.
                        Lebedev-Laikov grids with approx.  5.0 points / Ang**2.
                        Smoothing algorithm: York/Karplus (Gamma=1.0000).
                        Polarization charges: spherical gaussians, with
                                              point-specific exponents (IZeta= 3).
                        Self-potential: point-specific (ISelfS= 7).
                        Self-field    : sphere-specific E.n sum rule (ISelfD= 2).
 1st derivatives      : Analytical E(r).r(x)/FMM algorithm (CHGder, D1EAlg=3).
                        Cavity 1st derivative terms included.
 Solvent              : Water, Eps=  78.355300 Eps(inf)=   1.777849
 ------------------------------------------------------------------------------
 Spheres list:
 ISph  on   Nord     Re0    Alpha      Xe            Ye            Ze
    1   C      1    1.8500  1.000     -0.260834      0.681093      0.000037
    2   C      2    1.8500  1.000     -0.258393     -0.729433      0.000063
    3   C      3    1.8500  1.000      0.952696     -1.423748     -0.000012
    4   C      4    1.8500  1.000      2.126001     -0.683503     -0.000134
    5   C      5    1.8500  1.000      2.105775      0.723189     -0.000154
    6   C      6    1.8500  1.000      0.911700      1.430682     -0.000046
    7   H      7    1.2000  1.000      0.970899     -2.506819      0.000141
    8   H      8    1.2000  1.000      3.080008     -1.196111     -0.000110
    9   H      9    1.2000  1.000      3.043127      1.265520     -0.000173
   10   H     10    1.2000  1.000      0.892931      2.513089     -0.000002
   11   H     11    1.2000  1.000     -1.978332      1.968213      0.000443
   12   C     12    1.8500  1.000     -2.318147     -0.122430     -0.000665
   13   H     13    1.2000  1.000     -3.396879     -0.111356     -0.000822
   14   N     14    1.8900  1.000     -1.596982      1.033066      0.000268
   15   N     15    1.8900  1.000     -1.569380     -1.202728      0.000587
 ------------------------------------------------------------------------------
 GePol: Number of generator spheres                  =      15
 GePol: Total number of spheres                      =      15
 GePol: Number of exposed spheres                    =      15 (100.00%)
 GePol: Number of points                             =    1277
 GePol: Average weight of points                     =       0.11
 GePol: Minimum weight of points                     =   0.33D-06
 GePol: Maximum weight of points                     =    0.17992
 GePol: Number of points with low weight             =      50
 GePol: Fraction of low-weight points (<1% of avg)   =       3.92%
 GePol: Cavity surface area                          =    143.223 Ang**2
 GePol: Cavity volume                                =    126.406 Ang**3
 ------------------------------------------------------------------------------
 Atomic radii for non-electrostatic terms: SMD-CDS.
 ------------------------------------------------------------------------------
 PCM non-electrostatic energy =         0.0023298633 Hartrees.
 Nuclear repulsion after PCM non-electrostatic terms =      404.6694928070 Hartrees.
 Leave Link  301 at Wed Oct 11 11:43:00 2023, MaxMem=  6710886400 cpu:               1.5 elap:               0.1
 (Enter /data0/home/software/g16/l302.exe)
 NPDir=0 NMtPBC=     1 NCelOv=     1 NCel=       1 NClECP=     1 NCelD=      1
         NCelK=      1 NCelE2=     1 NClLst=     1 CellRange=     0.0.
 One-electron integrals computed using PRISM.
 One-electron integral symmetry used in STVInt
 NBasis=   279 RedAO= T EigKep=  1.37D-06  NBF=   279
 NBsUse=   279 1.00D-06 EigRej= -1.00D+00 NBFU=   279
 Precomputing XC quadrature grid using
 IXCGrd= 4 IRadAn=           5 IRanWt=          -1 IRanGd=           0 AccXCQ= 0.00D+00.
 Generated NRdTot=       0 NPtTot=           0 NUsed=           0 NTot=          32
 NSgBfM=   297   297   297   297   297 MxSgAt=    15 MxSgA2=    15.
 Leave Link  302 at Wed Oct 11 11:43:00 2023, MaxMem=  6710886400 cpu:               4.3 elap:               0.2
 (Enter /data0/home/software/g16/l303.exe)
 DipDrv:  MaxL=1.
 Leave Link  303 at Wed Oct 11 11:43:00 2023, MaxMem=  6710886400 cpu:               0.7 elap:               0.0
 (Enter /data0/home/software/g16/l401.exe)
 Initial guess from the checkpoint file:  "/data0/home/software/g16/scratch/Gau-2481497.chk"
 B after Tr=     0.000000    0.000000   -0.000000
         Rot=    1.000000    0.000036   -0.000028   -0.000160 Ang=   0.02 deg.
 Guess basis will be translated and rotated to current coordinates.
 JPrj=2 DoOrth=T DoCkMO=T.
 Leave Link  401 at Wed Oct 11 11:43:00 2023, MaxMem=  6710886400 cpu:               3.7 elap:               0.2
 (Enter /data0/home/software/g16/l502.exe)
 Integral symmetry usage will be decided dynamically.
 Closed shell SCF:
 Using DIIS extrapolation, IDIIS=  1040.
 NGot=  6710886400 LenX=  6710700099 LenY=  6710611449
 Requested convergence on RMS density matrix=1.00D-08 within 128 cycles.
 Requested convergence on MAX density matrix=1.00D-06.
 Requested convergence on             energy=1.00D-06.
 No special actions if energy rises.
 Fock matrices will be formed incrementally for  20 cycles.

 Cycle   1  Pass 1  IDiag  1:
 FoFJK:  IHMeth= 1 ICntrl=       0 DoSepK=F KAlg= 0 I1Cent=           0 FoldK=F
 IRaf= 960000000 NMat=       1 IRICut=       1 DoRegI=T DoRafI=F ISym2E= 0 IDoP0=0 IntGTp=1.
 FoFCou: FMM=F IPFlag=           0 FMFlag=      100000 FMFlg1=           0
         NFxFlg=           0 DoJE=F BraDBF=F KetDBF=F FulRan=T
         wScrn=  0.000000 ICntrl=         0 IOpCl=  0 I1Cent=           0 NGrid=           0
         NMat0=    1 NMatS0=      1 NMatT0=    0 NMatD0=    1 NMtDS0=    0 NMtDT0=    0
 Symmetry not used in FoFCou.
 Inv3:  Mode=1 IEnd=     4892187.
 Iteration    1 A*A^-1 deviation from unit magnitude is 4.33D-15 for   1247.
 Iteration    1 A*A^-1 deviation from orthogonality  is 3.57D-15 for   1258     15.
 Iteration    1 A^-1*A deviation from unit magnitude is 4.11D-15 for   1247.
 Iteration    1 A^-1*A deviation from orthogonality  is 1.02D-11 for    645    578.
 E= -380.020969806954    
 DIIS: error= 1.25D-04 at cycle   1 NSaved=   1.
 NSaved= 1 IEnMin= 1 EnMin= -380.020969806954     IErMin= 1 ErrMin= 1.25D-04
 ErrMax= 1.25D-04  0.00D+00 EMaxC= 1.00D-01 BMatC= 9.71D-06 BMatP= 9.71D-06
 IDIUse=3 WtCom= 9.99D-01 WtEn= 1.25D-03
 Coeff-Com:  0.100D+01
 Coeff-En:   0.100D+01
 Coeff:      0.100D+01
 Gap=     0.434 Goal=   None    Shift=    0.000
 RMSDP=9.98D-05 MaxDP=8.48D-03              OVMax= 8.86D-04

 Cycle   2  Pass 1  IDiag  1:
 RMSU=  9.55D-05    CP:  1.00D+00
 E= -380.020977698012     Delta-E=       -0.000007891057 Rises=F Damp=F
 DIIS: error= 9.30D-05 at cycle   2 NSaved=   2.
 NSaved= 2 IEnMin= 2 EnMin= -380.020977698012     IErMin= 2 ErrMin= 9.30D-05
 ErrMax= 9.30D-05  0.00D+00 EMaxC= 1.00D-01 BMatC= 1.20D-06 BMatP= 9.71D-06
 IDIUse=1 WtCom= 1.00D+00 WtEn= 0.00D+00
 Coeff-Com:  0.146D+00 0.854D+00
 Coeff:      0.146D+00 0.854D+00
 Gap=     0.207 Goal=   None    Shift=    0.000
 RMSDP=1.90D-05 MaxDP=1.62D-03 DE=-7.89D-06 OVMax= 6.74D-04

 Cycle   3  Pass 1  IDiag  1:
 RMSU=  1.72D-05    CP:  1.00D+00  9.19D-01
 E= -380.020977053820     Delta-E=        0.000000644191 Rises=F Damp=F
 DIIS: error= 1.00D-04 at cycle   3 NSaved=   3.
 NSaved= 3 IEnMin= 2 EnMin= -380.020977698012     IErMin= 2 ErrMin= 9.30D-05
 ErrMax= 1.00D-04  0.00D+00 EMaxC= 1.00D-01 BMatC= 1.88D-06 BMatP= 1.20D-06
 IDIUse=3 WtCom= 5.00D-01 WtEn= 5.00D-01
 Coeff-Com: -0.131D-01 0.561D+00 0.453D+00
 Coeff-En:   0.000D+00 0.599D+00 0.401D+00
 Coeff:     -0.654D-02 0.580D+00 0.427D+00
 Gap=     0.207 Goal=   None    Shift=    0.000
 RMSDP=1.35D-05 MaxDP=1.20D-03 DE= 6.44D-07 OVMax= 3.81D-04

 Cycle   4  Pass 1  IDiag  1:
 RMSU=  8.78D-06    CP:  1.00D+00  9.70D-01  5.61D-01
 E= -380.020978721301     Delta-E=       -0.000001667480 Rises=F Damp=F
 DIIS: error= 1.13D-05 at cycle   4 NSaved=   4.
 NSaved= 4 IEnMin= 4 EnMin= -380.020978721301     IErMin= 4 ErrMin= 1.13D-05
 ErrMax= 1.13D-05  0.00D+00 EMaxC= 1.00D-01 BMatC= 1.71D-08 BMatP= 1.20D-06
 IDIUse=1 WtCom= 1.00D+00 WtEn= 0.00D+00
 Coeff-Com: -0.966D-02 0.244D+00 0.191D+00 0.575D+00
 Coeff:     -0.966D-02 0.244D+00 0.191D+00 0.575D+00
 Gap=     0.207 Goal=   None    Shift=    0.000
 RMSDP=1.89D-06 MaxDP=1.53D-04 DE=-1.67D-06 OVMax= 5.58D-05

 Cycle   5  Pass 1  IDiag  1:
 RMSU=  1.04D-06    CP:  1.00D+00  9.72D-01  5.79D-01  1.15D+00
 E= -380.020978731243     Delta-E=       -0.000000009942 Rises=F Damp=F
 DIIS: error= 6.36D-06 at cycle   5 NSaved=   5.
 NSaved= 5 IEnMin= 5 EnMin= -380.020978731243     IErMin= 5 ErrMin= 6.36D-06
 ErrMax= 6.36D-06  0.00D+00 EMaxC= 1.00D-01 BMatC= 5.20D-09 BMatP= 1.71D-08
 IDIUse=1 WtCom= 1.00D+00 WtEn= 0.00D+00
 Coeff-Com: -0.303D-02 0.440D-01 0.372D-01 0.358D+00 0.564D+00
 Coeff:     -0.303D-02 0.440D-01 0.372D-01 0.358D+00 0.564D+00
 Gap=     0.207 Goal=   None    Shift=    0.000
 RMSDP=6.99D-07 MaxDP=4.76D-05 DE=-9.94D-09 OVMax= 2.46D-05

 Cycle   6  Pass 1  IDiag  1:
 RMSU=  3.06D-07    CP:  1.00D+00  9.73D-01  5.86D-01  1.21D+00  9.04D-01
 E= -380.020978735983     Delta-E=       -0.000000004739 Rises=F Damp=F
 DIIS: error= 6.16D-07 at cycle   6 NSaved=   6.
 NSaved= 6 IEnMin= 6 EnMin= -380.020978735983     IErMin= 6 ErrMin= 6.16D-07
 ErrMax= 6.16D-07  0.00D+00 EMaxC= 1.00D-01 BMatC= 1.25D-10 BMatP= 5.20D-09
 IDIUse=1 WtCom= 1.00D+00 WtEn= 0.00D+00
 Coeff-Com: -0.518D-03-0.433D-03 0.133D-02 0.913D-01 0.213D+00 0.695D+00
 Coeff:     -0.518D-03-0.433D-03 0.133D-02 0.913D-01 0.213D+00 0.695D+00
 Gap=     0.207 Goal=   None    Shift=    0.000
 RMSDP=1.74D-07 MaxDP=1.23D-05 DE=-4.74D-09 OVMax= 4.31D-06

 Cycle   7  Pass 1  IDiag  1:
 RMSU=  8.28D-08    CP:  1.00D+00  9.74D-01  5.88D-01  1.22D+00  9.22D-01
                    CP:  1.09D+00
 E= -380.020978736084     Delta-E=       -0.000000000101 Rises=F Damp=F
 DIIS: error= 4.80D-07 at cycle   7 NSaved=   7.
 NSaved= 7 IEnMin= 7 EnMin= -380.020978736084     IErMin= 7 ErrMin= 4.80D-07
 ErrMax= 4.80D-07  0.00D+00 EMaxC= 1.00D-01 BMatC= 3.74D-11 BMatP= 1.25D-10
 IDIUse=1 WtCom= 1.00D+00 WtEn= 0.00D+00
 Coeff-Com:  0.213D-04-0.521D-02-0.353D-02 0.159D-01 0.690D-01 0.404D+00
 Coeff-Com:  0.520D+00
 Coeff:      0.213D-04-0.521D-02-0.353D-02 0.159D-01 0.690D-01 0.404D+00
 Coeff:      0.520D+00
 Gap=     0.207 Goal=   None    Shift=    0.000
 RMSDP=8.90D-08 MaxDP=8.10D-06 DE=-1.01D-10 OVMax= 2.06D-06

 Cycle   8  Pass 1  IDiag  1:
 RMSU=  3.51D-08    CP:  1.00D+00  9.74D-01  5.88D-01  1.22D+00  9.24D-01
                    CP:  1.13D+00  1.11D+00
 E= -380.020978736102     Delta-E=       -0.000000000019 Rises=F Damp=F
 DIIS: error= 8.26D-08 at cycle   8 NSaved=   8.
 NSaved= 8 IEnMin= 8 EnMin= -380.020978736102     IErMin= 8 ErrMin= 8.26D-08
 ErrMax= 8.26D-08  0.00D+00 EMaxC= 1.00D-01 BMatC= 1.12D-12 BMatP= 3.74D-11
 IDIUse=1 WtCom= 1.00D+00 WtEn= 0.00D+00
 Coeff-Com:  0.346D-04-0.143D-02-0.124D-02-0.151D-02 0.735D-02 0.754D-01
 Coeff-Com:  0.190D+00 0.732D+00
 Coeff:      0.346D-04-0.143D-02-0.124D-02-0.151D-02 0.735D-02 0.754D-01
 Coeff:      0.190D+00 0.732D+00
 Gap=     0.207 Goal=   None    Shift=    0.000
 RMSDP=3.28D-08 MaxDP=2.73D-06 DE=-1.88D-11 OVMax= 5.27D-07

 Cycle   9  Pass 1  IDiag  1:
[...]
 ! D31   D(13,12,14,1)        -180.0049         -DE/DX =    0.0                 !
 ! D32   D(13,12,14,11)          0.0179         -DE/DX =    0.0                 !
 ! D33   D(15,12,14,1)          -0.0663         -DE/DX =    0.0001              !
 ! D34   D(15,12,14,11)        179.9564         -DE/DX =    0.0                 !
 ! D35   D(13,12,15,2)         180.005          -DE/DX =    0.0                 !
 ! D36   D(14,12,15,2)           0.0693         -DE/DX =   -0.0001              !
 --------------------------------------------------------------------------------
 GradGradGradGradGradGradGradGradGradGradGradGradGradGradGradGradGradGrad

 Leave Link  103 at Wed Oct 11 11:45:47 2023, MaxMem=  6710886400 cpu:               0.5 elap:               0.0
 (Enter /data0/home/software/g16/l9999.exe)

 ----------------------------------------------------------------------

 Electric dipole moment (input orientation):
 (Debye = 10**-18 statcoulomb cm , SI units = C m)
                  (au)            (Debye)         (10**-30 SI)
   Tot        0.210686D+01      0.535510D+01      0.178627D+02
   x         -0.456950D+00     -0.116145D+01     -0.387419D+01
   y          0.205671D+01      0.522763D+01      0.174375D+02
   z          0.339696D-03      0.863421D-03      0.288006D-02

 Dipole polarizability, Alpha (input orientation).
 (esu units = cm**3 , SI units = C**2 m**2 J**-1)
 Alpha(0;0):
               (au)            (10**-24 esu)      (10**-40 SI)
   iso        0.141098D+03      0.209085D+02      0.232639D+02
   aniso      0.990654D+02      0.146800D+02      0.163337D+02
   xx         0.192733D+03      0.285601D+02      0.317774D+02
   yx         0.752837D+00      0.111559D+00      0.124126D+00
   yy         0.150933D+03      0.223659D+02      0.248854D+02
   zx        -0.152888D-02     -0.226556D-03     -0.252078D-03
   zy         0.329648D-02      0.488487D-03      0.543516D-03
   zz         0.796276D+02      0.117996D+02      0.131288D+02

 ----------------------------------------------------------------------

 Dipole orientation:
     6         -0.19701484         -0.04351050          1.36411044
     6         -0.75823291         -0.16855704         -1.23921932
     6          1.14419126          0.25369112         -3.01688009
     6          3.55367758          0.78893566         -2.13308922
     6          4.08115044          0.90649225          0.46976543
     6          2.21465961          0.49227256          2.26522252
     1          0.74339059          0.16453738         -5.02226662
     1          5.06598721          1.12471551         -3.47045440
     1          5.98636270          1.32980695          1.08525572
     1          2.61541902          0.58167281          4.26936685
     1         -2.77362817         -0.61481275          4.44359072
     6         -4.22160833         -0.93858866          0.72524289
     1         -6.15945140         -1.36919675          1.18835781
     7         -2.46144179         -0.54606571          2.56205763
     7         -3.30841812         -0.73445331         -1.57561593

 Electric dipole moment (dipole orientation):
 (Debye = 10**-18 statcoulomb cm , SI units = C m)
                  (au)            (Debye)         (10**-30 SI)
   Tot        0.210686D+01      0.535510D+01      0.178627D+02
   x          0.000000D+00      0.000000D+00      0.000000D+00
   y          0.000000D+00      0.000000D+00      0.000000D+00
   z          0.210686D+01      0.535510D+01      0.178627D+02

 Dipole polarizability, Alpha (dipole orientation).
 (esu units = cm**3 , SI units = C**2 m**2 J**-1)
 Alpha(0;0):
               (au)            (10**-24 esu)      (10**-40 SI)
   iso        0.141098D+03      0.209085D+02      0.232639D+02
   aniso      0.990654D+02      0.146800D+02      0.163337D+02
   xx         0.185843D+03      0.275390D+02      0.306413D+02
   yx         0.235979D+02      0.349684D+01      0.389076D+01
   yy         0.848703D+02      0.125765D+02      0.139932D+02
   zx        -0.797550D+01     -0.118185D+01     -0.131498D+01
   zy        -0.176355D+01     -0.261331D+00     -0.290770D+00
   zz         0.152580D+03      0.226100D+02      0.251571D+02

 ----------------------------------------------------------------------
 1\1\GINC-LOCALHOST\Freq\RB3LYP\6-311+G(2d,p)\C7H6N2\WUHANYU\11-Oct-202
 3\0\\#P Geom=AllCheck Guess=TCheck SCRF=Check GenChk RB3LYP/6-311+G(2d
 ,p) Freq\\Title Card Required\\0,1\C,-0.2607876891,0.6815170574,-0.000
 0186321\C,-0.2590231158,-0.7293052224,-0.0000559977\C,0.9516739721,-1.
 4239532722,0.0000112907\C,2.125275651,-0.6841219579,0.0001302237\C,2.1
 057092442,0.7224876408,0.0001637281\C,0.9119897761,1.4305547461,0.0000
 747303\H,0.969729074,-2.507022809,-0.0001052331\H,3.0790225982,-1.1971
 823647,0.0001288832\H,3.0432659172,1.2644350416,0.0002042379\H,0.89408
 40557,2.5129841253,0.0000590671\H,-1.9775800412,1.9694141727,-0.000354
 1288\C,-2.3172891425,-0.1217048815,0.0003980452\H,-3.3959114857,-0.110
 3027673,0.000472095\N,-1.5965001549,1.0341383399,-0.0001979345\N,-1.56
 98366591,-1.2028898487,-0.000442375\\Version=ES64L-G16RevA.03\State=1-
 A\HF=-380.0209808\RMSD=1.932e-09\RMSF=5.940e-05\ZeroPoint=0.1180572\Th
 ermal=0.1240705\Dipole=-0.4569504,2.0567094,0.0003397\DipoleDeriv=0.64
 51588,-0.1602123,0.000194,-0.5846991,-0.0633676,-0.0000322,-0.0000813,
 -0.0000875,0.0862829,0.5650282,0.0423554,0.0001224,0.4511102,-0.004197
 7,0.0000009,0.0000116,0.000099,0.0351563,0.2145689,-0.0330443,-0.00004
 59,0.0115255,0.0842815,0.0000497,-0.000043,0.0000187,-0.2028294,-0.169
 0774,-0.0353307,0.0000337,-0.2179018,-0.0270897,0.0000597,-0.0000473,-
 0.0000511,-0.2369508,-0.1816926,-0.0472203,0.0000588,0.1542745,0.09800
 13,-0.0000475,-0.0000606,0.000021,-0.2251907,0.1603538,0.1464674,-0.00
 00483,-0.0059316,0.0176208,-0.0000199,0.0000397,-0.0000062,-0.2044582,
 0.1123348,-0.0115935,-0.0000074,0.0134218,-0.0967735,-0.0000227,0.0000
 31,-0.000027,0.2009308,-0.0837399,0.1004509,-0.0000097,0.1011009,0.052
 1681,0.0000053,0.0000187,0.0000043,0.1996494,-0.0696719,-0.1044667,-0.
 000016,-0.1011625,0.0483263,-0.0000124,-0.0000067,0.0000103,0.1972732,
 0.104883,0.0067678,-0.00001,-0.0047928,-0.0812302,0.0000014,0.0000377,
 -0.0000169,0.2109518,0.2805434,-0.071422,0.0000426,-0.1082826,0.387758
 9,-0.0000351,0.0000811,-0.0000096,0.4274428,0.0167951,0.0136336,-0.000
 1979,0.0008731,1.3554078,-0.0000414,0.0006985,-0.0001101,0.0538334,0.0
 394312,0.0184731,0.000047,0.0068896,0.118171,-0.0000068,-0.0005786,0.0
 000218,0.1909363,-0.7626469,-0.1166031,-0.000128,0.3123103,-1.0136,-0.
 0000333,-0.0001684,0.0005031,-0.2992243,-0.8722684,0.2517448,-0.000035
 2,-0.0287354,-0.8754769,0.0001345,0.0000675,-0.0003699,-0.4338035\Pola
 r=192.7329484,0.7528366,150.9325903,-0.0015289,0.0032965,79.6276009\Qu
 adrupole=5.382063,0.693846,-6.075909,-7.3789862,-0.0019888,-0.0015546\
 PG=C01 [X(C7H6N2)]\NImag=0\\0.76785253,0.10331846,0.65665016,0.0000281
 2,-0.00000705,0.14606991,-0.11275713,-0.02034786,-0.00000042,0.7351454
 0,0.02808015,-0.25711696,0.00000128,-0.10820393,0.64412443,-0.00000263
 ,-0.00000890,-0.08423990,0.00003659,0.00004476,0.16271936,0.02967806,0
 .05989897,0.00000503,-0.24834058,0.07770899,-0.00001851,0.64955683,0.0
 3074278,-0.01985089,0.00000062,0.11267068,-0.19345492,-0.00000719,0.00
 473222,0.74809405,-0.00000171,0.00000729,0.00400068,-0.00001609,-0.000
 00877,-0.05978034,0.00004990,0.00005300,0.13301754,-0.01157343,-0.0208
 9379,-0.00000273,-0.06670910,0.01094587,-0.00000722,-0.27891316,-0.124
 35409,-0.00002655,0.72448622,-0.03311836,-0.04319941,-0.00000407,-0.02
 754543,0.05438932,0.00000210,-0.06762690,-0.18921359,-0.00001920,-0.02
 833764,0.64211749,-0.00000139,-0.00000405,-0.00413248,-0.00000886,0.00
 000247,0.00583245,-0.00001714,-0.00001727,-0.06202549,0.00003125,0.000
 02052,0.13263066,-0.06936107,-0.01694745,-0.00000854,-0.01401312,0.021
 17205,-0.00000051,0.02836585,-0.02743129,-0.00000292,-0.12623554,-0.02
 785618,-0.00000374,0.72286560,0.02153792,0.05729459,0.00000354,0.03466
 947,-0.03973653,0.00000168,-0.07138682,-0.03083703,-0.00000350,0.03283
 416,-0.29306503,-0.00000317,0.03094485,0.64439656,-0.00000583,0.000000
 11,0.00508781,0.00000054,0.00000135,-0.00489206,-0.00000058,-0.0000033
 1,0.00782294,-0.00000228,-0.00000641,-0.06404819,0.00003734,0.00000630
 ,0.13359810,-0.24560716,-0.07870169,-0.00001394,0.03280909,-0.05849625
 ,0.00000224,-0.05558246,-0.00474850,-0.00000052,0.02458286,0.07229771,
 0.00000355,-0.28236131,0.06635190,-0.00001807,0.64534316,-0.12164429,-
 0.20376001,-0.00000233,-0.02629722,-0.01861141,-0.00000221,0.00252270,
 0.00057207,0.00000127,0.02906101,-0.02724528,0.00000149,0.12276471,-0.
 18385119,0.00001034,-0.00643679,0.75221820,-0.00001628,0.00000026,-0.0
 5532058,-0.00000290,-0.00001003,0.00451210,-0.00000171,0.00000019,-0.0
 0179986,0.00000055,0.00000191,0.00801974,-0.00002032,0.00000792,-0.060
 81767,0.00004286,-0.00000528,0.12710362,-0.00406537,0.00119563,-0.0000
 0106,0.00523931,0.02772696,0.00000347,-0.05962335,0.00721729,-0.000000
 83,0.00561818,-0.02734088,-0.00000257,-0.00405697,-0.00199705,-0.00000
 095,-0.00106182,-0.00007843,-0.00000002,0.05478106,0.00185751,0.000865
 91,-0.00000053,-0.00207021,-0.01178858,-0.00000164,0.00686988,-0.33683
 963,-0.00003179,0.00220144,-0.01117698,-0.00000121,-0.00291964,0.00103
 929,-0.00000105,0.00036457,0.00026426,0.00000015,-0.00678770,0.3569886
 0,0.00000013,-0.00000042,0.00631375,0.00000212,0.00000064,0.00407102,-
 0.00000376,-0.00003275,-0.03510774,0.00000185,-0.00000193,0.00324037,-
 0.00000062,-0.00000102,0.00767708,-0.00000060,0.00000012,-0.00098479,0
 .00000133,0.00003480,0.02389660,0.00009198,-0.00064495,-0.00000014,-0.
 00179513,-0.00401190,-0.00000127,-0.01943176,0.01399759,-0.00000064,-0
 .27401790,0.11615958,-0.00000088,0.00337865,-0.00193907,-0.00000020,0.
 00147831,-0.00033534,0.00000006,0.00134336,-0.00001881,0.00000022,0.28
 974996,-0.00102594,-0.00053928,-0.00000011,-0.00299109,-0.00160857,-0.
 00000129,-0.01648498,0.01149065,-0.00000054,0.11646082,-0.12082857,-0.
 00000004,0.02865364,-0.01084966,0.00000086,-0.00116716,-0.00527952,-0.
 00000046,0.00076587,0.00094811,0.00000053,-0.12454548,0.12487194,0.000
 00097,-0.00000092,-0.00070628,-0.00000178,-0.00000002,0.00727737,-0.00
 000176,0.00000219,0.00280218,0.00000003,-0.00000186,-0.03413246,0.0000
 0108,-0.00000038,0.00226317,-0.00000055,-0.00000031,0.00560923,0.00000
 047,0.00000057,-0.00461138,0.00000231,0.00000060,0.02464096,-0.0023694
 5,0.00357051,-0.00000073,0.00001558,0.00066592,-0.00000003,0.00143967,
 0.00057869,-0.00000015,0.00421361,0.00229831,-0.00000009,-0.26745290,-
 0.12053978,-0.00001042,-0.01917730,-0.01460526,-0.00000165,0.00005517,
 0.00016866,0.00000011,0.00074371,-0.00040978,0.00000011,0.28257543,0.0
 0322690,-0.00125983,0.00000053,0.00103676,-0.00055876,0.00000006,0.001
 39701,-0.00516329,-0.00000018,-0.02808786,-0.01133183,-0.00000155,-0.1
 2107820,-0.12839134,-0.00000619,0.01542318,0.01126421,0.00000122,-0.00
 129729,-0.00063870,-0.00000015,0.00039006,0.00148028,0.00000009,0.1293
 7323,0.13271739,-0.00000185,-0.00000040,0.00685127,0.00000111,0.000000
 75,-0.00090292,-0.00000146,-0.00000044,0.00577663,0.00000009,0.0000011
 2,0.00254958,-0.00000909,-0.00000541,-0.03466916,-0.00000099,-0.000001
 69,0.00298721,0.00000013,0.00000005,0.00024211,0.,0.00000015,-0.003580
 60,0.00001238,0.00000645,0.02484346,0.00536446,-0.02767329,0.00000119,
 -0.00380723,-0.00053029,-0.00000097,-0.00110382,-0.00000843,-0.0000000
 2,-0.00417148,0.00180013,-0.00000081,0.00507351,0.02769439,-0.00000002
 ,-0.05941949,0.00264113,-0.00000194,0.00019450,-0.00001088,0.00000008,
 0.00002011,0.00131951,0.00000006,0.00135343,-0.00077519,0.00000038,0.0
 5496358,0.00222709,-0.01195989,0.00000028,-0.00178356,0.00162854,-0.00
 000008,-0.00038022,0.00028407,-0.00000012,0.00277447,0.00114174,0.0000
 0044,-0.00162537,-0.01027722,0.,0.00334567,-0.33924916,0.00000408,0.00
 001122,-0.00011624,-0.00000007,-0.00014547,-0.00059557,-0.00000005,-0.
 00000738,0.00092104,-0.00000009,-0.00347595,0.35858817,0.00000001,-0.0
 0000199,0.00382005,0.00000013,0.00000033,0.00620212,0.00000036,-0.0000
 0038,-0.00090185,-0.00000107,-0.00000028,0.00743889,0.00000062,0.00000
 222,0.00296806,-0.00000210,0.00000390,-0.03389695,0.00000010,0.0000001
 6,-0.00123363,0.00000008,0.00000015,0.00031790,0.00000023,-0.00000013,
 -0.00454168,0.00000217,-0.00000436,0.02326102,0.00074650,0.02709783,0.
 00000082,-0.00754270,0.00046439,-0.00000055,0.00110489,0.00165982,0.00
 000030,-0.00004266,-0.00027395,-0.00000011,0.00007064,0.00039503,0.,0.
 00137317,-0.00083704,0.,-0.00041495,0.00014364,0.,-0.00000753,-0.00002
 294,-0.00000001,0.00000942,-0.00001599,0.00000003,-0.00002936,-0.00046
 290,0.00000003,0.11394234,0.00216283,0.00381236,-0.00000360,-0.0008406
 9,0.00106024,-0.00000010,-0.00026872,0.00010777,0.00000091,-0.00008544
 ,0.00070785,-0.00000011,0.00025590,-0.00087168,0.00000030,-0.00081479,
 0.00054077,-0.00000002,-0.00007699,0.00019931,0.00000014,-0.00004482,0
 .00001798,-0.00000011,-0.00009858,0.00000800,0.,0.00032263,-0.00034595
 ,-0.00000018,-0.14330532,0.40768105,-0.00000758,0.00000284,-0.00642674
 ,-0.00000086,-0.00000225,0.00269656,-0.00000047,0.00000003,0.00088710,
 0.00000032,-0.00000034,-0.00023764,-0.00000009,0.00000036,0.00001083,0
 .00000092,-0.00000027,-0.00099048,0.00000006,-0.00000005,0.00018130,0.
 00000003,-0.00000002,0.00001310,0.00000009,-0.00000002,0.00010588,-0.0
 0000004,0.00000002,-0.00025095,0.00001286,-0.00006770,0.00969502,-0.08
 795705,-0.02711835,0.00002974,-0.10302955,0.02794902,0.00003596,0.0064
 2628,-0.00677842,-0.00000133,-0.00563842,-0.00759481,-0.00000236,-0.00
 699871,0.00646660,-0.00000176,0.00646516,0.00720671,0.00000216,0.00045
 820,0.00019702,0.00000059,-0.00060753,-0.00022356,-0.00000005,-0.00047
 691,0.00019103,-0.00000028,0.00048317,-0.00028031,0.00000032,0.0170628
 7,0.01232511,-0.00001065,0.91917433,-0.05776716,0.00526006,0.00000940,
 0.06172893,0.00363831,-0.00001065,-0.01893556,0.00000309,-0.00000470,0
 .00891050,0.00500272,0.00000520,-0.00228151,-0.00639112,-0.00000255,0.
 00620887,-0.00306824,0.00000534,0.00017390,-0.00008817,-0.00000056,-0.
 00052047,-0.00008415,0.00000062,0.00072762,-0.00027291,-0.00000138,-0.
 00054228,-0.00052978,-0.00000023,-0.01207798,-0.01406568,0.00001342,-0
 .05189103,0.60877064,0.00001150,-0.00002023,0.01191173,0.00001416,0.00
 001028,0.00904852,-0.00000441,-0.00000051,0.00458034,0.00000097,0.0000
 0322,0.00054301,0.00000088,-0.00000251,0.00078949,-0.00000100,0.000000
 50,0.00248728,0.00000017,-0.00000022,-0.00041171,-0.00000003,-0.000000
 10,-0.00062052,-0.00000005,0.00000013,-0.00038678,0.00000012,0.0000001
 8,-0.00043162,-0.00000759,-0.00000995,-0.00825948,-0.00019084,0.000092
 28,0.14998861,0.00161163,-0.00152003,0.00000067,0.00079171,0.00211359,
 0.00000338,-0.00054264,-0.00040037,0.00000107,0.00002772,0.00050871,-0
 .00000015,0.00014254,-0.00043798,-0.00000002,-0.00052382,0.00024123,0.
 00000124,-0.00003558,0.00003174,0.,-0.00004182,-0.00002704,-0.00000018
 ,-0.00003403,0.00001681,-0.00000019,-0.00002549,-0.00002053,0.,-0.0001
 4895,-0.00023594,0.00000007,-0.35542323,-0.00251395,0.00003832,0.37291
 702,-0.00028732,-0.00547625,0.00000448,0.00300680,-0.00402712,-0.00000
 813,0.00077813,0.00136901,-0.00000019,0.00042757,-0.00022978,0.0000007
 6,-0.00016914,-0.00061187,-0.00000048,-0.00127797,0.00129321,0.0000006
 8,-0.00005494,-0.00002886,-0.00000023,0.00012863,0.00010124,0.00000011
 ,-0.00012168,0.00009266,-0.00000015,0.00005952,0.00000865,0.00000008,0
 .00067510,0.00068270,-0.00000066,0.00136024,-0.06152450,-0.00000230,-0
 .00166730,0.05931203,-0.00001187,0.00000300,0.00293852,-0.00000558,-0.
 00000795,0.00769590,0.00000588,0.00000044,0.00118707,-0.00000252,-0.00
 000532,-0.00041742,-0.00000405,0.00000450,-0.00022112,0.00000652,0.000
 00090,0.00174333,0.00000008,0.00000006,0.00021874,-0.00000002,0.000000
 12,-0.00027649,-0.00000004,-0.00000003,-0.00037655,0.00000005,-0.00000
 013,0.00019755,-0.00000033,-0.00000034,-0.00171343,-0.00000684,0.00000
 057,-0.03458478,-0.00003486,0.00000304,0.02367853,-0.25146349,0.048748
 45,-0.00002818,-0.02423177,0.05531086,-0.00000074,-0.00014548,-0.00093
 084,0.00000509,-0.00312873,0.00921717,-0.00000181,0.00924677,-0.011035
 00,0.00000349,-0.04477485,0.00907072,-0.00000619,-0.00039459,0.0000602
 8,-0.00000089,0.00009357,0.00019459,-0.00000112,-0.00102851,0.00051591
 ,0.00000101,0.00219831,0.00040533,-0.00000023,-0.12574545,0.13402255,-
 0.00000017,-0.18461895,-0.07955744,0.00003991,-0.00879486,-0.03123893,
 0.00002349,0.62928846,0.03629713,-0.14597531,0.00001083,0.01534268,-0.
 04623835,0.00000221,0.00556860,-0.00622358,-0.00000288,-0.00439039,-0.
 00538693,-0.00000145,-0.00580052,0.00255358,-0.00000015,-0.01216458,0.
 02106035,-0.00000534,0.00194154,-0.00082003,-0.00000016,0.00037193,0.0
 0018334,0.00000030,-0.00124727,0.00091247,0.00000089,0.00114210,0.0012
 4550,0.00000019,0.13452320,-0.39921460,0.00006351,-0.08747676,-0.23599
 965,0.00006315,0.00144461,0.00424999,0.00000291,-0.12207224,0.91626745
 ,-0.00000233,0.00002600,-0.05153138,0.00001491,0.00000217,0.00931504,-
 0.00000955,0.00000100,0.00249766,0.00000513,0.00000618,-0.00123540,0.0
 0000432,-0.00000769,0.00582766,-0.00000959,-0.00000318,-0.00164733,-0.
 00000032,-0.00000006,-0.00027627,-0.00000008,0.00000010,-0.00018907,0.
 00000031,-0.00000018,0.00124874,0.00000020,-0.00000025,-0.00288922,-0.
 00000462,0.00007649,-0.00222834,0.00004895,0.00006589,-0.05810407,-0.0
 0000538,-0.00000103,0.00204680,-0.00003311,-0.00014091,0.07248544,-0.0
 2019100,-0.04998245,-0.00000983,-0.19177479,-0.08089541,-0.00004921,-0
 .05288834,-0.00694713,-0.00000561,0.01150184,0.01741253,0.00000511,0.0
 0133606,-0.01355861,-0.00000125,-0.00354354,-0.00327384,0.00000415,0.0
 0196285,-0.00008748,-0.00000056,-0.00099798,-0.00049644,0.00000041,0.0
 0013306,-0.00031637,-0.00000127,-0.00109420,-0.00058210,-0.00000064,-0
 .00037822,-0.00331774,0.00000549,-0.20531967,0.14833755,0.00009788,-0.
 00992019,0.02838130,0.00003009,0.00349958,0.03651996,-0.00000883,0.467
 67455,-0.01560769,-0.03474523,-0.00001325,-0.03837531,-0.13169964,-0.0
 0001061,0.01560671,0.01966221,0.00000939,0.00253337,-0.00168173,-0.000
 00205,0.00231817,-0.00040133,0.00000088,-0.00018417,-0.00614826,-0.000
 00064,-0.00139914,0.00119172,0.00000106,0.00115853,0.00069179,-0.00000
 083,-0.00035323,0.00022061,0.00000013,-0.00196310,-0.00074391,0.000000
 52,-0.00796289,-0.00032012,-0.00000886,0.12566750,-0.30065061,-0.00013
 393,0.00246645,0.00478888,-0.00000177,-0.01271142,-0.10661420,-0.00002
 453,-0.07119377,0.55644982,0.00001072,0.00000446,0.01536364,-0.0000330
 8,-0.00003501,-0.06955524,-0.00000183,0.00000439,-0.00295688,0.0000021
 8,0.00000437,0.00597438,0.00000564,-0.00000284,-0.00139693,-0.00000873
 ,-0.00000327,0.00299516,-0.00000008,0.00000075,-0.00321546,0.00000056,
 0.00000003,0.00119288,-0.00000005,-0.00000006,-0.00014719,-0.00000045,
 0.00000017,-0.00005968,-0.00000082,0.00000427,0.00651726,0.00009639,-0
 .00017267,-0.07655002,-0.00000398,0.00000403,-0.00211665,-0.00000055,0
 .00000690,0.02467974,-0.00006593,0.00018447,0.09927498\\0.00002821,-0.
 00006676,0.00002056,-0.00004787,0.00000821,0.00005287,0.00015085,0.000
 02080,0.00001117,-0.00008563,-0.00006721,0.00000068,-0.00007227,0.0000
 6987,0.00000284,0.00013256,-0.00000149,0.00000367,-0.00001188,0.000013
 97,-0.00000173,-0.00001373,0.00002061,-0.00000367,-0.00001283,-0.00001
 632,-0.00000258,-0.00001965,-0.00001560,-0.00000053,-0.00000214,-0.000
 00294,-0.00001910,-0.00012251,0.00002221,0.00017240,0.00001788,-0.0000
 0093,-0.00000379,-0.00001713,0.00003882,-0.00008582,0.00007613,-0.0000
 2326,-0.00014697\\\@


 HONESTY IN A LAWYER IS LIKE A HEN'S HIND LEGS.
  -- MAGNUS OLESON, LAKE WOBEGON PATRIARCH, C.1875
 Job cpu time:       0 days  0 hours 52 minutes 33.5 seconds.
 Elapsed time:       0 days  0 hours  2 minutes 12.6 seconds.
 File lengths (MBytes):  RWF=    141 Int=      0 D2E=      0 Chk=     12 Scr=      1
 Normal termination of Gaussian 16 at Wed Oct 11 11:45:47 2023.
