 Entering Gaussian System, Link 0=g16
 Initial command:
 /data0/home/software/g16/l1.exe "/data0/home/software/g16/scratch/Gau-2483013.inp" -scrdir="/data0/home/software/g16/scratch/"
 Default is to use a total of  22 processors:
                               22 via shared-memory
                                1 via Linda
 Entering Link 1 = /data0/home/software/g16/l1.exe PID=   2483014.
  
 Copyright (c) 1988,1990,1992,1993,1995,1998,2003,2009,2016,
            Gaussian, Inc.  All Rights Reserved.
  
 This is part of the Gaussian(R) 16 program.  It is based on
 the Gaussian(R) 09 system (copyright 2009, Gaussian, Inc.),
 the Gaussian(R) 03 system (copyright 2003, Gaussian, Inc.),
 the Gaussian(R) 98 system (copyright 1998, Gaussian, Inc.),
 the Gaussian(R) 94 system (copyright 1995, Gaussian, Inc.),
 the Gaussian 92(TM) system (copyright 1992, Gaussian, Inc.),
 the Gaussian 90(TM) system (copyright 1990, Gaussian, Inc.),
 the Gaussian 88(TM) system (copyright 1988, Gaussian, Inc.),
 the Gaussian 86(TM) system (copyright 1986, Carnegie Mellon
 University), and the Gaussian 82(TM) system (copyright 1983,
 Carnegie Mellon University). Gaussian is a federally registered
 trademark of Gaussian, Inc.
  
 This software contains proprietary and confidential information,
 including trade secrets, belonging to Gaussian, Inc.
  
 This software is provided under written license and may be
 used, copied, transmitted, or stored only in accord with that
 written license.
  
 The following legend is applicable only to US Government
 contracts under FAR:
  
                    RESTRICTED RIGHTS LEGEND
  
 Use, reproduction and disclosure by the US Government is
 subject to restrictions as set forth in subparagraphs (a)
 and (c) of the Commercial Computer Software - Restricted
 Rights clause in FAR 52.227-19.
  
 Gaussian, Inc.
 340 Quinnipiac St., Bldg. 40, Wallingford CT 06492
  
  
 ---------------------------------------------------------------
 Warning -- This program may not be used in any manner that
 competes with the business of Gaussian, Inc. or will provide
 assistance to any competitor of Gaussian, Inc.  The licensee
 of this program is prohibited from giving any competitor of
 Gaussian, Inc. access to this program.  By using this program,
 the user acknowledges that Gaussian, Inc. is engaged in the
 business of creating and licensing software in the field of
 computational chemistry and represents and warrants to the
 licensee that it is not a competitor of Gaussian, Inc. and that
 it will not use this program in any manner prohibited above.
 ---------------------------------------------------------------
  

 Cite this work as:
 Gaussian 16, Revision A.03,
 M. J. Frisch, G. W. Trucks, H. B. Schlegel, G. E. Scuseria, 
 M. A. Robb, J. R. Cheeseman, G. Scalmani, V. Barone, 
 G. A. Petersson, H. Nakatsuji, X. Li, M. Caricato, A. V. Marenich, 
 J. Bloino, B. G. Janesko, R. Gomperts, B. Mennucci, H. P. Hratchian, 
 J. V. Ortiz, A. F. Izmaylov, J. L. Sonnenberg, D. Williams-Young, 
 F. Ding, F. Lipparini, F. Egidi, J. Goings, B. Peng, A. Petrone, 
 T. Henderson, D. Ranasinghe, V. G. Zakrzewski, J. Gao, N. Rega, 
 G. Zheng, W. Liang, M. Hada, M. Ehara, K. Toyota, R. Fukuda, 
 J. Hasegawa, M. Ishida, T. Nakajima, Y. Honda, O. Kitao, H. Nakai, 
 T. Vreven, K. Throssell, J. A. Montgomery, Jr., J. E. Peralta, 
 F. Ogliaro, M. J. Bearpark, J. J. Heyd, E. N. Brothers, K. N. Kudin, 
 V. N. Staroverov, T. A. Keith, R. Kobayashi, J. Normand, 
 K. Raghavachari, A. P. Rendell, J. C. Burant, S. S. Iyengar, 
 J. Tomasi, M. Cossi, J. M. Millam, M. Klene, C. Adamo, R. Cammi, 
 J. W. Ochterski, R. L. Martin, K. Morokuma, O. Farkas, 
 J. B. Foresman, and D. J. Fox, Gaussian, Inc., Wallingford CT, 2016.
 
 ******************************************
 Gaussian 16:  ES64L-G16RevA.03 25-Dec-2016
                11-Oct-2023 
 ******************************************
 %nprocshared=24
 Will use up to   24 processors via shared memory.
 %mem=50GB
 ----------------------------------------
 #p M052X/6-31G* scrf=(smd,solvent=water)
 ----------------------------------------
 1/38=1,172=1/1;
 2/12=2,17=6,18=5,40=1/2;
 3/5=1,6=6,7=1,11=2,25=1,30=1,70=32201,72=1,74=-38/1,2,3;
 4//1;
 5/5=2,38=5,53=1/2;
 6/7=2,8=2,9=2,10=2,28=1/1;
 99/5=1,9=1/99;
 Leave Link    1 at Wed Oct 11 11:47:38 2023, MaxMem=  6710886400 cpu:               0.8 elap:               0.0
 (Enter /data0/home/software/g16/l101.exe)
 -------------------
 Title Card Required
 -------------------
 Symbolic Z-matrix:
 Charge =  0 Multiplicity = 1
 C                    -0.26083   0.6814   -0.00002 
 C                    -0.25876  -0.72942  -0.00006 
 C                     0.95209  -1.42381   0.00001 
 C                     2.12553  -0.68373   0.00013 
 C                     2.10566   0.72288   0.00016 
 C                     0.91178   1.43069   0.00007 
 H                     0.97038  -2.50688  -0.00011 
 H                     3.07939  -1.19658   0.00013 
 H                     3.0431    1.26503   0.0002 
 H                     0.89364   2.51312   0.00006 
 H                    -1.9779    1.96892  -0.00036 
 C                    -2.31716  -0.12227   0.0004 
 H                    -3.39578  -0.1111    0.00047 
 N                    -1.59662   1.03373  -0.0002 
 N                    -1.56947  -1.20329  -0.00045 
 
 ITRead=  0  0  0  0  0  0  0  0  0  0  0  0  0  0  0
 MicOpt= -1 -1 -1 -1 -1 -1 -1 -1 -1 -1 -1 -1 -1 -1 -1
 NAtoms=     15 NQM=       15 NQMF=       0 NMMI=      0 NMMIF=      0
                NMic=       0 NMicF=      0.
                    Isotopes and Nuclear Properties:
 (Nuclear quadrupole moments (NQMom) in fm**2, nuclear magnetic moments (NMagM)
  in nuclear magnetons)

  Atom         1           2           3           4           5           6           7           8           9          10
 IAtWgt=          12          12          12          12          12          12           1           1           1           1
 AtmWgt=  12.0000000  12.0000000  12.0000000  12.0000000  12.0000000  12.0000000   1.0078250   1.0078250   1.0078250   1.0078250
 NucSpn=           0           0           0           0           0           0           1           1           1           1
 AtZEff=  -0.0000000  -0.0000000  -0.0000000  -0.0000000  -0.0000000  -0.0000000  -0.0000000  -0.0000000  -0.0000000  -0.0000000
 NQMom=    0.0000000   0.0000000   0.0000000   0.0000000   0.0000000   0.0000000   0.0000000   0.0000000   0.0000000   0.0000000
 NMagM=    0.0000000   0.0000000   0.0000000   0.0000000   0.0000000   0.0000000   2.7928460   2.7928460   2.7928460   2.7928460
 AtZNuc=   6.0000000   6.0000000   6.0000000   6.0000000   6.0000000   6.0000000   1.0000000   1.0000000   1.0000000   1.0000000

  Atom        11          12          13          14          15
 IAtWgt=           1          12           1          14          14
 AtmWgt=   1.0078250  12.0000000   1.0078250  14.0030740  14.0030740
 NucSpn=           1           0           1           2           2
 AtZEff=  -0.0000000  -0.0000000  -0.0000000  -0.0000000  -0.0000000
 NQMom=    0.0000000   0.0000000   0.0000000   2.0440000   2.0440000
 NMagM=    2.7928460   0.0000000   2.7928460   0.4037610   0.4037610
 AtZNuc=   1.0000000   6.0000000   1.0000000   7.0000000   7.0000000
 Leave Link  101 at Wed Oct 11 11:47:38 2023, MaxMem=  6710886400 cpu:               1.9 elap:               0.1
 (Enter /data0/home/software/g16/l202.exe)
                          Input orientation:                          
 ---------------------------------------------------------------------
 Center     Atomic      Atomic             Coordinates (Angstroms)
 Number     Number       Type             X           Y           Z
 ---------------------------------------------------------------------
      1          6           0       -0.260831    0.681398   -0.000021
      2          6           0       -0.258761   -0.729424   -0.000058
      3          6           0        0.952087   -1.423810    0.000009
      4          6           0        2.125528   -0.683725    0.000128
      5          6           0        2.105657    0.722881    0.000161
      6          6           0        0.911784    1.430689    0.000072
      7          1           0        0.970376   -2.506876   -0.000108
      8          1           0        3.079386   -1.196578    0.000127
      9          1           0        3.043096    1.265031    0.000202
     10          1           0        0.893644    2.513115    0.000057
     11          1           0       -1.977903    1.968923   -0.000356
     12          6           0       -2.317159   -0.122270    0.000396
     13          1           0       -3.395783   -0.111102    0.000470
     14          7           0       -1.596620    1.033729   -0.000200
     15          7           0       -1.569472   -1.203293   -0.000445
 ---------------------------------------------------------------------
                    Distance matrix (angstroms):
                    1          2          3          4          5
     1  C    0.000000
     2  C    1.410824   0.000000
     3  C    2.429624   1.395824   0.000000
     4  C    2.749231   2.384727   1.387332   0.000000
     5  C    2.366852   2.774827   2.437008   1.406746   0.000000
     6  C    1.391569   2.456881   2.854784   2.438016   1.387921
     7  H    3.417742   2.161045   1.083220   2.158299   3.423477
     8  H    3.831950   3.370676   2.139401   1.082988   2.152318
     9  H    3.355080   3.857475   3.406198   2.153969   1.082921
    10  H    2.165179   3.441235   3.937359   3.425978   2.161924
    11  H    2.146173   3.199457   4.482798   4.886173   4.269436
    12  C    2.207797   2.146075   3.518803   4.478024   4.502842
    13  H    3.233571   3.197379   4.541715   5.550925   5.564294
    14  N    1.381474   2.213273   3.540537   4.099272   3.715304
    15  N    2.294472   1.393741   2.531183   3.731350   4.149304
                    6          7          8          9         10
     6  C    0.000000
     7  H    3.938001   0.000000
     8  H    3.406029   2.482902   0.000000
     9  H    2.137740   4.303888   2.461876   0.000000
    10  H    1.082578   5.020577   4.305728   2.485530   0.000000
    11  H    2.939385   5.359583   5.966286   5.070098   2.922658
    12  C    3.582981   4.061309   5.502439   5.536871   4.153855
    13  H    4.575178   4.980269   6.565521   6.584292   5.028489
    14  N    2.539620   4.373254   5.180666   4.645478   2.896549
    15  N    3.618631   2.854848   4.648863   5.231482   4.458546
                   11         12         13         14         15
    11  H    0.000000
    12  C    2.118533   0.000000
    13  H    2.517318   1.078682   0.000000
    14  N    1.009933   1.362171   2.132516   0.000000
    15  N    3.198401   1.314400   2.127979   2.237187   0.000000
 Stoichiometry    C7H6N2
 Framework group  C1[X(C7H6N2)]
 Deg. of freedom    39
 Full point group                 C1      NOp   1
 Largest Abelian subgroup         C1      NOp   1
 Largest concise Abelian subgroup C1      NOp   1
                         Standard orientation:                         
 ---------------------------------------------------------------------
 Center     Atomic      Atomic             Coordinates (Angstroms)
 Number     Number       Type             X           Y           Z
 ---------------------------------------------------------------------
      1          6           0       -0.260831    0.681398   -0.000021
      2          6           0       -0.258761   -0.729424   -0.000058
      3          6           0        0.952087   -1.423810    0.000009
      4          6           0        2.125528   -0.683725    0.000128
      5          6           0        2.105657    0.722881    0.000161
      6          6           0        0.911784    1.430689    0.000072
      7          1           0        0.970376   -2.506876   -0.000108
      8          1           0        3.079386   -1.196578    0.000127
      9          1           0        3.043096    1.265031    0.000202
     10          1           0        0.893644    2.513115    0.000057
     11          1           0       -1.977903    1.968923   -0.000356
     12          6           0       -2.317159   -0.122270    0.000396
     13          1           0       -3.395783   -0.111102    0.000470
     14          7           0       -1.596620    1.033729   -0.000200
     15          7           0       -1.569472   -1.203293   -0.000445
 ---------------------------------------------------------------------
 Rotational constants (GHZ):           3.9570035           1.6804851           1.1795475
 Leave Link  202 at Wed Oct 11 11:47:38 2023, MaxMem=  6710886400 cpu:               0.1 elap:               0.0
 (Enter /data0/home/software/g16/l301.exe)
 Standard basis: 6-31G(d) (6D, 7F)
 Ernie: Thresh=  0.10000D-02 Tol=  0.10000D-05 Strict=F.
 There are   147 symmetry adapted cartesian basis functions of A   symmetry.
 There are   147 symmetry adapted basis functions of A   symmetry.
   147 basis functions,   276 primitive gaussians,   147 cartesian basis functions
    31 alpha electrons       31 beta electrons
       nuclear repulsion energy       404.7106815067 Hartrees.
 IExCor= 3428 DFT=T Ex+Corr=M052X ExCW=0 ScaHFX=  0.560000
 ScaDFX=  0.440000  0.440000  1.000000  1.000000 ScalE2=  1.000000  1.000000
 IRadAn=      5 IRanWt=     -1 IRanGd=            0 ICorTp=0 IEmpDi=  4
 NAtoms=   15 NActive=   15 NUniq=   15 SFac= 1.00D+00 NAtFMM=   60 NAOKFM=F Big=F
 Integral buffers will be    131072 words long.
 Raffenetti 2 integral format.
 Two-electron integral symmetry is turned on.
 ------------------------------------------------------------------------------
 Polarizable Continuum Model (PCM)
 =================================
 Model                : PCM.
 Atomic radii         : SMD-Coulomb.
 Polarization charges : Total charges.
 Charge compensation  : None.
 Solution method      : On-the-fly selection.
 Cavity type          : VdW (van der Waals Surface) (Alpha=1.000).
 Cavity algorithm     : GePol (No added spheres)
                        Default sphere list used, NSphG=   15.
                        Lebedev-Laikov grids with approx.  5.0 points / Ang**2.
                        Smoothing algorithm: York/Karplus (Gamma=1.0000).
                        Polarization charges: spherical gaussians, with
                                              point-specific exponents (IZeta= 3).
                        Self-potential: point-specific (ISelfS= 7).
                        Self-field    : sphere-specific E.n sum rule (ISelfD= 2).
 Solvent              : Water, Eps=  78.355300 Eps(inf)=   1.777849
 ------------------------------------------------------------------------------
 Spheres list:
 ISph  on   Nord     Re0    Alpha      Xe            Ye            Ze
    1   C      1    1.8500  1.000     -0.260831      0.681398     -0.000021
    2   C      2    1.8500  1.000     -0.258761     -0.729424     -0.000058
    3   C      3    1.8500  1.000      0.952087     -1.423810      0.000009
    4   C      4    1.8500  1.000      2.125528     -0.683725      0.000128
    5   C      5    1.8500  1.000      2.105657      0.722881      0.000161
    6   C      6    1.8500  1.000      0.911784      1.430689      0.000072
    7   H      7    1.2000  1.000      0.970376     -2.506876     -0.000108
    8   H      8    1.2000  1.000      3.079386     -1.196578      0.000127
    9   H      9    1.2000  1.000      3.043096      1.265031      0.000202
   10   H     10    1.2000  1.000      0.893644      2.513115      0.000057
   11   H     11    1.2000  1.000     -1.977903      1.968923     -0.000356
   12   C     12    1.8500  1.000     -2.317159     -0.122270      0.000396
   13   H     13    1.2000  1.000     -3.395783     -0.111102      0.000470
   14   N     14    1.8900  1.000     -1.596620      1.033729     -0.000200
   15   N     15    1.8900  1.000     -1.569472     -1.203293     -0.000445
 ------------------------------------------------------------------------------
 GePol: Number of generator spheres                  =      15
 GePol: Total number of spheres                      =      15
 GePol: Number of exposed spheres                    =      15 (100.00%)
 GePol: Number of points                             =    1277
 GePol: Average weight of points                     =       0.11
 GePol: Minimum weight of points                     =   0.28D-06
 GePol: Maximum weight of points                     =    0.17992
 GePol: Number of points with low weight             =      50
 GePol: Fraction of low-weight points (<1% of avg)   =       3.92%
 GePol: Cavity surface area                          =    143.216 Ang**2
 GePol: Cavity volume                                =    126.400 Ang**3
 ------------------------------------------------------------------------------
 Atomic radii for non-electrostatic terms: SMD-CDS.
 ------------------------------------------------------------------------------
 PCM non-electrostatic energy =         0.0023247163 Hartrees.
 Nuclear repulsion after PCM non-electrostatic terms =      404.7130062230 Hartrees.
 Leave Link  301 at Wed Oct 11 11:47:38 2023, MaxMem=  6710886400 cpu:               1.5 elap:               0.1
 (Enter /data0/home/software/g16/l302.exe)
 NPDir=0 NMtPBC=     1 NCelOv=     1 NCel=       1 NClECP=     1 NCelD=      1
         NCelK=      1 NCelE2=     1 NClLst=     1 CellRange=     0.0.
 One-electron integrals computed using PRISM.
 One-electron integral symmetry used in STVInt
 NBasis=   147 RedAO= T EigKep=  3.83D-04  NBF=   147
 NBsUse=   147 1.00D-06 EigRej= -1.00D+00 NBFU=   147
 Precomputing XC quadrature grid using
 IXCGrd= 4 IRadAn=           5 IRanWt=          -1 IRanGd=           0 AccXCQ= 0.00D+00.
 Generated NRdTot=       0 NPtTot=           0 NUsed=           0 NTot=          32
 NSgBfM=   147   147   147   147   147 MxSgAt=    15 MxSgA2=    15.
 Leave Link  302 at Wed Oct 11 11:47:39 2023, MaxMem=  6710886400 cpu:               2.9 elap:               0.1
 (Enter /data0/home/software/g16/l303.exe)
 DipDrv:  MaxL=1.
 Leave Link  303 at Wed Oct 11 11:47:39 2023, MaxMem=  6710886400 cpu:               0.5 elap:               0.0
 (Enter /data0/home/software/g16/l401.exe)
 ExpMin= 1.61D-01 ExpMax= 4.17D+03 ExpMxC= 6.27D+02 IAcc=3 IRadAn=         5 AccDes= 0.00D+00
 Harris functional with IExCor= 1009 and IRadAn=       5 diagonalized for initial guess.
 HarFok:  IExCor= 1009 AccDes= 0.00D+00 IRadAn=         5 IDoV= 1 UseB2=F ITyADJ=14
 ICtDFT=  3500011 ScaDFX=  1.000000  1.000000  1.000000  1.000000
 FoFCou: FMM=F IPFlag=           0 FMFlag=      100000 FMFlg1=           0
         NFxFlg=           0 DoJE=T BraDBF=F KetDBF=T FulRan=T
         wScrn=  0.000000 ICntrl=       500 IOpCl=  0 I1Cent=   200000004 NGrid=           0
         NMat0=    1 NMatS0=      1 NMatT0=    0 NMatD0=    1 NMtDS0=    0 NMtDT0=    0
 Petite list used in FoFCou.
 Harris En= -379.506474122158    
 JPrj=0 DoOrth=F DoCkMO=F.
 Leave Link  401 at Wed Oct 11 11:47:39 2023, MaxMem=  6710886400 cpu:               7.5 elap:               0.3
 (Enter /data0/home/software/g16/l502.exe)
 Integral symmetry usage will be decided dynamically.
 Closed shell SCF:
 Using DIIS extrapolation, IDIIS=  1040.
 NGot=  6710886400 LenX=  6710837970 LenY=  6710815920
 Requested convergence on RMS density matrix=1.00D-08 within 128 cycles.
 Requested convergence on MAX density matrix=1.00D-06.
 Requested convergence on             energy=1.00D-06.
 No special actions if energy rises.
 Fock matrices will be formed incrementally for  20 cycles.

 Cycle   1  Pass 1  IDiag  1:
 FoFJK:  IHMeth= 1 ICntrl=       0 DoSepK=F KAlg= 0 I1Cent=           0 FoldK=F
 IRaf= 960000000 NMat=       1 IRICut=       1 DoRegI=T DoRafI=F ISym2E= 0 IDoP0=0 IntGTp=1.
 FoFCou: FMM=F IPFlag=           0 FMFlag=      100000 FMFlg1=           0
         NFxFlg=           0 DoJE=F BraDBF=F KetDBF=F FulRan=T
         wScrn=  0.000000 ICntrl=         0 IOpCl=  0 I1Cent=           0 NGrid=           0
         NMat0=    1 NMatS0=      1 NMatT0=    0 NMatD0=    1 NMtDS0=    0 NMtDT0=    0
 Symmetry not used in FoFCou.
 Inv3:  Mode=1 IEnd=     4892187.
 Iteration    1 A*A^-1 deviation from unit magnitude is 5.33D-15 for   1271.
 Iteration    1 A*A^-1 deviation from orthogonality  is 3.82D-15 for   1259     16.
 Iteration    1 A^-1*A deviation from unit magnitude is 5.33D-15 for   1271.
 Iteration    1 A^-1*A deviation from orthogonality  is 1.14D-11 for    618    578.
 E= -379.684022212549    
 DIIS: error= 4.33D-02 at cycle   1 NSaved=   1.
 NSaved= 1 IEnMin= 1 EnMin= -379.684022212549     IErMin= 1 ErrMin= 4.33D-02
 ErrMax= 4.33D-02  0.00D+00 EMaxC= 1.00D-01 BMatC= 1.64D-01 BMatP= 1.64D-01
 IDIUse=3 WtCom= 5.67D-01 WtEn= 4.33D-01
 Coeff-Com:  0.100D+01
 Coeff-En:   0.100D+01
 Coeff:      0.100D+01
 Gap=     0.331 Goal=   None    Shift=    0.000
 GapD=    0.331 DampG=1.000 DampE=0.500 DampFc=0.5000 IDamp=-1.
 Damping current iteration by 5.00D-01
 RMSDP=5.16D-03 MaxDP=9.80D-02              OVMax= 1.45D-01

 Cycle   2  Pass 1  IDiag  1:
 RMSU=  2.50D-03    CP:  9.77D-01
 E= -379.769822371573     Delta-E=       -0.085800159024 Rises=F Damp=T
 DIIS: error= 1.21D-02 at cycle   2 NSaved=   2.
 NSaved= 2 IEnMin= 2 EnMin= -379.769822371573     IErMin= 2 ErrMin= 1.21D-02
 ErrMax= 1.21D-02  0.00D+00 EMaxC= 1.00D-01 BMatC= 1.59D-02 BMatP= 1.64D-01
 IDIUse=3 WtCom= 8.79D-01 WtEn= 1.21D-01
 Coeff-Com: -0.207D+00 0.121D+01
 Coeff-En:   0.000D+00 0.100D+01
 Coeff:     -0.182D+00 0.118D+01
 Gap=     0.315 Goal=   None    Shift=    0.000
 RMSDP=1.28D-03 MaxDP=2.16D-02 DE=-8.58D-02 OVMax= 7.93D-02

 Cycle   3  Pass 1  IDiag  1:
 RMSU=  1.06D-03    CP:  9.67D-01  1.26D+00
 E= -379.842816842877     Delta-E=       -0.072994471304 Rises=F Damp=F
 DIIS: error= 4.16D-03 at cycle   3 NSaved=   3.
 NSaved= 3 IEnMin= 3 EnMin= -379.842816842877     IErMin= 3 ErrMin= 4.16D-03
 ErrMax= 4.16D-03  0.00D+00 EMaxC= 1.00D-01 BMatC= 3.54D-03 BMatP= 1.59D-02
 IDIUse=3 WtCom= 9.58D-01 WtEn= 4.16D-02
 Coeff-Com: -0.111D+00 0.411D+00 0.700D+00
 Coeff-En:   0.000D+00 0.000D+00 0.100D+01
 Coeff:     -0.107D+00 0.394D+00 0.713D+00
 Gap=     0.302 Goal=   None    Shift=    0.000
 RMSDP=4.83D-04 MaxDP=1.43D-02 DE=-7.30D-02 OVMax= 2.36D-02

 Cycle   4  Pass 1  IDiag  1:
 RMSU=  3.78D-04    CP:  9.68D-01  1.31D+00  7.52D-01
 E= -379.845297291869     Delta-E=       -0.002480448992 Rises=F Damp=F
 DIIS: error= 2.18D-03 at cycle   4 NSaved=   4.
 NSaved= 4 IEnMin= 4 EnMin= -379.845297291869     IErMin= 4 ErrMin= 2.18D-03
 ErrMax= 2.18D-03  0.00D+00 EMaxC= 1.00D-01 BMatC= 8.77D-04 BMatP= 3.54D-03
 IDIUse=3 WtCom= 9.78D-01 WtEn= 2.18D-02
 Coeff-Com: -0.252D-01 0.588D-01 0.353D+00 0.613D+00
 Coeff-En:   0.000D+00 0.000D+00 0.160D+00 0.840D+00
 Coeff:     -0.247D-01 0.575D-01 0.349D+00 0.618D+00
 Gap=     0.302 Goal=   None    Shift=    0.000
 RMSDP=1.88D-04 MaxDP=5.86D-03 DE=-2.48D-03 OVMax= 7.25D-03

 Cycle   5  Pass 1  IDiag  1:
 RMSU=  9.14D-05    CP:  9.67D-01  1.30D+00  8.37D-01  6.45D-01
 E= -379.846026305000     Delta-E=       -0.000729013130 Rises=F Damp=F
 DIIS: error= 3.58D-04 at cycle   5 NSaved=   5.
 NSaved= 5 IEnMin= 5 EnMin= -379.846026305000     IErMin= 5 ErrMin= 3.58D-04
 ErrMax= 3.58D-04  0.00D+00 EMaxC= 1.00D-01 BMatC= 2.30D-05 BMatP= 8.77D-04
 IDIUse=3 WtCom= 9.96D-01 WtEn= 3.58D-03
 Coeff-Com: -0.541D-02 0.775D-02 0.113D+00 0.241D+00 0.644D+00
 Coeff-En:   0.000D+00 0.000D+00 0.000D+00 0.000D+00 0.100D+01
 Coeff:     -0.539D-02 0.772D-02 0.112D+00 0.240D+00 0.646D+00
 Gap=     0.302 Goal=   None    Shift=    0.000
 RMSDP=4.53D-05 MaxDP=1.41D-03 DE=-7.29D-04 OVMax= 1.38D-03

 Cycle   6  Pass 1  IDiag  1:
 RMSU=  3.51D-05    CP:  9.67D-01  1.31D+00  8.45D-01  6.88D-01  7.74D-01
 E= -379.846047691461     Delta-E=       -0.000021386462 Rises=F Damp=F
 DIIS: error= 1.56D-04 at cycle   6 NSaved=   6.
 NSaved= 6 IEnMin= 6 EnMin= -379.846047691461     IErMin= 6 ErrMin= 1.56D-04
 ErrMax= 1.56D-04  0.00D+00 EMaxC= 1.00D-01 BMatC= 1.90D-06 BMatP= 2.30D-05
 IDIUse=3 WtCom= 9.98D-01 WtEn= 1.56D-03
 Coeff-Com:  0.751D-03-0.336D-02 0.371D-02 0.144D-01 0.219D+00 0.765D+00
 Coeff-En:   0.000D+00 0.000D+00 0.000D+00 0.000D+00 0.000D+00 0.100D+01
 Coeff:      0.750D-03-0.335D-02 0.370D-02 0.144D-01 0.219D+00 0.766D+00
 Gap=     0.302 Goal=   None    Shift=    0.000
 RMSDP=1.36D-05 MaxDP=2.45D-04 DE=-2.14D-05 OVMax= 9.22D-04

 Cycle   7  Pass 1  IDiag  1:
 RMSU=  7.79D-06    CP:  9.67D-01  1.31D+00  8.49D-01  6.96D-01  8.81D-01
                    CP:  9.79D-01
 E= -379.846050155118     Delta-E=       -0.000002463657 Rises=F Damp=F
 DIIS: error= 3.20D-05 at cycle   7 NSaved=   7.
 NSaved= 7 IEnMin= 7 EnMin= -379.846050155118     IErMin= 7 ErrMin= 3.20D-05
 ErrMax= 3.20D-05  0.00D+00 EMaxC= 1.00D-01 BMatC= 1.21D-07 BMatP= 1.90D-06
 IDIUse=1 WtCom= 1.00D+00 WtEn= 0.00D+00
 Coeff-Com:  0.640D-03-0.139D-02-0.881D-02-0.217D-01-0.329D-01 0.116D+00
 Coeff-Com:  0.948D+00
 Coeff:      0.640D-03-0.139D-02-0.881D-02-0.217D-01-0.329D-01 0.116D+00
 Coeff:      0.948D+00
 Gap=     0.302 Goal=   None    Shift=    0.000
 RMSDP=5.82D-06 MaxDP=8.62D-05 DE=-2.46D-06 OVMax= 2.50D-04

 Cycle   8  Pass 1  IDiag  1:
 RMSU=  2.79D-06    CP:  9.67D-01  1.31D+00  8.50D-01  6.98D-01  9.05D-01
                    CP:  1.10D+00  1.13D+00
 E= -379.846050393395     Delta-E=       -0.000000238277 Rises=F Damp=F
 DIIS: error= 1.70D-05 at cycle   8 NSaved=   8.
 NSaved= 8 IEnMin= 8 EnMin= -379.846050393395     IErMin= 8 ErrMin= 1.70D-05
 ErrMax= 1.70D-05  0.00D+00 EMaxC= 1.00D-01 BMatC= 3.14D-08 BMatP= 1.21D-07
 IDIUse=1 WtCom= 1.00D+00 WtEn= 0.00D+00
 Coeff-Com:  0.215D-03-0.302D-03-0.405D-02-0.115D-01-0.354D-01-0.906D-02
 Coeff-Com:  0.441D+00 0.619D+00
 Coeff:      0.215D-03-0.302D-03-0.405D-02-0.115D-01-0.354D-01-0.906D-02
 Coeff:      0.441D+00 0.619D+00
 Gap=     0.302 Goal=   None    Shift=    0.000
 RMSDP=1.60D-06 MaxDP=2.68D-05 DE=-2.38D-07 OVMax= 1.18D-04

 Cycle   9  Pass 1  IDiag  1:
 RMSU=  1.01D-06    CP:  9.67D-01  1.31D+00  8.50D-01  6.98D-01  9.09D-01
                    CP:  1.12D+00  1.24D+00  8.57D-01
 E= -379.846050437669     Delta-E=       -0.000000044274 Rises=F Damp=F
 DIIS: error= 5.24D-06 at cycle   9 NSaved=   9.
 NSaved= 9 IEnMin= 9 EnMin= -379.846050437669     IErMin= 9 ErrMin= 5.24D-06
 ErrMax= 5.24D-06  0.00D+00 EMaxC= 1.00D-01 BMatC= 1.42D-09 BMatP= 3.14D-08
 IDIUse=1 WtCom= 1.00D+00 WtEn= 0.00D+00
 Coeff-Com: -0.883D-04 0.194D-03 0.147D-02 0.301D-02 0.409D-02-0.129D-01
 Coeff-Com: -0.147D+00-0.113D-02 0.115D+01
 Coeff:     -0.883D-04 0.194D-03 0.147D-02 0.301D-02 0.409D-02-0.129D-01
 Coeff:     -0.147D+00-0.113D-02 0.115D+01
 Gap=     0.302 Goal=   None    Shift=    0.000
 RMSDP=8.58D-07 MaxDP=1.54D-05 DE=-4.43D-08 OVMax= 6.76D-05

 Cycle  10  Pass 1  IDiag  1:
 RMSU=  2.91D-07    CP:  9.67D-01  1.31D+00  8.50D-01  6.98D-01  9.11D-01
                    CP:  1.13D+00  1.28D+00  1.04D+00  1.33D+00
 E= -379.846050443964     Delta-E=       -0.000000006295 Rises=F Damp=F
 DIIS: error= 1.05D-06 at cycle  10 NSaved=  10.
 NSaved=10 IEnMin=10 EnMin= -379.846050443964     IErMin=10 ErrMin= 1.05D-06
 ErrMax= 1.05D-06  0.00D+00 EMaxC= 1.00D-01 BMatC= 8.67D-11 BMatP= 1.42D-09
 IDIUse=1 WtCom= 1.00D+00 WtEn= 0.00D+00
 Coeff-Com: -0.972D-05 0.144D-04 0.321D-03 0.820D-03 0.205D-02 0.586D-03
 Coeff-Com: -0.352D-01-0.430D-01 0.769D-01 0.998D+00
 Coeff:     -0.972D-05 0.144D-04 0.321D-03 0.820D-03 0.205D-02 0.586D-03
 Coeff:     -0.352D-01-0.430D-01 0.769D-01 0.998D+00
 Gap=     0.302 Goal=   None    Shift=    0.000
 RMSDP=1.91D-07 MaxDP=3.72D-06 DE=-6.30D-09 OVMax= 1.62D-05

 Cycle  11  Pass 1  IDiag  1:
 RMSU=  7.59D-08    CP:  9.67D-01  1.31D+00  8.50D-01  6.98D-01  9.11D-01
                    CP:  1.13D+00  1.29D+00  1.07D+00  1.45D+00  1.29D+00
 E= -379.846050444295     Delta-E=       -0.000000000331 Rises=F Damp=F
 DIIS: error= 4.23D-07 at cycle  11 NSaved=  11.
 NSaved=11 IEnMin=11 EnMin= -379.846050444295     IErMin=11 ErrMin= 4.23D-07
 ErrMax= 4.23D-07  0.00D+00 EMaxC= 1.00D-01 BMatC= 1.77D-11 BMatP= 8.67D-11
 IDIUse=1 WtCom= 1.00D+00 WtEn= 0.00D+00
 Coeff-Com:  0.812D-05-0.198D-04-0.607D-04-0.603D-04 0.193D-03 0.177D-02
 Coeff-Com:  0.433D-02-0.171D-01-0.997D-01 0.345D+00 0.766D+00
 Coeff:      0.812D-05-0.198D-04-0.607D-04-0.603D-04 0.193D-03 0.177D-02
 Coeff:      0.433D-02-0.171D-01-0.997D-01 0.345D+00 0.766D+00
 Gap=     0.302 Goal=   None    Shift=    0.000
 RMSDP=5.92D-08 MaxDP=1.19D-06 DE=-3.31D-10 OVMax= 4.70D-06

 Cycle  12  Pass 1  IDiag  1:
 RMSU=  2.98D-08    CP:  9.67D-01  1.31D+00  8.50D-01  6.98D-01  9.11D-01
                    CP:  1.13D+00  1.29D+00  1.07D+00  1.48D+00  1.42D+00
                    CP:  9.85D-01
 E= -379.846050444332     Delta-E=       -0.000000000036 Rises=F Damp=F
 DIIS: error= 8.84D-08 at cycle  12 NSaved=  12.
 NSaved=12 IEnMin=12 EnMin= -379.846050444332     IErMin=12 ErrMin= 8.84D-08
 ErrMax= 8.84D-08  0.00D+00 EMaxC= 1.00D-01 BMatC= 2.38D-12 BMatP= 1.77D-11
 IDIUse=1 WtCom= 1.00D+00 WtEn= 0.00D+00
 Coeff-Com:  0.396D-05-0.829D-05-0.667D-04-0.136D-03-0.241D-03 0.593D-03
 Coeff-Com:  0.702D-02 0.465D-03-0.412D-01-0.536D-01 0.239D+00 0.848D+00
 Coeff:      0.396D-05-0.829D-05-0.667D-04-0.136D-03-0.241D-03 0.593D-03
 Coeff:      0.702D-02 0.465D-03-0.412D-01-0.536D-01 0.239D+00 0.848D+00
 Gap=     0.302 Goal=   None    Shift=    0.000
 RMSDP=2.25D-08 MaxDP=3.93D-07 DE=-3.65D-11 OVMax= 1.52D-06

 Cycle  13  Pass 1  IDiag  1:
 RMSU=  8.59D-09    CP:  9.67D-01  1.31D+00  8.50D-01  6.98D-01  9.11D-01
                    CP:  1.13D+00  1.29D+00  1.07D+00  1.49D+00  1.47D+00
                    CP:  1.14D+00  1.05D+00
 E= -379.846050444335     Delta-E=       -0.000000000003 Rises=F Damp=F
 DIIS: error= 3.23D-08 at cycle  13 NSaved=  13.
 NSaved=13 IEnMin=13 EnMin= -379.846050444335     IErMin=13 ErrMin= 3.23D-08
 ErrMax= 3.23D-08  0.00D+00 EMaxC= 1.00D-01 BMatC= 1.08D-13 BMatP= 2.38D-12
 IDIUse=1 WtCom= 1.00D+00 WtEn= 0.00D+00
 Coeff-Com:  0.319D-07 0.679D-07-0.859D-05-0.202D-04-0.695D-04-0.211D-05
 Coeff-Com:  0.100D-02 0.921D-03-0.618D-03-0.313D-01-0.187D-02 0.163D+00
 Coeff-Com:  0.869D+00
 Coeff:      0.319D-07 0.679D-07-0.859D-05-0.202D-04-0.695D-04-0.211D-05
 Coeff:      0.100D-02 0.921D-03-0.618D-03-0.313D-01-0.187D-02 0.163D+00
 Coeff:      0.869D+00
 Gap=     0.302 Goal=   None    Shift=    0.000
 RMSDP=4.87D-09 MaxDP=1.42D-07 DE=-3.07D-12 OVMax= 3.35D-07

 Error on total polarization charges =  0.02684
 SCF Done:  E(RM052X) =  -379.846050444     A.U. after   13 cycles
            NFock= 13  Conv=0.49D-08     -V/T= 2.0093
 KE= 3.763423275489D+02 PE=-1.691109954291D+03 EE= 5.302085700749D+02
 SMD-CDS (non-electrostatic) energy       (kcal/mol) =       1.46
 (included in total energy above)
 Leave Link  502 at Wed Oct 11 11:47:48 2023, MaxMem=  6710886400 cpu:             219.6 elap:               9.4
 (Enter /data0/home/software/g16/l601.exe)
 Copying SCF densities to generalized density rwf, IOpCl= 0 IROHF=0.

 **********************************************************************

            Population analysis using the SCF density.

 **********************************************************************

 Orbital symmetries:
       Occupied  (A) (A) (A) (A) (A) (A) (A) (A) (A) (A) (A) (A)
                 (A) (A) (A) (A) (A) (A) (A) (A) (A) (A) (A) (A)
                 (A) (A) (A) (A) (A) (A) (A)
       Virtual   (A) (A) (A) (A) (A) (A) (A) (A) (A) (A) (A) (A)
                 (A) (A) (A) (A) (A) (A) (A) (A) (A) (A) (A) (A)
                 (A) (A) (A) (A) (A) (A) (A) (A) (A) (A) (A) (A)
                 (A) (A) (A) (A) (A) (A) (A) (A) (A) (A) (A) (A)
                 (A) (A) (A) (A) (A) (A) (A) (A) (A) (A) (A) (A)
                 (A) (A) (A) (A) (A) (A) (A) (A) (A) (A) (A) (A)
                 (A) (A) (A) (A) (A) (A) (A) (A) (A) (A) (A) (A)
                 (A) (A) (A) (A) (A) (A) (A) (A) (A) (A) (A) (A)
                 (A) (A) (A) (A) (A) (A) (A) (A) (A) (A) (A) (A)
                 (A) (A) (A) (A) (A) (A) (A) (A)
 The electronic state is 1-A.
 Alpha  occ. eigenvalues --  -14.85097 -14.78522 -10.64292 -10.61429 -10.59944
 Alpha  occ. eigenvalues --  -10.58142 -10.57740 -10.57614 -10.57329  -1.13882
 Alpha  occ. eigenvalues --   -0.98634  -0.95892  -0.84780  -0.84105  -0.72261
 Alpha  occ. eigenvalues --   -0.70429  -0.68579  -0.62721  -0.57594  -0.55614
 Alpha  occ. eigenvalues --   -0.52504  -0.51297  -0.50623  -0.48135  -0.42922
 Alpha  occ. eigenvalues --   -0.42073  -0.41556  -0.37303  -0.35002  -0.28357
 Alpha  occ. eigenvalues --   -0.27957
 Alpha virt. eigenvalues --    0.02276   0.06237   0.10501   0.16558   0.17456
 Alpha virt. eigenvalues --    0.21315   0.21744   0.23823   0.24819   0.25302
 Alpha virt. eigenvalues --    0.28023   0.30662   0.32891   0.35427   0.38524
 Alpha virt. eigenvalues --    0.39170   0.40399   0.48924   0.55352   0.56428
 Alpha virt. eigenvalues --    0.57463   0.58145   0.61501   0.61763   0.64701
 Alpha virt. eigenvalues --    0.65455   0.66126   0.66742   0.67916   0.68246
 Alpha virt. eigenvalues --    0.68685   0.72483   0.73446   0.75113   0.76038
 Alpha virt. eigenvalues --    0.82394   0.85217   0.87148   0.89186   0.90767
 Alpha virt. eigenvalues --    0.91233   0.93774   0.94845   0.96513   0.97929
 Alpha virt. eigenvalues --    0.99285   1.01603   1.03772   1.05060   1.06910
 Alpha virt. eigenvalues --    1.14179   1.18050   1.18479   1.19181   1.29897
 Alpha virt. eigenvalues --    1.33114   1.36897   1.39752   1.40197   1.40879
 Alpha virt. eigenvalues --    1.47082   1.50031   1.53475   1.54809   1.57484
 Alpha virt. eigenvalues --    1.57912   1.59268   1.59344   1.67688   1.80746
 Alpha virt. eigenvalues --    1.87104   1.90077   1.92754   1.96479   1.99403
 Alpha virt. eigenvalues --    2.02633   2.05879   2.08349   2.11615   2.13581
 Alpha virt. eigenvalues --    2.14930   2.21286   2.24249   2.24258   2.30519
 Alpha virt. eigenvalues --    2.31811   2.31844   2.32870   2.33993   2.46668
 Alpha virt. eigenvalues --    2.51011   2.51392   2.57899   2.64971   2.64991
 Alpha virt. eigenvalues --    2.66830   2.72190   2.73063   2.76997   2.80949
 Alpha virt. eigenvalues --    2.85121   2.89208   2.93788   3.05963   3.14331
 Alpha virt. eigenvalues --    3.26539   3.50467   4.05534   4.10244   4.14217
 Alpha virt. eigenvalues --    4.18913   4.24206   4.29766   4.44461   4.46906
 Alpha virt. eigenvalues --    4.80470
          Condensed to atoms (all electrons):
               1          2          3          4          5          6
     1  C    4.760940   0.505245  -0.046228  -0.045127  -0.004925   0.486153
     2  C    0.505245   4.705398   0.528144  -0.018211  -0.042020  -0.042526
     3  C   -0.046228   0.528144   5.019540   0.534971  -0.035650  -0.047107
     4  C   -0.045127  -0.018211   0.534971   4.964652   0.520933  -0.040234
     5  C   -0.004925  -0.042020  -0.035650   0.520933   4.965726   0.523806
     6  C    0.486153  -0.042526  -0.047107  -0.040234   0.523806   5.055243
     7  H    0.006069  -0.036420   0.363970  -0.039801   0.004317  -0.000052
     8  H    0.000627   0.002777  -0.034947   0.374496  -0.037250   0.003976
     9  H    0.002408   0.000832   0.003686  -0.035682   0.372771  -0.034364
    10  H   -0.029882   0.003711   0.000239   0.003631  -0.037717   0.366433
    11  H   -0.018968   0.005597  -0.000112   0.000007  -0.000049  -0.001904
    12  C   -0.084342  -0.110301   0.003945  -0.000113  -0.000074   0.005175
    13  H    0.004111   0.004401  -0.000176   0.000004   0.000002  -0.000064
    14  N    0.266881  -0.063892   0.011015  -0.000018   0.005361  -0.085111
    15  N   -0.091236   0.391436  -0.070121   0.004701  -0.000433   0.012565
               7          8          9         10         11         12
     1  C    0.006069   0.000627   0.002408  -0.029882  -0.018968  -0.084342
     2  C   -0.036420   0.002777   0.000832   0.003711   0.005597  -0.110301
     3  C    0.363970  -0.034947   0.003686   0.000239  -0.000112   0.003945
     4  C   -0.039801   0.374496  -0.035682   0.003631   0.000007  -0.000113
     5  C    0.004317  -0.037250   0.372771  -0.037717  -0.000049  -0.000074
     6  C   -0.000052   0.003976  -0.034364   0.366433  -0.001904   0.005175
     7  H    0.503189  -0.004296  -0.000113   0.000013   0.000001   0.000040
     8  H   -0.004296   0.498312  -0.004194  -0.000118  -0.000000   0.000004
     9  H   -0.000113  -0.004194   0.494676  -0.003768  -0.000002   0.000003
    10  H    0.000013  -0.000118  -0.003768   0.485051   0.001291  -0.000087
    11  H    0.000001  -0.000000  -0.000002   0.001291   0.296659  -0.020666
    12  C    0.000040   0.000004   0.000003  -0.000087  -0.020666   4.712133
    13  H   -0.000001  -0.000000  -0.000000   0.000000  -0.000458   0.386991
    14  N   -0.000096   0.000003  -0.000099  -0.004927   0.313809   0.365001
    15  N   -0.001341  -0.000077   0.000002  -0.000118   0.003368   0.537338
              13         14         15
     1  C    0.004111   0.266881  -0.091236
     2  C    0.004401  -0.063892   0.391436
     3  C   -0.000176   0.011015  -0.070121
     4  C    0.000004  -0.000018   0.004701
     5  C    0.000002   0.005361  -0.000433
     6  C   -0.000064  -0.085111   0.012565
     7  H   -0.000001  -0.000096  -0.001341
     8  H   -0.000000   0.000003  -0.000077
     9  H   -0.000000  -0.000099   0.000002
    10  H    0.000000  -0.004927  -0.000118
    11  H   -0.000458   0.313809   0.003368
    12  C    0.386991   0.365001   0.537338
    13  H    0.435407  -0.045129  -0.035320
    14  N   -0.045129   7.027787  -0.096460
    15  N   -0.035320  -0.096460   6.915415
 Mulliken charges:
               1
     1  C    0.288273
     2  C    0.165828
     3  C   -0.231168
     4  C   -0.224209
     5  C   -0.234797
     6  C   -0.201991
     7  H    0.204521
     8  H    0.200687
     9  H    0.203844
    10  H    0.216247
    11  H    0.421426
    12  C    0.204953
    13  H    0.250232
    14  N   -0.694125
    15  N   -0.569721
 Sum of Mulliken charges =  -0.00000
 Mulliken charges with hydrogens summed into heavy atoms:
               1
     1  C    0.288273
     2  C    0.165828
     3  C   -0.026647
     4  C   -0.023522
     5  C   -0.030954
     6  C    0.014256
    12  C    0.455185
    14  N   -0.272699
    15  N   -0.569721
 Electronic spatial extent (au):  <R**2>=            967.4847
 Charge=             -0.0000 electrons
 Dipole moment (field-independent basis, Debye):
    X=             -1.1807    Y=              4.9852    Z=              0.0010  Tot=              5.1231
 Quadrupole moment (field-independent basis, Debye-Ang):
   XX=            -38.9418   YY=            -45.5733   ZZ=            -55.5356
   XY=             -9.3866   XZ=             -0.0027   YZ=             -0.0021
 Traceless Quadrupole moment (field-independent basis, Debye-Ang):
   XX=              7.7418   YY=              1.1102   ZZ=             -8.8520
   XY=             -9.3866   XZ=             -0.0027   YZ=             -0.0021
 Octapole moment (field-independent basis, Debye-Ang**2):
  XXX=            -23.4704  YYY=             25.8772  ZZZ=             -0.0012  XYY=              3.3433
  XXY=             19.5568  XXZ=              0.0078  XZZ=             -4.8737  YZZ=              1.2111
  YYZ=             -0.0018  XYZ=              0.0053
 Hexadecapole moment (field-independent basis, Debye-Ang**3):
 XXXX=           -672.0789 YYYY=           -342.0697 ZZZZ=            -56.2637 XXXY=            -39.5805
 XXXZ=             -0.0314 YYYX=            -48.2784 YYYZ=             -0.0149 ZZZX=             -0.0166
 ZZZY=             -0.0080 XXYY=           -188.1949 XXZZ=           -164.9446 YYZZ=            -82.0812
 XXYZ=             -0.0109 YYXZ=             -0.0035 ZZXY=             -2.3782
 N-N= 4.047130062230D+02 E-N=-1.691109953563D+03  KE= 3.763423275489D+02
 No NMR shielding tensors so no spin-rotation constants.
 Leave Link  601 at Wed Oct 11 11:47:49 2023, MaxMem=  6710886400 cpu:               2.0 elap:               0.1
 (Enter /data0/home/software/g16/l9999.exe)
 1\1\GINC-LOCALHOST\SP\RM052X\6-31G(d)\C7H6N2\WUHANYU\11-Oct-2023\0\\#p
  M052X/6-31G* scrf=(smd,solvent=water)\\Title Card Required\\0,1\C,0,-
 0.260831,0.681398,-0.000021\C,0,-0.258761,-0.729424,-0.000058\C,0,0.95
 2087,-1.42381,0.000009\C,0,2.125528,-0.683725,0.000128\C,0,2.105657,0.
 722881,0.000161\C,0,0.911784,1.430689,0.000072\H,0,0.970376,-2.506876,
 -0.000108\H,0,3.079386,-1.196578,0.000127\H,0,3.043096,1.265031,0.0002
 02\H,0,0.893644,2.513115,0.000057\H,0,-1.977903,1.968923,-0.000356\C,0
 ,-2.317159,-0.12227,0.000396\H,0,-3.395783,-0.111102,0.00047\N,0,-1.59
 662,1.033729,-0.0002\N,0,-1.569472,-1.203293,-0.000445\\Version=ES64L-
 G16RevA.03\State=1-A\HF=-379.8460504\RMSD=4.868e-09\Dipole=-0.4645404,
 1.9613185,0.0004079\Quadrupole=5.7558145,0.8254328,-6.5812472,-6.97869
 38,-0.0019902,-0.0015735\PG=C01 [X(C7H6N2)]\\@


 SI MONUMENTUM REQUIRIS, CIRCUMSPICE
     -- FROM SIR CHRISTOPHER WREN'S TOMBSTONE
 Job cpu time:       0 days  0 hours  3 minutes 57.4 seconds.
 Elapsed time:       0 days  0 hours  0 minutes 10.3 seconds.
 File lengths (MBytes):  RWF=     44 Int=      0 D2E=      0 Chk=      3 Scr=      1
 Normal termination of Gaussian 16 at Wed Oct 11 11:47:49 2023.
