 Entering Gaussian System, Link 0=g16
 Initial command:
 /data0/home/software/g16/l1.exe "/data0/home/software/g16/scratch/Gau-325360.inp" -scrdir="/data0/home/software/g16/scratch/"
 Default is to use a total of  22 processors:
                               22 via shared-memory
                                1 via Linda
 Entering Link 1 = /data0/home/software/g16/l1.exe PID=    325361.
  
 Copyright (c) 1988,1990,1992,1993,1995,1998,2003,2009,2016,
            Gaussian, Inc.  All Rights Reserved.
  
 This is part of the Gaussian(R) 16 program.  It is based on
 the Gaussian(R) 09 system (copyright 2009, Gaussian, Inc.),
 the Gaussian(R) 03 system (copyright 2003, Gaussian, Inc.),
 the Gaussian(R) 98 system (copyright 1998, Gaussian, Inc.),
 the Gaussian(R) 94 system (copyright 1995, Gaussian, Inc.),
 the Gaussian 92(TM) system (copyright 1992, Gaussian, Inc.),
 the Gaussian 90(TM) system (copyright 1990, Gaussian, Inc.),
 the Gaussian 88(TM) system (copyright 1988, Gaussian, Inc.),
 the Gaussian 86(TM) system (copyright 1986, Carnegie Mellon
 University), and the Gaussian 82(TM) system (copyright 1983,
 Carnegie Mellon University). Gaussian is a federally registered
 trademark of Gaussian, Inc.
  
 This software contains proprietary and confidential information,
 including trade secrets, belonging to Gaussian, Inc.
  
 This software is provided under written license and may be
 used, copied, transmitted, or stored only in accord with that
 written license.
  
 The following legend is applicable only to US Government
 contracts under FAR:
  
                    RESTRICTED RIGHTS LEGEND
  
 Use, reproduction and disclosure by the US Government is
 subject to restrictions as set forth in subparagraphs (a)
 and (c) of the Commercial Computer Software - Restricted
 Rights clause in FAR 52.227-19.
  
 Gaussian, Inc.
 340 Quinnipiac St., Bldg. 40, Wallingford CT 06492
  
  
 ---------------------------------------------------------------
 Warning -- This program may not be used in any manner that
 competes with the business of Gaussian, Inc. or will provide
 assistance to any competitor of Gaussian, Inc.  The licensee
 of this program is prohibited from giving any competitor of
 Gaussian, Inc. access to this program.  By using this program,
 the user acknowledges that Gaussian, Inc. is engaged in the
 business of creating and licensing software in the field of
 computational chemistry and represents and warrants to the
 licensee that it is not a competitor of Gaussian, Inc. and that
 it will not use this program in any manner prohibited above.
 ---------------------------------------------------------------
  

 Cite this work as:
 Gaussian 16, Revision A.03,
 M. J. Frisch, G. W. Trucks, H. B. Schlegel, G. E. Scuseria, 
 M. A. Robb, J. R. Cheeseman, G. Scalmani, V. Barone, 
 G. A. Petersson, H. Nakatsuji, X. Li, M. Caricato, A. V. Marenich, 
 J. Bloino, B. G. Janesko, R. Gomperts, B. Mennucci, H. P. Hratchian, 
 J. V. Ortiz, A. F. Izmaylov, J. L. Sonnenberg, D. Williams-Young, 
 F. Ding, F. Lipparini, F. Egidi, J. Goings, B. Peng, A. Petrone, 
 T. Henderson, D. Ranasinghe, V. G. Zakrzewski, J. Gao, N. Rega, 
 G. Zheng, W. Liang, M. Hada, M. Ehara, K. Toyota, R. Fukuda, 
 J. Hasegawa, M. Ishida, T. Nakajima, Y. Honda, O. Kitao, H. Nakai, 
 T. Vreven, K. Throssell, J. A. Montgomery, Jr., J. E. Peralta, 
 F. Ogliaro, M. J. Bearpark, J. J. Heyd, E. N. Brothers, K. N. Kudin, 
 V. N. Staroverov, T. A. Keith, R. Kobayashi, J. Normand, 
 K. Raghavachari, A. P. Rendell, J. C. Burant, S. S. Iyengar, 
 J. Tomasi, M. Cossi, J. M. Millam, M. Klene, C. Adamo, R. Cammi, 
 J. W. Ochterski, R. L. Martin, K. Morokuma, O. Farkas, 
 J. B. Foresman, and D. J. Fox, Gaussian, Inc., Wallingford CT, 2016.
 
 ******************************************
 Gaussian 16:  ES64L-G16RevA.03 25-Dec-2016
                19-Feb-2023 
 ******************************************
 %nproc=24
 Will use up to   24 processors via shared memory.
 %mem=50GB
 ---------------------------------------------------
 #p M062X/6-311+G(2d,p) nosymm em=GD3 counterpoise=2
 ---------------------------------------------------
 1/38=1,62=2,172=1/1;
 2/12=2,15=1,17=6,18=5,40=1/2;
 1/38=1,53=2,62=2,63=1/22;
 3/5=4,6=6,7=112,11=2,25=1,30=1,74=-55,124=31/1,2,3;
 4//1;
 5/5=2,38=5/2;
 6/7=2,8=2,9=2,10=2,28=1/1;
 1/53=2,62=2,63=1/22;
 3/5=7,6=11,7=112,11=2,25=1,30=1,74=-55,82=7,124=31/1,2,3;
 4//1;
 5/5=2,38=5/2;
 6/7=2,8=2,9=2,10=2,28=1/1;
 1/53=2,62=2,63=1/22(-4);
 99/5=1,9=1/99;
 Leave Link    1 at Sun Feb 19 22:19:14 2023, MaxMem=  6710886400 cpu:               0.7 elap:               0.0
 (Enter /data0/home/software/g16/l101.exe)
 -------------------
 Title Card Required
 -------------------
 Symbolic Z-matrix:
 Charge =  0 Multiplicity = 1 in supermolecule
 Charge =  0 Multiplicity = 1 in fragment      1.
 Charge =  0 Multiplicity = 1 in fragment      2.
 O                     13.60554   11.90661   10.13699    
 H                     12.85495   11.31969   10.40536    
 H                     14.29888   11.6908   10.75656    
 O                     13.51943   10.4901   7.71541    
 H                     14.41657   10.35935   7.42085    
 H                     13.5928   11.04723   8.51414    
 
 ITRead=  0  0  0  0  0  0
 MicOpt= -1 -1 -1 -1 -1 -1
 NAtoms=      6 NQM=        6 NQMF=       0 NMMI=      0 NMMIF=      0
                NMic=       0 NMicF=      0.
                    Isotopes and Nuclear Properties:
 (Nuclear quadrupole moments (NQMom) in fm**2, nuclear magnetic moments (NMagM)
  in nuclear magnetons)

  Atom         1           2           3           4           5           6
 IAtWgt=          16           1           1          16           1           1
 AtmWgt=  15.9949146   1.0078250   1.0078250  15.9949146   1.0078250   1.0078250
 NucSpn=           0           1           1           0           1           1
 AtZEff=  -0.0000000  -0.0000000  -0.0000000  -0.0000000  -0.0000000  -0.0000000
 NQMom=    0.0000000   0.0000000   0.0000000   0.0000000   0.0000000   0.0000000
 NMagM=    0.0000000   2.7928460   2.7928460   0.0000000   2.7928460   2.7928460
 AtZNuc=   8.0000000   1.0000000   1.0000000   8.0000000   1.0000000   1.0000000
 Leave Link  101 at Sun Feb 19 22:19:14 2023, MaxMem=  6710886400 cpu:               2.0 elap:               0.1
 (Enter /data0/home/software/g16/l202.exe)
                          Input orientation:                          
 ---------------------------------------------------------------------
 Center     Atomic      Atomic             Coordinates (Angstroms)
 Number     Number       Type             X           Y           Z
 ---------------------------------------------------------------------
      1          8           0       13.605542   11.906612   10.136987
      2          1           0       12.854946   11.319687   10.405361
      3          1           0       14.298883   11.690803   10.756560
      4          8           0       13.519432   10.490105    7.715405
      5          1           0       14.416565   10.359347    7.420850
      6          1           0       13.592795   11.047230    8.514140
 ---------------------------------------------------------------------
                    Distance matrix (angstroms):
                    1          2          3          4          5
     1  O    0.000000
     2  H    0.989899   0.000000
     3  H    0.954550   1.531673   0.000000
     4  O    2.806772   2.892337   3.361226   0.000000
     5  H    3.229425   3.502601   3.593548   0.953262   0.000000
     6  H    1.836391   2.048260   2.437456   0.976600   1.532013
                    6
     6  H    0.000000
 Symmetry turned off by external request.
 Stoichiometry    H4O2
 Framework group  C1[X(H4O2)]
 Deg. of freedom    12
 Full point group                 C1      NOp   1
 Rotational constants (GHZ):         209.7749458           7.0288738           6.9074802
 Leave Link  202 at Sun Feb 19 22:19:14 2023, MaxMem=  6710886400 cpu:               0.1 elap:               0.0
 (Enter /data0/home/software/g16/l122.exe)
 Counterpoise: doing full-system calculation.
 Leave Link  122 at Sun Feb 19 22:19:14 2023, MaxMem=  6710886400 cpu:               0.1 elap:               0.0
 (Enter /data0/home/software/g16/l301.exe)
 Standard basis: 6-311+G(2d,p) (5D, 7F)
 Ernie: Thresh=  0.10000D-02 Tol=  0.10000D-05 Strict=F.
    78 basis functions,   116 primitive gaussians,    82 cartesian basis functions
    10 alpha electrons       10 beta electrons
       nuclear repulsion energy        37.3577671045 Hartrees.
 IExCor= 4336 DFT=T Ex+Corr=M062X ExCW=0 ScaHFX=  0.540000
 ScaDFX=  1.000000  1.000000  1.000000  1.000000 ScalE2=  1.000000  1.000000
 IRadAn=      5 IRanWt=     -1 IRanGd=            0 ICorTp=0 IEmpDi=131
 NAtoms=    6 NActive=    6 NUniq=    6 SFac= 1.00D+00 NAtFMM=   60 NAOKFM=F Big=F
 Integral buffers will be    131072 words long.
 Raffenetti 2 integral format.
 Two-electron integral symmetry is turned off.
 R6Disp:  Grimme-D3 Dispersion energy=       -0.0000247751 Hartrees.
 Nuclear repulsion after empirical dispersion term =       37.3577423294 Hartrees.
 Leave Link  301 at Sun Feb 19 22:19:14 2023, MaxMem=  6710886400 cpu:               1.1 elap:               0.1
 (Enter /data0/home/software/g16/l302.exe)
 NPDir=0 NMtPBC=     1 NCelOv=     1 NCel=       1 NClECP=     1 NCelD=      1
         NCelK=      1 NCelE2=     1 NClLst=     1 CellRange=     0.0.
 One-electron integrals computed using PRISM.
 NBasis=    78 RedAO= T EigKep=  1.74D-03  NBF=    78
 NBsUse=    78 1.00D-06 EigRej= -1.00D+00 NBFU=    78
 Precomputing XC quadrature grid using
 IXCGrd= 4 IRadAn=           5 IRanWt=          -1 IRanGd=           0 AccXCQ= 0.00D+00.
 Generated NRdTot=       0 NPtTot=           0 NUsed=           0 NTot=          32
 NSgBfM=    82    82    82    82    82 MxSgAt=     6 MxSgA2=     6.
 Leave Link  302 at Sun Feb 19 22:19:14 2023, MaxMem=  6710886400 cpu:               2.4 elap:               0.1
 (Enter /data0/home/software/g16/l303.exe)
 DipDrv:  MaxL=1.
 Leave Link  303 at Sun Feb 19 22:19:14 2023, MaxMem=  6710886400 cpu:               0.4 elap:               0.0
 (Enter /data0/home/software/g16/l401.exe)
 ExpMin= 8.45D-02 ExpMax= 8.59D+03 ExpMxC= 1.30D+03 IAcc=3 IRadAn=         5 AccDes= 0.00D+00
 Harris functional with IExCor= 1009 and IRadAn=       5 diagonalized for initial guess.
 HarFok:  IExCor= 1009 AccDes= 0.00D+00 IRadAn=         5 IDoV= 1 UseB2=F ITyADJ=14
 ICtDFT=  3500011 ScaDFX=  1.000000  1.000000  1.000000  1.000000
 FoFCou: FMM=F IPFlag=           0 FMFlag=      100000 FMFlg1=           0
         NFxFlg=           0 DoJE=T BraDBF=F KetDBF=T FulRan=T
         wScrn=  0.000000 ICntrl=       500 IOpCl=  0 I1Cent=   200000004 NGrid=           0
         NMat0=    1 NMatS0=      1 NMatT0=    0 NMatD0=    1 NMtDS0=    0 NMtDT0=    0
 Symmetry not used in FoFCou.
 Harris En= -152.834222063069    
 JPrj=0 DoOrth=F DoCkMO=F.
 Leave Link  401 at Sun Feb 19 22:19:14 2023, MaxMem=  6710886400 cpu:               3.7 elap:               0.2
 (Enter /data0/home/software/g16/l502.exe)
 Keep R1 ints in memory in canonical form, NReq=26476721.
 FoFCou: FMM=F IPFlag=           0 FMFlag=           0 FMFlg1=           0
         NFxFlg=           0 DoJE=F BraDBF=F KetDBF=F FulRan=T
         wScrn=  0.000000 ICntrl=       600 IOpCl=  0 I1Cent=           0 NGrid=           0
         NMat0=    1 NMatS0=   3081 NMatT0=    0 NMatD0=    1 NMtDS0=    0 NMtDT0=    0
 Symmetry not used in FoFCou.
 Two-electron integral symmetry not used.
 Closed shell SCF:
 Using DIIS extrapolation, IDIIS=  1040.
 NGot=  6710886400 LenX=  6706122419 LenY=  6706115254
 Requested convergence on RMS density matrix=1.00D-08 within 128 cycles.
 Requested convergence on MAX density matrix=1.00D-06.
 Requested convergence on             energy=1.00D-06.
 No special actions if energy rises.
 Integral accuracy reduced to 1.0D-05 until final iterations.

 Cycle   1  Pass 0  IDiag  1:
 E= -152.710690061948    
 DIIS: error= 5.94D-02 at cycle   1 NSaved=   1.
 NSaved= 1 IEnMin= 1 EnMin= -152.710690061948     IErMin= 1 ErrMin= 5.94D-02
 ErrMax= 5.94D-02  0.00D+00 EMaxC= 1.00D-01 BMatC= 2.28D-01 BMatP= 2.28D-01
 IDIUse=3 WtCom= 4.06D-01 WtEn= 5.94D-01
 Coeff-Com:  0.100D+01
 Coeff-En:   0.100D+01
 Coeff:      0.100D+01
 Gap=     0.286 Goal=   None    Shift=    0.000
 GapD=    0.286 DampG=1.000 DampE=0.500 DampFc=0.5000 IDamp=-1.
 Damping current iteration by 5.00D-01
 RMSDP=6.60D-03 MaxDP=1.06D-01              OVMax= 1.80D-01

 Cycle   2  Pass 0  IDiag  1:
 E= -152.771072215426     Delta-E=       -0.060382153478 Rises=F Damp=T
 DIIS: error= 1.07D-02 at cycle   2 NSaved=   2.
 NSaved= 2 IEnMin= 2 EnMin= -152.771072215426     IErMin= 2 ErrMin= 1.07D-02
 ErrMax= 1.07D-02  0.00D+00 EMaxC= 1.00D-01 BMatC= 8.53D-03 BMatP= 2.28D-01
 IDIUse=3 WtCom= 8.93D-01 WtEn= 1.07D-01
 Coeff-Com:  0.628D-01 0.937D+00
 Coeff-En:   0.157D+00 0.843D+00
 Coeff:      0.730D-01 0.927D+00
 Gap=     0.405 Goal=   None    Shift=    0.000
 RMSDP=8.54D-04 MaxDP=1.33D-02 DE=-6.04D-02 OVMax= 1.06D-01

 Cycle   3  Pass 0  IDiag  1:
 E= -152.850219142401     Delta-E=       -0.079146926975 Rises=F Damp=F
 DIIS: error= 1.93D-03 at cycle   3 NSaved=   3.
 NSaved= 3 IEnMin= 3 EnMin= -152.850219142401     IErMin= 3 ErrMin= 1.93D-03
 ErrMax= 1.93D-03  0.00D+00 EMaxC= 1.00D-01 BMatC= 2.34D-04 BMatP= 8.53D-03
 IDIUse=3 WtCom= 9.81D-01 WtEn= 1.93D-02
 Coeff-Com: -0.243D-01 0.477D-01 0.977D+00
 Coeff-En:   0.000D+00 0.000D+00 0.100D+01
 Coeff:     -0.238D-01 0.468D-01 0.977D+00
 Gap=     0.407 Goal=   None    Shift=    0.000
 RMSDP=1.25D-04 MaxDP=1.66D-03 DE=-7.91D-02 OVMax= 4.01D-03

 Cycle   4  Pass 0  IDiag  1:
 E= -152.850391931425     Delta-E=       -0.000172789024 Rises=F Damp=F
 DIIS: error= 6.09D-04 at cycle   4 NSaved=   4.
 NSaved= 4 IEnMin= 4 EnMin= -152.850391931425     IErMin= 4 ErrMin= 6.09D-04
 ErrMax= 6.09D-04  0.00D+00 EMaxC= 1.00D-01 BMatC= 3.21D-05 BMatP= 2.34D-04
 IDIUse=3 WtCom= 9.94D-01 WtEn= 6.09D-03
 Coeff-Com: -0.943D-02 0.118D-01 0.403D+00 0.594D+00
 Coeff-En:   0.000D+00 0.000D+00 0.000D+00 0.100D+01
 Coeff:     -0.937D-02 0.118D-01 0.401D+00 0.597D+00
 Gap=     0.409 Goal=   None    Shift=    0.000
 RMSDP=4.08D-05 MaxDP=9.22D-04 DE=-1.73D-04 OVMax= 1.31D-03

 Cycle   5  Pass 0  IDiag  1:
 E= -152.850410897925     Delta-E=       -0.000018966499 Rises=F Damp=F
 DIIS: error= 2.04D-04 at cycle   5 NSaved=   5.
 NSaved= 5 IEnMin= 5 EnMin= -152.850410897925     IErMin= 5 ErrMin= 2.04D-04
 ErrMax= 2.04D-04  0.00D+00 EMaxC= 1.00D-01 BMatC= 3.33D-06 BMatP= 3.21D-05
 IDIUse=3 WtCom= 9.98D-01 WtEn= 2.04D-03
 Coeff-Com:  0.368D-03-0.297D-02 0.148D-01 0.225D+00 0.762D+00
 Coeff-En:   0.000D+00 0.000D+00 0.000D+00 0.000D+00 0.100D+01
 Coeff:      0.367D-03-0.296D-02 0.147D-01 0.225D+00 0.763D+00
 Gap=     0.409 Goal=   None    Shift=    0.000
 RMSDP=1.52D-05 MaxDP=3.49D-04 DE=-1.90D-05 OVMax= 6.51D-04

 Cycle   6  Pass 0  IDiag  1:
 E= -152.850413351384     Delta-E=       -0.000002453460 Rises=F Damp=F
 DIIS: error= 3.53D-05 at cycle   6 NSaved=   6.
 NSaved= 6 IEnMin= 6 EnMin= -152.850413351384     IErMin= 6 ErrMin= 3.53D-05
 ErrMax= 3.53D-05  0.00D+00 EMaxC= 1.00D-01 BMatC= 8.10D-08 BMatP= 3.33D-06
 IDIUse=1 WtCom= 1.00D+00 WtEn= 0.00D+00
 Coeff-Com:  0.749D-03-0.111D-02-0.257D-01-0.285D-01 0.887D-01 0.966D+00
 Coeff:      0.749D-03-0.111D-02-0.257D-01-0.285D-01 0.887D-01 0.966D+00
 Gap=     0.409 Goal=   None    Shift=    0.000
 RMSDP=5.15D-06 MaxDP=6.77D-05 DE=-2.45D-06 OVMax= 1.25D-04

 Initial convergence to 1.0D-05 achieved.  Increase integral accuracy.
 Cycle   7  Pass 1  IDiag  1:
 E= -152.850413954817     Delta-E=       -0.000000603432 Rises=F Damp=F
 DIIS: error= 2.65D-05 at cycle   1 NSaved=   1.
 NSaved= 1 IEnMin= 1 EnMin= -152.850413954817     IErMin= 1 ErrMin= 2.65D-05
 ErrMax= 2.65D-05  0.00D+00 EMaxC= 1.00D-01 BMatC= 3.43D-08 BMatP= 3.43D-08
 IDIUse=1 WtCom= 1.00D+00 WtEn= 0.00D+00
 Coeff-Com:  0.100D+01
 Coeff:      0.100D+01
 Gap=     0.409 Goal=   None    Shift=    0.000
 RMSDP=5.15D-06 MaxDP=6.77D-05 DE=-6.03D-07 OVMax= 4.16D-05

 Cycle   8  Pass 1  IDiag  1:
 E= -152.850413983098     Delta-E=       -0.000000028281 Rises=F Damp=F
 DIIS: error= 3.34D-06 at cycle   2 NSaved=   2.
 NSaved= 2 IEnMin= 2 EnMin= -152.850413983098     IErMin= 2 ErrMin= 3.34D-06
 ErrMax= 3.34D-06  0.00D+00 EMaxC= 1.00D-01 BMatC= 6.75D-10 BMatP= 3.43D-08
 IDIUse=1 WtCom= 1.00D+00 WtEn= 0.00D+00
 Coeff-Com: -0.601D-01 0.106D+01
 Coeff:     -0.601D-01 0.106D+01
 Gap=     0.409 Goal=   None    Shift=    0.000
 RMSDP=5.95D-07 MaxDP=8.26D-06 DE=-2.83D-08 OVMax= 1.50D-05

 Cycle   9  Pass 1  IDiag  1:
 E= -152.850413983576     Delta-E=       -0.000000000478 Rises=F Damp=F
 DIIS: error= 2.72D-06 at cycle   3 NSaved=   3.
 NSaved= 3 IEnMin= 3 EnMin= -152.850413983576     IErMin= 3 ErrMin= 2.72D-06
 ErrMax= 2.72D-06  0.00D+00 EMaxC= 1.00D-01 BMatC= 5.28D-10 BMatP= 6.75D-10
 IDIUse=1 WtCom= 1.00D+00 WtEn= 0.00D+00
 Coeff-Com: -0.442D-01 0.527D+00 0.517D+00
 Coeff:     -0.442D-01 0.527D+00 0.517D+00
 Gap=     0.409 Goal=   None    Shift=    0.000
 RMSDP=1.45D-07 MaxDP=3.82D-06 DE=-4.78D-10 OVMax= 4.92D-06

 Cycle  10  Pass 1  IDiag  1:
 E= -152.850413983922     Delta-E=       -0.000000000346 Rises=F Damp=F
 DIIS: error= 4.87D-07 at cycle   4 NSaved=   4.
 NSaved= 4 IEnMin= 4 EnMin= -152.850413983922     IErMin= 4 ErrMin= 4.87D-07
 ErrMax= 4.87D-07  0.00D+00 EMaxC= 1.00D-01 BMatC= 1.07D-11 BMatP= 5.28D-10
 IDIUse=1 WtCom= 1.00D+00 WtEn= 0.00D+00
 Coeff-Com:  0.156D-02-0.550D-01 0.588D-01 0.995D+00
 Coeff:      0.156D-02-0.550D-01 0.588D-01 0.995D+00
 Gap=     0.409 Goal=   None    Shift=    0.000
 RMSDP=6.47D-08 MaxDP=7.40D-07 DE=-3.46D-10 OVMax= 1.68D-06

 Cycle  11  Pass 1  IDiag  1:
 E= -152.850413983938     Delta-E=       -0.000000000016 Rises=F Damp=F
 DIIS: error= 8.32D-08 at cycle   5 NSaved=   5.
 NSaved= 5 IEnMin= 5 EnMin= -152.850413983938     IErMin= 5 ErrMin= 8.32D-08
 ErrMax= 8.32D-08  0.00D+00 EMaxC= 1.00D-01 BMatC= 7.43D-13 BMatP= 1.07D-11
 IDIUse=1 WtCom= 1.00D+00 WtEn= 0.00D+00
 Coeff-Com:  0.308D-02-0.449D-01-0.231D-01 0.188D+00 0.877D+00
 Coeff:      0.308D-02-0.449D-01-0.231D-01 0.188D+00 0.877D+00
 Gap=     0.409 Goal=   None    Shift=    0.000
 RMSDP=1.86D-08 MaxDP=2.20D-07 DE=-1.55D-11 OVMax= 5.97D-07

 Cycle  12  Pass 1  IDiag  1:
 E= -152.850413983939     Delta-E=       -0.000000000001 Rises=F Damp=F
 DIIS: error= 4.55D-08 at cycle   6 NSaved=   6.
 NSaved= 6 IEnMin= 6 EnMin= -152.850413983939     IErMin= 6 ErrMin= 4.55D-08
 ErrMax= 4.55D-08  0.00D+00 EMaxC= 1.00D-01 BMatC= 1.78D-13 BMatP= 7.43D-13
 IDIUse=1 WtCom= 1.00D+00 WtEn= 0.00D+00
 Coeff-Com:  0.113D-02-0.154D-01-0.126D-01 0.199D-01 0.364D+00 0.643D+00
 Coeff:      0.113D-02-0.154D-01-0.126D-01 0.199D-01 0.364D+00 0.643D+00
 Gap=     0.409 Goal=   None    Shift=    0.000
 RMSDP=4.26D-09 MaxDP=7.54D-08 DE=-9.66D-13 OVMax= 1.41D-07

 SCF Done:  E(RM062X) =  -152.850413984     A.U. after   12 cycles
            NFock= 12  Conv=0.43D-08     -V/T= 2.0029
 KE= 1.524117562843D+02 PE=-4.363862942433D+02 EE= 9.376638164558D+01
 Leave Link  502 at Sun Feb 19 22:19:15 2023, MaxMem=  6710886400 cpu:              22.2 elap:               1.0
 (Enter /data0/home/software/g16/l601.exe)
 Copying SCF densities to generalized density rwf, IOpCl= 0 IROHF=0.

 **********************************************************************

            Population analysis using the SCF density.

 **********************************************************************

 Alpha  occ. eigenvalues --  -19.65825 -19.59468  -1.16548  -1.10593  -0.63850
 Alpha  occ. eigenvalues --   -0.58714  -0.50915  -0.45862  -0.42085  -0.37378
 Alpha virt. eigenvalues --    0.03567   0.09827   0.11225   0.14999   0.15975
 Alpha virt. eigenvalues --    0.16799   0.19863   0.21176   0.21663   0.24695
 Alpha virt. eigenvalues --    0.30682   0.34568   0.47950   0.51553   0.55328
 Alpha virt. eigenvalues --    0.63624   0.93955   0.97828   1.02604   1.06030
 Alpha virt. eigenvalues --    1.07564   1.09228   1.14006   1.16757   1.23514
 Alpha virt. eigenvalues --    1.26095   1.31885   1.34877   1.37338   1.46813
 Alpha virt. eigenvalues --    1.66324   1.70485   1.73130   1.74733   1.79013
 Alpha virt. eigenvalues --    1.99444   2.02758   2.11704   2.14206   2.20874
 Alpha virt. eigenvalues --    2.36018   2.37056   2.46523   2.50349   2.55114
 Alpha virt. eigenvalues --    2.62685   2.86342   2.94631   3.00311   3.13798
 Alpha virt. eigenvalues --    5.07793   5.10797   5.47494   5.51391   5.87779
 Alpha virt. eigenvalues --    5.98520   6.76041   6.79906   6.81238   6.83651
 Alpha virt. eigenvalues --    6.87097   6.88579   6.94184   6.99517   7.08001
 Alpha virt. eigenvalues --    7.17908  49.94704  50.02364
          Condensed to atoms (all electrons):
               1          2          3          4          5          6
     1  O    7.978985   0.321328   0.326013   0.008191   0.005460  -0.037012
     2  H    0.321328   0.400922  -0.022401  -0.002167  -0.000474  -0.000171
     3  H    0.326013  -0.022401   0.403268  -0.001936  -0.001125  -0.001289
     4  O    0.008191  -0.002167  -0.001936   8.043743   0.312298   0.291843
     5  H    0.005460  -0.000474  -0.001125   0.312298   0.442362  -0.025411
     6  H   -0.037012  -0.000171  -0.001289   0.291843  -0.025411   0.384426
 Mulliken charges:
               1
     1  O   -0.602965
     2  H    0.302963
     3  H    0.297471
     4  O   -0.651973
     5  H    0.266890
     6  H    0.387614
 Sum of Mulliken charges =  -0.00000
 Mulliken charges with hydrogens summed into heavy atoms:
               1
     1  O   -0.002532
     4  O    0.002532
         Mulliken charges condensed to fragments:
      1     -0.002532
      2      0.002532
 Electronic spatial extent (au):  <R**2>=          28043.8350
 Charge=             -0.0000 electrons
 Dipole moment (field-independent basis, Debye):
    X=              1.6230    Y=             -0.3350    Z=              2.9649  Tot=              3.3966
 Quadrupole moment (field-independent basis, Debye-Ang):
   XX=             33.6670   YY=            -24.2603   ZZ=             42.4190
   XY=             12.7741   XZ=             52.4916   YZ=             28.5304
 Traceless Quadrupole moment (field-independent basis, Debye-Ang):
   XX=             16.3917   YY=            -41.5355   ZZ=             25.1438
   XY=             12.7741   XZ=             52.4916   YZ=             28.5304
 Octapole moment (field-independent basis, Debye-Ang**2):
  XXX=            474.4111  YYY=           -688.4219  ZZZ=            437.0811  XYY=           -143.1958
  XXY=            292.1313  XXZ=            787.4208  XZZ=            671.3707  YZZ=            417.4380
  YYZ=            115.6445  XYZ=            520.6046
 Hexadecapole moment (field-independent basis, Debye-Ang**3):
 XXXX=           4762.6796 YYYY=         -14520.9816 ZZZZ=           3641.2324 XXXY=           4002.4084
 XXXZ=          10468.2545 YYYX=          -7330.6190 YYYZ=          -2716.9073 ZZZX=           6717.1387
 ZZZY=           4198.8158 XXYY=           -730.6622 XXZZ=           9591.6632 YYZZ=           2625.8779
 XXYZ=           7845.4696 YYXZ=           3034.1641 ZZXY=           6735.5057
 N-N= 3.735774232944D+01 E-N=-4.363862910454D+02  KE= 1.524117562843D+02
 No NMR shielding tensors so no spin-rotation constants.
 Leave Link  601 at Sun Feb 19 22:19:15 2023, MaxMem=  6710886400 cpu:               1.8 elap:               0.1
 (Enter /data0/home/software/g16/l122.exe)
 CPIOFr:  IOpCl= 0 IRwI=-1 IRwCP=  731 ICalc= -1 LCPTot=       10496 Len1MO=       26312 IndFrg=       10496
 CPIOFr:  IOpCl= 0 IRwI=-1 IRwCP=  731 ICalc=  0 LCPTot=       10496 Len1MO=       26312 IndFrg=       36808
 Counterpoise: doing calculation for fragment   1 using the basis set of the full-system, NewBq=T
 Leave Link  122 at Sun Feb 19 22:19:15 2023, MaxMem=  6710886400 cpu:               0.1 elap:               0.0
 (Enter /data0/home/software/g16/l301.exe)
 Basis read from rwf:  (5D, 7F)
 No pseudopotential information found on rwf file.
    78 basis functions,   116 primitive gaussians,    82 cartesian basis functions
     5 alpha electrons        5 beta electrons
       nuclear repulsion energy         9.0570929728 Hartrees.
 IExCor= 4336 DFT=T Ex+Corr=M062X ExCW=0 ScaHFX=  0.540000
 ScaDFX=  1.000000  1.000000  1.000000  1.000000 ScalE2=  1.000000  1.000000
 IRadAn=      5 IRanWt=     -1 IRanGd=            0 ICorTp=0 IEmpDi=131
 NAtoms=    6 NActive=    6 NUniq=    6 SFac= 1.00D+00 NAtFMM=   60 NAOKFM=F Big=F
 Integral buffers will be    131072 words long.
 Raffenetti 2 integral format.
 Two-electron integral symmetry is turned off.
 R6Disp:  Grimme-D3 Dispersion energy=       -0.0000000080 Hartrees.
 Nuclear repulsion after empirical dispersion term =        9.0570929648 Hartrees.
 No density basis found on file   718.
 Leave Link  301 at Sun Feb 19 22:19:15 2023, MaxMem=  6710886400 cpu:               1.2 elap:               0.1
 (Enter /data0/home/software/g16/l302.exe)
 NPDir=0 NMtPBC=     1 NCelOv=     1 NCel=       1 NClECP=     1 NCelD=      1
         NCelK=      1 NCelE2=     1 NClLst=     1 CellRange=     0.0.
 One-electron integrals computed using PRISM.
 NBasis=    78 RedAO= T EigKep=  1.74D-03  NBF=    78
 NBsUse=    78 1.00D-06 EigRej= -1.00D+00 NBFU=    78
 Precomputing XC quadrature grid using
 IXCGrd= 4 IRadAn=           5 IRanWt=          -1 IRanGd=           0 AccXCQ= 0.00D+00.
 Generated NRdTot=       0 NPtTot=           0 NUsed=           0 NTot=          32
 NSgBfM=    82    82    82    82    82 MxSgAt=     6 MxSgA2=     6.
 Leave Link  302 at Sun Feb 19 22:19:15 2023, MaxMem=  6710886400 cpu:               2.4 elap:               0.1
 (Enter /data0/home/software/g16/l303.exe)
 DipDrv:  MaxL=1.
 Leave Link  303 at Sun Feb 19 22:19:15 2023, MaxMem=  6710886400 cpu:               0.4 elap:               0.0
 (Enter /data0/home/software/g16/l401.exe)
 ExpMin= 8.45D-02 ExpMax= 8.59D+03 ExpMxC= 1.30D+03 IAcc=3 IRadAn=         5 AccDes= 0.00D+00
 Harris functional with IExCor= 1009 and IRadAn=       5 diagonalized for initial guess.
 HarFok:  IExCor= 1009 AccDes= 0.00D+00 IRadAn=         5 IDoV= 1 UseB2=F ITyADJ=14
 ICtDFT=  3500011 ScaDFX=  1.000000  1.000000  1.000000  1.000000
 FoFCou: FMM=F IPFlag=           0 FMFlag=      100000 FMFlg1=           0
         NFxFlg=           0 DoJE=T BraDBF=F KetDBF=T FulRan=T
         wScrn=  0.000000 ICntrl=       500 IOpCl=  0 I1Cent=   200000004 NGrid=           0
         NMat0=    1 NMatS0=      1 NMatT0=    0 NMatD0=    1 NMtDS0=    0 NMtDT0=    0
 Symmetry not used in FoFCou.
 Harris En= -76.4161684412720    
 JPrj=0 DoOrth=F DoCkMO=F.
 Leave Link  401 at Sun Feb 19 22:19:16 2023, MaxMem=  6710886400 cpu:               3.6 elap:               0.2
 (Enter /data0/home/software/g16/l502.exe)
 Keep R1 ints in memory in canonical form, NReq=26476721.
 FoFCou: FMM=F IPFlag=           0 FMFlag=           0 FMFlg1=           0
         NFxFlg=           0 DoJE=F BraDBF=F KetDBF=F FulRan=T
         wScrn=  0.000000 ICntrl=       600 IOpCl=  0 I1Cent=           0 NGrid=           0
         NMat0=    1 NMatS0=   3081 NMatT0=    0 NMatD0=    1 NMtDS0=    0 NMtDT0=    0
 Symmetry not used in FoFCou.
 Two-electron integral symmetry not used.
 Closed shell SCF:
 Using DIIS extrapolation, IDIIS=  1040.
 NGot=  6710886400 LenX=  6706122419 LenY=  6706115254
 Requested convergence on RMS density matrix=1.00D-08 within 128 cycles.
 Requested convergence on MAX density matrix=1.00D-06.
 Requested convergence on             energy=1.00D-06.
 No special actions if energy rises.
 Integral accuracy reduced to 1.0D-05 until final iterations.

 Cycle   1  Pass 0  IDiag  1:
 E= -76.3468491037650    
 DIIS: error= 3.96D-02 at cycle   1 NSaved=   1.
 NSaved= 1 IEnMin= 1 EnMin= -76.3468491037650     IErMin= 1 ErrMin= 3.96D-02
 ErrMax= 3.96D-02  0.00D+00 EMaxC= 1.00D-01 BMatC= 1.20D-01 BMatP= 1.20D-01
 IDIUse=3 WtCom= 6.04D-01 WtEn= 3.96D-01
 Coeff-Com:  0.100D+01
 Coeff-En:   0.100D+01
 Coeff:      0.100D+01
 Gap=     0.312 Goal=   None    Shift=    0.000
 GapD=    0.312 DampG=1.000 DampE=0.500 DampFc=0.5000 IDamp=-1.
 Damping current iteration by 5.00D-01
 RMSDP=5.25D-03 MaxDP=9.96D-02              OVMax= 1.70D-01

 Cycle   2  Pass 0  IDiag  1:
 E= -76.3777180806090     Delta-E=       -0.030868976844 Rises=F Damp=T
 DIIS: error= 8.65D-03 at cycle   2 NSaved=   2.
 NSaved= 2 IEnMin= 2 EnMin= -76.3777180806090     IErMin= 2 ErrMin= 8.65D-03
 ErrMax= 8.65D-03  0.00D+00 EMaxC= 1.00D-01 BMatC= 4.99D-03 BMatP= 1.20D-01
 IDIUse=3 WtCom= 9.14D-01 WtEn= 8.65D-02
 Coeff-Com:  0.871D-01 0.913D+00
 Coeff-En:   0.196D+00 0.804D+00
 Coeff:      0.965D-01 0.903D+00
 Gap=     0.443 Goal=   None    Shift=    0.000
 RMSDP=7.55D-04 MaxDP=1.45D-02 DE=-3.09D-02 OVMax= 1.03D-01

 Cycle   3  Pass 0  IDiag  1:
 E= -76.4217471528640     Delta-E=       -0.044029072255 Rises=F Damp=F
 DIIS: error= 1.30D-03 at cycle   3 NSaved=   3.
 NSaved= 3 IEnMin= 3 EnMin= -76.4217471528640     IErMin= 3 ErrMin= 1.30D-03
 ErrMax= 1.30D-03  0.00D+00 EMaxC= 1.00D-01 BMatC= 1.17D-04 BMatP= 4.99D-03
 IDIUse=3 WtCom= 9.87D-01 WtEn= 1.30D-02
 Coeff-Com: -0.233D-01 0.451D-01 0.978D+00
 Coeff-En:   0.000D+00 0.000D+00 0.100D+01
 Coeff:     -0.230D-01 0.445D-01 0.978D+00
 Gap=     0.445 Goal=   None    Shift=    0.000
 RMSDP=7.32D-05 MaxDP=1.13D-03 DE=-4.40D-02 OVMax= 3.60D-03

 Cycle   4  Pass 0  IDiag  1:
 E= -76.4218434511837     Delta-E=       -0.000096298320 Rises=F Damp=F
 DIIS: error= 2.01D-04 at cycle   4 NSaved=   4.
 NSaved= 4 IEnMin= 4 EnMin= -76.4218434511837     IErMin= 4 ErrMin= 2.01D-04
 ErrMax= 2.01D-04  0.00D+00 EMaxC= 1.00D-01 BMatC= 3.07D-06 BMatP= 1.17D-04
 IDIUse=3 WtCom= 9.98D-01 WtEn= 2.01D-03
 Coeff-Com: -0.257D-02-0.824D-03 0.158D+00 0.846D+00
 Coeff-En:   0.000D+00 0.000D+00 0.000D+00 0.100D+01
 Coeff:     -0.257D-02-0.823D-03 0.157D+00 0.846D+00
 Gap=     0.446 Goal=   None    Shift=    0.000
 RMSDP=1.67D-05 MaxDP=3.33D-04 DE=-9.63D-05 OVMax= 5.38D-04

 Cycle   5  Pass 0  IDiag  1:
 E= -76.4218453975569     Delta-E=       -0.000001946373 Rises=F Damp=F
 DIIS: error= 3.95D-05 at cycle   5 NSaved=   5.
 NSaved= 5 IEnMin= 5 EnMin= -76.4218453975569     IErMin= 5 ErrMin= 3.95D-05
 ErrMax= 3.95D-05  0.00D+00 EMaxC= 1.00D-01 BMatC= 8.30D-08 BMatP= 3.07D-06
 IDIUse=1 WtCom= 1.00D+00 WtEn= 0.00D+00
 Coeff-Com:  0.133D-02-0.205D-02-0.374D-01-0.604D-01 0.110D+01
 Coeff:      0.133D-02-0.205D-02-0.374D-01-0.604D-01 0.110D+01
 Gap=     0.446 Goal=   None    Shift=    0.000
 RMSDP=9.73D-06 MaxDP=1.19D-04 DE=-1.95D-06 OVMax= 2.18D-04

 Initial convergence to 1.0D-05 achieved.  Increase integral accuracy.
 Cycle   6  Pass 1  IDiag  1:
 E= -76.4218511193166     Delta-E=       -0.000005721760 Rises=F Damp=F
 DIIS: error= 1.28D-05 at cycle   1 NSaved=   1.
 NSaved= 1 IEnMin= 1 EnMin= -76.4218511193166     IErMin= 1 ErrMin= 1.28D-05
 ErrMax= 1.28D-05  0.00D+00 EMaxC= 1.00D-01 BMatC= 1.72D-08 BMatP= 1.72D-08
 IDIUse=1 WtCom= 1.00D+00 WtEn= 0.00D+00
 Coeff-Com:  0.100D+01
 Coeff:      0.100D+01
 Gap=     0.446 Goal=   None    Shift=    0.000
 RMSDP=9.73D-06 MaxDP=1.19D-04 DE=-5.72D-06 OVMax= 4.18D-05

 Cycle   7  Pass 1  IDiag  1:
 E= -76.4218511337236     Delta-E=       -0.000000014407 Rises=F Damp=F
 DIIS: error= 3.33D-06 at cycle   2 NSaved=   2.
 NSaved= 2 IEnMin= 2 EnMin= -76.4218511337236     IErMin= 2 ErrMin= 3.33D-06
 ErrMax= 3.33D-06  0.00D+00 EMaxC= 1.00D-01 BMatC= 6.24D-10 BMatP= 1.72D-08
 IDIUse=1 WtCom= 1.00D+00 WtEn= 0.00D+00
 Coeff-Com: -0.222D-01 0.102D+01
 Coeff:     -0.222D-01 0.102D+01
 Gap=     0.446 Goal=   None    Shift=    0.000
 RMSDP=4.38D-07 MaxDP=8.62D-06 DE=-1.44D-08 OVMax= 1.79D-05

 Cycle   8  Pass 1  IDiag  1:
 E= -76.4218511339931     Delta-E=       -0.000000000269 Rises=F Damp=F
 DIIS: error= 2.65D-06 at cycle   3 NSaved=   3.
 NSaved= 3 IEnMin= 3 EnMin= -76.4218511339931     IErMin= 3 ErrMin= 2.65D-06
 ErrMax= 2.65D-06  0.00D+00 EMaxC= 1.00D-01 BMatC= 6.18D-10 BMatP= 6.24D-10
 IDIUse=1 WtCom= 1.00D+00 WtEn= 0.00D+00
 Coeff-Com: -0.491D-01 0.529D+00 0.520D+00
 Coeff:     -0.491D-01 0.529D+00 0.520D+00
 Gap=     0.446 Goal=   None    Shift=    0.000
 RMSDP=1.57D-07 MaxDP=3.95D-06 DE=-2.69D-10 OVMax= 6.96D-06

 Cycle   9  Pass 1  IDiag  1:
 E= -76.4218511344039     Delta-E=       -0.000000000411 Rises=F Damp=F
 DIIS: error= 3.43D-07 at cycle   4 NSaved=   4.
 NSaved= 4 IEnMin= 4 EnMin= -76.4218511344039     IErMin= 4 ErrMin= 3.43D-07
 ErrMax= 3.43D-07  0.00D+00 EMaxC= 1.00D-01 BMatC= 6.82D-12 BMatP= 6.18D-10
 IDIUse=1 WtCom= 1.00D+00 WtEn= 0.00D+00
 Coeff-Com:  0.353D-02-0.865D-01 0.618D-02 0.108D+01
 Coeff:      0.353D-02-0.865D-01 0.618D-02 0.108D+01
 Gap=     0.446 Goal=   None    Shift=    0.000
 RMSDP=6.48D-08 MaxDP=6.85D-07 DE=-4.11D-10 OVMax= 2.23D-06

 Cycle  10  Pass 1  IDiag  1:
 E= -76.4218511344155     Delta-E=       -0.000000000012 Rises=F Damp=F
 DIIS: error= 8.64D-08 at cycle   5 NSaved=   5.
 NSaved= 5 IEnMin= 5 EnMin= -76.4218511344155     IErMin= 5 ErrMin= 8.64D-08
 ErrMax= 8.64D-08  0.00D+00 EMaxC= 1.00D-01 BMatC= 3.70D-13 BMatP= 6.82D-12
 IDIUse=1 WtCom= 1.00D+00 WtEn= 0.00D+00
 Coeff-Com:  0.356D-02-0.490D-01-0.343D-01 0.189D+00 0.891D+00
 Coeff:      0.356D-02-0.490D-01-0.343D-01 0.189D+00 0.891D+00
 Gap=     0.446 Goal=   None    Shift=    0.000
 RMSDP=1.20D-08 MaxDP=1.83D-07 DE=-1.16D-11 OVMax= 4.54D-07

 Cycle  11  Pass 1  IDiag  1:
 E= -76.4218511344160     Delta-E=       -0.000000000001 Rises=F Damp=F
 DIIS: error= 8.97D-09 at cycle   6 NSaved=   6.
 NSaved= 6 IEnMin= 6 EnMin= -76.4218511344160     IErMin= 6 ErrMin= 8.97D-09
 ErrMax= 8.97D-09  0.00D+00 EMaxC= 1.00D-01 BMatC= 5.93D-15 BMatP= 3.70D-13
 IDIUse=1 WtCom= 1.00D+00 WtEn= 0.00D+00
 Coeff-Com:  0.812D-05 0.154D-02-0.240D-02-0.295D-01-0.109D-01 0.104D+01
 Coeff:      0.812D-05 0.154D-02-0.240D-02-0.295D-01-0.109D-01 0.104D+01
 Gap=     0.446 Goal=   None    Shift=    0.000
 RMSDP=2.58D-09 MaxDP=4.39D-08 DE=-5.54D-13 OVMax= 9.79D-08

 SCF Done:  E(RM062X) =  -76.4218511344     A.U. after   11 cycles
            NFock= 11  Conv=0.26D-08     -V/T= 2.0033
 KE= 7.617417620160D+01 PE=-1.989527218276D+02 EE= 3.729960152680D+01
 Leave Link  502 at Sun Feb 19 22:19:17 2023, MaxMem=  6710886400 cpu:              20.6 elap:               0.9
 (Enter /data0/home/software/g16/l601.exe)
 Copying SCF densities to generalized density rwf, IOpCl= 0 IROHF=0.

 **********************************************************************

            Population analysis using the SCF density.

 **********************************************************************

 Alpha  occ. eigenvalues --  -19.62736  -1.13145  -0.60479  -0.47520  -0.39975
 Alpha virt. eigenvalues --    0.04595   0.09595   0.12581   0.14723   0.16331
 Alpha virt. eigenvalues --    0.17815   0.19826   0.20997   0.24105   0.27956
 Alpha virt. eigenvalues --    0.33542   0.36953   0.50550   0.54270   0.59250
 Alpha virt. eigenvalues --    0.74234   0.75433   0.86376   0.95793   0.98635
 Alpha virt. eigenvalues --    1.01465   1.05584   1.10944   1.19151   1.22638
 Alpha virt. eigenvalues --    1.39801   1.57441   1.68998   1.74908   1.75904
 Alpha virt. eigenvalues --    1.79651   1.81999   1.89389   2.04829   2.09605
 Alpha virt. eigenvalues --    2.13824   2.24498   2.36683   2.41622   2.48187
 Alpha virt. eigenvalues --    2.51995   2.53466   2.57290   2.63875   2.66079
 Alpha virt. eigenvalues --    2.79806   2.83467   2.92379   2.97408   3.08559
 Alpha virt. eigenvalues --    3.45232   3.62597   4.54056   5.09863   5.13351
 Alpha virt. eigenvalues --    5.51020   5.90998   6.79886   6.84337   6.91233
 Alpha virt. eigenvalues --    6.98755   7.11224   9.69697   9.76771   9.81810
 Alpha virt. eigenvalues --    9.85934  10.01083  12.78719  13.15013  13.68364
 Alpha virt. eigenvalues --   17.65313  49.98159 136.03303
          Condensed to atoms (all electrons):
               1          2          3          4          5          6
     1  O    7.958715   0.327811   0.331207   0.041252   0.001404  -0.078200
     2  H    0.327811   0.418425  -0.027027  -0.000985  -0.000119   0.001040
     3  H    0.331207  -0.027027   0.420965  -0.000714  -0.000190   0.001380
     4  O    0.041252  -0.000985  -0.000714   0.017081   0.000131  -0.025170
     5  H    0.001404  -0.000119  -0.000190   0.000131   0.000179  -0.000462
     6  H   -0.078200   0.001040   0.001380  -0.025170  -0.000462   0.041916
 Mulliken charges:
               1
     1  O   -0.582191
     2  H    0.280854
     3  H    0.274379
     4  O   -0.031595
     5  H   -0.000942
     6  H    0.059495
 Sum of Mulliken charges =  -0.00000
 Mulliken charges with hydrogens summed into heavy atoms:
               1
     1  O   -0.026958
     4  O    0.026958
         Mulliken charges condensed to fragments:
      1     -0.026958
      2      0.026958
 Electronic spatial extent (au):  <R**2>=          15357.0232
 Charge=             -0.0000 electrons
 Dipole moment (field-independent basis, Debye):
    X=             -0.1055    Y=             -1.3947    Z=              1.5274  Tot=              2.0710
 Quadrupole moment (field-independent basis, Debye-Ang):
   XX=             -7.6374   YY=            -39.9689   ZZ=             24.4646
   XY=            -19.4187   XZ=             20.3949   YZ=              3.2946
 Traceless Quadrupole moment (field-independent basis, Debye-Ang):
   XX=              0.0765   YY=            -32.2550   ZZ=             32.1785
   XY=            -19.4187   XZ=             20.3949   YZ=              3.2946
 Octapole moment (field-independent basis, Debye-Ang**2):
  XXX=           -253.2380  YYY=           -833.7489  ZZZ=            272.3899  XYY=           -539.8631
  XXY=           -327.4843  XXZ=            224.4381  XZZ=            336.3529  YZZ=            132.7939
  YYZ=           -206.7604  XYZ=             48.5180
 Hexadecapole moment (field-independent basis, Debye-Ang**3):
 XXXX=          -6368.8032 YYYY=         -15135.1272 ZZZZ=           2317.9854 XXXY=          -6096.3436
 XXXZ=           1680.9003 YYYX=         -11192.3019 YYYZ=          -6200.5050 ZZZX=           3821.9095
 ZZZY=           1561.2228 XXYY=          -7981.2831 XXZZ=           4142.6529 YYZZ=          -1006.5434
 XXYZ=            135.9975 YYXZ=          -2675.1787 ZZXY=           1932.8822
 N-N= 9.057092964808D+00 E-N=-1.989527215924D+02  KE= 7.617417620160D+01
 No NMR shielding tensors so no spin-rotation constants.
 Leave Link  601 at Sun Feb 19 22:19:17 2023, MaxMem=  6710886400 cpu:               1.8 elap:               0.1
 (Enter /data0/home/software/g16/l122.exe)
 CPIOFr:  IOpCl= 0 IRwI=-1 IRwCP=  731 ICalc=  1 LCPTot=       10496 Len1MO=       26312 IndFrg=       63120
 Counterpoise: doing calculation for fragment   2 using the basis set of the full-system, NewBq=T
 Leave Link  122 at Sun Feb 19 22:19:17 2023, MaxMem=  6710886400 cpu:               0.1 elap:               0.0
 (Enter /data0/home/software/g16/l301.exe)
 Basis read from rwf:  (5D, 7F)
 No pseudopotential information found on rwf file.
    78 basis functions,   116 primitive gaussians,    82 cartesian basis functions
     5 alpha electrons        5 beta electrons
       nuclear repulsion energy         9.1212468110 Hartrees.
 IExCor= 4336 DFT=T Ex+Corr=M062X ExCW=0 ScaHFX=  0.540000
 ScaDFX=  1.000000  1.000000  1.000000  1.000000 ScalE2=  1.000000  1.000000
 IRadAn=      5 IRanWt=     -1 IRanGd=            0 ICorTp=0 IEmpDi=131
 NAtoms=    6 NActive=    6 NUniq=    6 SFac= 1.00D+00 NAtFMM=   60 NAOKFM=F Big=F
 Integral buffers will be    131072 words long.
 Raffenetti 2 integral format.
 Two-electron integral symmetry is turned off.
 R6Disp:  Grimme-D3 Dispersion energy=       -0.0000000079 Hartrees.
 Nuclear repulsion after empirical dispersion term =        9.1212468031 Hartrees.
 No density basis found on file   718.
 Leave Link  301 at Sun Feb 19 22:19:17 2023, MaxMem=  6710886400 cpu:               1.2 elap:               0.1
 (Enter /data0/home/software/g16/l302.exe)
 NPDir=0 NMtPBC=     1 NCelOv=     1 NCel=       1 NClECP=     1 NCelD=      1
         NCelK=      1 NCelE2=     1 NClLst=     1 CellRange=     0.0.
 One-electron integrals computed using PRISM.
 NBasis=    78 RedAO= T EigKep=  1.74D-03  NBF=    78
 NBsUse=    78 1.00D-06 EigRej= -1.00D+00 NBFU=    78
 Precomputing XC quadrature grid using
 IXCGrd= 4 IRadAn=           5 IRanWt=          -1 IRanGd=           0 AccXCQ= 0.00D+00.
 Generated NRdTot=       0 NPtTot=           0 NUsed=           0 NTot=          32
 NSgBfM=    82    82    82    82    82 MxSgAt=     6 MxSgA2=     6.
 Leave Link  302 at Sun Feb 19 22:19:17 2023, MaxMem=  6710886400 cpu:               2.4 elap:               0.1
 (Enter /data0/home/software/g16/l303.exe)
 DipDrv:  MaxL=1.
 Leave Link  303 at Sun Feb 19 22:19:17 2023, MaxMem=  6710886400 cpu:               0.4 elap:               0.0
 (Enter /data0/home/software/g16/l401.exe)
 ExpMin= 8.45D-02 ExpMax= 8.59D+03 ExpMxC= 1.30D+03 IAcc=3 IRadAn=         5 AccDes= 0.00D+00
 Harris functional with IExCor= 1009 and IRadAn=       5 diagonalized for initial guess.
 HarFok:  IExCor= 1009 AccDes= 0.00D+00 IRadAn=         5 IDoV= 1 UseB2=F ITyADJ=14
 ICtDFT=  3500011 ScaDFX=  1.000000  1.000000  1.000000  1.000000
 FoFCou: FMM=F IPFlag=           0 FMFlag=      100000 FMFlg1=           0
         NFxFlg=           0 DoJE=T BraDBF=F KetDBF=T FulRan=T
         wScrn=  0.000000 ICntrl=       500 IOpCl=  0 I1Cent=   200000004 NGrid=           0
         NMat0=    1 NMatS0=      1 NMatT0=    0 NMatD0=    1 NMtDS0=    0 NMtDT0=    0
 Symmetry not used in FoFCou.
 Harris En= -76.4169855705205    
 JPrj=0 DoOrth=F DoCkMO=F.
 Leave Link  401 at Sun Feb 19 22:19:17 2023, MaxMem=  6710886400 cpu:               3.6 elap:               0.2
 (Enter /data0/home/software/g16/l502.exe)
 Keep R1 ints in memory in canonical form, NReq=26476721.
 FoFCou: FMM=F IPFlag=           0 FMFlag=           0 FMFlg1=           0
         NFxFlg=           0 DoJE=F BraDBF=F KetDBF=F FulRan=T
         wScrn=  0.000000 ICntrl=       600 IOpCl=  0 I1Cent=           0 NGrid=           0
         NMat0=    1 NMatS0=   3081 NMatT0=    0 NMatD0=    1 NMtDS0=    0 NMtDT0=    0
 Symmetry not used in FoFCou.
 Two-electron integral symmetry not used.
 Closed shell SCF:
 Using DIIS extrapolation, IDIIS=  1040.
 NGot=  6710886400 LenX=  6706122419 LenY=  6706115254
 Requested convergence on RMS density matrix=1.00D-08 within 128 cycles.
 Requested convergence on MAX density matrix=1.00D-06.
 Requested convergence on             energy=1.00D-06.
 No special actions if energy rises.
 Integral accuracy reduced to 1.0D-05 until final iterations.

 Cycle   1  Pass 0  IDiag  1:
 E= -76.3462086871652    
 DIIS: error= 4.30D-02 at cycle   1 NSaved=   1.
 NSaved= 1 IEnMin= 1 EnMin= -76.3462086871652     IErMin= 1 ErrMin= 4.30D-02
 ErrMax= 4.30D-02  0.00D+00 EMaxC= 1.00D-01 BMatC= 1.21D-01 BMatP= 1.21D-01
 IDIUse=3 WtCom= 5.70D-01 WtEn= 4.30D-01
 Coeff-Com:  0.100D+01
 Coeff-En:   0.100D+01
 Coeff:      0.100D+01
 Gap=     0.295 Goal=   None    Shift=    0.000
 GapD=    0.295 DampG=1.000 DampE=0.500 DampFc=0.5000 IDamp=-1.
 Damping current iteration by 5.00D-01
 RMSDP=4.40D-03 MaxDP=1.01D-01              OVMax= 1.70D-01

 Cycle   2  Pass 0  IDiag  1:
 E= -76.3777183406464     Delta-E=       -0.031509653481 Rises=F Damp=T
 DIIS: error= 7.19D-03 at cycle   2 NSaved=   2.
 NSaved= 2 IEnMin= 2 EnMin= -76.3777183406464     IErMin= 2 ErrMin= 7.19D-03
 ErrMax= 7.19D-03  0.00D+00 EMaxC= 1.00D-01 BMatC= 4.87D-03 BMatP= 1.21D-01
 IDIUse=3 WtCom= 9.28D-01 WtEn= 7.19D-02
 Coeff-Com:  0.825D-01 0.917D+00
 Coeff-En:   0.189D+00 0.811D+00
 Coeff:      0.902D-01 0.910D+00
 Gap=     0.423 Goal=   None    Shift=    0.000
 RMSDP=5.66D-04 MaxDP=1.42D-02 DE=-3.15D-02 OVMax= 1.02D-01

 Cycle   3  Pass 0  IDiag  1:
 E= -76.4219020083758     Delta-E=       -0.044183667729 Rises=F Damp=F
 DIIS: error= 1.37D-03 at cycle   3 NSaved=   3.
 NSaved= 3 IEnMin= 3 EnMin= -76.4219020083758     IErMin= 3 ErrMin= 1.37D-03
 ErrMax= 1.37D-03  0.00D+00 EMaxC= 1.00D-01 BMatC= 1.32D-04 BMatP= 4.87D-03
 IDIUse=3 WtCom= 9.86D-01 WtEn= 1.37D-02
 Coeff-Com: -0.252D-01 0.487D-01 0.977D+00
 Coeff-En:   0.000D+00 0.000D+00 0.100D+01
 Coeff:     -0.249D-01 0.480D-01 0.977D+00
 Gap=     0.425 Goal=   None    Shift=    0.000
 RMSDP=7.71D-05 MaxDP=1.11D-03 DE=-4.42D-02 OVMax= 3.71D-03

 Cycle   4  Pass 0  IDiag  1:
 E= -76.4220088598270     Delta-E=       -0.000106851451 Rises=F Damp=F
 DIIS: error= 2.41D-04 at cycle   4 NSaved=   4.
 NSaved= 4 IEnMin= 4 EnMin= -76.4220088598270     IErMin= 4 ErrMin= 2.41D-04
 ErrMax= 2.41D-04  0.00D+00 EMaxC= 1.00D-01 BMatC= 3.02D-06 BMatP= 1.32D-04
 IDIUse=3 WtCom= 9.98D-01 WtEn= 2.41D-03
 Coeff-Com: -0.284D-02-0.195D-03 0.157D+00 0.846D+00
 Coeff-En:   0.000D+00 0.000D+00 0.000D+00 0.100D+01
 Coeff:     -0.283D-02-0.195D-03 0.157D+00 0.846D+00
 Gap=     0.426 Goal=   None    Shift=    0.000
 RMSDP=1.17D-05 MaxDP=3.32D-04 DE=-1.07D-04 OVMax= 5.15D-04

 Cycle   5  Pass 0  IDiag  1:
 E= -76.4220107308221     Delta-E=       -0.000001870995 Rises=F Damp=F
 DIIS: error= 5.48D-05 at cycle   5 NSaved=   5.
 NSaved= 5 IEnMin= 5 EnMin= -76.4220107308221     IErMin= 5 ErrMin= 5.48D-05
 ErrMax= 5.48D-05  0.00D+00 EMaxC= 1.00D-01 BMatC= 8.01D-08 BMatP= 3.02D-06
 IDIUse=1 WtCom= 1.00D+00 WtEn= 0.00D+00
 Coeff-Com:  0.137D-02-0.213D-02-0.364D-01-0.624D-01 0.110D+01
 Coeff:      0.137D-02-0.213D-02-0.364D-01-0.624D-01 0.110D+01
 Gap=     0.426 Goal=   None    Shift=    0.000
 RMSDP=6.13D-06 MaxDP=9.79D-05 DE=-1.87D-06 OVMax= 2.03D-04

 Initial convergence to 1.0D-05 achieved.  Increase integral accuracy.
 Cycle   6  Pass 1  IDiag  1:
 E= -76.4220048766726     Delta-E=        0.000005854150 Rises=F Damp=F
 DIIS: error= 1.05D-05 at cycle   1 NSaved=   1.
 NSaved= 1 IEnMin= 1 EnMin= -76.4220048766726     IErMin= 1 ErrMin= 1.05D-05
 ErrMax= 1.05D-05  0.00D+00 EMaxC= 1.00D-01 BMatC= 1.59D-08 BMatP= 1.59D-08
 IDIUse=1 WtCom= 1.00D+00 WtEn= 0.00D+00
 Coeff-Com:  0.100D+01
 Coeff:      0.100D+01
 Gap=     0.426 Goal=   None    Shift=    0.000
 RMSDP=6.13D-06 MaxDP=9.79D-05 DE= 5.85D-06 OVMax= 4.83D-05

 Cycle   7  Pass 1  IDiag  1:
 E= -76.4220048912926     Delta-E=       -0.000000014620 Rises=F Damp=F
 DIIS: error= 5.48D-06 at cycle   2 NSaved=   2.
 NSaved= 2 IEnMin= 2 EnMin= -76.4220048912926     IErMin= 2 ErrMin= 5.48D-06
 ErrMax= 5.48D-06  0.00D+00 EMaxC= 1.00D-01 BMatC= 9.13D-10 BMatP= 1.59D-08
 IDIUse=1 WtCom= 1.00D+00 WtEn= 0.00D+00
 Coeff-Com:  0.153D-02 0.998D+00
 Coeff:      0.153D-02 0.998D+00
 Gap=     0.426 Goal=   None    Shift=    0.000
 RMSDP=5.32D-07 MaxDP=1.22D-05 DE=-1.46D-08 OVMax= 2.07D-05

 Cycle   8  Pass 1  IDiag  1:
 E= -76.4220048915924     Delta-E=       -0.000000000300 Rises=F Damp=F
 DIIS: error= 3.62D-06 at cycle   3 NSaved=   3.
 NSaved= 3 IEnMin= 3 EnMin= -76.4220048915924     IErMin= 3 ErrMin= 3.62D-06
 ErrMax= 3.62D-06  0.00D+00 EMaxC= 1.00D-01 BMatC= 9.57D-10 BMatP= 9.13D-10
 IDIUse=1 WtCom= 1.00D+00 WtEn= 0.00D+00
 Coeff-Com: -0.524D-01 0.535D+00 0.518D+00
 Coeff:     -0.524D-01 0.535D+00 0.518D+00
 Gap=     0.426 Goal=   None    Shift=    0.000
 RMSDP=1.81D-07 MaxDP=4.51D-06 DE=-3.00D-10 OVMax= 8.50D-06

 Cycle   9  Pass 1  IDiag  1:
 E= -76.4220048922273     Delta-E=       -0.000000000635 Rises=F Damp=F
 DIIS: error= 4.48D-07 at cycle   4 NSaved=   4.
 NSaved= 4 IEnMin= 4 EnMin= -76.4220048922273     IErMin= 4 ErrMin= 4.48D-07
 ErrMax= 4.48D-07  0.00D+00 EMaxC= 1.00D-01 BMatC= 5.59D-12 BMatP= 9.13D-10
 IDIUse=1 WtCom= 1.00D+00 WtEn= 0.00D+00
 Coeff-Com:  0.443D-02-0.988D-01-0.456D-01 0.114D+01
 Coeff:      0.443D-02-0.988D-01-0.456D-01 0.114D+01
 Gap=     0.426 Goal=   None    Shift=    0.000
 RMSDP=5.65D-08 MaxDP=6.31D-07 DE=-6.35D-10 OVMax= 1.99D-06

 Cycle  10  Pass 1  IDiag  1:
 E= -76.4220048922387     Delta-E=       -0.000000000011 Rises=F Damp=F
 DIIS: error= 6.72D-08 at cycle   5 NSaved=   5.
 NSaved= 5 IEnMin= 5 EnMin= -76.4220048922387     IErMin= 5 ErrMin= 6.72D-08
 ErrMax= 6.72D-08  0.00D+00 EMaxC= 1.00D-01 BMatC= 3.19D-13 BMatP= 5.59D-12
 IDIUse=1 WtCom= 1.00D+00 WtEn= 0.00D+00
 Coeff-Com:  0.314D-02-0.432D-01-0.314D-01 0.215D+00 0.856D+00
 Coeff:      0.314D-02-0.432D-01-0.314D-01 0.215D+00 0.856D+00
 Gap=     0.426 Goal=   None    Shift=    0.000
 RMSDP=1.08D-08 MaxDP=1.41D-07 DE=-1.14D-11 OVMax= 3.97D-07

 Cycle  11  Pass 1  IDiag  1:
 E= -76.4220048922390     Delta-E=       -0.000000000000 Rises=F Damp=F
 DIIS: error= 9.36D-09 at cycle   6 NSaved=   6.
 NSaved= 6 IEnMin= 6 EnMin= -76.4220048922390     IErMin= 6 ErrMin= 9.36D-09
 ErrMax= 9.36D-09  0.00D+00 EMaxC= 1.00D-01 BMatC= 5.45D-15 BMatP= 3.19D-13
 IDIUse=1 WtCom= 1.00D+00 WtEn= 0.00D+00
 Coeff-Com:  0.852D-04 0.538D-03-0.115D-04-0.299D-01-0.683D-02 0.104D+01
 Coeff:      0.852D-04 0.538D-03-0.115D-04-0.299D-01-0.683D-02 0.104D+01
 Gap=     0.426 Goal=   None    Shift=    0.000
 RMSDP=2.32D-09 MaxDP=3.63D-08 DE=-3.69D-13 OVMax= 8.76D-08

 SCF Done:  E(RM062X) =  -76.4220048922     A.U. after   11 cycles
            NFock= 11  Conv=0.23D-08     -V/T= 2.0029
 KE= 7.619875723049D+01 PE=-1.990940044979D+02 EE= 3.735199557207D+01
 Leave Link  502 at Sun Feb 19 22:19:18 2023, MaxMem=  6710886400 cpu:              18.2 elap:               0.8
 (Enter /data0/home/software/g16/l601.exe)
 Copying SCF densities to generalized density rwf, IOpCl= 0 IROHF=0.

 **********************************************************************

            Population analysis using the SCF density.

 **********************************************************************

 Alpha  occ. eigenvalues --  -19.62561  -1.13387  -0.61007  -0.47381  -0.39992
 Alpha virt. eigenvalues --    0.02590   0.09447   0.12426   0.12817   0.16078
 Alpha virt. eigenvalues --    0.18244   0.20831   0.21831   0.24011   0.25513
 Alpha virt. eigenvalues --    0.29336   0.35765   0.51353   0.54807   0.61483
 Alpha virt. eigenvalues --    0.70143   0.71081   0.81974   0.93052   1.01324
 Alpha virt. eigenvalues --    1.03131   1.06436   1.07577   1.20918   1.21675
 Alpha virt. eigenvalues --    1.33307   1.39571   1.68427   1.71635   1.72597
 Alpha virt. eigenvalues --    1.74736   1.81838   1.99474   2.09015   2.09709
 Alpha virt. eigenvalues --    2.19592   2.30591   2.36093   2.39497   2.42131
 Alpha virt. eigenvalues --    2.53354   2.54608   2.57816   2.60245   2.63212
 Alpha virt. eigenvalues --    2.68746   2.87879   2.91768   3.00895   3.19728
 Alpha virt. eigenvalues --    3.46682   3.49392   4.43116   5.03298   5.06474
 Alpha virt. eigenvalues --    5.49194   5.97954   6.78418   6.80674   6.89342
 Alpha virt. eigenvalues --    6.92336   7.12650   9.76783   9.81448   9.91551
 Alpha virt. eigenvalues --    9.93659  10.07947  12.86570  13.20033  13.64919
 Alpha virt. eigenvalues --   17.61284  49.98906 135.73059
          Condensed to atoms (all electrons):
               1          2          3          4          5          6
     1  O    0.018823  -0.005693  -0.008874   0.020732   0.001394   0.005301
     2  H   -0.005693   0.002472   0.002178  -0.003269  -0.000262  -0.000060
     3  H   -0.008874   0.002178   0.005376  -0.003130  -0.000683  -0.000985
     4  O    0.020732  -0.003269  -0.003130   7.985768   0.308994   0.293112
     5  H    0.001394  -0.000262  -0.000683   0.308994   0.436663  -0.021919
     6  H    0.005301  -0.000060  -0.000985   0.293112  -0.021919   0.377224
 Mulliken charges:
               1
     1  O   -0.031683
     2  H    0.004633
     3  H    0.006118
     4  O   -0.602207
     5  H    0.275813
     6  H    0.347326
 Sum of Mulliken charges =  -0.00000
 Mulliken charges with hydrogens summed into heavy atoms:
               1
     1  O   -0.020932
     4  O    0.020932
         Mulliken charges condensed to fragments:
      1     -0.020932
      2      0.020932
 Electronic spatial extent (au):  <R**2>=          12699.6368
 Charge=             -0.0000 electrons
 Dipole moment (field-independent basis, Debye):
    X=              1.7300    Y=              0.7438    Z=              0.8658  Tot=              2.0726
 Quadrupole moment (field-independent basis, Debye-Ang):
   XX=             41.2971   YY=              8.7788   ZZ=              7.6414
   XY=             27.9247   XZ=             24.3863   YZ=             16.1653
 Traceless Quadrupole moment (field-independent basis, Debye-Ang):
   XX=             22.0580   YY=            -10.4603   ZZ=            -11.5977
   XY=             27.9247   XZ=             24.3863   YZ=             16.1653
 Octapole moment (field-independent basis, Debye-Ang**2):
  XXX=            726.5352  YYY=             30.4520  ZZZ=             22.4357  XYY=            302.8710
  XXY=            561.2058  XXZ=            458.1096  XZZ=            195.8216  YZZ=            145.6895
  YYZ=            191.4542  XYZ=            349.5584
 Hexadecapole moment (field-independent basis, Debye-Ang**3):
 XXXX=          11093.8460 YYYY=          -1091.6335 ZZZZ=           -453.4268 XXXY=           9289.3068
 XXXZ=           7348.8246 YYYX=           2305.8637 YYYZ=           1685.7631 ZZZX=            974.5167
 ZZZY=            829.2321 XXYY=           5970.3047 XXZZ=           3557.9468 YYZZ=           1810.9305
 XXYZ=           6042.4414 YYXZ=           3938.8489 ZZXY=           2925.5614
 N-N= 9.121246803074D+00 E-N=-1.990940046237D+02  KE= 7.619875723049D+01
 No NMR shielding tensors so no spin-rotation constants.
 Leave Link  601 at Sun Feb 19 22:19:18 2023, MaxMem=  6710886400 cpu:               1.8 elap:               0.1
 (Enter /data0/home/software/g16/l122.exe)
 CPIOFr:  IOpCl= 0 IRwI=-1 IRwCP=  731 ICalc=  2 LCPTot=       10496 Len1MO=       26312 IndFrg=       89432
 Counterpoise: doing calculation for fragment   1 using the basis set of the fragment.
 Leave Link  122 at Sun Feb 19 22:19:18 2023, MaxMem=  6710886400 cpu:               0.1 elap:               0.0
 (Enter /data0/home/software/g16/l301.exe)
 Basis read from rwf:  (5D, 7F)
 No pseudopotential information found on rwf file.
    39 basis functions,    58 primitive gaussians,    41 cartesian basis functions
     5 alpha electrons        5 beta electrons
       nuclear repulsion energy         9.0570929728 Hartrees.
 IExCor= 4336 DFT=T Ex+Corr=M062X ExCW=0 ScaHFX=  0.540000
 ScaDFX=  1.000000  1.000000  1.000000  1.000000 ScalE2=  1.000000  1.000000
 IRadAn=      5 IRanWt=     -1 IRanGd=            0 ICorTp=0 IEmpDi=131
 NAtoms=    6 NActive=    3 NUniq=    3 SFac= 1.00D+00 NAtFMM=   60 NAOKFM=F Big=F
 Integral buffers will be    131072 words long.
 Raffenetti 2 integral format.
 Two-electron integral symmetry is turned off.
 R6Disp:  Grimme-D3 Dispersion energy=       -0.0000000080 Hartrees.
 Nuclear repulsion after empirical dispersion term =        9.0570929648 Hartrees.
 No density basis found on file   718.
 Leave Link  301 at Sun Feb 19 22:19:18 2023, MaxMem=  6710886400 cpu:               1.3 elap:               0.1
 (Enter /data0/home/software/g16/l302.exe)
 NPDir=0 NMtPBC=     1 NCelOv=     1 NCel=       1 NClECP=     1 NCelD=      1
         NCelK=      1 NCelE2=     1 NClLst=     1 CellRange=     0.0.
 One-electron integrals computed using PRISM.
 NBasis=    39 RedAO= T EigKep=  3.09D-03  NBF=    39
 NBsUse=    39 1.00D-06 EigRej= -1.00D+00 NBFU=    39
 Precomputing XC quadrature grid using
 IXCGrd= 4 IRadAn=           5 IRanWt=          -1 IRanGd=           0 AccXCQ= 0.00D+00.
 Generated NRdTot=       0 NPtTot=           0 NUsed=           0 NTot=          32
 NSgBfM=    41    41    41    41    41 MxSgAt=     3 MxSgA2=     3.
 Leave Link  302 at Sun Feb 19 22:19:18 2023, MaxMem=  6710886400 cpu:               2.2 elap:               0.1
 (Enter /data0/home/software/g16/l303.exe)
 DipDrv:  MaxL=1.
 Leave Link  303 at Sun Feb 19 22:19:18 2023, MaxMem=  6710886400 cpu:               0.4 elap:               0.0
 (Enter /data0/home/software/g16/l401.exe)
 ExpMin= 8.45D-02 ExpMax= 8.59D+03 ExpMxC= 1.30D+03 IAcc=3 IRadAn=         5 AccDes= 0.00D+00
 Harris functional with IExCor= 1009 and IRadAn=       5 diagonalized for initial guess.
 HarFok:  IExCor= 1009 AccDes= 0.00D+00 IRadAn=         5 IDoV= 1 UseB2=F ITyADJ=14
 ICtDFT=  3500011 ScaDFX=  1.000000  1.000000  1.000000  1.000000
 FoFCou: FMM=F IPFlag=           0 FMFlag=      100000 FMFlg1=           0
         NFxFlg=           0 DoJE=T BraDBF=F KetDBF=T FulRan=T
         wScrn=  0.000000 ICntrl=       500 IOpCl=  0 I1Cent=   200000004 NGrid=           0
         NMat0=    1 NMatS0=      1 NMatT0=    0 NMatD0=    1 NMtDS0=    0 NMtDT0=    0
 Symmetry not used in FoFCou.
 Harris En= -76.4157060545592    
 JPrj=0 DoOrth=F DoCkMO=F.
 Leave Link  401 at Sun Feb 19 22:19:18 2023, MaxMem=  6710886400 cpu:               2.9 elap:               0.1
 (Enter /data0/home/software/g16/l502.exe)
 Keep R1 ints in memory in canonical form, NReq=21036027.
 FoFCou: FMM=F IPFlag=           0 FMFlag=           0 FMFlg1=           0
         NFxFlg=           0 DoJE=F BraDBF=F KetDBF=F FulRan=T
         wScrn=  0.000000 ICntrl=       600 IOpCl=  0 I1Cent=           0 NGrid=           0
         NMat0=    1 NMatS0=    780 NMatT0=    0 NMatD0=    1 NMtDS0=    0 NMtDT0=    0
 Symmetry not used in FoFCou.
 Two-electron integral symmetry not used.
 Closed shell SCF:
 Using DIIS extrapolation, IDIIS=  1040.
 NGot=  6710886400 LenX=  6710576925 LenY=  6710574803
 Requested convergence on RMS density matrix=1.00D-08 within 128 cycles.
 Requested convergence on MAX density matrix=1.00D-06.
 Requested convergence on             energy=1.00D-06.
 No special actions if energy rises.
 Integral accuracy reduced to 1.0D-05 until final iterations.

 Cycle   1  Pass 0  IDiag  1:
 E= -76.3461198941615    
 DIIS: error= 6.97D-02 at cycle   1 NSaved=   1.
 NSaved= 1 IEnMin= 1 EnMin= -76.3461198941615     IErMin= 1 ErrMin= 6.97D-02
 ErrMax= 6.97D-02  0.00D+00 EMaxC= 1.00D-01 BMatC= 1.20D-01 BMatP= 1.20D-01
 IDIUse=3 WtCom= 3.03D-01 WtEn= 6.97D-01
 Coeff-Com:  0.100D+01
 Coeff-En:   0.100D+01
 Coeff:      0.100D+01
 Gap=     0.324 Goal=   None    Shift=    0.000
 GapD=    0.324 DampG=1.000 DampE=0.500 DampFc=0.5000 IDamp=-1.
 Damping current iteration by 5.00D-01
 RMSDP=7.92D-03 MaxDP=1.00D-01              OVMax= 1.68D-01

 Cycle   2  Pass 0  IDiag  1:
 E= -76.3772239711268     Delta-E=       -0.031104076965 Rises=F Damp=T
 DIIS: error= 1.11D-02 at cycle   2 NSaved=   2.
 NSaved= 2 IEnMin= 2 EnMin= -76.3772239711268     IErMin= 2 ErrMin= 1.11D-02
 ErrMax= 1.11D-02  0.00D+00 EMaxC= 1.00D-01 BMatC= 4.91D-03 BMatP= 1.20D-01
 IDIUse=3 WtCom= 8.89D-01 WtEn= 1.11D-01
 Coeff-Com:  0.848D-01 0.915D+00
 Coeff-En:   0.191D+00 0.809D+00
 Coeff:      0.966D-01 0.903D+00
 Gap=     0.456 Goal=   None    Shift=    0.000
 RMSDP=9.54D-04 MaxDP=1.42D-02 DE=-3.11D-02 OVMax= 1.00D-01

 Cycle   3  Pass 0  IDiag  1:
 E= -76.4210923153951     Delta-E=       -0.043868344268 Rises=F Damp=F
 DIIS: error= 2.20D-03 at cycle   3 NSaved=   3.
 NSaved= 3 IEnMin= 3 EnMin= -76.4210923153951     IErMin= 3 ErrMin= 2.20D-03
 ErrMax= 2.20D-03  0.00D+00 EMaxC= 1.00D-01 BMatC= 9.41D-05 BMatP= 4.91D-03
 IDIUse=3 WtCom= 9.78D-01 WtEn= 2.20D-02
 Coeff-Com: -0.201D-01 0.408D-01 0.979D+00
 Coeff-En:   0.000D+00 0.000D+00 0.100D+01
 Coeff:     -0.197D-01 0.399D-01 0.980D+00
 Gap=     0.460 Goal=   None    Shift=    0.000
 RMSDP=1.16D-04 MaxDP=1.03D-03 DE=-4.39D-02 OVMax= 3.37D-03

 Cycle   4  Pass 0  IDiag  1:
 E= -76.4211724788791     Delta-E=       -0.000080163484 Rises=F Damp=F
 DIIS: error= 4.22D-04 at cycle   4 NSaved=   4.
 NSaved= 4 IEnMin= 4 EnMin= -76.4211724788791     IErMin= 4 ErrMin= 4.22D-04
 ErrMax= 4.22D-04  0.00D+00 EMaxC= 1.00D-01 BMatC= 3.43D-06 BMatP= 9.41D-05
 IDIUse=3 WtCom= 9.96D-01 WtEn= 4.22D-03
 Coeff-Com: -0.203D-02-0.214D-02 0.165D+00 0.839D+00
 Coeff-En:   0.000D+00 0.000D+00 0.000D+00 0.100D+01
 Coeff:     -0.202D-02-0.213D-02 0.164D+00 0.840D+00
 Gap=     0.461 Goal=   None    Shift=    0.000
 RMSDP=2.25D-05 MaxDP=3.57D-04 DE=-8.02D-05 OVMax= 5.46D-04

 Cycle   5  Pass 0  IDiag  1:
 E= -76.4211745972635     Delta-E=       -0.000002118384 Rises=F Damp=F
 DIIS: error= 9.18D-05 at cycle   5 NSaved=   5.
 NSaved= 5 IEnMin= 5 EnMin= -76.4211745972635     IErMin= 5 ErrMin= 9.18D-05
 ErrMax= 9.18D-05  0.00D+00 EMaxC= 1.00D-01 BMatC= 8.70D-08 BMatP= 3.43D-06
 IDIUse=1 WtCom= 1.00D+00 WtEn= 0.00D+00
 Coeff-Com:  0.120D-02-0.184D-02-0.372D-01-0.699D-01 0.111D+01
 Coeff:      0.120D-02-0.184D-02-0.372D-01-0.699D-01 0.111D+01
 Gap=     0.461 Goal=   None    Shift=    0.000
 RMSDP=9.20D-06 MaxDP=1.04D-04 DE=-2.12D-06 OVMax= 2.10D-04

 Initial convergence to 1.0D-05 achieved.  Increase integral accuracy.
 Cycle   6  Pass 1  IDiag  1:
 E= -76.4211798041191     Delta-E=       -0.000005206856 Rises=F Damp=F
 DIIS: error= 3.29D-05 at cycle   1 NSaved=   1.
 NSaved= 1 IEnMin= 1 EnMin= -76.4211798041191     IErMin= 1 ErrMin= 3.29D-05
 ErrMax= 3.29D-05  0.00D+00 EMaxC= 1.00D-01 BMatC= 1.69D-08 BMatP= 1.69D-08
 IDIUse=1 WtCom= 1.00D+00 WtEn= 0.00D+00
 Coeff-Com:  0.100D+01
 Coeff:      0.100D+01
 Gap=     0.461 Goal=   None    Shift=    0.000
 RMSDP=9.20D-06 MaxDP=1.04D-04 DE=-5.21D-06 OVMax= 4.16D-05

 Cycle   7  Pass 1  IDiag  1:
 E= -76.4211798179719     Delta-E=       -0.000000013853 Rises=F Damp=F
 DIIS: error= 6.77D-06 at cycle   2 NSaved=   2.
 NSaved= 2 IEnMin= 2 EnMin= -76.4211798179719     IErMin= 2 ErrMin= 6.77D-06
 ErrMax= 6.77D-06  0.00D+00 EMaxC= 1.00D-01 BMatC= 6.52D-10 BMatP= 1.69D-08
 IDIUse=1 WtCom= 1.00D+00 WtEn= 0.00D+00
 Coeff-Com: -0.228D-01 0.102D+01
 Coeff:     -0.228D-01 0.102D+01
 Gap=     0.461 Goal=   None    Shift=    0.000
 RMSDP=6.13D-07 MaxDP=9.68D-06 DE=-1.39D-08 OVMax= 1.70D-05

 Cycle   8  Pass 1  IDiag  1:
 E= -76.4211798181972     Delta-E=       -0.000000000225 Rises=F Damp=F
 DIIS: error= 5.15D-06 at cycle   3 NSaved=   3.
 NSaved= 3 IEnMin= 3 EnMin= -76.4211798181972     IErMin= 3 ErrMin= 5.15D-06
 ErrMax= 5.15D-06  0.00D+00 EMaxC= 1.00D-01 BMatC= 6.76D-10 BMatP= 6.52D-10
 IDIUse=1 WtCom= 1.00D+00 WtEn= 0.00D+00
 Coeff-Com: -0.505D-01 0.538D+00 0.513D+00
 Coeff:     -0.505D-01 0.538D+00 0.513D+00
 Gap=     0.461 Goal=   None    Shift=    0.000
 RMSDP=3.02D-07 MaxDP=4.02D-06 DE=-2.25D-10 OVMax= 7.09D-06

 Cycle   9  Pass 1  IDiag  1:
 E= -76.4211798186469     Delta-E=       -0.000000000450 Rises=F Damp=F
 DIIS: error= 6.49D-07 at cycle   4 NSaved=   4.
 NSaved= 4 IEnMin= 4 EnMin= -76.4211798186469     IErMin= 4 ErrMin= 6.49D-07
 ErrMax= 6.49D-07  0.00D+00 EMaxC= 1.00D-01 BMatC= 5.19D-12 BMatP= 6.52D-10
 IDIUse=1 WtCom= 1.00D+00 WtEn= 0.00D+00
 Coeff-Com:  0.847D-02-0.135D+00-0.487D-01 0.118D+01
 Coeff:      0.847D-02-0.135D+00-0.487D-01 0.118D+01
 Gap=     0.461 Goal=   None    Shift=    0.000
 RMSDP=9.60D-08 MaxDP=8.37D-07 DE=-4.50D-10 OVMax= 2.20D-06

 Cycle  10  Pass 1  IDiag  1:
 E= -76.4211798186571     Delta-E=       -0.000000000010 Rises=F Damp=F
 DIIS: error= 7.99D-08 at cycle   5 NSaved=   5.
 NSaved= 5 IEnMin= 5 EnMin= -76.4211798186571     IErMin= 5 ErrMin= 7.99D-08
 ErrMax= 7.99D-08  0.00D+00 EMaxC= 1.00D-01 BMatC= 2.13D-13 BMatP= 5.19D-12
 IDIUse=1 WtCom= 1.00D+00 WtEn= 0.00D+00
 Coeff-Com:  0.357D-02-0.464D-01-0.327D-01 0.204D+00 0.872D+00
 Coeff:      0.357D-02-0.464D-01-0.327D-01 0.204D+00 0.872D+00
 Gap=     0.461 Goal=   None    Shift=    0.000
 RMSDP=1.65D-08 MaxDP=1.49D-07 DE=-1.02D-11 OVMax= 3.36D-07

 Cycle  11  Pass 1  IDiag  1:
 E= -76.4211798186572     Delta-E=       -0.000000000000 Rises=F Damp=F
 DIIS: error= 1.30D-08 at cycle   6 NSaved=   6.
 NSaved= 6 IEnMin= 6 EnMin= -76.4211798186572     IErMin= 6 ErrMin= 1.30D-08
 ErrMax= 1.30D-08  0.00D+00 EMaxC= 1.00D-01 BMatC= 4.78D-15 BMatP= 2.13D-13
 IDIUse=1 WtCom= 1.00D+00 WtEn= 0.00D+00
 Coeff-Com: -0.116D-03 0.288D-02-0.819D-03-0.365D-01 0.230D-01 0.101D+01
 Coeff:     -0.116D-03 0.288D-02-0.819D-03-0.365D-01 0.230D-01 0.101D+01
 Gap=     0.461 Goal=   None    Shift=    0.000
 RMSDP=4.02D-09 MaxDP=3.90D-08 DE=-1.28D-13 OVMax= 8.60D-08

 SCF Done:  E(RM062X) =  -76.4211798187     A.U. after   11 cycles
            NFock= 11  Conv=0.40D-08     -V/T= 2.0032
 KE= 7.617888521785D+01 PE=-1.989579689550D+02 EE= 3.730081095373D+01
 Leave Link  502 at Sun Feb 19 22:19:19 2023, MaxMem=  6710886400 cpu:               8.8 elap:               0.4
 (Enter /data0/home/software/g16/l601.exe)
 Copying SCF densities to generalized density rwf, IOpCl= 0 IROHF=0.

 **********************************************************************

            Population analysis using the SCF density.

 **********************************************************************

 Alpha  occ. eigenvalues --  -19.62690  -1.13150  -0.60481  -0.47488  -0.39948
 Alpha virt. eigenvalues --    0.06139   0.13241   0.17419   0.17952   0.18927
 Alpha virt. eigenvalues --    0.23348   0.50260   0.53552   0.97993   1.00419
 Alpha virt. eigenvalues --    1.06011   1.18266   1.19843   1.32225   1.34153
 Alpha virt. eigenvalues --    1.69510   1.73782   1.75493   2.06564   2.09696
 Alpha virt. eigenvalues --    2.35570   2.40618   2.54367   2.87231   3.00886
 Alpha virt. eigenvalues --    5.05630   5.47212   5.90425   6.78347   6.80219
 Alpha virt. eigenvalues --    6.87263   6.91376   7.09911  49.95333
          Condensed to atoms (all electrons):
               1          2          3
     1  O    7.920946   0.315200   0.321110
     2  H    0.315200   0.427439  -0.023901
     3  H    0.321110  -0.023901   0.426796
 Mulliken charges:
               1
     1  O   -0.557256
     2  H    0.281262
     3  H    0.275994
     4  O    0.000000
     5  H    0.000000
     6  H    0.000000
 Sum of Mulliken charges =  -0.00000
 Mulliken charges with hydrogens summed into heavy atoms:
               1
     1  O   -0.000000
     4  O    0.000000
         Mulliken charges condensed to fragments:
      1     -0.000000
      2      0.000000
 Electronic spatial extent (au):  <R**2>=          15356.1464
 Charge=             -0.0000 electrons
 Dipole moment (field-independent basis, Debye):
    X=             -0.0815    Y=             -1.4189    Z=              1.5801  Tot=              2.1252
 Quadrupole moment (field-independent basis, Debye-Ang):
   XX=             -6.9724   YY=            -40.5021   ZZ=             25.5121
   XY=            -19.4651   XZ=             21.3561   YZ=              3.6774
 Traceless Quadrupole moment (field-independent basis, Debye-Ang):
   XX=              0.3484   YY=            -33.1813   ZZ=             32.8329
   XY=            -19.4651   XZ=             21.3561   YZ=              3.6774
 Octapole moment (field-independent basis, Debye-Ang**2):
  XXX=           -239.4029  YYY=           -842.6217  ZZZ=            288.0972  XYY=           -543.7434
  XXY=           -324.1746  XXZ=            240.9506  XZZ=            353.0800  YZZ=            142.8060
  YYZ=           -204.6417  XYZ=             56.5990
 Hexadecapole moment (field-independent basis, Debye-Ang**3):
 XXXX=          -6112.1265 YYYY=         -15267.3805 ZZZZ=           2528.5533 XXXY=          -5995.8994
 XXXZ=           1954.2918 YYYX=         -11272.2867 YYYZ=          -6199.9268 ZZZX=           4060.6340
 ZZZY=           1723.5979 XXYY=          -7987.4717 XXZZ=           4405.0922 YYZZ=           -911.4852
 XXYZ=            286.0108 YYXZ=          -2612.1338 ZZXY=           2098.1840
 N-N= 9.057092964808D+00 E-N=-1.989579687860D+02  KE= 7.617888521785D+01
 No NMR shielding tensors so no spin-rotation constants.
 Leave Link  601 at Sun Feb 19 22:19:19 2023, MaxMem=  6710886400 cpu:               1.7 elap:               0.1
 (Enter /data0/home/software/g16/l122.exe)
 CPIOFr:  IOpCl= 0 IRwI=-1 IRwCP=  731 ICalc=  3 LCPTot=       10496 Len1MO=       26312 IndFrg=      115744
 Counterpoise: doing calculation for fragment   2 using the basis set of the fragment.
 Leave Link  122 at Sun Feb 19 22:19:19 2023, MaxMem=  6710886400 cpu:               0.1 elap:               0.0
 (Enter /data0/home/software/g16/l301.exe)
 Basis read from rwf:  (5D, 7F)
 No pseudopotential information found on rwf file.
    39 basis functions,    58 primitive gaussians,    41 cartesian basis functions
     5 alpha electrons        5 beta electrons
       nuclear repulsion energy         9.1212468110 Hartrees.
 IExCor= 4336 DFT=T Ex+Corr=M062X ExCW=0 ScaHFX=  0.540000
 ScaDFX=  1.000000  1.000000  1.000000  1.000000 ScalE2=  1.000000  1.000000
 IRadAn=      5 IRanWt=     -1 IRanGd=            0 ICorTp=0 IEmpDi=131
 NAtoms=    6 NActive=    3 NUniq=    3 SFac= 1.00D+00 NAtFMM=   60 NAOKFM=F Big=F
 Integral buffers will be    131072 words long.
 Raffenetti 2 integral format.
 Two-electron integral symmetry is turned off.
 R6Disp:  Grimme-D3 Dispersion energy=       -0.0000000079 Hartrees.
 Nuclear repulsion after empirical dispersion term =        9.1212468031 Hartrees.
 No density basis found on file   718.
 Leave Link  301 at Sun Feb 19 22:19:19 2023, MaxMem=  6710886400 cpu:               1.3 elap:               0.1
 (Enter /data0/home/software/g16/l302.exe)
 NPDir=0 NMtPBC=     1 NCelOv=     1 NCel=       1 NClECP=     1 NCelD=      1
         NCelK=      1 NCelE2=     1 NClLst=     1 CellRange=     0.0.
 One-electron integrals computed using PRISM.
 NBasis=    39 RedAO= T EigKep=  3.06D-03  NBF=    39
 NBsUse=    39 1.00D-06 EigRej= -1.00D+00 NBFU=    39
 Precomputing XC quadrature grid using
 IXCGrd= 4 IRadAn=           5 IRanWt=          -1 IRanGd=           0 AccXCQ= 0.00D+00.
 Generated NRdTot=       0 NPtTot=           0 NUsed=           0 NTot=          32
 NSgBfM=    41    41    41    41    41 MxSgAt=     3 MxSgA2=     3.
 Leave Link  302 at Sun Feb 19 22:19:19 2023, MaxMem=  6710886400 cpu:               2.3 elap:               0.1
 (Enter /data0/home/software/g16/l303.exe)
 DipDrv:  MaxL=1.
 Leave Link  303 at Sun Feb 19 22:19:19 2023, MaxMem=  6710886400 cpu:               0.4 elap:               0.0
 (Enter /data0/home/software/g16/l401.exe)
 ExpMin= 8.45D-02 ExpMax= 8.59D+03 ExpMxC= 1.30D+03 IAcc=3 IRadAn=         5 AccDes= 0.00D+00
 Harris functional with IExCor= 1009 and IRadAn=       5 diagonalized for initial guess.
 HarFok:  IExCor= 1009 AccDes= 0.00D+00 IRadAn=         5 IDoV= 1 UseB2=F ITyADJ=14
 ICtDFT=  3500011 ScaDFX=  1.000000  1.000000  1.000000  1.000000
 FoFCou: FMM=F IPFlag=           0 FMFlag=      100000 FMFlg1=           0
         NFxFlg=           0 DoJE=T BraDBF=F KetDBF=T FulRan=T
         wScrn=  0.000000 ICntrl=       500 IOpCl=  0 I1Cent=   200000004 NGrid=           0
         NMat0=    1 NMatS0=      1 NMatT0=    0 NMatD0=    1 NMtDS0=    0 NMtDT0=    0
 Symmetry not used in FoFCou.
 Harris En= -76.4167477813238    
 JPrj=0 DoOrth=F DoCkMO=F.
 Leave Link  401 at Sun Feb 19 22:19:19 2023, MaxMem=  6710886400 cpu:               2.9 elap:               0.1
 (Enter /data0/home/software/g16/l502.exe)
 Keep R1 ints in memory in canonical form, NReq=21036027.
 FoFCou: FMM=F IPFlag=           0 FMFlag=           0 FMFlg1=           0
         NFxFlg=           0 DoJE=F BraDBF=F KetDBF=F FulRan=T
         wScrn=  0.000000 ICntrl=       600 IOpCl=  0 I1Cent=           0 NGrid=           0
         NMat0=    1 NMatS0=    780 NMatT0=    0 NMatD0=    1 NMtDS0=    0 NMtDT0=    0
 Symmetry not used in FoFCou.
 Two-electron integral symmetry not used.
 Closed shell SCF:
 Using DIIS extrapolation, IDIIS=  1040.
 NGot=  6710886400 LenX=  6710576925 LenY=  6710574803
 Requested convergence on RMS density matrix=1.00D-08 within 128 cycles.
 Requested convergence on MAX density matrix=1.00D-06.
 Requested convergence on             energy=1.00D-06.
 No special actions if energy rises.
 Integral accuracy reduced to 1.0D-05 until final iterations.

 Cycle   1  Pass 0  IDiag  1:
 E= -76.3459377751133    
 DIIS: error= 7.05D-02 at cycle   1 NSaved=   1.
 NSaved= 1 IEnMin= 1 EnMin= -76.3459377751133     IErMin= 1 ErrMin= 7.05D-02
 ErrMax= 7.05D-02  0.00D+00 EMaxC= 1.00D-01 BMatC= 1.21D-01 BMatP= 1.21D-01
 IDIUse=3 WtCom= 2.95D-01 WtEn= 7.05D-01
 Coeff-Com:  0.100D+01
 Coeff-En:   0.100D+01
 Coeff:      0.100D+01
 Gap=     0.325 Goal=   None    Shift=    0.000
 GapD=    0.325 DampG=1.000 DampE=0.500 DampFc=0.5000 IDamp=-1.
 Damping current iteration by 5.00D-01
 RMSDP=7.87D-03 MaxDP=1.01D-01              OVMax= 1.69D-01

 Cycle   2  Pass 0  IDiag  1:
 E= -76.3775995169060     Delta-E=       -0.031661741793 Rises=F Damp=T
 DIIS: error= 1.15D-02 at cycle   2 NSaved=   2.
 NSaved= 2 IEnMin= 2 EnMin= -76.3775995169060     IErMin= 2 ErrMin= 1.15D-02
 ErrMax= 1.15D-02  0.00D+00 EMaxC= 1.00D-01 BMatC= 4.81D-03 BMatP= 1.21D-01
 IDIUse=3 WtCom= 8.85D-01 WtEn= 1.15D-01
 Coeff-Com:  0.811D-01 0.919D+00
 Coeff-En:   0.186D+00 0.814D+00
 Coeff:      0.931D-01 0.907D+00
 Gap=     0.458 Goal=   None    Shift=    0.000
 RMSDP=9.34D-04 MaxDP=1.38D-02 DE=-3.17D-02 OVMax= 1.01D-01

 Cycle   3  Pass 0  IDiag  1:
 E= -76.4216671438639     Delta-E=       -0.044067626958 Rises=F Damp=F
 DIIS: error= 2.18D-03 at cycle   3 NSaved=   3.
 NSaved= 3 IEnMin= 3 EnMin= -76.4216671438639     IErMin= 3 ErrMin= 2.18D-03
 ErrMax= 2.18D-03  0.00D+00 EMaxC= 1.00D-01 BMatC= 9.17D-05 BMatP= 4.81D-03
 IDIUse=3 WtCom= 9.78D-01 WtEn= 2.18D-02
 Coeff-Com: -0.200D-01 0.399D-01 0.980D+00
 Coeff-En:   0.000D+00 0.000D+00 0.100D+01
 Coeff:     -0.196D-01 0.390D-01 0.981D+00
 Gap=     0.462 Goal=   None    Shift=    0.000
 RMSDP=1.15D-04 MaxDP=9.64D-04 DE=-4.41D-02 OVMax= 3.30D-03

 Cycle   4  Pass 0  IDiag  1:
 E= -76.4217450401012     Delta-E=       -0.000077896237 Rises=F Damp=F
 DIIS: error= 4.11D-04 at cycle   4 NSaved=   4.
 NSaved= 4 IEnMin= 4 EnMin= -76.4217450401012     IErMin= 4 ErrMin= 4.11D-04
 ErrMax= 4.11D-04  0.00D+00 EMaxC= 1.00D-01 BMatC= 3.30D-06 BMatP= 9.17D-05
 IDIUse=3 WtCom= 9.96D-01 WtEn= 4.11D-03
 Coeff-Com: -0.192D-02-0.212D-02 0.164D+00 0.840D+00
 Coeff-En:   0.000D+00 0.000D+00 0.000D+00 0.100D+01
 Coeff:     -0.191D-02-0.211D-02 0.163D+00 0.841D+00
 Gap=     0.463 Goal=   None    Shift=    0.000
 RMSDP=2.20D-05 MaxDP=3.52D-04 DE=-7.79D-05 OVMax= 5.29D-04

 Cycle   5  Pass 0  IDiag  1:
 E= -76.4217470645060     Delta-E=       -0.000002024405 Rises=F Damp=F
 DIIS: error= 8.86D-05 at cycle   5 NSaved=   5.
 NSaved= 5 IEnMin= 5 EnMin= -76.4217470645060     IErMin= 5 ErrMin= 8.86D-05
 ErrMax= 8.86D-05  0.00D+00 EMaxC= 1.00D-01 BMatC= 8.26D-08 BMatP= 3.30D-06
 IDIUse=1 WtCom= 1.00D+00 WtEn= 0.00D+00
 Coeff-Com:  0.117D-02-0.178D-02-0.362D-01-0.672D-01 0.110D+01
 Coeff:      0.117D-02-0.178D-02-0.362D-01-0.672D-01 0.110D+01
 Gap=     0.463 Goal=   None    Shift=    0.000
 RMSDP=8.94D-06 MaxDP=1.03D-04 DE=-2.02D-06 OVMax= 2.00D-04

 Initial convergence to 1.0D-05 achieved.  Increase integral accuracy.
 Cycle   6  Pass 1  IDiag  1:
 E= -76.4217412520178     Delta-E=        0.000005812488 Rises=F Damp=F
 DIIS: error= 1.85D-05 at cycle   1 NSaved=   1.
 NSaved= 1 IEnMin= 1 EnMin= -76.4217412520178     IErMin= 1 ErrMin= 1.85D-05
 ErrMax= 1.85D-05  0.00D+00 EMaxC= 1.00D-01 BMatC= 1.54D-08 BMatP= 1.54D-08
 IDIUse=1 WtCom= 1.00D+00 WtEn= 0.00D+00
 Coeff-Com:  0.100D+01
 Coeff:      0.100D+01
 Gap=     0.463 Goal=   None    Shift=    0.000
 RMSDP=8.94D-06 MaxDP=1.03D-04 DE= 5.81D-06 OVMax= 4.76D-05

 Cycle   7  Pass 1  IDiag  1:
 E= -76.4217412660719     Delta-E=       -0.000000014054 Rises=F Damp=F
 DIIS: error= 9.11D-06 at cycle   2 NSaved=   2.
 NSaved= 2 IEnMin= 2 EnMin= -76.4217412660719     IErMin= 2 ErrMin= 9.11D-06
 ErrMax= 9.11D-06  0.00D+00 EMaxC= 1.00D-01 BMatC= 1.07D-09 BMatP= 1.54D-08
 IDIUse=1 WtCom= 1.00D+00 WtEn= 0.00D+00
 Coeff-Com:  0.237D-01 0.976D+00
 Coeff:      0.237D-01 0.976D+00
 Gap=     0.463 Goal=   None    Shift=    0.000
 RMSDP=8.24D-07 MaxDP=1.30D-05 DE=-1.41D-08 OVMax= 2.09D-05

 Cycle   8  Pass 1  IDiag  1:
 E= -76.4217412663526     Delta-E=       -0.000000000281 Rises=F Damp=F
 DIIS: error= 6.47D-06 at cycle   3 NSaved=   3.
 NSaved= 3 IEnMin= 3 EnMin= -76.4217412663526     IErMin= 3 ErrMin= 6.47D-06
 ErrMax= 6.47D-06  0.00D+00 EMaxC= 1.00D-01 BMatC= 1.09D-09 BMatP= 1.07D-09
 IDIUse=1 WtCom= 1.00D+00 WtEn= 0.00D+00
 Coeff-Com: -0.527D-01 0.526D+00 0.527D+00
 Coeff:     -0.527D-01 0.526D+00 0.527D+00
 Gap=     0.463 Goal=   None    Shift=    0.000
 RMSDP=3.73D-07 MaxDP=4.77D-06 DE=-2.81D-10 OVMax= 8.97D-06

 Cycle   9  Pass 1  IDiag  1:
 E= -76.4217412670722     Delta-E=       -0.000000000720 Rises=F Damp=F
 DIIS: error= 6.14D-07 at cycle   4 NSaved=   4.
 NSaved= 4 IEnMin= 4 EnMin= -76.4217412670722     IErMin= 4 ErrMin= 6.14D-07
 ErrMax= 6.14D-07  0.00D+00 EMaxC= 1.00D-01 BMatC= 4.96D-12 BMatP= 1.07D-09
 IDIUse=1 WtCom= 1.00D+00 WtEn= 0.00D+00
 Coeff-Com:  0.475D-02-0.978D-01-0.557D-01 0.115D+01
 Coeff:      0.475D-02-0.978D-01-0.557D-01 0.115D+01
 Gap=     0.463 Goal=   None    Shift=    0.000
 RMSDP=1.03D-07 MaxDP=6.04D-07 DE=-7.20D-10 OVMax= 1.89D-06

 Cycle  10  Pass 1  IDiag  1:
 E= -76.4217412670827     Delta-E=       -0.000000000010 Rises=F Damp=F
 DIIS: error= 8.53D-08 at cycle   5 NSaved=   5.
 NSaved= 5 IEnMin= 5 EnMin= -76.4217412670827     IErMin= 5 ErrMin= 8.53D-08
 ErrMax= 8.53D-08  0.00D+00 EMaxC= 1.00D-01 BMatC= 2.73D-13 BMatP= 4.96D-12
 IDIUse=1 WtCom= 1.00D+00 WtEn= 0.00D+00
 Coeff-Com:  0.296D-02-0.396D-01-0.312D-01 0.203D+00 0.865D+00
 Coeff:      0.296D-02-0.396D-01-0.312D-01 0.203D+00 0.865D+00
 Gap=     0.463 Goal=   None    Shift=    0.000
 RMSDP=2.11D-08 MaxDP=1.31D-07 DE=-1.05D-11 OVMax= 3.65D-07

 Cycle  11  Pass 1  IDiag  1:
 E= -76.4217412670830     Delta-E=       -0.000000000000 Rises=F Damp=F
 DIIS: error= 1.30D-08 at cycle   6 NSaved=   6.
 NSaved= 6 IEnMin= 6 EnMin= -76.4217412670830     IErMin= 6 ErrMin= 1.30D-08
 ErrMax= 1.30D-08  0.00D+00 EMaxC= 1.00D-01 BMatC= 6.11D-15 BMatP= 2.73D-13
 IDIUse=1 WtCom= 1.00D+00 WtEn= 0.00D+00
 Coeff-Com:  0.113D-03 0.274D-03-0.258D-03-0.327D-01 0.516D-02 0.103D+01
 Coeff:      0.113D-03 0.274D-03-0.258D-03-0.327D-01 0.516D-02 0.103D+01
 Gap=     0.463 Goal=   None    Shift=    0.000
 RMSDP=4.99D-09 MaxDP=3.46D-08 DE=-3.13D-13 OVMax= 9.60D-08

 SCF Done:  E(RM062X) =  -76.4217412671     A.U. after   11 cycles
            NFock= 11  Conv=0.50D-08     -V/T= 2.0029
 KE= 7.620181501234D+01 PE=-1.990978007834D+02 EE= 3.735299770092D+01
 Leave Link  502 at Sun Feb 19 22:19:20 2023, MaxMem=  6710886400 cpu:               8.6 elap:               0.4
 (Enter /data0/home/software/g16/l601.exe)
 Copying SCF densities to generalized density rwf, IOpCl= 0 IROHF=0.

 **********************************************************************

            Population analysis using the SCF density.

 **********************************************************************

 Alpha  occ. eigenvalues --  -19.62533  -1.13382  -0.61003  -0.47366  -0.39980
 Alpha virt. eigenvalues --    0.06321   0.13350   0.17378   0.17949   0.18959
 Alpha virt. eigenvalues --    0.23198   0.51218   0.53646   0.97762   1.00208
 Alpha virt. eigenvalues --    1.06052   1.19122   1.19796   1.32718   1.33761
 Alpha virt. eigenvalues --    1.69270   1.74049   1.76053   2.07598   2.09626
 Alpha virt. eigenvalues --    2.34848   2.43307   2.54232   2.88834   3.01379
 Alpha virt. eigenvalues --    5.05718   5.47503   5.93972   6.78161   6.80366
 Alpha virt. eigenvalues --    6.86874   6.91531   7.09491  49.96128
          Condensed to atoms (all electrons):
               4          5          6
     4  O    7.913735   0.324507   0.320541
     5  H    0.324507   0.422666  -0.024768
     6  H    0.320541  -0.024768   0.423040
 Mulliken charges:
               1
     1  O    0.000000
     2  H    0.000000
     3  H    0.000000
     4  O   -0.558783
     5  H    0.277595
     6  H    0.281188
 Sum of Mulliken charges =  -0.00000
 Mulliken charges with hydrogens summed into heavy atoms:
               1
     1  O    0.000000
     4  O   -0.000000
         Mulliken charges condensed to fragments:
      1      0.000000
      2     -0.000000
 Electronic spatial extent (au):  <R**2>=          12698.7941
 Charge=             -0.0000 electrons
 Dipole moment (field-independent basis, Debye):
    X=              1.7449    Y=              0.7571    Z=              0.8928  Tot=              2.1012
 Quadrupole moment (field-independent basis, Debye-Ang):
   XX=             41.6939   YY=              9.0660   ZZ=              8.0908
   XY=             28.2680   XZ=             24.8744   YZ=             16.5697
 Traceless Quadrupole moment (field-independent basis, Debye-Ang):
   XX=             22.0770   YY=            -10.5509   ZZ=            -11.5261
   XY=             28.2680   XZ=             24.8744   YZ=             16.5697
 Octapole moment (field-independent basis, Debye-Ang**2):
  XXX=            734.5096  YYY=             35.1331  ZZZ=             28.1441  XYY=            308.5314
  XXY=            567.9956  XXZ=            466.3587  XZZ=            202.9363  YZZ=            151.4875
  YYZ=            197.0504  XYZ=            356.3675
 Hexadecapole moment (field-independent basis, Debye-Ang**3):
 XXXX=          11237.0335 YYYY=          -1022.9417 ZZZZ=           -387.8782 XXXY=           9410.0091
 XXXZ=           7482.8240 YYYX=           2388.7309 YYYZ=           1760.1140 ZZZX=           1060.6430
 ZZZY=            898.7776 XXYY=           6070.5638 XXZZ=           3668.3483 YYZZ=           1884.0952
 XXYZ=           6152.6511 YYXZ=           4029.2321 ZZXY=           3015.2920
 N-N= 9.121246803074D+00 E-N=-1.990978008973D+02  KE= 7.620181501234D+01
 No NMR shielding tensors so no spin-rotation constants.
 Leave Link  601 at Sun Feb 19 22:19:20 2023, MaxMem=  6710886400 cpu:               1.8 elap:               0.1
 (Enter /data0/home/software/g16/l122.exe)
 CPIOFr:  IOpCl= 0 IRwI=-1 IRwCP=  731 ICalc=  4 LCPTot=       10496 Len1MO=       26312 IndFrg=      142056
 Restoring MOs from calculation   1 to rwf.
 CPIOFr:  IOpCl= 0 IRwI=-2 IRwCP=  731 ICalc=  0 LCPTot=       10496 Len1MO=       26312 IndFrg=       36808
 Counterpoise corrected energy =    -152.849479043024
                   BSSE energy =       0.000934940915
              sum of fragments =    -152.842921085740
           complexation energy =      -4.70 kcal/mole (raw)
           complexation energy =      -4.12 kcal/mole (corrected)
 Leave Link  122 at Sun Feb 19 22:19:20 2023, MaxMem=  6710886400 cpu:               0.1 elap:               0.0
 (Enter /data0/home/software/g16/l9999.exe)
 1\1\GINC-LOCALHOST\SP\RM062X\6-311+G(2d,p)\H4O2\WUHANYU\19-Feb-2023\0\
 \#p M062X/6-311+G(2d,p) nosymm em=GD3 counterpoise=2\\Title Card Requi
 red\\0,1\O,0,13.605542,11.906612,10.136987\H,0,12.854946,11.319687,10.
 405361\H,0,14.298883,11.690803,10.75656\O,0,13.519432,10.490105,7.7154
 05\H,0,14.416565,10.359347,7.42085\H,0,13.592795,11.04723,8.51414\\Ver
 sion=ES64L-G16RevA.03\HF=-76.4217413\RMSD=4.988e-09\Dipole=0.6538549,-
 0.1360508,1.1978508\Quadrupole=12.4031402,-31.6367318,19.2335916,9.717
 934,40.1037805,21.7969091\PG=C01 [X(H4O2)]\\@


 A FOOL CAN ASK MORE QUESTIONS THAN
 A WISE MAN CAN ANSWER.
 Job cpu time:       0 days  0 hours  2 minutes  8.0 seconds.
 Elapsed time:       0 days  0 hours  0 minutes  6.2 seconds.
 File lengths (MBytes):  RWF=     10 Int=      0 D2E=      0 Chk=      3 Scr=      1
 Normal termination of Gaussian 16 at Sun Feb 19 22:19:20 2023.
