 Entering Gaussian System, Link 0=g16
 Initial command:
 /data0/home/software/g16/l1.exe "/data0/home/software/g16/scratch/Gau-367618.inp" -scrdir="/data0/home/software/g16/scratch/"
 Default is to use a total of  22 processors:
                               22 via shared-memory
                                1 via Linda
 Entering Link 1 = /data0/home/software/g16/l1.exe PID=    367619.
  
 Copyright (c) 1988,1990,1992,1993,1995,1998,2003,2009,2016,
            Gaussian, Inc.  All Rights Reserved.
  
 This is part of the Gaussian(R) 16 program.  It is based on
 the Gaussian(R) 09 system (copyright 2009, Gaussian, Inc.),
 the Gaussian(R) 03 system (copyright 2003, Gaussian, Inc.),
 the Gaussian(R) 98 system (copyright 1998, Gaussian, Inc.),
 the Gaussian(R) 94 system (copyright 1995, Gaussian, Inc.),
 the Gaussian 92(TM) system (copyright 1992, Gaussian, Inc.),
 the Gaussian 90(TM) system (copyright 1990, Gaussian, Inc.),
 the Gaussian 88(TM) system (copyright 1988, Gaussian, Inc.),
 the Gaussian 86(TM) system (copyright 1986, Carnegie Mellon
 University), and the Gaussian 82(TM) system (copyright 1983,
 Carnegie Mellon University). Gaussian is a federally registered
 trademark of Gaussian, Inc.
  
 This software contains proprietary and confidential information,
 including trade secrets, belonging to Gaussian, Inc.
  
 This software is provided under written license and may be
 used, copied, transmitted, or stored only in accord with that
 written license.
  
 The following legend is applicable only to US Government
 contracts under FAR:
  
                    RESTRICTED RIGHTS LEGEND
  
 Use, reproduction and disclosure by the US Government is
 subject to restrictions as set forth in subparagraphs (a)
 and (c) of the Commercial Computer Software - Restricted
 Rights clause in FAR 52.227-19.
  
 Gaussian, Inc.
 340 Quinnipiac St., Bldg. 40, Wallingford CT 06492
  
  
 ---------------------------------------------------------------
 Warning -- This program may not be used in any manner that
 competes with the business of Gaussian, Inc. or will provide
 assistance to any competitor of Gaussian, Inc.  The licensee
 of this program is prohibited from giving any competitor of
 Gaussian, Inc. access to this program.  By using this program,
 the user acknowledges that Gaussian, Inc. is engaged in the
 business of creating and licensing software in the field of
 computational chemistry and represents and warrants to the
 licensee that it is not a competitor of Gaussian, Inc. and that
 it will not use this program in any manner prohibited above.
 ---------------------------------------------------------------
  

 Cite this work as:
 Gaussian 16, Revision A.03,
 M. J. Frisch, G. W. Trucks, H. B. Schlegel, G. E. Scuseria, 
 M. A. Robb, J. R. Cheeseman, G. Scalmani, V. Barone, 
 G. A. Petersson, H. Nakatsuji, X. Li, M. Caricato, A. V. Marenich, 
 J. Bloino, B. G. Janesko, R. Gomperts, B. Mennucci, H. P. Hratchian, 
 J. V. Ortiz, A. F. Izmaylov, J. L. Sonnenberg, D. Williams-Young, 
 F. Ding, F. Lipparini, F. Egidi, J. Goings, B. Peng, A. Petrone, 
 T. Henderson, D. Ranasinghe, V. G. Zakrzewski, J. Gao, N. Rega, 
 G. Zheng, W. Liang, M. Hada, M. Ehara, K. Toyota, R. Fukuda, 
 J. Hasegawa, M. Ishida, T. Nakajima, Y. Honda, O. Kitao, H. Nakai, 
 T. Vreven, K. Throssell, J. A. Montgomery, Jr., J. E. Peralta, 
 F. Ogliaro, M. J. Bearpark, J. J. Heyd, E. N. Brothers, K. N. Kudin, 
 V. N. Staroverov, T. A. Keith, R. Kobayashi, J. Normand, 
 K. Raghavachari, A. P. Rendell, J. C. Burant, S. S. Iyengar, 
 J. Tomasi, M. Cossi, J. M. Millam, M. Klene, C. Adamo, R. Cammi, 
 J. W. Ochterski, R. L. Martin, K. Morokuma, O. Farkas, 
 J. B. Foresman, and D. J. Fox, Gaussian, Inc., Wallingford CT, 2016.
 
 ******************************************
 Gaussian 16:  ES64L-G16RevA.03 25-Dec-2016
                20-Feb-2023 
 ******************************************
 %nproc=24
 Will use up to   24 processors via shared memory.
 %mem=50GB
 ---------------------------------------------------
 #p M062X/6-311+G(2d,p) nosymm em=GD3 counterpoise=2
 ---------------------------------------------------
 1/38=1,62=2,172=1/1;
 2/12=2,15=1,17=6,18=5,40=1/2;
 1/38=1,53=2,62=2,63=1/22;
 3/5=4,6=6,7=112,11=2,25=1,30=1,74=-55,124=31/1,2,3;
 4//1;
 5/5=2,38=5/2;
 6/7=2,8=2,9=2,10=2,28=1/1;
 1/53=2,62=2,63=1/22;
 3/5=7,6=11,7=112,11=2,25=1,30=1,74=-55,82=7,124=31/1,2,3;
 4//1;
 5/5=2,38=5/2;
 6/7=2,8=2,9=2,10=2,28=1/1;
 1/53=2,62=2,63=1/22(-4);
 99/5=1,9=1/99;
 Leave Link    1 at Mon Feb 20 01:46:08 2023, MaxMem=  6710886400 cpu:               0.7 elap:               0.0
 (Enter /data0/home/software/g16/l101.exe)
 -------------------
 Title Card Required
 -------------------
 Symbolic Z-matrix:
 Charge =  0 Multiplicity = 1 in supermolecule
 Charge =  0 Multiplicity = 1 in fragment      1.
 Charge =  0 Multiplicity = 1 in fragment      2.
 O                     11.29774  -0.97046   17.6473    
 H                     12.10655  -0.47934   17.86651    
 H                     11.16106  -0.74962   16.72148    
 O                     11.66087   4.91775   19.63979    
 H                     12.23624   5.6706    19.60911    
 H                     12.12288   4.2137    19.10651    
 
 ITRead=  0  0  0  0  0  0
 MicOpt= -1 -1 -1 -1 -1 -1
 NAtoms=      6 NQM=        6 NQMF=       0 NMMI=      0 NMMIF=      0
                NMic=       0 NMicF=      0.
                    Isotopes and Nuclear Properties:
 (Nuclear quadrupole moments (NQMom) in fm**2, nuclear magnetic moments (NMagM)
  in nuclear magnetons)

  Atom         1           2           3           4           5           6
 IAtWgt=          16           1           1          16           1           1
 AtmWgt=  15.9949146   1.0078250   1.0078250  15.9949146   1.0078250   1.0078250
 NucSpn=           0           1           1           0           1           1
 AtZEff=  -0.0000000  -0.0000000  -0.0000000  -0.0000000  -0.0000000  -0.0000000
 NQMom=    0.0000000   0.0000000   0.0000000   0.0000000   0.0000000   0.0000000
 NMagM=    0.0000000   2.7928460   2.7928460   0.0000000   2.7928460   2.7928460
 AtZNuc=   8.0000000   1.0000000   1.0000000   8.0000000   1.0000000   1.0000000
 Leave Link  101 at Mon Feb 20 01:46:08 2023, MaxMem=  6710886400 cpu:               1.9 elap:               0.1
 (Enter /data0/home/software/g16/l202.exe)
                          Input orientation:                          
 ---------------------------------------------------------------------
 Center     Atomic      Atomic             Coordinates (Angstroms)
 Number     Number       Type             X           Y           Z
 ---------------------------------------------------------------------
      1          8           0       11.297737   -0.970458   17.647298
      2          1           0       12.106548   -0.479341   17.866512
      3          1           0       11.161057   -0.749618   16.721483
      4          8           0       11.660870    4.917753   19.639794
      5          1           0       12.236236    5.670599   19.609106
      6          1           0       12.122884    4.213697   19.106511
 ---------------------------------------------------------------------
                    Distance matrix (angstroms):
                    1          2          3          4          5
     1  O    0.000000
     2  H    0.971301   0.000000
     3  H    0.961554   1.509336   0.000000
     4  O    6.226792   5.698402   6.394173   0.000000
     5  H    6.988069   6.393373   7.121346   0.948032   0.000000
     6  H    5.448452   4.854119   5.589988   0.996766   1.545320
                    6
     6  H    0.000000
 Symmetry turned off by external request.
 Stoichiometry    H4O2
 Framework group  C1[X(H4O2)]
 Deg. of freedom    12
 Full point group                 C1      NOp   1
 Rotational constants (GHZ):         242.7838258           1.4515091           1.4508782
 Leave Link  202 at Mon Feb 20 01:46:09 2023, MaxMem=  6710886400 cpu:               0.1 elap:               0.0
 (Enter /data0/home/software/g16/l122.exe)
 Counterpoise: doing full-system calculation.
 Leave Link  122 at Mon Feb 20 01:46:09 2023, MaxMem=  6710886400 cpu:               0.0 elap:               0.0
 (Enter /data0/home/software/g16/l301.exe)
 Standard basis: 6-311+G(2d,p) (5D, 7F)
 Ernie: Thresh=  0.10000D-02 Tol=  0.10000D-05 Strict=F.
    78 basis functions,   116 primitive gaussians,    82 cartesian basis functions
    10 alpha electrons       10 beta electrons
       nuclear repulsion energy        26.7543799507 Hartrees.
 IExCor= 4336 DFT=T Ex+Corr=M062X ExCW=0 ScaHFX=  0.540000
 ScaDFX=  1.000000  1.000000  1.000000  1.000000 ScalE2=  1.000000  1.000000
 IRadAn=      5 IRanWt=     -1 IRanGd=            0 ICorTp=0 IEmpDi=131
 NAtoms=    6 NActive=    6 NUniq=    6 SFac= 1.00D+00 NAtFMM=   60 NAOKFM=F Big=F
 Integral buffers will be    131072 words long.
 Raffenetti 2 integral format.
 Two-electron integral symmetry is turned off.
 R6Disp:  Grimme-D3 Dispersion energy=       -0.0000231993 Hartrees.
 Nuclear repulsion after empirical dispersion term =       26.7543567514 Hartrees.
 Leave Link  301 at Mon Feb 20 01:46:09 2023, MaxMem=  6710886400 cpu:               1.1 elap:               0.1
 (Enter /data0/home/software/g16/l302.exe)
 NPDir=0 NMtPBC=     1 NCelOv=     1 NCel=       1 NClECP=     1 NCelD=      1
         NCelK=      1 NCelE2=     1 NClLst=     1 CellRange=     0.0.
 One-electron integrals computed using PRISM.
 NBasis=    78 RedAO= T EigKep=  2.93D-03  NBF=    78
 NBsUse=    78 1.00D-06 EigRej= -1.00D+00 NBFU=    78
 Precomputing XC quadrature grid using
 IXCGrd= 4 IRadAn=           5 IRanWt=          -1 IRanGd=           0 AccXCQ= 0.00D+00.
 Generated NRdTot=       0 NPtTot=           0 NUsed=           0 NTot=          32
 NSgBfM=    72    72    72    72    72 MxSgAt=     6 MxSgA2=     6.
 Leave Link  302 at Mon Feb 20 01:46:09 2023, MaxMem=  6710886400 cpu:               2.4 elap:               0.1
 (Enter /data0/home/software/g16/l303.exe)
 DipDrv:  MaxL=1.
 Leave Link  303 at Mon Feb 20 01:46:09 2023, MaxMem=  6710886400 cpu:               0.4 elap:               0.0
 (Enter /data0/home/software/g16/l401.exe)
 ExpMin= 8.45D-02 ExpMax= 8.59D+03 ExpMxC= 1.30D+03 IAcc=3 IRadAn=         5 AccDes= 0.00D+00
 Harris functional with IExCor= 1009 and IRadAn=       5 diagonalized for initial guess.
 HarFok:  IExCor= 1009 AccDes= 0.00D+00 IRadAn=         5 IDoV= 1 UseB2=F ITyADJ=14
 ICtDFT=  3500011 ScaDFX=  1.000000  1.000000  1.000000  1.000000
 FoFCou: FMM=F IPFlag=           0 FMFlag=      100000 FMFlg1=           0
         NFxFlg=           0 DoJE=T BraDBF=F KetDBF=T FulRan=T
         wScrn=  0.000000 ICntrl=       500 IOpCl=  0 I1Cent=   200000004 NGrid=           0
         NMat0=    1 NMatS0=      1 NMatT0=    0 NMatD0=    1 NMtDS0=    0 NMtDT0=    0
 Symmetry not used in FoFCou.
 Harris En= -152.831885398890    
 JPrj=0 DoOrth=F DoCkMO=F.
 Leave Link  401 at Mon Feb 20 01:46:09 2023, MaxMem=  6710886400 cpu:               3.4 elap:               0.2
 (Enter /data0/home/software/g16/l502.exe)
 Keep R1 ints in memory in canonical form, NReq=26476721.
 FoFCou: FMM=F IPFlag=           0 FMFlag=           0 FMFlg1=           0
         NFxFlg=           0 DoJE=F BraDBF=F KetDBF=F FulRan=T
         wScrn=  0.000000 ICntrl=       600 IOpCl=  0 I1Cent=           0 NGrid=           0
         NMat0=    1 NMatS0=   3081 NMatT0=    0 NMatD0=    1 NMtDS0=    0 NMtDT0=    0
 Symmetry not used in FoFCou.
 Two-electron integral symmetry not used.
 Closed shell SCF:
 Using DIIS extrapolation, IDIIS=  1040.
 NGot=  6710886400 LenX=  6706122419 LenY=  6706115254
 Requested convergence on RMS density matrix=1.00D-08 within 128 cycles.
 Requested convergence on MAX density matrix=1.00D-06.
 Requested convergence on             energy=1.00D-06.
 No special actions if energy rises.
 Integral accuracy reduced to 1.0D-05 until final iterations.

 Cycle   1  Pass 0  IDiag  1:
 E= -152.690767377250    
 DIIS: error= 6.95D-02 at cycle   1 NSaved=   1.
 NSaved= 1 IEnMin= 1 EnMin= -152.690767377250     IErMin= 1 ErrMin= 6.95D-02
 ErrMax= 6.95D-02  0.00D+00 EMaxC= 1.00D-01 BMatC= 2.41D-01 BMatP= 2.41D-01
 IDIUse=3 WtCom= 3.05D-01 WtEn= 6.95D-01
 Coeff-Com:  0.100D+01
 Coeff-En:   0.100D+01
 Coeff:      0.100D+01
 Gap=     0.315 Goal=   None    Shift=    0.000
 GapD=    0.315 DampG=1.000 DampE=0.500 DampFc=0.5000 IDamp=-1.
 Damping current iteration by 5.00D-01
 RMSDP=5.65D-03 MaxDP=1.01D-01              OVMax= 1.68D-01

 Cycle   2  Pass 0  IDiag  1:
 E= -152.753527153038     Delta-E=       -0.062759775788 Rises=F Damp=T
 DIIS: error= 1.06D-02 at cycle   2 NSaved=   2.
 NSaved= 2 IEnMin= 2 EnMin= -152.753527153038     IErMin= 2 ErrMin= 1.06D-02
 ErrMax= 1.06D-02  0.00D+00 EMaxC= 1.00D-01 BMatC= 9.79D-03 BMatP= 2.41D-01
 IDIUse=3 WtCom= 8.94D-01 WtEn= 1.06D-01
 Coeff-Com:  0.841D-01 0.916D+00
 Coeff-En:   0.190D+00 0.810D+00
 Coeff:      0.953D-01 0.905D+00
 Gap=     0.449 Goal=   None    Shift=    0.000
 RMSDP=6.83D-04 MaxDP=1.44D-02 DE=-6.28D-02 OVMax= 1.01D-01

 Cycle   3  Pass 0  IDiag  1:
 E= -152.841766372753     Delta-E=       -0.088239219715 Rises=F Damp=F
 DIIS: error= 2.33D-03 at cycle   3 NSaved=   3.
 NSaved= 3 IEnMin= 3 EnMin= -152.841766372753     IErMin= 3 ErrMin= 2.33D-03
 ErrMax= 2.33D-03  0.00D+00 EMaxC= 1.00D-01 BMatC= 1.96D-04 BMatP= 9.79D-03
 IDIUse=3 WtCom= 9.77D-01 WtEn= 2.33D-02
 Coeff-Com: -0.206D-01 0.415D-01 0.979D+00
 Coeff-En:   0.000D+00 0.000D+00 0.100D+01
 Coeff:     -0.201D-01 0.406D-01 0.980D+00
 Gap=     0.453 Goal=   None    Shift=    0.000
 RMSDP=8.46D-05 MaxDP=1.14D-03 DE=-8.82D-02 OVMax= 3.70D-03

 Cycle   4  Pass 0  IDiag  1:
 E= -152.841931874891     Delta-E=       -0.000165502138 Rises=F Damp=F
 DIIS: error= 5.91D-04 at cycle   4 NSaved=   4.
 NSaved= 4 IEnMin= 4 EnMin= -152.841931874891     IErMin= 4 ErrMin= 5.91D-04
 ErrMax= 5.91D-04  0.00D+00 EMaxC= 1.00D-01 BMatC= 8.02D-06 BMatP= 1.96D-04
 IDIUse=3 WtCom= 9.94D-01 WtEn= 5.91D-03
 Coeff-Com: -0.255D-02-0.110D-02 0.185D+00 0.818D+00
 Coeff-En:   0.000D+00 0.000D+00 0.000D+00 0.100D+01
 Coeff:     -0.254D-02-0.109D-02 0.184D+00 0.819D+00
 Gap=     0.454 Goal=   None    Shift=    0.000
 RMSDP=1.83D-05 MaxDP=5.65D-04 DE=-1.66D-04 OVMax= 8.08D-04

 Cycle   5  Pass 0  IDiag  1:
 E= -152.841936393716     Delta-E=       -0.000004518825 Rises=F Damp=F
 DIIS: error= 2.24D-04 at cycle   5 NSaved=   5.
 NSaved= 5 IEnMin= 5 EnMin= -152.841936393716     IErMin= 5 ErrMin= 2.24D-04
 ErrMax= 2.24D-04  0.00D+00 EMaxC= 1.00D-01 BMatC= 8.69D-07 BMatP= 8.02D-06
 IDIUse=3 WtCom= 9.98D-01 WtEn= 2.24D-03
 Coeff-Com:  0.618D-03-0.258D-02 0.511D-02 0.183D+00 0.814D+00
 Coeff-En:   0.000D+00 0.000D+00 0.000D+00 0.000D+00 0.100D+01
 Coeff:      0.616D-03-0.258D-02 0.510D-02 0.183D+00 0.814D+00
 Gap=     0.454 Goal=   None    Shift=    0.000
 RMSDP=8.96D-06 MaxDP=2.47D-04 DE=-4.52D-06 OVMax= 3.76D-04

 Initial convergence to 1.0D-05 achieved.  Increase integral accuracy.
 Cycle   6  Pass 1  IDiag  1:
 E= -152.841940125780     Delta-E=       -0.000003732064 Rises=F Damp=F
 DIIS: error= 1.14D-04 at cycle   1 NSaved=   1.
 NSaved= 1 IEnMin= 1 EnMin= -152.841940125780     IErMin= 1 ErrMin= 1.14D-04
 ErrMax= 1.14D-04  0.00D+00 EMaxC= 1.00D-01 BMatC= 3.98D-07 BMatP= 3.98D-07
 IDIUse=3 WtCom= 9.99D-01 WtEn= 1.14D-03
 Coeff-Com:  0.100D+01
 Coeff-En:   0.100D+01
 Coeff:      0.100D+01
 Gap=     0.454 Goal=   None    Shift=    0.000
 RMSDP=8.96D-06 MaxDP=2.47D-04 DE=-3.73D-06 OVMax= 2.54D-04

 Cycle   7  Pass 1  IDiag  1:
 E= -152.841940093311     Delta-E=        0.000000032469 Rises=F Damp=F
 DIIS: error= 1.10D-04 at cycle   2 NSaved=   2.
 NSaved= 2 IEnMin= 1 EnMin= -152.841940125780     IErMin= 2 ErrMin= 1.10D-04
 ErrMax= 1.10D-04  0.00D+00 EMaxC= 1.00D-01 BMatC= 4.97D-07 BMatP= 3.98D-07
 IDIUse=3 WtCom= 4.88D-01 WtEn= 5.12D-01
 Coeff-Com:  0.529D+00 0.471D+00
 Coeff-En:   0.528D+00 0.472D+00
 Coeff:      0.529D+00 0.471D+00
 Gap=     0.454 Goal=   None    Shift=    0.000
 RMSDP=3.74D-06 MaxDP=8.47D-05 DE= 3.25D-08 OVMax= 1.22D-04

 Cycle   8  Pass 1  IDiag  1:
 E= -152.841940412647     Delta-E=       -0.000000319336 Rises=F Damp=F
 DIIS: error= 8.50D-06 at cycle   3 NSaved=   3.
 NSaved= 3 IEnMin= 3 EnMin= -152.841940412647     IErMin= 3 ErrMin= 8.50D-06
 ErrMax= 8.50D-06  0.00D+00 EMaxC= 1.00D-01 BMatC= 1.24D-09 BMatP= 3.98D-07
 IDIUse=1 WtCom= 1.00D+00 WtEn= 0.00D+00
 Coeff-Com: -0.516D-01-0.547D-02 0.106D+01
 Coeff:     -0.516D-01-0.547D-02 0.106D+01
 Gap=     0.454 Goal=   None    Shift=    0.000
 RMSDP=4.45D-07 MaxDP=7.64D-06 DE=-3.19D-07 OVMax= 1.57D-05

 Cycle   9  Pass 1  IDiag  1:
 E= -152.841940414245     Delta-E=       -0.000000001599 Rises=F Damp=F
 DIIS: error= 9.24D-07 at cycle   4 NSaved=   4.
 NSaved= 4 IEnMin= 4 EnMin= -152.841940414245     IErMin= 4 ErrMin= 9.24D-07
 ErrMax= 9.24D-07  0.00D+00 EMaxC= 1.00D-01 BMatC= 3.85D-11 BMatP= 1.24D-09
 IDIUse=1 WtCom= 1.00D+00 WtEn= 0.00D+00
 Coeff-Com: -0.141D-01-0.823D-02 0.929D-01 0.929D+00
 Coeff:     -0.141D-01-0.823D-02 0.929D-01 0.929D+00
 Gap=     0.454 Goal=   None    Shift=    0.000
 RMSDP=9.25D-08 MaxDP=1.32D-06 DE=-1.60D-09 OVMax= 3.41D-06

 Cycle  10  Pass 1  IDiag  1:
 E= -152.841940414315     Delta-E=       -0.000000000070 Rises=F Damp=F
 DIIS: error= 4.74D-07 at cycle   5 NSaved=   5.
 NSaved= 5 IEnMin= 5 EnMin= -152.841940414315     IErMin= 5 ErrMin= 4.74D-07
 ErrMax= 4.74D-07  0.00D+00 EMaxC= 1.00D-01 BMatC= 4.01D-12 BMatP= 3.85D-11
 IDIUse=1 WtCom= 1.00D+00 WtEn= 0.00D+00
 Coeff-Com:  0.239D-02-0.201D-03-0.661D-01 0.429D-01 0.102D+01
 Coeff:      0.239D-02-0.201D-03-0.661D-01 0.429D-01 0.102D+01
 Gap=     0.454 Goal=   None    Shift=    0.000
 RMSDP=3.70D-08 MaxDP=5.36D-07 DE=-6.95D-11 OVMax= 1.43D-06

 Cycle  11  Pass 1  IDiag  1:
 E= -152.841940414320     Delta-E=       -0.000000000005 Rises=F Damp=F
 DIIS: error= 2.02D-07 at cycle   6 NSaved=   6.
 NSaved= 6 IEnMin= 6 EnMin= -152.841940414320     IErMin= 6 ErrMin= 2.02D-07
 ErrMax= 2.02D-07  0.00D+00 EMaxC= 1.00D-01 BMatC= 2.04D-12 BMatP= 4.01D-12
 IDIUse=1 WtCom= 1.00D+00 WtEn= 0.00D+00
 Coeff-Com:  0.214D-02 0.389D-03-0.406D-01-0.425D-01 0.550D+00 0.530D+00
 Coeff:      0.214D-02 0.389D-03-0.406D-01-0.425D-01 0.550D+00 0.530D+00
 Gap=     0.454 Goal=   None    Shift=    0.000
 RMSDP=9.48D-09 MaxDP=1.79D-07 DE=-4.89D-12 OVMax= 3.49D-07

 SCF Done:  E(RM062X) =  -152.841940414     A.U. after   11 cycles
            NFock= 11  Conv=0.95D-08     -V/T= 2.0030
 KE= 1.523787022149D+02 PE=-4.151663378899D+02 EE= 8.319133850923D+01
 Leave Link  502 at Mon Feb 20 01:46:10 2023, MaxMem=  6710886400 cpu:              17.1 elap:               0.8
 (Enter /data0/home/software/g16/l601.exe)
 Copying SCF densities to generalized density rwf, IOpCl= 0 IROHF=0.

 **********************************************************************

            Population analysis using the SCF density.

 **********************************************************************

 Alpha  occ. eigenvalues --  -19.62852 -19.62828  -1.13648  -1.13294  -0.60919
 Alpha  occ. eigenvalues --   -0.60673  -0.47953  -0.47446  -0.40185  -0.40124
 Alpha virt. eigenvalues --    0.05258   0.06369   0.12143   0.13622   0.16622
 Alpha virt. eigenvalues --    0.17315   0.17796   0.17882   0.18679   0.19577
 Alpha virt. eigenvalues --    0.22973   0.23907   0.48761   0.51705   0.53462
 Alpha virt. eigenvalues --    0.53923   0.97147   0.98211   1.00272   1.00338
 Alpha virt. eigenvalues --    1.05832   1.06234   1.17146   1.19055   1.19344
 Alpha virt. eigenvalues --    1.20099   1.31717   1.32471   1.33876   1.33953
 Alpha virt. eigenvalues --    1.68253   1.70595   1.73216   1.74374   1.75263
 Alpha virt. eigenvalues --    1.75825   2.05675   2.07350   2.09644   2.09933
 Alpha virt. eigenvalues --    2.34014   2.36341   2.39393   2.42736   2.53512
 Alpha virt. eigenvalues --    2.55176   2.86967   2.87947   3.00847   3.01689
 Alpha virt. eigenvalues --    5.05465   5.05597   5.45700   5.49255   5.91157
 Alpha virt. eigenvalues --    5.91446   6.77945   6.78364   6.79810   6.80220
 Alpha virt. eigenvalues --    6.86677   6.87150   6.91184   6.91593   7.09115
 Alpha virt. eigenvalues --    7.09874  49.95322  49.95583
          Condensed to atoms (all electrons):
               1          2          3          4          5          6
     1  O    7.914235   0.315846   0.318821  -0.000003   0.000001   0.000018
     2  H    0.315846   0.434363  -0.024200  -0.000001   0.000000   0.000003
     3  H    0.318821  -0.024200   0.430438  -0.000000   0.000000  -0.000000
     4  O   -0.000003  -0.000001  -0.000000   7.919286   0.324631   0.314628
     5  H    0.000001   0.000000   0.000000   0.324631   0.422729  -0.024468
     6  H    0.000018   0.000003  -0.000000   0.314628  -0.024468   0.428398
 Mulliken charges:
               1
     1  O   -0.548918
     2  H    0.273990
     3  H    0.274942
     4  O   -0.558541
     5  H    0.277107
     6  H    0.281421
 Sum of Mulliken charges =  -0.00000
 Mulliken charges with hydrogens summed into heavy atoms:
               1
     1  O    0.000013
     4  O   -0.000013
         Mulliken charges condensed to fragments:
      1      0.000013
      2     -0.000013
 Electronic spatial extent (au):  <R**2>=          35227.1639
 Charge=             -0.0000 electrons
 Dipole moment (field-independent basis, Debye):
    X=              3.0200    Y=              1.3733    Z=             -2.2431  Tot=              4.0048
 Quadrupole moment (field-independent basis, Debye-Ang):
   XX=             57.4106   YY=            -12.9051   ZZ=            -95.2690
   XY=             24.8211   XZ=             31.5204   YZ=             21.6109
 Traceless Quadrupole moment (field-independent basis, Debye-Ang):
   XX=             74.3318   YY=              4.0161   ZZ=            -78.3478
   XY=             24.8211   XZ=             31.5204   YZ=             21.6109
 Octapole moment (field-independent basis, Debye-Ang**2):
  XXX=            782.6224  YYY=            -37.2423  ZZZ=          -3001.7202  XYY=            -99.1514
  XXY=            367.6326  XXZ=            797.4912  XZZ=             -9.9086  YZZ=            290.5284
  YYZ=           -249.5898  XYZ=            422.1363
 Hexadecapole moment (field-independent basis, Debye-Ang**3):
 XXXX=           8800.3317 YYYY=           -676.0838 ZZZZ=         -83391.9731 XXXY=           4902.9283
 XXXZ=          11591.6950 YYYX=           -186.5650 YYYZ=           -827.6085 ZZZX=         -13996.3079
 ZZZY=           2488.0508 XXYY=           -719.0399 XXZZ=           8184.7920 YYZZ=          -5044.3200
 XXYZ=           6413.1398 YYXZ=          -1920.3409 ZZXY=           6672.6381
 N-N= 2.675435675142D+01 E-N=-4.151663258251D+02  KE= 1.523787022149D+02
 No NMR shielding tensors so no spin-rotation constants.
 Leave Link  601 at Mon Feb 20 01:46:10 2023, MaxMem=  6710886400 cpu:               1.8 elap:               0.1
 (Enter /data0/home/software/g16/l122.exe)
 CPIOFr:  IOpCl= 0 IRwI=-1 IRwCP=  731 ICalc= -1 LCPTot=       10496 Len1MO=       26312 IndFrg=       10496
 CPIOFr:  IOpCl= 0 IRwI=-1 IRwCP=  731 ICalc=  0 LCPTot=       10496 Len1MO=       26312 IndFrg=       36808
 Counterpoise: doing calculation for fragment   1 using the basis set of the full-system, NewBq=T
 Leave Link  122 at Mon Feb 20 01:46:10 2023, MaxMem=  6710886400 cpu:               0.1 elap:               0.0
 (Enter /data0/home/software/g16/l301.exe)
 Basis read from rwf:  (5D, 7F)
 No pseudopotential information found on rwf file.
    78 basis functions,   116 primitive gaussians,    82 cartesian basis functions
     5 alpha electrons        5 beta electrons
       nuclear repulsion energy         9.1117899226 Hartrees.
 IExCor= 4336 DFT=T Ex+Corr=M062X ExCW=0 ScaHFX=  0.540000
 ScaDFX=  1.000000  1.000000  1.000000  1.000000 ScalE2=  1.000000  1.000000
 IRadAn=      5 IRanWt=     -1 IRanGd=            0 ICorTp=0 IEmpDi=131
 NAtoms=    6 NActive=    6 NUniq=    6 SFac= 1.00D+00 NAtFMM=   60 NAOKFM=F Big=F
 Integral buffers will be    131072 words long.
 Raffenetti 2 integral format.
 Two-electron integral symmetry is turned off.
 R6Disp:  Grimme-D3 Dispersion energy=       -0.0000000071 Hartrees.
 Nuclear repulsion after empirical dispersion term =        9.1117899155 Hartrees.
 No density basis found on file   718.
 Leave Link  301 at Mon Feb 20 01:46:10 2023, MaxMem=  6710886400 cpu:               1.2 elap:               0.1
 (Enter /data0/home/software/g16/l302.exe)
 NPDir=0 NMtPBC=     1 NCelOv=     1 NCel=       1 NClECP=     1 NCelD=      1
         NCelK=      1 NCelE2=     1 NClLst=     1 CellRange=     0.0.
 One-electron integrals computed using PRISM.
 NBasis=    78 RedAO= T EigKep=  2.93D-03  NBF=    78
 NBsUse=    78 1.00D-06 EigRej= -1.00D+00 NBFU=    78
 Precomputing XC quadrature grid using
 IXCGrd= 4 IRadAn=           5 IRanWt=          -1 IRanGd=           0 AccXCQ= 0.00D+00.
 Generated NRdTot=       0 NPtTot=           0 NUsed=           0 NTot=          32
 NSgBfM=    72    72    72    72    72 MxSgAt=     6 MxSgA2=     6.
 Leave Link  302 at Mon Feb 20 01:46:10 2023, MaxMem=  6710886400 cpu:               2.4 elap:               0.1
 (Enter /data0/home/software/g16/l303.exe)
 DipDrv:  MaxL=1.
 Leave Link  303 at Mon Feb 20 01:46:10 2023, MaxMem=  6710886400 cpu:               0.4 elap:               0.0
 (Enter /data0/home/software/g16/l401.exe)
 ExpMin= 8.45D-02 ExpMax= 8.59D+03 ExpMxC= 1.30D+03 IAcc=3 IRadAn=         5 AccDes= 0.00D+00
 Harris functional with IExCor= 1009 and IRadAn=       5 diagonalized for initial guess.
 HarFok:  IExCor= 1009 AccDes= 0.00D+00 IRadAn=         5 IDoV= 1 UseB2=F ITyADJ=14
 ICtDFT=  3500011 ScaDFX=  1.000000  1.000000  1.000000  1.000000
 FoFCou: FMM=F IPFlag=           0 FMFlag=      100000 FMFlg1=           0
         NFxFlg=           0 DoJE=T BraDBF=F KetDBF=T FulRan=T
         wScrn=  0.000000 ICntrl=       500 IOpCl=  0 I1Cent=   200000004 NGrid=           0
         NMat0=    1 NMatS0=      1 NMatT0=    0 NMatD0=    1 NMtDS0=    0 NMtDT0=    0
 Symmetry not used in FoFCou.
 Harris En= -76.4164351093502    
 JPrj=0 DoOrth=F DoCkMO=F.
 Leave Link  401 at Mon Feb 20 01:46:10 2023, MaxMem=  6710886400 cpu:               3.3 elap:               0.2
 (Enter /data0/home/software/g16/l502.exe)
 Keep R1 ints in memory in canonical form, NReq=26476721.
 FoFCou: FMM=F IPFlag=           0 FMFlag=           0 FMFlg1=           0
         NFxFlg=           0 DoJE=F BraDBF=F KetDBF=F FulRan=T
         wScrn=  0.000000 ICntrl=       600 IOpCl=  0 I1Cent=           0 NGrid=           0
         NMat0=    1 NMatS0=   3081 NMatT0=    0 NMatD0=    1 NMtDS0=    0 NMtDT0=    0
 Symmetry not used in FoFCou.
 Two-electron integral symmetry not used.
 Closed shell SCF:
 Using DIIS extrapolation, IDIIS=  1040.
 NGot=  6710886400 LenX=  6706122419 LenY=  6706115254
 Requested convergence on RMS density matrix=1.00D-08 within 128 cycles.
 Requested convergence on MAX density matrix=1.00D-06.
 Requested convergence on             energy=1.00D-06.
 No special actions if energy rises.
 Integral accuracy reduced to 1.0D-05 until final iterations.

 Cycle   1  Pass 0  IDiag  1:
 E= -76.3465112093074    
 DIIS: error= 6.93D-02 at cycle   1 NSaved=   1.
 NSaved= 1 IEnMin= 1 EnMin= -76.3465112093074     IErMin= 1 ErrMin= 6.93D-02
 ErrMax= 6.93D-02  0.00D+00 EMaxC= 1.00D-01 BMatC= 1.20D-01 BMatP= 1.20D-01
 IDIUse=3 WtCom= 3.07D-01 WtEn= 6.93D-01
 Coeff-Com:  0.100D+01
 Coeff-En:   0.100D+01
 Coeff:      0.100D+01
 Gap=     0.324 Goal=   None    Shift=    0.000
 GapD=    0.324 DampG=1.000 DampE=0.500 DampFc=0.5000 IDamp=-1.
 Damping current iteration by 5.00D-01
 RMSDP=4.00D-03 MaxDP=1.01D-01              OVMax= 1.68D-01

 Cycle   2  Pass 0  IDiag  1:
 E= -76.3778942060080     Delta-E=       -0.031382996701 Rises=F Damp=T
 DIIS: error= 1.02D-02 at cycle   2 NSaved=   2.
 NSaved= 2 IEnMin= 2 EnMin= -76.3778942060080     IErMin= 2 ErrMin= 1.02D-02
 ErrMax= 1.02D-02  0.00D+00 EMaxC= 1.00D-01 BMatC= 4.82D-03 BMatP= 1.20D-01
 IDIUse=3 WtCom= 8.98D-01 WtEn= 1.02D-01
 Coeff-Com:  0.823D-01 0.918D+00
 Coeff-En:   0.187D+00 0.813D+00
 Coeff:      0.930D-01 0.907D+00
 Gap=     0.457 Goal=   None    Shift=    0.000
 RMSDP=4.78D-04 MaxDP=1.41D-02 DE=-3.14D-02 OVMax= 1.00D-01

 Cycle   3  Pass 0  IDiag  1:
 E= -76.4217139350021     Delta-E=       -0.043819728994 Rises=F Damp=F
 DIIS: error= 2.13D-03 at cycle   3 NSaved=   3.
 NSaved= 3 IEnMin= 3 EnMin= -76.4217139350021     IErMin= 3 ErrMin= 2.13D-03
 ErrMax= 2.13D-03  0.00D+00 EMaxC= 1.00D-01 BMatC= 9.93D-05 BMatP= 4.82D-03
 IDIUse=3 WtCom= 9.79D-01 WtEn= 2.13D-02
 Coeff-Com: -0.213D-01 0.413D-01 0.980D+00
 Coeff-En:   0.000D+00 0.000D+00 0.100D+01
 Coeff:     -0.208D-01 0.404D-01 0.980D+00
 Gap=     0.461 Goal=   None    Shift=    0.000
 RMSDP=5.90D-05 MaxDP=1.02D-03 DE=-4.38D-02 OVMax= 3.41D-03

 Cycle   4  Pass 0  IDiag  1:
 E= -76.4217972980712     Delta-E=       -0.000083363069 Rises=F Damp=F
 DIIS: error= 4.04D-04 at cycle   4 NSaved=   4.
 NSaved= 4 IEnMin= 4 EnMin= -76.4217972980712     IErMin= 4 ErrMin= 4.04D-04
 ErrMax= 4.04D-04  0.00D+00 EMaxC= 1.00D-01 BMatC= 3.19D-06 BMatP= 9.93D-05
 IDIUse=3 WtCom= 9.96D-01 WtEn= 4.04D-03
 Coeff-Com: -0.205D-02-0.184D-02 0.159D+00 0.844D+00
 Coeff-En:   0.000D+00 0.000D+00 0.000D+00 0.100D+01
 Coeff:     -0.204D-02-0.183D-02 0.159D+00 0.845D+00
 Gap=     0.462 Goal=   None    Shift=    0.000
 RMSDP=1.10D-05 MaxDP=3.52D-04 DE=-8.34D-05 OVMax= 5.34D-04

 Cycle   5  Pass 0  IDiag  1:
 E= -76.4217992746339     Delta-E=       -0.000001976563 Rises=F Damp=F
 DIIS: error= 8.62D-05 at cycle   5 NSaved=   5.
 NSaved= 5 IEnMin= 5 EnMin= -76.4217992746339     IErMin= 5 ErrMin= 8.62D-05
 ErrMax= 8.62D-05  0.00D+00 EMaxC= 1.00D-01 BMatC= 8.01D-08 BMatP= 3.19D-06
 IDIUse=1 WtCom= 1.00D+00 WtEn= 0.00D+00
 Coeff-Com:  0.122D-02-0.188D-02-0.368D-01-0.605D-01 0.110D+01
 Coeff:      0.122D-02-0.188D-02-0.368D-01-0.605D-01 0.110D+01
 Gap=     0.462 Goal=   None    Shift=    0.000
 RMSDP=4.46D-06 MaxDP=1.00D-04 DE=-1.98D-06 OVMax= 2.00D-04

 Initial convergence to 1.0D-05 achieved.  Increase integral accuracy.
 Cycle   6  Pass 1  IDiag  1:
 E= -76.4217952053087     Delta-E=        0.000004069325 Rises=F Damp=F
 DIIS: error= 4.25D-05 at cycle   1 NSaved=   1.
 NSaved= 1 IEnMin= 1 EnMin= -76.4217952053087     IErMin= 1 ErrMin= 4.25D-05
 ErrMax= 4.25D-05  0.00D+00 EMaxC= 1.00D-01 BMatC= 3.10D-08 BMatP= 3.10D-08
 IDIUse=1 WtCom= 1.00D+00 WtEn= 0.00D+00
 Coeff-Com:  0.100D+01
 Coeff:      0.100D+01
 Gap=     0.462 Goal=   None    Shift=    0.000
 RMSDP=4.46D-06 MaxDP=1.00D-04 DE= 4.07D-06 OVMax= 5.10D-05

 Cycle   7  Pass 1  IDiag  1:
 E= -76.4217952295260     Delta-E=       -0.000000024217 Rises=F Damp=F
 DIIS: error= 1.10D-05 at cycle   2 NSaved=   2.
 NSaved= 2 IEnMin= 2 EnMin= -76.4217952295260     IErMin= 2 ErrMin= 1.10D-05
 ErrMax= 1.10D-05  0.00D+00 EMaxC= 1.00D-01 BMatC= 1.84D-09 BMatP= 3.10D-08
 IDIUse=1 WtCom= 1.00D+00 WtEn= 0.00D+00
 Coeff-Com:  0.150D-01 0.985D+00
 Coeff:      0.150D-01 0.985D+00
 Gap=     0.462 Goal=   None    Shift=    0.000
 RMSDP=4.94D-07 MaxDP=1.50D-05 DE=-2.42D-08 OVMax= 2.64D-05

 Cycle   8  Pass 1  IDiag  1:
 E= -76.4217952297692     Delta-E=       -0.000000000243 Rises=F Damp=F
 DIIS: error= 9.10D-06 at cycle   3 NSaved=   3.
 NSaved= 3 IEnMin= 3 EnMin= -76.4217952297692     IErMin= 3 ErrMin= 9.10D-06
 ErrMax= 9.10D-06  0.00D+00 EMaxC= 1.00D-01 BMatC= 2.04D-09 BMatP= 1.84D-09
 IDIUse=1 WtCom= 1.00D+00 WtEn= 0.00D+00
 Coeff-Com: -0.485D-01 0.538D+00 0.511D+00
 Coeff:     -0.485D-01 0.538D+00 0.511D+00
 Gap=     0.462 Goal=   None    Shift=    0.000
 RMSDP=2.45D-07 MaxDP=6.94D-06 DE=-2.43D-10 OVMax= 1.12D-05

 Cycle   9  Pass 1  IDiag  1:
 E= -76.4217952311051     Delta-E=       -0.000000001336 Rises=F Damp=F
 DIIS: error= 5.43D-07 at cycle   4 NSaved=   4.
 NSaved= 4 IEnMin= 4 EnMin= -76.4217952311051     IErMin= 4 ErrMin= 5.43D-07
 ErrMax= 5.43D-07  0.00D+00 EMaxC= 1.00D-01 BMatC= 5.21D-12 BMatP= 1.84D-09
 IDIUse=1 WtCom= 1.00D+00 WtEn= 0.00D+00
 Coeff-Com:  0.636D-02-0.105D+00-0.760D-01 0.117D+01
 Coeff:      0.636D-02-0.105D+00-0.760D-01 0.117D+01
 Gap=     0.462 Goal=   None    Shift=    0.000
 RMSDP=5.58D-08 MaxDP=8.25D-07 DE=-1.34D-09 OVMax= 2.60D-06

 Cycle  10  Pass 1  IDiag  1:
 E= -76.4217952311194     Delta-E=       -0.000000000014 Rises=F Damp=F
 DIIS: error= 1.05D-07 at cycle   5 NSaved=   5.
 NSaved= 5 IEnMin= 5 EnMin= -76.4217952311194     IErMin= 5 ErrMin= 1.05D-07
 ErrMax= 1.05D-07  0.00D+00 EMaxC= 1.00D-01 BMatC= 4.05D-13 BMatP= 5.21D-12
 IDIUse=1 WtCom= 1.00D+00 WtEn= 0.00D+00
 Coeff-Com:  0.368D-02-0.479D-01-0.393D-01 0.204D+00 0.880D+00
 Coeff:      0.368D-02-0.479D-01-0.393D-01 0.204D+00 0.880D+00
 Gap=     0.462 Goal=   None    Shift=    0.000
 RMSDP=1.20D-08 MaxDP=2.13D-07 DE=-1.43D-11 OVMax= 5.13D-07

 Cycle  11  Pass 1  IDiag  1:
 E= -76.4217952311203     Delta-E=       -0.000000000001 Rises=F Damp=F
 DIIS: error= 1.74D-08 at cycle   6 NSaved=   6.
 NSaved= 6 IEnMin= 6 EnMin= -76.4217952311203     IErMin= 6 ErrMin= 1.74D-08
 ErrMax= 1.74D-08  0.00D+00 EMaxC= 1.00D-01 BMatC= 7.32D-15 BMatP= 4.05D-13
 IDIUse=1 WtCom= 1.00D+00 WtEn= 0.00D+00
 Coeff-Com: -0.117D-03 0.233D-02 0.235D-02-0.375D-01-0.214D-01 0.105D+01
 Coeff:     -0.117D-03 0.233D-02 0.235D-02-0.375D-01-0.214D-01 0.105D+01
 Gap=     0.462 Goal=   None    Shift=    0.000
 RMSDP=2.87D-09 MaxDP=4.97D-08 DE=-8.81D-13 OVMax= 1.19D-07

 SCF Done:  E(RM062X) =  -76.4217952311     A.U. after   11 cycles
            NFock= 11  Conv=0.29D-08     -V/T= 2.0029
 KE= 7.620008114845D+01 PE=-1.990738084839D+02 EE= 3.734014218883D+01
 Leave Link  502 at Mon Feb 20 01:46:11 2023, MaxMem=  6710886400 cpu:              16.2 elap:               0.8
 (Enter /data0/home/software/g16/l601.exe)
 Copying SCF densities to generalized density rwf, IOpCl= 0 IROHF=0.

 **********************************************************************

            Population analysis using the SCF density.

 **********************************************************************

 Alpha  occ. eigenvalues --  -19.62657  -1.13476  -0.60502  -0.47797  -0.40025
 Alpha virt. eigenvalues --    0.06162   0.09955   0.13238   0.16484   0.17474
 Alpha virt. eigenvalues --    0.18495   0.18683   0.18948   0.19540   0.23598
 Alpha virt. eigenvalues --    0.29221   0.31508   0.51152   0.53584   0.56011
 Alpha virt. eigenvalues --    0.78420   0.79976   0.80888   0.98131   1.00251
 Alpha virt. eigenvalues --    1.03109   1.05959   1.12571   1.17298   1.20281
 Alpha virt. eigenvalues --    1.31882   1.34071   1.70872   1.74490   1.75370
 Alpha virt. eigenvalues --    1.85240   1.88296   1.98359   2.07529   2.09814
 Alpha virt. eigenvalues --    2.20570   2.30672   2.36410   2.39568   2.50840
 Alpha virt. eigenvalues --    2.55143   2.59748   2.68516   2.73352   2.74703
 Alpha virt. eigenvalues --    2.78433   2.88108   3.00544   3.01674   3.09765
 Alpha virt. eigenvalues --    3.59481   3.65641   4.60925   5.05754   5.26058
 Alpha virt. eigenvalues --    5.49420   5.91372   6.78524   6.79969   6.87307
 Alpha virt. eigenvalues --    6.91755   7.09284  10.24971  10.28709  10.33755
 Alpha virt. eigenvalues --   10.42223  10.58388  13.38593  13.76856  14.28671
 Alpha virt. eigenvalues --   18.38096  49.95750 139.73993
          Condensed to atoms (all electrons):
               1          2          3          4          5          6
     1  O    7.916265   0.316770   0.318405  -0.000000   0.000000   0.000008
     2  H    0.316770   0.430600  -0.023822  -0.000000   0.000000   0.000001
     3  H    0.318405  -0.023822   0.430412  -0.000000  -0.000000   0.000000
     4  O   -0.000000  -0.000000  -0.000000   0.000018  -0.000012  -0.000008
     5  H    0.000000   0.000000  -0.000000  -0.000012   0.000008   0.000004
     6  H    0.000008   0.000001   0.000000  -0.000008   0.000004   0.000005
 Mulliken charges:
               1
     1  O   -0.551447
     2  H    0.276451
     3  H    0.275005
     4  O    0.000002
     5  H   -0.000001
     6  H   -0.000010
 Sum of Mulliken charges =  -0.00000
 Mulliken charges with hydrogens summed into heavy atoms:
               1
     1  O    0.000009
     4  O   -0.000009
         Mulliken charges condensed to fragments:
      1      0.000009
      2     -0.000009
 Electronic spatial extent (au):  <R**2>=          15708.1051
 Charge=             -0.0000 electrons
 Dipole moment (field-independent basis, Debye):
    X=              1.1871    Y=              1.2602    Z=             -1.2566  Tot=              2.1393
 Quadrupole moment (field-independent basis, Debye-Ang):
   XX=             20.9663   YY=             -9.4090   ZZ=            -49.5294
   XY=             14.0820   XZ=              7.6843   YZ=             23.2367
 Traceless Quadrupole moment (field-independent basis, Debye-Ang):
   XX=             33.6237   YY=              3.2484   ZZ=            -36.8721
   XY=             14.0820   XZ=              7.6843   YZ=             23.2367
 Octapole moment (field-independent basis, Debye-Ang**2):
  XXX=            256.2317  YYY=             23.1527  ZZZ=          -1448.8475  XYY=           -107.0333
  XXY=            163.3677  XXZ=            231.2289  XZZ=           -157.4458  YZZ=            432.8066
  YYZ=           -166.4719  XYZ=            259.1095
 Hexadecapole moment (field-independent basis, Debye-Ang**3):
 XXXX=           2363.1975 YYYY=            -48.7431 ZZZZ=         -37354.5111 XXXY=           1962.3547
 XXXZ=           3085.9769 YYYX=            263.0802 YYYZ=            408.2934 ZZZX=          -8998.0491
 ZZZY=           8130.2978 XXYY=          -1225.8978 XXZZ=            957.7986 YYZZ=          -2952.9259
 XXYZ=           2994.8838 YYXZ=          -1893.1836 ZZXY=           4818.1197
 N-N= 9.111789915484D+00 E-N=-1.990738087254D+02  KE= 7.620008114845D+01
 No NMR shielding tensors so no spin-rotation constants.
 Leave Link  601 at Mon Feb 20 01:46:11 2023, MaxMem=  6710886400 cpu:               1.8 elap:               0.1
 (Enter /data0/home/software/g16/l122.exe)
 CPIOFr:  IOpCl= 0 IRwI=-1 IRwCP=  731 ICalc=  1 LCPTot=       10496 Len1MO=       26312 IndFrg=       63120
 Counterpoise: doing calculation for fragment   2 using the basis set of the full-system, NewBq=T
 Leave Link  122 at Mon Feb 20 01:46:11 2023, MaxMem=  6710886400 cpu:               0.1 elap:               0.0
 (Enter /data0/home/software/g16/l301.exe)
 Basis read from rwf:  (5D, 7F)
 No pseudopotential information found on rwf file.
    78 basis functions,   116 primitive gaussians,    82 cartesian basis functions
     5 alpha electrons        5 beta electrons
       nuclear repulsion energy         9.0550706014 Hartrees.
 IExCor= 4336 DFT=T Ex+Corr=M062X ExCW=0 ScaHFX=  0.540000
 ScaDFX=  1.000000  1.000000  1.000000  1.000000 ScalE2=  1.000000  1.000000
 IRadAn=      5 IRanWt=     -1 IRanGd=            0 ICorTp=0 IEmpDi=131
 NAtoms=    6 NActive=    6 NUniq=    6 SFac= 1.00D+00 NAtFMM=   60 NAOKFM=F Big=F
 Integral buffers will be    131072 words long.
 Raffenetti 2 integral format.
 Two-electron integral symmetry is turned off.
 R6Disp:  Grimme-D3 Dispersion energy=       -0.0000000085 Hartrees.
 Nuclear repulsion after empirical dispersion term =        9.0550705929 Hartrees.
 No density basis found on file   718.
 Leave Link  301 at Mon Feb 20 01:46:11 2023, MaxMem=  6710886400 cpu:               1.2 elap:               0.1
 (Enter /data0/home/software/g16/l302.exe)
 NPDir=0 NMtPBC=     1 NCelOv=     1 NCel=       1 NClECP=     1 NCelD=      1
         NCelK=      1 NCelE2=     1 NClLst=     1 CellRange=     0.0.
 One-electron integrals computed using PRISM.
 NBasis=    78 RedAO= T EigKep=  2.93D-03  NBF=    78
 NBsUse=    78 1.00D-06 EigRej= -1.00D+00 NBFU=    78
 Precomputing XC quadrature grid using
 IXCGrd= 4 IRadAn=           5 IRanWt=          -1 IRanGd=           0 AccXCQ= 0.00D+00.
 Generated NRdTot=       0 NPtTot=           0 NUsed=           0 NTot=          32
 NSgBfM=    72    72    72    72    72 MxSgAt=     6 MxSgA2=     6.
 Leave Link  302 at Mon Feb 20 01:46:11 2023, MaxMem=  6710886400 cpu:               2.4 elap:               0.1
 (Enter /data0/home/software/g16/l303.exe)
 DipDrv:  MaxL=1.
 Leave Link  303 at Mon Feb 20 01:46:11 2023, MaxMem=  6710886400 cpu:               0.4 elap:               0.0
 (Enter /data0/home/software/g16/l401.exe)
 ExpMin= 8.45D-02 ExpMax= 8.59D+03 ExpMxC= 1.30D+03 IAcc=3 IRadAn=         5 AccDes= 0.00D+00
 Harris functional with IExCor= 1009 and IRadAn=       5 diagonalized for initial guess.
 HarFok:  IExCor= 1009 AccDes= 0.00D+00 IRadAn=         5 IDoV= 1 UseB2=F ITyADJ=14
 ICtDFT=  3500011 ScaDFX=  1.000000  1.000000  1.000000  1.000000
 FoFCou: FMM=F IPFlag=           0 FMFlag=      100000 FMFlg1=           0
         NFxFlg=           0 DoJE=T BraDBF=F KetDBF=T FulRan=T
         wScrn=  0.000000 ICntrl=       500 IOpCl=  0 I1Cent=   200000004 NGrid=           0
         NMat0=    1 NMatS0=      1 NMatT0=    0 NMatD0=    1 NMtDS0=    0 NMtDT0=    0
 Symmetry not used in FoFCou.
 Harris En= -76.4154352786474    
 JPrj=0 DoOrth=F DoCkMO=F.
 Leave Link  401 at Mon Feb 20 01:46:12 2023, MaxMem=  6710886400 cpu:               3.4 elap:               0.2
 (Enter /data0/home/software/g16/l502.exe)
 Keep R1 ints in memory in canonical form, NReq=26476721.
 FoFCou: FMM=F IPFlag=           0 FMFlag=           0 FMFlg1=           0
         NFxFlg=           0 DoJE=F BraDBF=F KetDBF=F FulRan=T
         wScrn=  0.000000 ICntrl=       600 IOpCl=  0 I1Cent=           0 NGrid=           0
         NMat0=    1 NMatS0=   3081 NMatT0=    0 NMatD0=    1 NMtDS0=    0 NMtDT0=    0
 Symmetry not used in FoFCou.
 Two-electron integral symmetry not used.
 Closed shell SCF:
 Using DIIS extrapolation, IDIIS=  1040.
 NGot=  6710886400 LenX=  6706122419 LenY=  6706115254
 Requested convergence on RMS density matrix=1.00D-08 within 128 cycles.
 Requested convergence on MAX density matrix=1.00D-06.
 Requested convergence on             energy=1.00D-06.
 No special actions if energy rises.
 Integral accuracy reduced to 1.0D-05 until final iterations.

 Cycle   1  Pass 0  IDiag  1:
 E= -76.3452568704841    
 DIIS: error= 6.96D-02 at cycle   1 NSaved=   1.
 NSaved= 1 IEnMin= 1 EnMin= -76.3452568704841     IErMin= 1 ErrMin= 6.96D-02
 ErrMax= 6.96D-02  0.00D+00 EMaxC= 1.00D-01 BMatC= 1.20D-01 BMatP= 1.20D-01
 IDIUse=3 WtCom= 3.04D-01 WtEn= 6.96D-01
 Coeff-Com:  0.100D+01
 Coeff-En:   0.100D+01
 Coeff:      0.100D+01
 Gap=     0.322 Goal=   None    Shift=    0.000
 GapD=    0.322 DampG=1.000 DampE=0.500 DampFc=0.5000 IDamp=-1.
 Damping current iteration by 5.00D-01
 RMSDP=3.94D-03 MaxDP=1.01D-01              OVMax= 1.68D-01

 Cycle   2  Pass 0  IDiag  1:
 E= -76.3764973120838     Delta-E=       -0.031240441600 Rises=F Damp=T
 DIIS: error= 1.06D-02 at cycle   2 NSaved=   2.
 NSaved= 2 IEnMin= 2 EnMin= -76.3764973120838     IErMin= 2 ErrMin= 1.06D-02
 ErrMax= 1.06D-02  0.00D+00 EMaxC= 1.00D-01 BMatC= 4.92D-03 BMatP= 1.20D-01
 IDIUse=3 WtCom= 8.94D-01 WtEn= 1.06D-01
 Coeff-Com:  0.847D-01 0.915D+00
 Coeff-En:   0.191D+00 0.809D+00
 Coeff:      0.960D-01 0.904D+00
 Gap=     0.455 Goal=   None    Shift=    0.000
 RMSDP=4.77D-04 MaxDP=1.42D-02 DE=-3.12D-02 OVMax= 1.01D-01

 Cycle   3  Pass 0  IDiag  1:
 E= -76.4205723862751     Delta-E=       -0.044075074191 Rises=F Damp=F
 DIIS: error= 2.15D-03 at cycle   3 NSaved=   3.
 NSaved= 3 IEnMin= 3 EnMin= -76.4205723862751     IErMin= 3 ErrMin= 2.15D-03
 ErrMax= 2.15D-03  0.00D+00 EMaxC= 1.00D-01 BMatC= 9.99D-05 BMatP= 4.92D-03
 IDIUse=3 WtCom= 9.78D-01 WtEn= 2.15D-02
 Coeff-Com: -0.207D-01 0.427D-01 0.978D+00
 Coeff-En:   0.000D+00 0.000D+00 0.100D+01
 Coeff:     -0.203D-01 0.418D-01 0.978D+00
 Gap=     0.459 Goal=   None    Shift=    0.000
 RMSDP=5.96D-05 MaxDP=1.04D-03 DE=-4.41D-02 OVMax= 3.43D-03

 Cycle   4  Pass 0  IDiag  1:
 E= -76.4206567743680     Delta-E=       -0.000084388093 Rises=F Damp=F
 DIIS: error= 4.21D-04 at cycle   4 NSaved=   4.
 NSaved= 4 IEnMin= 4 EnMin= -76.4206567743680     IErMin= 4 ErrMin= 4.21D-04
 ErrMax= 4.21D-04  0.00D+00 EMaxC= 1.00D-01 BMatC= 3.50D-06 BMatP= 9.99D-05
 IDIUse=3 WtCom= 9.96D-01 WtEn= 4.21D-03
 Coeff-Com: -0.220D-02-0.182D-02 0.167D+00 0.837D+00
 Coeff-En:   0.000D+00 0.000D+00 0.000D+00 0.100D+01
 Coeff:     -0.219D-02-0.182D-02 0.167D+00 0.837D+00
 Gap=     0.459 Goal=   None    Shift=    0.000
 RMSDP=1.13D-05 MaxDP=3.56D-04 DE=-8.44D-05 OVMax= 5.45D-04

 Cycle   5  Pass 0  IDiag  1:
 E= -76.4206589306473     Delta-E=       -0.000002156279 Rises=F Damp=F
 DIIS: error= 9.27D-05 at cycle   5 NSaved=   5.
 NSaved= 5 IEnMin= 5 EnMin= -76.4206589306473     IErMin= 5 ErrMin= 9.27D-05
 ErrMax= 9.27D-05  0.00D+00 EMaxC= 1.00D-01 BMatC= 8.95D-08 BMatP= 3.50D-06
 IDIUse=1 WtCom= 1.00D+00 WtEn= 0.00D+00
 Coeff-Com:  0.123D-02-0.189D-02-0.372D-01-0.738D-01 0.111D+01
 Coeff:      0.123D-02-0.189D-02-0.372D-01-0.738D-01 0.111D+01
 Gap=     0.459 Goal=   None    Shift=    0.000
 RMSDP=4.66D-06 MaxDP=1.05D-04 DE=-2.16D-06 OVMax= 2.12D-04

 Initial convergence to 1.0D-05 achieved.  Increase integral accuracy.
 Cycle   6  Pass 1  IDiag  1:
 E= -76.4206662589902     Delta-E=       -0.000007328343 Rises=F Damp=F
 DIIS: error= 1.99D-05 at cycle   1 NSaved=   1.
 NSaved= 1 IEnMin= 1 EnMin= -76.4206662589902     IErMin= 1 ErrMin= 1.99D-05
 ErrMax= 1.99D-05  0.00D+00 EMaxC= 1.00D-01 BMatC= 1.76D-08 BMatP= 1.76D-08
 IDIUse=1 WtCom= 1.00D+00 WtEn= 0.00D+00
 Coeff-Com:  0.100D+01
 Coeff:      0.100D+01
 Gap=     0.459 Goal=   None    Shift=    0.000
 RMSDP=4.66D-06 MaxDP=1.05D-04 DE=-7.33D-06 OVMax= 4.82D-05

 Cycle   7  Pass 1  IDiag  1:
 E= -76.4206662725475     Delta-E=       -0.000000013557 Rises=F Damp=F
 DIIS: error= 9.72D-06 at cycle   2 NSaved=   2.
 NSaved= 2 IEnMin= 2 EnMin= -76.4206662725475     IErMin= 2 ErrMin= 9.72D-06
 ErrMax= 9.72D-06  0.00D+00 EMaxC= 1.00D-01 BMatC= 1.29D-09 BMatP= 1.76D-08
 IDIUse=1 WtCom= 1.00D+00 WtEn= 0.00D+00
 Coeff-Com:  0.502D-01 0.950D+00
 Coeff:      0.502D-01 0.950D+00
 Gap=     0.459 Goal=   None    Shift=    0.000
 RMSDP=3.79D-07 MaxDP=1.30D-05 DE=-1.36D-08 OVMax= 2.03D-05

 Cycle   8  Pass 1  IDiag  1:
 E= -76.4206662727835     Delta-E=       -0.000000000236 Rises=F Damp=F
 DIIS: error= 6.94D-06 at cycle   3 NSaved=   3.
 NSaved= 3 IEnMin= 3 EnMin= -76.4206662727835     IErMin= 3 ErrMin= 6.94D-06
 ErrMax= 6.94D-06  0.00D+00 EMaxC= 1.00D-01 BMatC= 1.21D-09 BMatP= 1.29D-09
 IDIUse=1 WtCom= 1.00D+00 WtEn= 0.00D+00
 Coeff-Com: -0.488D-01 0.506D+00 0.542D+00
 Coeff:     -0.488D-01 0.506D+00 0.542D+00
 Gap=     0.459 Goal=   None    Shift=    0.000
 RMSDP=1.96D-07 MaxDP=5.27D-06 DE=-2.36D-10 OVMax= 9.56D-06

 Cycle   9  Pass 1  IDiag  1:
 E= -76.4206662735824     Delta-E=       -0.000000000799 Rises=F Damp=F
 DIIS: error= 6.84D-07 at cycle   4 NSaved=   4.
 NSaved= 4 IEnMin= 4 EnMin= -76.4206662735824     IErMin= 4 ErrMin= 6.84D-07
 ErrMax= 6.84D-07  0.00D+00 EMaxC= 1.00D-01 BMatC= 5.93D-12 BMatP= 1.21D-09
 IDIUse=1 WtCom= 1.00D+00 WtEn= 0.00D+00
 Coeff-Com: -0.154D-02-0.240D-01 0.258D-01 0.100D+01
 Coeff:     -0.154D-02-0.240D-01 0.258D-01 0.100D+01
 Gap=     0.459 Goal=   None    Shift=    0.000
 RMSDP=3.51D-08 MaxDP=5.60D-07 DE=-7.99D-10 OVMax= 1.62D-06

 Cycle  10  Pass 1  IDiag  1:
 E= -76.4206662735920     Delta-E=       -0.000000000010 Rises=F Damp=F
 DIIS: error= 9.00D-08 at cycle   5 NSaved=   5.
 NSaved= 5 IEnMin= 5 EnMin= -76.4206662735920     IErMin= 5 ErrMin= 9.00D-08
 ErrMax= 9.00D-08  0.00D+00 EMaxC= 1.00D-01 BMatC= 3.56D-13 BMatP= 5.93D-12
 IDIUse=1 WtCom= 1.00D+00 WtEn= 0.00D+00
 Coeff-Com:  0.368D-02-0.455D-01-0.431D-01 0.822D-01 0.100D+01
 Coeff:      0.368D-02-0.455D-01-0.431D-01 0.822D-01 0.100D+01
 Gap=     0.459 Goal=   None    Shift=    0.000
 RMSDP=1.30D-08 MaxDP=2.16D-07 DE=-9.56D-12 OVMax= 5.66D-07

 Cycle  11  Pass 1  IDiag  1:
 E= -76.4206662735924     Delta-E=       -0.000000000000 Rises=F Damp=F
 DIIS: error= 9.23D-09 at cycle   6 NSaved=   6.
 NSaved= 6 IEnMin= 6 EnMin= -76.4206662735924     IErMin= 6 ErrMin= 9.23D-09
 ErrMax= 9.23D-09  0.00D+00 EMaxC= 1.00D-01 BMatC= 3.46D-15 BMatP= 3.56D-13
 IDIUse=1 WtCom= 1.00D+00 WtEn= 0.00D+00
 Coeff-Com: -0.760D-04 0.210D-02 0.308D-03-0.211D-01-0.356D-01 0.105D+01
 Coeff:     -0.760D-04 0.210D-02 0.308D-03-0.211D-01-0.356D-01 0.105D+01
 Gap=     0.459 Goal=   None    Shift=    0.000
 RMSDP=1.64D-09 MaxDP=3.14D-08 DE=-4.26D-13 OVMax= 5.72D-08

 SCF Done:  E(RM062X) =  -76.4206662736     A.U. after   11 cycles
            NFock= 11  Conv=0.16D-08     -V/T= 2.0032
 KE= 7.617771034412D+01 PE=-1.989554111007D+02 EE= 3.730196389007D+01
 Leave Link  502 at Mon Feb 20 01:46:12 2023, MaxMem=  6710886400 cpu:              16.0 elap:               0.8
 (Enter /data0/home/software/g16/l601.exe)
 Copying SCF densities to generalized density rwf, IOpCl= 0 IROHF=0.

 **********************************************************************

            Population analysis using the SCF density.

 **********************************************************************

 Alpha  occ. eigenvalues --  -19.62634  -1.13078  -0.60701  -0.47246  -0.39917
 Alpha virt. eigenvalues --    0.06016   0.10182   0.13018   0.17048   0.17891
 Alpha virt. eigenvalues --    0.18206   0.18694   0.18765   0.19960   0.23447
 Alpha virt. eigenvalues --    0.29647   0.31616   0.49957   0.53810   0.56534
 Alpha virt. eigenvalues --    0.79026   0.80204   0.81137   0.98060   1.00518
 Alpha virt. eigenvalues --    1.03541   1.06021   1.12615   1.19249   1.19572
 Alpha virt. eigenvalues --    1.32676   1.34136   1.68569   1.73592   1.75922
 Alpha virt. eigenvalues --    1.83956   1.89813   1.97912   2.05923   2.10127
 Alpha virt. eigenvalues --    2.20532   2.33263   2.34434   2.42950   2.53867
 Alpha virt. eigenvalues --    2.54187   2.59633   2.70857   2.72592   2.75492
 Alpha virt. eigenvalues --    2.77217   2.87245   3.00410   3.02007   3.10130
 Alpha virt. eigenvalues --    3.60134   3.62939   4.68156   5.05680   5.26469
 Alpha virt. eigenvalues --    5.45922   5.91626   6.78150   6.80427   6.86885
 Alpha virt. eigenvalues --    6.91391   7.10067  10.26082  10.28841  10.35632
 Alpha virt. eigenvalues --   10.42328  10.58646  13.39334  13.81019  14.29098
 Alpha virt. eigenvalues --   18.39312  49.95545 139.75643
          Condensed to atoms (all electrons):
               1          2          3          4          5          6
     1  O    0.000004  -0.000002  -0.000001   0.000001  -0.000000   0.000002
     2  H   -0.000002   0.000002   0.000001  -0.000000   0.000000  -0.000001
     3  H   -0.000001   0.000001   0.000001  -0.000000   0.000000  -0.000000
     4  O    0.000001  -0.000000  -0.000000   7.920801   0.324426   0.316206
     5  H   -0.000000   0.000000   0.000000   0.324426   0.422864  -0.024295
     6  H    0.000002  -0.000001  -0.000000   0.316206  -0.024295   0.423657
 Mulliken charges:
               1
     1  O   -0.000003
     2  H    0.000001
     3  H    0.000000
     4  O   -0.561434
     5  H    0.277005
     6  H    0.284431
 Sum of Mulliken charges =  -0.00000
 Mulliken charges with hydrogens summed into heavy atoms:
               1
     1  O   -0.000002
     4  O    0.000002
         Mulliken charges condensed to fragments:
      1     -0.000002
      2      0.000002
 Electronic spatial extent (au):  <R**2>=          19519.0721
 Charge=             -0.0000 electrons
 Dipole moment (field-independent basis, Debye):
    X=              1.8516    Y=              0.1141    Z=             -0.9961  Tot=              2.1057
 Quadrupole moment (field-independent basis, Debye-Ang):
   XX=             36.8774   YY=             -3.5748   ZZ=            -46.1119
   XY=             10.7774   XZ=             24.0684   YZ=             -1.6615
 Traceless Quadrupole moment (field-independent basis, Debye-Ang):
   XX=             41.1471   YY=              0.6950   ZZ=            -41.8421
   XY=             10.7774   XZ=             24.0684   YZ=             -1.6615
 Octapole moment (field-independent basis, Debye-Ang**2):
  XXX=            533.9452  YYY=            -60.8413  ZZZ=          -1563.7359  XYY=              7.1407
  XXY=            205.0381  XXZ=            572.9317  XZZ=            149.5485  YZZ=           -144.0135
  YYZ=            -84.8184  XYZ=            163.1472
 Hexadecapole moment (field-independent basis, Debye-Ang**3):
 XXXX=           6554.6971 YYYY=           -630.4439 ZZZZ=         -46319.6276 XXXY=           2953.5512
 XXXZ=           8629.5900 YYYX=           -454.0985 YYYZ=          -1245.5721 ZZZX=          -5007.2874
 ZZZY=          -5696.0673 XXYY=            500.2334 XXZZ=           7323.5623 YYZZ=          -2127.9263
 XXYZ=           3426.0793 YYXZ=            -43.6203 ZZXY=           1844.8812
 N-N= 9.055070592926D+00 E-N=-1.989554109269D+02  KE= 7.617771034412D+01
 No NMR shielding tensors so no spin-rotation constants.
 Leave Link  601 at Mon Feb 20 01:46:12 2023, MaxMem=  6710886400 cpu:               1.7 elap:               0.1
 (Enter /data0/home/software/g16/l122.exe)
 CPIOFr:  IOpCl= 0 IRwI=-1 IRwCP=  731 ICalc=  2 LCPTot=       10496 Len1MO=       26312 IndFrg=       89432
 Counterpoise: doing calculation for fragment   1 using the basis set of the fragment.
 Leave Link  122 at Mon Feb 20 01:46:12 2023, MaxMem=  6710886400 cpu:               0.1 elap:               0.0
 (Enter /data0/home/software/g16/l301.exe)
 Basis read from rwf:  (5D, 7F)
 No pseudopotential information found on rwf file.
    39 basis functions,    58 primitive gaussians,    41 cartesian basis functions
     5 alpha electrons        5 beta electrons
       nuclear repulsion energy         9.1117899226 Hartrees.
 IExCor= 4336 DFT=T Ex+Corr=M062X ExCW=0 ScaHFX=  0.540000
 ScaDFX=  1.000000  1.000000  1.000000  1.000000 ScalE2=  1.000000  1.000000
 IRadAn=      5 IRanWt=     -1 IRanGd=            0 ICorTp=0 IEmpDi=131
 NAtoms=    6 NActive=    3 NUniq=    3 SFac= 1.00D+00 NAtFMM=   60 NAOKFM=F Big=F
 Integral buffers will be    131072 words long.
 Raffenetti 2 integral format.
 Two-electron integral symmetry is turned off.
 R6Disp:  Grimme-D3 Dispersion energy=       -0.0000000071 Hartrees.
 Nuclear repulsion after empirical dispersion term =        9.1117899155 Hartrees.
 No density basis found on file   718.
 Leave Link  301 at Mon Feb 20 01:46:12 2023, MaxMem=  6710886400 cpu:               1.2 elap:               0.1
 (Enter /data0/home/software/g16/l302.exe)
 NPDir=0 NMtPBC=     1 NCelOv=     1 NCel=       1 NClECP=     1 NCelD=      1
         NCelK=      1 NCelE2=     1 NClLst=     1 CellRange=     0.0.
 One-electron integrals computed using PRISM.
 NBasis=    39 RedAO= T EigKep=  2.96D-03  NBF=    39
 NBsUse=    39 1.00D-06 EigRej= -1.00D+00 NBFU=    39
 Precomputing XC quadrature grid using
 IXCGrd= 4 IRadAn=           5 IRanWt=          -1 IRanGd=           0 AccXCQ= 0.00D+00.
 Generated NRdTot=       0 NPtTot=           0 NUsed=           0 NTot=          32
 NSgBfM=    41    41    41    41    41 MxSgAt=     3 MxSgA2=     3.
 Leave Link  302 at Mon Feb 20 01:46:13 2023, MaxMem=  6710886400 cpu:               2.2 elap:               0.1
 (Enter /data0/home/software/g16/l303.exe)
 DipDrv:  MaxL=1.
 Leave Link  303 at Mon Feb 20 01:46:13 2023, MaxMem=  6710886400 cpu:               0.4 elap:               0.0
 (Enter /data0/home/software/g16/l401.exe)
 ExpMin= 8.45D-02 ExpMax= 8.59D+03 ExpMxC= 1.30D+03 IAcc=3 IRadAn=         5 AccDes= 0.00D+00
 Harris functional with IExCor= 1009 and IRadAn=       5 diagonalized for initial guess.
 HarFok:  IExCor= 1009 AccDes= 0.00D+00 IRadAn=         5 IDoV= 1 UseB2=F ITyADJ=14
 ICtDFT=  3500011 ScaDFX=  1.000000  1.000000  1.000000  1.000000
 FoFCou: FMM=F IPFlag=           0 FMFlag=      100000 FMFlg1=           0
         NFxFlg=           0 DoJE=T BraDBF=F KetDBF=T FulRan=T
         wScrn=  0.000000 ICntrl=       500 IOpCl=  0 I1Cent=   200000004 NGrid=           0
         NMat0=    1 NMatS0=      1 NMatT0=    0 NMatD0=    1 NMtDS0=    0 NMtDT0=    0
 Symmetry not used in FoFCou.
 Harris En= -76.4164345720072    
 JPrj=0 DoOrth=F DoCkMO=F.
 Leave Link  401 at Mon Feb 20 01:46:13 2023, MaxMem=  6710886400 cpu:               2.9 elap:               0.1
 (Enter /data0/home/software/g16/l502.exe)
 Keep R1 ints in memory in canonical form, NReq=21036027.
 FoFCou: FMM=F IPFlag=           0 FMFlag=           0 FMFlg1=           0
         NFxFlg=           0 DoJE=F BraDBF=F KetDBF=F FulRan=T
         wScrn=  0.000000 ICntrl=       600 IOpCl=  0 I1Cent=           0 NGrid=           0
         NMat0=    1 NMatS0=    780 NMatT0=    0 NMatD0=    1 NMtDS0=    0 NMtDT0=    0
 Symmetry not used in FoFCou.
 Two-electron integral symmetry not used.
 Closed shell SCF:
 Using DIIS extrapolation, IDIIS=  1040.
 NGot=  6710886400 LenX=  6710576925 LenY=  6710574803
 Requested convergence on RMS density matrix=1.00D-08 within 128 cycles.
 Requested convergence on MAX density matrix=1.00D-06.
 Requested convergence on             energy=1.00D-06.
 No special actions if energy rises.
 Integral accuracy reduced to 1.0D-05 until final iterations.

 Cycle   1  Pass 0  IDiag  1:
 E= -76.3465108248490    
 DIIS: error= 7.00D-02 at cycle   1 NSaved=   1.
 NSaved= 1 IEnMin= 1 EnMin= -76.3465108248490     IErMin= 1 ErrMin= 7.00D-02
 ErrMax= 7.00D-02  0.00D+00 EMaxC= 1.00D-01 BMatC= 1.20D-01 BMatP= 1.20D-01
 IDIUse=3 WtCom= 3.00D-01 WtEn= 7.00D-01
 Coeff-Com:  0.100D+01
 Coeff-En:   0.100D+01
 Coeff:      0.100D+01
 Gap=     0.325 Goal=   None    Shift=    0.000
 GapD=    0.325 DampG=1.000 DampE=0.500 DampFc=0.5000 IDamp=-1.
 Damping current iteration by 5.00D-01
 RMSDP=7.99D-03 MaxDP=1.01D-01              OVMax= 1.68D-01

 Cycle   2  Pass 0  IDiag  1:
 E= -76.3778973595537     Delta-E=       -0.031386534705 Rises=F Damp=T
 DIIS: error= 1.14D-02 at cycle   2 NSaved=   2.
 NSaved= 2 IEnMin= 2 EnMin= -76.3778973595537     IErMin= 2 ErrMin= 1.14D-02
 ErrMax= 1.14D-02  0.00D+00 EMaxC= 1.00D-01 BMatC= 4.82D-03 BMatP= 1.20D-01
 IDIUse=3 WtCom= 8.86D-01 WtEn= 1.14D-01
 Coeff-Com:  0.823D-01 0.918D+00
 Coeff-En:   0.187D+00 0.813D+00
 Coeff:      0.942D-01 0.906D+00
 Gap=     0.458 Goal=   None    Shift=    0.000
 RMSDP=9.46D-04 MaxDP=1.40D-02 DE=-3.14D-02 OVMax= 1.00D-01

 Cycle   3  Pass 0  IDiag  1:
 E= -76.4217203206405     Delta-E=       -0.043822961087 Rises=F Damp=F
 DIIS: error= 2.15D-03 at cycle   3 NSaved=   3.
 NSaved= 3 IEnMin= 3 EnMin= -76.4217203206405     IErMin= 3 ErrMin= 2.15D-03
 ErrMax= 2.15D-03  0.00D+00 EMaxC= 1.00D-01 BMatC= 8.94D-05 BMatP= 4.82D-03
 IDIUse=3 WtCom= 9.79D-01 WtEn= 2.15D-02
 Coeff-Com: -0.199D-01 0.386D-01 0.981D+00
 Coeff-En:   0.000D+00 0.000D+00 0.100D+01
 Coeff:     -0.195D-01 0.378D-01 0.982D+00
 Gap=     0.462 Goal=   None    Shift=    0.000
 RMSDP=1.14D-04 MaxDP=9.80D-04 DE=-4.38D-02 OVMax= 3.30D-03

 Cycle   4  Pass 0  IDiag  1:
 E= -76.4217967276203     Delta-E=       -0.000076406980 Rises=F Damp=F
 DIIS: error= 4.10D-04 at cycle   4 NSaved=   4.
 NSaved= 4 IEnMin= 4 EnMin= -76.4217967276203     IErMin= 4 ErrMin= 4.10D-04
 ErrMax= 4.10D-04  0.00D+00 EMaxC= 1.00D-01 BMatC= 3.20D-06 BMatP= 8.94D-05
 IDIUse=3 WtCom= 9.96D-01 WtEn= 4.10D-03
 Coeff-Com: -0.182D-02-0.232D-02 0.160D+00 0.844D+00
 Coeff-En:   0.000D+00 0.000D+00 0.000D+00 0.100D+01
 Coeff:     -0.181D-02-0.231D-02 0.159D+00 0.845D+00
 Gap=     0.463 Goal=   None    Shift=    0.000
 RMSDP=2.21D-05 MaxDP=3.54D-04 DE=-7.64D-05 OVMax= 5.34D-04

 Cycle   5  Pass 0  IDiag  1:
 E= -76.4217987154557     Delta-E=       -0.000001987835 Rises=F Damp=F
 DIIS: error= 8.73D-05 at cycle   5 NSaved=   5.
 NSaved= 5 IEnMin= 5 EnMin= -76.4217987154557     IErMin= 5 ErrMin= 8.73D-05
 ErrMax= 8.73D-05  0.00D+00 EMaxC= 1.00D-01 BMatC= 8.06D-08 BMatP= 3.20D-06
 IDIUse=1 WtCom= 1.00D+00 WtEn= 0.00D+00
 Coeff-Com:  0.117D-02-0.179D-02-0.367D-01-0.602D-01 0.110D+01
 Coeff:      0.117D-02-0.179D-02-0.367D-01-0.602D-01 0.110D+01
 Gap=     0.463 Goal=   None    Shift=    0.000
 RMSDP=8.88D-06 MaxDP=1.01D-04 DE=-1.99D-06 OVMax= 2.00D-04

 Initial convergence to 1.0D-05 achieved.  Increase integral accuracy.
 Cycle   6  Pass 1  IDiag  1:
 E= -76.4217946566391     Delta-E=        0.000004058817 Rises=F Damp=F
 DIIS: error= 5.20D-05 at cycle   1 NSaved=   1.
 NSaved= 1 IEnMin= 1 EnMin= -76.4217946566391     IErMin= 1 ErrMin= 5.20D-05
 ErrMax= 5.20D-05  0.00D+00 EMaxC= 1.00D-01 BMatC= 3.10D-08 BMatP= 3.10D-08
 IDIUse=1 WtCom= 1.00D+00 WtEn= 0.00D+00
 Coeff-Com:  0.100D+01
 Coeff:      0.100D+01
 Gap=     0.463 Goal=   None    Shift=    0.000
 RMSDP=8.88D-06 MaxDP=1.01D-04 DE= 4.06D-06 OVMax= 5.14D-05

 Cycle   7  Pass 1  IDiag  1:
 E= -76.4217946808374     Delta-E=       -0.000000024198 Rises=F Damp=F
 DIIS: error= 1.14D-05 at cycle   2 NSaved=   2.
 NSaved= 2 IEnMin= 2 EnMin= -76.4217946808374     IErMin= 2 ErrMin= 1.14D-05
 ErrMax= 1.14D-05  0.00D+00 EMaxC= 1.00D-01 BMatC= 1.93D-09 BMatP= 3.10D-08
 IDIUse=1 WtCom= 1.00D+00 WtEn= 0.00D+00
 Coeff-Com:  0.200D-01 0.980D+00
 Coeff:      0.200D-01 0.980D+00
 Gap=     0.463 Goal=   None    Shift=    0.000
 RMSDP=1.00D-06 MaxDP=1.53D-05 DE=-2.42D-08 OVMax= 2.68D-05

 Cycle   8  Pass 1  IDiag  1:
 E= -76.4217946810845     Delta-E=       -0.000000000247 Rises=F Damp=F
 DIIS: error= 9.38D-06 at cycle   3 NSaved=   3.
 NSaved= 3 IEnMin= 3 EnMin= -76.4217946810845     IErMin= 3 ErrMin= 9.38D-06
 ErrMax= 9.38D-06  0.00D+00 EMaxC= 1.00D-01 BMatC= 2.12D-09 BMatP= 1.93D-09
 IDIUse=1 WtCom= 1.00D+00 WtEn= 0.00D+00
 Coeff-Com: -0.485D-01 0.535D+00 0.513D+00
 Coeff:     -0.485D-01 0.535D+00 0.513D+00
 Gap=     0.463 Goal=   None    Shift=    0.000
 RMSDP=4.99D-07 MaxDP=7.07D-06 DE=-2.47D-10 OVMax= 1.15D-05

 Cycle   9  Pass 1  IDiag  1:
 E= -76.4217946824735     Delta-E=       -0.000000001389 Rises=F Damp=F
 DIIS: error= 5.41D-07 at cycle   4 NSaved=   4.
 NSaved= 4 IEnMin= 4 EnMin= -76.4217946824735     IErMin= 4 ErrMin= 5.41D-07
 ErrMax= 5.41D-07  0.00D+00 EMaxC= 1.00D-01 BMatC= 5.17D-12 BMatP= 1.93D-09
 IDIUse=1 WtCom= 1.00D+00 WtEn= 0.00D+00
 Coeff-Com:  0.633D-02-0.104D+00-0.774D-01 0.117D+01
 Coeff:      0.633D-02-0.104D+00-0.774D-01 0.117D+01
 Gap=     0.463 Goal=   None    Shift=    0.000
 RMSDP=1.11D-07 MaxDP=8.25D-07 DE=-1.39D-09 OVMax= 2.59D-06

 Cycle  10  Pass 1  IDiag  1:
 E= -76.4217946824876     Delta-E=       -0.000000000014 Rises=F Damp=F
 DIIS: error= 1.06D-07 at cycle   5 NSaved=   5.
 NSaved= 5 IEnMin= 5 EnMin= -76.4217946824876     IErMin= 5 ErrMin= 1.06D-07
 ErrMax= 1.06D-07  0.00D+00 EMaxC= 1.00D-01 BMatC= 4.05D-13 BMatP= 5.17D-12
 IDIUse=1 WtCom= 1.00D+00 WtEn= 0.00D+00
 Coeff-Com:  0.367D-02-0.477D-01-0.396D-01 0.204D+00 0.880D+00
 Coeff:      0.367D-02-0.477D-01-0.396D-01 0.204D+00 0.880D+00
 Gap=     0.463 Goal=   None    Shift=    0.000
 RMSDP=2.39D-08 MaxDP=2.14D-07 DE=-1.41D-11 OVMax= 5.12D-07

 Cycle  11  Pass 1  IDiag  1:
 E= -76.4217946824883     Delta-E=       -0.000000000001 Rises=F Damp=F
 DIIS: error= 1.75D-08 at cycle   6 NSaved=   6.
 NSaved= 6 IEnMin= 6 EnMin= -76.4217946824883     IErMin= 6 ErrMin= 1.75D-08
 ErrMax= 1.75D-08  0.00D+00 EMaxC= 1.00D-01 BMatC= 7.37D-15 BMatP= 4.05D-13
 IDIUse=1 WtCom= 1.00D+00 WtEn= 0.00D+00
 Coeff-Com: -0.115D-03 0.229D-02 0.237D-02-0.375D-01-0.209D-01 0.105D+01
 Coeff:     -0.115D-03 0.229D-02 0.237D-02-0.375D-01-0.209D-01 0.105D+01
 Gap=     0.463 Goal=   None    Shift=    0.000
 RMSDP=5.72D-09 MaxDP=5.01D-08 DE=-6.96D-13 OVMax= 1.19D-07

 SCF Done:  E(RM062X) =  -76.4217946825     A.U. after   11 cycles
            NFock= 11  Conv=0.57D-08     -V/T= 2.0029
 KE= 7.620009473563D+01 PE=-1.990738456754D+02 EE= 3.734016634181D+01
 Leave Link  502 at Mon Feb 20 01:46:13 2023, MaxMem=  6710886400 cpu:               8.8 elap:               0.4
 (Enter /data0/home/software/g16/l601.exe)
 Copying SCF densities to generalized density rwf, IOpCl= 0 IROHF=0.

 **********************************************************************

            Population analysis using the SCF density.

 **********************************************************************

 Alpha  occ. eigenvalues --  -19.62656  -1.13475  -0.60501  -0.47797  -0.40025
 Alpha virt. eigenvalues --    0.06254   0.13344   0.17417   0.17938   0.18898
 Alpha virt. eigenvalues --    0.23415   0.51056   0.53569   0.98111   1.00206
 Alpha virt. eigenvalues --    1.06005   1.17296   1.20279   1.31868   1.33899
 Alpha virt. eigenvalues --    1.70829   1.74472   1.75326   2.07529   2.09809
 Alpha virt. eigenvalues --    2.36385   2.39568   2.55103   2.88045   3.01648
 Alpha virt. eigenvalues --    5.05638   5.49411   5.91355   6.78524   6.79969
 Alpha virt. eigenvalues --    6.87305   6.91754   7.09276  49.95737
          Condensed to atoms (all electrons):
               1          2          3
     1  O    7.916386   0.316766   0.318382
     2  H    0.316766   0.430584  -0.023833
     3  H    0.318382  -0.023833   0.430400
 Mulliken charges:
               1
     1  O   -0.551534
     2  H    0.276483
     3  H    0.275051
     4  O    0.000000
     5  H    0.000000
     6  H    0.000000
 Sum of Mulliken charges =   0.00000
 Mulliken charges with hydrogens summed into heavy atoms:
               1
     1  O    0.000000
     4  O    0.000000
         Mulliken charges condensed to fragments:
      1      0.000000
      2      0.000000
 Electronic spatial extent (au):  <R**2>=          15708.1030
 Charge=              0.0000 electrons
 Dipole moment (field-independent basis, Debye):
    X=              1.1871    Y=              1.2604    Z=             -1.2565  Tot=              2.1393
 Quadrupole moment (field-independent basis, Debye-Ang):
   XX=             20.9669   YY=             -9.4087   ZZ=            -49.5274
   XY=             14.0839   XZ=              7.6854   YZ=             23.2397
 Traceless Quadrupole moment (field-independent basis, Debye-Ang):
   XX=             33.6233   YY=              3.2477   ZZ=            -36.8710
   XY=             14.0839   XZ=              7.6854   YZ=             23.2397
 Octapole moment (field-independent basis, Debye-Ang**2):
  XXX=            256.2422  YYY=             23.1538  ZZZ=          -1448.7918  XYY=           -107.0308
  XXY=            163.3890  XXZ=            231.2472  XZZ=           -157.4139  YZZ=            432.8620
  YYZ=           -166.4677  XYZ=            259.1437
 Hexadecapole moment (field-independent basis, Debye-Ang**3):
 XXXX=           2363.3587 YYYY=            -48.7409 ZZZZ=         -37353.1528 XXXY=           1962.6011
 XXXZ=           3086.2497 YYYX=            263.0926 YYYZ=            408.3135 ZZZX=          -8997.2584
 ZZZY=           8131.3228 XXYY=          -1225.8678 XXZZ=            958.2619 YYZZ=          -2952.8461
 XXYZ=           2995.2766 YYXZ=          -1893.1350 ZZXY=           4818.7514
 N-N= 9.111789915484D+00 E-N=-1.990738459211D+02  KE= 7.620009473563D+01
 No NMR shielding tensors so no spin-rotation constants.
 Leave Link  601 at Mon Feb 20 01:46:13 2023, MaxMem=  6710886400 cpu:               1.7 elap:               0.1
 (Enter /data0/home/software/g16/l122.exe)
 CPIOFr:  IOpCl= 0 IRwI=-1 IRwCP=  731 ICalc=  3 LCPTot=       10496 Len1MO=       26312 IndFrg=      115744
 Counterpoise: doing calculation for fragment   2 using the basis set of the fragment.
 Leave Link  122 at Mon Feb 20 01:46:13 2023, MaxMem=  6710886400 cpu:               0.0 elap:               0.0
 (Enter /data0/home/software/g16/l301.exe)
 Basis read from rwf:  (5D, 7F)
 No pseudopotential information found on rwf file.
    39 basis functions,    58 primitive gaussians,    41 cartesian basis functions
     5 alpha electrons        5 beta electrons
       nuclear repulsion energy         9.0550706014 Hartrees.
 IExCor= 4336 DFT=T Ex+Corr=M062X ExCW=0 ScaHFX=  0.540000
 ScaDFX=  1.000000  1.000000  1.000000  1.000000 ScalE2=  1.000000  1.000000
 IRadAn=      5 IRanWt=     -1 IRanGd=            0 ICorTp=0 IEmpDi=131
 NAtoms=    6 NActive=    3 NUniq=    3 SFac= 1.00D+00 NAtFMM=   60 NAOKFM=F Big=F
 Integral buffers will be    131072 words long.
 Raffenetti 2 integral format.
 Two-electron integral symmetry is turned off.
 R6Disp:  Grimme-D3 Dispersion energy=       -0.0000000085 Hartrees.
 Nuclear repulsion after empirical dispersion term =        9.0550705929 Hartrees.
 No density basis found on file   718.
 Leave Link  301 at Mon Feb 20 01:46:13 2023, MaxMem=  6710886400 cpu:               1.2 elap:               0.1
 (Enter /data0/home/software/g16/l302.exe)
 NPDir=0 NMtPBC=     1 NCelOv=     1 NCel=       1 NClECP=     1 NCelD=      1
         NCelK=      1 NCelE2=     1 NClLst=     1 CellRange=     0.0.
 One-electron integrals computed using PRISM.
 NBasis=    39 RedAO= T EigKep=  3.15D-03  NBF=    39
 NBsUse=    39 1.00D-06 EigRej= -1.00D+00 NBFU=    39
 Precomputing XC quadrature grid using
 IXCGrd= 4 IRadAn=           5 IRanWt=          -1 IRanGd=           0 AccXCQ= 0.00D+00.
 Generated NRdTot=       0 NPtTot=           0 NUsed=           0 NTot=          32
 NSgBfM=    41    41    41    41    41 MxSgAt=     3 MxSgA2=     3.
 Leave Link  302 at Mon Feb 20 01:46:13 2023, MaxMem=  6710886400 cpu:               2.2 elap:               0.1
 (Enter /data0/home/software/g16/l303.exe)
 DipDrv:  MaxL=1.
 Leave Link  303 at Mon Feb 20 01:46:13 2023, MaxMem=  6710886400 cpu:               0.4 elap:               0.0
 (Enter /data0/home/software/g16/l401.exe)
 ExpMin= 8.45D-02 ExpMax= 8.59D+03 ExpMxC= 1.30D+03 IAcc=3 IRadAn=         5 AccDes= 0.00D+00
 Harris functional with IExCor= 1009 and IRadAn=       5 diagonalized for initial guess.
 HarFok:  IExCor= 1009 AccDes= 0.00D+00 IRadAn=         5 IDoV= 1 UseB2=F ITyADJ=14
 ICtDFT=  3500011 ScaDFX=  1.000000  1.000000  1.000000  1.000000
 FoFCou: FMM=F IPFlag=           0 FMFlag=      100000 FMFlg1=           0
         NFxFlg=           0 DoJE=T BraDBF=F KetDBF=T FulRan=T
         wScrn=  0.000000 ICntrl=       500 IOpCl=  0 I1Cent=   200000004 NGrid=           0
         NMat0=    1 NMatS0=      1 NMatT0=    0 NMatD0=    1 NMtDS0=    0 NMtDT0=    0
 Symmetry not used in FoFCou.
 Harris En= -76.4154351327557    
 JPrj=0 DoOrth=F DoCkMO=F.
 Leave Link  401 at Mon Feb 20 01:46:14 2023, MaxMem=  6710886400 cpu:               3.0 elap:               0.1
 (Enter /data0/home/software/g16/l502.exe)
 Keep R1 ints in memory in canonical form, NReq=21036027.
 FoFCou: FMM=F IPFlag=           0 FMFlag=           0 FMFlg1=           0
         NFxFlg=           0 DoJE=F BraDBF=F KetDBF=F FulRan=T
         wScrn=  0.000000 ICntrl=       600 IOpCl=  0 I1Cent=           0 NGrid=           0
         NMat0=    1 NMatS0=    780 NMatT0=    0 NMatD0=    1 NMtDS0=    0 NMtDT0=    0
 Symmetry not used in FoFCou.
 Two-electron integral symmetry not used.
 Closed shell SCF:
 Using DIIS extrapolation, IDIIS=  1040.
 NGot=  6710886400 LenX=  6710576925 LenY=  6710574803
 Requested convergence on RMS density matrix=1.00D-08 within 128 cycles.
 Requested convergence on MAX density matrix=1.00D-06.
 Requested convergence on             energy=1.00D-06.
 No special actions if energy rises.
 Integral accuracy reduced to 1.0D-05 until final iterations.

 Cycle   1  Pass 0  IDiag  1:
 E= -76.3452568745894    
 DIIS: error= 6.99D-02 at cycle   1 NSaved=   1.
 NSaved= 1 IEnMin= 1 EnMin= -76.3452568745894     IErMin= 1 ErrMin= 6.99D-02
 ErrMax= 6.99D-02  0.00D+00 EMaxC= 1.00D-01 BMatC= 1.20D-01 BMatP= 1.20D-01
 IDIUse=3 WtCom= 3.01D-01 WtEn= 6.99D-01
 Coeff-Com:  0.100D+01
 Coeff-En:   0.100D+01
 Coeff:      0.100D+01
 Gap=     0.323 Goal=   None    Shift=    0.000
 GapD=    0.323 DampG=1.000 DampE=0.500 DampFc=0.5000 IDamp=-1.
 Damping current iteration by 5.00D-01
 RMSDP=7.88D-03 MaxDP=1.01D-01              OVMax= 1.68D-01

 Cycle   2  Pass 0  IDiag  1:
 E= -76.3764975905931     Delta-E=       -0.031240716004 Rises=F Damp=T
 DIIS: error= 1.09D-02 at cycle   2 NSaved=   2.
 NSaved= 2 IEnMin= 2 EnMin= -76.3764975905931     IErMin= 2 ErrMin= 1.09D-02
 ErrMax= 1.09D-02  0.00D+00 EMaxC= 1.00D-01 BMatC= 4.92D-03 BMatP= 1.20D-01
 IDIUse=3 WtCom= 8.91D-01 WtEn= 1.09D-01
 Coeff-Com:  0.847D-01 0.915D+00
 Coeff-En:   0.191D+00 0.809D+00
 Coeff:      0.964D-01 0.904D+00
 Gap=     0.455 Goal=   None    Shift=    0.000
 RMSDP=9.52D-04 MaxDP=1.42D-02 DE=-3.12D-02 OVMax= 1.01D-01

 Cycle   3  Pass 0  IDiag  1:
 E= -76.4205744440139     Delta-E=       -0.044076853421 Rises=F Damp=F
 DIIS: error= 2.24D-03 at cycle   3 NSaved=   3.
 NSaved= 3 IEnMin= 3 EnMin= -76.4205744440139     IErMin= 3 ErrMin= 2.24D-03
 ErrMax= 2.24D-03  0.00D+00 EMaxC= 1.00D-01 BMatC= 9.68D-05 BMatP= 4.92D-03
 IDIUse=3 WtCom= 9.78D-01 WtEn= 2.24D-02
 Coeff-Com: -0.203D-01 0.419D-01 0.978D+00
 Coeff-En:   0.000D+00 0.000D+00 0.100D+01
 Coeff:     -0.198D-01 0.410D-01 0.979D+00
 Gap=     0.460 Goal=   None    Shift=    0.000
 RMSDP=1.18D-04 MaxDP=1.03D-03 DE=-4.41D-02 OVMax= 3.40D-03

 Cycle   4  Pass 0  IDiag  1:
 E= -76.4206566603270     Delta-E=       -0.000082216313 Rises=F Damp=F
 DIIS: error= 4.25D-04 at cycle   4 NSaved=   4.
 NSaved= 4 IEnMin= 4 EnMin= -76.4206566603270     IErMin= 4 ErrMin= 4.25D-04
 ErrMax= 4.25D-04  0.00D+00 EMaxC= 1.00D-01 BMatC= 3.52D-06 BMatP= 9.68D-05
 IDIUse=3 WtCom= 9.96D-01 WtEn= 4.25D-03
 Coeff-Com: -0.211D-02-0.201D-02 0.167D+00 0.837D+00
 Coeff-En:   0.000D+00 0.000D+00 0.000D+00 0.100D+01
 Coeff:     -0.210D-02-0.200D-02 0.167D+00 0.837D+00
 Gap=     0.460 Goal=   None    Shift=    0.000
 RMSDP=2.26D-05 MaxDP=3.57D-04 DE=-8.22D-05 OVMax= 5.47D-04

 Cycle   5  Pass 0  IDiag  1:
 E= -76.4206588304860     Delta-E=       -0.000002170159 Rises=F Damp=F
 DIIS: error= 9.32D-05 at cycle   5 NSaved=   5.
 NSaved= 5 IEnMin= 5 EnMin= -76.4206588304860     IErMin= 5 ErrMin= 9.32D-05
 ErrMax= 9.32D-05  0.00D+00 EMaxC= 1.00D-01 BMatC= 8.98D-08 BMatP= 3.52D-06
 IDIUse=1 WtCom= 1.00D+00 WtEn= 0.00D+00
 Coeff-Com:  0.121D-02-0.186D-02-0.372D-01-0.736D-01 0.111D+01
 Coeff:      0.121D-02-0.186D-02-0.372D-01-0.736D-01 0.111D+01
 Gap=     0.460 Goal=   None    Shift=    0.000
 RMSDP=9.32D-06 MaxDP=1.06D-04 DE=-2.17D-06 OVMax= 2.12D-04

 Initial convergence to 1.0D-05 achieved.  Increase integral accuracy.
 Cycle   6  Pass 1  IDiag  1:
 E= -76.4206661668608     Delta-E=       -0.000007336375 Rises=F Damp=F
 DIIS: error= 2.43D-05 at cycle   1 NSaved=   1.
 NSaved= 1 IEnMin= 1 EnMin= -76.4206661668608     IErMin= 1 ErrMin= 2.43D-05
 ErrMax= 2.43D-05  0.00D+00 EMaxC= 1.00D-01 BMatC= 1.76D-08 BMatP= 1.76D-08
 IDIUse=1 WtCom= 1.00D+00 WtEn= 0.00D+00
 Coeff-Com:  0.100D+01
 Coeff:      0.100D+01
 Gap=     0.460 Goal=   None    Shift=    0.000
 RMSDP=9.32D-06 MaxDP=1.06D-04 DE=-7.34D-06 OVMax= 4.82D-05

 Cycle   7  Pass 1  IDiag  1:
 E= -76.4206661804174     Delta-E=       -0.000000013557 Rises=F Damp=F
 DIIS: error= 9.86D-06 at cycle   2 NSaved=   2.
 NSaved= 2 IEnMin= 2 EnMin= -76.4206661804174     IErMin= 2 ErrMin= 9.86D-06
 ErrMax= 9.86D-06  0.00D+00 EMaxC= 1.00D-01 BMatC= 1.32D-09 BMatP= 1.76D-08
 IDIUse=1 WtCom= 1.00D+00 WtEn= 0.00D+00
 Coeff-Com:  0.526D-01 0.947D+00
 Coeff:      0.526D-01 0.947D+00
 Gap=     0.460 Goal=   None    Shift=    0.000
 RMSDP=7.62D-07 MaxDP=1.32D-05 DE=-1.36D-08 OVMax= 2.05D-05

 Cycle   8  Pass 1  IDiag  1:
 E= -76.4206661806577     Delta-E=       -0.000000000240 Rises=F Damp=F
 DIIS: error= 7.02D-06 at cycle   3 NSaved=   3.
 NSaved= 3 IEnMin= 3 EnMin= -76.4206661806577     IErMin= 3 ErrMin= 7.02D-06
 ErrMax= 7.02D-06  0.00D+00 EMaxC= 1.00D-01 BMatC= 1.23D-09 BMatP= 1.32D-09
 IDIUse=1 WtCom= 1.00D+00 WtEn= 0.00D+00
 Coeff-Com: -0.488D-01 0.505D+00 0.544D+00
 Coeff:     -0.488D-01 0.505D+00 0.544D+00
 Gap=     0.460 Goal=   None    Shift=    0.000
 RMSDP=3.96D-07 MaxDP=5.31D-06 DE=-2.40D-10 OVMax= 9.64D-06

 Cycle   9  Pass 1  IDiag  1:
 E= -76.4206661814700     Delta-E=       -0.000000000812 Rises=F Damp=F
 DIIS: error= 6.85D-07 at cycle   4 NSaved=   4.
 NSaved= 4 IEnMin= 4 EnMin= -76.4206661814700     IErMin= 4 ErrMin= 6.85D-07
 ErrMax= 6.85D-07  0.00D+00 EMaxC= 1.00D-01 BMatC= 5.88D-12 BMatP= 1.23D-09
 IDIUse=1 WtCom= 1.00D+00 WtEn= 0.00D+00
 Coeff-Com: -0.152D-02-0.241D-01 0.248D-01 0.100D+01
 Coeff:     -0.152D-02-0.241D-01 0.248D-01 0.100D+01
 Gap=     0.460 Goal=   None    Shift=    0.000
 RMSDP=7.04D-08 MaxDP=5.59D-07 DE=-8.12D-10 OVMax= 1.62D-06

 Cycle  10  Pass 1  IDiag  1:
 E= -76.4206661814795     Delta-E=       -0.000000000009 Rises=F Damp=F
 DIIS: error= 9.06D-08 at cycle   5 NSaved=   5.
 NSaved= 5 IEnMin= 5 EnMin= -76.4206661814795     IErMin= 5 ErrMin= 9.06D-08
 ErrMax= 9.06D-08  0.00D+00 EMaxC= 1.00D-01 BMatC= 3.56D-13 BMatP= 5.88D-12
 IDIUse=1 WtCom= 1.00D+00 WtEn= 0.00D+00
 Coeff-Com:  0.368D-02-0.454D-01-0.432D-01 0.825D-01 0.100D+01
 Coeff:      0.368D-02-0.454D-01-0.432D-01 0.825D-01 0.100D+01
 Gap=     0.460 Goal=   None    Shift=    0.000
 RMSDP=2.61D-08 MaxDP=2.16D-07 DE=-9.49D-12 OVMax= 5.66D-07

 Cycle  11  Pass 1  IDiag  1:
 E= -76.4206661814803     Delta-E=       -0.000000000001 Rises=F Damp=F
 DIIS: error= 9.22D-09 at cycle   6 NSaved=   6.
 NSaved= 6 IEnMin= 6 EnMin= -76.4206661814803     IErMin= 6 ErrMin= 9.22D-09
 ErrMax= 9.22D-09  0.00D+00 EMaxC= 1.00D-01 BMatC= 3.45D-15 BMatP= 3.56D-13
 IDIUse=1 WtCom= 1.00D+00 WtEn= 0.00D+00
 Coeff-Com: -0.768D-04 0.211D-02 0.348D-03-0.212D-01-0.357D-01 0.105D+01
 Coeff:     -0.768D-04 0.211D-02 0.348D-03-0.212D-01-0.357D-01 0.105D+01
 Gap=     0.460 Goal=   None    Shift=    0.000
 RMSDP=3.28D-09 MaxDP=3.14D-08 DE=-8.24D-13 OVMax= 5.72D-08

 SCF Done:  E(RM062X) =  -76.4206661815     A.U. after   11 cycles
            NFock= 11  Conv=0.33D-08     -V/T= 2.0032
 KE= 7.617771158902D+01 PE=-1.989554150718D+02 EE= 3.730196670833D+01
 Leave Link  502 at Mon Feb 20 01:46:14 2023, MaxMem=  6710886400 cpu:               8.8 elap:               0.4
 (Enter /data0/home/software/g16/l601.exe)
 Copying SCF densities to generalized density rwf, IOpCl= 0 IROHF=0.

 **********************************************************************

            Population analysis using the SCF density.

 **********************************************************************

 Alpha  occ. eigenvalues --  -19.62634  -1.13078  -0.60701  -0.47246  -0.39917
 Alpha virt. eigenvalues --    0.06132   0.13233   0.17401   0.17959   0.18968
 Alpha virt. eigenvalues --    0.23238   0.49907   0.53919   0.97765   1.00516
 Alpha virt. eigenvalues --    1.06027   1.19226   1.19572   1.32675   1.34118
 Alpha virt. eigenvalues --    1.68548   1.73454   1.75912   2.05923   2.10127
 Alpha virt. eigenvalues --    2.34277   2.42870   2.53900   2.87208   3.01053
 Alpha virt. eigenvalues --    5.05677   5.45904   5.91615   6.78150   6.80427
 Alpha virt. eigenvalues --    6.86875   6.91391   7.10061  49.95544
          Condensed to atoms (all electrons):
               4          5          6
     4  O    7.920778   0.324436   0.316189
     5  H    0.324436   0.422858  -0.024283
     6  H    0.316189  -0.024283   0.423680
 Mulliken charges:
               1
     1  O    0.000000
     2  H    0.000000
     3  H    0.000000
     4  O   -0.561403
     5  H    0.276989
     6  H    0.284414
 Sum of Mulliken charges =  -0.00000
 Mulliken charges with hydrogens summed into heavy atoms:
               1
     1  O    0.000000
     4  O   -0.000000
         Mulliken charges condensed to fragments:
      1      0.000000
      2     -0.000000
 Electronic spatial extent (au):  <R**2>=          19519.0726
 Charge=             -0.0000 electrons
 Dipole moment (field-independent basis, Debye):
    X=              1.8516    Y=              0.1140    Z=             -0.9961  Tot=              2.1057
 Quadrupole moment (field-independent basis, Debye-Ang):
   XX=             36.8773   YY=             -3.5749   ZZ=            -46.1124
   XY=             10.7771   XZ=             24.0683   YZ=             -1.6620
 Traceless Quadrupole moment (field-independent basis, Debye-Ang):
   XX=             41.1473   YY=              0.6951   ZZ=            -41.8424
   XY=             10.7771   XZ=             24.0683   YZ=             -1.6620
 Octapole moment (field-independent basis, Debye-Ang**2):
  XXX=            533.9448  YYY=            -60.8421  ZZZ=          -1563.7496  XYY=              7.1389
  XXY=            205.0346  XXZ=            572.9297  XZZ=            149.5428  YZZ=           -144.0242
  YYZ=            -84.8216  XYZ=            163.1411
 Hexadecapole moment (field-independent basis, Debye-Ang**3):
 XXXX=           6554.6916 YYYY=           -630.4483 ZZZZ=         -46319.9777 XXXY=           2953.5093
 XXXZ=           8629.5644 YYYX=           -454.1083 YYYZ=          -1245.5890 ZZZX=          -5007.4499
 ZZZY=          -5696.2886 XXYY=            500.2119 XXZZ=           7323.4924 YYZZ=          -2127.9903
 XXYZ=           3426.0070 YYXZ=            -43.6572 ZZXY=           1844.7553
 N-N= 9.055070592926D+00 E-N=-1.989554148993D+02  KE= 7.617771158902D+01
 No NMR shielding tensors so no spin-rotation constants.
 Leave Link  601 at Mon Feb 20 01:46:14 2023, MaxMem=  6710886400 cpu:               1.7 elap:               0.1
 (Enter /data0/home/software/g16/l122.exe)
 CPIOFr:  IOpCl= 0 IRwI=-1 IRwCP=  731 ICalc=  4 LCPTot=       10496 Len1MO=       26312 IndFrg=      142056
 Restoring MOs from calculation   1 to rwf.
 CPIOFr:  IOpCl= 0 IRwI=-2 IRwCP=  731 ICalc=  0 LCPTot=       10496 Len1MO=       26312 IndFrg=       36808
 Counterpoise corrected energy =    -152.841939773576
                   BSSE energy =       0.000000640744
              sum of fragments =    -152.842460863969
           complexation energy =       0.33 kcal/mole (raw)
           complexation energy =       0.33 kcal/mole (corrected)
 Leave Link  122 at Mon Feb 20 01:46:14 2023, MaxMem=  6710886400 cpu:               0.1 elap:               0.0
 (Enter /data0/home/software/g16/l9999.exe)
 1\1\GINC-LOCALHOST\SP\RM062X\6-311+G(2d,p)\H4O2\WUHANYU\20-Feb-2023\0\
 \#p M062X/6-311+G(2d,p) nosymm em=GD3 counterpoise=2\\Title Card Requi
 red\\0,1\O,0,11.297737,-0.970458,17.647298\H,0,12.106548,-0.479341,17.
 866512\H,0,11.161057,-0.749618,16.721483\O,0,11.66087,4.917753,19.6397
 94\H,0,12.236236,5.670599,19.609106\H,0,12.122884,4.213697,19.106511\\
 Version=ES64L-G16RevA.03\HF=-76.4206662\RMSD=3.277e-09\Dipole=1.188187
 5,0.5403626,-0.882499\Quadrupole=55.2637343,2.9853323,-58.2490667,18.4
 550496,23.4353774,16.0690109\PG=C01 [X(H4O2)]\\@


 A DANDELION FROM A LOVER MEANS MORE THAN AN ORCHID FROM A FRIEND.
 Job cpu time:       0 days  0 hours  1 minutes 55.3 seconds.
 Elapsed time:       0 days  0 hours  0 minutes  5.7 seconds.
 File lengths (MBytes):  RWF=     10 Int=      0 D2E=      0 Chk=      3 Scr=      1
 Normal termination of Gaussian 16 at Mon Feb 20 01:46:14 2023.
