 Entering Gaussian System, Link 0=g16
 Initial command:
 /data0/hywu0/study/g16/l1.exe "/data0/hywu0/study/g16/scratch/Gau-3855339.inp" -scrdir="/data0/hywu0/study/g16/scratch/"
 Default is to use a total of  16 processors:
                               16 via shared-memory
                                1 via Linda
 Entering Link 1 = /data0/hywu0/study/g16/l1.exe PID=   3855340.
  
 Copyright (c) 1988,1990,1992,1993,1995,1998,2003,2009,2016,
            Gaussian, Inc.  All Rights Reserved.
  
 This is part of the Gaussian(R) 16 program.  It is based on
 the Gaussian(R) 09 system (copyright 2009, Gaussian, Inc.),
 the Gaussian(R) 03 system (copyright 2003, Gaussian, Inc.),
 the Gaussian(R) 98 system (copyright 1998, Gaussian, Inc.),
 the Gaussian(R) 94 system (copyright 1995, Gaussian, Inc.),
 the Gaussian 92(TM) system (copyright 1992, Gaussian, Inc.),
 the Gaussian 90(TM) system (copyright 1990, Gaussian, Inc.),
 the Gaussian 88(TM) system (copyright 1988, Gaussian, Inc.),
 the Gaussian 86(TM) system (copyright 1986, Carnegie Mellon
 University), and the Gaussian 82(TM) system (copyright 1983,
 Carnegie Mellon University). Gaussian is a federally registered
 trademark of Gaussian, Inc.
  
 This software contains proprietary and confidential information,
 including trade secrets, belonging to Gaussian, Inc.
  
 This software is provided under written license and may be
 used, copied, transmitted, or stored only in accord with that
 written license.
  
 The following legend is applicable only to US Government
 contracts under FAR:
  
                    RESTRICTED RIGHTS LEGEND
  
 Use, reproduction and disclosure by the US Government is
 subject to restrictions as set forth in subparagraphs (a)
 and (c) of the Commercial Computer Software - Restricted
 Rights clause in FAR 52.227-19.
  
 Gaussian, Inc.
 340 Quinnipiac St., Bldg. 40, Wallingford CT 06492
  
  
 ---------------------------------------------------------------
 Warning -- This program may not be used in any manner that
 competes with the business of Gaussian, Inc. or will provide
 assistance to any competitor of Gaussian, Inc.  The licensee
 of this program is prohibited from giving any competitor of
 Gaussian, Inc. access to this program.  By using this program,
 the user acknowledges that Gaussian, Inc. is engaged in the
 business of creating and licensing software in the field of
 computational chemistry and represents and warrants to the
 licensee that it is not a competitor of Gaussian, Inc. and that
 it will not use this program in any manner prohibited above.
 ---------------------------------------------------------------
  

 Cite this work as:
 Gaussian 16, Revision A.03,
 M. J. Frisch, G. W. Trucks, H. B. Schlegel, G. E. Scuseria, 
 M. A. Robb, J. R. Cheeseman, G. Scalmani, V. Barone, 
 G. A. Petersson, H. Nakatsuji, X. Li, M. Caricato, A. V. Marenich, 
 J. Bloino, B. G. Janesko, R. Gomperts, B. Mennucci, H. P. Hratchian, 
 J. V. Ortiz, A. F. Izmaylov, J. L. Sonnenberg, D. Williams-Young, 
 F. Ding, F. Lipparini, F. Egidi, J. Goings, B. Peng, A. Petrone, 
 T. Henderson, D. Ranasinghe, V. G. Zakrzewski, J. Gao, N. Rega, 
 G. Zheng, W. Liang, M. Hada, M. Ehara, K. Toyota, R. Fukuda, 
 J. Hasegawa, M. Ishida, T. Nakajima, Y. Honda, O. Kitao, H. Nakai, 
 T. Vreven, K. Throssell, J. A. Montgomery, Jr., J. E. Peralta, 
 F. Ogliaro, M. J. Bearpark, J. J. Heyd, E. N. Brothers, K. N. Kudin, 
 V. N. Staroverov, T. A. Keith, R. Kobayashi, J. Normand, 
 K. Raghavachari, A. P. Rendell, J. C. Burant, S. S. Iyengar, 
 J. Tomasi, M. Cossi, J. M. Millam, M. Klene, C. Adamo, R. Cammi, 
 J. W. Ochterski, R. L. Martin, K. Morokuma, O. Farkas, 
 J. B. Foresman, and D. J. Fox, Gaussian, Inc., Wallingford CT, 2016.
 
 ******************************************
 Gaussian 16:  ES64L-G16RevA.03 25-Dec-2016
                28-Apr-2022 
 ******************************************
 %chk=PA_PA.chk
 %nproc=16
 Will use up to   16 processors via shared memory.
 %mem=80000MB
 ---------------------------------------------------
 #p M062X/6-311+G(2d,p) nosymm em=GD3 counterpoise=2
 ---------------------------------------------------
 1/38=1,62=2,172=1/1;
 2/12=2,15=1,17=6,18=5,40=1/2;
 1/38=1,53=2,62=2,63=1/22;
 3/5=4,6=6,7=112,11=2,25=1,30=1,74=-55,124=31/1,2,3;
 4//1;
 5/5=2,38=5/2;
 6/7=2,8=2,9=2,10=2,28=1/1;
 1/53=2,62=2,63=1/22;
 3/5=7,6=11,7=112,11=2,25=1,30=1,74=-55,82=7,124=31/1,2,3;
 4//1;
 5/5=2,38=5/2;
 6/7=2,8=2,9=2,10=2,28=1/1;
 1/53=2,62=2,63=1/22(-4);
 99/5=1,9=1/99;
 Leave Link    1 at Thu Apr 28 09:49:23 2022, MaxMem= 10485760000 cpu:               0.5 elap:               0.0
 (Enter /data0/hywu0/study/g16/l101.exe)
 -------------------
 Title Card Required
 -------------------
 Symbolic Z-matrix:
 Charge =  0 Multiplicity = 1 in supermolecule
 Charge =  0 Multiplicity = 1 in fragment      1.
 Charge =  0 Multiplicity = 1 in fragment      2.
 P                     4.80326   6.25044   4.59212    
 O                     5.15011   5.02353   5.29572    
 O                     3.84517   7.16995   5.46183    
 H                     3.56695   7.98191   4.89411    
 O                     5.97866   7.18951   4.07898    
 H                     6.76213   7.15712   4.75234    
 O                     3.94932   6.10197   3.24919    
 H                     4.56257   5.72764   2.51813    
 P                     8.49314   5.73337   6.87253    
 O                     8.14289   6.96313   6.17574    
 O                     7.31993   4.79214   7.38709    
 H                     6.53436   4.8259    6.71646    
 O                     9.44696   4.81787   5.99396    
 H                     9.73204   4.00579   6.55798    
 O                     9.3531    5.87661   8.21213    
 H                     8.7394    6.23312   8.95169    
 
 ITRead=  0  0  0  0  0  0  0  0  0  0  0  0  0  0  0  0
 MicOpt= -1 -1 -1 -1 -1 -1 -1 -1 -1 -1 -1 -1 -1 -1 -1 -1
 NAtoms=     16 NQM=       16 NQMF=       0 NMMI=      0 NMMIF=      0
                NMic=       0 NMicF=      0.
                    Isotopes and Nuclear Properties:
 (Nuclear quadrupole moments (NQMom) in fm**2, nuclear magnetic moments (NMagM)
  in nuclear magnetons)

  Atom         1           2           3           4           5           6           7           8           9          10
 IAtWgt=          31          16          16           1          16           1          16           1          31          16
 AtmWgt=  30.9737634  15.9949146  15.9949146   1.0078250  15.9949146   1.0078250  15.9949146   1.0078250  30.9737634  15.9949146
 NucSpn=           1           0           0           1           0           1           0           1           1           0
 AtZEff=  -0.0000000  -0.0000000  -0.0000000  -0.0000000  -0.0000000  -0.0000000  -0.0000000  -0.0000000  -0.0000000  -0.0000000
 NQMom=    0.0000000   0.0000000   0.0000000   0.0000000   0.0000000   0.0000000   0.0000000   0.0000000   0.0000000   0.0000000
 NMagM=    1.1316000   0.0000000   0.0000000   2.7928460   0.0000000   2.7928460   0.0000000   2.7928460   1.1316000   0.0000000
 AtZNuc=  15.0000000   8.0000000   8.0000000   1.0000000   8.0000000   1.0000000   8.0000000   1.0000000  15.0000000   8.0000000

  Atom        11          12          13          14          15          16
 IAtWgt=          16           1          16           1          16           1
 AtmWgt=  15.9949146   1.0078250  15.9949146   1.0078250  15.9949146   1.0078250
 NucSpn=           0           1           0           1           0           1
 AtZEff=  -0.0000000  -0.0000000  -0.0000000  -0.0000000  -0.0000000  -0.0000000
 NQMom=    0.0000000   0.0000000   0.0000000   0.0000000   0.0000000   0.0000000
 NMagM=    0.0000000   2.7928460   0.0000000   2.7928460   0.0000000   2.7928460
 AtZNuc=   8.0000000   1.0000000   8.0000000   1.0000000   8.0000000   1.0000000
 Leave Link  101 at Thu Apr 28 09:49:23 2022, MaxMem= 10485760000 cpu:               1.3 elap:               0.1
 (Enter /data0/hywu0/study/g16/l202.exe)
                          Input orientation:                          
 ---------------------------------------------------------------------
 Center     Atomic      Atomic             Coordinates (Angstroms)
 Number     Number       Type             X           Y           Z
 ---------------------------------------------------------------------
      1         15           0        4.803260    6.250443    4.592121
      2          8           0        5.150113    5.023530    5.295719
      3          8           0        3.845172    7.169950    5.461831
      4          1           0        3.566952    7.981911    4.894105
      5          8           0        5.978656    7.189511    4.078980
      6          1           0        6.762131    7.157121    4.752342
      7          8           0        3.949323    6.101974    3.249193
      8          1           0        4.562574    5.727641    2.518133
      9         15           0        8.493135    5.733366    6.872528
     10          8           0        8.142893    6.963129    6.175736
     11          8           0        7.319934    4.792141    7.387094
     12          1           0        6.534361    4.825899    6.716460
     13          8           0        9.446961    4.817867    5.993963
     14          1           0        9.732042    4.005793    6.557978
     15          8           0        9.353098    5.876610    8.212125
     16          1           0        8.739398    6.233116    8.951694
 ---------------------------------------------------------------------
                    Distance matrix (angstroms):
                    1          2          3          4          5
     1  P    0.000000
     2  O    1.456253   0.000000
     3  O    1.587394   2.517456   0.000000
     4  H    2.148868   3.379306   1.029077   0.000000
     5  O    1.589565   2.618857   2.542521   2.666204   0.000000
     6  H    2.164466   2.728749   3.002031   3.302960   1.033585
     7  O    1.598345   2.606378   2.459103   2.527075   2.447341
     8  H    2.152366   2.925057   3.355634   3.423191   2.564877
     9  P    4.368387   3.763773   5.065313   5.765188   4.030741
    10  O    3.764161   3.673310   4.361518   4.860013   3.021847
    11  O    4.033877   3.022501   4.629750   5.520371   4.300003
    12  H    3.088503   1.993416   3.781588   4.699671   3.584937
    13  O    5.057805   4.358067   6.098811   6.767227   4.617466
    14  H    5.761592   4.860366   6.772641   7.522388   5.510844
    15  O    5.826251   5.186353   6.290794   6.994357   5.494857
    16  H    5.873616   5.264240   6.083605   6.802684   5.681525
                    6          7          8          9         10
     6  H    0.000000
     7  O    3.359268   0.000000
     8  H    3.445744   1.025013   0.000000
     9  P    3.085230   5.823286   5.866012   0.000000
    10  O    1.992533   5.185776   5.265280   1.456196   0.000000
    11  O    3.584159   5.495353   5.673180   1.589680   2.618748
    12  H    3.056834   4.509183   4.725149   2.164405   2.729013
    13  O    3.771213   6.277477   6.063524   1.587387   2.517098
    14  H    4.691648   6.984402   6.782957   2.149033   3.378955
    15  O    4.508095   7.340454   7.442638   1.598304   2.606147
    16  H    4.732645   7.448526   7.687137   2.152516   2.931668
                   11         12         13         14         15
    11  O    0.000000
    12  H    1.033448   0.000000
    13  O    2.542778   3.000884   0.000000
    14  H    2.669090   3.304974   1.029004   0.000000
    15  O    2.447551   3.359507   2.459673   2.525818   0.000000
    16  H    2.557198   3.440744   3.354363   3.417043   1.025030
                   16
    16  H    0.000000
 Symmetry turned off by external request.
 Stoichiometry    H6O8P2
 Framework group  C1[X(H6O8P2)]
 Deg. of freedom    42
 Full point group                 C1      NOp   1
 Rotational constants (GHZ):           2.2643035           0.4121488           0.4088750
 Leave Link  202 at Thu Apr 28 09:49:23 2022, MaxMem= 10485760000 cpu:               0.1 elap:               0.0
 (Enter /data0/hywu0/study/g16/l122.exe)
 Counterpoise: doing full-system calculation.
 Leave Link  122 at Thu Apr 28 09:49:23 2022, MaxMem= 10485760000 cpu:               0.0 elap:               0.0
 (Enter /data0/hywu0/study/g16/l301.exe)
 Standard basis: 6-311+G(2d,p) (5D, 7F)
 Ernie: Thresh=  0.10000D-02 Tol=  0.10000D-05 Strict=F.
   322 basis functions,   496 primitive gaussians,   342 cartesian basis functions
    50 alpha electrons       50 beta electrons
       nuclear repulsion energy       850.1405529296 Hartrees.
 IExCor= 4336 DFT=T Ex+Corr=M062X ExCW=0 ScaHFX=  0.540000
 ScaDFX=  1.000000  1.000000  1.000000  1.000000 ScalE2=  1.000000  1.000000
 IRadAn=      5 IRanWt=     -1 IRanGd=            0 ICorTp=0 IEmpDi=131
 NAtoms=   16 NActive=   16 NUniq=   16 SFac= 1.00D+00 NAtFMM=   60 NAOKFM=F Big=F
 Integral buffers will be    131072 words long.
 Raffenetti 2 integral format.
 Two-electron integral symmetry is turned off.
 R6Disp:  Grimme-D3 Dispersion energy=       -0.0004804140 Hartrees.
 Nuclear repulsion after empirical dispersion term =      850.1400725155 Hartrees.
 Leave Link  301 at Thu Apr 28 09:49:23 2022, MaxMem= 10485760000 cpu:               0.8 elap:               0.1
 (Enter /data0/hywu0/study/g16/l302.exe)
 NPDir=0 NMtPBC=     1 NCelOv=     1 NCel=       1 NClECP=     1 NCelD=      1
         NCelK=      1 NCelE2=     1 NClLst=     1 CellRange=     0.0.
 One-electron integrals computed using PRISM.
 NBasis=   322 RedAO= T EigKep=  3.59D-04  NBF=   322
 NBsUse=   322 1.00D-06 EigRej= -1.00D+00 NBFU=   322
 Precomputing XC quadrature grid using
 IXCGrd= 4 IRadAn=           5 IRanWt=          -1 IRanGd=           0 AccXCQ= 0.00D+00.
 Generated NRdTot=       0 NPtTot=           0 NUsed=           0 NTot=          32
 NSgBfM=   340   340   340   340   340 MxSgAt=    16 MxSgA2=    16.
 Leave Link  302 at Thu Apr 28 09:49:23 2022, MaxMem= 10485760000 cpu:               2.9 elap:               0.2
 (Enter /data0/hywu0/study/g16/l303.exe)
 DipDrv:  MaxL=1.
 Leave Link  303 at Thu Apr 28 09:49:23 2022, MaxMem= 10485760000 cpu:               0.5 elap:               0.1
 (Enter /data0/hywu0/study/g16/l401.exe)
 ExpMin= 3.48D-02 ExpMax= 7.75D+04 ExpMxC= 2.65D+03 IAcc=3 IRadAn=         5 AccDes= 0.00D+00
 Harris functional with IExCor= 1009 and IRadAn=       5 diagonalized for initial guess.
 HarFok:  IExCor= 1009 AccDes= 0.00D+00 IRadAn=         5 IDoV= 1 UseB2=F ITyADJ=14
 ICtDFT=  3500011 ScaDFX=  1.000000  1.000000  1.000000  1.000000
 FoFCou: FMM=F IPFlag=           0 FMFlag=      100000 FMFlg1=           0
         NFxFlg=           0 DoJE=T BraDBF=F KetDBF=T FulRan=T
         wScrn=  0.000000 ICntrl=       500 IOpCl=  0 I1Cent=   200000004 NGrid=           0
         NMat0=    1 NMatS0=      1 NMatT0=    0 NMatD0=    1 NMtDS0=    0 NMtDT0=    0
 Symmetry not used in FoFCou.
 Harris En= -1287.89664965501    
 JPrj=0 DoOrth=F DoCkMO=F.
 Leave Link  401 at Thu Apr 28 09:49:24 2022, MaxMem= 10485760000 cpu:              11.9 elap:               0.8
 (Enter /data0/hywu0/study/g16/l502.exe)
 Two-electron integral symmetry not used.
 Closed shell SCF:
 Using DIIS extrapolation, IDIIS=  1040.
 NGot= 10485760000 LenX= 10485518222 LenY= 10485400817
 Requested convergence on RMS density matrix=1.00D-08 within 128 cycles.
 Requested convergence on MAX density matrix=1.00D-06.
 Requested convergence on             energy=1.00D-06.
 No special actions if energy rises.
 Fock matrices will be formed incrementally for  20 cycles.

 Cycle   1  Pass 1  IDiag  1:
 FoFJK:  IHMeth= 1 ICntrl=       0 DoSepK=F KAlg= 0 I1Cent=           0 FoldK=F
 IRaf= 850000000 NMat=       1 IRICut=       1 DoRegI=T DoRafI=F ISym2E= 0 IDoP0=0 IntGTp=1.
 FoFCou: FMM=F IPFlag=           0 FMFlag=      100000 FMFlg1=           0
         NFxFlg=           0 DoJE=F BraDBF=F KetDBF=F FulRan=T
         wScrn=  0.000000 ICntrl=         0 IOpCl=  0 I1Cent=           0 NGrid=           0
         NMat0=    1 NMatS0=      1 NMatT0=    0 NMatD0=    1 NMtDS0=    0 NMtDT0=    0
 Symmetry not used in FoFCou.
 E= -1287.82165222018    
 DIIS: error= 4.43D-02 at cycle   1 NSaved=   1.
 NSaved= 1 IEnMin= 1 EnMin= -1287.82165222018     IErMin= 1 ErrMin= 4.43D-02
 ErrMax= 4.43D-02  0.00D+00 EMaxC= 1.00D-01 BMatC= 9.73D-01 BMatP= 9.73D-01
 IDIUse=3 WtCom= 5.57D-01 WtEn= 4.43D-01
 Coeff-Com:  0.100D+01
 Coeff-En:   0.100D+01
 Coeff:      0.100D+01
 Gap=     0.320 Goal=   None    Shift=    0.000
 GapD=    0.320 DampG=1.000 DampE=0.500 DampFc=0.5000 IDamp=-1.
 Damping current iteration by 5.00D-01
 RMSDP=4.21D-03 MaxDP=1.38D-01              OVMax= 2.04D-01

 Cycle   2  Pass 1  IDiag  1:
 RMSU=  2.11D-03    CP:  1.00D+00
 E= -1288.05175713727     Delta-E=       -0.230104917092 Rises=F Damp=T
 DIIS: error= 1.01D-02 at cycle   2 NSaved=   2.
 NSaved= 2 IEnMin= 2 EnMin= -1288.05175713727     IErMin= 2 ErrMin= 1.01D-02
 ErrMax= 1.01D-02  0.00D+00 EMaxC= 1.00D-01 BMatC= 4.42D-02 BMatP= 9.73D-01
 IDIUse=3 WtCom= 8.99D-01 WtEn= 1.01D-01
 Coeff-Com:  0.419D-01 0.958D+00
 Coeff-En:   0.153D+00 0.847D+00
 Coeff:      0.531D-01 0.947D+00
 Gap=     0.389 Goal=   None    Shift=    0.000
 RMSDP=9.21D-04 MaxDP=3.54D-02 DE=-2.30D-01 OVMax= 1.15D-01

 Cycle   3  Pass 1  IDiag  1:
 RMSU=  7.60D-04    CP:  9.91D-01  7.61D-01
 E= -1288.34371950853     Delta-E=       -0.291962371263 Rises=F Damp=F
 DIIS: error= 4.23D-03 at cycle   3 NSaved=   3.
 NSaved= 3 IEnMin= 3 EnMin= -1288.34371950853     IErMin= 3 ErrMin= 4.23D-03
 ErrMax= 4.23D-03  0.00D+00 EMaxC= 1.00D-01 BMatC= 1.10D-02 BMatP= 4.42D-02
 IDIUse=3 WtCom= 9.58D-01 WtEn= 4.23D-02
 Coeff-Com: -0.277D-01 0.269D+00 0.758D+00
 Coeff-En:   0.000D+00 0.000D+00 0.100D+01
 Coeff:     -0.265D-01 0.258D+00 0.769D+00
 Gap=     0.381 Goal=   None    Shift=    0.000
 RMSDP=3.53D-04 MaxDP=1.26D-02 DE=-2.92D-01 OVMax= 2.71D-02

 Cycle   4  Pass 1  IDiag  1:
 RMSU=  3.05D-04    CP:  9.92D-01  8.35D-01  8.86D-01
 E= -1288.34746551828     Delta-E=       -0.003746009747 Rises=F Damp=F
 DIIS: error= 3.49D-03 at cycle   4 NSaved=   4.
 NSaved= 4 IEnMin= 4 EnMin= -1288.34746551828     IErMin= 4 ErrMin= 3.49D-03
 ErrMax= 3.49D-03  0.00D+00 EMaxC= 1.00D-01 BMatC= 5.83D-03 BMatP= 1.10D-02
 IDIUse=3 WtCom= 9.65D-01 WtEn= 3.49D-02
 Coeff-Com: -0.207D-01 0.497D-01 0.451D+00 0.520D+00
 Coeff-En:   0.000D+00 0.000D+00 0.346D+00 0.654D+00
 Coeff:     -0.200D-01 0.480D-01 0.447D+00 0.525D+00
 Gap=     0.385 Goal=   None    Shift=    0.000
 RMSDP=1.58D-04 MaxDP=5.70D-03 DE=-3.75D-03 OVMax= 1.10D-02

 Cycle   5  Pass 1  IDiag  1:
 RMSU=  4.70D-05    CP:  9.91D-01  8.18D-01  9.70D-01  5.67D-01
 E= -1288.35132702901     Delta-E=       -0.003861510731 Rises=F Damp=F
 DIIS: error= 2.55D-04 at cycle   5 NSaved=   5.
 NSaved= 5 IEnMin= 5 EnMin= -1288.35132702901     IErMin= 5 ErrMin= 2.55D-04
 ErrMax= 2.55D-04  0.00D+00 EMaxC= 1.00D-01 BMatC= 3.38D-05 BMatP= 5.83D-03
 IDIUse=3 WtCom= 9.97D-01 WtEn= 2.55D-03
 Coeff-Com: -0.289D-02 0.261D-02 0.856D-01 0.136D+00 0.779D+00
 Coeff-En:   0.000D+00 0.000D+00 0.000D+00 0.000D+00 0.100D+01
 Coeff:     -0.288D-02 0.261D-02 0.854D-01 0.136D+00 0.779D+00
 Gap=     0.382 Goal=   None    Shift=    0.000
 RMSDP=1.87D-05 MaxDP=9.89D-04 DE=-3.86D-03 OVMax= 7.21D-04

 Cycle   6  Pass 1  IDiag  1:
 RMSU=  1.47D-05    CP:  9.91D-01  8.15D-01  9.75D-01  5.92D-01  8.99D-01
 E= -1288.35135069552     Delta-E=       -0.000023666513 Rises=F Damp=F
 DIIS: error= 5.90D-05 at cycle   6 NSaved=   6.
 NSaved= 6 IEnMin= 6 EnMin= -1288.35135069552     IErMin= 6 ErrMin= 5.90D-05
 ErrMax= 5.90D-05  0.00D+00 EMaxC= 1.00D-01 BMatC= 1.99D-06 BMatP= 3.38D-05
 IDIUse=1 WtCom= 1.00D+00 WtEn= 0.00D+00
 Coeff-Com: -0.197D-03-0.882D-03 0.103D-01 0.219D-01 0.235D+00 0.733D+00
 Coeff:     -0.197D-03-0.882D-03 0.103D-01 0.219D-01 0.235D+00 0.733D+00
 Gap=     0.382 Goal=   None    Shift=    0.000
 RMSDP=5.24D-06 MaxDP=2.27D-04 DE=-2.37D-05 OVMax= 1.96D-04

 Cycle   7  Pass 1  IDiag  1:
 RMSU=  2.55D-06    CP:  9.91D-01  8.15D-01  9.76D-01  5.95D-01  9.84D-01
                    CP:  9.28D-01
 E= -1288.35135221016     Delta-E=       -0.000001514637 Rises=F Damp=F
 DIIS: error= 1.56D-05 at cycle   7 NSaved=   7.
 NSaved= 7 IEnMin= 7 EnMin= -1288.35135221016     IErMin= 7 ErrMin= 1.56D-05
 ErrMax= 1.56D-05  0.00D+00 EMaxC= 1.00D-01 BMatC= 1.24D-07 BMatP= 1.99D-06
 IDIUse=1 WtCom= 1.00D+00 WtEn= 0.00D+00
 Coeff-Com:  0.289D-03-0.498D-03-0.799D-02-0.108D-01-0.233D-01 0.146D+00
 Coeff-Com:  0.896D+00
 Coeff:      0.289D-03-0.498D-03-0.799D-02-0.108D-01-0.233D-01 0.146D+00
 Coeff:      0.896D+00
 Gap=     0.382 Goal=   None    Shift=    0.000
 RMSDP=1.74D-06 MaxDP=5.19D-05 DE=-1.51D-06 OVMax= 7.33D-05

 Cycle   8  Pass 1  IDiag  1:
 RMSU=  1.08D-06    CP:  9.91D-01  8.14D-01  9.77D-01  5.95D-01  9.98D-01
                    CP:  9.97D-01  1.14D+00
 E= -1288.35135230551     Delta-E=       -0.000000095353 Rises=F Damp=F
 DIIS: error= 9.51D-06 at cycle   8 NSaved=   8.
 NSaved= 8 IEnMin= 8 EnMin= -1288.35135230551     IErMin= 8 ErrMin= 9.51D-06
 ErrMax= 9.51D-06  0.00D+00 EMaxC= 1.00D-01 BMatC= 3.95D-08 BMatP= 1.24D-07
 IDIUse=1 WtCom= 1.00D+00 WtEn= 0.00D+00
 Coeff-Com:  0.141D-03-0.200D-03-0.428D-02-0.599D-02-0.192D-01 0.407D-01
 Coeff-Com:  0.451D+00 0.537D+00
 Coeff:      0.141D-03-0.200D-03-0.428D-02-0.599D-02-0.192D-01 0.407D-01
 Coeff:      0.451D+00 0.537D+00
 Gap=     0.382 Goal=   None    Shift=    0.000
 RMSDP=4.79D-07 MaxDP=1.82D-05 DE=-9.54D-08 OVMax= 2.33D-05

 Cycle   9  Pass 1  IDiag  1:
 RMSU=  3.37D-07    CP:  9.91D-01  8.14D-01  9.77D-01  5.95D-01  9.99D-01
                    CP:  9.99D-01  1.23D+00  7.91D-01
 E= -1288.35135233206     Delta-E=       -0.000000026549 Rises=F Damp=F
 DIIS: error= 1.22D-06 at cycle   9 NSaved=   9.
 NSaved= 9 IEnMin= 9 EnMin= -1288.35135233206     IErMin= 9 ErrMin= 1.22D-06
 ErrMax= 1.22D-06  0.00D+00 EMaxC= 1.00D-01 BMatC= 1.11D-09 BMatP= 3.95D-08
 IDIUse=1 WtCom= 1.00D+00 WtEn= 0.00D+00
 Coeff-Com: -0.194D-04 0.359D-04 0.292D-03 0.423D-03-0.368D-03-0.142D-01
 Coeff-Com: -0.411D-01 0.101D+00 0.954D+00
 Coeff:     -0.194D-04 0.359D-04 0.292D-03 0.423D-03-0.368D-03-0.142D-01
 Coeff:     -0.411D-01 0.101D+00 0.954D+00
 Gap=     0.382 Goal=   None    Shift=    0.000
 RMSDP=1.81D-07 MaxDP=4.81D-06 DE=-2.65D-08 OVMax= 7.03D-06

 Cycle  10  Pass 1  IDiag  1:
 RMSU=  8.63D-08    CP:  9.91D-01  8.14D-01  9.77D-01  5.95D-01  1.00D+00
                    CP:  1.00D+00  1.27D+00  8.93D-01  1.02D+00
 E= -1288.35135233330     Delta-E=       -0.000000001240 Rises=F Damp=F
 DIIS: error= 2.00D-07 at cycle  10 NSaved=  10.
 NSaved=10 IEnMin=10 EnMin= -1288.35135233330     IErMin=10 ErrMin= 2.00D-07
 ErrMax= 2.00D-07  0.00D+00 EMaxC= 1.00D-01 BMatC= 2.40D-11 BMatP= 1.11D-09
 IDIUse=1 WtCom= 1.00D+00 WtEn= 0.00D+00
 Coeff-Com: -0.466D-05 0.733D-05 0.156D-03 0.206D-03 0.546D-03-0.269D-02
 Coeff-Com: -0.205D-01-0.109D-01 0.914D-01 0.942D+00
 Coeff:     -0.466D-05 0.733D-05 0.156D-03 0.206D-03 0.546D-03-0.269D-02
 Coeff:     -0.205D-01-0.109D-01 0.914D-01 0.942D+00
 Gap=     0.382 Goal=   None    Shift=    0.000
 RMSDP=3.86D-08 MaxDP=1.04D-06 DE=-1.24D-09 OVMax= 1.49D-06

 Cycle  11  Pass 1  IDiag  1:
 RMSU=  2.18D-08    CP:  9.91D-01  8.14D-01  9.77D-01  5.95D-01  1.00D+00
                    CP:  1.00D+00  1.27D+00  9.07D-01  1.09D+00  1.07D+00
 E= -1288.35135233335     Delta-E=       -0.000000000050 Rises=F Damp=F
 DIIS: error= 5.74D-08 at cycle  11 NSaved=  11.
 NSaved=11 IEnMin=11 EnMin= -1288.35135233335     IErMin=11 ErrMin= 5.74D-08
 ErrMax= 5.74D-08  0.00D+00 EMaxC= 1.00D-01 BMatC= 2.09D-12 BMatP= 2.40D-11
 IDIUse=1 WtCom= 1.00D+00 WtEn= 0.00D+00
 Coeff-Com:  0.804D-06-0.149D-05 0.800D-05 0.513D-05 0.951D-04 0.356D-03
 Coeff-Com: -0.807D-03-0.762D-02-0.441D-01 0.166D+00 0.886D+00
 Coeff:      0.804D-06-0.149D-05 0.800D-05 0.513D-05 0.951D-04 0.356D-03
 Coeff:     -0.807D-03-0.762D-02-0.441D-01 0.166D+00 0.886D+00
 Gap=     0.382 Goal=   None    Shift=    0.000
 RMSDP=9.18D-09 MaxDP=1.94D-07 DE=-5.00D-11 OVMax= 3.67D-07

 SCF Done:  E(RM062X) =  -1288.35135233     A.U. after   11 cycles
            NFock= 11  Conv=0.92D-08     -V/T= 2.0025
 KE= 1.285193377042D+03 PE=-4.755516076496D+03 EE= 1.331831274605D+03
 Leave Link  502 at Thu Apr 28 09:49:46 2022, MaxMem= 10485760000 cpu:             349.2 elap:              21.9
 (Enter /data0/hywu0/study/g16/l601.exe)
 Copying SCF densities to generalized density rwf, IOpCl= 0 IROHF=0.

 **********************************************************************

            Population analysis using the SCF density.

 **********************************************************************

 Alpha  occ. eigenvalues --  -78.17451 -78.17443 -19.68126 -19.68114 -19.67757
 Alpha  occ. eigenvalues --  -19.67748 -19.66973 -19.66957 -19.60974 -19.60970
 Alpha  occ. eigenvalues --   -6.98207  -6.98199  -5.10116  -5.10108  -5.10089
 Alpha  occ. eigenvalues --   -5.10080  -5.09933  -5.09925  -1.24350  -1.24208
 Alpha  occ. eigenvalues --   -1.16581  -1.16567  -1.16089  -1.15988  -1.11665
 Alpha  occ. eigenvalues --   -1.11456  -0.73093  -0.72347  -0.65636  -0.65272
 Alpha  occ. eigenvalues --   -0.64112  -0.64074  -0.57279  -0.56115  -0.55247
 Alpha  occ. eigenvalues --   -0.54779  -0.50905  -0.50792  -0.50314  -0.48167
 Alpha  occ. eigenvalues --   -0.47858  -0.47736  -0.46385  -0.46126  -0.43648
 Alpha  occ. eigenvalues --   -0.43348  -0.40677  -0.40655  -0.40013  -0.39845
 Alpha virt. eigenvalues --   -0.01642  -0.00520   0.01548   0.02245   0.03700
 Alpha virt. eigenvalues --    0.04464   0.05523   0.07615   0.09582   0.11153
 Alpha virt. eigenvalues --    0.11916   0.12117   0.12888   0.13971   0.14859
 Alpha virt. eigenvalues --    0.14906   0.15682   0.16135   0.16146   0.17054
 Alpha virt. eigenvalues --    0.17483   0.18213   0.19148   0.19170   0.19896
 Alpha virt. eigenvalues --    0.20972   0.21428   0.23102   0.23169   0.23608
 Alpha virt. eigenvalues --    0.24350   0.24427   0.25882   0.25958   0.26723
 Alpha virt. eigenvalues --    0.27101   0.28087   0.28405   0.28774   0.29036
 Alpha virt. eigenvalues --    0.29126   0.30094   0.30747   0.31240   0.31797
 Alpha virt. eigenvalues --    0.32909   0.34718   0.35078   0.35300   0.36229
 Alpha virt. eigenvalues --    0.36740   0.38304   0.38461   0.39077   0.41021
 Alpha virt. eigenvalues --    0.43504   0.43920   0.44996   0.46475   0.49762
 Alpha virt. eigenvalues --    0.50545   0.50839   0.51010   0.54533   0.56567
 Alpha virt. eigenvalues --    0.57493   0.58670   0.59017   0.67451   0.70453
 Alpha virt. eigenvalues --    0.76074   0.76164   0.76981   0.79082   0.79643
 Alpha virt. eigenvalues --    0.81513   0.86616   0.87171   0.98271   0.98541
 Alpha virt. eigenvalues --    0.99810   1.01021   1.01738   1.05065   1.06375
 Alpha virt. eigenvalues --    1.07717   1.09674   1.10938   1.12493   1.13967
 Alpha virt. eigenvalues --    1.14001   1.14887   1.15388   1.15985   1.18530
 Alpha virt. eigenvalues --    1.19602   1.20805   1.21748   1.21786   1.22113
 Alpha virt. eigenvalues --    1.23048   1.23684   1.24840   1.25467   1.26972
 Alpha virt. eigenvalues --    1.27525   1.28802   1.29611   1.33497   1.34165
 Alpha virt. eigenvalues --    1.39176   1.39314   1.41131   1.42132   1.44564
 Alpha virt. eigenvalues --    1.44757   1.48051   1.50280   1.51648   1.54561
 Alpha virt. eigenvalues --    1.56720   1.57455   1.59587   1.60164   1.61031
 Alpha virt. eigenvalues --    1.61480   1.61850   1.64834   1.65582   1.67331
 Alpha virt. eigenvalues --    1.67609   1.67867   1.68632   1.70198   1.73783
 Alpha virt. eigenvalues --    1.75556   1.78399   1.79583   1.82445   1.82955
 Alpha virt. eigenvalues --    1.84322   1.85034   1.87512   1.87868   1.91019
 Alpha virt. eigenvalues --    1.92238   1.97103   1.99203   2.00402   2.00518
 Alpha virt. eigenvalues --    2.05655   2.06033   2.07315   2.09766   2.10600
 Alpha virt. eigenvalues --    2.11786   2.12802   2.13430   2.16075   2.17018
 Alpha virt. eigenvalues --    2.21174   2.23001   2.24601   2.27315   2.30008
 Alpha virt. eigenvalues --    2.30589   2.35660   2.38906   2.45057   2.45406
 Alpha virt. eigenvalues --    2.49180   2.49795   2.59779   2.61560   2.63361
 Alpha virt. eigenvalues --    2.64075   2.68134   2.68495   2.71404   2.71999
 Alpha virt. eigenvalues --    2.77775   2.79377   2.84792   2.85270   2.90435
 Alpha virt. eigenvalues --    2.90832   2.91697   2.97365   2.99762   3.00870
 Alpha virt. eigenvalues --    5.03013   5.03796   5.05794   5.06446   5.08327
 Alpha virt. eigenvalues --    5.08935   5.08980   5.09522   5.12592   5.12843
 Alpha virt. eigenvalues --    5.13523   5.14589   5.20649   5.22097   5.25229
 Alpha virt. eigenvalues --    5.25764   5.36588   5.37286   5.53276   5.53520
 Alpha virt. eigenvalues --    5.53806   5.53906   5.61556   5.63139   6.72507
 Alpha virt. eigenvalues --    6.72707   6.73272   6.73770   6.74822   6.74961
 Alpha virt. eigenvalues --    6.76545   6.77397   6.79774   6.80086   6.80682
 Alpha virt. eigenvalues --    6.81687   6.82516   6.83211   6.85809   6.86648
 Alpha virt. eigenvalues --    6.89525   6.90001   6.93639   6.94103   6.96151
 Alpha virt. eigenvalues --    6.96649   6.98423   6.99609   7.00416   7.01265
 Alpha virt. eigenvalues --    7.06055   7.06202   7.10478   7.11850   7.21016
 Alpha virt. eigenvalues --    7.21028   7.25692   7.26204   7.29251   7.30137
 Alpha virt. eigenvalues --    7.32698   7.33938   7.39172   7.40535   7.65718
 Alpha virt. eigenvalues --    7.66367  14.21715  14.22057  14.24510  14.24868
 Alpha virt. eigenvalues --   14.37340  14.37731  50.00574  50.01056  50.01592
 Alpha virt. eigenvalues --   50.02121  50.02658  50.02913  50.08176  50.08923
 Alpha virt. eigenvalues --  163.87173 163.88915
          Condensed to atoms (all electrons):
               1          2          3          4          5          6
     1  P   12.436865   0.527853   0.221569   0.030768   0.314005   0.002800
     2  O    0.527853   8.129177  -0.015490   0.004499  -0.061340   0.004029
     3  O    0.221569  -0.015490   8.032570   0.233702   0.022895  -0.006585
     4  H    0.030768   0.004499   0.233702   0.440564  -0.013531  -0.001943
     5  O    0.314005  -0.061340   0.022895  -0.013531   8.098451   0.257573
     6  H    0.002800   0.004029  -0.006585  -0.001943   0.257573   0.295715
     7  O    0.213680   0.009418  -0.014149  -0.013991   0.008504   0.003190
     8  H    0.000222  -0.007025  -0.000769   0.001891  -0.012117   0.000209
     9  P   -0.006863   0.025607  -0.000145   0.000076  -0.005787   0.002384
    10  O    0.025572  -0.010644  -0.005489   0.000341  -0.013958   0.064585
    11  O   -0.005958  -0.013763   0.000602  -0.000042  -0.000717  -0.002012
    12  H    0.002373   0.064370  -0.001239   0.000132  -0.001942   0.001269
    13  O   -0.000170  -0.005469  -0.000056  -0.000001   0.000606  -0.001247
    14  H    0.000062   0.000343  -0.000001  -0.000000  -0.000040   0.000132
    15  O   -0.001670   0.000948   0.000055   0.000000  -0.000266   0.000632
    16  H    0.000081   0.000114  -0.000031  -0.000000  -0.000033   0.000125
               7          8          9         10         11         12
     1  P    0.213680   0.000222  -0.006863   0.025572  -0.005958   0.002373
     2  O    0.009418  -0.007025   0.025607  -0.010644  -0.013763   0.064370
     3  O   -0.014149  -0.000769  -0.000145  -0.005489   0.000602  -0.001239
     4  H   -0.013991   0.001891   0.000076   0.000341  -0.000042   0.000132
     5  O    0.008504  -0.012117  -0.005787  -0.013958  -0.000717  -0.001942
     6  H    0.003190   0.000209   0.002384   0.064585  -0.002012   0.001269
     7  O    8.072088   0.265936  -0.001681   0.000956  -0.000269   0.000642
     8  H    0.265936   0.430187   0.000082   0.000115  -0.000035   0.000130
     9  P   -0.001681   0.000082  12.439481   0.527774   0.312378   0.003002
    10  O    0.000956   0.000115   0.527774   8.128695  -0.061421   0.004212
    11  O   -0.000269  -0.000035   0.312378  -0.061421   8.100252   0.257648
    12  H    0.000642   0.000130   0.003002   0.004212   0.257648   0.295548
    13  O    0.000056  -0.000032   0.220748  -0.015807   0.023363  -0.006686
    14  H    0.000000  -0.000000   0.030984   0.004629  -0.013563  -0.001946
    15  O    0.000002   0.000002   0.213377   0.009127   0.007659   0.003260
    16  H    0.000002  -0.000000   0.000669  -0.006859  -0.012111   0.000209
              13         14         15         16
     1  P   -0.000170   0.000062  -0.001670   0.000081
     2  O   -0.005469   0.000343   0.000948   0.000114
     3  O   -0.000056  -0.000001   0.000055  -0.000031
     4  H   -0.000001  -0.000000   0.000000  -0.000000
     5  O    0.000606  -0.000040  -0.000266  -0.000033
     6  H   -0.001247   0.000132   0.000632   0.000125
     7  O    0.000056   0.000000   0.000002   0.000002
     8  H   -0.000032  -0.000000   0.000002  -0.000000
     9  P    0.220748   0.030984   0.213377   0.000669
    10  O   -0.015807   0.004629   0.009127  -0.006859
    11  O    0.023363  -0.013563   0.007659  -0.012111
    12  H   -0.006686  -0.001946   0.003260   0.000209
    13  O    8.034126   0.233530  -0.014379  -0.000783
    14  H    0.233530   0.440592  -0.014191   0.001905
    15  O   -0.014379  -0.014191   8.073983   0.265778
    16  H   -0.000783   0.001905   0.265778   0.429429
 Mulliken charges:
               1
     1  P    1.238812
     2  O   -0.652627
     3  O   -0.467439
     4  H    0.317535
     5  O   -0.592303
     6  H    0.379145
     7  O   -0.544381
     8  H    0.321205
     9  P    1.237914
    10  O   -0.651828
    11  O   -0.592010
    12  H    0.379019
    13  O   -0.467797
    14  H    0.317564
    15  O   -0.544317
    16  H    0.321507
 Sum of Mulliken charges =  -0.00000
 Mulliken charges with hydrogens summed into heavy atoms:
               1
     1  P    1.238812
     2  O   -0.652627
     3  O   -0.149904
     5  O   -0.213158
     7  O   -0.223176
     9  P    1.237914
    10  O   -0.651828
    11  O   -0.212991
    13  O   -0.150232
    15  O   -0.222810
         Mulliken charges condensed to fragments:
      1     -0.000053
      2      0.000053
 Electronic spatial extent (au):  <R**2>=          42978.0844
 Charge=             -0.0000 electrons
 Dipole moment (field-independent basis, Debye):
    X=              0.0154    Y=             -0.0321    Z=              0.0022  Tot=              0.0357
 Quadrupole moment (field-independent basis, Debye-Ang):
   XX=            -73.5615   YY=            -68.6101   ZZ=            -57.7892
   XY=            -11.9375   XZ=              8.1536   YZ=              0.3926
 Traceless Quadrupole moment (field-independent basis, Debye-Ang):
   XX=             -6.9079   YY=             -1.9565   ZZ=              8.8644
   XY=            -11.9375   XZ=              8.1536   YZ=              0.3926
 Octapole moment (field-independent basis, Debye-Ang**2):
  XXX=          -1468.9374  YYY=          -1229.7625  ZZZ=           -993.4739  XYY=           -597.2911
  XXY=           -599.4505  XXZ=           -314.5291  XZZ=           -291.2576  YZZ=           -341.1731
  YYZ=           -386.6842  XYZ=            -16.4539
 Hexadecapole moment (field-independent basis, Debye-Ang**3):
 XXXX=         -21402.8649 YYYY=         -15043.0853 ZZZZ=         -12081.6177 XXXY=         -10355.9813
 XXXZ=          -7842.3541 YYYX=          -9383.2840 YYYZ=          -6914.1924 ZZZX=          -6200.9950
 ZZZY=          -5742.2004 XXYY=          -7831.6842 XXZZ=          -4200.2113 YYZZ=          -4478.7039
 XXYZ=          -2777.7839 YYXZ=          -3224.0738 ZZXY=          -2029.5336
 N-N= 8.501400725155D+02 E-N=-4.755516077743D+03  KE= 1.285193377042D+03
 No NMR shielding tensors so no spin-rotation constants.
 Leave Link  601 at Thu Apr 28 09:49:46 2022, MaxMem= 10485760000 cpu:               1.5 elap:               0.1
 (Enter /data0/hywu0/study/g16/l122.exe)
 CPIOFr:  IOpCl= 0 IRwI=-1 IRwCP=  731 ICalc= -1 LCPTot=      159803 Len1MO=      421320 IndFrg=      159803
 CPIOFr:  IOpCl= 0 IRwI=-1 IRwCP=  731 ICalc=  0 LCPTot=      159803 Len1MO=      421320 IndFrg=      581123
 Counterpoise: doing calculation for fragment   1 using the basis set of the full-system, NewBq=T
 Leave Link  122 at Thu Apr 28 09:49:46 2022, MaxMem= 10485760000 cpu:               0.1 elap:               0.0
 (Enter /data0/hywu0/study/g16/l301.exe)
 Basis read from rwf:  (5D, 7F)
 No pseudopotential information found on rwf file.
   322 basis functions,   496 primitive gaussians,   342 cartesian basis functions
    25 alpha electrons       25 beta electrons
       nuclear repulsion energy       280.5519384726 Hartrees.
 IExCor= 4336 DFT=T Ex+Corr=M062X ExCW=0 ScaHFX=  0.540000
 ScaDFX=  1.000000  1.000000  1.000000  1.000000 ScalE2=  1.000000  1.000000
 IRadAn=      5 IRanWt=     -1 IRanGd=            0 ICorTp=0 IEmpDi=131
 NAtoms=   16 NActive=   16 NUniq=   16 SFac= 1.00D+00 NAtFMM=   60 NAOKFM=F Big=F
 Integral buffers will be    131072 words long.
 Raffenetti 2 integral format.
 Two-electron integral symmetry is turned off.
 R6Disp:  Grimme-D3 Dispersion energy=       -0.0000429859 Hartrees.
 Nuclear repulsion after empirical dispersion term =      280.5518954867 Hartrees.
 No density basis found on file   718.
 Leave Link  301 at Thu Apr 28 09:49:46 2022, MaxMem= 10485760000 cpu:               0.8 elap:               0.1
 (Enter /data0/hywu0/study/g16/l302.exe)
 NPDir=0 NMtPBC=     1 NCelOv=     1 NCel=       1 NClECP=     1 NCelD=      1
         NCelK=      1 NCelE2=     1 NClLst=     1 CellRange=     0.0.
 One-electron integrals computed using PRISM.
 NBasis=   322 RedAO= T EigKep=  3.59D-04  NBF=   322
 NBsUse=   322 1.00D-06 EigRej= -1.00D+00 NBFU=   322
 Precomputing XC quadrature grid using
 IXCGrd= 4 IRadAn=           5 IRanWt=          -1 IRanGd=           0 AccXCQ= 0.00D+00.
 Generated NRdTot=       0 NPtTot=           0 NUsed=           0 NTot=          32
 NSgBfM=   340   340   340   340   340 MxSgAt=    16 MxSgA2=    16.
 Leave Link  302 at Thu Apr 28 09:49:46 2022, MaxMem= 10485760000 cpu:               3.3 elap:               0.2
 (Enter /data0/hywu0/study/g16/l303.exe)
 DipDrv:  MaxL=1.
 Leave Link  303 at Thu Apr 28 09:49:46 2022, MaxMem= 10485760000 cpu:               0.5 elap:               0.1
 (Enter /data0/hywu0/study/g16/l401.exe)
 ExpMin= 3.48D-02 ExpMax= 7.75D+04 ExpMxC= 2.65D+03 IAcc=3 IRadAn=         5 AccDes= 0.00D+00
 Harris functional with IExCor= 1009 and IRadAn=       5 diagonalized for initial guess.
 HarFok:  IExCor= 1009 AccDes= 0.00D+00 IRadAn=         5 IDoV= 1 UseB2=F ITyADJ=14
 ICtDFT=  3500011 ScaDFX=  1.000000  1.000000  1.000000  1.000000
 FoFCou: FMM=F IPFlag=           0 FMFlag=      100000 FMFlg1=           0
         NFxFlg=           0 DoJE=T BraDBF=F KetDBF=T FulRan=T
         wScrn=  0.000000 ICntrl=       500 IOpCl=  0 I1Cent=   200000004 NGrid=           0
         NMat0=    1 NMatS0=      1 NMatT0=    0 NMatD0=    1 NMtDS0=    0 NMtDT0=    0
 Symmetry not used in FoFCou.
 Harris En= -643.947130670548    
 JPrj=0 DoOrth=F DoCkMO=F.
 Leave Link  401 at Thu Apr 28 09:49:47 2022, MaxMem= 10485760000 cpu:              11.8 elap:               0.8
 (Enter /data0/hywu0/study/g16/l502.exe)
 Two-electron integral symmetry not used.
 Closed shell SCF:
 Using DIIS extrapolation, IDIIS=  1040.
 NGot= 10485760000 LenX= 10485518222 LenY= 10485400817
 Requested convergence on RMS density matrix=1.00D-08 within 128 cycles.
 Requested convergence on MAX density matrix=1.00D-06.
 Requested convergence on             energy=1.00D-06.
 No special actions if energy rises.
 Fock matrices will be formed incrementally for  20 cycles.

 Cycle   1  Pass 1  IDiag  1:
 FoFJK:  IHMeth= 1 ICntrl=       0 DoSepK=F KAlg= 0 I1Cent=           0 FoldK=F
 IRaf= 850000000 NMat=       1 IRICut=       1 DoRegI=T DoRafI=F ISym2E= 0 IDoP0=0 IntGTp=1.
 FoFCou: FMM=F IPFlag=           0 FMFlag=      100000 FMFlg1=           0
         NFxFlg=           0 DoJE=F BraDBF=F KetDBF=F FulRan=T
         wScrn=  0.000000 ICntrl=         0 IOpCl=  0 I1Cent=           0 NGrid=           0
         NMat0=    1 NMatS0=      1 NMatT0=    0 NMatD0=    1 NMtDS0=    0 NMtDT0=    0
 Symmetry not used in FoFCou.
 E= -643.872911439211    
 DIIS: error= 2.16D-02 at cycle   1 NSaved=   1.
 NSaved= 1 IEnMin= 1 EnMin= -643.872911439211     IErMin= 1 ErrMin= 2.16D-02
 ErrMax= 2.16D-02  0.00D+00 EMaxC= 1.00D-01 BMatC= 5.05D-01 BMatP= 5.05D-01
 IDIUse=3 WtCom= 7.84D-01 WtEn= 2.16D-01
 Coeff-Com:  0.100D+01
 Coeff-En:   0.100D+01
 Coeff:      0.100D+01
 Gap=     0.297 Goal=   None    Shift=    0.000
 GapD=    0.297 DampG=1.000 DampE=0.500 DampFc=0.5000 IDamp=-1.
 Damping current iteration by 5.00D-01
 RMSDP=3.48D-03 MaxDP=1.53D-01              OVMax= 2.46D-01

 Cycle   2  Pass 1  IDiag  1:
 RMSU=  1.74D-03    CP:  1.00D+00
 E= -643.989707147584     Delta-E=       -0.116795708374 Rises=F Damp=T
 DIIS: error= 5.00D-03 at cycle   2 NSaved=   2.
 NSaved= 2 IEnMin= 2 EnMin= -643.989707147584     IErMin= 2 ErrMin= 5.00D-03
 ErrMax= 5.00D-03  0.00D+00 EMaxC= 1.00D-01 BMatC= 2.61D-02 BMatP= 5.05D-01
 IDIUse=3 WtCom= 9.50D-01 WtEn= 5.00D-02
 Coeff-Com:  0.650D-01 0.935D+00
 Coeff-En:   0.192D+00 0.808D+00
 Coeff:      0.713D-01 0.929D+00
 Gap=     0.367 Goal=   None    Shift=    0.000
 RMSDP=8.03D-04 MaxDP=4.82D-02 DE=-1.17D-01 OVMax= 1.51D-01

 Cycle   3  Pass 1  IDiag  1:
 RMSU=  6.05D-04    CP:  9.91D-01  7.00D-01
 E= -644.150160026002     Delta-E=       -0.160452878418 Rises=F Damp=F
 DIIS: error= 2.95D-03 at cycle   3 NSaved=   3.
 NSaved= 3 IEnMin= 3 EnMin= -644.150160026002     IErMin= 3 ErrMin= 2.95D-03
 ErrMax= 2.95D-03  0.00D+00 EMaxC= 1.00D-01 BMatC= 1.01D-02 BMatP= 2.61D-02
 IDIUse=3 WtCom= 9.70D-01 WtEn= 2.95D-02
 Coeff-Com: -0.213D-01 0.342D+00 0.680D+00
 Coeff-En:   0.000D+00 0.000D+00 0.100D+01
 Coeff:     -0.206D-01 0.331D+00 0.689D+00
 Gap=     0.357 Goal=   None    Shift=    0.000
 RMSDP=3.21D-04 MaxDP=1.51D-02 DE=-1.60D-01 OVMax= 3.36D-02

 Cycle   4  Pass 1  IDiag  1:
 RMSU=  2.64D-04    CP:  9.92D-01  7.91D-01  8.46D-01
 E= -644.154948801641     Delta-E=       -0.004788775639 Rises=F Damp=F
 DIIS: error= 2.00D-03 at cycle   4 NSaved=   4.
 NSaved= 4 IEnMin= 4 EnMin= -644.154948801641     IErMin= 4 ErrMin= 2.00D-03
 ErrMax= 2.00D-03  0.00D+00 EMaxC= 1.00D-01 BMatC= 3.44D-03 BMatP= 1.01D-02
 IDIUse=3 WtCom= 9.80D-01 WtEn= 2.00D-02
 Coeff-Com: -0.240D-01 0.542D-01 0.395D+00 0.575D+00
 Coeff-En:   0.000D+00 0.000D+00 0.249D+00 0.751D+00
 Coeff:     -0.235D-01 0.531D-01 0.392D+00 0.578D+00
 Gap=     0.362 Goal=   None    Shift=    0.000
 RMSDP=1.22D-04 MaxDP=5.84D-03 DE=-4.79D-03 OVMax= 1.05D-02

 Cycle   5  Pass 1  IDiag  1:
 RMSU=  3.51D-05    CP:  9.91D-01  7.71D-01  9.43D-01  6.38D-01
 E= -644.157216142686     Delta-E=       -0.002267341044 Rises=F Damp=F
 DIIS: error= 1.04D-04 at cycle   5 NSaved=   5.
 NSaved= 5 IEnMin= 5 EnMin= -644.157216142686     IErMin= 5 ErrMin= 1.04D-04
 ErrMax= 1.04D-04  0.00D+00 EMaxC= 1.00D-01 BMatC= 1.35D-05 BMatP= 3.44D-03
 IDIUse=3 WtCom= 9.99D-01 WtEn= 1.04D-03
 Coeff-Com: -0.332D-02 0.255D-02 0.621D-01 0.123D+00 0.816D+00
 Coeff-En:   0.000D+00 0.000D+00 0.000D+00 0.000D+00 0.100D+01
 Coeff:     -0.332D-02 0.255D-02 0.620D-01 0.123D+00 0.816D+00
 Gap=     0.361 Goal=   None    Shift=    0.000
 RMSDP=1.24D-05 MaxDP=8.76D-04 DE=-2.27D-03 OVMax= 6.95D-04

 Cycle   6  Pass 1  IDiag  1:
 RMSU=  1.02D-05    CP:  9.91D-01  7.69D-01  9.47D-01  6.58D-01  9.85D-01
 E= -644.157225408837     Delta-E=       -0.000009266152 Rises=F Damp=F
 DIIS: error= 3.33D-05 at cycle   6 NSaved=   6.
 NSaved= 6 IEnMin= 6 EnMin= -644.157225408837     IErMin= 6 ErrMin= 3.33D-05
 ErrMax= 3.33D-05  0.00D+00 EMaxC= 1.00D-01 BMatC= 1.12D-06 BMatP= 1.35D-05
 IDIUse=1 WtCom= 1.00D+00 WtEn= 0.00D+00
 Coeff-Com: -0.139D-03-0.110D-02 0.360D-02 0.133D-01 0.229D+00 0.755D+00
 Coeff:     -0.139D-03-0.110D-02 0.360D-02 0.133D-01 0.229D+00 0.755D+00
 Gap=     0.361 Goal=   None    Shift=    0.000
 RMSDP=4.53D-06 MaxDP=2.28D-04 DE=-9.27D-06 OVMax= 2.05D-04

 Cycle   7  Pass 1  IDiag  1:
 RMSU=  2.22D-06    CP:  9.91D-01  7.68D-01  9.48D-01  6.60D-01  1.08D+00
                    CP:  9.15D-01
 E= -644.157226220703     Delta-E=       -0.000000811866 Rises=F Damp=F
 DIIS: error= 1.24D-05 at cycle   7 NSaved=   7.
 NSaved= 7 IEnMin= 7 EnMin= -644.157226220703     IErMin= 7 ErrMin= 1.24D-05
 ErrMax= 1.24D-05  0.00D+00 EMaxC= 1.00D-01 BMatC= 1.70D-07 BMatP= 1.12D-06
 IDIUse=1 WtCom= 1.00D+00 WtEn= 0.00D+00
 Coeff-Com:  0.401D-03-0.724D-03-0.757D-02-0.122D-01-0.178D-01 0.262D+00
 Coeff-Com:  0.776D+00
 Coeff:      0.401D-03-0.724D-03-0.757D-02-0.122D-01-0.178D-01 0.262D+00
 Coeff:      0.776D+00
 Gap=     0.361 Goal=   None    Shift=    0.000
 RMSDP=1.49D-06 MaxDP=6.52D-05 DE=-8.12D-07 OVMax= 9.06D-05

 Cycle   8  Pass 1  IDiag  1:
 RMSU=  1.04D-06    CP:  9.91D-01  7.68D-01  9.48D-01  6.60D-01  1.09D+00
                    CP:  9.85D-01  9.69D-01
 E= -644.157226330269     Delta-E=       -0.000000109566 Rises=F Damp=F
 DIIS: error= 6.19D-06 at cycle   8 NSaved=   8.
 NSaved= 8 IEnMin= 8 EnMin= -644.157226330269     IErMin= 8 ErrMin= 6.19D-06
 ErrMax= 6.19D-06  0.00D+00 EMaxC= 1.00D-01 BMatC= 3.54D-08 BMatP= 1.70D-07
 IDIUse=1 WtCom= 1.00D+00 WtEn= 0.00D+00
 Coeff-Com:  0.187D-03-0.271D-03-0.379D-02-0.629D-02-0.181D-01 0.791D-01
 Coeff-Com:  0.389D+00 0.560D+00
 Coeff:      0.187D-03-0.271D-03-0.379D-02-0.629D-02-0.181D-01 0.791D-01
 Coeff:      0.389D+00 0.560D+00
 Gap=     0.361 Goal=   None    Shift=    0.000
 RMSDP=4.04D-07 MaxDP=2.45D-05 DE=-1.10D-07 OVMax= 3.23D-05

 Cycle   9  Pass 1  IDiag  1:
 RMSU=  2.51D-07    CP:  9.91D-01  7.68D-01  9.49D-01  6.60D-01  1.09D+00
                    CP:  9.93D-01  1.06D+00  7.93D-01
 E= -644.157226354752     Delta-E=       -0.000000024483 Rises=F Damp=F
 DIIS: error= 5.97D-07 at cycle   9 NSaved=   9.
 NSaved= 9 IEnMin= 9 EnMin= -644.157226354752     IErMin= 9 ErrMin= 5.97D-07
 ErrMax= 5.97D-07  0.00D+00 EMaxC= 1.00D-01 BMatC= 5.40D-10 BMatP= 3.54D-08
 IDIUse=1 WtCom= 1.00D+00 WtEn= 0.00D+00
 Coeff-Com: -0.261D-04 0.474D-04 0.276D-03 0.547D-03-0.245D-03-0.175D-01
 Coeff-Com: -0.331D-01 0.502D-01 0.100D+01
 Coeff:     -0.261D-04 0.474D-04 0.276D-03 0.547D-03-0.245D-03-0.175D-01
 Coeff:     -0.331D-01 0.502D-01 0.100D+01
 Gap=     0.361 Goal=   None    Shift=    0.000
 RMSDP=1.37D-07 MaxDP=6.74D-06 DE=-2.45D-08 OVMax= 7.63D-06

 Cycle  10  Pass 1  IDiag  1:
 RMSU=  6.10D-08    CP:  9.91D-01  7.68D-01  9.48D-01  6.60D-01  1.10D+00
                    CP:  9.92D-01  1.09D+00  8.67D-01  1.11D+00
 E= -644.157226355377     Delta-E=       -0.000000000624 Rises=F Damp=F
 DIIS: error= 1.02D-07 at cycle  10 NSaved=  10.
 NSaved=10 IEnMin=10 EnMin= -644.157226355377     IErMin=10 ErrMin= 1.02D-07
 ErrMax= 1.02D-07  0.00D+00 EMaxC= 1.00D-01 BMatC= 1.43D-11 BMatP= 5.40D-10
 IDIUse=1 WtCom= 1.00D+00 WtEn= 0.00D+00
 Coeff-Com: -0.610D-05 0.103D-04 0.118D-03 0.197D-03 0.461D-03-0.405D-02
 Coeff-Com: -0.152D-01-0.123D-01 0.893D-01 0.942D+00
 Coeff:     -0.610D-05 0.103D-04 0.118D-03 0.197D-03 0.461D-03-0.405D-02
 Coeff:     -0.152D-01-0.123D-01 0.893D-01 0.942D+00
 Gap=     0.361 Goal=   None    Shift=    0.000
 RMSDP=2.54D-08 MaxDP=8.04D-07 DE=-6.24D-10 OVMax= 1.80D-06

 Cycle  11  Pass 1  IDiag  1:
 RMSU=  1.56D-08    CP:  9.91D-01  7.68D-01  9.48D-01  6.60D-01  1.10D+00
                    CP:  9.92D-01  1.10D+00  8.75D-01  1.16D+00  1.15D+00
 E= -644.157226355428     Delta-E=       -0.000000000052 Rises=F Damp=F
 DIIS: error= 9.02D-08 at cycle  11 NSaved=  11.
 NSaved=11 IEnMin=11 EnMin= -644.157226355428     IErMin=11 ErrMin= 9.02D-08
 ErrMax= 9.02D-08  0.00D+00 EMaxC= 1.00D-01 BMatC= 6.97D-12 BMatP= 1.43D-11
 IDIUse=1 WtCom= 1.00D+00 WtEn= 0.00D+00
 Coeff-Com: -0.456D-06 0.721D-06 0.316D-04 0.442D-04 0.221D-03-0.529D-03
 Coeff-Com: -0.434D-02-0.946D-02-0.399D-01 0.453D+00 0.601D+00
 Coeff:     -0.456D-06 0.721D-06 0.316D-04 0.442D-04 0.221D-03-0.529D-03
 Coeff:     -0.434D-02-0.946D-02-0.399D-01 0.453D+00 0.601D+00
 Gap=     0.361 Goal=   None    Shift=    0.000
 RMSDP=7.92D-09 MaxDP=4.35D-07 DE=-5.17D-11 OVMax= 7.41D-07

 SCF Done:  E(RM062X) =  -644.157226355     A.U. after   11 cycles
            NFock= 11  Conv=0.79D-08     -V/T= 2.0024
 KE= 6.426062905877D+02 PE=-2.088835792304D+03 EE= 5.215203798737D+02
 Leave Link  502 at Thu Apr 28 09:50:08 2022, MaxMem= 10485760000 cpu:             330.5 elap:              20.7
 (Enter /data0/hywu0/study/g16/l601.exe)
 Copying SCF densities to generalized density rwf, IOpCl= 0 IROHF=0.

 **********************************************************************

            Population analysis using the SCF density.

 **********************************************************************

 Alpha  occ. eigenvalues --  -78.16789 -19.68958 -19.67949 -19.67667 -19.59072
 Alpha  occ. eigenvalues --   -6.97591  -5.09493  -5.09489  -5.09277  -1.24509
 Alpha  occ. eigenvalues --   -1.17209  -1.16425  -1.09717  -0.73008  -0.65991
 Alpha  occ. eigenvalues --   -0.64117  -0.56325  -0.55658  -0.51026  -0.48356
 Alpha  occ. eigenvalues --   -0.48015  -0.45696  -0.43961  -0.38872  -0.38324
 Alpha virt. eigenvalues --   -0.02186   0.00690   0.01686   0.03806   0.04780
 Alpha virt. eigenvalues --    0.05366   0.05991   0.07916   0.09936   0.11270
 Alpha virt. eigenvalues --    0.11522   0.13945   0.14745   0.14904   0.15940
 Alpha virt. eigenvalues --    0.16184   0.16629   0.17977   0.18337   0.19641
 Alpha virt. eigenvalues --    0.20102   0.20220   0.20804   0.22126   0.22280
 Alpha virt. eigenvalues --    0.23537   0.23922   0.24445   0.25099   0.26246
 Alpha virt. eigenvalues --    0.26376   0.27795   0.27999   0.28456   0.28575
 Alpha virt. eigenvalues --    0.29429   0.30439   0.31178   0.31313   0.32878
 Alpha virt. eigenvalues --    0.33505   0.34397   0.35871   0.36723   0.36958
 Alpha virt. eigenvalues --    0.37726   0.38199   0.38671   0.39536   0.40009
 Alpha virt. eigenvalues --    0.41428   0.42886   0.44918   0.45635   0.47103
 Alpha virt. eigenvalues --    0.49227   0.50364   0.51514   0.52403   0.57410
 Alpha virt. eigenvalues --    0.59047   0.66934   0.69023   0.70647   0.71798
 Alpha virt. eigenvalues --    0.72760   0.73924   0.75580   0.76542   0.77683
 Alpha virt. eigenvalues --    0.78131   0.80518   0.81575   0.83207   0.85208
 Alpha virt. eigenvalues --    0.86664   0.88987   0.90605   0.93235   0.96968
 Alpha virt. eigenvalues --    0.98633   1.01102   1.02089   1.03299   1.05093
 Alpha virt. eigenvalues --    1.06785   1.08214   1.10175   1.11437   1.12048
 Alpha virt. eigenvalues --    1.13598   1.14622   1.15583   1.17925   1.18096
 Alpha virt. eigenvalues --    1.21795   1.22069   1.22603   1.23832   1.24209
 Alpha virt. eigenvalues --    1.25018   1.27040   1.27426   1.29572   1.33684
 Alpha virt. eigenvalues --    1.34793   1.37680   1.39033   1.43035   1.43715
 Alpha virt. eigenvalues --    1.46501   1.47783   1.50368   1.52436   1.56267
 Alpha virt. eigenvalues --    1.57904   1.60799   1.61616   1.65953   1.67556
 Alpha virt. eigenvalues --    1.67964   1.70143   1.75232   1.75981   1.83187
 Alpha virt. eigenvalues --    1.83869   1.86847   1.88273   1.91224   1.94116
 Alpha virt. eigenvalues --    1.95749   1.97542   1.99167   2.02505   2.03255
 Alpha virt. eigenvalues --    2.06077   2.07371   2.10240   2.11537   2.15903
 Alpha virt. eigenvalues --    2.16809   2.20675   2.22129   2.23704   2.27131
 Alpha virt. eigenvalues --    2.28543   2.31354   2.35199   2.36742   2.38703
 Alpha virt. eigenvalues --    2.43315   2.44655   2.45593   2.46287   2.47296
 Alpha virt. eigenvalues --    2.49552   2.53013   2.55802   2.59303   2.61096
 Alpha virt. eigenvalues --    2.63127   2.64222   2.66151   2.67078   2.68915
 Alpha virt. eigenvalues --    2.71103   2.72092   2.74236   2.75298   2.77155
 Alpha virt. eigenvalues --    2.79185   2.81868   2.82632   2.85354   2.87151
 Alpha virt. eigenvalues --    2.89122   2.91170   2.93188   2.94359   2.95541
 Alpha virt. eigenvalues --    2.96148   2.98898   3.02244   3.03371   3.05323
 Alpha virt. eigenvalues --    3.09295   3.13501   3.16973   3.21685   3.24606
 Alpha virt. eigenvalues --    3.27275   3.30977   3.33822   3.42145   3.50802
 Alpha virt. eigenvalues --    3.72546   3.79352   3.82279   4.45245   4.47688
 Alpha virt. eigenvalues --    4.53445   4.58424   4.68199   4.77949   4.93250
 Alpha virt. eigenvalues --    4.96035   5.00170   5.02937   5.06076   5.08344
 Alpha virt. eigenvalues --    5.09414   5.13840   5.14521   5.22201   5.27251
 Alpha virt. eigenvalues --    5.41773   5.53644   5.54195   5.58872   6.72203
 Alpha virt. eigenvalues --    6.74294   6.75748   6.77733   6.78998   6.81661
 Alpha virt. eigenvalues --    6.84526   6.85949   6.90045   6.94383   6.96482
 Alpha virt. eigenvalues --    6.99240   7.00114   7.05655   7.10875   7.21723
 Alpha virt. eigenvalues --    7.26737   7.28681   7.33496   7.41392   7.66330
 Alpha virt. eigenvalues --    9.83745   9.85831   9.90212   9.95026   9.99732
 Alpha virt. eigenvalues --   10.00845  10.10300  10.18474  10.23423  10.28873
 Alpha virt. eigenvalues --   10.30663  10.31415  10.34507  10.38468  10.41284
 Alpha virt. eigenvalues --   10.43263  10.49301  10.52400  10.56572  10.61294
 Alpha virt. eigenvalues --   10.69535  10.81390  10.86839  12.98149  12.99947
 Alpha virt. eigenvalues --   13.06146  13.13915  13.32269  13.42608  13.45872
 Alpha virt. eigenvalues --   13.56710  13.59640  13.67543  13.92365  13.97996
 Alpha virt. eigenvalues --   14.19725  14.22669  14.25285  14.38174  17.89993
 Alpha virt. eigenvalues --   17.95133  18.51858  18.54260  50.00318  50.01119
 Alpha virt. eigenvalues --   50.02364  50.10371  52.83848  52.86247  53.01915
 Alpha virt. eigenvalues --   70.63889 137.38167 138.00589 139.69592 139.77564
 Alpha virt. eigenvalues --  163.88691 483.37761
          Condensed to atoms (all electrons):
               1          2          3          4          5          6
     1  P   12.485598   0.549021   0.213263   0.041201   0.279634  -0.003858
     2  O    0.549021   8.072328  -0.007562   0.005051  -0.042585  -0.001621
     3  O    0.213263  -0.007562   8.039708   0.219627   0.012381  -0.005206
     4  H    0.041201   0.005051   0.219627   0.453328  -0.013444  -0.001494
     5  O    0.279634  -0.042585   0.012381  -0.013444   8.061756   0.297104
     6  H   -0.003858  -0.001621  -0.005206  -0.001494   0.297104   0.305056
     7  O    0.211348   0.000674   0.002287  -0.017673   0.014084   0.004670
     8  H    0.000665  -0.010792  -0.001065   0.002230  -0.008763   0.000184
     9  P   -0.003751   0.014895  -0.000819   0.000269  -0.004429   0.002162
    10  O    0.000478  -0.001573  -0.000541   0.000308   0.013900   0.007937
    11  O    0.002458   0.003535  -0.000541  -0.000004  -0.002604   0.000104
    12  H   -0.001095   0.003699   0.000170   0.000087   0.002400   0.000007
    13  O    0.000079  -0.003127  -0.000047  -0.000006   0.000538  -0.000255
    14  H   -0.000056  -0.000055  -0.000001  -0.000000  -0.000007   0.000003
    15  O   -0.000335   0.000661  -0.000011   0.000002  -0.000165   0.000176
    16  H   -0.000052   0.000004  -0.000002  -0.000000  -0.000028   0.000005
               7          8          9         10         11         12
     1  P    0.211348   0.000665  -0.003751   0.000478   0.002458  -0.001095
     2  O    0.000674  -0.010792   0.014895  -0.001573   0.003535   0.003699
     3  O    0.002287  -0.001065  -0.000819  -0.000541  -0.000541   0.000170
     4  H   -0.017673   0.002230   0.000269   0.000308  -0.000004   0.000087
     5  O    0.014084  -0.008763  -0.004429   0.013900  -0.002604   0.002400
     6  H    0.004670   0.000184   0.002162   0.007937   0.000104   0.000007
     7  O    8.064521   0.264149  -0.000749  -0.000042   0.000197  -0.000280
     8  H    0.264149   0.434897   0.000059   0.000130   0.000067  -0.000017
     9  P   -0.000749   0.000059   0.033542  -0.009219  -0.004562  -0.001416
    10  O   -0.000042   0.000130  -0.009219   0.015258  -0.001089   0.001367
    11  O    0.000197   0.000067  -0.004562  -0.001089   0.008886  -0.004271
    12  H   -0.000280  -0.000017  -0.001416   0.001367  -0.004271   0.005832
    13  O    0.000005  -0.000019  -0.008588  -0.003710   0.000949   0.000626
    14  H    0.000002  -0.000000   0.000099  -0.000213   0.000134  -0.000059
    15  O    0.000007   0.000001  -0.005427   0.002849  -0.000952  -0.000373
    16  H    0.000001  -0.000000  -0.000582   0.000348   0.000042  -0.000079
              13         14         15         16
     1  P    0.000079  -0.000056  -0.000335  -0.000052
     2  O   -0.003127  -0.000055   0.000661   0.000004
     3  O   -0.000047  -0.000001  -0.000011  -0.000002
     4  H   -0.000006  -0.000000   0.000002  -0.000000
     5  O    0.000538  -0.000007  -0.000165  -0.000028
     6  H   -0.000255   0.000003   0.000176   0.000005
     7  O    0.000005   0.000002   0.000007   0.000001
     8  H   -0.000019  -0.000000   0.000001  -0.000000
     9  P   -0.008588   0.000099  -0.005427  -0.000582
    10  O   -0.003710  -0.000213   0.002849   0.000348
    11  O    0.000949   0.000134  -0.000952   0.000042
    12  H    0.000626  -0.000059  -0.000373  -0.000079
    13  O    0.012752  -0.000092  -0.004617  -0.000256
    14  H   -0.000092   0.000292  -0.000189   0.000018
    15  O   -0.004617  -0.000189   0.009497   0.000205
    16  H   -0.000256   0.000018   0.000205   0.000375
 Mulliken charges:
               1
     1  P    1.225404
     2  O   -0.582555
     3  O   -0.471641
     4  H    0.310518
     5  O   -0.609772
     6  H    0.395026
     7  O   -0.543201
     8  H    0.318274
     9  P   -0.011485
    10  O   -0.026187
    11  O   -0.002349
    12  H   -0.006596
    13  O    0.005768
    14  H    0.000125
    15  O   -0.001332
    16  H    0.000002
 Sum of Mulliken charges =  -0.00000
 Mulliken charges with hydrogens summed into heavy atoms:
               1
     1  P    1.225404
     2  O   -0.582555
     3  O   -0.161123
     5  O   -0.214746
     7  O   -0.224928
     9  P   -0.011485
    10  O   -0.026187
    11  O   -0.008945
    13  O    0.005893
    15  O   -0.001330
         Mulliken charges condensed to fragments:
      1      0.042053
      2     -0.042053
 Electronic spatial extent (au):  <R**2>=          15319.4016
 Charge=             -0.0000 electrons
 Dipole moment (field-independent basis, Debye):
    X=              1.3085    Y=              3.0840    Z=             -2.3743  Tot=              4.1062
 Quadrupole moment (field-independent basis, Debye-Ang):
   XX=            -19.6300   YY=              2.7275   ZZ=            -56.4220
   XY=             22.7838   XZ=             -4.4813   YZ=              3.8890
 Traceless Quadrupole moment (field-independent basis, Debye-Ang):
   XX=              4.8115   YY=             27.1690   ZZ=            -31.9805
   XY=             22.7838   XZ=             -4.4813   YZ=              3.8890
 Octapole moment (field-independent basis, Debye-Ang**2):
  XXX=           -357.9187  YYY=           -308.5824  ZZZ=           -634.7472  XYY=             55.9539
  XXY=            -48.8569  XXZ=           -129.0140  XZZ=           -230.9387  YZZ=           -254.4800
  YYZ=            -23.4855  XYZ=             65.0046
 Hexadecapole moment (field-independent basis, Debye-Ang**3):
 XXXX=          -3708.6880 YYYY=          -5491.3008 ZZZZ=          -5571.4817 XXXY=          -1833.6769
 XXXZ=          -1736.4511 YYYX=          -1302.3993 YYYZ=          -1458.0791 ZZZX=          -2808.1731
 ZZZY=          -3486.5611 XXYY=           -766.7880 XXZZ=          -1589.6737 YYZZ=          -1790.5669
 XXYZ=           -318.8594 YYXZ=            170.4703 ZZXY=           -936.9959
 N-N= 2.805518954867D+02 E-N=-2.088835793589D+03  KE= 6.426062905877D+02
 No NMR shielding tensors so no spin-rotation constants.
 Leave Link  601 at Thu Apr 28 09:50:08 2022, MaxMem= 10485760000 cpu:               1.5 elap:               0.1
 (Enter /data0/hywu0/study/g16/l122.exe)
 CPIOFr:  IOpCl= 0 IRwI=-1 IRwCP=  731 ICalc=  1 LCPTot=      159803 Len1MO=      421320 IndFrg=     1002443
 Counterpoise: doing calculation for fragment   2 using the basis set of the full-system, NewBq=T
 Leave Link  122 at Thu Apr 28 09:50:08 2022, MaxMem= 10485760000 cpu:               0.1 elap:               0.0
 (Enter /data0/hywu0/study/g16/l301.exe)
 Basis read from rwf:  (5D, 7F)
 No pseudopotential information found on rwf file.
   322 basis functions,   496 primitive gaussians,   342 cartesian basis functions
    25 alpha electrons       25 beta electrons
       nuclear repulsion energy       280.5523017593 Hartrees.
 IExCor= 4336 DFT=T Ex+Corr=M062X ExCW=0 ScaHFX=  0.540000
 ScaDFX=  1.000000  1.000000  1.000000  1.000000 ScalE2=  1.000000  1.000000
 IRadAn=      5 IRanWt=     -1 IRanGd=            0 ICorTp=0 IEmpDi=131
 NAtoms=   16 NActive=   16 NUniq=   16 SFac= 1.00D+00 NAtFMM=   60 NAOKFM=F Big=F
 Integral buffers will be    131072 words long.
 Raffenetti 2 integral format.
 Two-electron integral symmetry is turned off.
 R6Disp:  Grimme-D3 Dispersion energy=       -0.0000429193 Hartrees.
 Nuclear repulsion after empirical dispersion term =      280.5522588401 Hartrees.
 No density basis found on file   718.
 Leave Link  301 at Thu Apr 28 09:50:08 2022, MaxMem= 10485760000 cpu:               0.7 elap:               0.1
 (Enter /data0/hywu0/study/g16/l302.exe)
 NPDir=0 NMtPBC=     1 NCelOv=     1 NCel=       1 NClECP=     1 NCelD=      1
         NCelK=      1 NCelE2=     1 NClLst=     1 CellRange=     0.0.
 One-electron integrals computed using PRISM.
 NBasis=   322 RedAO= T EigKep=  3.59D-04  NBF=   322
 NBsUse=   322 1.00D-06 EigRej= -1.00D+00 NBFU=   322
 Precomputing XC quadrature grid using
 IXCGrd= 4 IRadAn=           5 IRanWt=          -1 IRanGd=           0 AccXCQ= 0.00D+00.
 Generated NRdTot=       0 NPtTot=           0 NUsed=           0 NTot=          32
 NSgBfM=   340   340   340   340   340 MxSgAt=    16 MxSgA2=    16.
 Leave Link  302 at Thu Apr 28 09:50:08 2022, MaxMem= 10485760000 cpu:               3.5 elap:               0.2
 (Enter /data0/hywu0/study/g16/l303.exe)
 DipDrv:  MaxL=1.
 Leave Link  303 at Thu Apr 28 09:50:08 2022, MaxMem= 10485760000 cpu:               0.6 elap:               0.1
 (Enter /data0/hywu0/study/g16/l401.exe)
 ExpMin= 3.48D-02 ExpMax= 7.75D+04 ExpMxC= 2.65D+03 IAcc=3 IRadAn=         5 AccDes= 0.00D+00
 Harris functional with IExCor= 1009 and IRadAn=       5 diagonalized for initial guess.
 HarFok:  IExCor= 1009 AccDes= 0.00D+00 IRadAn=         5 IDoV= 1 UseB2=F ITyADJ=14
 ICtDFT=  3500011 ScaDFX=  1.000000  1.000000  1.000000  1.000000
 FoFCou: FMM=F IPFlag=           0 FMFlag=      100000 FMFlg1=           0
         NFxFlg=           0 DoJE=T BraDBF=F KetDBF=T FulRan=T
         wScrn=  0.000000 ICntrl=       500 IOpCl=  0 I1Cent=   200000004 NGrid=           0
         NMat0=    1 NMatS0=      1 NMatT0=    0 NMatD0=    1 NMtDS0=    0 NMtDT0=    0
 Symmetry not used in FoFCou.
 Harris En= -643.947157332390    
 JPrj=0 DoOrth=F DoCkMO=F.
 Leave Link  401 at Thu Apr 28 09:50:09 2022, MaxMem= 10485760000 cpu:              11.8 elap:               0.8
 (Enter /data0/hywu0/study/g16/l502.exe)
 Two-electron integral symmetry not used.
 Closed shell SCF:
 Using DIIS extrapolation, IDIIS=  1040.
 NGot= 10485760000 LenX= 10485518222 LenY= 10485400817
 Requested convergence on RMS density matrix=1.00D-08 within 128 cycles.
 Requested convergence on MAX density matrix=1.00D-06.
 Requested convergence on             energy=1.00D-06.
 No special actions if energy rises.
 Fock matrices will be formed incrementally for  20 cycles.

 Cycle   1  Pass 1  IDiag  1:
 FoFJK:  IHMeth= 1 ICntrl=       0 DoSepK=F KAlg= 0 I1Cent=           0 FoldK=F
 IRaf= 850000000 NMat=       1 IRICut=       1 DoRegI=T DoRafI=F ISym2E= 0 IDoP0=0 IntGTp=1.
 FoFCou: FMM=F IPFlag=           0 FMFlag=      100000 FMFlg1=           0
         NFxFlg=           0 DoJE=F BraDBF=F KetDBF=F FulRan=T
         wScrn=  0.000000 ICntrl=         0 IOpCl=  0 I1Cent=           0 NGrid=           0
         NMat0=    1 NMatS0=      1 NMatT0=    0 NMatD0=    1 NMtDS0=    0 NMtDT0=    0
 Symmetry not used in FoFCou.
 E= -643.872852291644    
 DIIS: error= 2.16D-02 at cycle   1 NSaved=   1.
 NSaved= 1 IEnMin= 1 EnMin= -643.872852291644     IErMin= 1 ErrMin= 2.16D-02
 ErrMax= 2.16D-02  0.00D+00 EMaxC= 1.00D-01 BMatC= 5.05D-01 BMatP= 5.05D-01
 IDIUse=3 WtCom= 7.84D-01 WtEn= 2.16D-01
 Coeff-Com:  0.100D+01
 Coeff-En:   0.100D+01
 Coeff:      0.100D+01
 Gap=     0.296 Goal=   None    Shift=    0.000
 GapD=    0.296 DampG=1.000 DampE=0.500 DampFc=0.5000 IDamp=-1.
 Damping current iteration by 5.00D-01
 RMSDP=3.48D-03 MaxDP=1.52D-01              OVMax= 2.46D-01

 Cycle   2  Pass 1  IDiag  1:
 RMSU=  1.74D-03    CP:  1.00D+00
 E= -643.989638709903     Delta-E=       -0.116786418259 Rises=F Damp=T
 DIIS: error= 4.99D-03 at cycle   2 NSaved=   2.
 NSaved= 2 IEnMin= 2 EnMin= -643.989638709903     IErMin= 2 ErrMin= 4.99D-03
 ErrMax= 4.99D-03  0.00D+00 EMaxC= 1.00D-01 BMatC= 2.61D-02 BMatP= 5.05D-01
 IDIUse=3 WtCom= 9.50D-01 WtEn= 4.99D-02
 Coeff-Com:  0.650D-01 0.935D+00
 Coeff-En:   0.192D+00 0.808D+00
 Coeff:      0.713D-01 0.929D+00
 Gap=     0.367 Goal=   None    Shift=    0.000
 RMSDP=8.04D-04 MaxDP=4.82D-02 DE=-1.17D-01 OVMax= 1.52D-01

 Cycle   3  Pass 1  IDiag  1:
 RMSU=  6.05D-04    CP:  9.91D-01  7.00D-01
 E= -644.150123639411     Delta-E=       -0.160484929508 Rises=F Damp=F
 DIIS: error= 2.98D-03 at cycle   3 NSaved=   3.
 NSaved= 3 IEnMin= 3 EnMin= -644.150123639411     IErMin= 3 ErrMin= 2.98D-03
 ErrMax= 2.98D-03  0.00D+00 EMaxC= 1.00D-01 BMatC= 1.01D-02 BMatP= 2.61D-02
 IDIUse=3 WtCom= 9.70D-01 WtEn= 2.98D-02
 Coeff-Com: -0.213D-01 0.342D+00 0.679D+00
 Coeff-En:   0.000D+00 0.000D+00 0.100D+01
 Coeff:     -0.206D-01 0.332D+00 0.689D+00
 Gap=     0.357 Goal=   None    Shift=    0.000
 RMSDP=3.22D-04 MaxDP=1.51D-02 DE=-1.60D-01 OVMax= 3.36D-02

 Cycle   4  Pass 1  IDiag  1:
 RMSU=  2.64D-04    CP:  9.92D-01  7.91D-01  8.46D-01
 E= -644.154932401666     Delta-E=       -0.004808762255 Rises=F Damp=F
 DIIS: error= 2.07D-03 at cycle   4 NSaved=   4.
 NSaved= 4 IEnMin= 4 EnMin= -644.154932401666     IErMin= 4 ErrMin= 2.07D-03
 ErrMax= 2.07D-03  0.00D+00 EMaxC= 1.00D-01 BMatC= 3.44D-03 BMatP= 1.01D-02
 IDIUse=3 WtCom= 9.79D-01 WtEn= 2.07D-02
 Coeff-Com: -0.240D-01 0.542D-01 0.395D+00 0.575D+00
 Coeff-En:   0.000D+00 0.000D+00 0.249D+00 0.751D+00
 Coeff:     -0.235D-01 0.531D-01 0.392D+00 0.579D+00
 Gap=     0.362 Goal=   None    Shift=    0.000
 RMSDP=1.22D-04 MaxDP=5.84D-03 DE=-4.81D-03 OVMax= 1.05D-02

 Cycle   5  Pass 1  IDiag  1:
 RMSU=  3.51D-05    CP:  9.91D-01  7.71D-01  9.43D-01  6.39D-01
 E= -644.157199417457     Delta-E=       -0.002267015791 Rises=F Damp=F
 DIIS: error= 1.09D-04 at cycle   5 NSaved=   5.
 NSaved= 5 IEnMin= 5 EnMin= -644.157199417457     IErMin= 5 ErrMin= 1.09D-04
 ErrMax= 1.09D-04  0.00D+00 EMaxC= 1.00D-01 BMatC= 1.36D-05 BMatP= 3.44D-03
 IDIUse=3 WtCom= 9.99D-01 WtEn= 1.09D-03
 Coeff-Com: -0.331D-02 0.253D-02 0.620D-01 0.123D+00 0.816D+00
 Coeff-En:   0.000D+00 0.000D+00 0.000D+00 0.000D+00 0.100D+01
 Coeff:     -0.331D-02 0.253D-02 0.619D-01 0.123D+00 0.816D+00
 Gap=     0.361 Goal=   None    Shift=    0.000
 RMSDP=1.24D-05 MaxDP=8.76D-04 DE=-2.27D-03 OVMax= 6.98D-04

 Cycle   6  Pass 1  IDiag  1:
 RMSU=  1.02D-05    CP:  9.91D-01  7.69D-01  9.47D-01  6.58D-01  9.85D-01
 E= -644.157208747495     Delta-E=       -0.000009330038 Rises=F Damp=F
 DIIS: error= 3.37D-05 at cycle   6 NSaved=   6.
 NSaved= 6 IEnMin= 6 EnMin= -644.157208747495     IErMin= 6 ErrMin= 3.37D-05
 ErrMax= 3.37D-05  0.00D+00 EMaxC= 1.00D-01 BMatC= 1.12D-06 BMatP= 1.36D-05
 IDIUse=1 WtCom= 1.00D+00 WtEn= 0.00D+00
 Coeff-Com: -0.134D-03-0.111D-02 0.355D-02 0.133D-01 0.229D+00 0.756D+00
 Coeff:     -0.134D-03-0.111D-02 0.355D-02 0.133D-01 0.229D+00 0.756D+00
 Gap=     0.361 Goal=   None    Shift=    0.000
 RMSDP=4.53D-06 MaxDP=2.28D-04 DE=-9.33D-06 OVMax= 2.06D-04

 Cycle   7  Pass 1  IDiag  1:
 RMSU=  2.22D-06    CP:  9.91D-01  7.68D-01  9.48D-01  6.60D-01  1.08D+00
                    CP:  9.15D-01
 E= -644.157209558600     Delta-E=       -0.000000811105 Rises=F Damp=F
 DIIS: error= 1.31D-05 at cycle   7 NSaved=   7.
 NSaved= 7 IEnMin= 7 EnMin= -644.157209558600     IErMin= 7 ErrMin= 1.31D-05
 ErrMax= 1.31D-05  0.00D+00 EMaxC= 1.00D-01 BMatC= 1.69D-07 BMatP= 1.12D-06
 IDIUse=1 WtCom= 1.00D+00 WtEn= 0.00D+00
 Coeff-Com:  0.400D-03-0.723D-03-0.756D-02-0.122D-01-0.177D-01 0.262D+00
 Coeff-Com:  0.776D+00
 Coeff:      0.400D-03-0.723D-03-0.756D-02-0.122D-01-0.177D-01 0.262D+00
 Coeff:      0.776D+00
 Gap=     0.361 Goal=   None    Shift=    0.000
 RMSDP=1.49D-06 MaxDP=6.49D-05 DE=-8.11D-07 OVMax= 9.07D-05

 Cycle   8  Pass 1  IDiag  1:
 RMSU=  1.04D-06    CP:  9.91D-01  7.68D-01  9.48D-01  6.60D-01  1.09D+00
                    CP:  9.84D-01  9.70D-01
 E= -644.157209667834     Delta-E=       -0.000000109233 Rises=F Damp=F
 DIIS: error= 6.08D-06 at cycle   8 NSaved=   8.
 NSaved= 8 IEnMin= 8 EnMin= -644.157209667834     IErMin= 8 ErrMin= 6.08D-06
 ErrMax= 6.08D-06  0.00D+00 EMaxC= 1.00D-01 BMatC= 3.54D-08 BMatP= 1.69D-07
 IDIUse=1 WtCom= 1.00D+00 WtEn= 0.00D+00
 Coeff-Com:  0.187D-03-0.270D-03-0.378D-02-0.630D-02-0.181D-01 0.792D-01
 Coeff-Com:  0.389D+00 0.560D+00
 Coeff:      0.187D-03-0.270D-03-0.378D-02-0.630D-02-0.181D-01 0.792D-01
 Coeff:      0.389D+00 0.560D+00
 Gap=     0.361 Goal=   None    Shift=    0.000
 RMSDP=4.04D-07 MaxDP=2.44D-05 DE=-1.09D-07 OVMax= 3.24D-05

 Cycle   9  Pass 1  IDiag  1:
 RMSU=  2.50D-07    CP:  9.91D-01  7.68D-01  9.48D-01  6.60D-01  1.09D+00
                    CP:  9.93D-01  1.07D+00  7.93D-01
 E= -644.157209692287     Delta-E=       -0.000000024453 Rises=F Damp=F
 DIIS: error= 6.19D-07 at cycle   9 NSaved=   9.
 NSaved= 9 IEnMin= 9 EnMin= -644.157209692287     IErMin= 9 ErrMin= 6.19D-07
 ErrMax= 6.19D-07  0.00D+00 EMaxC= 1.00D-01 BMatC= 5.42D-10 BMatP= 3.54D-08
 IDIUse=1 WtCom= 1.00D+00 WtEn= 0.00D+00
 Coeff-Com: -0.262D-04 0.475D-04 0.276D-03 0.547D-03-0.252D-03-0.175D-01
 Coeff-Com: -0.330D-01 0.505D-01 0.999D+00
 Coeff:     -0.262D-04 0.475D-04 0.276D-03 0.547D-03-0.252D-03-0.175D-01
 Coeff:     -0.330D-01 0.505D-01 0.999D+00
 Gap=     0.361 Goal=   None    Shift=    0.000
 RMSDP=1.37D-07 MaxDP=6.74D-06 DE=-2.45D-08 OVMax= 7.66D-06

 Cycle  10  Pass 1  IDiag  1:
 RMSU=  6.11D-08    CP:  9.91D-01  7.68D-01  9.48D-01  6.61D-01  1.10D+00
                    CP:  9.92D-01  1.09D+00  8.67D-01  1.11D+00
 E= -644.157209692971     Delta-E=       -0.000000000684 Rises=F Damp=F
 DIIS: error= 1.03D-07 at cycle  10 NSaved=  10.
 NSaved=10 IEnMin=10 EnMin= -644.157209692971     IErMin=10 ErrMin= 1.03D-07
 ErrMax= 1.03D-07  0.00D+00 EMaxC= 1.00D-01 BMatC= 1.44D-11 BMatP= 5.42D-10
 IDIUse=1 WtCom= 1.00D+00 WtEn= 0.00D+00
 Coeff-Com: -0.611D-05 0.104D-04 0.118D-03 0.198D-03 0.460D-03-0.406D-02
 Coeff-Com: -0.152D-01-0.123D-01 0.896D-01 0.941D+00
 Coeff:     -0.611D-05 0.104D-04 0.118D-03 0.198D-03 0.460D-03-0.406D-02
 Coeff:     -0.152D-01-0.123D-01 0.896D-01 0.941D+00
 Gap=     0.361 Goal=   None    Shift=    0.000
 RMSDP=2.54D-08 MaxDP=8.07D-07 DE=-6.84D-10 OVMax= 1.81D-06

 Cycle  11  Pass 1  IDiag  1:
 RMSU=  1.56D-08    CP:  9.91D-01  7.68D-01  9.48D-01  6.61D-01  1.10D+00
                    CP:  9.92D-01  1.10D+00  8.75D-01  1.16D+00  1.15D+00
 E= -644.157209692979     Delta-E=       -0.000000000007 Rises=F Damp=F
 DIIS: error= 8.99D-08 at cycle  11 NSaved=  11.
 NSaved=11 IEnMin=11 EnMin= -644.157209692979     IErMin=11 ErrMin= 8.99D-08
 ErrMax= 8.99D-08  0.00D+00 EMaxC= 1.00D-01 BMatC= 7.04D-12 BMatP= 1.44D-11
 IDIUse=1 WtCom= 1.00D+00 WtEn= 0.00D+00
 Coeff-Com: -0.452D-06 0.713D-06 0.316D-04 0.443D-04 0.221D-03-0.530D-03
 Coeff-Com: -0.435D-02-0.949D-02-0.401D-01 0.454D+00 0.600D+00
 Coeff:     -0.452D-06 0.713D-06 0.316D-04 0.443D-04 0.221D-03-0.530D-03
 Coeff:     -0.435D-02-0.949D-02-0.401D-01 0.454D+00 0.600D+00
 Gap=     0.361 Goal=   None    Shift=    0.000
 RMSDP=7.95D-09 MaxDP=4.37D-07 DE=-7.28D-12 OVMax= 7.44D-07

 SCF Done:  E(RM062X) =  -644.157209693     A.U. after   11 cycles
            NFock= 11  Conv=0.80D-08     -V/T= 2.0024
 KE= 6.426066050889D+02 PE=-2.088836097239D+03 EE= 5.215200236172D+02
 Leave Link  502 at Thu Apr 28 09:50:30 2022, MaxMem= 10485760000 cpu:             328.1 elap:              20.6
 (Enter /data0/hywu0/study/g16/l601.exe)
 Copying SCF densities to generalized density rwf, IOpCl= 0 IROHF=0.

 **********************************************************************

            Population analysis using the SCF density.

 **********************************************************************

 Alpha  occ. eigenvalues --  -78.16789 -19.68964 -19.67957 -19.67667 -19.59060
 Alpha  occ. eigenvalues --   -6.97591  -5.09494  -5.09489  -5.09276  -1.24513
 Alpha  occ. eigenvalues --   -1.17214  -1.16431  -1.09710  -0.73004  -0.66005
 Alpha  occ. eigenvalues --   -0.64140  -0.56317  -0.55658  -0.51017  -0.48378
 Alpha  occ. eigenvalues --   -0.48026  -0.45671  -0.43984  -0.38858  -0.38314
 Alpha virt. eigenvalues --   -0.02190   0.00686   0.01694   0.03807   0.04787
 Alpha virt. eigenvalues --    0.05358   0.05996   0.07923   0.09939   0.11275
 Alpha virt. eigenvalues --    0.11492   0.13956   0.14756   0.14918   0.15923
 Alpha virt. eigenvalues --    0.16192   0.16640   0.17972   0.18334   0.19623
 Alpha virt. eigenvalues --    0.20100   0.20187   0.20807   0.22149   0.22275
 Alpha virt. eigenvalues --    0.23532   0.23925   0.24429   0.25091   0.26228
 Alpha virt. eigenvalues --    0.26416   0.27795   0.28001   0.28458   0.28588
 Alpha virt. eigenvalues --    0.29436   0.30439   0.31116   0.31348   0.32880
 Alpha virt. eigenvalues --    0.33490   0.34405   0.35904   0.36763   0.36987
 Alpha virt. eigenvalues --    0.37663   0.38240   0.38687   0.39550   0.40018
 Alpha virt. eigenvalues --    0.41459   0.42868   0.44899   0.45671   0.47118
 Alpha virt. eigenvalues --    0.49244   0.50304   0.51520   0.52405   0.57400
 Alpha virt. eigenvalues --    0.59047   0.66892   0.69019   0.70648   0.71804
 Alpha virt. eigenvalues --    0.72781   0.73942   0.75562   0.76530   0.77666
 Alpha virt. eigenvalues --    0.78141   0.80509   0.81629   0.83232   0.85217
 Alpha virt. eigenvalues --    0.86647   0.88989   0.90604   0.93232   0.96995
 Alpha virt. eigenvalues --    0.98640   1.01074   1.02104   1.03294   1.05102
 Alpha virt. eigenvalues --    1.06793   1.08226   1.10171   1.11456   1.11997
 Alpha virt. eigenvalues --    1.13604   1.14609   1.15575   1.17928   1.18065
 Alpha virt. eigenvalues --    1.21810   1.22125   1.22570   1.23864   1.24227
 Alpha virt. eigenvalues --    1.25055   1.27094   1.27384   1.29654   1.33682
 Alpha virt. eigenvalues --    1.34781   1.37688   1.38991   1.43021   1.43705
 Alpha virt. eigenvalues --    1.46512   1.47825   1.50401   1.52441   1.56303
 Alpha virt. eigenvalues --    1.57980   1.60714   1.61531   1.65965   1.67556
 Alpha virt. eigenvalues --    1.67987   1.70151   1.75217   1.75983   1.83181
 Alpha virt. eigenvalues --    1.83875   1.86850   1.88217   1.91206   1.94189
 Alpha virt. eigenvalues --    1.95762   1.97622   1.99185   2.02480   2.03244
 Alpha virt. eigenvalues --    2.05994   2.07382   2.10189   2.11592   2.15899
 Alpha virt. eigenvalues --    2.16852   2.20731   2.22102   2.23678   2.27108
 Alpha virt. eigenvalues --    2.28552   2.31352   2.35177   2.36694   2.38735
 Alpha virt. eigenvalues --    2.43393   2.44603   2.45485   2.46335   2.47286
 Alpha virt. eigenvalues --    2.49519   2.53056   2.55845   2.59340   2.61091
 Alpha virt. eigenvalues --    2.63069   2.64196   2.66141   2.67043   2.68947
 Alpha virt. eigenvalues --    2.71087   2.72077   2.74238   2.75306   2.77143
 Alpha virt. eigenvalues --    2.79203   2.81853   2.82598   2.85415   2.87113
 Alpha virt. eigenvalues --    2.89067   2.91204   2.93229   2.94363   2.95586
 Alpha virt. eigenvalues --    2.96116   2.98822   3.02255   3.03318   3.05405
 Alpha virt. eigenvalues --    3.09322   3.13542   3.16973   3.21690   3.24608
 Alpha virt. eigenvalues --    3.27338   3.31000   3.33846   3.42149   3.50877
 Alpha virt. eigenvalues --    3.72547   3.79421   3.82384   4.45268   4.47711
 Alpha virt. eigenvalues --    4.53386   4.58439   4.68198   4.77890   4.93305
 Alpha virt. eigenvalues --    4.96032   5.00190   5.02930   5.06047   5.08324
 Alpha virt. eigenvalues --    5.09428   5.13841   5.14556   5.22225   5.27277
 Alpha virt. eigenvalues --    5.41769   5.53619   5.54205   5.58850   6.72213
 Alpha virt. eigenvalues --    6.74291   6.75687   6.77706   6.78962   6.81718
 Alpha virt. eigenvalues --    6.84633   6.85931   6.90105   6.94272   6.96494
 Alpha virt. eigenvalues --    6.99234   7.00076   7.05648   7.10823   7.21729
 Alpha virt. eigenvalues --    7.26800   7.28673   7.33483   7.41383   7.66338
 Alpha virt. eigenvalues --    9.83748   9.85853   9.90189   9.94995   9.99700
 Alpha virt. eigenvalues --   10.00849  10.10268  10.18462  10.23392  10.28912
 Alpha virt. eigenvalues --   10.30634  10.31410  10.34541  10.38593  10.41373
 Alpha virt. eigenvalues --   10.43288  10.49275  10.52384  10.56577  10.61299
 Alpha virt. eigenvalues --   10.69568  10.81455  10.86822  12.98087  12.99948
 Alpha virt. eigenvalues --   13.06096  13.13885  13.32280  13.42707  13.45862
 Alpha virt. eigenvalues --   13.56702  13.59702  13.67463  13.92416  13.98056
 Alpha virt. eigenvalues --   14.19730  14.22663  14.25280  14.38188  17.89977
 Alpha virt. eigenvalues --   17.95004  18.51977  18.54277  50.00313  50.01109
 Alpha virt. eigenvalues --   50.02344  50.10398  52.83823  52.86269  53.01919
 Alpha virt. eigenvalues --   70.63953 137.38290 137.99896 139.69758 139.77560
 Alpha virt. eigenvalues --  163.88699 483.38575
          Condensed to atoms (all electrons):
               1          2          3          4          5          6
     1  P    0.033214  -0.009247  -0.008505   0.000094  -0.004534  -0.001441
     2  O   -0.009247   0.015393  -0.003770  -0.000220  -0.001003   0.001321
     3  O   -0.008505  -0.003770   0.012756  -0.000086   0.000849   0.000649
     4  H    0.000094  -0.000220  -0.000086   0.000291   0.000141  -0.000059
     5  O   -0.004534  -0.001003   0.000849   0.000141   0.008823  -0.004203
     6  H   -0.001441   0.001321   0.000649  -0.000059  -0.004203   0.005761
     7  O   -0.005252   0.002851  -0.004561  -0.000194  -0.000906  -0.000380
     8  H   -0.000589   0.000346  -0.000259   0.000018   0.000053  -0.000080
     9  P   -0.003774   0.000391   0.000081  -0.000052   0.002409  -0.001067
    10  O    0.014820  -0.001502  -0.003127  -0.000055   0.003622   0.003688
    11  O   -0.004533   0.014048   0.000540  -0.000008  -0.002552   0.002390
    12  H    0.002118   0.007914  -0.000254   0.000003   0.000116  -0.000007
    13  O   -0.000835  -0.000510  -0.000046  -0.000001  -0.000532   0.000176
    14  H    0.000257   0.000309  -0.000006  -0.000000  -0.000002   0.000085
    15  O   -0.000729  -0.000052   0.000005   0.000002   0.000194  -0.000289
    16  H    0.000060   0.000128  -0.000018  -0.000000   0.000067  -0.000019
               7          8          9         10         11         12
     1  P   -0.005252  -0.000589  -0.003774   0.014820  -0.004533   0.002118
     2  O    0.002851   0.000346   0.000391  -0.001502   0.014048   0.007914
     3  O   -0.004561  -0.000259   0.000081  -0.003127   0.000540  -0.000254
     4  H   -0.000194   0.000018  -0.000052  -0.000055  -0.000008   0.000003
     5  O   -0.000906   0.000053   0.002409   0.003622  -0.002552   0.000116
     6  H   -0.000380  -0.000080  -0.001067   0.003688   0.002390  -0.000007
     7  O    0.009222   0.000201  -0.000324   0.000662  -0.000168   0.000176
     8  H    0.000201   0.000380  -0.000050   0.000003  -0.000029   0.000005
     9  P   -0.000324  -0.000050  12.486561   0.549222   0.278577  -0.003772
    10  O    0.000662   0.000003   0.549222   8.071797  -0.042460  -0.001509
    11  O   -0.000168  -0.000029   0.278577  -0.042460   8.062852   0.297424
[...]
   161 basis functions,   248 primitive gaussians,   171 cartesian basis functions
    25 alpha electrons       25 beta electrons
       nuclear repulsion energy       280.5523017593 Hartrees.
 IExCor= 4336 DFT=T Ex+Corr=M062X ExCW=0 ScaHFX=  0.540000
 ScaDFX=  1.000000  1.000000  1.000000  1.000000 ScalE2=  1.000000  1.000000
 IRadAn=      5 IRanWt=     -1 IRanGd=            0 ICorTp=0 IEmpDi=131
 NAtoms=   16 NActive=    8 NUniq=    8 SFac= 1.00D+00 NAtFMM=   60 NAOKFM=F Big=F
 Integral buffers will be    131072 words long.
 Raffenetti 2 integral format.
 Two-electron integral symmetry is turned off.
 R6Disp:  Grimme-D3 Dispersion energy=       -0.0000429193 Hartrees.
 Nuclear repulsion after empirical dispersion term =      280.5522588401 Hartrees.
 No density basis found on file   718.
 Leave Link  301 at Thu Apr 28 09:50:37 2022, MaxMem= 10485760000 cpu:               0.7 elap:               0.1
 (Enter /data0/hywu0/study/g16/l302.exe)
 NPDir=0 NMtPBC=     1 NCelOv=     1 NCel=       1 NClECP=     1 NCelD=      1
         NCelK=      1 NCelE2=     1 NClLst=     1 CellRange=     0.0.
 One-electron integrals computed using PRISM.
 NBasis=   161 RedAO= T EigKep=  5.23D-04  NBF=   161
 NBsUse=   161 1.00D-06 EigRej= -1.00D+00 NBFU=   161
 Precomputing XC quadrature grid using
 IXCGrd= 4 IRadAn=           5 IRanWt=          -1 IRanGd=           0 AccXCQ= 0.00D+00.
 Generated NRdTot=       0 NPtTot=           0 NUsed=           0 NTot=          32
 NSgBfM=   171   171   171   171   171 MxSgAt=     8 MxSgA2=     8.
 Leave Link  302 at Thu Apr 28 09:50:37 2022, MaxMem= 10485760000 cpu:               2.0 elap:               0.1
 (Enter /data0/hywu0/study/g16/l303.exe)
 DipDrv:  MaxL=1.
 Leave Link  303 at Thu Apr 28 09:50:38 2022, MaxMem= 10485760000 cpu:               0.4 elap:               0.0
 (Enter /data0/hywu0/study/g16/l401.exe)
 ExpMin= 3.48D-02 ExpMax= 7.75D+04 ExpMxC= 2.65D+03 IAcc=3 IRadAn=         5 AccDes= 0.00D+00
 Harris functional with IExCor= 1009 and IRadAn=       5 diagonalized for initial guess.
 HarFok:  IExCor= 1009 AccDes= 0.00D+00 IRadAn=         5 IDoV= 1 UseB2=F ITyADJ=14
 ICtDFT=  3500011 ScaDFX=  1.000000  1.000000  1.000000  1.000000
 FoFCou: FMM=F IPFlag=           0 FMFlag=      100000 FMFlg1=           0
         NFxFlg=           0 DoJE=T BraDBF=F KetDBF=T FulRan=T
         wScrn=  0.000000 ICntrl=       500 IOpCl=  0 I1Cent=   200000004 NGrid=           0
         NMat0=    1 NMatS0=      1 NMatT0=    0 NMatD0=    1 NMtDS0=    0 NMtDT0=    0
 Symmetry not used in FoFCou.
 Harris En= -643.946387416842    
 JPrj=0 DoOrth=F DoCkMO=F.
 Leave Link  401 at Thu Apr 28 09:50:38 2022, MaxMem= 10485760000 cpu:               4.5 elap:               0.3
 (Enter /data0/hywu0/study/g16/l502.exe)
 Keep R1 ints in memory in canonical form, NReq=100988324.
 FoFCou: FMM=F IPFlag=           0 FMFlag=           0 FMFlg1=           0
         NFxFlg=           0 DoJE=F BraDBF=F KetDBF=F FulRan=T
         wScrn=  0.000000 ICntrl=       600 IOpCl=  0 I1Cent=           0 NGrid=           0
         NMat0=    1 NMatS0=  13041 NMatT0=    0 NMatD0=    1 NMtDS0=    0 NMtDT0=    0
 Symmetry not used in FoFCou.
 Two-electron integral symmetry not used.
 Closed shell SCF:
 Using DIIS extrapolation, IDIIS=  1040.
 NGot= 10485760000 LenX= 10400656898 LenY= 10400627216
 Requested convergence on RMS density matrix=1.00D-08 within 128 cycles.
 Requested convergence on MAX density matrix=1.00D-06.
 Requested convergence on             energy=1.00D-06.
 No special actions if energy rises.

 Cycle   1  Pass 1  IDiag  1:
 E= -643.872211969128    
 DIIS: error= 4.33D-02 at cycle   1 NSaved=   1.
 NSaved= 1 IEnMin= 1 EnMin= -643.872211969128     IErMin= 1 ErrMin= 4.33D-02
 ErrMax= 4.33D-02  0.00D+00 EMaxC= 1.00D-01 BMatC= 5.05D-01 BMatP= 5.05D-01
 IDIUse=3 WtCom= 5.67D-01 WtEn= 4.33D-01
 Coeff-Com:  0.100D+01
 Coeff-En:   0.100D+01
 Coeff:      0.100D+01
 Gap=     0.297 Goal=   None    Shift=    0.000
 GapD=    0.297 DampG=1.000 DampE=0.500 DampFc=0.5000 IDamp=-1.
 Damping current iteration by 5.00D-01
 RMSDP=6.67D-03 MaxDP=1.44D-01              OVMax= 2.46D-01

 Cycle   2  Pass 1  IDiag  1:
 E= -643.989024099376     Delta-E=       -0.116812130249 Rises=F Damp=T
 DIIS: error= 1.08D-02 at cycle   2 NSaved=   2.
 NSaved= 2 IEnMin= 2 EnMin= -643.989024099376     IErMin= 2 ErrMin= 1.08D-02
 ErrMax= 1.08D-02  0.00D+00 EMaxC= 1.00D-01 BMatC= 2.60D-02 BMatP= 5.05D-01
 IDIUse=3 WtCom= 8.92D-01 WtEn= 1.08D-01
 Coeff-Com:  0.648D-01 0.935D+00
 Coeff-En:   0.191D+00 0.809D+00
 Coeff:      0.785D-01 0.921D+00
 Gap=     0.368 Goal=   None    Shift=    0.000
 RMSDP=1.49D-03 MaxDP=4.66D-02 DE=-1.17D-01 OVMax= 1.51D-01

 Cycle   3  Pass 1  IDiag  1:
 E= -644.149950146094     Delta-E=       -0.160926046717 Rises=F Damp=F
 DIIS: error= 7.19D-03 at cycle   3 NSaved=   3.
 NSaved= 3 IEnMin= 3 EnMin= -644.149950146094     IErMin= 3 ErrMin= 7.19D-03
 ErrMax= 7.19D-03  0.00D+00 EMaxC= 1.00D-01 BMatC= 9.37D-03 BMatP= 2.60D-02
 IDIUse=3 WtCom= 9.28D-01 WtEn= 7.19D-02
 Coeff-Com: -0.159D-01 0.332D+00 0.684D+00
 Coeff-En:   0.000D+00 0.000D+00 0.100D+01
 Coeff:     -0.147D-01 0.308D+00 0.706D+00
 Gap=     0.358 Goal=   None    Shift=    0.000
 RMSDP=6.30D-04 MaxDP=1.48D-02 DE=-1.61D-01 OVMax= 3.36D-02

 Cycle   4  Pass 1  IDiag  1:
 E= -644.153978995434     Delta-E=       -0.004028849341 Rises=F Damp=F
 DIIS: error= 4.04D-03 at cycle   4 NSaved=   4.
 NSaved= 4 IEnMin= 4 EnMin= -644.153978995434     IErMin= 4 ErrMin= 4.04D-03
 ErrMax= 4.04D-03  0.00D+00 EMaxC= 1.00D-01 BMatC= 3.83D-03 BMatP= 9.37D-03
 IDIUse=3 WtCom= 9.60D-01 WtEn= 4.04D-02
 Coeff-Com: -0.195D-01 0.454D-01 0.410D+00 0.564D+00
 Coeff-En:   0.000D+00 0.000D+00 0.293D+00 0.707D+00
 Coeff:     -0.187D-01 0.435D-01 0.405D+00 0.570D+00
 Gap=     0.365 Goal=   None    Shift=    0.000
 RMSDP=2.51D-04 MaxDP=6.35D-03 DE=-4.03D-03 OVMax= 1.14D-02

 Cycle   5  Pass 1  IDiag  1:
 E= -644.156513066785     Delta-E=       -0.002534071351 Rises=F Damp=F
 DIIS: error= 2.75D-04 at cycle   5 NSaved=   5.
 NSaved= 5 IEnMin= 5 EnMin= -644.156513066785     IErMin= 5 ErrMin= 2.75D-04
 ErrMax= 2.75D-04  0.00D+00 EMaxC= 1.00D-01 BMatC= 1.52D-05 BMatP= 3.83D-03
 IDIUse=3 WtCom= 9.97D-01 WtEn= 2.75D-03
 Coeff-Com: -0.223D-02 0.316D-03 0.652D-01 0.123D+00 0.813D+00
 Coeff-En:   0.000D+00 0.000D+00 0.000D+00 0.000D+00 0.100D+01
 Coeff:     -0.222D-02 0.315D-03 0.651D-01 0.123D+00 0.814D+00
 Gap=     0.363 Goal=   None    Shift=    0.000
 RMSDP=2.37D-05 MaxDP=9.23D-04 DE=-2.53D-03 OVMax= 7.18D-04

 Cycle   6  Pass 1  IDiag  1:
 E= -644.156523419675     Delta-E=       -0.000010352889 Rises=F Damp=F
 DIIS: error= 6.77D-05 at cycle   6 NSaved=   6.
 NSaved= 6 IEnMin= 6 EnMin= -644.156523419675     IErMin= 6 ErrMin= 6.77D-05
 ErrMax= 6.77D-05  0.00D+00 EMaxC= 1.00D-01 BMatC= 1.14D-06 BMatP= 1.52D-05
 IDIUse=1 WtCom= 1.00D+00 WtEn= 0.00D+00
 Coeff-Com:  0.132D-05-0.146D-02 0.451D-02 0.147D-01 0.234D+00 0.748D+00
 Coeff:      0.132D-05-0.146D-02 0.451D-02 0.147D-01 0.234D+00 0.748D+00
 Gap=     0.364 Goal=   None    Shift=    0.000
 RMSDP=8.40D-06 MaxDP=2.17D-04 DE=-1.04D-05 OVMax= 2.06D-04

 Cycle   7  Pass 1  IDiag  1:
 E= -644.156524241190     Delta-E=       -0.000000821515 Rises=F Damp=F
 DIIS: error= 2.22D-05 at cycle   7 NSaved=   7.
 NSaved= 7 IEnMin= 7 EnMin= -644.156524241190     IErMin= 7 ErrMin= 2.22D-05
 ErrMax= 2.22D-05  0.00D+00 EMaxC= 1.00D-01 BMatC= 1.68D-07 BMatP= 1.14D-06
 IDIUse=1 WtCom= 1.00D+00 WtEn= 0.00D+00
 Coeff-Com:  0.303D-03-0.555D-03-0.771D-02-0.119D-01-0.166D-01 0.259D+00
 Coeff-Com:  0.778D+00
 Coeff:      0.303D-03-0.555D-03-0.771D-02-0.119D-01-0.166D-01 0.259D+00
 Coeff:      0.778D+00
 Gap=     0.364 Goal=   None    Shift=    0.000
 RMSDP=2.79D-06 MaxDP=6.53D-05 DE=-8.22D-07 OVMax= 9.08D-05

 Cycle   8  Pass 1  IDiag  1:
 E= -644.156524349117     Delta-E=       -0.000000107928 Rises=F Damp=F
 DIIS: error= 1.24D-05 at cycle   8 NSaved=   8.
 NSaved= 8 IEnMin= 8 EnMin= -644.156524349117     IErMin= 8 ErrMin= 1.24D-05
 ErrMax= 1.24D-05  0.00D+00 EMaxC= 1.00D-01 BMatC= 3.57D-08 BMatP= 1.68D-07
 IDIUse=1 WtCom= 1.00D+00 WtEn= 0.00D+00
 Coeff-Com:  0.134D-03-0.167D-03-0.391D-02-0.621D-02-0.184D-01 0.763D-01
 Coeff-Com:  0.389D+00 0.563D+00
 Coeff:      0.134D-03-0.167D-03-0.391D-02-0.621D-02-0.184D-01 0.763D-01
 Coeff:      0.389D+00 0.563D+00
 Gap=     0.364 Goal=   None    Shift=    0.000
 RMSDP=7.80D-07 MaxDP=2.42D-05 DE=-1.08D-07 OVMax= 3.26D-05

 Cycle   9  Pass 1  IDiag  1:
 E= -644.156524373911     Delta-E=       -0.000000024794 Rises=F Damp=F
 DIIS: error= 1.23D-06 at cycle   9 NSaved=   9.
 NSaved= 9 IEnMin= 9 EnMin= -644.156524373911     IErMin= 9 ErrMin= 1.23D-06
 ErrMax= 1.23D-06  0.00D+00 EMaxC= 1.00D-01 BMatC= 5.53D-10 BMatP= 3.57D-08
 IDIUse=1 WtCom= 1.00D+00 WtEn= 0.00D+00
 Coeff-Com: -0.221D-04 0.433D-04 0.243D-03 0.481D-03-0.525D-03-0.165D-01
 Coeff-Com: -0.300D-01 0.516D-01 0.995D+00
 Coeff:     -0.221D-04 0.433D-04 0.243D-03 0.481D-03-0.525D-03-0.165D-01
 Coeff:     -0.300D-01 0.516D-01 0.995D+00
 Gap=     0.364 Goal=   None    Shift=    0.000
 RMSDP=2.51D-07 MaxDP=6.58D-06 DE=-2.48D-08 OVMax= 7.79D-06

 Cycle  10  Pass 1  IDiag  1:
 E= -644.156524374582     Delta-E=       -0.000000000670 Rises=F Damp=F
 DIIS: error= 2.21D-07 at cycle  10 NSaved=  10.
 NSaved=10 IEnMin=10 EnMin= -644.156524374582     IErMin=10 ErrMin= 2.21D-07
 ErrMax= 2.21D-07  0.00D+00 EMaxC= 1.00D-01 BMatC= 1.50D-11 BMatP= 5.53D-10
 IDIUse=1 WtCom= 1.00D+00 WtEn= 0.00D+00
 Coeff-Com: -0.419D-05 0.703D-05 0.118D-03 0.187D-03 0.448D-03-0.390D-02
 Coeff-Com: -0.149D-01-0.120D-01 0.863D-01 0.944D+00
 Coeff:     -0.419D-05 0.703D-05 0.118D-03 0.187D-03 0.448D-03-0.390D-02
 Coeff:     -0.149D-01-0.120D-01 0.863D-01 0.944D+00
 Gap=     0.364 Goal=   None    Shift=    0.000
 RMSDP=4.86D-08 MaxDP=8.21D-07 DE=-6.70D-10 OVMax= 1.82D-06

 Cycle  11  Pass 1  IDiag  1:
 E= -644.156524374599     Delta-E=       -0.000000000018 Rises=F Damp=F
 DIIS: error= 1.83D-07 at cycle  11 NSaved=  11.
 NSaved=11 IEnMin=11 EnMin= -644.156524374599     IErMin=11 ErrMin= 1.83D-07
 ErrMax= 1.83D-07  0.00D+00 EMaxC= 1.00D-01 BMatC= 7.71D-12 BMatP= 1.50D-11
 IDIUse=1 WtCom= 1.00D+00 WtEn= 0.00D+00
 Coeff-Com:  0.130D-06-0.574D-06 0.349D-04 0.453D-04 0.249D-03-0.535D-03
 Coeff-Com: -0.451D-02-0.982D-02-0.439D-01 0.467D+00 0.592D+00
 Coeff:      0.130D-06-0.574D-06 0.349D-04 0.453D-04 0.249D-03-0.535D-03
 Coeff:     -0.451D-02-0.982D-02-0.439D-01 0.467D+00 0.592D+00
 Gap=     0.364 Goal=   None    Shift=    0.000
 RMSDP=1.54D-08 MaxDP=4.50D-07 DE=-1.75D-11 OVMax= 7.66D-07

 Cycle  12  Pass 1  IDiag  1:
 E= -644.156524374600     Delta-E=       -0.000000000000 Rises=F Damp=F
 DIIS: error= 3.61D-08 at cycle  12 NSaved=  12.
 NSaved=12 IEnMin=12 EnMin= -644.156524374600     IErMin=12 ErrMin= 3.61D-08
 ErrMax= 3.61D-08  0.00D+00 EMaxC= 1.00D-01 BMatC= 4.38D-13 BMatP= 7.71D-12
 IDIUse=1 WtCom= 1.00D+00 WtEn= 0.00D+00
 Coeff-Com:  0.629D-06-0.117D-05-0.413D-05-0.960D-05 0.167D-04 0.333D-03
 Coeff-Com:  0.788D-03-0.102D-02-0.253D-01 0.987D-02 0.194D+00 0.821D+00
 Coeff:      0.629D-06-0.117D-05-0.413D-05-0.960D-05 0.167D-04 0.333D-03
 Coeff:      0.788D-03-0.102D-02-0.253D-01 0.987D-02 0.194D+00 0.821D+00
 Gap=     0.364 Goal=   None    Shift=    0.000
 RMSDP=5.68D-09 MaxDP=7.87D-08 DE=-4.55D-13 OVMax= 1.72D-07

 SCF Done:  E(RM062X) =  -644.156524375     A.U. after   12 cycles
            NFock= 12  Conv=0.57D-08     -V/T= 2.0024
 KE= 6.426111693448D+02 PE=-2.088836082998D+03 EE= 5.215161304385D+02
 Leave Link  502 at Thu Apr 28 09:50:44 2022, MaxMem= 10485760000 cpu:              79.1 elap:               6.0
 (Enter /data0/hywu0/study/g16/l601.exe)
 Copying SCF densities to generalized density rwf, IOpCl= 0 IROHF=0.

 **********************************************************************

            Population analysis using the SCF density.

 **********************************************************************

 Alpha  occ. eigenvalues --  -78.16794 -19.68978 -19.67952 -19.67659 -19.59078
 Alpha  occ. eigenvalues --   -6.97597  -5.09500  -5.09495  -5.09283  -1.24524
 Alpha  occ. eigenvalues --   -1.17226  -1.16431  -1.09730  -0.73013  -0.66014
 Alpha  occ. eigenvalues --   -0.64142  -0.56327  -0.55664  -0.51018  -0.48383
 Alpha  occ. eigenvalues --   -0.48028  -0.45676  -0.43987  -0.38872  -0.38321
 Alpha virt. eigenvalues --   -0.01961   0.01742   0.01790   0.04676   0.09587
 Alpha virt. eigenvalues --    0.10439   0.12395   0.14615   0.15201   0.15679
 Alpha virt. eigenvalues --    0.17544   0.18430   0.18694   0.20328   0.21476
 Alpha virt. eigenvalues --    0.22229   0.24331   0.25575   0.25611   0.28306
 Alpha virt. eigenvalues --    0.28494   0.29066   0.29597   0.31089   0.32875
 Alpha virt. eigenvalues --    0.34443   0.35954   0.36716   0.40319   0.43592
 Alpha virt. eigenvalues --    0.46237   0.48424   0.53417   0.56527   0.56901
 Alpha virt. eigenvalues --    0.74227   0.76266   0.76953   0.86333   0.96089
 Alpha virt. eigenvalues --    0.98081   1.01864   1.05951   1.07976   1.11424
 Alpha virt. eigenvalues --    1.13076   1.15428   1.17772   1.19117   1.21055
 Alpha virt. eigenvalues --    1.21868   1.24156   1.25331   1.26696   1.32906
 Alpha virt. eigenvalues --    1.37839   1.40160   1.44910   1.46614   1.48376
 Alpha virt. eigenvalues --    1.54078   1.55809   1.60948   1.64044   1.65695
 Alpha virt. eigenvalues --    1.67350   1.68035   1.69754   1.74298   1.82429
 Alpha virt. eigenvalues --    1.83032   1.84808   1.86821   1.93249   1.97204
 Alpha virt. eigenvalues --    2.03191   2.04531   2.09172   2.11187   2.15896
 Alpha virt. eigenvalues --    2.20523   2.24376   2.27292   2.35151   2.43894
 Alpha virt. eigenvalues --    2.47790   2.56557   2.61599   2.64008   2.70655
 Alpha virt. eigenvalues --    2.74236   2.83945   2.85529   2.91341   2.96642
 Alpha virt. eigenvalues --    5.01526   5.04915   5.07358   5.07868   5.09345
 Alpha virt. eigenvalues --    5.12423   5.19156   5.21829   5.36066   5.51167
 Alpha virt. eigenvalues --    5.53111   5.53756   6.71943   6.73619   6.74970
 Alpha virt. eigenvalues --    6.77008   6.78465   6.80448   6.82515   6.85492
 Alpha virt. eigenvalues --    6.89590   6.93913   6.96075   6.98050   6.99691
 Alpha virt. eigenvalues --    7.05149   7.08834   7.20983   7.25706   7.27847
 Alpha virt. eigenvalues --    7.32381   7.39628   7.64793  14.21052  14.24781
 Alpha virt. eigenvalues --   14.36878  49.98803  50.00057  50.01368  50.09445
 Alpha virt. eigenvalues --  163.85716
          Condensed to atoms (all electrons):
               9         10         11         12         13         14
     9  P   12.426978   0.562263   0.267494   0.003245   0.192438   0.039678
    10  O    0.562263   8.105341  -0.017668  -0.013052  -0.015382   0.004351
    11  O    0.267494  -0.017668   8.055677   0.266803   0.021965  -0.014158
    12  H    0.003245  -0.013052   0.266803   0.407605  -0.006642   0.001008
    13  O    0.192438  -0.015382   0.021965  -0.006642   8.070011   0.233359
    14  H    0.039678   0.004351  -0.014158   0.001008   0.233359   0.440696
    15  O    0.244727  -0.014073   0.004024   0.004750   0.001838  -0.016612
    16  H    0.003417  -0.013021  -0.009690   0.001393  -0.000371   0.001804
              15         16
     9  P    0.244727   0.003417
    10  O   -0.014073  -0.013021
    11  O    0.004024  -0.009690
    12  H    0.004750   0.001393
    13  O    0.001838  -0.000371
    14  H   -0.016612   0.001804
    15  O    8.065183   0.264325
    16  H    0.264325   0.432088
 Mulliken charges:
               1
     1  P    0.000000
     2  O    0.000000
     3  O    0.000000
     4  H    0.000000
     5  O    0.000000
     6  H    0.000000
     7  O    0.000000
     8  H    0.000000
     9  P    1.259761
    10  O   -0.598758
    11  O   -0.574446
    12  H    0.334890
    13  O   -0.497215
    14  H    0.309875
    15  O   -0.554162
    16  H    0.320056
 Sum of Mulliken charges =  -0.00000
 Mulliken charges with hydrogens summed into heavy atoms:
               1
     1  P    0.000000
     2  O    0.000000
     3  O    0.000000
     5  O    0.000000
     7  O    0.000000
     9  P    1.259761
    10  O   -0.598758
    11  O   -0.239556
    13  O   -0.187341
    15  O   -0.234106
         Mulliken charges condensed to fragments:
      1      0.000000
      2     -0.000000
 Electronic spatial extent (au):  <R**2>=          27659.8329
 Charge=             -0.0000 electrons
 Dipole moment (field-independent basis, Debye):
    X=             -1.3160    Y=             -3.1201    Z=              2.3700  Tot=              4.1333
 Quadrupole moment (field-independent basis, Debye-Ang):
   XX=            -54.4910   YY=            -71.7002   ZZ=             -1.9920
   XY=            -34.2587   XZ=             12.0184   YZ=             -3.3425
 Traceless Quadrupole moment (field-independent basis, Debye-Ang):
   XX=            -11.7633   YY=            -28.9725   ZZ=             40.7357
   XY=            -34.2587   XZ=             12.0184   YZ=             -3.3425
 Octapole moment (field-independent basis, Debye-Ang**2):
  XXX=          -1119.3104  YYY=           -927.2910  ZZZ=           -368.9374  XYY=           -649.0160
  XXY=           -545.8260  XXZ=           -194.8805  XZZ=            -70.3379  YZZ=            -88.0809
  YYZ=           -362.9624  XYZ=            -80.2997
 Hexadecapole moment (field-independent basis, Debye-Ang**3):
 XXXX=         -17795.5131 YYYY=          -9626.2293 ZZZZ=          -6631.0455 XXXY=          -8486.6758
 XXXZ=          -6217.6754 YYYX=          -8056.5243 YYYZ=          -5468.5037 ZZZX=          -3512.4627
 ZZZY=          -2295.4767 XXYY=          -7004.5719 XXZZ=          -2727.3255 YYZZ=          -2694.2652
 XXYZ=          -2458.1862 YYXZ=          -3371.7962 ZZXY=          -1116.1998
 N-N= 2.805522588401D+02 E-N=-2.088836085667D+03  KE= 6.426111693448D+02
 No NMR shielding tensors so no spin-rotation constants.
 Leave Link  601 at Thu Apr 28 09:50:44 2022, MaxMem= 10485760000 cpu:               1.1 elap:               0.1
 (Enter /data0/hywu0/study/g16/l122.exe)
 CPIOFr:  IOpCl= 0 IRwI=-1 IRwCP=  731 ICalc=  4 LCPTot=      159803 Len1MO=      421320 IndFrg=     2266403
 Restoring MOs from calculation   1 to rwf.
 CPIOFr:  IOpCl= 0 IRwI=-2 IRwCP=  731 ICalc=  0 LCPTot=      159803 Len1MO=      421320 IndFrg=      581123
 Counterpoise corrected energy =   -1288.349981233918
                   BSSE energy =       0.001371099432
              sum of fragments =   -1288.313064948975
           complexation energy =     -24.03 kcal/mole (raw)
           complexation energy =     -23.17 kcal/mole (corrected)
 Leave Link  122 at Thu Apr 28 09:50:44 2022, MaxMem= 10485760000 cpu:               0.1 elap:               0.0
 (Enter /data0/hywu0/study/g16/l9999.exe)
 1\1\GINC-LOCALHOST\SP\RM062X\6-311+G(2d,p)\H6O8P2\HYWU0\28-Apr-2022\0\
 \#p M062X/6-311+G(2d,p) nosymm em=GD3 counterpoise=2\\Title Card Requi
 red\\0,1\P,0,4.80326,6.250443,4.592121\O,0,5.150113,5.02353,5.295719\O
 ,0,3.845172,7.16995,5.461831\H,0,3.566952,7.981911,4.894105\O,0,5.9786
 56,7.189511,4.07898\H,0,6.762131,7.157121,4.752342\O,0,3.949323,6.1019
 74,3.249193\H,0,4.562574,5.727641,2.518133\P,0,8.493135,5.733366,6.872
 528\O,0,8.142893,6.963129,6.175736\O,0,7.319934,4.792141,7.387094\H,0,
 6.534361,4.825899,6.71646\O,0,9.446961,4.817867,5.993963\H,0,9.732042,
 4.005793,6.557978\O,0,9.353098,5.87661,8.212125\H,0,8.739398,6.233116,
 8.951694\\Version=ES64L-G16RevA.03\HF=-644.1565244\RMSD=5.676e-09\Dipo
 le=0.0060861,-0.0126558,0.0008833\Quadrupole=-5.155873,-1.4320221,6.58
 78951,-8.8950218,6.073567,0.2990281\PG=C01 [X(H6O8P2)]\\@


 THE REASON MAN'S BEST FRIEND IS A DOG IS BECAUSE
 HE WAGS HIS TAIL INSTEAD OF HIS TONGUE.
 Job cpu time:       0 days  0 hours 20 minutes 41.1 seconds.
 Elapsed time:       0 days  0 hours  1 minutes 21.1 seconds.
 File lengths (MBytes):  RWF=     83 Int=      0 D2E=      0 Chk=     25 Scr=      1
 Normal termination of Gaussian 16 at Thu Apr 28 09:50:44 2022.
