          37
 G =       -0.434252 Gcorr = 0.206131 a.u. Nimag =   0 Frame:     1 Step:     1 Geom:     1
C           6.72902000     12.39358700      5.98612300
C           6.57281400     12.13573800      4.60248800
C           6.22309800     13.19942600      3.76232500
C           6.03625400     14.47884800      4.30202300
C           6.21082200     14.69617700      5.66580900
H           6.11021200     13.03798600      2.68751300
H           7.03321700     11.55106300      6.68621300
H           5.76432400     15.31546800      3.65363600
H           6.09061800     15.68976100      6.11201400
C           6.82280000     10.76999000      4.09144700
H           6.44733200      9.98226400      4.76696000
H           6.40584400     10.58184100      3.09615700
H           7.92492400     10.58440200      4.02343500
N           6.56264100     13.64677300      6.49061200
C           6.81463600     13.89049500      7.93739700
H           5.87226800     14.21220100      8.43058400
H           7.08820800     12.88769800      8.45092100
C           7.94317500     14.89196900      8.21711100
H           7.55503500     15.92904900      8.20179300
H           8.27733200     14.70665600      9.26715900
C           9.15861500     14.80223900      7.29451100
H           8.96292000     15.29616600      6.32128100
H          10.01056200     15.35453000      7.74524000
C           9.60479800     13.36921000      7.03552300
O           9.49880700     12.99854200      5.81598400
O          10.00686900     12.64208400      7.96300700
P           9.28745800      9.79557400      6.77617500
O           7.95090600     10.12918400      7.36441400
O           9.47060500      8.19405900      6.48626100
H          10.40227700      7.89267000      6.30054900
O           9.59683900     10.51583900      5.38846600
H           9.74305000     11.67851200      5.46167200
O          10.56813500     10.09344700      7.74161900
H          10.73557800     11.09589700      7.97654600
O           7.77809100     11.69860800      9.50708800
H           7.65098600     10.82987800      9.05660300
H           8.71893600     11.91219100      9.37334500
          37
 G =       -0.422458 Gcorr = 0.218019 a.u. Nimag =   0 Frame:     2 Step:     2 Geom:     2
C           7.06482900     12.65751100      5.95723100
C           6.97115700     12.36377700      4.57699200
C           6.64139200     13.38626400      3.69886500
C           6.40451700     14.67545000      4.19656400
C           6.53075000     14.92940800      5.55162700
H           6.57497400     13.19707800      2.62586400
H           7.29376600     11.85833900      6.69238300
H           6.13623600     15.48404500      3.51535500
H           6.38011600     15.92818500      5.97357400
C           7.28052900     10.98860100      4.13281200
H           8.38338400     10.82290200      4.13541400
H           6.88820900     10.21282200      4.81893500
H           6.91992400     10.75389700      3.12593800
N           6.86350900     13.91598100      6.41175700
C           7.10532200     14.21768700      7.84142900
H           6.15105300     14.53874300      8.31337400
H           7.41512000     13.27030300      8.37157100
C           8.21381000     15.26719400      8.03731600
H           7.85131900     16.28111300      7.79407500
H           8.46772100     15.28335100      9.12318200
C           9.48401300     14.95696800      7.24471000
H           9.41873100     15.31892300      6.20515400
H          10.36128900     15.45707000      7.69459700
C           9.72744200     13.44020500      7.25033100
O           9.44648100     12.84242500      6.18118000
O          10.09147300     12.91326100      8.30617600
P           9.35006100      9.57526000      7.32474100
O           7.87862600      9.55346800      7.30226900
O           9.90289500      8.08053700      7.30938600
H          10.93420400      8.13987800      7.33482800
O          10.02140900     10.24246400      6.05559100
H           9.85040100     11.30761700      6.09244800
O          10.01426900     10.20935400      8.61336000
H          10.08164500     11.26936600      8.49087100
O           6.04339400     11.33625700      8.73202200
H           6.58900900     10.66817800      8.28222300
H           6.12703900     11.10613900      9.65586400
          37
 G =       -0.425712 Gcorr = 0.214606 a.u. Nimag =   0 Frame:     3 Step:     3 Geom:     3
C           7.14690600     12.58274200      5.81476500
C           6.93274000     12.56522900      4.41547300
C           6.31402200     13.65263300      3.82166600
C           5.92168600     14.74071000      4.61746800
C           6.18461800     14.73781800      5.97586600
H           6.13847800     13.67623000      2.74508900
H           7.60575600     11.70810200      6.31894500
H           5.42315500     15.59717900      4.16245300
H           5.91946200     15.57993200      6.62282200
C           7.44548400     11.39778600      3.66513700
H           7.18474900     10.43498900      4.14225100
H           7.11205600     11.35735900      2.62312000
H           8.56002900     11.40707600      3.65992500
N           6.80227900     13.65889900      6.55448300
C           7.17821800     13.70742900      7.98601900
H           6.25366300     13.76437300      8.60304200
H           7.67891800     12.73909200      8.27318500
C           8.14480600     14.86621300      8.28749600
H           7.62030000     15.83726000      8.27452500
H           8.51455200     14.72946100      9.33081000
C           9.34901000     14.90480900      7.34525700
H           9.10425300     15.38458000      6.38363600
H          10.17481800     15.49218800      7.78703400
C           9.83953000     13.46983500      7.09892000
O           9.47288200     12.95336800      6.01170400
O          10.47777500     12.90916100      7.99322100
P           9.62214300      9.62682300      7.04586400
O           8.25514600      9.62127100      7.58418900
O          10.08515900      8.13032500      6.75087800
H          11.05545900      8.17892600      6.39898600
O           9.76294700     10.34718600      5.63928700
H           9.77403200     11.41516800      5.78199700
O          10.76177600     10.19616000      7.98107500
H          10.68092100     11.26440700      8.00722000
O           5.77927800     11.26817100      7.86957700
H           6.55753800     10.68751600      7.84732600
H           5.06546900     10.69962000      8.14929700
          37
 G =       -0.423372 Gcorr = 0.216845 a.u. Nimag =   0 Frame:     4 Step:     4 Geom:     4
C           7.09045300     12.52851200      5.96315700
C           6.87517600     12.35540100      4.57609800
C           6.36918400     13.41727300      3.84189000
C           6.08262100     14.62791400      4.48949800
C           6.33787600     14.76812300      5.84297000
H           6.20144900     13.32220000      2.76786800
H           7.45631100     11.68145100      6.58362700
H           5.67334500     15.46629100      3.92468900
H           6.15233100     15.70609700      6.37593000
C           7.25408700     11.05750200      3.97691900
H           8.36414700     10.95642600      3.94895800
H           6.91612400     10.19364100      4.57972900
H           6.88812700     10.91548700      2.95484700
N           6.84676200     13.71641200      6.55917700
C           7.22273900     13.90823500      7.97899300
H           6.30021600     14.06341200      8.58163800
H           7.68987800     12.95975100      8.37252900
C           8.23294000     15.05439600      8.16052700
H           7.75000900     16.03913800      8.03984700
H           8.59380600     15.01591100      9.21509000
C           9.43971200     14.93713000      7.22771700
H           9.22794500     15.34629400      6.22641000
H          10.30080500     15.50594400      7.62315800
C           9.83669500     13.45729200      7.11113200
O           9.48170100     12.88243400      6.05122500
O          10.38795800     12.92649400      8.08033000
P           9.48883400      9.63340200      7.19552900
O           8.03189800      9.69341700      7.39978000
O           9.94458000      8.10993500      7.08719300
H          10.97072600      8.11244500      6.96113400
O           9.98215700     10.28180000      5.83780700
H           9.86339900     11.35600700      5.90370700
O          10.38712200     10.21689300      8.35816500
H          10.42917200     11.28312200      8.25743100
O           5.84578200     11.42342300      8.44540900
H           6.54920400     10.80089600      8.20030400
H           5.32474100     10.94951600      9.08959300
          37
 G =       -0.434245 Gcorr = 0.206138 a.u. Nimag =   0 Frame:     5 Step:     5 Geom:     5
C           6.64242500     12.25346500      6.18979300
C           6.32576700     11.99567800      4.83379300
C           5.76426000     13.02813700      4.07336000
C           5.53015400     14.27738900      4.66308700
C           5.86635300     14.49691700      5.99586800
H           5.52230000     12.86730400      3.01998600
H           7.11842900     11.43766400      6.82294800
H           5.09366600     15.08975200      4.07671300
H           5.71288100     15.46922300      6.47731800
C           6.63517800     10.66671400      4.26192200
H           6.42934100      9.83860300      4.96157900
H           6.11027100     10.44980500      3.32529400
H           7.73135400     10.59078400      4.04608200
N           6.42599800     13.47879800      6.74131200
C           6.84652700     13.73116700      8.14682800
H           5.95284500     13.95328400      8.76873400
H           7.28222900     12.75489900      8.59564800
C           7.90082600     14.83595400      8.29708800
H           7.41633700     15.82998300      8.35743900
H           8.38945700     14.67401100      9.28884400
C           8.98400500     14.87536900      7.21922400
H           8.61253800     15.35756700      6.29243900
H           9.83197400     15.50399100      7.56543200
C           9.52655900     13.49581200      6.87006900
O           9.29348500     13.12947600      5.66659700
O          10.11732600     12.80164900      7.71812600
P           9.52000700      9.91103000      6.57233500
O           8.24961400     10.10658800      7.34166100
O           9.81448600      8.33816200      6.22369700
H          10.73870800      8.13041000      5.91346800
O           9.56887600     10.67299300      5.17389500
H           9.61327400     11.84536400      5.25486900
O          10.88542700     10.32121600      7.36568600
H          10.98777200     11.33148000      7.60052600
O           8.21765300     11.62874600      9.52354800
H           8.11448800     10.75632800      9.07393100
H           9.10722400     11.93431300      9.27087400
          37
 G =       -0.424776 Gcorr = 0.216040 a.u. Nimag =   0 Frame:     6 Step:     6 Geom:     6
C           6.71612400     12.25414500      6.26727200
C           6.28658100     11.84918000      4.98275800
C           5.52496200     12.72893100      4.22626700
C           5.19488500     13.98562500      4.75214500
C           5.65421700     14.35496100      6.00528800
H           5.19128600     12.45401400      3.22401100
H           7.30135100     11.56638500      6.91269500
H           4.59011800     14.68127000      4.16902600
H           5.44019900     15.33773600      6.43760700
C           6.71512300     10.52459400      4.48603500
H           6.10382500     10.13919900      3.66330400
H           7.76731800     10.57400500      4.12026100
H           6.73956700      9.75068400      5.27716700
N           6.41162100     13.48425700      6.74295800
C           6.99361700     13.92433100      8.03087300
H           6.17652000     14.07864300      8.76858800
H           7.63406800     13.08840700      8.44971400
C           7.86631500     15.18209200      7.88344000
H           7.24456300     16.08867100      7.77991600
H           8.43329400     15.30625200      8.83589200
C           8.86569800     15.09605400      6.72971800
H           8.40403300     15.36564100      5.76524400
H           9.70373700     15.80101800      6.88244700
C           9.43146200     13.67041900      6.65015800
O           8.94061000     12.94416600      5.74840200
O          10.25385500     13.32029900      7.50164200
P           9.94740200      9.84149200      6.87460100
O           8.60829400      9.55321400      7.41456900
O          10.74327700      8.47631500      6.66826900
H          11.67445000      8.72407800      6.29462200
O           9.95370800     10.50704600      5.43856100
H           9.59532100     11.52371400      5.52713700
O          10.89868600     10.69652100      7.80599900
H          10.68039700     11.73575700      7.67135200
O           7.27456700     11.25555700      9.37060300
H           7.67355500     10.59653300      8.77296300
H           7.84540000     11.22881900     10.13850000
          37
 G =       -0.423414 Gcorr = 0.216804 a.u. Nimag =   0 Frame:     7 Step:     7 Geom:     7
C           6.88517400     12.16144100      6.33973600
C           6.34539800     11.74315600      5.10117900
C           5.42813000     12.56339200      4.46211300
C           5.05869500     13.77840800      5.05745600
C           5.63427100     14.16758200      6.25492000
H           5.00020700     12.27707900      3.50004500
H           7.59103300     11.50485600      6.89379300
H           4.32936200     14.42633500      4.56996800
H           5.39074600     15.12082200      6.73481600
C           6.83453100     10.46889800      4.53183600
H           6.24653100     10.10635300      3.68241100
H           7.88715900     10.58293000      4.18231200
H           6.88198600      9.65637100      5.28110100
N           6.54698200     13.35502100      6.87518000
C           7.24140100     13.82771400      8.09516900
H           6.50819400     13.88942400      8.93002100
H           8.00317500     13.05842400      8.41235300
C           7.97116900     15.16257400      7.86550300
H           7.26071500     16.00498800      7.80956700
H           8.60510800     15.35387100      8.76292700
C           8.87067900     15.14377700      6.62831600
H           8.30530500     15.34801500      5.70445600
H           9.65181300     15.92254200      6.69650100
C           9.55051100     13.76935600      6.52847400
O           9.06138300     12.98312700      5.67835900
O          10.45265100     13.50871900      7.33025900
P          10.12837400     10.00864400      7.05094600
O           8.81176600      9.81643000      7.68135300
O          10.87282900      8.60333400      6.94405200
H          11.79543400      8.78490200      6.51433600
O          10.06429800     10.52649000      5.55608100
H           9.72644300     11.55538100      5.55960400
O          11.15554200     10.92352500      7.83029600
H          10.92082000     11.94978900      7.63164900
O           6.64570500     11.22535700      9.16358600
H           7.38234500     10.72246300      8.78053500
H           6.43414700     10.75853400      9.96880300
          37
 G =       -0.434264 Gcorr = 0.206118 a.u. Nimag =   0 Frame:     8 Step:     8 Geom:     8
C           6.69344800     12.12498500      6.22344400
C           6.46720000     11.74756900      4.87738700
C           5.84958300     12.66817700      4.02261000
C           5.47253200     13.92593200      4.51150000
C           5.72259000     14.26557100      5.83803600
H           5.67456100     12.41458900      2.97422700
H           7.21220300     11.40300100      6.93199900
H           4.99105200     14.65146900      3.85113200
H           5.45651900     15.24873800      6.24220100
C           6.92488800     10.41880900      4.41497800
H           6.46448000     10.08871200      3.47748400
H           8.03175200     10.43439000      4.24639000
H           6.76689600      9.62434700      5.16445400
N           6.33798700     13.35819300      6.67670800
C           6.66564300     13.74384900      8.07674600
H           5.72653600     13.92222300      8.64330200
H           7.16671400     12.84580900      8.61203900
C           7.60621800     14.95102600      8.19055600
H           7.03025000     15.89644700      8.16142600
H           8.06140800     14.90232500      9.20987000
C           8.72972400     15.02096900      7.15655000
H           8.35878000     15.40225100      6.18367000
H           9.49919200     15.74936500      7.49042000
C           9.41308200     13.67908000      6.92837700
O           9.27475300     13.21343300      5.74538200
O          10.02207500     13.10181100      7.84856300
P           9.75713300     10.09930100      6.88453000
O           8.43813600     10.22042500      7.58387400
O          10.21481400      8.54276900      6.66083100
H          11.16779600      8.40538000      6.40375600
O           9.80159000     10.76663500      5.43761600
H           9.73122200     11.93777000      5.43584600
O          11.03816800     10.69344000      7.70100700
H          11.03141900     11.72299200      7.86863800
O           8.15728900     11.87363600      9.65114500
H           8.15703000     10.96811400      9.25947800
H           9.02535000     12.24648800      9.41384000
          37
 G =       -0.424214 Gcorr = 0.215697 a.u. Nimag =   0 Frame:     9 Step:     9 Geom:     9
C           6.95013800     12.22054100      6.21375300
C           6.42030400     11.91730100      4.93691300
C           5.45559800     12.75413800      4.39938700
C           5.03041900     13.87440100      5.13013100
C           5.59514100     14.15461700      6.36196100
H           5.03146900     12.55582600      3.41382700
H           7.70385500     11.55028900      6.68101700
H           4.26403500     14.53379200      4.72133700
H           5.30676000     15.03198600      6.94930900
C           6.97204800     10.74153700      4.22939800
H           7.00659600      9.83896500      4.86821400
H           6.43445100     10.48134900      3.31183300
H           8.03622700     10.92350200      3.95089200
N           6.55422900     13.32478400      6.88315200
C           7.22535700     13.68688900      8.15266900
H           6.47712200     13.67474400      8.97606900
H           7.98157200     12.89264300      8.41593200
C           7.95335300     15.03872100      8.05298600
H           7.23842800     15.87931100      8.04615700
H           8.56197200     15.15847400      8.97968500
C           8.88512700     15.12662100      6.84305500
H           8.34161000     15.40131800      5.92420200
H           9.65606700     15.90388100      6.99485000
C           9.58231400     13.77140800      6.64934500
O           9.13275200     13.06001300      5.71484400
O          10.45569600     13.44485800      7.45822700
P          10.19050400      9.98017700      6.83386000
O           8.85710700      9.72804500      7.40348000
O          10.94896500      8.59462600      6.62204700
H          11.88167300      8.81959200      6.23663600
O          10.16876600     10.63294400      5.39099300
H           9.82665600     11.65509000      5.47987600
O          11.18954500     10.82579100      7.72146300
H          10.93080400     11.86078500      7.63664800
O           6.55230000     10.99886800      8.80014000
H           7.32621500     10.53566900      8.44078800
H           6.23483400     10.42652700      9.49493100
          37
 G =       -0.423445 Gcorr = 0.216773 a.u. Nimag =   0 Frame:    10 Step:    10 Geom:    10
C           6.94434000     12.24113800      6.18678200
C           6.54302400     11.94457500      4.86342300
C           5.70845800     12.83425100      4.20415600
C           5.28357900     13.99732100      4.86286600
C           5.72504300     14.26809600      6.14681000
H           5.38841700     12.64238400      3.17875100
H           7.57920600     11.52565800      6.75370600
H           4.61760000     14.69858400      4.35877000
H           5.43646400     15.17873300      6.68133800
C           7.08356800     10.71815000      4.23823500
H           6.59198900     10.44356100      3.29926000
H           8.16956100     10.84472900      4.01948900
H           7.04064300      9.84104100      4.91102600
N           6.55714400     13.38778200      6.78766100
C           7.11494000     13.73772800      8.11443600
H           6.29393500     13.73750900      8.86562900
H           7.83078800     12.93003700      8.44293400
C           7.87566900     15.07478300      8.08824200
H           7.18214900     15.93104500      8.03031600
H           8.40690700     15.17449300      9.06375900
C           8.90756400     15.15042000      6.96139000
H           8.45042000     15.44616600      6.00308800
H           9.68217500     15.90609100      7.18579600
C           9.58392900     13.77870200      6.81323700
O           9.18780200     13.08023700      5.84634400
O          10.38843500     13.43164800      7.68360800
P          10.07054200      9.97673200      7.05127000
O           8.68811300      9.75099700      7.50514600
O          10.81343300      8.57440700      6.90332200
H          11.78017500      8.77810400      6.59880700
O          10.18397200     10.62777500      5.61220900
H           9.85345500     11.65705300      5.67083800
O          11.00456800     10.80161000      8.02387400
H          10.80340600     11.84608100      7.88845400
O           6.38918800     11.05794300      8.87266800
H           7.15840400     10.57823000      8.52528400
H           6.09100900     10.52623000      9.60708200
          37
 G =       -0.422885 Gcorr = 0.218325 a.u. Nimag =   0 Frame:    11 Step:    11 Geom:    11
C           7.27617500     12.87022600      5.66004600
C           6.52396200     12.26217400      4.63645800
C           5.15799200     12.08203500      4.81897000
C           4.56866000     12.50406700      6.01480100
C           5.35106500     13.06118800      7.01600400
H           4.55267500     11.60237000      4.04872900
H           8.37065100     13.04806800      5.50917200
H           3.49916400     12.36976600      6.17993000
H           4.92664100     13.33935400      7.99060400
C           7.23936200     11.78106100      3.43175200
H           8.15714900     12.35640500      3.21780200
H           7.58845100     10.73780300      3.59432900
H           6.62294400     11.78434800      2.52590000
N           6.69670300     13.23764300      6.82707600
C           7.51513100     13.70960100      7.97009900
H           6.87105100     13.75650000      8.88264300
H           8.26773300     12.91117000      8.21897200
C           8.20190200     15.06391800      7.75706100
H           7.45911900     15.82968300      7.46519100
H           8.59096900     15.37729600      8.75615300
C           9.37373400     15.08548400      6.77534000
H           9.03242600     15.28444100      5.74413400
H          10.06659700     15.91287000      7.02268600
C          10.18378800     13.78022200      6.81253500
O          10.29105400     13.20663400      5.69431500
O          10.60156400     13.35340200      7.89120800
P           9.35029600     10.21524800      6.78829600
O           7.95879600     10.69254900      6.62948600
O           9.35229000      8.62330600      6.83827100
H          10.33776500      8.32886900      6.95740200
O          10.35343900     10.60697200      5.64951000
H          10.44736500     11.72155900      5.64764300
O           9.99994100     10.63473300      8.17900600
H          10.35194300     11.62960500      8.10619300
O           6.18192100     11.35433100      8.81859600
H           6.74255100     11.01834700      8.09534500
H           6.36704700     10.76677600      9.54835200
          37
 G =       -0.425757 Gcorr = 0.214562 a.u. Nimag =   0 Frame:    12 Step:    12 Geom:    12
C           6.95937200     12.28919200      6.18048900
C           6.46093900     12.12233700      4.86598000
C           5.52433300     13.02367700      4.38823800
C           5.09891800     14.07678300      5.21356500
C           5.63914500     14.22948300      6.47819500
H           5.12322500     12.92965000      3.37796200
H           7.68157900     11.55922000      6.59905500
H           4.35320300     14.78556700      4.85214600
H           5.35323500     15.05419000      7.13861500
C           7.02660500     11.01738300      4.06099200
H           7.06968500     10.06248500      4.61669300
H           6.49596700     10.83505100      3.12086300
H           8.09017000     11.23488100      3.80823300
N           6.56994600     13.33517100      6.94100400
C           7.22318400     13.56510300      8.24998200
H           6.45858100     13.49315700      9.05556800
H           7.95866900     12.73466700      8.45079100
C           7.97706600     14.90600400      8.28856400
H           7.27660900     15.75600000      8.35975400
H           8.57924700     14.92340300      9.22717700
C           8.92105800     15.09881800      7.10067500
H           8.38626700     15.44731500      6.20212200
H           9.68565800     15.86457300      7.32670100
C           9.62757400     13.76808100      6.80007300
O           9.15021000     13.10848600      5.84071700
O          10.54115500     13.40982300      7.54740000
P          10.18459100      9.96095200      6.92476700
O           8.98930800      9.73596400      7.74893100
O          10.86882900      8.56182200      6.58527300
H          11.71369700      8.76715400      6.02696000
O           9.88209700     10.58621800      5.49835200
H           9.70288200     11.64378400      5.60021800
O          11.35416000     10.80584600      7.56951200
H          11.06801200     11.83869600      7.57346100
O           6.35524500     10.90382100      8.53506700
H           7.21084500     10.48045200      8.35597100
H           5.84874700     10.23481400      8.98994400
          37
 G =       -0.423280 Gcorr = 0.216938 a.u. Nimag =   0 Frame:    13 Step:    13 Geom:    13
C           6.94090500     12.36163600      6.07534200
C           6.60364400     12.34272900      4.70193000
C           5.82628200     13.37132500      4.19168900
C           5.39410400     14.39675500      5.04547500
C           5.77263300     14.39651200      6.37715600
H           5.55679000     13.39429900      3.13454700
H           7.52820700     11.52862900      6.51974500
H           4.77249600     15.20477500      4.65805000
H           5.47698900     15.19401900      7.06624300
C           7.14780100     11.24467900      3.87407500
H           6.70018300     11.17504400      2.87732900
H           8.24650100     11.37532300      3.73608300
H           7.04908900     10.25498800      4.35850700
N           6.54889600     13.38085500      6.87107200
C           7.04305600     13.44591400      8.26593700
H           6.18344100     13.32511500      8.96220400
H           7.72234800     12.56689900      8.46229800
C           7.83385100     14.73685200      8.54034200
H           7.16381800     15.60997400      8.61925400
H           8.31430400     14.62640400      9.54071100
C           8.92574200     14.99783300      7.50119500
H           8.52714400     15.49036500      6.59931000
H           9.70422100     15.66923200      7.90692800
C           9.57767900     13.66026800      7.11777500
O           9.21736100     13.17797400      6.01437000
O          10.32671800     13.12329300      7.93967400
P           9.96586300      9.87158700      6.62321200
O           8.55689700      9.60540200      6.95780700
O          10.68441200      8.50264300      6.23581000
H          11.67016100      8.73122400      6.02385400
O          10.16926700     10.78889800      5.34872700
H           9.85928000     11.79698600      5.59439400
O          10.86607600     10.45776900      7.78301900
H          10.69547000     11.51356900      7.85026300
O           6.22008300     10.69402700      8.44765500
H           6.99529200     10.26690500      8.04874300
H           5.87301100     10.03932900      9.04928100
          37
 G =       -0.425810 Gcorr = 0.214508 a.u. Nimag =   0 Frame:    14 Step:    14 Geom:    14
C           6.96556200     12.37614400      6.00949100
C           6.60674400     12.29005300      4.64272100
C           5.80349000     13.27922400      4.10028900
C           5.37169900     14.33867100      4.91409400
C           5.77617500     14.40856500      6.23542700
H           5.51257000     13.24864600      3.04918800
H           7.57692800     11.57730400      6.47613200
H           4.72940400     15.11688900      4.50065800
H           5.48309200     15.23385100      6.89196400
C           7.17068200     11.16665000      3.86246800
H           6.73778400     11.05788100      2.86275900
H           8.27006800     11.30199800      3.73812800
H           7.07393500     10.19507300      4.38128000
N           6.57592900     13.42733600      6.76267700
C           7.09318600     13.56363500      8.14358800
H           6.23919400     13.53091900      8.85660700
H           7.73385200     12.66990800      8.39182700
C           7.94074500     14.83618900      8.31700100
H           7.30570200     15.73855400      8.34256400
H           8.43177900     14.77644800      9.31661700
C           9.02591500     14.98521200      7.24947200
H           8.62601600     15.40368400      6.31149900
H           9.81820700     15.67758800      7.58854900
C           9.65423600     13.60990100      6.97731000
O           9.23842600     13.02147200      5.94570200
O          10.44537500     13.15439700      7.80679700
P           9.89472200      9.76614900      7.00600500
O           8.59666200      9.61114400      7.67653100
O          10.50518900      8.32836900      6.68818400
H          11.42314500      8.48332800      6.23961600
O           9.81226900     10.46134500      5.58236300
H           9.70191200     11.52575100      5.70784800
O          11.04076200     10.49122300      7.81750300
H          10.83865500     11.54345700      7.82905400
O           5.99667400     10.97288200      8.23018500
H           6.83053800     10.48590600      8.12556100
H           5.39278600     10.33427500      8.60234800
          37