          41
 G =       -0.578334 Gcorr = 0.228632 a.u. Nimag =   0 Frame:     1 Step:     1 Geom:     1
C           4.34273000      4.21632000      3.75923400
C           3.91946700      2.88902300      3.80424100
C           2.80705500      2.48691700      3.07065900
C           2.11197200      3.42991900      2.31246300
C           2.55131000      4.76064100      2.30654700
H           2.49770400      1.44117300      3.06584800
H           5.25102600      4.54880700      4.29626600
H           4.50436600      2.16862600      4.37789100
H           2.04511200      5.51734100      1.69173100
C           0.97973200      3.05251500      1.43007800
H           0.60895600      2.03593300      1.61134000
H           0.12415600      3.73450600      1.51214300
H           1.32149800      3.08780200      0.37170700
N           3.63914700      5.13771000      3.03576300
C           4.13858200      6.53367900      2.97010900
H           3.48496700      7.16904800      3.61106800
H           5.15756200      6.57202500      3.43370300
C           4.22947700      7.11300300      1.54663800
H           3.27793500      6.96972600      0.99597900
H           4.35115500      8.21776100      1.65617000
C           5.39788400      6.58519100      0.72255900
H           6.36519800      6.86969100      1.17827200
H           5.40794600      7.06402900     -0.27357500
S           5.34327400      4.79091100      0.48857300
O           6.19493700      4.47018600     -0.64196900
O           3.89519700      4.49307500      0.36930400
O           5.84280700      4.26044400      1.83379100
P           8.17111100      5.62360800      3.82523400
O           7.10711200      5.69949800      4.84861600
O           9.59755900      5.63844600      4.53512100
H          10.30545200      5.49023400      3.79880100
O           8.18986800      4.40799800      2.86600800
H           7.14589200      4.32203500      2.37204600
O           8.23482000      6.89894100      2.85527200
H           7.52109000      7.58461200      3.10473100
O           6.11106000      8.93562400      3.41010200
H           6.57412400      9.72801300      3.66855800
H           5.73823900      8.57463400      4.23005100
O           5.18274800      7.59546600      5.70896500
H           5.38211300      7.84306400      6.60953300
H           5.84766000      6.91183000      5.49042900
          41
 G =       -0.574109 Gcorr = 0.230553 a.u. Nimag =   0 Frame:     2 Step:     2 Geom:     2
C           4.25640700      5.00048700      3.75298700
C           4.31488000      3.63491600      4.01614400
C           3.44816300      2.76694600      3.35538900
C           2.50361000      3.28559700      2.46726000
C           2.46508300      4.66795000      2.23540200
H           3.52881900      1.68970400      3.50615800
H           4.93742000      5.71589800      4.24136000
H           5.09325600      3.25968700      4.68946800
H           1.75320600      5.10253300      1.51864500
C           1.60358400      2.41556100      1.67138100
H           1.65060400      1.35865900      1.95996600
H           0.55276500      2.72680600      1.71599500
H           1.90896900      2.47223000      0.59917000
N           3.34768400      5.49481400      2.86135000
C           3.41341000      6.92920000      2.49891500
H           2.48426900      7.42801400      2.85332000
H           4.26590500      7.40714200      3.05132200
C           3.60444500      7.16694100      0.98801300
H           2.74976600      6.74668900      0.41326000
H           3.54803000      8.26482600      0.81666400
C           4.92713200      6.64857400      0.44145900
H           5.77271500      6.92978100      1.09963000
H           5.15359300      7.12348500     -0.53072700
S           4.95742400      4.84596600      0.19795400
O           5.85918200      4.58252300     -0.90777600
O           3.53658600      4.46316700      0.04106200
O           5.44730800      4.33695300      1.55482300
P           7.92525800      5.35529100      3.56788600
O           7.29568500      4.94250300      4.83762300
O           9.46858200      5.66895100      3.81843000
H           9.90673100      5.82895300      2.90053300
O           7.87384700      4.42275500      2.33863100
H           6.76020600      4.34846600      1.98299700
O           7.33267100      6.75190900      3.02219700
H           6.79070100      7.21766600      3.74368400
O           5.48463500      8.03686500      5.02387400
H           5.82249800      8.91628500      5.17450200
H           5.80963600      7.51847800      5.79077200
O           6.59668600      6.53807200      7.04926700
H           6.10352200      5.90059400      7.55818000
H           7.07512600      5.99817100      6.38283200
          41
 G =       -0.578286 Gcorr = 0.229039 a.u. Nimag =   0 Frame:     3 Step:     3 Geom:     3
C           4.57901300      3.85650400      3.52941800
C           4.32156000      2.50608300      3.29586100
C           3.11168500      2.11480200      2.73095200
C           2.15707900      3.08525600      2.42316500
C           2.44083900      4.43130300      2.68893300
H           2.92112000      1.06478000      2.50591900
H           5.54745100      4.19144100      3.93749200
H           5.10122200      1.77534400      3.51555400
H           1.72356400      5.21918400      2.42189400
C           0.88648500      2.74901100      1.73337600
H           0.67470200      1.67245700      1.71616300
H           0.01348000      3.24851300      2.17210400
H           0.95135100      3.08185900      0.67408500
N           3.62828100      4.79641800      3.24887600
C           3.94610400      6.22978700      3.46900000
H           3.42777800      6.56095200      4.39812300
H           5.04320400      6.32870800      3.67362800
C           3.59437400      7.15009400      2.28564000
H           2.56438700      6.96008600      1.92099200
H           3.58266700      8.19388800      2.67663200
C           4.58267400      7.07605500      1.12776300
H           5.58722100      7.42438700      1.43672800
H           4.27965600      7.76422500      0.31889500
S           4.72178800      5.40693200      0.43742900
O           5.31644900      5.52443300     -0.88092900
O           3.34279200      4.87006200      0.53074200
O           5.59656800      4.69623400      1.47254600
P           8.21446300      5.88834900      3.25420900
O           7.71754800      5.30537300      4.51543200
O           9.76380700      6.22622800      3.40875200
H          10.10986800      6.50918400      2.47899900
O           8.09611900      5.07901400      1.93832700
H           6.97949900      4.89542900      1.71368300
O           7.54677400      7.30250900      2.89074800
H           7.01448800      7.67480200      3.67464400
O           5.73584100      8.31794000      5.05478200
H           6.31407600      8.79396000      5.64705100
H           5.55598300      7.47328700      5.49448900
O           5.38461300      5.68064800      6.04994700
H           5.58852200      5.41587000      6.94438600
H           6.20491000      5.49861800      5.54357500
          41
 G =       -0.578342 Gcorr = 0.228624 a.u. Nimag =   0 Frame:     4 Step:     4 Geom:     4
C           4.72191600      3.65312300      3.46782400
C           4.58826200      2.31199400      3.11210200
C           3.43856600      1.87494000      2.46066600
C           2.41800300      2.78762600      2.19078600
C           2.57520800      4.12417500      2.58151200
H           3.34704500      0.83677100      2.13952700
H           5.64586100      4.03248900      3.94368600
H           5.41809000      1.63056500      3.30498100
H           1.80409300      4.87194900      2.35126900
C           1.21064700      2.41294800      1.41300900
H           1.28748900      2.85479400      0.39467300
H           1.09809800      1.32941400      1.28232000
H           0.27980100      2.78962400      1.85513700
N           3.70537300      4.53318100      3.22405200
C           3.89326200      5.96327200      3.57333400
H           3.29155000      6.18208400      4.48537600
H           4.96329200      6.12391200      3.86304100
C           3.54191800      6.94806700      2.44338500
H           2.53686900      6.73507000      2.02658600
H           3.46654100      7.95976400      2.91038300
C           4.57167800      7.01734300      1.32192800
H           5.54249200      7.39252900      1.69752000
H           4.26030100      7.75992300      0.56478400
S           4.81740900      5.42843500      0.49002200
O           5.43448900      5.69752300     -0.79567800
O           3.46744800      4.81417600      0.49361200
O           5.70467600      4.66572700      1.47584300
P           8.11229000      5.92151800      3.44337900
O           7.31597000      5.40450500      4.57642900
O           9.63166500      6.09204700      3.89184600
H          10.16782600      6.36414500      3.05292900
O           8.14936000      5.10202400      2.12998500
H           7.05753100      4.89945800      1.79996200
O           7.70205200      7.40080800      2.97984800
H           6.94393300      7.76781900      3.55633700
O           5.40362800      8.54651300      4.52037400
H           5.74831500      9.31595700      4.96555400
H           5.30579700      7.87067900      5.20971500
O           5.30519000      6.38091700      6.32079400
H           5.65270700      6.38842700      7.21031400
H           6.02336100      5.99377500      5.78085600
          41
 G =       -0.578298 Gcorr = 0.229027 a.u. Nimag =   0 Frame:     5 Step:     5 Geom:     5
C           4.72684000      3.72351600      3.62892800
C           4.62305700      2.34936400      3.41590300
C           3.45699500      1.81355800      2.87808600
C           2.39163700      2.66324000      2.57671400
C           2.52255000      4.03651500      2.82165200
H           3.38514700      0.74557600      2.66893100
H           5.65705800      4.17338500      4.01480500
H           5.48545700      1.71636100      3.62969800
H           1.71461700      4.73274700      2.55882300
C           1.15681800      2.17349200      1.91442300
H           1.16428600      2.49791600      0.85057900
H           1.07092400      1.07952900      1.91276600
H           0.23953800      2.57425200      2.36401300
N           3.66923200      4.54365500      3.35525900
C           3.82296700      6.00694300      3.55316100
H           3.28552500      6.28862900      4.48770400
H           4.90460500      6.23444400      3.73653800
C           3.34741600      6.86461800      2.36599900
H           2.34023400      6.55230600      2.02248400
H           3.22191200      7.90526500      2.74525500
C           4.31793400      6.88944900      1.19111600
H           5.28065100      7.35528200      1.47766300
H           3.92385000      7.52727200      0.38023200
S           4.63705500      5.23838700      0.51735800
O           5.19181900      5.40581100     -0.81293500
O           3.33116400      4.54744400      0.64214500
O           5.60556700      4.64715700      1.54432100
P           8.09779700      6.15740200      3.26357000
O           7.69406900      5.53702100      4.54017500
O           9.59972700      6.67486000      3.38531000
H           9.89538400      6.98127400      2.44569900
O           8.05119800      5.32279000      1.95909800
H           6.95946100      5.00792800      1.75752800
O           7.26370500      7.47955800      2.89753800
H           6.70663800      7.79842500      3.68775400
O           5.38440400      8.30861700      5.08327000
H           5.91099900      8.85770300      5.66018600
H           5.31366800      7.45419900      5.53512300
O           5.36080500      5.66181400      6.11320600
H           5.60947900      5.43364000      7.00642600
H           6.18781500      5.56866500      5.59349600
          41
 G =       -0.578221 Gcorr = 0.229024 a.u. Nimag =   0 Frame:     6 Step:     6 Geom:     6
C           4.69457300      3.70178500      3.48844300
C           4.52871700      2.35327300      3.17905800
C           3.36611400      1.92079400      2.54665500
C           2.36652600      2.84693700      2.24885500
C           2.55687200      4.19274300      2.59282200
H           3.24956500      0.87440600      2.26223300
H           5.62712600      4.07496000      3.94651700
H           5.34217900      1.65860200      3.39288000
H           1.80212900      4.94957300      2.33873600
C           1.14706200      2.47436300      1.48921800
H           0.22796200      2.89284900      1.91821400
H           1.23199900      2.87301400      0.45396200
H           1.00522500      1.38982600      1.40197600
N           3.69749100      4.59704500      3.21820300
C           3.92226800      6.03324200      3.51953100
H           3.34808500      6.28946900      4.44001200
H           5.00303400      6.17877300      3.77583100
C           3.56180600      6.99368500      2.37164700
H           2.54860200      6.78048400      1.97583900
H           3.50278100      8.01690800      2.81561500
C           4.57337400      7.02618100      1.23204300
H           5.54529200      7.42948100      1.57424500
H           4.24005600      7.72776800      0.44616900
S           4.83223300      5.40278000      0.47382600
O           5.45417700      5.61574900     -0.82009800
O           3.48416200      4.78315200      0.49792500
O           5.71678500      4.69496900      1.50038700
P           8.14957900      6.05385500      3.40943900
O           7.44460600      5.55325100      4.60572400
O           9.68040900      6.31888800      3.76268200
H          10.15717600      6.57065100      2.88241000
O           8.16657900      5.17859800      2.13002100
H           7.07944400      4.96179500      1.82113800
O           7.63805400      7.48732300      2.90229600
H           6.90116400      7.84909800      3.50745800
O           5.36464500      8.58625100      4.52798300
H           5.73540100      9.33102000      4.99434800
H           5.26971600      7.88619300      5.19238800
O           5.26870900      6.34725600      6.24901400
H           5.56292900      6.33131600      7.15755300
H           6.03539800      6.02170200      5.73680200
          41
 G =       -0.578343 Gcorr = 0.228623 a.u. Nimag =   0 Frame:     7 Step:     7 Geom:     7
C           4.64359100      3.71024000      3.62835600
C           4.59967400      2.33060700      3.43490300
C           3.53010200      1.75585300      2.75438300
C           2.49745300      2.57226300      2.29157300
C           2.56198700      3.95311200      2.52213900
H           3.51201500      0.68285900      2.56034100
H           5.50579800      4.19425800      4.12459400
H           5.43893300      1.72352200      3.77732500
H           1.78114000      4.62430200      2.13924500
C           1.37859000      2.04117800      1.47360200
H           0.39778500      2.41830000      1.78922300
H           1.52320400      2.35926400      0.41708500
H           1.32490100      0.94534400      1.47175700
N           3.61404800      4.49786500      3.19564500
C           3.70882400      5.96796400      3.37562800
H           3.02245300      6.26366700      4.20216900
H           4.74211600      6.22028300      3.72686300
C           3.41264200      6.78702500      2.10618500
H           2.45690600      6.47114500      1.64139700
H           3.25390300      7.84271500      2.43424600
C           4.53024600      6.77391600      1.07000200
H           5.44838800      7.24347000      1.47108700
H           4.25277400      7.40091200      0.20310800
S           4.91450800      5.11086400      0.46682300
O           5.62630900      5.25390900     -0.78978000
O           3.59695400      4.43015400      0.44103500
O           5.74690400      4.52266800      1.60768600
P           7.92191700      6.13543900      3.58493000
O           7.05378500      5.72034800      4.70706900
O           9.38866600      6.43988000      4.12808200
H           9.98310500      6.63340400      3.30686000
O           8.10631500      5.16371800      2.39342400
H           7.05630800      4.86489000      2.00583900
O           7.49103700      7.52281100      2.90606900
H           6.67168000      7.91796500      3.36890200
O           5.02238500      8.72611800      4.10038200
H           5.29480400      9.56207800      4.46932100
H           4.89593600      8.13668500      4.86074200
O           4.86512000      6.79915100      6.15107700
H           5.13468500      6.93345000      7.05738000
H           5.64211500      6.38641200      5.72330400
          41
 G =       -0.578285 Gcorr = 0.228962 a.u. Nimag =   0 Frame:     8 Step:     8 Geom:     8
C           4.76069200      3.67563700      3.67254300
C           4.68790000      2.29682100      3.48496200
C           3.56717600      1.73353400      2.88050900
C           2.51537100      2.56120300      2.48780800
C           2.61208200      3.94209100      2.71055800
H           3.52359500      0.66042600      2.69093100
H           5.65883000      4.14935300      4.10593000
H           5.54050200      1.67930700      3.77088000
H           1.81454100      4.62155600      2.38001600
C           1.33641600      2.04234600      1.75038000
H           1.41355200      2.35206900      0.68453600
H           1.26708000      0.94732500      1.75929700
H           0.38456100      2.43530000      2.12914600
N           3.71279700      4.47525300      3.31021600
C           3.83920800      5.94432900      3.48281300
H           3.23473700      6.24339500      4.37036900
H           4.90411300      6.18284500      3.73605700
C           3.43655400      6.77281200      2.24929500
H           2.44624500      6.45869200      1.86299500
H           3.30378600      7.82528000      2.59893000
C           4.46325000      6.77053700      1.12281000
H           5.40092000      7.26634600      1.43817300
H           4.09864700      7.37530000      0.27304200
S           4.84052200      5.10658700      0.51759900
O           5.47028200      5.24362700     -0.78278600
O           3.53546000      4.40344300      0.58168200
O           5.75068100      4.55391100      1.61467800
P           8.05794600      6.23442300      3.41788700
O           7.37270900      5.78945300      4.64718800
O           9.56194700      6.63467600      3.75916100
H          10.03292300      6.84132500      2.86424200
O           8.15326400      5.25765100      2.21786700
H           7.08874700      4.93497100      1.92320600
O           7.45642300      7.58069700      2.78581300
H           6.68902400      7.94137500      3.35240000
O           5.09144700      8.65803900      4.29224900
H           5.40537300      9.46144000      4.69928800
H           5.03234500      8.00972000      5.01107900
O           5.11831800      6.56394100      6.18974900
H           5.39535000      6.64149500      7.10037200
H           5.91468900      6.25147200      5.71613200
          41
 G =       -0.578331 Gcorr = 0.228634 a.u. Nimag =   0 Frame:     9 Step:     9 Geom:     9
C           4.66152800      3.74620900      3.52714400
C           4.57423200      2.37408200      3.29791700
C           3.48098000      1.84978000      2.61440500
C           2.46860800      2.70866000      2.18464600
C           2.57697100      4.08028000      2.45070200
H           3.42859600      0.78335900      2.39236300
H           5.54298000      4.19084900      4.02648900
H           5.39838300      1.73345100      3.61498600
H           1.81286800      4.78446200      2.09420600
C           1.32590900      2.23289800      1.36556300
H           1.24034100      1.13951200      1.33435200
H           0.36001600      2.62920200      1.70291800
H           1.46811500      2.57571700      0.31652200
N           3.65184200      4.57535200      3.12665300
C           3.79251600      6.03663400      3.34427400
H           3.12405600      6.33037000      4.18611100
H           4.83656600      6.24871900      3.69023500
C           3.50765300      6.89786500      2.10044600
H           2.53811300      6.62300500      1.63822500
H           3.38407300      7.94860300      2.45828700
C           4.61344000      6.87955500      1.05174200
H           5.54929400      7.31102100      1.45461200
H           4.34554200      7.53730700      0.20484200
S           4.94184900      5.22258100      0.40079700
O           5.64486300      5.37800300     -0.85929800
O           3.60448900      4.58189400      0.37154900
O           5.76803500      4.58006400      1.51666600
P           8.00987500      6.07349700      3.51411300
O           7.14320500      5.65380500      4.63566800
O           9.49075100      6.32192800      4.04718700
H          10.08162500      6.51783200      3.22394900
O           8.15269600      5.12843600      2.29574700
H           7.09030000      4.87458400      1.90957400
O           7.61056400      7.48962300      2.87651800
H           6.80922400      7.89615800      3.36060900
O           5.19288100      8.73314000      4.13363500
H           5.49497400      9.54962800      4.52251300
H           5.05646100      8.12654300      4.87867000
O           4.99750000      6.75197000      6.12827300
H           5.27968000      6.85368500      7.03499900
H           5.75841400      6.32974300      5.68119400
          41
 G =       -0.578258 Gcorr = 0.228987 a.u. Nimag =   0 Frame:    10 Step:    10 Geom:    10
C           4.54443500      3.94737700      3.74825300
C           4.41930000      2.56112600      3.81414000
C           3.45954400      1.91022900      3.04359300
C           2.61553500      2.66244400      2.22659700
C           2.75456600      4.05730900      2.19992300
H           3.38632600      0.82217300      3.05727100
H           5.32877800      4.48039800      4.31349800
H           5.11614200      1.99709400      4.43568900
H           2.12750700      4.67178800      1.53944700
C           1.63809600      2.02903600      1.30663200
H           2.01784700      2.11319100      0.26422600
H           1.48603700      0.96057300      1.50456100
H           0.65254500      2.51092600      1.32743900
N           3.69416300      4.67822100      2.96619200
C           3.88156000      6.14860300      2.88358000
H           3.08719300      6.63530400      3.49571400
H           4.85550300      6.41154900      3.37063200
C           3.88606000      6.71576100      1.45236900
H           3.01309100      6.35044800      0.87521500
H           3.74603900      7.82006900      1.54422500
C           5.17207900      6.46130100      0.67483200
H           6.02726100      6.99054500      1.13630000
H           5.09403300      6.88773300     -0.34148800
S           5.56759000      4.70104200      0.52522600
O           6.52849300      4.55608900     -0.55271900
O           4.24236900      4.05445500      0.36015900
O           6.10895800      4.36405400      1.91486300
P           7.97450000      6.32869900      3.93355100
O           6.95400600      6.16478700      4.98730200
O           9.36003200      6.75674500      4.59350200
H          10.06623300      6.76562600      3.84081500
O           8.30791000      5.12168900      3.01974200
H           7.33928100      4.77570300      2.50341200
O           7.67023300      7.52741400      2.91154000
H           6.81074700      8.01507100      3.16327500
O           5.08182000      8.94333900      3.46943000
H           5.33751300      9.80676900      3.78395900
H           4.78363500      8.45960900      4.25540600
O           4.43488200      7.28660800      5.66660400
H           4.46808300      7.54649800      6.58509800
H           5.30007900      6.86260800      5.49999300
          41
 G =       -0.578280 Gcorr = 0.228966 a.u. Nimag =   0 Frame:    11 Step:    11 Geom:    11
C           4.44759900      3.94879700      3.69495100
C           4.30381100      2.56282500      3.69498100
C           3.32054600      1.96378200      2.91201200
C           2.47247700      2.76674400      2.14941700
C           2.63105300      4.15928000      2.18871700
H           3.23191500      0.87746600      2.87370200
H           5.24994700      4.44262800      4.27044300
H           5.00378800      1.95933800      4.27448700
H           2.00059300      4.81401000      1.57157200
C           1.46919100      2.19284600      1.21829200
H           1.83132700      2.32241800      0.17430000
H           1.30467500      1.11824400      1.36701300
H           0.49154300      2.68704600      1.28086400
N           3.59353500      4.72880800      2.96631900
C           3.80055100      6.19883400      2.95285000
H           3.02565700      6.66502500      3.60464200
H           4.78775600      6.42378600      3.43214600
C           3.78482000      6.83681100      1.55186700
H           2.89557900      6.51230400      0.97517900
H           3.66208900      7.93685400      1.70163000
C           5.05143000      6.60494000      0.73638700
H           5.92273500      7.10056000      1.20504800
H           4.95852700      7.08112500     -0.25628600
S           5.42093500      4.84937700      0.49378500
O           6.35900900      4.74538200     -0.60874400
O           4.08434800      4.22783000      0.32350800
O           5.98408100      4.43855200      1.85446100
P           7.91394300      6.27933100      3.92550900
O           6.91597300      6.06499400      4.99170100
O           9.31744400      6.66126000      4.57583000
H          10.00731500      6.70317700      3.80919700
O           8.21754900      5.12248600      2.93920100
H           7.23337200      4.80262000      2.43608700
O           7.59725300      7.53411500      2.97728500
H           6.74863600      8.01471500      3.27499200
O           5.03539200      8.94176800      3.67048200
H           5.30847900      9.78292600      4.02767000
H           4.74960600      8.41675900      4.43418000
O           4.42161800      7.16762900      5.78341700
H           4.47339600      7.37395600      6.71451900
H           5.28051100      6.74866100      5.57639100
          41
 G =       -0.578257 Gcorr = 0.228989 a.u. Nimag =   0 Frame:    12 Step:    12 Geom:    12
C           4.36709800      3.99396400      3.86177100
C           4.20712600      2.61551000      3.98801300
C           3.16397300      1.97126400      3.32814600
C           2.27379900      2.72327200      2.56156400
C           2.45136600      4.11121000      2.47282500
H           3.05992200      0.88725300      3.38728100
H           5.21393000      4.51938000      4.33678000
H           4.93908500      2.04976700      4.56608800
H           1.78683900      4.72367500      1.84808700
C           1.20053100      2.09213800      1.75366300
H           0.23574100      2.60721400      1.84202000
H           1.48971800      2.12818700      0.67991000
H           1.03399500      1.03669400      2.00316700
N           3.47307700      4.72600200      3.13131900
C           3.69616000      6.18592300      2.98001700
H           2.97445400      6.71838000      3.64200100
H           4.71712700      6.43246100      3.36961400
C           3.58989100      6.70519900      1.53465400
H           2.65858000      6.34969600      1.04996400
H           3.49118800      7.81591300      1.59906500
C           4.79338500      6.38357800      0.65645400
H           5.70134200      6.90040400      1.02103400
H           4.63720800      6.77765500     -0.36391900
S           5.12303100      4.60751600      0.53685400
O           5.97993300      4.39568500     -0.61520300
O           3.77014400      3.99853600      0.51193600
O           5.77535100      4.30028500      1.88499400
P           7.86969300      6.26950000      3.65608100
O           6.94338600      6.16736100      4.80073200
O           9.31982200      6.67555800      4.17654700
H           9.95621900      6.63953700      3.36471100
O           8.08782400      5.02673800      2.75538400
H           7.06725000      4.68775400      2.34630400
O           7.50856200      7.44574100      2.62660700
H           6.68851100      7.96647500      2.93688400
O           5.01988000      8.95805000      3.36273400
H           5.32606900      9.82278900      3.62375300
H           4.78114800      8.50802500      4.18800600
O           4.53032400      7.39128100      5.66307500
H           4.65198200      7.67802500      6.56595600
H           5.36533900      6.93641100      5.43512900
          41
 G =       -0.589662 Gcorr = 0.235873 a.u. Nimag =   0 Frame:    13 Step:    13 Geom:    13
C           2.87489800      5.98413900      3.27736000
C           3.42000700      5.43946300      4.43784200
C           3.90979600      4.13637100      4.43658300
C           3.78484200      3.36259900      3.27852800
C           3.21366200      3.93357700      2.13557000
H           4.42104000      3.73659100      5.31957800
H           2.54146400      7.03643400      3.23758600
H           3.51682600      6.07201500      5.32945500
H           3.14716800      3.36956600      1.19762400
C           4.29927800      1.97190200      3.20872500
H           4.98436800      1.73722500      4.04304200
H           3.49768900      1.22457000      3.21421400
H           4.90830700      1.81433300      2.29785200
N           2.77417400      5.22650200      2.14434600
C           2.27624500      5.84888700      0.89330600
H           1.28788800      5.39539100      0.65240300
H           2.09069100      6.94100700      1.07341800
C           3.22619500      5.69662900     -0.31521500
H           3.52689200      4.63376700     -0.44444200
H           2.63973600      5.94246500     -1.22836100
C           4.46386000      6.59011100     -0.27613100
H           4.17510000      7.65764500     -0.20729800
H           5.03500300      6.49696400     -1.21702900
S           5.53087300      6.17630000      1.12225000
O           6.92635200      6.50998900      0.85490600
O           5.30239500      4.70595700      1.30503800
O           4.89034000      6.96939300      2.22003900
P           7.71409600      4.15214900      3.75554900