 Entering Gaussian System, Link 0=g16
 Initial command:
 /data0/home/software/g16/l1.exe "/data0/home/software/g16/scratch/Gau-1564755.inp" -scrdir="/data0/home/software/g16/scratch/"
 Default is to use a total of  22 processors:
                               22 via shared-memory
                                1 via Linda
 Entering Link 1 = /data0/home/software/g16/l1.exe PID=   1564756.
  
 Copyright (c) 1988,1990,1992,1993,1995,1998,2003,2009,2016,
            Gaussian, Inc.  All Rights Reserved.
  
 This is part of the Gaussian(R) 16 program.  It is based on
 the Gaussian(R) 09 system (copyright 2009, Gaussian, Inc.),
 the Gaussian(R) 03 system (copyright 2003, Gaussian, Inc.),
 the Gaussian(R) 98 system (copyright 1998, Gaussian, Inc.),
 the Gaussian(R) 94 system (copyright 1995, Gaussian, Inc.),
 the Gaussian 92(TM) system (copyright 1992, Gaussian, Inc.),
 the Gaussian 90(TM) system (copyright 1990, Gaussian, Inc.),
 the Gaussian 88(TM) system (copyright 1988, Gaussian, Inc.),
 the Gaussian 86(TM) system (copyright 1986, Carnegie Mellon
 University), and the Gaussian 82(TM) system (copyright 1983,
 Carnegie Mellon University). Gaussian is a federally registered
 trademark of Gaussian, Inc.
  
 This software contains proprietary and confidential information,
 including trade secrets, belonging to Gaussian, Inc.
  
 This software is provided under written license and may be
 used, copied, transmitted, or stored only in accord with that
 written license.
  
 The following legend is applicable only to US Government
 contracts under FAR:
  
                    RESTRICTED RIGHTS LEGEND
  
 Use, reproduction and disclosure by the US Government is
 subject to restrictions as set forth in subparagraphs (a)
 and (c) of the Commercial Computer Software - Restricted
 Rights clause in FAR 52.227-19.
  
 Gaussian, Inc.
 340 Quinnipiac St., Bldg. 40, Wallingford CT 06492
  
  
 ---------------------------------------------------------------
 Warning -- This program may not be used in any manner that
 competes with the business of Gaussian, Inc. or will provide
 assistance to any competitor of Gaussian, Inc.  The licensee
 of this program is prohibited from giving any competitor of
 Gaussian, Inc. access to this program.  By using this program,
 the user acknowledges that Gaussian, Inc. is engaged in the
 business of creating and licensing software in the field of
 computational chemistry and represents and warrants to the
 licensee that it is not a competitor of Gaussian, Inc. and that
 it will not use this program in any manner prohibited above.
 ---------------------------------------------------------------
  

 Cite this work as:
 Gaussian 16, Revision A.03,
 M. J. Frisch, G. W. Trucks, H. B. Schlegel, G. E. Scuseria, 
 M. A. Robb, J. R. Cheeseman, G. Scalmani, V. Barone, 
 G. A. Petersson, H. Nakatsuji, X. Li, M. Caricato, A. V. Marenich, 
 J. Bloino, B. G. Janesko, R. Gomperts, B. Mennucci, H. P. Hratchian, 
 J. V. Ortiz, A. F. Izmaylov, J. L. Sonnenberg, D. Williams-Young, 
 F. Ding, F. Lipparini, F. Egidi, J. Goings, B. Peng, A. Petrone, 
 T. Henderson, D. Ranasinghe, V. G. Zakrzewski, J. Gao, N. Rega, 
 G. Zheng, W. Liang, M. Hada, M. Ehara, K. Toyota, R. Fukuda, 
 J. Hasegawa, M. Ishida, T. Nakajima, Y. Honda, O. Kitao, H. Nakai, 
 T. Vreven, K. Throssell, J. A. Montgomery, Jr., J. E. Peralta, 
 F. Ogliaro, M. J. Bearpark, J. J. Heyd, E. N. Brothers, K. N. Kudin, 
 V. N. Staroverov, T. A. Keith, R. Kobayashi, J. Normand, 
 K. Raghavachari, A. P. Rendell, J. C. Burant, S. S. Iyengar, 
 J. Tomasi, M. Cossi, J. M. Millam, M. Klene, C. Adamo, R. Cammi, 
 J. W. Ochterski, R. L. Martin, K. Morokuma, O. Farkas, 
 J. B. Foresman, and D. J. Fox, Gaussian, Inc., Wallingford CT, 2016.
 
 ******************************************
 Gaussian 16:  ES64L-G16RevA.03 25-Dec-2016
                11-Dec-2022 
 ******************************************
 %nproc=24
 Will use up to   24 processors via shared memory.
 %mem=50GB
 -------------------------------------------------------
 #p B3LYP/6-311+G(2d,p) opt freq scrf(smd,solvent=water)
 -------------------------------------------------------
 1/18=20,19=15,26=3,38=1/1,3;
 2/9=110,12=2,17=6,18=5,40=1/2;
 3/5=4,6=6,7=112,11=2,25=1,30=1,70=32201,71=1,72=1,74=-5/1,2,3;
 4//1;
 5/5=2,38=5,53=1/2;
 6/7=2,8=2,9=2,10=2,28=1/1;
 7//1,2,3,16;
 1/18=20,19=15,26=3/3(2);
 2/9=110/2;
 99//99;
 2/9=110/2;
 3/5=4,6=6,7=112,11=2,25=1,30=1,70=32205,71=1,72=1,74=-5/1,2,3;
 4/5=5,16=3,69=1/1;
 5/5=2,38=5,53=1/2;
 7//1,2,3,16;
 1/18=20,19=15,26=3/3(-5);
 2/9=110/2;
 6/7=2,8=2,9=2,10=2,19=2,28=1/1;
 99/9=1/99;
 Leave Link    1 at Sun Dec 11 19:36:53 2022, MaxMem=  6710886400 cpu:               0.7 elap:               0.0
 (Enter /data0/home/software/g16/l101.exe)
 -------------------
 Title Card Required
 -------------------
 Symbolic Z-matrix:
 Charge =  0 Multiplicity = 1
 C                     18.41983   2.62125   13.84377 
 C                     18.59049   1.60008   14.76655 
 C                     16.43296   1.58605   14.09971 
 N                     17.08195   2.59229   13.43847 
 H                     19.12644   3.33653   13.46912 
 H                     19.46516   1.29815   15.3089 
 H                     15.38015   1.2831    13.98625 
 C                     16.47348   3.54188   12.52452 
 H                     17.23346   4.12795   11.98574 
 H                     15.8309   3.02458   11.77636 
 H                     15.8124   4.2482    13.08441 
 N                     17.35622   0.95664   14.8998 
 C                     17.03691  -0.03928   15.92327 
 H                     17.79165  -0.85506   15.87754 
 H                     16.04207  -0.50471   15.68341 
 C                     17.01262   0.61256   17.32382 
 H                     17.63794   0.01174   18.01475 
 H                     17.49786   1.61443   17.28915 
 C                     15.61083   0.74358   17.89351 
 H                     15.6517   1.17656   18.9113 
 H                     15.13597  -0.24666   18.01836 
 S                     14.49118   1.77378   16.89552 
 O                     13.67043   2.49481   17.8525 
 O                     15.34928   2.61664   15.99578 
 O                     13.79431   0.77603   16.01754 
 P                     12.8046   2.67079   13.28536 
 O                     13.71265   1.96826   12.37475 
 O                     13.52628   3.85528   14.08305 
 H                     14.18185   3.47753   14.79346 
 O                     11.6865   3.46865   12.47775 
 H                     11.09318   3.94722   13.17554 
 O                     11.97821   1.81379   14.31221 
 H                     12.66056   1.28737   14.96783 
 
 Add virtual bond connecting atoms H33        and O25        Dist= 3.08D+00.
 ITRead=  0  0  0  0  0  0  0  0  0  0  0  0  0  0  0  0  0  0  0  0
 ITRead=  0  0  0  0  0  0  0  0  0  0  0  0  0
 MicOpt= -1 -1 -1 -1 -1 -1 -1 -1 -1 -1 -1 -1 -1 -1 -1 -1 -1 -1 -1 -1
 MicOpt= -1 -1 -1 -1 -1 -1 -1 -1 -1 -1 -1 -1 -1
 NAtoms=     33 NQM=       33 NQMF=       0 NMMI=      0 NMMIF=      0
                NMic=       0 NMicF=      0.
                    Isotopes and Nuclear Properties:
 (Nuclear quadrupole moments (NQMom) in fm**2, nuclear magnetic moments (NMagM)
  in nuclear magnetons)

  Atom         1           2           3           4           5           6           7           8           9          10
 IAtWgt=          12          12          12          14           1           1           1          12           1           1
 AtmWgt=  12.0000000  12.0000000  12.0000000  14.0030740   1.0078250   1.0078250   1.0078250  12.0000000   1.0078250   1.0078250
 NucSpn=           0           0           0           2           1           1           1           0           1           1
 AtZEff=  -0.0000000  -0.0000000  -0.0000000  -0.0000000  -0.0000000  -0.0000000  -0.0000000  -0.0000000  -0.0000000  -0.0000000
 NQMom=    0.0000000   0.0000000   0.0000000   2.0440000   0.0000000   0.0000000   0.0000000   0.0000000   0.0000000   0.0000000
 NMagM=    0.0000000   0.0000000   0.0000000   0.4037610   2.7928460   2.7928460   2.7928460   0.0000000   2.7928460   2.7928460
 AtZNuc=   6.0000000   6.0000000   6.0000000   7.0000000   1.0000000   1.0000000   1.0000000   6.0000000   1.0000000   1.0000000

  Atom        11          12          13          14          15          16          17          18          19          20
 IAtWgt=           1          14          12           1           1          12           1           1          12           1
 AtmWgt=   1.0078250  14.0030740  12.0000000   1.0078250   1.0078250  12.0000000   1.0078250   1.0078250  12.0000000   1.0078250
 NucSpn=           1           2           0           1           1           0           1           1           0           1
 AtZEff=  -0.0000000  -0.0000000  -0.0000000  -0.0000000  -0.0000000  -0.0000000  -0.0000000  -0.0000000  -0.0000000  -0.0000000
 NQMom=    0.0000000   2.0440000   0.0000000   0.0000000   0.0000000   0.0000000   0.0000000   0.0000000   0.0000000   0.0000000
 NMagM=    2.7928460   0.4037610   0.0000000   2.7928460   2.7928460   0.0000000   2.7928460   2.7928460   0.0000000   2.7928460
 AtZNuc=   1.0000000   7.0000000   6.0000000   1.0000000   1.0000000   6.0000000   1.0000000   1.0000000   6.0000000   1.0000000

  Atom        21          22          23          24          25          26          27          28          29          30
 IAtWgt=           1          32          16          16          16          31          16          16           1          16
 AtmWgt=   1.0078250  31.9720718  15.9949146  15.9949146  15.9949146  30.9737634  15.9949146  15.9949146   1.0078250  15.9949146
 NucSpn=           1           0           0           0           0           1           0           0           1           0
 AtZEff=  -0.0000000  -0.0000000  -0.0000000  -0.0000000  -0.0000000  -0.0000000  -0.0000000  -0.0000000  -0.0000000  -0.0000000
 NQMom=    0.0000000   0.0000000   0.0000000   0.0000000   0.0000000   0.0000000   0.0000000   0.0000000   0.0000000   0.0000000
 NMagM=    2.7928460   0.0000000   0.0000000   0.0000000   0.0000000   1.1316000   0.0000000   0.0000000   2.7928460   0.0000000
 AtZNuc=   1.0000000  16.0000000   8.0000000   8.0000000   8.0000000  15.0000000   8.0000000   8.0000000   1.0000000   8.0000000

  Atom        31          32          33
 IAtWgt=           1          16           1
 AtmWgt=   1.0078250  15.9949146   1.0078250
 NucSpn=           1           0           1
 AtZEff=  -0.0000000  -0.0000000  -0.0000000
 NQMom=    0.0000000   0.0000000   0.0000000
 NMagM=    2.7928460   0.0000000   2.7928460
 AtZNuc=   1.0000000   8.0000000   1.0000000
 Leave Link  101 at Sun Dec 11 19:36:53 2022, MaxMem=  6710886400 cpu:               7.7 elap:               0.3
 (Enter /data0/home/software/g16/l103.exe)

 GradGradGradGradGradGradGradGradGradGradGradGradGradGradGradGradGradGrad
 Berny optimization.
 Initialization pass.
                           ----------------------------
                           !    Initial Parameters    !
                           ! (Angstroms and Degrees)  !
 --------------------------                            --------------------------
 ! Name  Definition              Value          Derivative Info.                !
 --------------------------------------------------------------------------------
 ! R1    R(1,2)                  1.3869         estimate D2E/DX2                !
 ! R2    R(1,4)                  1.3982         estimate D2E/DX2                !
 ! R3    R(1,5)                  1.073          estimate D2E/DX2                !
 ! R4    R(2,6)                  1.0725         estimate D2E/DX2                !
 ! R5    R(2,12)                 1.3983         estimate D2E/DX2                !
 ! R6    R(3,4)                  1.3678         estimate D2E/DX2                !
 ! R7    R(3,7)                  1.1014         estimate D2E/DX2                !
 ! R8    R(3,12)                 1.3743         estimate D2E/DX2                !
 ! R9    R(4,8)                  1.4516         estimate D2E/DX2                !
 ! R10   R(8,9)                  1.1006         estimate D2E/DX2                !
 ! R11   R(8,10)                 1.1137         estimate D2E/DX2                !
 ! R12   R(8,11)                 1.1178         estimate D2E/DX2                !
 ! R13   R(12,13)                1.4633         estimate D2E/DX2                !
 ! R14   R(13,14)                1.1123         estimate D2E/DX2                !
 ! R15   R(13,15)                1.1242         estimate D2E/DX2                !
 ! R16   R(13,16)                1.545          estimate D2E/DX2                !
 ! R17   R(16,17)                1.1088         estimate D2E/DX2                !
 ! R18   R(16,18)                1.1137         estimate D2E/DX2                !
 ! R19   R(16,19)                1.5188         estimate D2E/DX2                !
 ! R20   R(19,20)                1.1068         estimate D2E/DX2                !
 ! R21   R(19,21)                1.1053         estimate D2E/DX2                !
 ! R22   R(19,22)                1.8196         estimate D2E/DX2                !
 ! R23   R(22,23)                1.4524         estimate D2E/DX2                !
 ! R24   R(22,24)                1.5021         estimate D2E/DX2                !
 ! R25   R(22,25)                1.5007         estimate D2E/DX2                !
 ! R26   R(25,33)                1.6275         estimate D2E/DX2                !
 ! R27   R(26,27)                1.4654         estimate D2E/DX2                !
 ! R28   R(26,28)                1.6            estimate D2E/DX2                !
 ! R29   R(26,30)                1.5934         estimate D2E/DX2                !
 ! R30   R(26,32)                1.5722         estimate D2E/DX2                !
 ! R31   R(28,29)                1.0379         estimate D2E/DX2                !
 ! R32   R(30,31)                1.0334         estimate D2E/DX2                !
 ! R33   R(32,33)                1.0828         estimate D2E/DX2                !
 ! A1    A(2,1,4)              107.1795         estimate D2E/DX2                !
 ! A2    A(2,1,5)              129.9509         estimate D2E/DX2                !
 ! A3    A(4,1,5)              122.8688         estimate D2E/DX2                !
 ! A4    A(1,2,6)              130.0969         estimate D2E/DX2                !
 ! A5    A(1,2,12)             107.074          estimate D2E/DX2                !
 ! A6    A(6,2,12)             122.8283         estimate D2E/DX2                !
 ! A7    A(4,3,7)              127.3075         estimate D2E/DX2                !
 ! A8    A(4,3,12)             107.434          estimate D2E/DX2                !
 ! A9    A(7,3,12)             125.1814         estimate D2E/DX2                !
 ! A10   A(1,4,3)              109.2139         estimate D2E/DX2                !
 ! A11   A(1,4,8)              124.7521         estimate D2E/DX2                !
 ! A12   A(3,4,8)              125.9238         estimate D2E/DX2                !
 ! A13   A(4,8,9)              111.5369         estimate D2E/DX2                !
 ! A14   A(4,8,10)             111.1591         estimate D2E/DX2                !
 ! A15   A(4,8,11)             110.2369         estimate D2E/DX2                !
 ! A16   A(9,8,10)             108.4757         estimate D2E/DX2                !
 ! A17   A(9,8,11)             108.4884         estimate D2E/DX2                !
 ! A18   A(10,8,11)            106.7847         estimate D2E/DX2                !
 ! A19   A(2,12,3)             109.0731         estimate D2E/DX2                !
 ! A20   A(2,12,13)            124.9212         estimate D2E/DX2                !
 ! A21   A(3,12,13)            124.9102         estimate D2E/DX2                !
 ! A22   A(12,13,14)           108.8038         estimate D2E/DX2                !
 ! A23   A(12,13,15)           109.0044         estimate D2E/DX2                !
 ! A24   A(12,13,16)           110.5067         estimate D2E/DX2                !
 ! A25   A(14,13,15)           106.7409         estimate D2E/DX2                !
 ! A26   A(14,13,16)           110.9386         estimate D2E/DX2                !
 ! A27   A(15,13,16)           110.7422         estimate D2E/DX2                !
 ! A28   A(13,16,17)           109.1112         estimate D2E/DX2                !
 ! A29   A(13,16,18)           110.1487         estimate D2E/DX2                !
 ! A30   A(13,16,19)           113.0126         estimate D2E/DX2                !
 ! A31   A(17,16,18)           105.1369         estimate D2E/DX2                !
 ! A32   A(17,16,19)           109.4834         estimate D2E/DX2                !
 ! A33   A(18,16,19)           109.6453         estimate D2E/DX2                !
 ! A34   A(16,19,20)           110.1569         estimate D2E/DX2                !
 ! A35   A(16,19,21)           111.1991         estimate D2E/DX2                !
 ! A36   A(16,19,22)           114.2702         estimate D2E/DX2                !
 ! A37   A(20,19,21)           105.2167         estimate D2E/DX2                !
 ! A38   A(20,19,22)           107.7939         estimate D2E/DX2                !
 ! A39   A(21,19,22)           107.7481         estimate D2E/DX2                !
 ! A40   A(19,22,23)           105.5104         estimate D2E/DX2                !
 ! A41   A(19,22,24)           107.1398         estimate D2E/DX2                !
 ! A42   A(19,22,25)           103.3086         estimate D2E/DX2                !
 ! A43   A(23,22,24)           116.0366         estimate D2E/DX2                !
 ! A44   A(23,22,25)           116.9468         estimate D2E/DX2                !
 ! A45   A(24,22,25)           106.7335         estimate D2E/DX2                !
 ! A46   A(22,25,33)           119.4687         estimate D2E/DX2                !
 ! A47   A(27,26,28)           112.6577         estimate D2E/DX2                !
 ! A48   A(27,26,30)           111.0955         estimate D2E/DX2                !
 ! A49   A(27,26,32)           118.0509         estimate D2E/DX2                !
 ! A50   A(28,26,30)           101.4491         estimate D2E/DX2                !
 ! A51   A(28,26,32)           108.3599         estimate D2E/DX2                !
 ! A52   A(30,26,32)           103.5999         estimate D2E/DX2                !
 ! A53   A(26,28,29)           110.8983         estimate D2E/DX2                !
 ! A54   A(26,30,31)           107.0091         estimate D2E/DX2                !
 ! A55   A(26,32,33)           109.2211         estimate D2E/DX2                !
 ! A56   L(25,33,32,4,-1)      174.3363         estimate D2E/DX2                !
 ! A57   L(25,33,32,4,-2)      189.6688         estimate D2E/DX2                !
 ! D1    D(4,1,2,6)           -179.7589         estimate D2E/DX2                !
 ! D2    D(4,1,2,12)             0.5398         estimate D2E/DX2                !
 ! D3    D(5,1,2,6)             -0.0805         estimate D2E/DX2                !
 ! D4    D(5,1,2,12)          -179.7818         estimate D2E/DX2                !
 ! D5    D(2,1,4,3)              0.4772         estimate D2E/DX2                !
 ! D6    D(2,1,4,8)            176.8456         estimate D2E/DX2                !
 ! D7    D(5,1,4,3)           -179.2292         estimate D2E/DX2                !
 ! D8    D(5,1,4,8)             -2.8608         estimate D2E/DX2                !
 ! D9    D(1,2,12,3)            -1.3671         estimate D2E/DX2                !
 ! D10   D(1,2,12,13)         -169.8607         estimate D2E/DX2                !
 ! D11   D(6,2,12,3)           178.9048         estimate D2E/DX2                !
 ! D12   D(6,2,12,13)           10.4112         estimate D2E/DX2                !
 ! D13   D(7,3,4,1)           -178.2336         estimate D2E/DX2                !
 ! D14   D(7,3,4,8)              5.451          estimate D2E/DX2                !
 ! D15   D(12,3,4,1)            -1.319          estimate D2E/DX2                !
 ! D16   D(12,3,4,8)          -177.6344         estimate D2E/DX2                !
 ! D17   D(4,3,12,2)             1.6609         estimate D2E/DX2                !
 ! D18   D(4,3,12,13)          170.1561         estimate D2E/DX2                !
 ! D19   D(7,3,12,2)           178.6584         estimate D2E/DX2                !
 ! D20   D(7,3,12,13)          -12.8464         estimate D2E/DX2                !
 ! D21   D(1,4,8,9)             14.744          estimate D2E/DX2                !
 ! D22   D(1,4,8,10)           135.9469         estimate D2E/DX2                !
 ! D23   D(1,4,8,11)          -105.8425         estimate D2E/DX2                !
 ! D24   D(3,4,8,9)           -169.4918         estimate D2E/DX2                !
 ! D25   D(3,4,8,10)           -48.2889         estimate D2E/DX2                !
 ! D26   D(3,4,8,11)            69.9218         estimate D2E/DX2                !
 ! D27   D(2,12,13,14)         -54.5755         estimate D2E/DX2                !
 ! D28   D(2,12,13,15)        -170.6219         estimate D2E/DX2                !
 ! D29   D(2,12,13,16)          67.4578         estimate D2E/DX2                !
 ! D30   D(3,12,13,14)         138.7154         estimate D2E/DX2                !
 ! D31   D(3,12,13,15)          22.669          estimate D2E/DX2                !
 ! D32   D(3,12,13,16)         -99.2513         estimate D2E/DX2                !
 ! D33   D(12,13,16,17)       -129.831          estimate D2E/DX2                !
 ! D34   D(12,13,16,18)        -14.9012         estimate D2E/DX2                !
 ! D35   D(12,13,16,19)        108.1176         estimate D2E/DX2                !
 ! D36   D(14,13,16,17)         -9.0618         estimate D2E/DX2                !
 ! D37   D(14,13,16,18)        105.868          estimate D2E/DX2                !
 ! D38   D(14,13,16,19)       -131.1132         estimate D2E/DX2                !
 ! D39   D(15,13,16,17)        109.2776         estimate D2E/DX2                !
 ! D40   D(15,13,16,18)       -135.7926         estimate D2E/DX2                !
 ! D41   D(15,13,16,19)        -12.7738         estimate D2E/DX2                !
 ! D42   D(13,16,19,20)        177.6923         estimate D2E/DX2                !
 ! D43   D(13,16,19,21)         61.4441         estimate D2E/DX2                !
 ! D44   D(13,16,19,22)        -60.8008         estimate D2E/DX2                !
 ! D45   D(17,16,19,20)         55.8499         estimate D2E/DX2                !
 ! D46   D(17,16,19,21)        -60.3983         estimate D2E/DX2                !
 ! D47   D(17,16,19,22)        177.3569         estimate D2E/DX2                !
 ! D48   D(18,16,19,20)        -59.01           estimate D2E/DX2                !
 ! D49   D(18,16,19,21)       -175.2582         estimate D2E/DX2                !
 ! D50   D(18,16,19,22)         62.4969         estimate D2E/DX2                !
 ! D51   D(16,19,22,23)       -143.0124         estimate D2E/DX2                !
 ! D52   D(16,19,22,24)        -18.7979         estimate D2E/DX2                !
 ! D53   D(16,19,22,25)         93.695          estimate D2E/DX2                !
 ! D54   D(20,19,22,23)        -20.2128         estimate D2E/DX2                !
 ! D55   D(20,19,22,24)        104.0018         estimate D2E/DX2                !
 ! D56   D(20,19,22,25)       -143.5054         estimate D2E/DX2                !
 ! D57   D(21,19,22,23)         92.876          estimate D2E/DX2                !
 ! D58   D(21,19,22,24)       -142.9095         estimate D2E/DX2                !
 ! D59   D(21,19,22,25)        -30.4166         estimate D2E/DX2                !
 ! D60   D(19,22,25,33)        178.7659         estimate D2E/DX2                !
 ! D61   D(23,22,25,33)         63.3927         estimate D2E/DX2                !
 ! D62   D(24,22,25,33)        -68.4447         estimate D2E/DX2                !
 ! D63   D(22,25,32,26)         67.1048         estimate D2E/DX2                !
 ! D64   D(27,26,28,29)        -71.1901         estimate D2E/DX2                !
 ! D65   D(30,26,28,29)        169.962          estimate D2E/DX2                !
 ! D66   D(32,26,28,29)         61.2993         estimate D2E/DX2                !
 ! D67   D(27,26,30,31)       -179.2567         estimate D2E/DX2                !
 ! D68   D(28,26,30,31)        -59.2958         estimate D2E/DX2                !
 ! D69   D(32,26,30,31)         53.016          estimate D2E/DX2                !
 ! D70   D(27,26,32,33)         61.1479         estimate D2E/DX2                !
 ! D71   D(28,26,32,33)        -68.4022         estimate D2E/DX2                !
 ! D72   D(30,26,32,33)       -175.5876         estimate D2E/DX2                !
 --------------------------------------------------------------------------------
 Trust Radius=3.00D-01 FncErr=1.00D-07 GrdErr=1.00D-06 EigMax=2.50D+02 EigMin=1.00D-04
 Number of steps in this run=    172 maximum allowed number of steps=    198.
 GradGradGradGradGradGradGradGradGradGradGradGradGradGradGradGradGradGrad

 Leave Link  103 at Sun Dec 11 19:36:53 2022, MaxMem=  6710886400 cpu:               0.2 elap:               0.0
 (Enter /data0/home/software/g16/l202.exe)
                          Input orientation:                          
 ---------------------------------------------------------------------
 Center     Atomic      Atomic             Coordinates (Angstroms)
 Number     Number       Type             X           Y           Z
 ---------------------------------------------------------------------
      1          6           0       18.419831    2.621246   13.843774
      2          6           0       18.590494    1.600082   14.766547
      3          6           0       16.432963    1.586050   14.099707
      4          7           0       17.081952    2.592291   13.438470
      5          1           0       19.126443    3.336532   13.469123
      6          1           0       19.465161    1.298154   15.308900
      7          1           0       15.380153    1.283101   13.986253
      8          6           0       16.473479    3.541883   12.524521
      9          1           0       17.233460    4.127946   11.985744
     10          1           0       15.830903    3.024579   11.776363
     11          1           0       15.812398    4.248203   13.084407
     12          7           0       17.356221    0.956641   14.899799
     13          6           0       17.036909   -0.039279   15.923271
     14          1           0       17.791655   -0.855059   15.877536
     15          1           0       16.042073   -0.504708   15.683414
     16          6           0       17.012617    0.612555   17.323820
     17          1           0       17.637940    0.011737   18.014754
     18          1           0       17.497860    1.614430   17.289153
     19          6           0       15.610827    0.743578   17.893510
     20          1           0       15.651696    1.176559   18.911303
     21          1           0       15.135966   -0.246663   18.018358
     22         16           0       14.491181    1.773780   16.895517
     23          8           0       13.670431    2.494807   17.852502
     24          8           0       15.349278    2.616642   15.995785
     25          8           0       13.794312    0.776025   16.017540
     26         15           0       12.804603    2.670792   13.285356
     27          8           0       13.712647    1.968259   12.374746
     28          8           0       13.526276    3.855278   14.083052
     29          1           0       14.181852    3.477527   14.793464
     30          8           0       11.686500    3.468651   12.477753
     31          1           0       11.093177    3.947216   13.175541
     32          8           0       11.978208    1.813793   14.312213
     33          1           0       12.660562    1.287372   14.967829
 ---------------------------------------------------------------------
                    Distance matrix (angstroms):
                    1          2          3          4          5
     1  C    0.000000
     2  C    1.386871   0.000000
     3  C    2.254945   2.258276   0.000000
     4  N    1.398224   2.241421   1.367824   0.000000
     5  H    1.072986   2.232893   3.273631   2.175954   0.000000
     6  H    2.233804   1.072544   3.277080   3.294387   2.766676
     7  H    3.324240   3.318980   1.101389   2.215889   4.303335
     8  C    2.525131   3.644040   2.511600   1.451643   2.823590
     9  H    2.670187   3.995560   3.401598   2.119340   2.531824
    10  H    3.337576   4.311118   2.798172   2.124758   3.717975
    11  H    3.165807   4.190460   2.915989   2.116406   3.458619
    12  N    2.239948   1.398285   1.374303   2.210443   3.293084
    13  C    3.648996   2.537546   2.516313   3.619589   4.667451
    14  H    4.076210   2.810722   3.311455   4.282166   5.015132
    15  H    4.337003   3.430049   2.651828   3.963903   5.401069
    16  C    4.257442   3.162997   3.417396   4.361205   5.171750
    17  H    4.981763   3.739124   4.388397   5.283063   5.825175
    18  H    3.705988   2.749108   3.362644   3.994615   4.495614
    19  C    5.274135   4.403398   3.972230   5.042750   6.217569
    20  H    5.952272   5.098520   4.891781   5.831109   6.808574
    21  H    6.036209   5.091022   4.516289   5.729040   7.032690
    22  S    5.046348   4.622451   3.409151   4.396957   5.972271
    23  O    6.216324   5.876280   4.747725   5.579575   7.049155
    24  O    3.749596   3.612465   2.414872   3.089112   4.601004
    25  O    5.433740   5.024681   3.361057   4.556205   6.440671
    26  P    5.643144   6.067692   3.873607   4.280808   6.359453
    27  O    4.974135   5.445150   3.243716   3.587916   5.690257
    28  O    5.052422   5.585640   3.687615   3.827983   5.657550
    29  H    4.426691   4.791831   3.021007   3.321179   5.120814
    30  O    6.922561   7.509678   5.357596   5.549945   7.506865
    31  H    7.475600   8.015616   5.911218   6.145761   8.061792
    32  O    6.508911   6.631321   4.465632   5.236190   7.357092
    33  H    6.017632   5.941582   3.882506   4.856999   6.946423
                    6          7          8          9         10
     6  H    0.000000
     7  H    4.293823   0.000000
     8  C    4.662322   2.904155   0.000000
     9  H    4.902201   3.940803   1.100601   0.000000
    10  H    5.354175   2.849480   1.113664   1.796782   0.000000
    11  H    5.195559   3.129216   1.117760   1.800261   1.791250
    12  N    2.175229   2.201360   3.620035   4.308592   4.044603
    13  C    2.839469   2.871510   4.969273   5.736594   5.295141
    14  H    2.785731   3.736846   5.684487   6.347280   5.976266
    15  H    3.886914   2.552402   5.151661   6.045961   5.269299
    16  C    3.247294   3.775437   5.648443   6.395452   6.163488
    17  H    3.509309   4.789863   6.630276   7.311343   7.159617
    18  H    2.809218   3.937462   5.240816   5.874846   5.929428
    19  C    4.673720   3.951070   6.115613   6.999185   6.532296
    20  H    5.247343   4.933681   6.860107   7.692596   7.372561
    21  H    5.335687   4.319453   6.806193   7.741390   7.081417
    22  S    5.242523   3.081372   5.114812   6.096562   5.437379
    23  O    6.440558   4.397643   6.110714   7.055577   6.470530
    24  O    4.376153   2.411950   3.764249   4.681304   4.266368
    25  O    5.738756   2.626432   5.198951   6.270446   5.214526
    26  P    7.095202   3.008388   3.846859   4.840151   3.400105
    27  O    6.492281   2.418051   3.181339   4.148698   2.441492
    28  O    6.581181   3.172117   3.348618   4.268051   3.364845
    29  H    5.738353   2.627360   3.225492   4.197457   3.468058
    30  O    8.557688   4.549206   4.787768   5.607629   4.226727
    31  H    9.036530   5.112037   5.434682   6.257104   5.025436
    32  O    7.570583   3.458484   5.137081   6.195598   4.768626
    33  H    6.813150   2.891312   5.058746   6.154111   4.822282
                   11         12         13         14         15
    11  H    0.000000
    12  N    4.063671   0.000000
    13  C    5.285932   1.463322   0.000000
    14  H    6.145105   2.104241   1.112309   0.000000
    15  H    5.421969   2.115793   1.124213   1.794844   0.000000
    16  C    5.712362   2.472314   1.544997   2.202846   2.209336
    17  H    6.751931   3.267285   2.176727   2.311420   2.872047
    18  H    5.239984   2.482289   2.193824   2.859607   3.031247
    19  C    5.954032   3.471902   2.555077   3.372803   2.574629
    20  H    6.588895   4.364165   3.510757   4.232096   3.660372
    21  H    6.708595   4.012840   2.836544   3.464960   2.517852
    22  S    4.732118   3.585953   3.273099   4.340531   3.010974
    23  O    5.513361   4.966836   4.634296   5.666267   4.396216
    24  O    3.369361   2.825705   3.147582   4.246398   3.212533
    25  O    4.973124   3.737534   3.344853   4.319582   2.608514
    26  P    3.402269   5.124643   5.675869   6.634886   5.129882
    27  O    3.179735   4.546965   5.260509   6.072806   4.742265
    28  O    2.525477   4.872130   5.556845   6.603098   5.282033
    29  H    2.484652   4.054971   4.668591   5.742577   4.484488
    30  O    4.242495   6.657495   7.266639   8.217415   6.710802
    31  H    4.729688   7.151386   7.666167   8.673651   7.113412
    32  O    4.704771   5.477499   5.623152   6.585528   4.875514
    33  H    4.716765   4.707783   4.671754   5.634332   3.893357
                   16         17         18         19         20
    16  C    0.000000
    17  H    1.108784   0.000000
    18  H    1.113740   1.764864   0.000000
    19  C    1.518792   2.158583   2.164376   0.000000
    20  H    2.165712   2.470987   2.496282   1.106818   0.000000
    21  H    2.177718   2.515285   3.094180   1.105286   1.757524
    22  S    2.808830   3.776186   3.036521   1.819592   2.401429
    23  O    3.872026   4.683278   3.967573   2.614120   2.604659
    24  O    2.923481   4.012448   2.700673   2.679205   3.265814
    25  O    3.477151   4.398463   4.004521   2.611521   3.461816
    26  P    6.184894   7.266287   6.258830   5.729235   6.479965
    27  O    6.100907   7.144620   6.213246   5.963194   6.863911
    28  O    5.759549   6.865630   5.574402   5.342997   5.916498
    29  H    4.756469   5.859433   4.549231   4.373412   4.940799
    30  O    7.746559   8.833361   7.769145   7.221966   7.897280
    31  H    7.960399   9.041012   7.961385   7.275417   7.832982
    32  O    5.988157   6.999199   6.274430   5.212194   5.920491
    33  H    4.994643   5.973716   5.375404   4.190392   4.950773
                   21         22         23         24         25
    21  H    0.000000
    22  S    2.399731   0.000000
    23  O    3.113030   1.452354   0.000000
    24  O    3.512096   1.502087   2.506146   0.000000
    25  O    2.617097   1.500662   2.517269   2.409619   0.000000
    26  P    6.028939   4.084414   4.651822   3.718162   3.469077
    27  O    6.227525   4.591439   5.503167   4.026274   3.833802
    28  O    5.907932   3.629550   4.010039   2.918236   3.646352
    29  H    5.017954   2.723429   3.253460   1.884034   2.991097
    30  O    7.510038   5.500497   5.811392   5.149603   4.921707
    31  H    7.575331   5.487119   5.534049   5.276230   5.042771
    32  O    5.287005   3.604177   3.982593   3.852674   2.698766
    33  H    4.217418   2.702543   3.286194   3.170622   1.627501
                   26         27         28         29         30
    26  P    0.000000
    27  O    1.465369   0.000000
    28  O    1.600043   2.552231   0.000000
    29  H    2.195911   2.889332   1.037864   0.000000
    30  O    1.593410   2.523303   2.472092   3.404318   0.000000
    31  H    2.137825   3.379226   2.598461   3.518266   1.033424
    32  O    1.572200   2.604979   2.572293   2.802795   2.487748
    33  H    2.182960   2.880029   2.850690   2.672360   3.450689
                   31         32         33
    31  H    0.000000
    32  O    2.574257   0.000000
    33  H    3.569841   1.082847   0.000000
 Stoichiometry    C7H15N2O7PS
 Framework group  C1[X(C7H15N2O7PS)]
 Deg. of freedom    93
 Full point group                 C1      NOp   1
 Largest Abelian subgroup         C1      NOp   1
 Largest concise Abelian subgroup C1      NOp   1
                         Standard orientation:                         
 ---------------------------------------------------------------------
 Center     Atomic      Atomic             Coordinates (Angstroms)
 Number     Number       Type             X           Y           Z
 ---------------------------------------------------------------------
      1          6           0       -1.950135    2.985837   -0.608474
      2          6           0       -2.890096    2.149698   -0.024729
      3          6           0       -0.837475    1.379978    0.517573
      4          7           0       -0.688027    2.497755   -0.256497
      5          1           0       -2.087923    3.852415   -1.226014
      6          1           0       -3.961522    2.183915   -0.059724
      7          1           0       -0.040296    0.775550    0.978258
      8          6           0        0.571723    3.051126   -0.719182
      9          1           0        0.435589    4.048120   -1.165044
     10          1           0        1.304653    3.134713    0.115128
     11          1           0        1.030627    2.379612   -1.485905
     12          7           0       -2.185650    1.171948    0.684471
     13          6           0       -2.781264   -0.027852    1.273566
     14          1           0       -3.616221    0.277563    1.941996
     15          1           0       -2.016269   -0.535598    1.922281
     16          6           0       -3.281067   -0.983183    0.166970
     17          1           0       -4.327196   -1.277608    0.386805
     18          1           0       -3.328373   -0.448496   -0.808883
     19          6           0       -2.423320   -2.228599    0.025765
     20          1           0       -2.845925   -2.896973   -0.748655
     21          1           0       -2.427344   -2.824341    0.956749
     22         16           0       -0.688867   -1.896427   -0.412696
     23          8           0       -0.304763   -2.966883   -1.315977
     24          8           0       -0.633561   -0.505591   -0.977303
     25          8           0        0.001279   -1.849885    0.919039
     26         15           0        2.808528    0.090642    0.295981
     27          8           0        2.337025    1.181161    1.153745
     28          8           0        2.199932    0.161853   -1.182084
     29          1           0        1.190840   -0.080808   -1.179049
     30          8           0        4.368840    0.225542    0.002408
     31          1           0        4.629799   -0.562266   -0.613404
     32          8           0        2.657591   -1.382803    0.823227
     33          1           0        1.608292   -1.599706    0.979698
 ---------------------------------------------------------------------
 Rotational constants (GHZ):           0.4609023           0.3039524           0.2103915
 Leave Link  202 at Sun Dec 11 19:36:53 2022, MaxMem=  6710886400 cpu:               0.1 elap:               0.0
 (Enter /data0/home/software/g16/l301.exe)
 Standard basis: 6-311+G(2d,p) (5D, 7F)
 Ernie: Thresh=  0.10000D-02 Tol=  0.10000D-05 Strict=F.
 There are   628 symmetry adapted cartesian basis functions of A   symmetry.
 There are   592 symmetry adapted basis functions of A   symmetry.
   592 basis functions,   904 primitive gaussians,   628 cartesian basis functions
    79 alpha electrons       79 beta electrons
       nuclear repulsion energy      1915.3915470585 Hartrees.
 IExCor=  402 DFT=T Ex+Corr=B3LYP ExCW=0 ScaHFX=  0.200000
 ScaDFX=  0.800000  0.720000  1.000000  0.810000 ScalE2=  1.000000  1.000000
 IRadAn=      5 IRanWt=     -1 IRanGd=            0 ICorTp=0 IEmpDi=  4
 NAtoms=   33 NActive=   33 NUniq=   33 SFac= 1.00D+00 NAtFMM=   60 NAOKFM=F Big=F
 Integral buffers will be    131072 words long.
 Raffenetti 2 integral format.
 Two-electron integral symmetry is turned on.
 ------------------------------------------------------------------------------
 Polarizable Continuum Model (PCM)
 =================================
 Model                : PCM.
 Atomic radii         : SMD-Coulomb.
 Polarization charges : Total charges.
 Charge compensation  : None.
 Solution method      : On-the-fly selection.
 Cavity type          : VdW (van der Waals Surface) (Alpha=1.000).
 Cavity algorithm     : GePol (No added spheres)
                        Default sphere list used, NSphG=   33.
                        Lebedev-Laikov grids with approx.  5.0 points / Ang**2.
                        Smoothing algorithm: York/Karplus (Gamma=1.0000).
                        Polarization charges: spherical gaussians, with
                                              point-specific exponents (IZeta= 3).
                        Self-potential: point-specific (ISelfS= 7).
                        Self-field    : sphere-specific E.n sum rule (ISelfD= 2).
 1st derivatives      : Analytical E(r).r(x)/FMM algorithm (CHGder, D1EAlg=3).
                        Cavity 1st derivative terms included.
 Solvent              : Water, Eps=  78.355300 Eps(inf)=   1.777849
 ------------------------------------------------------------------------------
 GePol: Number of generator spheres                  =      33
 GePol: Total number of spheres                      =      33
 GePol: Number of exposed spheres                    =      33 (100.00%)
 GePol: Number of points                             =    2282
 GePol: Average weight of points                     =       0.12
 GePol: Minimum weight of points                     =   0.12D-09
 GePol: Maximum weight of points                     =    0.21991
 GePol: Number of points with low weight             =     162
 GePol: Fraction of low-weight points (<1% of avg)   =       7.10%
 GePol: Cavity surface area                          =    271.220 Ang**2
 GePol: Cavity volume                                =    260.696 Ang**3
 ------------------------------------------------------------------------------
 Atomic radii for non-electrostatic terms: SMD-CDS.
 ------------------------------------------------------------------------------
 PCM non-electrostatic energy =         0.0128987987 Hartrees.
 Nuclear repulsion after PCM non-electrostatic terms =     1915.4044458572 Hartrees.
 Leave Link  301 at Sun Dec 11 19:36:54 2022, MaxMem=  6710886400 cpu:               1.9 elap:               0.1
 (Enter /data0/home/software/g16/l302.exe)
 NPDir=0 NMtPBC=     1 NCelOv=     1 NCel=       1 NClECP=     1 NCelD=      1
         NCelK=      1 NCelE2=     1 NClLst=     1 CellRange=     0.0.
 One-electron integrals computed using PRISM.
 One-electron integral symmetry used in STVInt
 NBasis=   592 RedAO= T EigKep=  1.14D-05  NBF=   592
 NBsUse=   592 1.00D-06 EigRej= -1.00D+00 NBFU=   592
 Precomputing XC quadrature grid using
 IXCGrd= 4 IRadAn=           5 IRanWt=          -1 IRanGd=           0 AccXCQ= 0.00D+00.
 Generated NRdTot=       0 NPtTot=           0 NUsed=           0 NTot=          32
 NSgBfM=   628   628   628   628   628 MxSgAt=    33 MxSgA2=    33.
 Leave Link  302 at Sun Dec 11 19:36:54 2022, MaxMem=  6710886400 cpu:              15.8 elap:               0.7
 (Enter /data0/home/software/g16/l303.exe)
 DipDrv:  MaxL=1.
 Leave Link  303 at Sun Dec 11 19:36:54 2022, MaxMem=  6710886400 cpu:               1.5 elap:               0.1
 (Enter /data0/home/software/g16/l401.exe)
 ExpMin= 3.48D-02 ExpMax= 9.34D+04 ExpMxC= 3.17D+03 IAcc=3 IRadAn=         5 AccDes= 0.00D+00
 Harris functional with IExCor=  402 and IRadAn=       5 diagonalized for initial guess.
 HarFok:  IExCor=  402 AccDes= 0.00D+00 IRadAn=         5 IDoV= 1 UseB2=F ITyADJ=14
 ICtDFT=  3500011 ScaDFX=  1.000000  1.000000  1.000000  1.000000
 FoFCou: FMM=F IPFlag=           0 FMFlag=      100000 FMFlg1=           0
         NFxFlg=           0 DoJE=T BraDBF=F KetDBF=T FulRan=T
         wScrn=  0.000000 ICntrl=       500 IOpCl=  0 I1Cent=   200000004 NGrid=           0
         NMat0=    1 NMatS0=      1 NMatT0=    0 NMatD0=    1 NMtDS0=    0 NMtDT0=    0
 Petite list used in FoFCou.
 Harris En= -1651.92877531029    
 JPrj=0 DoOrth=F DoCkMO=F.
 Leave Link  401 at Sun Dec 11 19:36:57 2022, MaxMem=  6710886400 cpu:              59.8 elap:               2.5
 (Enter /data0/home/software/g16/l502.exe)
 Integral symmetry usage will be decided dynamically.
 Closed shell SCF:
 Using DIIS extrapolation, IDIIS=  1040.
 NGot=  6710886400 LenX=  6710076805 LenY=  6709681793
 Requested convergence on RMS density matrix=1.00D-08 within 128 cycles.
 Requested convergence on MAX density matrix=1.00D-06.
 Requested convergence on             energy=1.00D-06.
 No special actions if energy rises.
 Fock matrices will be formed incrementally for  20 cycles.

 Cycle   1  Pass 1  IDiag  1:
 FoFJK:  IHMeth= 1 ICntrl=       0 DoSepK=F KAlg= 0 I1Cent=           0 FoldK=F
 IRaf= 840000000 NMat=       1 IRICut=       1 DoRegI=T DoRafI=F ISym2E= 0 IDoP0=0 IntGTp=1.
 FoFCou: FMM=F IPFlag=           0 FMFlag=      100000 FMFlg1=           0
         NFxFlg=           0 DoJE=F BraDBF=F KetDBF=F FulRan=T
         wScrn=  0.000000 ICntrl=         0 IOpCl=  0 I1Cent=           0 NGrid=           0
         NMat0=    1 NMatS0=      1 NMatT0=    0 NMatD0=    1 NMtDS0=    0 NMtDT0=    0
 Symmetry not used in FoFCou.
 Inv3:  Mode=1 IEnd=    15622572.
 Iteration    1 A*A^-1 deviation from unit magnitude is 8.77D-15 for    755.
 Iteration    1 A*A^-1 deviation from orthogonality  is 6.65D-15 for   1620    755.
 Iteration    1 A^-1*A deviation from unit magnitude is 7.22D-15 for    152.
 Iteration    1 A^-1*A deviation from orthogonality  is 2.37D-15 for   1620    755.
 E= -1651.14003779389    
 DIIS: error= 3.13D-02 at cycle   1 NSaved=   1.
 NSaved= 1 IEnMin= 1 EnMin= -1651.14003779389     IErMin= 1 ErrMin= 3.13D-02
 ErrMax= 3.13D-02  0.00D+00 EMaxC= 1.00D-01 BMatC= 1.16D+00 BMatP= 1.16D+00
 IDIUse=3 WtCom= 6.87D-01 WtEn= 3.13D-01
 Coeff-Com:  0.100D+01
 Coeff-En:   0.100D+01
 Coeff:      0.100D+01
 Gap=     0.200 Goal=   None    Shift=    0.000
 GapD=    0.200 DampG=1.000 DampE=0.500 DampFc=0.5000 IDamp=-1.
 Damping current iteration by 5.00D-01
 RMSDP=3.83D-03 MaxDP=3.17D-01              OVMax= 2.83D-01

 Cycle   2  Pass 1  IDiag  1:
 RMSU=  1.90D-03    CP:  9.75D-01
 E= -1651.33888758231     Delta-E=       -0.198849788415 Rises=F Damp=T
 DIIS: error= 7.85D-03 at cycle   2 NSaved=   2.
 NSaved= 2 IEnMin= 2 EnMin= -1651.33888758231     IErMin= 2 ErrMin= 7.85D-03
 ErrMax= 7.85D-03  0.00D+00 EMaxC= 1.00D-01 BMatC= 1.15D-01 BMatP= 1.16D+00
 IDIUse=3 WtCom= 9.22D-01 WtEn= 7.85D-02
 Coeff-Com:  0.200D+00 0.800D+00
 Coeff-En:   0.360D+00 0.640D+00
 Coeff:      0.212D+00 0.788D+00
 Gap=     0.287 Goal=   None    Shift=    0.000
 RMSDP=1.18D-03 MaxDP=2.01D-01 DE=-1.99D-01 OVMax= 1.58D-01

 Cycle   3  Pass 1  IDiag  1:
 RMSU=  9.54D-04    CP:  9.47D-01  6.64D-01
 E= -1651.85724682420     Delta-E=       -0.518359241897 Rises=F Damp=F
 DIIS: error= 4.05D-03 at cycle   3 NSaved=   3.
 NSaved= 3 IEnMin= 3 EnMin= -1651.85724682420     IErMin= 3 ErrMin= 4.05D-03
 ErrMax= 4.05D-03  0.00D+00 EMaxC= 1.00D-01 BMatC= 3.21D-02 BMatP= 1.15D-01
 IDIUse=3 WtCom= 9.60D-01 WtEn= 4.05D-02
 Coeff-Com:  0.515D-01 0.365D+00 0.583D+00
 Coeff-En:   0.000D+00 0.000D+00 0.100D+01
 Coeff:      0.494D-01 0.351D+00 0.600D+00
 Gap=     0.229 Goal=   None    Shift=    0.000
 RMSDP=4.02D-04 MaxDP=2.40D-02 DE=-5.18D-01 OVMax= 4.02D-02

 Cycle   4  Pass 1  IDiag  1:
 RMSU=  3.75D-04    CP:  9.47D-01  7.15D-01  8.90D-01
 E= -1651.87630583237     Delta-E=       -0.019059008162 Rises=F Damp=F
 DIIS: error= 2.41D-03 at cycle   4 NSaved=   4.
 NSaved= 4 IEnMin= 4 EnMin= -1651.87630583237     IErMin= 4 ErrMin= 2.41D-03
 ErrMax= 2.41D-03  0.00D+00 EMaxC= 1.00D-01 BMatC= 8.73D-03 BMatP= 3.21D-02
 IDIUse=3 WtCom= 9.76D-01 WtEn= 2.41D-02
 Coeff-Com: -0.609D-02 0.876D-01 0.360D+00 0.559D+00
 Coeff-En:   0.000D+00 0.000D+00 0.206D+00 0.794D+00
 Coeff:     -0.594D-02 0.855D-01 0.356D+00 0.565D+00
 Gap=     0.227 Goal=   None    Shift=    0.000
 RMSDP=1.51D-04 MaxDP=7.23D-03 DE=-1.91D-02 OVMax= 1.43D-02

 Cycle   5  Pass 1  IDiag  1:
 RMSU=  9.45D-05    CP:  9.46D-01  7.14D-01  9.30D-01  7.05D-01
 E= -1651.88242563365     Delta-E=       -0.006119801281 Rises=F Damp=F
 DIIS: error= 5.21D-04 at cycle   5 NSaved=   5.
 NSaved= 5 IEnMin= 5 EnMin= -1651.88242563365     IErMin= 5 ErrMin= 5.21D-04
 ErrMax= 5.21D-04  0.00D+00 EMaxC= 1.00D-01 BMatC= 4.70D-04 BMatP= 8.73D-03
 IDIUse=3 WtCom= 9.95D-01 WtEn= 5.21D-03
 Coeff-Com: -0.597D-02 0.211D-01 0.141D+00 0.289D+00 0.555D+00
 Coeff-En:   0.000D+00 0.000D+00 0.000D+00 0.000D+00 0.100D+01
 Coeff:     -0.594D-02 0.210D-01 0.141D+00 0.288D+00 0.557D+00
 Gap=     0.227 Goal=   None    Shift=    0.000
 RMSDP=4.23D-05 MaxDP=2.80D-03 DE=-6.12D-03 OVMax= 3.33D-03

 Cycle   6  Pass 1  IDiag  1:
 RMSU=  3.30D-05    CP:  9.45D-01  7.16D-01  9.42D-01  7.22D-01  7.85D-01
 E= -1651.88275628163     Delta-E=       -0.000330647978 Rises=F Damp=F
 DIIS: error= 1.37D-04 at cycle   6 NSaved=   6.
 NSaved= 6 IEnMin= 6 EnMin= -1651.88275628163     IErMin= 6 ErrMin= 1.37D-04
 ErrMax= 1.37D-04  0.00D+00 EMaxC= 1.00D-01 BMatC= 4.32D-05 BMatP= 4.70D-04
 IDIUse=3 WtCom= 9.99D-01 WtEn= 1.37D-03
 Coeff-Com: -0.236D-02 0.374D-02 0.432D-01 0.102D+00 0.296D+00 0.558D+00
 Coeff-En:   0.000D+00 0.000D+00 0.000D+00 0.000D+00 0.000D+00 0.100D+01
 Coeff:     -0.236D-02 0.374D-02 0.432D-01 0.101D+00 0.296D+00 0.558D+00
 Gap=     0.227 Goal=   None    Shift=    0.000
 RMSDP=1.44D-05 MaxDP=7.74D-04 DE=-3.31D-04 OVMax= 9.73D-04

 Cycle   7  Pass 1  IDiag  1:
 RMSU=  9.78D-06    CP:  9.45D-01  7.16D-01  9.42D-01  7.32D-01  7.96D-01
                    CP:  6.99D-01
 E= -1651.88278745435     Delta-E=       -0.000031172724 Rises=F Damp=F
 DIIS: error= 5.04D-05 at cycle   7 NSaved=   7.
 NSaved= 7 IEnMin= 7 EnMin= -1651.88278745435     IErMin= 7 ErrMin= 5.04D-05
 ErrMax= 5.04D-05  0.00D+00 EMaxC= 1.00D-01 BMatC= 4.73D-06 BMatP= 4.32D-05
 IDIUse=1 WtCom= 1.00D+00 WtEn= 0.00D+00
 Coeff-Com: -0.748D-03 0.320D-03 0.129D-01 0.338D-01 0.126D+00 0.317D+00
 Coeff-Com:  0.510D+00
 Coeff:     -0.748D-03 0.320D-03 0.129D-01 0.338D-01 0.126D+00 0.317D+00
 Coeff:      0.510D+00
 Gap=     0.227 Goal=   None    Shift=    0.000
 RMSDP=4.24D-06 MaxDP=2.85D-04 DE=-3.12D-05 OVMax= 3.52D-04

 Cycle   8  Pass 1  IDiag  1:
 RMSU=  2.96D-06    CP:  9.45D-01  7.16D-01  9.43D-01  7.33D-01  7.97D-01
                    CP:  7.16D-01  7.18D-01
 E= -1651.88279079640     Delta-E=       -0.000003342052 Rises=F Damp=F
 DIIS: error= 1.28D-05 at cycle   8 NSaved=   8.
 NSaved= 8 IEnMin= 8 EnMin= -1651.88279079640     IErMin= 8 ErrMin= 1.28D-05
 ErrMax= 1.28D-05  0.00D+00 EMaxC= 1.00D-01 BMatC= 2.82D-07 BMatP= 4.73D-06
 IDIUse=1 WtCom= 1.00D+00 WtEn= 0.00D+00
 Coeff-Com: -0.890D-04-0.226D-03 0.191D-02 0.594D-02 0.320D-01 0.931D-01
 Coeff-Com:  0.243D+00 0.624D+00
 Coeff:     -0.890D-04-0.226D-03 0.191D-02 0.594D-02 0.320D-01 0.931D-01
 Coeff:      0.243D+00 0.624D+00
 Gap=     0.227 Goal=   None    Shift=    0.000
 RMSDP=1.38D-06 MaxDP=9.21D-05 DE=-3.34D-06 OVMax= 1.02D-04

 Cycle   9  Pass 1  IDiag  1:
 RMSU=  1.01D-06    CP:  9.45D-01  7.16D-01  9.43D-01  7.32D-01  8.03D-01
                    CP:  7.22D-01  7.17D-01  7.95D-01
 E= -1651.88279096454     Delta-E=       -0.000000168141 Rises=F Damp=F
 DIIS: error= 5.04D-06 at cycle   9 NSaved=   9.
 NSaved= 9 IEnMin= 9 EnMin= -1651.88279096454     IErMin= 9 ErrMin= 5.04D-06
 ErrMax= 5.04D-06  0.00D+00 EMaxC= 1.00D-01 BMatC= 5.07D-08 BMatP= 2.82D-07
 IDIUse=1 WtCom= 1.00D+00 WtEn= 0.00D+00
 Coeff-Com:  0.260D-04-0.154D-03-0.241D-03-0.833D-04 0.540D-02 0.191D-01
 Coeff-Com:  0.847D-01 0.356D+00 0.536D+00
 Coeff:      0.260D-04-0.154D-03-0.241D-03-0.833D-04 0.540D-02 0.191D-01
 Coeff:      0.847D-01 0.356D+00 0.536D+00
 Gap=     0.227 Goal=   None    Shift=    0.000
 RMSDP=4.65D-07 MaxDP=2.70D-05 DE=-1.68D-07 OVMax= 3.68D-05

 Cycle  10  Pass 1  IDiag  1:
 RMSU=  3.30D-07    CP:  9.45D-01  7.16D-01  9.43D-01  7.32D-01  8.03D-01
                    CP:  7.24D-01  7.29D-01  8.31D-01  7.58D-01
 E= -1651.88279100156     Delta-E=       -0.000000037016 Rises=F Damp=F
 DIIS: error= 1.76D-06 at cycle  10 NSaved=  10.
 NSaved=10 IEnMin=10 EnMin= -1651.88279100156     IErMin=10 ErrMin= 1.76D-06
 ErrMax= 1.76D-06  0.00D+00 EMaxC= 1.00D-01 BMatC= 5.38D-09 BMatP= 5.07D-08
 IDIUse=1 WtCom= 1.00D+00 WtEn= 0.00D+00
 Coeff-Com:  0.195D-04-0.654D-04-0.307D-03-0.539D-03 0.304D-03 0.247D-02
 Coeff-Com:  0.256D-01 0.140D+00 0.303D+00 0.529D+00
 Coeff:      0.195D-04-0.654D-04-0.307D-03-0.539D-03 0.304D-03 0.247D-02
 Coeff:      0.256D-01 0.140D+00 0.303D+00 0.529D+00
 Gap=     0.227 Goal=   None    Shift=    0.000
 RMSDP=1.53D-07 MaxDP=9.17D-06 DE=-3.70D-08 OVMax= 1.25D-05

 Cycle  11  Pass 1  IDiag  1:
 RMSU=  1.03D-07    CP:  9.45D-01  7.16D-01  9.43D-01  7.32D-01  8.03D-01
                    CP:  7.24D-01  7.34D-01  8.43D-01  7.92D-01  7.61D-01
 E= -1651.88279100513     Delta-E=       -0.000000003571 Rises=F Damp=F
 DIIS: error= 4.12D-07 at cycle  11 NSaved=  11.
 NSaved=11 IEnMin=11 EnMin= -1651.88279100513     IErMin=11 ErrMin= 4.12D-07
 ErrMax= 4.12D-07  0.00D+00 EMaxC= 1.00D-01 BMatC= 4.95D-10 BMatP= 5.38D-09
 IDIUse=1 WtCom= 1.00D+00 WtEn= 0.00D+00
 Coeff-Com:  0.711D-05-0.138D-04-0.156D-03-0.321D-03-0.679D-03-0.139D-02
 Coeff-Com:  0.274D-02 0.305D-01 0.961D-01 0.280D+00 0.593D+00
 Coeff:      0.711D-05-0.138D-04-0.156D-03-0.321D-03-0.679D-03-0.139D-02
 Coeff:      0.274D-02 0.305D-01 0.961D-01 0.280D+00 0.593D+00
 Gap=     0.227 Goal=   None    Shift=    0.000
 RMSDP=4.46D-08 MaxDP=4.28D-06 DE=-3.57D-09 OVMax= 4.39D-06

 Cycle  12  Pass 1  IDiag  1:
 RMSU=  3.39D-08    CP:  9.45D-01  7.16D-01  9.43D-01  7.32D-01  8.03D-01
                    CP:  7.24D-01  7.34D-01  8.49D-01  7.99D-01  8.04D-01
                    CP:  8.66D-01
 E= -1651.88279100537     Delta-E=       -0.000000000243 Rises=F Damp=F
 DIIS: error= 1.20D-07 at cycle  12 NSaved=  12.
 NSaved=12 IEnMin=12 EnMin= -1651.88279100537     IErMin=12 ErrMin= 1.20D-07
 ErrMax= 1.20D-07  0.00D+00 EMaxC= 1.00D-01 BMatC= 2.67D-11 BMatP= 4.95D-10
 IDIUse=1 WtCom= 1.00D+00 WtEn= 0.00D+00
 Coeff-Com:  0.408D-07 0.157D-05-0.308D-04-0.651D-04-0.284D-03-0.703D-03
 Coeff-Com: -0.132D-02-0.216D-02 0.570D-02 0.507D-01 0.233D+00 0.716D+00
 Coeff:      0.408D-07 0.157D-05-0.308D-04-0.651D-04-0.284D-03-0.703D-03
 Coeff:     -0.132D-02-0.216D-02 0.570D-02 0.507D-01 0.233D+00 0.716D+00
 Gap=     0.227 Goal=   None    Shift=    0.000
 RMSDP=1.40D-08 MaxDP=1.09D-06 DE=-2.43D-10 OVMax= 1.15D-06

 Cycle  13  Pass 1  IDiag  1:
 RMSU=  8.53D-09    CP:  9.45D-01  7.16D-01  9.43D-01  7.32D-01  8.03D-01
                    CP:  7.24D-01  7.34D-01  8.49D-01  8.05D-01  8.17D-01
                    CP:  8.98D-01  8.78D-01
 E= -1651.88279100532     Delta-E=        0.000000000050 Rises=F Damp=F
 DIIS: error= 4.67D-08 at cycle  13 NSaved=  13.
 NSaved=13 IEnMin=12 EnMin= -1651.88279100537     IErMin=13 ErrMin= 4.67D-08
 ErrMax= 4.67D-08  0.00D+00 EMaxC= 1.00D-01 BMatC= 2.95D-12 BMatP= 2.67D-11
 IDIUse=1 WtCom= 1.00D+00 WtEn= 0.00D+00
 Coeff-Com: -0.409D-06 0.147D-05-0.648D-05-0.135D-04-0.941D-04-0.236D-03
 Coeff-Com: -0.716D-03-0.242D-02-0.228D-02 0.825D-02 0.774D-01 0.338D+00
 Coeff-Com:  0.582D+00
 Coeff:     -0.409D-06 0.147D-05-0.648D-05-0.135D-04-0.941D-04-0.236D-03
 Coeff:     -0.716D-03-0.242D-02-0.228D-02 0.825D-02 0.774D-01 0.338D+00
 Coeff:      0.582D+00
 Gap=     0.227 Goal=   None    Shift=    0.000
 RMSDP=4.37D-09 MaxDP=2.80D-07 DE= 5.05D-11 OVMax= 9.43D-07

 Error on total polarization charges =  0.06430
 SCF Done:  E(RB3LYP) =  -1651.88279101     A.U. after   13 cycles
            NFock= 13  Conv=0.44D-08     -V/T= 2.0031
 KE= 1.646710830949D+03 PE=-7.729237695729D+03 EE= 2.515239627918D+03
 SMD-CDS (non-electrostatic) energy       (kcal/mol) =       8.09
 (included in total energy above)
 Leave Link  502 at Sun Dec 11 19:39:09 2022, MaxMem=  6710886400 cpu:            3116.5 elap:             131.7
 (Enter /data0/home/software/g16/l601.exe)
 Copying SCF densities to generalized density rwf, IOpCl= 0 IROHF=0.

 **********************************************************************

            Population analysis using the SCF density.

 **********************************************************************

 Orbital symmetries:
       Occupied  (A) (A) (A) (A) (A) (A) (A) (A) (A) (A) (A) (A)
                 (A) (A) (A) (A) (A) (A) (A) (A) (A) (A) (A) (A)
                 (A) (A) (A) (A) (A) (A) (A) (A) (A) (A) (A) (A)
                 (A) (A) (A) (A) (A) (A) (A) (A) (A) (A) (A) (A)
                 (A) (A) (A) (A) (A) (A) (A) (A) (A) (A) (A) (A)
                 (A) (A) (A) (A) (A) (A) (A) (A) (A) (A) (A) (A)
                 (A) (A) (A) (A) (A) (A) (A)
       Virtual   (A) (A) (A) (A) (A) (A) (A) (A) (A) (A) (A) (A)
                 (A) (A) (A) (A) (A) (A) (A) (A) (A) (A) (A) (A)
                 (A) (A) (A) (A) (A) (A) (A) (A) (A) (A) (A) (A)
                 (A) (A) (A) (A) (A) (A) (A) (A) (A) (A) (A) (A)
                 (A) (A) (A) (A) (A) (A) (A) (A) (A) (A) (A) (A)
                 (A) (A) (A) (A) (A) (A) (A) (A) (A) (A) (A) (A)
                 (A) (A) (A) (A) (A) (A) (A) (A) (A) (A) (A) (A)
                 (A) (A) (A) (A) (A) (A) (A) (A) (A) (A) (A) (A)
                 (A) (A) (A) (A) (A) (A) (A) (A) (A) (A) (A) (A)
                 (A) (A) (A) (A) (A) (A) (A) (A) (A) (A) (A) (A)
                 (A) (A) (A) (A) (A) (A) (A) (A) (A) (A) (A) (A)
                 (A) (A) (A) (A) (A) (A) (A) (A) (A) (A) (A) (A)
                 (A) (A) (A) (A) (A) (A) (A) (A) (A) (A) (A) (A)
                 (A) (A) (A) (A) (A) (A) (A) (A) (A) (A) (A) (A)
                 (A) (A) (A) (A) (A) (A) (A) (A) (A) (A) (A) (A)
                 (A) (A) (A) (A) (A) (A) (A) (A) (A) (A) (A) (A)
                 (A) (A) (A) (A) (A) (A) (A) (A) (A) (A) (A) (A)
                 (A) (A) (A) (A) (A) (A) (A) (A) (A) (A) (A) (A)
                 (A) (A) (A) (A) (A) (A) (A) (A) (A) (A) (A) (A)
                 (A) (A) (A) (A) (A) (A) (A) (A) (A) (A) (A) (A)
                 (A) (A) (A) (A) (A) (A) (A) (A) (A) (A) (A) (A)
                 (A) (A) (A) (A) (A) (A) (A) (A) (A) (A) (A) (A)
                 (A) (A) (A) (A) (A) (A) (A) (A) (A) (A) (A) (A)
                 (A) (A) (A) (A) (A) (A) (A) (A) (A) (A) (A) (A)
                 (A) (A) (A) (A) (A) (A) (A) (A) (A) (A) (A) (A)
                 (A) (A) (A) (A) (A) (A) (A) (A) (A) (A) (A) (A)
                 (A) (A) (A) (A) (A) (A) (A) (A) (A) (A) (A) (A)
                 (A) (A) (A) (A) (A) (A) (A) (A) (A) (A) (A) (A)
                 (A) (A) (A) (A) (A) (A) (A) (A) (A) (A) (A) (A)
                 (A) (A) (A) (A) (A) (A) (A) (A) (A) (A) (A) (A)
                 (A) (A) (A) (A) (A) (A) (A) (A) (A) (A) (A) (A)
                 (A) (A) (A) (A) (A) (A) (A) (A) (A) (A) (A) (A)
                 (A) (A) (A) (A) (A) (A) (A) (A) (A) (A) (A) (A)
                 (A) (A) (A) (A) (A) (A) (A) (A) (A) (A) (A) (A)
                 (A) (A) (A) (A) (A) (A) (A) (A) (A) (A) (A) (A)
                 (A) (A) (A) (A) (A) (A) (A) (A) (A) (A) (A) (A)
                 (A) (A) (A) (A) (A) (A) (A) (A) (A) (A) (A) (A)
                 (A) (A) (A) (A) (A) (A) (A) (A) (A) (A) (A) (A)
                 (A) (A) (A) (A) (A) (A) (A) (A) (A) (A) (A) (A)
                 (A) (A) (A) (A) (A) (A) (A) (A) (A) (A) (A) (A)
                 (A) (A) (A) (A) (A) (A) (A) (A) (A) (A) (A) (A)
                 (A) (A) (A) (A) (A) (A) (A) (A) (A) (A) (A) (A)
                 (A) (A) (A) (A) (A) (A) (A) (A) (A)
 The electronic state is 1-A.
 Alpha  occ. eigenvalues --  -89.05553 -77.18684 -19.16641 -19.15386 -19.15321
 Alpha  occ. eigenvalues --  -19.12080 -19.12000 -19.11601 -19.09490 -14.40596
 Alpha  occ. eigenvalues --  -14.40116 -10.27515 -10.22524 -10.22483 -10.22436
 Alpha  occ. eigenvalues --  -10.21024 -10.19790 -10.18478  -8.11206  -6.66597
 Alpha  occ. eigenvalues --   -6.07538  -6.07495  -6.07367  -4.82906  -4.82829
 Alpha  occ. eigenvalues --   -4.82645  -1.13500  -1.10201  -1.05591  -1.02885
 Alpha  occ. eigenvalues --   -1.02346  -1.01067  -0.99002  -0.98237  -0.95063
 Alpha  occ. eigenvalues --   -0.81495  -0.78501  -0.75279  -0.70717  -0.65726
 Alpha  occ. eigenvalues --   -0.63049  -0.62139  -0.60571  -0.58244  -0.55780
 Alpha  occ. eigenvalues --   -0.55141  -0.54562  -0.51657  -0.49700  -0.49464
 Alpha  occ. eigenvalues --   -0.48719  -0.48087  -0.47781  -0.46804  -0.46505
 Alpha  occ. eigenvalues --   -0.45564  -0.44813  -0.43356  -0.42659  -0.42128
 Alpha  occ. eigenvalues --   -0.41920  -0.41443  -0.40037  -0.38383  -0.37822
 Alpha  occ. eigenvalues --   -0.37482  -0.36998  -0.36739  -0.36154  -0.35809
 Alpha  occ. eigenvalues --   -0.34989  -0.32846  -0.32615  -0.31844  -0.30778
 Alpha  occ. eigenvalues --   -0.30605  -0.29592  -0.29021  -0.25330
 Alpha virt. eigenvalues --   -0.02604  -0.00767  -0.00096   0.01016   0.01950
 Alpha virt. eigenvalues --    0.02680   0.02756   0.03442   0.04033   0.04398
 Alpha virt. eigenvalues --    0.05060   0.05190   0.05645   0.06360   0.06440
 Alpha virt. eigenvalues --    0.06986   0.07355   0.07592   0.08421   0.08606
 Alpha virt. eigenvalues --    0.09023   0.09137   0.09448   0.09885   0.10140
 Alpha virt. eigenvalues --    0.10573   0.10693   0.11489   0.11879   0.12232
 Alpha virt. eigenvalues --    0.12643   0.13162   0.13597   0.14230   0.14464
 Alpha virt. eigenvalues --    0.14590   0.14805   0.15267   0.15703   0.16188
 Alpha virt. eigenvalues --    0.16439   0.16643   0.17039   0.17471   0.17664
 Alpha virt. eigenvalues --    0.17894   0.18517   0.18733   0.19007   0.19435
 Alpha virt. eigenvalues --    0.19572   0.20210   0.20463   0.20751   0.21550
 Alpha virt. eigenvalues --    0.21579   0.22097   0.22364   0.22630   0.22887
 Alpha virt. eigenvalues --    0.23279   0.23845   0.24133   0.24258   0.24428
 Alpha virt. eigenvalues --    0.24986   0.25213   0.25675   0.26130   0.26331
 Alpha virt. eigenvalues --    0.26908   0.27609   0.28087   0.28180   0.28342
 Alpha virt. eigenvalues --    0.28937   0.29117   0.29578   0.29869   0.30255
 Alpha virt. eigenvalues --    0.30433   0.30927   0.31590   0.31989   0.32699
 Alpha virt. eigenvalues --    0.32900   0.33004   0.33144   0.34285   0.34813
 Alpha virt. eigenvalues --    0.35253   0.35594   0.36116   0.37019   0.37169
 Alpha virt. eigenvalues --    0.37624   0.38286   0.38854   0.39326   0.39701
 Alpha virt. eigenvalues --    0.40240   0.40808   0.41322   0.41747   0.41933
 Alpha virt. eigenvalues --    0.42628   0.43110   0.43848   0.44448   0.45818
 Alpha virt. eigenvalues --    0.46560   0.47749   0.48534   0.48966   0.49310
 Alpha virt. eigenvalues --    0.50202   0.51252   0.51752   0.52606   0.53067
 Alpha virt. eigenvalues --    0.54240   0.55004   0.55889   0.56226   0.56641
 Alpha virt. eigenvalues --    0.58503   0.58920   0.59913   0.60599   0.61434
 Alpha virt. eigenvalues --    0.61899   0.62505   0.63129   0.64026   0.64737
 Alpha virt. eigenvalues --    0.65438   0.66055   0.66522   0.67242   0.67485
 Alpha virt. eigenvalues --    0.68146   0.69089   0.70235   0.70940   0.71779
 Alpha virt. eigenvalues --    0.72639   0.73108   0.73596   0.74099   0.74267
 Alpha virt. eigenvalues --    0.75156   0.75831   0.76211   0.76829   0.77951
 Alpha virt. eigenvalues --    0.78287   0.79920   0.80026   0.80991   0.81803
 Alpha virt. eigenvalues --    0.82147   0.82891   0.84029   0.85570   0.86616
 Alpha virt. eigenvalues --    0.87786   0.88469   0.89925   0.90620   0.91660
 Alpha virt. eigenvalues --    0.93603   0.93887   0.94370   0.95950   0.96733
 Alpha virt. eigenvalues --    0.99456   1.00456   1.00945   1.02021   1.02517
 Alpha virt. eigenvalues --    1.03235   1.03952   1.04634   1.06146   1.07077
 Alpha virt. eigenvalues --    1.08359   1.08910   1.09969   1.10305   1.10872
 Alpha virt. eigenvalues --    1.11691   1.12353   1.12902   1.14240   1.14928
 Alpha virt. eigenvalues --    1.15799   1.16100   1.16213   1.18020   1.18776
 Alpha virt. eigenvalues --    1.19405   1.19517   1.20409   1.21003   1.21864
 Alpha virt. eigenvalues --    1.22134   1.22977   1.24269   1.24470   1.25195
 Alpha virt. eigenvalues --    1.26033   1.26674   1.27404   1.27725   1.29030
 Alpha virt. eigenvalues --    1.29218   1.29992   1.30712   1.31876   1.32232
 Alpha virt. eigenvalues --    1.32806   1.33745   1.35485   1.35539   1.36873
 Alpha virt. eigenvalues --    1.37480   1.39305   1.39622   1.40368   1.41416
 Alpha virt. eigenvalues --    1.41811   1.42563   1.44294   1.44684   1.46357
 Alpha virt. eigenvalues --    1.46743   1.47818   1.48876   1.49698   1.50472
 Alpha virt. eigenvalues --    1.50692   1.51533   1.51877   1.52308   1.53583
 Alpha virt. eigenvalues --    1.54097   1.55188   1.58006   1.58371   1.59670
 Alpha virt. eigenvalues --    1.59915   1.61863   1.63117   1.64425   1.65887
 Alpha virt. eigenvalues --    1.67274   1.68080   1.68856   1.70641   1.72819
 Alpha virt. eigenvalues --    1.73854   1.74555   1.76319   1.77206   1.78435
 Alpha virt. eigenvalues --    1.78701   1.79625   1.80199   1.80557   1.81461
 Alpha virt. eigenvalues --    1.81960   1.84285   1.84461   1.85423   1.86036
 Alpha virt. eigenvalues --    1.87174   1.88542   1.89916   1.90765   1.91889
 Alpha virt. eigenvalues --    1.92172   1.94684   1.95552   1.97242   1.98252
 Alpha virt. eigenvalues --    1.99175   1.99879   2.01899   2.02811   2.04740
 Alpha virt. eigenvalues --    2.05942   2.06664   2.07779   2.08447   2.09324
 Alpha virt. eigenvalues --    2.10222   2.12248   2.13115   2.14023   2.14423
 Alpha virt. eigenvalues --    2.15646   2.19156   2.20846   2.22351   2.22898
 Alpha virt. eigenvalues --    2.23399   2.23962   2.25198   2.25551   2.26063
 Alpha virt. eigenvalues --    2.27171   2.29665   2.29827   2.31215   2.32065
 Alpha virt. eigenvalues --    2.34781   2.35356   2.35647   2.37717   2.38460
 Alpha virt. eigenvalues --    2.40605   2.40936   2.43016   2.43421   2.46633
 Alpha virt. eigenvalues --    2.48583   2.48694   2.50143   2.51780   2.54298
 Alpha virt. eigenvalues --    2.56465   2.60774   2.63083   2.64896   2.66358
 Alpha virt. eigenvalues --    2.69771   2.71743   2.73865   2.74636   2.76170
 Alpha virt. eigenvalues --    2.77643   2.79568   2.80181   2.81556   2.83331
 Alpha virt. eigenvalues --    2.84636   2.84918   2.85872   2.87803   2.89392
 Alpha virt. eigenvalues --    2.90271   2.91815   2.93322   2.94770   2.96060
 Alpha virt. eigenvalues --    2.97023   2.99213   3.00167   3.02848   3.03777
 Alpha virt. eigenvalues --    3.06519   3.07708   3.10512   3.14265   3.17985
 Alpha virt. eigenvalues --    3.20179   3.24493   3.26050   3.28570   3.28955
 Alpha virt. eigenvalues --    3.31110   3.32901   3.34728   3.36061   3.39009
 Alpha virt. eigenvalues --    3.41109   3.42430   3.45256   3.46412   3.47904
 Alpha virt. eigenvalues --    3.48992   3.50825   3.52614   3.53048   3.55758
 Alpha virt. eigenvalues --    3.57768   3.58564   3.59678   3.60939   3.63042
 Alpha virt. eigenvalues --    3.63970   3.65226   3.66467   3.68318   3.69020
 Alpha virt. eigenvalues --    3.70500   3.73893   3.74512   3.81437   3.82854
 Alpha virt. eigenvalues --    3.88414   3.89134   3.92023   3.93436   3.95569
 Alpha virt. eigenvalues --    4.00169   4.02239   4.05583   4.12484   4.15659
 Alpha virt. eigenvalues --    4.16064   4.20312   4.22100   4.25464   4.40907
 Alpha virt. eigenvalues --    4.52291   4.56429   4.95674   4.96381   4.99589
 Alpha virt. eigenvalues --    5.00095   5.01688   5.02283   5.02625   5.03912
 Alpha virt. eigenvalues --    5.05040   5.05777   5.06467   5.09459   5.10090
 Alpha virt. eigenvalues --    5.12571   5.13127   5.16102   5.16682   5.18329
 Alpha virt. eigenvalues --    5.20216   5.20532   5.22023   5.22605   5.26640
 Alpha virt. eigenvalues --    5.29299   5.36079   5.37238   5.42068   5.43225
 Alpha virt. eigenvalues --    5.48936   5.51930   5.52906   5.57617   5.59184
 Alpha virt. eigenvalues --    5.68749   5.88906   6.73530   6.74609   6.75279
 Alpha virt. eigenvalues --    6.76670   6.77753   6.78513   6.79250   6.81352
 Alpha virt. eigenvalues --    6.82962   6.83446   6.83921   6.86586   6.87580
 Alpha virt. eigenvalues --    6.90424   6.93499   6.94166   6.96027   6.97324
 Alpha virt. eigenvalues --    6.99437   7.01194   7.03233   7.04066   7.05046
 Alpha virt. eigenvalues --    7.07779   7.15517   7.17058   7.21688   7.27960
 Alpha virt. eigenvalues --    7.29654   7.32172   7.34299   7.37406   7.41455
 Alpha virt. eigenvalues --    7.42124   7.45562   7.61549   8.46405  14.10225
 Alpha virt. eigenvalues --   14.11520  14.21653  17.53505  17.59216  17.64221
 Alpha virt. eigenvalues --   23.85451  23.89943  23.93335  23.98031  23.99877
 Alpha virt. eigenvalues --   24.07638  24.11454  35.54389  35.61478  49.91741
 Alpha virt. eigenvalues --   49.94550  49.95543  49.96093  49.99309  50.01277
 Alpha virt. eigenvalues --   50.05712 163.65111 189.62168
          Condensed to atoms (all electrons):
               1          2          3          4          5          6
     1  C    5.542829   0.218254  -0.429108   0.419569   0.412727  -0.042067
     2  C    0.218254   5.400484  -0.156904  -0.055737  -0.028611   0.418177
     3  C   -0.429108  -0.156904   7.131326   0.094944   0.003874   0.004659
     4  N    0.419569  -0.055737   0.094944   6.208383  -0.031648   0.013370
     5  H    0.412727  -0.028611   0.003874  -0.031648   0.456290  -0.001635
     6  H   -0.042067   0.418177   0.004659   0.013370  -0.001635   0.455708
     7  H    0.010961   0.005595   0.365824  -0.023364  -0.000074  -0.000084
     8  C   -0.099719   0.023574  -0.212400   0.341529  -0.006114   0.001035
     9  H   -0.008356   0.009320   0.020075  -0.045221   0.002332  -0.000024
    10  H   -0.007206   0.003495  -0.009434  -0.028108  -0.000006   0.000012
    11  H   -0.004318  -0.001020  -0.022037  -0.013668   0.000129   0.000007
    12  N    0.008194   0.375017   0.014010   0.030720   0.011781  -0.029695
    13  C   -0.054120  -0.056347  -0.267312  -0.032082   0.002490  -0.000242
    14  H    0.000719  -0.019105   0.009386  -0.003775  -0.000010   0.000656
    15  H   -0.000420  -0.000746  -0.008416  -0.000059   0.000009   0.000014
    16  C    0.068622  -0.046484  -0.081279  -0.011290  -0.000697  -0.000542
    17  H    0.000470   0.003398  -0.001872   0.000025   0.000001  -0.000291
    18  H   -0.001807   0.010855  -0.005494  -0.001178   0.000004   0.000292
    19  C   -0.034077   0.019173   0.165800   0.017199   0.000107  -0.000448
    20  H   -0.000096   0.000503  -0.000389  -0.000064   0.000000   0.000001
    21  H   -0.000078   0.000462  -0.001638   0.000050  -0.000000   0.000005
    22  S    0.030559   0.023359  -0.361625   0.028040  -0.000032  -0.000028
    23  O   -0.002075   0.002743  -0.007826   0.002024  -0.000001  -0.000002
    24  O    0.006000   0.021812  -0.058579  -0.006111   0.000078   0.000104
    25  O    0.000327  -0.006975   0.078107  -0.001089   0.000005  -0.000004
    26  P    0.001596  -0.006309   0.000067  -0.004343   0.000057  -0.000027
    27  O   -0.006146   0.007560   0.048321  -0.028022  -0.000005  -0.000001
    28  O   -0.002723   0.002495  -0.002167  -0.009947   0.000006   0.000000
    29  H   -0.000692   0.000128  -0.001074   0.002594  -0.000007  -0.000002
    30  O   -0.000222  -0.000069   0.005366  -0.000756  -0.000000   0.000000
    31  H    0.000013  -0.000022  -0.001444   0.000110   0.000000  -0.000000
    32  O   -0.001167  -0.000039   0.008698  -0.002556  -0.000000   0.000000
    33  H    0.000601   0.000088  -0.007377   0.000774  -0.000000  -0.000000
               7          8          9         10         11         12
     1  C    0.010961  -0.099719  -0.008356  -0.007206  -0.004318   0.008194
     2  C    0.005595   0.023574   0.009320   0.003495  -0.001020   0.375017
     3  C    0.365824  -0.212400   0.020075  -0.009434  -0.022037   0.014010
     4  N   -0.023364   0.341529  -0.045221  -0.028108  -0.013668   0.030720
     5  H   -0.000074  -0.006114   0.002332  -0.000006   0.000129   0.011781
     6  H   -0.000084   0.001035  -0.000024   0.000012   0.000007  -0.029695
     7  H    0.416305   0.004887  -0.000095   0.000658   0.000521  -0.028888
     8  C    0.004887   5.094901   0.384739   0.413208   0.404567  -0.011171
     9  H   -0.000095   0.384739   0.496081  -0.016769  -0.023045  -0.000797
    10  H    0.000658   0.413208  -0.016769   0.486001  -0.031604  -0.001297
    11  H    0.000521   0.404567  -0.023045  -0.031604   0.494305   0.001882
    12  N   -0.028888  -0.011171  -0.000797  -0.001297   0.001882   6.269965
    13  C    0.007289  -0.004166   0.000542  -0.000263  -0.000445   0.214692
    14  H   -0.000056  -0.000741  -0.000002  -0.000005   0.000002  -0.039836
    15  H    0.001503  -0.000370  -0.000001  -0.000008   0.000009  -0.053861
    16  C   -0.002285  -0.007035  -0.000044   0.000123  -0.000133   0.022702
    17  H   -0.000023   0.000057  -0.000000  -0.000000   0.000000  -0.002417
    18  H    0.000179  -0.000509  -0.000001   0.000001   0.000004  -0.004947
    19  C   -0.003580   0.004624   0.000006   0.000028   0.000016  -0.006977
    20  H    0.000008  -0.000019  -0.000000   0.000000  -0.000000  -0.001126
    21  H   -0.000004  -0.000020   0.000000  -0.000000   0.000000   0.001072
    22  S    0.008622   0.006225  -0.000165   0.000117  -0.000048   0.077108
    23  O    0.000421   0.001174   0.000000   0.000012   0.000017  -0.000476
    24  O   -0.011983  -0.001983  -0.000009  -0.000955   0.002570  -0.012449
    25  O   -0.007924   0.000982   0.000001  -0.000053   0.000182  -0.029614
    26  P    0.001118   0.002495   0.001182   0.000005   0.001184  -0.008136
    27  O    0.005828  -0.029733   0.000511   0.002606  -0.000201   0.006246
    28  O   -0.002681   0.005639  -0.000058  -0.001123   0.007508   0.002055
    29  H   -0.000433   0.001896   0.000177   0.000265  -0.001279   0.000855
    30  O    0.000026  -0.003506   0.000001   0.000064  -0.000167  -0.000119
    31  H   -0.000019   0.000703  -0.000001   0.000012   0.000007  -0.000012
    32  O   -0.001140  -0.000023   0.000014   0.000195   0.000160  -0.001126
    33  H    0.001339   0.000025   0.000001  -0.000022  -0.000013   0.001270
              13         14         15         16         17         18
     1  C   -0.054120   0.000719  -0.000420   0.068622   0.000470  -0.001807
     2  C   -0.056347  -0.019105  -0.000746  -0.046484   0.003398   0.010855
     3  C   -0.267312   0.009386  -0.008416  -0.081279  -0.001872  -0.005494
     4  N   -0.032082  -0.003775  -0.000059  -0.011290   0.000025  -0.001178
     5  H    0.002490  -0.000010   0.000009  -0.000697   0.000001   0.000004
     6  H   -0.000242   0.000656   0.000014  -0.000542  -0.000291   0.000292
     7  H    0.007289  -0.000056   0.001503  -0.002285  -0.000023   0.000179
     8  C   -0.004166  -0.000741  -0.000370  -0.007035   0.000057  -0.000509
     9  H    0.000542  -0.000002  -0.000001  -0.000044  -0.000000  -0.000001
    10  H   -0.000263  -0.000005  -0.000008   0.000123  -0.000000   0.000001
    11  H   -0.000445   0.000002   0.000009  -0.000133   0.000000   0.000004
    12  N    0.214692  -0.039836  -0.053861   0.022702  -0.002417  -0.004947
    13  C    6.114105   0.423532   0.481780  -0.308956  -0.015049  -0.054675
    14  H    0.423532   0.515108  -0.021543  -0.045008  -0.010171   0.002077
    15  H    0.481780  -0.021543   0.471470  -0.061762   0.002405   0.003829
    16  C   -0.308956  -0.045008  -0.061762   6.225895   0.395831   0.468953
    17  H   -0.015049  -0.010171   0.002405   0.395831   0.547703  -0.032240
    18  H   -0.054675   0.002077   0.003829   0.468953  -0.032240   0.525840
    19  C   -0.161212   0.012460  -0.012767  -0.405512  -0.027815  -0.063357
    20  H    0.017791  -0.000171   0.000120  -0.069675  -0.004897  -0.004649
    21  H   -0.011858   0.000376   0.001191  -0.041056  -0.005848   0.006371
    22  S    0.048257  -0.003067   0.005968   0.002789   0.005965  -0.005493
    23  O    0.018894  -0.000209  -0.000105  -0.047406  -0.000165  -0.000577
    24  O   -0.033461   0.002211  -0.001813  -0.018645  -0.002241   0.007145
    25  O   -0.026482   0.001290   0.002982   0.016543  -0.000508   0.000895
    26  P    0.002967   0.000065  -0.000035  -0.005991  -0.000021   0.000150
    27  O    0.006216  -0.000011  -0.000210  -0.000192  -0.000000  -0.000004
    28  O   -0.002687  -0.000002  -0.000009  -0.004371   0.000004  -0.000010
    29  H    0.003226  -0.000007  -0.000002   0.005621  -0.000004  -0.000001
    30  O    0.000066  -0.000000   0.000003   0.000121  -0.000000  -0.000000
    31  H   -0.000028   0.000000   0.000000  -0.000008  -0.000000   0.000000
    32  O   -0.000362  -0.000002   0.000006  -0.002606   0.000001  -0.000003
    33  H   -0.000855  -0.000000   0.000061   0.002468   0.000001  -0.000010
              19         20         21         22         23         24
     1  C   -0.034077  -0.000096  -0.000078   0.030559  -0.002075   0.006000
     2  C    0.019173   0.000503   0.000462   0.023359   0.002743   0.021812
     3  C    0.165800  -0.000389  -0.001638  -0.361625  -0.007826  -0.058579
     4  N    0.017199  -0.000064   0.000050   0.028040   0.002024  -0.006111
     5  H    0.000107   0.000000  -0.000000  -0.000032  -0.000001   0.000078
     6  H   -0.000448   0.000001   0.000005  -0.000028  -0.000002   0.000104
     7  H   -0.003580   0.000008  -0.000004   0.008622   0.000421  -0.011983
     8  C    0.004624  -0.000019  -0.000020   0.006225   0.001174  -0.001983
     9  H    0.000006  -0.000000   0.000000  -0.000165   0.000000  -0.000009
    10  H    0.000028   0.000000  -0.000000   0.000117   0.000012  -0.000955
    11  H    0.000016  -0.000000   0.000000  -0.000048   0.000017   0.002570
    12  N   -0.006977  -0.001126   0.001072   0.077108  -0.000476  -0.012449
    13  C   -0.161212   0.017791  -0.011858   0.048257   0.018894  -0.033461
    14  H    0.012460  -0.000171   0.000376  -0.003067  -0.000209   0.002211
    15  H   -0.012767   0.000120   0.001191   0.005968  -0.000105  -0.001813
    16  C   -0.405512  -0.069675  -0.041056   0.002789  -0.047406  -0.018645
    17  H   -0.027815  -0.004897  -0.005848   0.005965  -0.000165  -0.002241
    18  H   -0.063357  -0.004649   0.006371  -0.005493  -0.000577   0.007145
    19  C    6.458338   0.466471   0.422371  -0.167946  -0.036415  -0.050748
    20  H    0.466471   0.485306  -0.028324  -0.070408   0.014872   0.000862
    21  H    0.422371  -0.028324   0.479899  -0.032854  -0.001269   0.000277
    22  S   -0.167946  -0.070408  -0.032854  14.131083   0.409797   0.243498
    23  O   -0.036415   0.014872  -0.001269   0.409797   8.267439  -0.006652
    24  O   -0.050748   0.000862   0.000277   0.243498  -0.006652   8.630399
    25  O   -0.059857  -0.002216   0.010900   0.273473  -0.047837  -0.043860
    26  P    0.001706  -0.000040   0.000140  -0.024912  -0.005321   0.018755
    27  O   -0.002485   0.000001   0.000004  -0.000895  -0.000979   0.001608
    28  O    0.005691  -0.000029  -0.000041   0.002244  -0.008794   0.006546
    29  H    0.000048   0.000026   0.000030   0.032123   0.008855   0.048382
    30  O    0.000025   0.000000  -0.000000  -0.004193   0.000335   0.001165
    31  H    0.000009   0.000000   0.000000  -0.000552   0.000046  -0.000012
    32  O    0.004543  -0.000022   0.000044   0.004600   0.000016  -0.009179
    33  H   -0.001577   0.000007  -0.000095   0.026111   0.003948   0.000444
              25         26         27         28         29         30
     1  C    0.000327   0.001596  -0.006146  -0.002723  -0.000692  -0.000222
     2  C   -0.006975  -0.006309   0.007560   0.002495   0.000128  -0.000069
     3  C    0.078107   0.000067   0.048321  -0.002167  -0.001074   0.005366
     4  N   -0.001089  -0.004343  -0.028022  -0.009947   0.002594  -0.000756
     5  H    0.000005   0.000057  -0.000005   0.000006  -0.000007  -0.000000
[...]
 8,0.00081637,0.00051468,0.00169115,-0.05786359,-0.02950627,-0.03885527
 ,0.00615209,0.00416454,0.01483239,0.05925427,0.00004175,0.00000547,-0.
 00001376,-0.00001939,0.00000426,-0.00000416,0.00007146,-0.00004281,0.0
 0004518,0.00005464,0.00001242,-0.00000040,0.00000193,-0.00000302,-0.00
 000079,0.00000261,-0.00000155,-0.00000278,-0.00043107,0.00004401,0.000
 01200,0.00000208,-0.00001561,0.00002081,-0.00000212,0.00000402,-0.0000
 0576,-0.00000106,-0.00000691,-0.00000544,0.00000364,0.00000609,-0.0000
 0575,0.00006069,0.00001309,-0.00004938,-0.00006490,0.00002176,0.000036
 17,0.00001746,0.00000381,-0.00000032,-0.00000739,0.00003448,0.00005612
 ,0.00006763,-0.00010220,0.00011792,0.00008172,0.00002123,-0.00007903,-
 0.00001514,-0.00004676,-0.00000281,-0.00009104,-0.00036058,0.00009693,
 0.00006921,-0.00002467,-0.00003233,0.00024440,0.00001666,-0.00000574,-
 0.00226122,0.00819982,-0.00234492,-0.00034554,-0.00188108,0.00138216,0
 .00351972,-0.00710549,0.01399223,0.00115037,-0.00174594,0.00191502,-0.
 02919454,-0.12412750,-0.07323823,-0.00191626,0.00660311,-0.00994883,0.
 04071099,0.24924133,0.00006731,-0.00004478,0.00005482,0.00017417,-0.00
 002582,0.00003196,0.00022597,0.00010489,-0.00011136,-0.00000330,-0.000
 10128,0.00012985,0.00000911,-0.00001429,0.00001157,0.00001401,-0.00000
 271,-0.00000416,-0.00118275,0.00011181,-0.00012941,-0.00002399,-0.0000
 0951,0.00000188,0.00000021,0.00000013,-0.00000104,0.00000439,-0.000010
 94,0.00000364,0.00000621,0.00000156,0.00000079,-0.00001670,0.00002219,
 0.00014713,0.00005541,-0.00012005,-0.00026318,-0.00001554,0.00001393,0
 .00004393,0.00002426,-0.00002146,-0.00005681,-0.00020170,0.00009372,-0
 .00038972,-0.00022626,-0.00000688,0.00021593,0.00008722,0.00017789,-0.
 00006370,0.00011200,0.00211045,0.00046756,0.00012916,0.00006071,0.0001
 5438,-0.00092731,0.00000102,-0.00005168,0.00540990,-0.02824049,-0.0037
 4196,0.00081519,0.00787380,-0.00366683,-0.01105673,0.03821385,-0.03907
 204,0.00123259,0.00402681,0.00460209,-0.04095941,-0.08877654,-0.184495
 34,0.00474020,-0.02224612,-0.03321842,0.08311236,-0.04309149,0.5327051
 9,0.00001550,0.00000817,-0.00000895,-0.00003324,0.00000758,-0.00001162
 ,-0.00004387,-0.00004005,0.00005672,0.00001962,0.00001511,-0.00002674,
 -0.00000111,0.00000203,-0.00000115,0.00000019,0.00000168,-0.00000081,0
 .00005065,-0.00000261,0.00004109,0.00000431,-0.00001088,0.00001356,0.0
 0000094,0.00000124,-0.00000392,-0.00000012,0.00000255,0.00000106,-0.00
 000142,0.00000354,-0.00000385,0.00002126,0.00000133,-0.00005147,-0.000
 06432,0.00001723,0.00007591,0.00002706,-0.00001685,-0.00002312,-0.0000
 2264,0.00006971,0.00005388,-0.00002594,0.00014534,0.00007755,0.0000798
 2,-0.00008160,-0.00000502,-0.00022962,-0.00022235,0.00002195,-0.000106
 89,0.00036882,-0.00005075,0.00006931,-0.00002317,0.00000155,-0.0000320
 8,-0.00000345,0.00005893,-0.00277466,0.00648491,-0.00073962,0.00026453
 ,-0.00223219,0.00114319,-0.00483086,-0.00415028,0.00372161,-0.00030939
 ,-0.00112670,-0.00084980,-0.00517478,-0.00083728,-0.01047399,-0.000375
 86,0.00294545,0.00344632,-0.00771739,0.00088784,-0.01436174,0.02270950
 ,-0.00001968,-0.00002836,0.00004104,0.00010711,-0.00002060,0.00001984,
 0.00003371,0.00009749,-0.00010597,-0.00006494,-0.00005980,0.00006417,0
 .00000270,-0.00000474,0.00000568,0.00000307,-0.00000101,0.00000132,-0.
 00015658,0.00002315,-0.00004127,-0.00001303,0.00001180,-0.00001987,0.0
 0000156,-0.00000418,0.00000607,0.00000166,-0.00000203,0.00000342,0.000
 00048,-0.00000530,0.00000720,-0.00008979,-0.00000035,0.00013826,0.0001
 0531,-0.00011228,-0.00018388,-0.00003529,0.00001172,0.00003010,0.00003
 129,-0.00005903,-0.00011357,-0.00006371,0.00015571,-0.00032052,-0.0002
 1934,0.00000923,0.00017385,0.00022083,0.00016473,-0.00001905,0.0001272
 3,0.00143321,0.00001123,-0.00002211,0.00007916,0.00012664,-0.00074285,
 -0.00000293,-0.00001982,0.00528570,-0.02651482,0.00630958,0.00088383,0
 .00534143,-0.00312020,-0.00596871,0.01133473,-0.01837994,0.00021230,0.
 00498557,0.00171868,0.00124314,0.01336605,-0.01444050,0.00186317,-0.00
 433309,-0.00586885,0.00518655,-0.10994253,0.14482613,-0.00204998,0.109
 34729,-0.00000322,0.00004395,-0.00006056,-0.00015197,0.00001397,-0.000
 02112,-0.00001381,-0.00012969,0.00013035,0.00008608,0.00008583,-0.0000
 9393,-0.00000343,0.00000773,-0.00000759,-0.00000588,0.00000201,0.00000
 016,0.00030810,-0.00003183,0.00001276,0.00001871,-0.00000706,0.0000207
 3,-0.00000248,0.00000555,-0.00000594,-0.00000425,0.00000268,-0.0000058
 6,-0.00000128,0.00000552,-0.00000754,0.00009965,-0.00001053,-0.0002084
 5,-0.00004524,0.00019207,0.00031609,0.00001847,-0.00001911,-0.00004750
 ,-0.00004739,0.00001445,0.00006519,0.00030993,-0.00025046,0.00053394,0
 .00033611,0.00002868,-0.00032749,-0.00017687,-0.00018906,0.00007777,-0
 .00012771,-0.00311115,-0.00045932,-0.00013246,-0.00007803,-0.00020746,
 0.00141515,0.00000957,0.00007851,-0.00662127,0.03759581,0.00446152,-0.
 00108937,-0.01073545,0.00573477,0.01057639,-0.03318892,0.01146779,-0.0
 0114239,-0.00669114,-0.00596515,-0.01215384,-0.01590589,-0.04932163,-0
 .00249755,0.00251407,0.00729074,-0.02050451,0.12872813,-0.24914324,0.0
 2075596,-0.10609878,0.26326971,-0.00015891,0.00002376,-0.00001882,-0.0
 0012497,0.00002255,-0.00003014,-0.00037530,-0.00004926,0.00001147,-0.0
 0015394,0.00009892,-0.00012531,-0.00001560,0.00001447,-0.00001709,-0.0
 0002291,-0.00000259,0.00000707,0.00166282,-0.00009623,0.00016669,0.000
 01066,0.00004911,-0.00006906,-0.00000466,-0.00000890,0.00001818,-0.000
 00250,0.00000468,-0.00000129,-0.00000552,-0.00001403,0.00001499,-0.000
 14767,-0.00003127,0.00007475,-0.00000089,-0.00003320,0.00004256,-0.000
 01871,0.00001122,-0.00001502,-0.00000341,-0.00003717,-0.00003764,-0.00
 000505,0.00002267,-0.00005477,-0.00003618,-0.00000288,0.00001796,0.000
 03254,0.00003420,0.00002029,0.00001736,0.00006001,-0.00006981,-0.00004
 079,0.00000706,0.00000209,-0.00006417,-0.00000207,-0.00000227,0.000544
 07,-0.00173541,0.00118584,0.00017577,0.00065407,-0.00067471,-0.0006081
 1,0.00231300,-0.00272750,-0.00072096,0.00060139,-0.00125822,-0.1755890
 2,0.07834450,-0.06709392,-0.04004696,0.01974808,0.00003291,-0.00890605
 ,0.00635100,-0.02591610,-0.00304468,-0.00449335,0.00644645,0.52079786,
 0.00006406,-0.00000446,0.00000383,0.00003270,-0.00000333,0.00000870,0.
 00011806,-0.00000477,0.00000579,0.00006204,-0.00002942,0.00003797,0.00
 000493,-0.00000604,0.00000514,0.00000778,0.00000024,-0.00000319,-0.000
 57602,0.00004361,-0.00006301,-0.00000056,-0.00002067,0.00002766,-0.000
 00057,0.00000450,-0.00000773,0.00000068,-0.00000379,-0.00000090,0.0000
 0383,0.00000603,-0.00000668,0.00007414,0.00001182,-0.00003259,-0.00002
 960,0.00001579,-0.00001904,0.00000900,-0.00000148,0.00000658,-0.000002
 51,0.00000840,0.00003344,0.00002036,-0.00003459,0.00004175,0.00002811,
 0.00001302,-0.00002953,-0.00000794,-0.00000133,-0.00000856,-0.00004808
 ,0.00025611,0.00025879,0.00013654,0.00000737,0.00001535,-0.00002136,0.
 00001494,-0.00001068,-0.00009022,-0.00210632,-0.00271533,-0.00019033,0
 .00018982,0.00079505,-0.00010115,0.00090397,-0.00013368,0.00233417,-0.
 00062497,0.00466334,0.07035814,-0.08039825,0.04465294,0.01317220,0.001
 25800,0.00070496,-0.00360506,0.00667769,-0.00674912,-0.00155432,-0.000
 30468,0.00028629,-0.16058086,0.11850559,0.00004333,-0.00001277,0.00001
 282,0.00006672,-0.00001509,0.00001692,0.00018336,0.00003506,-0.0000356
 6,0.00004193,-0.00004939,0.00006488,0.00000570,-0.00000705,0.00000609,
 0.00000808,-0.00000016,-0.00000187,-0.00057913,0.00003874,-0.00006379,
 -0.00000851,-0.00000896,0.00001483,0.00000041,0.00000264,-0.00000335,0
 .00000113,-0.00000368,-0.00000165,0.00000260,0.00000311,-0.00000352,0.
 00002194,0.00001008,0.00001777,0.00003633,-0.00000679,-0.00004962,-0.0
 0000821,0.00000122,0.00001246,0.00000931,-0.00000545,-0.00002398,-0.00
 002191,-0.00000746,-0.00006768,-0.00003384,0.00000016,0.00003039,0.000
 02797,0.00003338,0.00000767,0.00002524,0.00003408,-0.00009015,-0.00006
 578,0.00000044,0.00000730,-0.00005914,-0.00000767,-0.00000178,0.000599
 73,-0.00130414,0.00142110,0.00015425,0.00054698,-0.00072197,-0.0004868
 6,0.00195095,-0.00248922,-0.00098318,0.00059943,-0.00192361,-0.0430002
 4,0.03441216,-0.09120534,0.02137256,-0.00821274,0.00504511,-0.02278013
 ,0.00578692,-0.02403640,-0.00451624,-0.00354779,0.00615193,-0.14990920
 ,-0.01726379,0.32109848,-0.00000568,0.00000218,-0.00000108,-0.00001006
 ,0.00000213,-0.00000331,0.00000110,-0.00002068,0.00001552,-0.00000761,
 0.00000698,-0.00001126,-0.00000077,0.00000146,-0.00000080,-0.00000124,
 0.00000060,0.00000053,0.00003723,0.00001188,0.00000252,-0.00000068,0.0
 0000210,-0.00000426,0.00000046,-0.00000105,0.00000080,0.00000002,-0.00
 000010,0.00000052,-0.00000064,-0.00000060,0.00000097,-0.00000328,-0.00
 000066,-0.00000493,-0.00001029,0.00000605,0.00000814,0.00000198,-0.000
 00070,-0.00000292,-0.00000297,0.00000112,0.00000627,0.00000300,0.00000
 087,0.00001377,0.00000830,-0.00000030,-0.00000714,-0.00000474,-0.00000
 782,-0.00000219,-0.00000553,0.00000098,0.00002660,0.00001840,0.0000010
 5,-0.00000028,0.00001181,0.00000125,0.00000081,-0.00012367,0.00020473,
 -0.00043823,-0.00004571,-0.00010601,0.00018582,0.00009654,-0.00036449,
 0.00052412,0.00030630,-0.00018181,0.00058914,-0.03202656,0.00948632,0.
 01101070,0.00032264,0.00167251,-0.00136606,0.00434966,-0.00035904,0.00
 337300,0.00044009,0.00049962,-0.00130949,-0.29666219,0.06372967,0.2101
 7836,0.32140339,0.00000854,-0.00000211,0.00000170,0.00001233,-0.000003
 45,0.00000401,0.00003117,-0.00000103,-0.00000518,0.00001003,-0.0000104
 8,0.00001161,0.00000152,-0.00000032,0.00000182,0.00000186,0.00000073,-
 0.00000009,-0.00010591,0.00001983,-0.00000847,-0.00000172,-0.00000295,
 0.00000379,0.00000110,0.00000043,-0.00000092,-0.00000077,-0.00000024,0
 .00000028,-0.00000005,0.00000059,-0.00000124,0.00000943,0.00000173,-0.
 00000076,0.00000707,0.00000401,-0.00000554,-0.00000087,-0.00000091,0.0
 0000165,0.00000116,0.00000036,-0.00000162,-0.00000227,0.00000248,-0.00
 000490,-0.00000354,-0.00000073,0.00000347,0.00000132,-0.00000016,0.000
 00142,0.00000185,-0.00000753,-0.00001835,-0.00001059,0.00000023,-0.000
 00008,-0.00000286,-0.00000301,0.00000060,0.00005648,0.00005218,0.00022
 827,0.00001457,0.00001414,-0.00008492,-0.00003482,0.00004775,-0.000136
 49,-0.00017040,0.00006074,-0.00035034,0.01678526,-0.00825323,-0.007560
 84,0.00246026,0.00214612,0.00091837,-0.00076229,-0.00033065,-0.0007043
 2,0.00015812,-0.00007043,0.00028889,0.05405530,-0.01857833,-0.03042833
 ,-0.07078118,0.02320971,-0.00000883,0.00000253,-0.00000181,-0.00000903
 ,0.00000152,-0.00000159,-0.00003717,-0.00000056,-0.00000358,-0.0000056
 9,0.00000483,-0.00000815,-0.00000074,0.00000127,-0.00000043,-0.0000012
 9,0.00000008,0.00000060,0.00012570,-0.00001103,0.00001831,0.00000065,0
 .00000195,-0.00000316,-0.00000013,-0.00000036,0.00000071,-0.00000105,0
 .00000032,0.00000035,-0.00000027,-0.00000088,0.00000072,-0.00000415,-0
 .00000377,0.00000072,-0.00000233,-0.00000166,0.00000401,-0.00000004,0.
 00000007,-0.00000102,0.00000167,-0.00000208,0.00000003,0.00000130,0.00
 000192,0.00000055,-0.00000081,0.,0.00000060,0.00000077,-0.00000039,0.0
 0000176,0.00000063,-0.00000784,-0.00000890,-0.00000413,-0.00000009,-0.
 00000028,0.00000022,-0.00000015,0.00000108,0.00000049,0.00003642,0.000
 06877,0.00001437,0.00001305,-0.00003565,-0.00000771,0.00003892,-0.0000
 7436,-0.00007690,0.00002578,-0.00014336,-0.01573809,0.00387867,0.00570
 226,-0.00446516,0.00229707,0.00200325,0.00021092,0.00012037,-0.0016413
 5,-0.00003819,-0.00019616,0.00000481,0.24411146,-0.04491247,-0.2096320
 1,-0.22392869,0.03754742,0.20504960,-0.00006118,-0.00000234,0.00000741
 ,0.00000345,-0.00001121,0.00000025,-0.00009701,0.00004864,-0.00005084,
 -0.00006552,0.00000203,-0.00000919,-0.00000384,0.00000178,-0.00000240,
 -0.00000629,-0.00000231,0.00000205,0.00057195,-0.00005491,0.00006789,0
 .00000166,0.00001584,-0.00002253,-0.00000186,-0.00000307,0.00000699,-0
 .00000249,0.00000342,-0.00000137,-0.00000069,-0.00000713,0.00000662,-0
 .00011206,-0.00001243,0.00006480,0.00015553,-0.00000404,0.00001216,-0.
 00002713,0.00000257,-0.00000077,0.00003013,-0.00006941,-0.00011753,-0.
 00008634,0.00005084,-0.00016152,-0.00008348,-0.00003415,0.00009088,0.0
 0003679,0.00002015,0.00003147,0.00021899,-0.00048569,-0.00046667,-0.00
 030778,-0.00001398,-0.00001646,0.00001907,-0.00004241,0.00002396,0.000
 68591,0.00639432,0.00762466,0.00052843,-0.00035504,-0.00275650,0.00016
 495,-0.00094734,-0.00122065,-0.00587106,0.00384124,-0.01836509,-0.0897
 8536,-0.06524228,0.01425281,-0.00417649,-0.01841169,0.01681137,0.00263
 548,-0.01625157,-0.00205188,0.00025220,0.00001116,0.00378734,0.0005795
 8,0.02133108,-0.01168370,0.00233335,-0.00163269,-0.00035030,0.20839800
 ,-0.00002996,0.00002526,-0.00004209,-0.00011867,0.00003274,-0.00003076
 ,-0.00012291,-0.00003689,0.00008933,0.00000746,0.00008196,-0.00008356,
 -0.00000701,0.00000509,-0.00001255,-0.00001090,-0.00000319,0.00000077,
 0.00070689,-0.00013835,0.00007943,0.00001868,0.00000057,-0.00000057,-0
 .00000581,0.00000254,-0.00000021,-0.00000817,0.00000049,-0.00000553,0.
 00000140,0.00000041,-0.00000139,0.00005127,-0.00000009,-0.00003835,-0.
 00018667,0.00004389,0.00005475,0.00001350,0.00000930,-0.00001107,-0.00
 004693,-0.00000714,0.00012157,0.00015143,-0.00014999,0.00022940,0.0001
 0766,0.00006230,-0.00016491,-0.00000037,0.00003638,-0.00003581,-0.0003
 0102,0.00151882,0.00142404,0.00076432,0.00004659,0.00006537,-0.0001816
 8,0.00007867,-0.00006330,0.00086001,-0.01339100,-0.01118013,-0.0008362
 8,0.00129005,0.00370134,-0.00109770,0.00517802,-0.00174113,0.01536442,
 -0.00106850,0.02909528,-0.07120784,-0.19718488,0.05992875,-0.00999801,
 -0.00401319,0.00797373,-0.02051879,-0.03179046,-0.00894150,0.00241727,
 -0.00292887,0.01060912,0.00602266,-0.02657618,0.01667927,-0.00402639,0
 .00161106,0.00119657,0.01513725,0.34016532,0.00004293,-0.00004085,0.00
 005390,0.00015916,-0.00003349,0.00004519,0.00015587,0.00007587,-0.0001
 0959,-0.00001696,-0.00009675,0.00012492,0.00000806,-0.00001115,0.00001
 372,0.00001271,0.00000049,-0.00000112,-0.00087786,0.00014187,-0.000136
 85,-0.00002343,-0.00000244,-0.00000301,0.00000189,-0.00000107,0.000000
 31,0.00000350,-0.00000880,0.00000511,0.00000454,-0.00000040,0.00000254
 ,-0.00006426,-0.00000531,0.00010046,0.00014351,-0.00007436,-0.00013065
 ,-0.00002005,0.00000379,0.00002650,0.00008899,-0.00003399,-0.00017117,
 -0.00015995,0.00016760,-0.00036697,-0.00018205,-0.00006228,0.00024040,
 0.00003951,0.00001708,0.00004991,0.00045802,-0.00151437,-0.00165500,-0
 .00092043,-0.00007279,-0.00006331,0.00009676,-0.00009443,0.00007054,0.
 00103985,0.01368241,0.01821493,0.00109732,-0.00072066,-0.00515671,0.00
 018398,-0.00370391,-0.00170517,-0.02103214,0.00893214,-0.03616580,0.02
 237937,0.06879780,-0.08175062,0.02000354,0.02042638,-0.00875810,-0.007
 75384,-0.01816822,0.00615724,0.00129594,0.00201954,0.00211679,-0.00686
 502,0.02910148,-0.00946709,0.00236068,-0.00076472,-0.00143228,0.123218
 61,-0.20812992,0.30608704,0.00003010,0.00002896,-0.00004412,-0.0001165
 7,0.00004338,-0.00003623,-0.00004075,-0.00010131,0.00012180,0.00006886
 ,0.00006991,-0.00007604,-0.00000260,0.00000538,-0.00000887,-0.00000289
 ,0.00000192,-0.00000218,0.00017784,-0.00004818,0.00004318,0.00001446,-
 0.00001455,0.00002362,-0.00000200,0.00000423,-0.00000702,-0.00000289,0
 .00000285,-0.00000310,-0.00000184,0.00000671,-0.00000761,0.00018151,0.
 00000568,-0.00009870,-0.00023660,0.00006023,0.00006226,0.00006591,-0.0
 0000167,-0.00001725,-0.00017926,0.00008150,0.00037035,0.00011971,-0.00
 017343,0.00031574,0.00018456,0.00006499,-0.00019427,-0.00005955,-0.000
 03866,-0.00005225,-0.00029679,0.00106761,0.00091503,0.00067675,0.00002
 282,0.00005131,-0.00004603,0.00012132,-0.00004352,-0.00260083,-0.01439
 278,-0.01882423,-0.00120151,0.00127913,0.00677282,-0.00074771,0.004735
 10,0.00149740,0.00351959,0.00249711,0.01995153,0.00982011,0.00368523,0
 .00940358,-0.00523436,-0.00285026,0.00198488,-0.00226939,-0.00237886,-
 0.00264925,0.00083391,-0.00188107,0.00187605,0.00293850,-0.00467892,0.
 00135713,-0.00042265,-0.00010740,0.00021253,-0.11592690,0.06708091,-0.
 13487874,0.11075932,-0.00000323,-0.00001961,0.00003291,0.00007725,-0.0
 0002156,0.00001928,0.00003019,0.00005979,-0.00007140,-0.00003821,-0.00
 005060,0.00005045,0.00000279,-0.00000381,0.00000632,0.00000459,0.00000
 021,0.00000032,-0.00021772,0.00002983,-0.00001715,-0.00001031,0.000006
 09,-0.00000932,0.00000123,-0.00000260,0.00000302,0.00000247,-0.0000007
 8,0.00000295,0.00000039,-0.00000276,0.00000415,-0.00009067,0.00000397,
 0.00007068,0.00010226,-0.00009697,-0.00007870,-0.00001030,0.00000025,0
 .00000790,0.00006637,-0.00000590,-0.00011778,-0.00016818,0.00016220,-0
 .00025430,-0.00011409,-0.00005074,0.00019314,-0.00000307,-0.00003239,0
 .00004219,0.00031617,-0.00182816,-0.00192569,-0.00096013,-0.00001276,-
 0.00006835,0.00018318,-0.00005544,0.00007199,-0.00371708,0.01379387,0.
 00602693,0.00091368,-0.00086559,-0.00396998,0.00104178,-0.00381106,0.0
 0084145,-0.00456314,-0.01255258,-0.01380397,0.00239274,-0.03546153,0.0
 2706017,0.00308633,0.00273497,-0.00360709,0.00146754,0.00661850,0.0014
 6841,-0.00118620,-0.00196623,-0.00398722,-0.00135143,0.00078173,0.0007
 4664,0.00021933,0.00009348,-0.00003134,0.05672339,-0.07290073,0.090173
 46,-0.05419790,0.10545691,0.00002311,0.00004902,-0.00006925,-0.0001643
 0,0.00003944,-0.00004753,-0.00001982,-0.00014583,0.00016931,0.00010701
 ,0.00008774,-0.00010783,-0.00000378,0.00000975,-0.00001090,-0.00000528
 ,0.00000272,-0.00000126,0.00026036,-0.00001572,0.00002343,0.00001850,-
 0.00001542,0.00002713,-0.00000031,0.00000645,-0.00000886,-0.00000196,0
 .00000554,-0.00000417,-0.00000210,0.00000670,-0.00001071,0.00022511,0.
 00000485,-0.00018023,-0.00017208,0.00017700,0.00017154,0.00004115,-0.0
 0001261,-0.00002743,-0.00019503,0.00007012,0.00031474,0.00011013,-0.00
 034923,0.00055550,0.00029493,0.00009426,-0.00036944,-0.00005944,-0.000
 02152,-0.00008753,-0.00052522,0.00249067,0.00304491,0.00160461,0.00009
 546,0.00011042,-0.00014061,0.00019518,-0.00011664,-0.00392658,-0.02064
 462,-0.03368952,-0.00170890,0.00086671,0.00821057,-0.00035310,0.007782
 38,0.00272936,0.01614309,-0.00000433,0.02818285,0.00928407,0.02787102,
 -0.01441902,-0.00312853,-0.00303437,0.00444184,-0.00287465,-0.00530980
 ,-0.00464132,0.00040177,-0.00302657,0.00414918,0.00273318,-0.00869275,
 0.00591092,-0.00121764,0.00106381,0.00012981,-0.12873188,0.09923407,-0
 .18623606,0.11198419,-0.09888010,0.18185620\\0.00000455,0.00000712,-0.
 00000378,0.00000458,-0.00000639,-0.00000452,-0.00000134,-0.00001120,-0
 .00000414,-0.00000559,-0.00000075,0.00000061,-0.00000382,0.00000123,-0
 .00000877,0.00000002,-0.00000054,-0.00000538,-0.00000327,-0.00000693,-
 0.00000116,-0.00000315,0.00001393,-0.00001213,-0.00000649,-0.00000432,
 -0.00000454,-0.00000579,-0.00000572,-0.00000402,-0.00000182,-0.0000032
 9,-0.00000636,-0.00000358,0.00000790,-0.00000252,0.00000181,0.00001036
 ,0.00000929,0.00000362,0.00000136,0.00000102,-0.00000185,0.00000086,-0
 .00000034,0.00000902,-0.00000344,-0.00000286,0.00000247,0.00000324,-0.
 00000030,-0.00000156,-0.00000078,-0.00000380,-0.00000390,0.00000315,0.
 00000350,0.00000209,0.00000462,0.00000266,0.00000829,0.00000226,0.0000
 0083,0.00003197,-0.00003046,-0.00002676,0.00000121,0.00000283,0.000013
 41,-0.00001309,0.00004098,0.00000136,0.00000453,-0.00000628,0.00002774
 ,0.00001170,0.00002152,0.00000166,-0.00000358,-0.00000184,0.00000804,0
 .00000171,-0.00000174,-0.00001746,0.00000426,-0.00001156,0.00002252,0.
 00000895,-0.00000057,0.00000180,-0.00001440,-0.00001350,0.00000582,-0.
 00002368,-0.00002872,0.00001503,-0.00000386,0.00001666,-0.00000647\\\@


 YOU SHOULDN'T LET PEOPLE DRIVE YOU CRAZY
 WHEN YOU KNOW IT'S WITHIN WALKING DISTANCE.
 Job cpu time:       0 days 10 hours 23 minutes  5.5 seconds.
 Elapsed time:       0 days  0 hours 26 minutes  6.5 seconds.
 File lengths (MBytes):  RWF=   1178 Int=      0 D2E=      0 Chk=     38 Scr=      1
 Normal termination of Gaussian 16 at Sun Dec 11 21:33:22 2022.
