 Entering Gaussian System, Link 0=g16
 Initial command:
 /data0/home/software/g16/l1.exe "/data0/home/software/g16/scratch/Gau-336607.inp" -scrdir="/data0/home/software/g16/scratch/"
 Default is to use a total of  22 processors:
                               22 via shared-memory
                                1 via Linda
 Entering Link 1 = /data0/home/software/g16/l1.exe PID=    336608.
  
 Copyright (c) 1988,1990,1992,1993,1995,1998,2003,2009,2016,
            Gaussian, Inc.  All Rights Reserved.
  
 This is part of the Gaussian(R) 16 program.  It is based on
 the Gaussian(R) 09 system (copyright 2009, Gaussian, Inc.),
 the Gaussian(R) 03 system (copyright 2003, Gaussian, Inc.),
 the Gaussian(R) 98 system (copyright 1998, Gaussian, Inc.),
 the Gaussian(R) 94 system (copyright 1995, Gaussian, Inc.),
 the Gaussian 92(TM) system (copyright 1992, Gaussian, Inc.),
 the Gaussian 90(TM) system (copyright 1990, Gaussian, Inc.),
 the Gaussian 88(TM) system (copyright 1988, Gaussian, Inc.),
 the Gaussian 86(TM) system (copyright 1986, Carnegie Mellon
 University), and the Gaussian 82(TM) system (copyright 1983,
 Carnegie Mellon University). Gaussian is a federally registered
 trademark of Gaussian, Inc.
  
 This software contains proprietary and confidential information,
 including trade secrets, belonging to Gaussian, Inc.
  
 This software is provided under written license and may be
 used, copied, transmitted, or stored only in accord with that
 written license.
  
 The following legend is applicable only to US Government
 contracts under FAR:
  
                    RESTRICTED RIGHTS LEGEND
  
 Use, reproduction and disclosure by the US Government is
 subject to restrictions as set forth in subparagraphs (a)
 and (c) of the Commercial Computer Software - Restricted
 Rights clause in FAR 52.227-19.
  
 Gaussian, Inc.
 340 Quinnipiac St., Bldg. 40, Wallingford CT 06492
  
  
 ---------------------------------------------------------------
 Warning -- This program may not be used in any manner that
 competes with the business of Gaussian, Inc. or will provide
 assistance to any competitor of Gaussian, Inc.  The licensee
 of this program is prohibited from giving any competitor of
 Gaussian, Inc. access to this program.  By using this program,
 the user acknowledges that Gaussian, Inc. is engaged in the
 business of creating and licensing software in the field of
 computational chemistry and represents and warrants to the
 licensee that it is not a competitor of Gaussian, Inc. and that
 it will not use this program in any manner prohibited above.
 ---------------------------------------------------------------
  

 Cite this work as:
 Gaussian 16, Revision A.03,
 M. J. Frisch, G. W. Trucks, H. B. Schlegel, G. E. Scuseria, 
 M. A. Robb, J. R. Cheeseman, G. Scalmani, V. Barone, 
 G. A. Petersson, H. Nakatsuji, X. Li, M. Caricato, A. V. Marenich, 
 J. Bloino, B. G. Janesko, R. Gomperts, B. Mennucci, H. P. Hratchian, 
 J. V. Ortiz, A. F. Izmaylov, J. L. Sonnenberg, D. Williams-Young, 
 F. Ding, F. Lipparini, F. Egidi, J. Goings, B. Peng, A. Petrone, 
 T. Henderson, D. Ranasinghe, V. G. Zakrzewski, J. Gao, N. Rega, 
 G. Zheng, W. Liang, M. Hada, M. Ehara, K. Toyota, R. Fukuda, 
 J. Hasegawa, M. Ishida, T. Nakajima, Y. Honda, O. Kitao, H. Nakai, 
 T. Vreven, K. Throssell, J. A. Montgomery, Jr., J. E. Peralta, 
 F. Ogliaro, M. J. Bearpark, J. J. Heyd, E. N. Brothers, K. N. Kudin, 
 V. N. Staroverov, T. A. Keith, R. Kobayashi, J. Normand, 
 K. Raghavachari, A. P. Rendell, J. C. Burant, S. S. Iyengar, 
 J. Tomasi, M. Cossi, J. M. Millam, M. Klene, C. Adamo, R. Cammi, 
 J. W. Ochterski, R. L. Martin, K. Morokuma, O. Farkas, 
 J. B. Foresman, and D. J. Fox, Gaussian, Inc., Wallingford CT, 2016.
 
 ******************************************
 Gaussian 16:  ES64L-G16RevA.03 25-Dec-2016
                19-Feb-2023 
 ******************************************
 %nproc=24
 Will use up to   24 processors via shared memory.
 %mem=50GB
 ---------------------------------------------------
 #p M062X/6-311+G(2d,p) nosymm em=GD3 counterpoise=5
 ---------------------------------------------------
 1/38=1,62=5,172=1/1;
 2/12=2,15=1,17=6,18=5,40=1/2;
 1/38=1,53=2,62=5,63=1/22;
 3/5=4,6=6,7=112,11=2,25=1,30=1,74=-55,124=31/1,2,3;
 4//1;
 5/5=2,38=5/2;
 6/7=2,8=2,9=2,10=2,28=1/1;
 1/53=2,62=5,63=1/22;
 3/5=7,6=11,7=112,11=2,25=1,30=1,74=-55,82=7,124=31/1,2,3;
 4//1;
 5/5=2,38=5/2;
 6/7=2,8=2,9=2,10=2,28=1/1;
 1/53=2,62=5,63=1/22(-4);
 99/5=1,9=1/99;
 Leave Link    1 at Sun Feb 19 23:01:56 2023, MaxMem=  6710886400 cpu:               0.6 elap:               0.0
 (Enter /data0/home/software/g16/l101.exe)
 -------------------
 Title Card Required
 -------------------
 Symbolic Z-matrix:
 Charge =  0 Multiplicity = 1 in supermolecule
 Charge =  0 Multiplicity = 1 in fragment      1.
 Charge =  0 Multiplicity = 1 in fragment      2.
 Charge =  0 Multiplicity = 1 in fragment      3.
 Charge =  0 Multiplicity = 1 in fragment      4.
 Charge =  0 Multiplicity = 1 in fragment      5.
 C                     8.17535   10.46677   11.16925    
 C                     9.07256   10.40825   12.23516    
 C                     9.83792   9.26603   12.443     
 C                     9.7077    8.18938   11.55271    
 C                     8.82069   8.29422   10.48062    
 H                     10.54226   9.21239   13.28081    
 H                     7.55567   11.36547   10.9911    
 H                     9.18484   11.28729   12.87931    
 H                     8.75034   7.49968   9.72822    
 C                     10.52816   6.96032   11.69328    
 H                     9.92286   6.05006   11.77148    
 H                     11.201    6.83992   10.81828    
 H                     11.19783   6.9942    12.56729    
 N                     8.04692   9.40856   10.31922    
 C                     7.07876   9.49502   9.19841    
 H                     6.21539   8.83478   9.44372    
 H                     6.67378   10.54332   9.1461     
 C                     7.65419   9.11391   7.82002    
 H                     8.24635   8.17473   7.88233    
 H                     6.79724   8.86726   7.15453    
 C                     8.48382   10.21385   7.16529    
 H                     7.88295   11.13382   7.02434    
 H                     8.79617   9.90999   6.14922    
 S                     9.94044   10.61047   8.14798    
 O                     10.93148   11.29547   7.32109    
 O                     10.3601   9.30226   8.72161    
 O                     9.36153   11.50691   9.21148    
 O                     12.71764   12.87933   8.87883    
 H                     12.04526   13.16591   9.51047    
 H                     12.20993   12.42041   8.17835    
 O                     6.99193   12.9123   9.4976     
 H                     7.19314   13.3285   10.34345    
 H                     7.85363   12.54191   9.23185    
 O                     10.58533   13.09787   10.95596    
 H                     11.09303   12.41998   11.42137    
 H                     10.12284   12.56715   10.25021    
 O                     8.15789   13.52612   12.07272    
 H                     8.13765   14.4187   12.40107    
 H                     9.06952   13.40995   11.71003    
 
 ITRead=  0  0  0  0  0  0  0  0  0  0  0  0  0  0  0  0  0  0  0  0
 ITRead=  0  0  0  0  0  0  0  0  0  0  0  0  0  0  0  0  0  0  0
 MicOpt= -1 -1 -1 -1 -1 -1 -1 -1 -1 -1 -1 -1 -1 -1 -1 -1 -1 -1 -1 -1
 MicOpt= -1 -1 -1 -1 -1 -1 -1 -1 -1 -1 -1 -1 -1 -1 -1 -1 -1 -1 -1
 NAtoms=     39 NQM=       39 NQMF=       0 NMMI=      0 NMMIF=      0
                NMic=       0 NMicF=      0.
                    Isotopes and Nuclear Properties:
 (Nuclear quadrupole moments (NQMom) in fm**2, nuclear magnetic moments (NMagM)
  in nuclear magnetons)

  Atom         1           2           3           4           5           6           7           8           9          10
 IAtWgt=          12          12          12          12          12           1           1           1           1          12
 AtmWgt=  12.0000000  12.0000000  12.0000000  12.0000000  12.0000000   1.0078250   1.0078250   1.0078250   1.0078250  12.0000000
 NucSpn=           0           0           0           0           0           1           1           1           1           0
 AtZEff=  -0.0000000  -0.0000000  -0.0000000  -0.0000000  -0.0000000  -0.0000000  -0.0000000  -0.0000000  -0.0000000  -0.0000000
 NQMom=    0.0000000   0.0000000   0.0000000   0.0000000   0.0000000   0.0000000   0.0000000   0.0000000   0.0000000   0.0000000
 NMagM=    0.0000000   0.0000000   0.0000000   0.0000000   0.0000000   2.7928460   2.7928460   2.7928460   2.7928460   0.0000000
 AtZNuc=   6.0000000   6.0000000   6.0000000   6.0000000   6.0000000   1.0000000   1.0000000   1.0000000   1.0000000   6.0000000

  Atom        11          12          13          14          15          16          17          18          19          20
 IAtWgt=           1           1           1          14          12           1           1          12           1           1
 AtmWgt=   1.0078250   1.0078250   1.0078250  14.0030740  12.0000000   1.0078250   1.0078250  12.0000000   1.0078250   1.0078250
 NucSpn=           1           1           1           2           0           1           1           0           1           1
 AtZEff=  -0.0000000  -0.0000000  -0.0000000  -0.0000000  -0.0000000  -0.0000000  -0.0000000  -0.0000000  -0.0000000  -0.0000000
 NQMom=    0.0000000   0.0000000   0.0000000   2.0440000   0.0000000   0.0000000   0.0000000   0.0000000   0.0000000   0.0000000
 NMagM=    2.7928460   2.7928460   2.7928460   0.4037610   0.0000000   2.7928460   2.7928460   0.0000000   2.7928460   2.7928460
 AtZNuc=   1.0000000   1.0000000   1.0000000   7.0000000   6.0000000   1.0000000   1.0000000   6.0000000   1.0000000   1.0000000

  Atom        21          22          23          24          25          26          27          28          29          30
 IAtWgt=          12           1           1          32          16          16          16          16           1           1
 AtmWgt=  12.0000000   1.0078250   1.0078250  31.9720718  15.9949146  15.9949146  15.9949146  15.9949146   1.0078250   1.0078250
 NucSpn=           0           1           1           0           0           0           0           0           1           1
 AtZEff=  -0.0000000  -0.0000000  -0.0000000  -0.0000000  -0.0000000  -0.0000000  -0.0000000  -0.0000000  -0.0000000  -0.0000000
 NQMom=    0.0000000   0.0000000   0.0000000   0.0000000   0.0000000   0.0000000   0.0000000   0.0000000   0.0000000   0.0000000
 NMagM=    0.0000000   2.7928460   2.7928460   0.0000000   0.0000000   0.0000000   0.0000000   0.0000000   2.7928460   2.7928460
 AtZNuc=   6.0000000   1.0000000   1.0000000  16.0000000   8.0000000   8.0000000   8.0000000   8.0000000   1.0000000   1.0000000

  Atom        31          32          33          34          35          36          37          38          39
 IAtWgt=          16           1           1          16           1           1          16           1           1
 AtmWgt=  15.9949146   1.0078250   1.0078250  15.9949146   1.0078250   1.0078250  15.9949146   1.0078250   1.0078250
 NucSpn=           0           1           1           0           1           1           0           1           1
 AtZEff=  -0.0000000  -0.0000000  -0.0000000  -0.0000000  -0.0000000  -0.0000000  -0.0000000  -0.0000000  -0.0000000
 NQMom=    0.0000000   0.0000000   0.0000000   0.0000000   0.0000000   0.0000000   0.0000000   0.0000000   0.0000000
 NMagM=    0.0000000   2.7928460   2.7928460   0.0000000   2.7928460   2.7928460   0.0000000   2.7928460   2.7928460
 AtZNuc=   8.0000000   1.0000000   1.0000000   8.0000000   1.0000000   1.0000000   8.0000000   1.0000000   1.0000000
 Leave Link  101 at Sun Feb 19 23:01:57 2023, MaxMem=  6710886400 cpu:               2.3 elap:               0.1
 (Enter /data0/home/software/g16/l202.exe)
                          Input orientation:                          
 ---------------------------------------------------------------------
 Center     Atomic      Atomic             Coordinates (Angstroms)
 Number     Number       Type             X           Y           Z
 ---------------------------------------------------------------------
      1          6           0        8.175345   10.466769   11.169255
      2          6           0        9.072563   10.408252   12.235161
      3          6           0        9.837915    9.266034   12.443004
      4          6           0        9.707700    8.189379   11.552713
      5          6           0        8.820692    8.294221   10.480620
      6          1           0       10.542256    9.212386   13.280805
      7          1           0        7.555671   11.365472   10.991104
      8          1           0        9.184838   11.287287   12.879314
      9          1           0        8.750344    7.499684    9.728224
     10          6           0       10.528162    6.960324   11.693283
     11          1           0        9.922861    6.050058   11.771480
     12          1           0       11.200996    6.839920   10.818276
     13          1           0       11.197826    6.994199   12.567287
     14          7           0        8.046919    9.408556   10.319220
     15          6           0        7.078757    9.495020    9.198412
     16          1           0        6.215387    8.834780    9.443723
     17          1           0        6.673783   10.543322    9.146104
     18          6           0        7.654190    9.113907    7.820019
     19          1           0        8.246355    8.174729    7.882331
     20          1           0        6.797244    8.867256    7.154531
     21          6           0        8.483817   10.213852    7.165290
     22          1           0        7.882947   11.133817    7.024340
     23          1           0        8.796165    9.909985    6.149224
     24         16           0        9.940442   10.610466    8.147975
     25          8           0       10.931477   11.295469    7.321094
     26          8           0       10.360100    9.302262    8.721606
     27          8           0        9.361534   11.506914    9.211485
     28          8           0       12.717640   12.879331    8.878825
     29          1           0       12.045258   13.165905    9.510469
     30          1           0       12.209927   12.420413    8.178345
     31          8           0        6.991930   12.912301    9.497603
     32          1           0        7.193136   13.328503   10.343448
     33          1           0        7.853634   12.541908    9.231850
     34          8           0       10.585334   13.097865   10.955961
     35          1           0       11.093028   12.419983   11.421373
     36          1           0       10.122836   12.567151   10.250209
     37          8           0        8.157890   13.526117   12.072719
     38          1           0        8.137648   14.418704   12.401065
     39          1           0        9.069524   13.409953   11.710028
 ---------------------------------------------------------------------
                    Distance matrix (angstroms):
                    1          2          3          4          5
     1  C    0.000000
     2  C    1.394482   0.000000
     3  C    2.414196   1.390548   0.000000
     4  C    2.771580   2.406768   1.403125   0.000000
     5  C    2.368682   2.758800   2.414563   1.395406   0.000000
     6  H    3.410922   2.164131   1.095849   2.174702   3.412894
     7  H    1.106074   2.182867   3.424075   3.877396   3.360574
     8  H    2.148634   1.095555   2.168488   3.410321   3.852892
     9  H    3.348251   3.853353   3.416553   2.172779   1.096512
    10  C    4.255057   3.781614   2.520877   1.484417   2.483000
    11  H    4.787883   4.464511   3.286436   2.161214   2.813781
    12  H    4.736220   4.389850   3.222384   2.142515   2.809778
    13  H    4.811302   4.035196   2.650668   2.162936   3.419796
    14  N    1.363403   2.392105   2.781805   2.401269   1.366205
    15  C    2.455814   3.745811   4.265298   3.762814   2.473927
    16  H    3.079332   4.293180   4.722751   4.130452   2.855691
    17  H    2.520652   3.913395   4.744760   4.531828   3.383579
    18  C    3.649551   4.814623   5.115055   4.359433   3.018511
    19  H    4.007787   4.961691   4.952146   3.950626   2.663690
    20  H    4.536035   5.776205   6.113317   5.317356   3.935172
    21  C    4.023786   5.107642   5.530480   4.984562   3.845761
    22  H    4.208417   5.393912   6.055777   5.701368   4.570399
    23  H    5.088825   6.112552   6.411831   5.743612   4.623017
    24  S    3.502049   4.183204   4.501698   4.184265   3.472760
    25  O    4.805346   5.328299   5.616800   5.389993   4.842056
    26  O    3.481410   3.902055   3.758030   3.111158   2.545595
    27  O    2.514321   3.230043   3.961212   4.075195   3.496371
    28  O    5.630184   5.536949   5.835418   6.181025   6.226972
    29  H    5.001313   4.885234   5.355476   5.865215   5.922189
    30  H    5.388889   5.509047   5.810668   5.962311   5.814881
    31  O    3.189909   4.253648   5.483638   5.822789   5.063334
    32  H    3.136274   3.954578   5.282674   5.847730   5.292613
    33  H    2.857138   3.880484   4.998023   5.269580   4.531829
    34  O    3.574382   3.340486   4.177662   5.021911   5.139543
    35  H    3.520154   2.965062   3.544916   4.453582   4.803170
    36  H    3.008151   3.115117   3.973274   4.586256   4.472874
    37  O    3.190010   3.253321   4.594334   5.581495   5.508795
    38  H    4.139634   4.121324   5.426110   6.479912   6.454762
    39  H    3.123191   3.047291   4.277820   5.261788   5.267264
                    6          7          8          9         10
     6  H    0.000000
     7  H    4.335689   0.000000
     8  H    2.511771   2.495122   0.000000
     9  H    4.331874   4.238682   4.946119   0.000000
    10  C    2.755396   5.360419   4.683353   2.704256   0.000000
    11  H    3.558375   5.870792   5.403753   2.766063   1.095942
    12  H    3.482324   5.813681   5.300174   2.762100   1.110333
    13  H    2.420585   5.904039   4.751851   3.782322   1.101581
    14  N    3.877651   2.126564   3.373214   2.118461   3.746793
    15  C    5.361123   2.634347   4.604002   2.656364   4.954539
    16  H    5.795479   3.255019   5.160980   2.879137   5.212882
    17  H    5.816548   2.204015   4.560234   3.730241   5.846557
    18  C    6.178253   3.890377   5.715149   2.729197   5.282027
    19  H    5.957467   4.508032   5.961427   2.029042   4.604865
    20  H    7.188565   4.640645   6.658100   3.508383   6.177087
    21  C    6.529903   4.101772   5.856088   3.742509   5.938646
    22  H    7.064501   3.986978   5.999933   4.611972   6.798105
    23  H    7.375292   5.205869   6.880562   4.315193   6.514361
    24  S    5.353761   3.786892   4.838863   3.686527   5.122320
    25  O    6.325258   4.986977   5.826202   4.995958   6.170266
    26  O    4.563722   4.155993   4.754798   2.617992   3.787319
    27  O    4.818540   2.539329   3.678645   4.086375   5.309597
    28  O    6.128312   5.779223   5.569489   6.738065   6.910111
    29  H    5.666106   5.058679   4.802117   6.558196   6.750962
    30  H    6.253612   5.539550   5.703880   6.211635   6.707883
    31  O    6.372347   2.222843   4.345743   5.695755   7.263056
    32  H    6.065236   2.098662   3.816288   6.064530   7.314243
    33  H    5.891387   2.137231   4.080462   5.145338   6.660768
    34  O    4.528101   3.490169   2.989794   6.017820   6.181935
    35  H    3.748268   3.716183   2.655142   5.706511   5.495533
    36  H    4.540360   2.929726   3.070844   5.275929   5.803728
    37  O    5.074736   2.490170   2.591829   6.493501   6.990837
    38  H    5.801882   3.413050   3.336331   7.442601   7.864029
    39  H    4.717610   2.643578   2.426157   6.241851   6.612535
                   11         12         13         14         15
    11  H    0.000000
    12  H    1.779356   0.000000
    13  H    1.774893   1.755805   0.000000
    14  N    4.111901   4.098189   4.561923   0.000000
    15  C    5.155324   5.163949   5.879639   1.483585   0.000000
    16  H    5.188303   5.543028   6.161906   2.109555   1.114227
    17  H    6.135025   6.083338   6.690869   2.132932   1.125023
    18  C    5.490727   5.171112   6.291826   2.546971   1.541537
    19  H    4.738183   4.373945   5.661594   2.738710   2.199664
    20  H    6.246784   6.076689   7.222977   3.445279   2.156568
    21  C    6.373776   5.666638   6.849349   3.284304   2.573810
    22  H    7.248530   6.621250   7.671318   3.722855   2.838832
    23  H    6.912181   6.083466   7.447235   4.266341   3.524093
    24  S    5.824725   4.789209   5.847112   3.121590   3.246056
    25  O    6.952523   5.670524   6.789286   4.568356   4.648590
    26  O    4.479926   3.341595   4.562697   2.813268   3.321402
    27  O    6.053589   5.267469   5.915908   2.712636   3.042854
    28  O    7.925731   6.521976   7.109808   5.994719   6.584277
    29  H    7.762217   6.514693   6.939181   5.546031   6.183762
    30  H    7.663075   6.255324   7.052018   5.566441   5.993944
    31  O    7.800721   7.505613   7.882668   3.750238   3.431452
    32  H    7.903571   7.641342   7.817059   4.011922   4.002472
    33  H    7.271557   6.799577   7.286003   3.322292   3.144055
    34  O    7.125695   6.289664   6.342417   4.523272   5.325932
    35  H    6.485970   5.613598   5.546461   4.422919   5.441630
    36  H    6.695279   5.855451   6.130436   3.780333   4.450919
    37  O    7.687479   7.452473   7.221618   4.476760   5.067140
    38  H    8.580070   8.326301   8.032160   5.426223   5.968325
    39  H    7.409454   6.964462   6.813697   4.357895   5.059453
                   16         17         18         19         20
    16  H    0.000000
    17  H    1.793828   0.000000
    18  C    2.187346   2.182413   0.000000
    19  H    2.645457   3.111324   1.112024   0.000000
    20  H    2.362205   2.605917   1.112685   1.763295   0.000000
    21  C    3.498410   2.703405   1.525395   2.174525   2.158232
    22  H    3.730917   2.512498   2.182996   3.102324   2.516545
    23  H    4.320903   3.726515   2.174719   2.513377   2.468524
    24  S    4.325281   3.416406   2.752125   2.978811   3.728995
    25  O    5.727307   4.693010   3.968469   4.154983   4.797483
    26  O    4.233041   3.912718   2.858371   2.538431   3.916490
    27  O    4.134305   2.856009   3.252335   3.756825   4.215974
    28  O    7.678333   6.485105   6.398282   6.566481   7.356699
    29  H    7.262954   5.988610   6.209492   6.480304   7.181259
    30  H    7.098764   5.925278   5.640578   5.815785   6.555170
    31  O    4.151156   2.415953   4.204839   5.160162   4.678705
    32  H    4.686048   3.075808   4.933871   5.807560   5.498058
    33  H    4.058515   2.322444   3.712713   4.587775   4.351354
    34  O    6.289451   5.010140   5.856420   6.257419   6.833634
    35  H    6.368372   5.313044   5.977081   6.216956   7.020083
    36  H    5.463439   4.148602   4.891312   5.331172   5.859352
    37  O    5.717830   4.434492   6.148721   6.797391   6.909770
    38  H    6.604632   5.268421   7.025709   7.708307   7.755087
    39  H    5.849311   4.531099   5.965849   6.537312   6.822896
                   21         22         23         24         25
    21  C    0.000000
    22  H    1.107812   0.000000
    23  H    1.105571   1.759989   0.000000
    24  S    1.801313   2.402028   2.407291   0.000000
    25  O    2.680524   3.067202   2.802214   1.461202   0.000000
    26  O    2.602605   3.517327   3.071216   1.488813   2.502155
    27  O    2.574745   2.666275   3.499610   1.506588   2.466376
    28  O    5.288311   5.464448   5.625451   3.659880   2.850530
    29  H    5.186361   5.256905   5.696981   3.580071   3.087459
    30  H    4.447369   4.659379   4.698229   2.902997   1.906518
    31  O    3.866140   3.173948   4.845700   3.976640   4.782402
    32  H    4.633314   4.038436   5.643357   4.444718   5.219487
    33  H    3.176105   2.618526   4.161486   3.043028   3.831151
    34  O    5.206063   5.159266   6.038909   3.806288   4.071941
    35  H    5.457952   5.593992   6.274649   3.913814   4.254752
    36  H    4.212021   4.180643   5.063464   2.877720   3.294054
    37  O    5.929603   5.593284   6.969333   5.204049   5.936878
    38  H    6.724132   6.305912   7.736130   5.986779   6.585301
    39  H    5.586838   5.342699   6.576248   4.613442   5.215425
                   26         27         28         29         30
    26  O    0.000000
    27  O    2.469333   0.000000
    28  O    4.286973   3.641104   0.000000
    29  H    4.288333   3.169230   0.966021   0.000000
    30  H    3.666041   3.164680   0.979311   1.535392   0.000000
    31  O    4.997912   2.769837   5.759143   5.059704   5.404617
    32  H    5.373141   3.049832   5.732977   4.925787   5.538997
    33  H    4.127714   1.829041   4.888459   4.246965   4.483517
    34  O    4.410179   2.659325   2.984791   2.055591   3.288373
    35  H    4.188808   2.952181   3.052035   2.261569   3.429970
    36  H    3.612814   1.668122   2.951467   2.145094   2.944504
    37  O    5.824143   3.703053   5.604517   4.669744   5.727804
    38  H    6.682491   4.488857   5.979312   5.019409   6.197418
    39  H    5.241124   3.154290   4.648228   3.708451   4.828468
                   31         32         33         34         35
    31  O    0.000000
    32  H    0.963930   0.000000
    33  H    0.974859   1.513486   0.000000
    34  O    3.882498   3.454761   3.277778   0.000000
    35  H    4.556564   4.146865   3.911847   0.966378   0.000000
    36  H    3.238536   3.028447   2.487362   0.996819   1.527925
    37  O    2.892655   1.990020   3.021883   2.706110   3.203564
    38  H    3.465835   2.512853   3.694178   3.134343   3.699859
    39  H    3.075529   2.322715   2.893658   1.721539   2.271108
                   36         37         38         39
    36  H    0.000000
    37  O    2.846431   0.000000
    38  H    3.463438   0.951279   0.000000
    39  H    1.987675   0.987986   1.537369   0.000000
 Symmetry turned off by external request.
 Stoichiometry    C9H21NO7S
 Framework group  C1[X(C9H21NO7S)]
 Deg. of freedom   111
 Full point group                 C1      NOp   1
 Rotational constants (GHZ):           0.3604982           0.3167946           0.2822829
 Leave Link  202 at Sun Feb 19 23:01:57 2023, MaxMem=  6710886400 cpu:               0.1 elap:               0.0
 (Enter /data0/home/software/g16/l122.exe)
 Counterpoise: doing full-system calculation.
 Leave Link  122 at Sun Feb 19 23:01:57 2023, MaxMem=  6710886400 cpu:               0.0 elap:               0.0
 (Enter /data0/home/software/g16/l301.exe)
 Standard basis: 6-311+G(2d,p) (5D, 7F)
 Ernie: Thresh=  0.10000D-02 Tol=  0.10000D-05 Strict=F.
   620 basis functions,   938 primitive gaussians,   656 cartesian basis functions
    77 alpha electrons       77 beta electrons
       nuclear repulsion energy      1793.6617420775 Hartrees.
 IExCor= 4336 DFT=T Ex+Corr=M062X ExCW=0 ScaHFX=  0.540000
 ScaDFX=  1.000000  1.000000  1.000000  1.000000 ScalE2=  1.000000  1.000000
 IRadAn=      5 IRanWt=     -1 IRanGd=            0 ICorTp=0 IEmpDi=131
 NAtoms=   39 NActive=   39 NUniq=   39 SFac= 1.00D+00 NAtFMM=   60 NAOKFM=F Big=F
 Integral buffers will be    131072 words long.
 Raffenetti 2 integral format.
 Two-electron integral symmetry is turned off.
 R6Disp:  Grimme-D3 Dispersion energy=       -0.0031725155 Hartrees.
 Nuclear repulsion after empirical dispersion term =     1793.6585695620 Hartrees.
 Leave Link  301 at Sun Feb 19 23:01:57 2023, MaxMem=  6710886400 cpu:               1.1 elap:               0.1
 (Enter /data0/home/software/g16/l302.exe)
 NPDir=0 NMtPBC=     1 NCelOv=     1 NCel=       1 NClECP=     1 NCelD=      1
         NCelK=      1 NCelE2=     1 NClLst=     1 CellRange=     0.0.
 One-electron integrals computed using PRISM.
 NBasis=   620 RedAO= T EigKep=  1.66D-06  NBF=   620
 NBsUse=   620 1.00D-06 EigRej= -1.00D+00 NBFU=   620
 Precomputing XC quadrature grid using
 IXCGrd= 4 IRadAn=           5 IRanWt=          -1 IRanGd=           0 AccXCQ= 0.00D+00.
 Generated NRdTot=       0 NPtTot=           0 NUsed=           0 NTot=          32
 NSgBfM=   652   652   652   652   652 MxSgAt=    39 MxSgA2=    39.
 Leave Link  302 at Sun Feb 19 23:01:57 2023, MaxMem=  6710886400 cpu:              17.6 elap:               0.8
 (Enter /data0/home/software/g16/l303.exe)
 DipDrv:  MaxL=1.
 Leave Link  303 at Sun Feb 19 23:01:57 2023, MaxMem=  6710886400 cpu:               1.6 elap:               0.1
 (Enter /data0/home/software/g16/l401.exe)
 ExpMin= 4.05D-02 ExpMax= 9.34D+04 ExpMxC= 3.17D+03 IAcc=3 IRadAn=         5 AccDes= 0.00D+00
 Harris functional with IExCor= 1009 and IRadAn=       5 diagonalized for initial guess.
 HarFok:  IExCor= 1009 AccDes= 0.00D+00 IRadAn=         5 IDoV= 1 UseB2=F ITyADJ=14
 ICtDFT=  3500011 ScaDFX=  1.000000  1.000000  1.000000  1.000000
 FoFCou: FMM=F IPFlag=           0 FMFlag=      100000 FMFlg1=           0
         NFxFlg=           0 DoJE=T BraDBF=F KetDBF=T FulRan=T
         wScrn=  0.000000 ICntrl=       500 IOpCl=  0 I1Cent=   200000004 NGrid=           0
         NMat0=    1 NMatS0=      1 NMatT0=    0 NMatD0=    1 NMtDS0=    0 NMtDT0=    0
 Symmetry not used in FoFCou.
 Harris En= -1334.55392894505    
 JPrj=0 DoOrth=F DoCkMO=F.
 Leave Link  401 at Sun Feb 19 23:02:00 2023, MaxMem=  6710886400 cpu:              70.2 elap:               3.0
 (Enter /data0/home/software/g16/l502.exe)
 Two-electron integral symmetry not used.
 Closed shell SCF:
 Using DIIS extrapolation, IDIIS=  1040.
 NGot=  6710886400 LenX=  6710005323 LenY=  6709574331
 Requested convergence on RMS density matrix=1.00D-08 within 128 cycles.
 Requested convergence on MAX density matrix=1.00D-06.
 Requested convergence on             energy=1.00D-06.
 No special actions if energy rises.
 Fock matrices will be formed incrementally for  20 cycles.

 Cycle   1  Pass 1  IDiag  1:
 FoFJK:  IHMeth= 1 ICntrl=       0 DoSepK=F KAlg= 0 I1Cent=           0 FoldK=F
 IRaf= 850000000 NMat=       1 IRICut=       1 DoRegI=T DoRafI=F ISym2E= 0 IDoP0=0 IntGTp=1.
 FoFCou: FMM=F IPFlag=           0 FMFlag=      100000 FMFlg1=           0
         NFxFlg=           0 DoJE=F BraDBF=F KetDBF=F FulRan=T
         wScrn=  0.000000 ICntrl=         0 IOpCl=  0 I1Cent=           0 NGrid=           0
         NMat0=    1 NMatS0=      1 NMatT0=    0 NMatD0=    1 NMtDS0=    0 NMtDT0=    0
 Symmetry not used in FoFCou.
 E= -1334.29586672636    
 DIIS: error= 2.24D-02 at cycle   1 NSaved=   1.
 NSaved= 1 IEnMin= 1 EnMin= -1334.29586672636     IErMin= 1 ErrMin= 2.24D-02
 ErrMax= 2.24D-02  0.00D+00 EMaxC= 1.00D-01 BMatC= 1.18D+00 BMatP= 1.18D+00
 IDIUse=3 WtCom= 7.76D-01 WtEn= 2.24D-01
 Coeff-Com:  0.100D+01
 Coeff-En:   0.100D+01
 Coeff:      0.100D+01
 Gap=     0.212 Goal=   None    Shift=    0.000
 GapD=    0.212 DampG=1.000 DampE=0.500 DampFc=0.5000 IDamp=-1.
 Damping current iteration by 5.00D-01
 RMSDP=1.58D-02 MaxDP=2.84D+00              OVMax= 1.87D-01

 Cycle   2  Pass 1  IDiag  1:
 RMSU=  6.58D-03    CP:  1.14D+00
 E= -1334.61898039237     Delta-E=       -0.323113666010 Rises=F Damp=T
 DIIS: error= 4.63D-03 at cycle   2 NSaved=   2.
 NSaved= 2 IEnMin= 2 EnMin= -1334.61898039237     IErMin= 2 ErrMin= 4.63D-03
 ErrMax= 4.63D-03  0.00D+00 EMaxC= 1.00D-01 BMatC= 7.11D-02 BMatP= 1.18D+00
 IDIUse=3 WtCom= 9.54D-01 WtEn= 4.63D-02
 Coeff-Com:  0.381D-01 0.962D+00
 Coeff-En:   0.124D+00 0.876D+00
 Coeff:      0.421D-01 0.958D+00
 Gap=     0.281 Goal=   None    Shift=    0.000
 RMSDP=8.93D-03 MaxDP=2.36D+00 DE=-3.23D-01 OVMax= 1.21D-01

 Cycle   3  Pass 1  IDiag  1:
 RMSU=  3.96D-03    CP:  8.91D-01  6.61D-01
 E= -1335.01168299715     Delta-E=       -0.392702604785 Rises=F Damp=F
 DIIS: error= 3.29D-03 at cycle   3 NSaved=   3.
 NSaved= 3 IEnMin= 3 EnMin= -1335.01168299715     IErMin= 3 ErrMin= 3.29D-03
 ErrMax= 3.29D-03  0.00D+00 EMaxC= 1.00D-01 BMatC= 2.84D-02 BMatP= 7.11D-02
 IDIUse=3 WtCom= 9.67D-01 WtEn= 3.29D-02
 Coeff-Com: -0.442D-01 0.356D+00 0.688D+00
 Coeff-En:   0.000D+00 0.000D+00 0.100D+01
 Coeff:     -0.428D-01 0.344D+00 0.698D+00
 Gap=     0.248 Goal=   None    Shift=    0.000
 RMSDP=1.44D-03 MaxDP=2.36D-01 DE=-3.93D-01 OVMax= 4.14D-02

 Cycle   4  Pass 1  IDiag  1:
 RMSU=  1.28D-03    CP:  8.84D-01  7.37D-01  9.10D-01
 E= -1335.02825547031     Delta-E=       -0.016572473163 Rises=F Damp=F
 DIIS: error= 2.03D-03 at cycle   4 NSaved=   4.
 NSaved= 4 IEnMin= 4 EnMin= -1335.02825547031     IErMin= 4 ErrMin= 2.03D-03
 ErrMax= 2.03D-03  0.00D+00 EMaxC= 1.00D-01 BMatC= 8.06D-03 BMatP= 2.84D-02
 IDIUse=3 WtCom= 9.80D-01 WtEn= 2.03D-02
 Coeff-Com: -0.273D-01 0.843D-01 0.389D+00 0.554D+00
 Coeff-En:   0.000D+00 0.000D+00 0.222D+00 0.778D+00
 Coeff:     -0.268D-01 0.825D-01 0.386D+00 0.558D+00
 Gap=     0.250 Goal=   None    Shift=    0.000
 RMSDP=6.43D-04 MaxDP=8.64D-02 DE=-1.66D-02 OVMax= 1.77D-02

 Cycle   5  Pass 1  IDiag  1:
 RMSU=  2.92D-04    CP:  8.80D-01  7.18D-01  9.61D-01  6.09D-01
 E= -1335.03478255754     Delta-E=       -0.006527087223 Rises=F Damp=F
 DIIS: error= 4.57D-04 at cycle   5 NSaved=   5.
 NSaved= 5 IEnMin= 5 EnMin= -1335.03478255754     IErMin= 5 ErrMin= 4.57D-04
 ErrMax= 4.57D-04  0.00D+00 EMaxC= 1.00D-01 BMatC= 3.51D-04 BMatP= 8.06D-03
 IDIUse=3 WtCom= 9.95D-01 WtEn= 4.57D-03
 Coeff-Com: -0.956D-02 0.198D-01 0.141D+00 0.263D+00 0.585D+00
 Coeff-En:   0.000D+00 0.000D+00 0.000D+00 0.000D+00 0.100D+01
 Coeff:     -0.952D-02 0.197D-01 0.141D+00 0.262D+00 0.587D+00
 Gap=     0.249 Goal=   None    Shift=    0.000
 RMSDP=1.22D-04 MaxDP=1.52D-02 DE=-6.53D-03 OVMax= 3.48D-03

 Cycle   6  Pass 1  IDiag  1:
 RMSU=  7.35D-05    CP:  8.80D-01  7.18D-01  9.59D-01  6.68D-01  7.93D-01
 E= -1335.03505660973     Delta-E=       -0.000274052193 Rises=F Damp=F
 DIIS: error= 1.05D-04 at cycle   6 NSaved=   6.
 NSaved= 6 IEnMin= 6 EnMin= -1335.03505660973     IErMin= 6 ErrMin= 1.05D-04
 ErrMax= 1.05D-04  0.00D+00 EMaxC= 1.00D-01 BMatC= 2.82D-05 BMatP= 3.51D-04
 IDIUse=3 WtCom= 9.99D-01 WtEn= 1.05D-03
 Coeff-Com: -0.179D-02 0.144D-02 0.290D-01 0.685D-01 0.270D+00 0.633D+00
 Coeff-En:   0.000D+00 0.000D+00 0.000D+00 0.000D+00 0.000D+00 0.100D+01
 Coeff:     -0.179D-02 0.144D-02 0.290D-01 0.684D-01 0.270D+00 0.633D+00
 Gap=     0.249 Goal=   None    Shift=    0.000
 RMSDP=3.66D-05 MaxDP=5.02D-03 DE=-2.74D-04 OVMax= 1.01D-03

 Cycle   7  Pass 1  IDiag  1:
 RMSU=  2.70D-05    CP:  8.79D-01  7.15D-01  9.61D-01  6.71D-01  8.10D-01
                    CP:  9.10D-01
 E= -1335.03507850798     Delta-E=       -0.000021898249 Rises=F Damp=F
 DIIS: error= 2.91D-05 at cycle   7 NSaved=   7.
 NSaved= 7 IEnMin= 7 EnMin= -1335.03507850798     IErMin= 7 ErrMin= 2.91D-05
 ErrMax= 2.91D-05  0.00D+00 EMaxC= 1.00D-01 BMatC= 2.38D-06 BMatP= 2.82D-05
 IDIUse=1 WtCom= 1.00D+00 WtEn= 0.00D+00
 Coeff-Com:  0.279D-03-0.146D-02-0.278D-02 0.150D-02 0.589D-01 0.262D+00
 Coeff-Com:  0.682D+00
 Coeff:      0.279D-03-0.146D-02-0.278D-02 0.150D-02 0.589D-01 0.262D+00
 Coeff:      0.682D+00
 Gap=     0.249 Goal=   None    Shift=    0.000
 RMSDP=9.89D-06 MaxDP=1.12D-03 DE=-2.19D-05 OVMax= 2.38D-04

 Cycle   8  Pass 1  IDiag  1:
 RMSU=  7.48D-06    CP:  8.79D-01  7.15D-01  9.61D-01  6.72D-01  8.17D-01
                    CP:  9.43D-01  8.76D-01
 E= -1335.03508036494     Delta-E=       -0.000001856965 Rises=F Damp=F
 DIIS: error= 1.15D-05 at cycle   8 NSaved=   8.
 NSaved= 8 IEnMin= 8 EnMin= -1335.03508036494     IErMin= 8 ErrMin= 1.15D-05
 ErrMax= 1.15D-05  0.00D+00 EMaxC= 1.00D-01 BMatC= 2.89D-07 BMatP= 2.38D-06
 IDIUse=1 WtCom= 1.00D+00 WtEn= 0.00D+00
 Coeff-Com:  0.337D-03-0.713D-03-0.514D-02-0.896D-02-0.121D-01 0.114D-01
 Coeff-Com:  0.272D+00 0.743D+00
 Coeff:      0.337D-03-0.713D-03-0.514D-02-0.896D-02-0.121D-01 0.114D-01
 Coeff:      0.272D+00 0.743D+00
 Gap=     0.249 Goal=   None    Shift=    0.000
 RMSDP=8.61D-06 MaxDP=1.69D-03 DE=-1.86D-06 OVMax= 1.60D-04

 Cycle   9  Pass 1  IDiag  1:
 RMSU=  3.01D-06    CP:  8.79D-01  7.15D-01  9.62D-01  6.72D-01  8.24D-01
                    CP:  9.54D-01  9.41D-01  8.37D-01
 E= -1335.03508062388     Delta-E=       -0.000000258940 Rises=F Damp=F
 DIIS: error= 4.54D-06 at cycle   9 NSaved=   9.
 NSaved= 9 IEnMin= 9 EnMin= -1335.03508062388     IErMin= 9 ErrMin= 4.54D-06
 ErrMax= 4.54D-06  0.00D+00 EMaxC= 1.00D-01 BMatC= 3.67D-08 BMatP= 2.89D-07
 IDIUse=1 WtCom= 1.00D+00 WtEn= 0.00D+00
 Coeff-Com:  0.127D-03-0.222D-03-0.220D-02-0.433D-02-0.976D-02-0.151D-01
 Coeff-Com:  0.683D-01 0.342D+00 0.622D+00
 Coeff:      0.127D-03-0.222D-03-0.220D-02-0.433D-02-0.976D-02-0.151D-01
 Coeff:      0.683D-01 0.342D+00 0.622D+00
 Gap=     0.249 Goal=   None    Shift=    0.000
 RMSDP=1.40D-06 MaxDP=1.93D-04 DE=-2.59D-07 OVMax= 4.38D-05

 Cycle  10  Pass 1  IDiag  1:
 RMSU=  9.47D-07    CP:  8.79D-01  7.15D-01  9.62D-01  6.72D-01  8.24D-01
                    CP:  9.63D-01  9.52D-01  8.92D-01  9.14D-01
 E= -1335.03508065565     Delta-E=       -0.000000031766 Rises=F Damp=F
 DIIS: error= 1.63D-06 at cycle  10 NSaved=  10.
 NSaved=10 IEnMin=10 EnMin= -1335.03508065565     IErMin=10 ErrMin= 1.63D-06
 ErrMax= 1.63D-06  0.00D+00 EMaxC= 1.00D-01 BMatC= 3.83D-09 BMatP= 3.67D-08
 IDIUse=1 WtCom= 1.00D+00 WtEn= 0.00D+00
 Coeff-Com:  0.110D-04-0.174D-05-0.317D-03-0.794D-03-0.254D-02-0.763D-02
 Coeff-Com: -0.507D-02 0.599D-01 0.258D+00 0.698D+00
 Coeff:      0.110D-04-0.174D-05-0.317D-03-0.794D-03-0.254D-02-0.763D-02
 Coeff:     -0.507D-02 0.599D-01 0.258D+00 0.698D+00
 Gap=     0.249 Goal=   None    Shift=    0.000
 RMSDP=5.37D-07 MaxDP=7.58D-05 DE=-3.18D-08 OVMax= 2.42D-05

 Cycle  11  Pass 1  IDiag  1:
 RMSU=  3.82D-07    CP:  8.79D-01  7.15D-01  9.62D-01  6.72D-01  8.24D-01
                    CP:  9.62D-01  9.54D-01  9.12D-01  9.38D-01  8.37D-01
 E= -1335.03508065973     Delta-E=       -0.000000004077 Rises=F Damp=F
 DIIS: error= 7.75D-07 at cycle  11 NSaved=  11.
 NSaved=11 IEnMin=11 EnMin= -1335.03508065973     IErMin=11 ErrMin= 7.75D-07
 ErrMax= 7.75D-07  0.00D+00 EMaxC= 1.00D-01 BMatC= 7.79D-10 BMatP= 3.83D-09
 IDIUse=1 WtCom= 1.00D+00 WtEn= 0.00D+00
 Coeff-Com: -0.142D-04 0.318D-04 0.191D-03 0.274D-03 0.245D-03-0.150D-02
 Coeff-Com: -0.144D-01-0.255D-01 0.726D-02 0.323D+00 0.710D+00
 Coeff:     -0.142D-04 0.318D-04 0.191D-03 0.274D-03 0.245D-03-0.150D-02
 Coeff:     -0.144D-01-0.255D-01 0.726D-02 0.323D+00 0.710D+00
 Gap=     0.249 Goal=   None    Shift=    0.000
 RMSDP=3.17D-07 MaxDP=7.49D-05 DE=-4.08D-09 OVMax= 7.74D-06

 Cycle  12  Pass 1  IDiag  1:
 RMSU=  1.28D-07    CP:  8.79D-01  7.15D-01  9.62D-01  6.72D-01  8.24D-01
                    CP:  9.62D-01  9.54D-01  9.16D-01  9.69D-01  9.20D-01
                    CP:  9.37D-01
 E= -1335.03508066046     Delta-E=       -0.000000000735 Rises=F Damp=F
 DIIS: error= 1.67D-07 at cycle  12 NSaved=  12.
 NSaved=12 IEnMin=12 EnMin= -1335.03508066046     IErMin=12 ErrMin= 1.67D-07
 ErrMax= 1.67D-07  0.00D+00 EMaxC= 1.00D-01 BMatC= 6.91D-11 BMatP= 7.79D-10
 IDIUse=1 WtCom= 1.00D+00 WtEn= 0.00D+00
 Coeff-Com: -0.577D-05 0.113D-04 0.105D-03 0.182D-03 0.388D-03 0.387D-03
 Coeff-Com: -0.481D-02-0.150D-01-0.290D-01 0.583D-01 0.276D+00 0.713D+00
 Coeff:     -0.577D-05 0.113D-04 0.105D-03 0.182D-03 0.388D-03 0.387D-03
 Coeff:     -0.481D-02-0.150D-01-0.290D-01 0.583D-01 0.276D+00 0.713D+00
 Gap=     0.249 Goal=   None    Shift=    0.000
 RMSDP=6.36D-08 MaxDP=7.65D-06 DE=-7.35D-10 OVMax= 3.53D-06

 Cycle  13  Pass 1  IDiag  1:
 RMSU=  5.12D-08    CP:  8.79D-01  7.15D-01  9.62D-01  6.72D-01  8.24D-01
                    CP:  9.62D-01  9.54D-01  9.17D-01  9.69D-01  9.49D-01
                    CP:  9.53D-01  1.02D+00
 E= -1335.03508066067     Delta-E=       -0.000000000211 Rises=F Damp=F
 DIIS: error= 8.21D-08 at cycle  13 NSaved=  13.
 NSaved=13 IEnMin=13 EnMin= -1335.03508066067     IErMin=13 ErrMin= 8.21D-08
 ErrMax= 8.21D-08  0.00D+00 EMaxC= 1.00D-01 BMatC= 1.40D-11 BMatP= 6.91D-11
 IDIUse=1 WtCom= 1.00D+00 WtEn= 0.00D+00
 Coeff-Com: -0.197D-06 0.132D-07 0.189D-04 0.379D-04 0.125D-03 0.369D-03
 Coeff-Com: -0.158D-03-0.258D-02-0.146D-01-0.197D-01 0.956D-02 0.326D+00
 Coeff-Com:  0.701D+00
 Coeff:     -0.197D-06 0.132D-07 0.189D-04 0.379D-04 0.125D-03 0.369D-03
 Coeff:     -0.158D-03-0.258D-02-0.146D-01-0.197D-01 0.956D-02 0.326D+00
 Coeff:      0.701D+00
 Gap=     0.249 Goal=   None    Shift=    0.000
 RMSDP=2.93D-08 MaxDP=2.96D-06 DE=-2.11D-10 OVMax= 1.74D-06

 Cycle  14  Pass 1  IDiag  1:
 RMSU=  2.21D-08    CP:  8.79D-01  7.15D-01  9.62D-01  6.72D-01  8.24D-01
                    CP:  9.62D-01  9.53D-01  9.18D-01  9.68D-01  9.50D-01
                    CP:  9.57D-01  1.15D+00  1.00D+00
 E= -1335.03508066060     Delta-E=        0.000000000074 Rises=F Damp=F
 DIIS: error= 3.97D-08 at cycle  14 NSaved=  14.
 NSaved=14 IEnMin=13 EnMin= -1335.03508066067     IErMin=14 ErrMin= 3.97D-08
 ErrMax= 3.97D-08  0.00D+00 EMaxC= 1.00D-01 BMatC= 2.52D-12 BMatP= 1.40D-11
 IDIUse=1 WtCom= 1.00D+00 WtEn= 0.00D+00
 Coeff-Com:  0.971D-06-0.206D-05-0.906D-05-0.141D-04-0.949D-05 0.113D-03
 Coeff-Com:  0.713D-03 0.148D-02-0.224D-02-0.192D-01-0.475D-01 0.451D-01
 Coeff-Com:  0.354D+00 0.667D+00
 Coeff:      0.971D-06-0.206D-05-0.906D-05-0.141D-04-0.949D-05 0.113D-03
 Coeff:      0.713D-03 0.148D-02-0.224D-02-0.192D-01-0.475D-01 0.451D-01
 Coeff:      0.354D+00 0.667D+00
 Gap=     0.249 Goal=   None    Shift=    0.000
 RMSDP=1.26D-08 MaxDP=1.39D-06 DE= 7.41D-11 OVMax= 8.49D-07

 Cycle  15  Pass 1  IDiag  1:
 RMSU=  7.10D-09    CP:  8.79D-01  7.15D-01  9.62D-01  6.72D-01  8.24D-01
                    CP:  9.62D-01  9.53D-01  9.18D-01  9.67D-01  9.51D-01
                    CP:  9.56D-01  1.19D+00  1.14D+00  9.72D-01
 E= -1335.03508066064     Delta-E=       -0.000000000046 Rises=F Damp=F
 DIIS: error= 1.30D-08 at cycle  15 NSaved=  15.
 NSaved=15 IEnMin=13 EnMin= -1335.03508066067     IErMin=15 ErrMin= 1.30D-08
 ErrMax= 1.30D-08  0.00D+00 EMaxC= 1.00D-01 BMatC= 2.41D-13 BMatP= 2.52D-12
 IDIUse=1 WtCom= 1.00D+00 WtEn= 0.00D+00
 Coeff-Com:  0.366D-06-0.754D-06-0.583D-05-0.100D-04-0.193D-04-0.179D-05
 Coeff-Com:  0.290D-03 0.971D-03 0.115D-02-0.419D-02-0.203D-01-0.305D-01
 Coeff-Com:  0.285D-01 0.252D+00 0.772D+00
 Coeff:      0.366D-06-0.754D-06-0.583D-05-0.100D-04-0.193D-04-0.179D-05
 Coeff:      0.290D-03 0.971D-03 0.115D-02-0.419D-02-0.203D-01-0.305D-01
 Coeff:      0.285D-01 0.252D+00 0.772D+00
 Gap=     0.249 Goal=   None    Shift=    0.000
 RMSDP=6.65D-09 MaxDP=8.41D-07 DE=-4.59D-11 OVMax= 3.25D-07

 SCF Done:  E(RM062X) =  -1335.03508066     A.U. after   15 cycles
            NFock= 15  Conv=0.66D-08     -V/T= 2.0032
 KE= 1.330759548155D+03 PE=-6.728923535913D+03 EE= 2.269470337535D+03
 Leave Link  502 at Sun Feb 19 23:05:01 2023, MaxMem=  6710886400 cpu:            4318.1 elap:             180.5
 (Enter /data0/home/software/g16/l601.exe)
 Copying SCF densities to generalized density rwf, IOpCl= 0 IROHF=0.

 **********************************************************************

            Population analysis using the SCF density.

 **********************************************************************

 Alpha  occ. eigenvalues --  -90.09165 -19.63256 -19.62474 -19.60637 -19.59530
 Alpha  occ. eigenvalues --  -19.59506 -19.59290 -19.55505 -14.88893 -10.65301
 Alpha  occ. eigenvalues --  -10.64610 -10.63080 -10.61313 -10.60964 -10.59828
 Alpha  occ. eigenvalues --  -10.58744 -10.57761 -10.57263  -8.42622  -6.34927
 Alpha  occ. eigenvalues --   -6.34848  -6.34836  -1.23565  -1.16245  -1.14905
 Alpha  occ. eigenvalues --   -1.13116  -1.11008  -1.09857  -1.09197  -1.06192
 Alpha  occ. eigenvalues --   -0.98936  -0.93917  -0.92395  -0.85417  -0.84007
 Alpha  occ. eigenvalues --   -0.78487  -0.75378  -0.73038  -0.67777  -0.65161
 Alpha  occ. eigenvalues --   -0.63360  -0.62109  -0.61080  -0.60676  -0.59879
 Alpha  occ. eigenvalues --   -0.58773  -0.57834  -0.56341  -0.55687  -0.55301
 Alpha  occ. eigenvalues --   -0.54200  -0.53483  -0.52631  -0.51226  -0.50900
 Alpha  occ. eigenvalues --   -0.50460  -0.50168  -0.48735  -0.47884  -0.47065
 Alpha  occ. eigenvalues --   -0.46397  -0.46032  -0.45127  -0.44160  -0.43333
 Alpha  occ. eigenvalues --   -0.41334  -0.41140  -0.40282  -0.39663  -0.39625
 Alpha  occ. eigenvalues --   -0.37785  -0.37273  -0.36573  -0.36415  -0.35668
 Alpha  occ. eigenvalues --   -0.33306  -0.32221
 Alpha virt. eigenvalues --   -0.07329  -0.03404  -0.01317  -0.00292   0.00697
 Alpha virt. eigenvalues --    0.00962   0.01933   0.02837   0.03291   0.04054
 Alpha virt. eigenvalues --    0.04613   0.04830   0.05369   0.05765   0.06777
 Alpha virt. eigenvalues --    0.06818   0.07737   0.08318   0.08869   0.09106
 Alpha virt. eigenvalues --    0.09776   0.10171   0.10454   0.10741   0.11096
 Alpha virt. eigenvalues --    0.11201   0.11709   0.12719   0.12982   0.13270
 Alpha virt. eigenvalues --    0.13608   0.13958   0.14605   0.15094   0.15424
 Alpha virt. eigenvalues --    0.15936   0.16085   0.16188   0.16513   0.17039
 Alpha virt. eigenvalues --    0.17148   0.17308   0.17953   0.18110   0.18431
 Alpha virt. eigenvalues --    0.18699   0.18899   0.19503   0.19668   0.19857
 Alpha virt. eigenvalues --    0.20322   0.20827   0.21062   0.21638   0.21816
 Alpha virt. eigenvalues --    0.22105   0.22552   0.22755   0.23373   0.23446
 Alpha virt. eigenvalues --    0.24029   0.24375   0.24747   0.25250   0.25626
 Alpha virt. eigenvalues --    0.25829   0.26050   0.26497   0.27256   0.27625
 Alpha virt. eigenvalues --    0.27846   0.28236   0.28606   0.28945   0.29274
 Alpha virt. eigenvalues --    0.29671   0.29814   0.29949   0.30584   0.31714
 Alpha virt. eigenvalues --    0.31911   0.32036   0.32202   0.32661   0.33443
 Alpha virt. eigenvalues --    0.34093   0.34573   0.35062   0.35338   0.35974
 Alpha virt. eigenvalues --    0.36220   0.37237   0.37513   0.38310   0.38701
 Alpha virt. eigenvalues --    0.39180   0.39568   0.39975   0.40555   0.40835
 Alpha virt. eigenvalues --    0.41693   0.42999   0.43038   0.43545   0.44441
 Alpha virt. eigenvalues --    0.44500   0.45662   0.46549   0.46959   0.47868
 Alpha virt. eigenvalues --    0.48268   0.49451   0.50092   0.50452   0.51330
 Alpha virt. eigenvalues --    0.51697   0.52855   0.53496   0.53906   0.54575
 Alpha virt. eigenvalues --    0.55705   0.55978   0.56882   0.57029   0.57304
 Alpha virt. eigenvalues --    0.58098   0.58867   0.59382   0.60117   0.60678
 Alpha virt. eigenvalues --    0.60987   0.61349   0.62008   0.62669   0.63296
 Alpha virt. eigenvalues --    0.64252   0.64978   0.65252   0.65756   0.66059
 Alpha virt. eigenvalues --    0.67050   0.67197   0.67469   0.68191   0.68666
 Alpha virt. eigenvalues --    0.69572   0.70088   0.70720   0.71313   0.71743
 Alpha virt. eigenvalues --    0.72712   0.72801   0.74126   0.74702   0.75483
 Alpha virt. eigenvalues --    0.76345   0.76788   0.77369   0.77641   0.78450
 Alpha virt. eigenvalues --    0.79557   0.80510   0.81445   0.82311   0.82700
 Alpha virt. eigenvalues --    0.83255   0.84546   0.84994   0.85990   0.86588
 Alpha virt. eigenvalues --    0.87121   0.87897   0.89839   0.90627   0.91553
 Alpha virt. eigenvalues --    0.91989   0.92750   0.93982   0.95238   0.95799
 Alpha virt. eigenvalues --    0.97655   0.98758   1.00046   1.00574   1.01787
 Alpha virt. eigenvalues --    1.04005   1.04940   1.06189   1.07250   1.07751
 Alpha virt. eigenvalues --    1.08252   1.09199   1.09727   1.11286   1.12296
 Alpha virt. eigenvalues --    1.12889   1.13186   1.14419   1.14830   1.15906
 Alpha virt. eigenvalues --    1.16448   1.16603   1.17374   1.17700   1.19124
 Alpha virt. eigenvalues --    1.20491   1.20802   1.21745   1.22474   1.22849
 Alpha virt. eigenvalues --    1.23381   1.23985   1.24411   1.24711   1.25873
 Alpha virt. eigenvalues --    1.26143   1.27257   1.27595   1.28543   1.29209
 Alpha virt. eigenvalues --    1.29891   1.30318   1.30982   1.32419   1.33212
 Alpha virt. eigenvalues --    1.33388   1.34214   1.34458   1.35017   1.36003
 Alpha virt. eigenvalues --    1.36246   1.37761   1.38011   1.38793   1.39704
 Alpha virt. eigenvalues --    1.40584   1.41096   1.41570   1.42140   1.42230
 Alpha virt. eigenvalues --    1.43110   1.43321   1.43583   1.44267   1.44732
 Alpha virt. eigenvalues --    1.45256   1.46136   1.47578   1.48533   1.48896
 Alpha virt. eigenvalues --    1.50547   1.52156   1.53402   1.54085   1.55117
 Alpha virt. eigenvalues --    1.56056   1.57059   1.58910   1.60035   1.61109
 Alpha virt. eigenvalues --    1.61656   1.62040   1.62288   1.62662   1.64530
 Alpha virt. eigenvalues --    1.66286   1.66837   1.67157   1.68906   1.71228
 Alpha virt. eigenvalues --    1.71611   1.73356   1.74456   1.76255   1.76835
 Alpha virt. eigenvalues --    1.77689   1.78446   1.78589   1.80266   1.80729
 Alpha virt. eigenvalues --    1.81898   1.82074   1.82413   1.83680   1.84534
 Alpha virt. eigenvalues --    1.85496   1.87100   1.89052   1.90114   1.91098
 Alpha virt. eigenvalues --    1.91883   1.93249   1.94519   1.95389   1.96337
 Alpha virt. eigenvalues --    1.97508   1.98273   1.99639   2.00504   2.01893
 Alpha virt. eigenvalues --    2.02926   2.04679   2.05831   2.07623   2.07810
 Alpha virt. eigenvalues --    2.09586   2.09791   2.11122   2.11424   2.13839
 Alpha virt. eigenvalues --    2.15443   2.16008   2.17148   2.18025   2.19397
 Alpha virt. eigenvalues --    2.20383   2.20583   2.20627   2.21893   2.24332
 Alpha virt. eigenvalues --    2.25856   2.26495   2.28625   2.29588   2.30119
 Alpha virt. eigenvalues --    2.31630   2.33125   2.33356   2.34463   2.35279
 Alpha virt. eigenvalues --    2.36501   2.37659   2.37990   2.38138   2.38588
 Alpha virt. eigenvalues --    2.40596   2.42603   2.43525   2.44460   2.45525
 Alpha virt. eigenvalues --    2.47494   2.48940   2.50750   2.53976   2.54427
 Alpha virt. eigenvalues --    2.55750   2.56381   2.58473   2.60888   2.63742
 Alpha virt. eigenvalues --    2.65121   2.66166   2.66732   2.68728   2.69410
 Alpha virt. eigenvalues --    2.70937   2.71897   2.73561   2.75068   2.75657
 Alpha virt. eigenvalues --    2.77537   2.78222   2.78341   2.79776   2.80742
 Alpha virt. eigenvalues --    2.82472   2.83593   2.84397   2.88134   2.89194
 Alpha virt. eigenvalues --    2.89533   2.90277   2.91177   2.93587   2.93854
 Alpha virt. eigenvalues --    2.94806   2.96849   2.98959   2.99778   3.00496
 Alpha virt. eigenvalues --    3.01231   3.04807   3.07429   3.08330   3.09266
 Alpha virt. eigenvalues --    3.10943   3.12268   3.14380   3.17508   3.18373
 Alpha virt. eigenvalues --    3.19740   3.20671   3.21439   3.22654   3.24380
 Alpha virt. eigenvalues --    3.25716   3.26650   3.28234   3.28968   3.30455
 Alpha virt. eigenvalues --    3.31969   3.33404   3.34803   3.35630   3.39223
 Alpha virt. eigenvalues --    3.41287   3.41766   3.43665   3.45674   3.47431
 Alpha virt. eigenvalues --    3.48485   3.49183   3.49619   3.50429   3.53377
 Alpha virt. eigenvalues --    3.54253   3.55016   3.58000   3.58330   3.59476
 Alpha virt. eigenvalues --    3.59705   3.61263   3.62046   3.62568   3.64882
 Alpha virt. eigenvalues --    3.65540   3.67071   3.68939   3.69815   3.71307
 Alpha virt. eigenvalues --    3.72005   3.73272   3.75275   3.78369   3.80799
 Alpha virt. eigenvalues --    3.83168   3.84593   3.86699   3.89776   3.92568
 Alpha virt. eigenvalues --    3.95431   3.98612   4.02880   4.06230   4.08154
 Alpha virt. eigenvalues --    4.13260   4.15420   4.16459   4.17823   4.19375
 Alpha virt. eigenvalues --    4.23275   4.30116   4.36254   4.47293   4.51404
 Alpha virt. eigenvalues --    4.63267   4.71264   4.95925   5.03787   5.06091
 Alpha virt. eigenvalues --    5.12092   5.16934   5.18877   5.19063   5.22568
 Alpha virt. eigenvalues --    5.27170   5.27922   5.30776   5.32266   5.36438
 Alpha virt. eigenvalues --    5.37526   5.41747   5.45286   5.48757   5.55118
 Alpha virt. eigenvalues --    5.56281   5.57632   5.59487   5.60797   5.63429
 Alpha virt. eigenvalues --    5.64232   5.76885   5.93583   5.98343   6.00019
 Alpha virt. eigenvalues --    6.02621   6.78538   6.79350   6.80185   6.82383
 Alpha virt. eigenvalues --    6.83237   6.83733   6.85949   6.86330   6.87047
 Alpha virt. eigenvalues --    6.88062   6.88553   6.89008   6.90191   6.90757
 Alpha virt. eigenvalues --    6.91488   6.92316   6.94351   6.95566   6.96513
 Alpha virt. eigenvalues --    6.98033   6.99294   7.00331   7.02787   7.03431
 Alpha virt. eigenvalues --    7.07869   7.11359   7.18398   7.19366   7.21827
 Alpha virt. eigenvalues --    7.22695   7.23031   7.27622   7.32341   7.42490
 Alpha virt. eigenvalues --    7.43421   8.63422  17.76447  17.78082  17.86837
 Alpha virt. eigenvalues --   23.84866  23.95103  23.97362  24.00241  24.03768
 Alpha virt. eigenvalues --   24.07505  24.10233  24.11953  24.23528  35.69557
 Alpha virt. eigenvalues --   50.03316  50.06580  50.07548  50.08585  50.09629
 Alpha virt. eigenvalues --   50.14713  50.19566 189.94971
          Condensed to atoms (all electrons):
               1          2          3          4          5          6
     1  C   13.239251  -8.368080   2.514605  -1.920797   0.483692   0.011321
     2  C   -8.368080  18.153828  -4.802976   3.044003  -1.698752   0.013257
     3  C    2.514605  -4.802976  10.749735  -2.062279   0.310854   0.332786
     4  C   -1.920797   3.044003  -2.062279  13.012256  -7.341915  -0.002776
     5  C    0.483692  -1.698752   0.310854  -7.341915  16.472138  -0.007445
     6  H    0.011321   0.013257   0.332786  -0.002776  -0.007445   0.501146
     7  H    0.097008   0.222027  -0.057040   0.059901  -0.073431  -0.000188
     8  H    0.055350   0.271229   0.017750  -0.007541  -0.012045  -0.003393
     9  H   -0.014103   0.016076   0.005097   0.136562   0.204435  -0.000190
    10  C    0.230221  -0.403533   0.093247  -0.839470   0.137354  -0.005913
    11  H   -0.004586   0.004440  -0.016018   0.014648  -0.056415   0.000154
    12  H    0.004979  -0.006451  -0.002109   0.034151  -0.042938   0.000102
    13  H    0.010376   0.028072   0.030834  -0.168195   0.024614   0.003486
    14  N   -0.181791   0.228484  -0.496188   0.787000  -1.032070   0.000862
    15  C    0.522816  -0.764159   0.146490   0.101375  -0.379117  -0.000450
    16  H   -0.003198   0.006943   0.004668   0.017601  -0.008295  -0.000000
    17  H    0.029748   0.034701  -0.009702   0.004272  -0.025918  -0.000002
    18  C   -0.418007   0.034037  -0.176117   0.338750  -0.763482   0.000186
    19  H    0.016329  -0.005413  -0.005077  -0.021899  -0.001521  -0.000001
    20  H    0.002466   0.004163  -0.000699  -0.012492   0.017457   0.000000
    21  C    0.321850  -0.172684   0.087673  -0.429871   0.814332   0.000058
    22  H    0.005049   0.000213  -0.001091  -0.000846  -0.013810  -0.000000
    23  H    0.000094   0.001413  -0.000316   0.004153  -0.001758   0.000000
    24  S   -0.112910   0.085053  -0.072553   0.400405  -0.657487   0.000238
    25  O   -0.027388   0.051562   0.013744  -0.004500   0.024543  -0.000008
    26  O   -0.111614   0.089015  -0.017114   0.028508   0.010348   0.000124
    27  O   -0.271424   0.232235  -0.087108   0.041514  -0.089115  -0.000046
    28  O   -0.005505   0.000509  -0.000447   0.008156  -0.013659  -0.000003
    29  H   -0.001716   0.001566   0.001243  -0.000385   0.000937   0.000001
    30  H    0.001785  -0.001644   0.000785  -0.001584   0.002297   0.000001
    31  O   -0.088636   0.027966  -0.019194   0.020662  -0.038396   0.000003
    32  H   -0.053268   0.051700  -0.004553   0.002734  -0.001858   0.000002
    33  H    0.060001  -0.069712   0.006892  -0.001946   0.002064  -0.000003
    34  O   -0.379276   0.594485  -0.124095   0.032535  -0.032796  -0.000291
    35  H    0.024988  -0.055581   0.003070  -0.001565   0.015144   0.000055
    36  H    0.160935  -0.229723   0.056046  -0.020076   0.028508   0.000032
    37  O    0.035342  -0.019955   0.007971  -0.005015  -0.002377   0.000023
    38  H   -0.008861   0.013193  -0.001851   0.000982   0.000337  -0.000001
    39  H    0.021740  -0.029169  -0.022786   0.011891  -0.014885   0.000083
               7          8          9         10         11         12
     1  C    0.097008   0.055350  -0.014103   0.230221  -0.004586   0.004979
     2  C    0.222027   0.271229   0.016076  -0.403533   0.004440  -0.006451
     3  C   -0.057040   0.017750   0.005097   0.093247  -0.016018  -0.002109
     4  C    0.059901  -0.007541   0.136562  -0.839470   0.014648   0.034151
     5  C   -0.073431  -0.012045   0.204435   0.137354  -0.056415  -0.042938
     6  H   -0.000188  -0.003393  -0.000190  -0.005913   0.000154   0.000102
     7  H    0.498237  -0.004030   0.000003   0.002615   0.000003  -0.000002
     8  H   -0.004030   0.474593   0.000017   0.003551   0.000012   0.000001
     9  H    0.000003   0.000017   0.483660   0.006512   0.002022  -0.000572
    10  C    0.002615   0.003551   0.006512   6.414879   0.417382   0.380948
    11  H    0.000003   0.000012   0.002022   0.417382   0.502677  -0.031644
    12  H   -0.000002   0.000001  -0.000572   0.380948  -0.031644   0.471363
    13  H   -0.000003  -0.000015  -0.000126   0.438491  -0.020310  -0.019851
    14  N   -0.005433   0.009384  -0.034059  -0.014418   0.001548   0.000655
    15  C   -0.028891   0.005061   0.027163  -0.074355  -0.000288  -0.000633
    16  H    0.001224   0.000003   0.001005  -0.001547  -0.000016  -0.000000
    17  H    0.004110  -0.000042   0.000245  -0.000331   0.000001  -0.000000
    18  C    0.038382   0.000122  -0.003202   0.094164   0.000548  -0.001580
    19  H   -0.000115   0.000000   0.005842   0.000627   0.000055  -0.000003
    20  H   -0.000130  -0.000001  -0.000623  -0.000664   0.000000   0.000002
    21  C   -0.023432   0.000058  -0.010386  -0.014698  -0.000207   0.001264
    22  H    0.000261  -0.000002   0.000090   0.000132   0.000000   0.000000
    23  H    0.000007  -0.000000   0.000038   0.000025  -0.000000  -0.000000
    24  S    0.011167   0.001171   0.011021  -0.002405   0.000318  -0.001621
    25  O   -0.000660  -0.000018   0.000316  -0.005736   0.000005  -0.000052
    26  O    0.003431  -0.000676  -0.011706  -0.034632  -0.000382   0.001033
    27  O    0.011885  -0.002633   0.000661   0.006424   0.000041  -0.000099
    28  O    0.000015  -0.000015   0.000009   0.000480  -0.000000  -0.000001
    29  H   -0.000021   0.000060  -0.000001   0.000108  -0.000000  -0.000000
    30  H   -0.000007   0.000001  -0.000004  -0.000026  -0.000000   0.000001
    31  O    0.050638   0.000199  -0.000010   0.000674  -0.000000  -0.000000
    32  H    0.012238  -0.000227   0.000004   0.000084   0.000000  -0.000000
    33  H   -0.006362   0.000012   0.000005   0.000331   0.000000   0.000000
    34  O   -0.000551  -0.014895   0.000110  -0.007150  -0.000001  -0.000001
    35  H   -0.000168   0.000238  -0.000020   0.001449   0.000001  -0.000001
    36  H   -0.001603   0.003424  -0.000082   0.002898  -0.000000   0.000003
    37  O   -0.008506   0.001237   0.000000  -0.000794   0.000000  -0.000000
    38  H    0.001205  -0.000348   0.000000   0.000052  -0.000000  -0.000000
    39  H    0.008157   0.000618   0.000000   0.000783  -0.000000   0.000000
              13         14         15         16         17         18
     1  C    0.010376  -0.181791   0.522816  -0.003198   0.029748  -0.418007
     2  C    0.028072   0.228484  -0.764159   0.006943   0.034701   0.034037
     3  C    0.030834  -0.496188   0.146490   0.004668  -0.009702  -0.176117
     4  C   -0.168195   0.787000   0.101375   0.017601   0.004272   0.338750
     5  C    0.024614  -1.032070  -0.379117  -0.008295  -0.025918  -0.763482
     6  H    0.003486   0.000862  -0.000450  -0.000000  -0.000002   0.000186
     7  H   -0.000003  -0.005433  -0.028891   0.001224   0.004110   0.038382
     8  H   -0.000015   0.009384   0.005061   0.000003  -0.000042   0.000122
     9  H   -0.000126  -0.034059   0.027163   0.001005   0.000245  -0.003202
    10  C    0.438491  -0.014418  -0.074355  -0.001547  -0.000331   0.094164
    11  H   -0.020310   0.001548  -0.000288  -0.000016   0.000001   0.000548
    12  H   -0.019851   0.000655  -0.000633  -0.000000  -0.000000  -0.001580
    13  H    0.505199  -0.000397   0.001219  -0.000001  -0.000000  -0.000142
    14  N   -0.000397   7.053928   0.013636  -0.055474  -0.087943   0.498262
    15  C    0.001219   0.013636   6.521072   0.420406   0.445119  -0.652983
    16  H   -0.000001  -0.055474   0.420406   0.494277  -0.018368  -0.048931
    17  H   -0.000000  -0.087943   0.445119  -0.018368   0.409912  -0.038201
    18  C   -0.000142   0.498262  -0.652983  -0.048931  -0.038201   7.509766
    19  H   -0.000001  -0.017052  -0.009429  -0.002509   0.003877   0.430685
    20  H   -0.000000   0.000169  -0.025510  -0.006508  -0.002287   0.376763
    21  C    0.000088  -0.207405   0.180840   0.003832  -0.009677  -1.324883
    22  H   -0.000000  -0.001667  -0.008026  -0.000129   0.001010  -0.000731
    23  H   -0.000000   0.003684   0.007958  -0.000042  -0.000156  -0.058271
    24  S    0.000157   0.017068   0.005704   0.002738   0.002476   0.326347
    25  O   -0.000001  -0.061991   0.016210   0.000025   0.000889  -0.123202
    26  O   -0.000049   0.061550  -0.036584   0.000289  -0.002476   0.075036
    27  O    0.000011  -0.023490  -0.021585   0.001454   0.006569   0.092980
    28  O    0.000001   0.002117   0.001448  -0.000000  -0.000010   0.002997
    29  H   -0.000000  -0.000092  -0.000584   0.000000   0.000003  -0.000064
    30  H   -0.000000   0.000477  -0.000083  -0.000000  -0.000001  -0.002017
    31  O    0.000000   0.023580  -0.038052   0.000212   0.008155   0.056265
    32  H   -0.000000  -0.000463  -0.014513   0.000088   0.000579   0.004374
    33  H   -0.000000   0.017001   0.019690  -0.000042  -0.002381  -0.024529
    34  O    0.000002  -0.016721  -0.022065   0.000013   0.000216   0.008209
    35  H    0.000000   0.000661   0.003652  -0.000001  -0.000023  -0.001523
    36  H   -0.000001   0.010532   0.014733  -0.000026   0.000213  -0.014709
    37  O    0.000000  -0.004999   0.005046  -0.000025  -0.000874  -0.005608
    38  H   -0.000000   0.000354  -0.001026   0.000001   0.000010   0.000329
    39  H    0.000000   0.005121   0.000605   0.000005   0.000022   0.002855
              19         20         21         22         23         24
     1  C    0.016329   0.002466   0.321850   0.005049   0.000094  -0.112910
     2  C   -0.005413   0.004163  -0.172684   0.000213   0.001413   0.085053
     3  C   -0.005077  -0.000699   0.087673  -0.001091  -0.000316  -0.072553
     4  C   -0.021899  -0.012492  -0.429871  -0.000846   0.004153   0.400405
     5  C   -0.001521   0.017457   0.814332  -0.013810  -0.001758  -0.657487
     6  H   -0.000001   0.000000   0.000058  -0.000000   0.000000   0.000238
     7  H   -0.000115  -0.000130  -0.023432   0.000261   0.000007   0.011167
     8  H    0.000000  -0.000001   0.000058  -0.000002  -0.000000   0.001171
     9  H    0.005842  -0.000623  -0.010386   0.000090   0.000038   0.011021
    10  C    0.000627  -0.000664  -0.014698   0.000132   0.000025  -0.002405
    11  H    0.000055   0.000000  -0.000207   0.000000  -0.000000   0.000318
    12  H   -0.000003   0.000002   0.001264   0.000000  -0.000000  -0.001621
    13  H   -0.000001  -0.000000   0.000088  -0.000000  -0.000000   0.000157
    14  N   -0.017052   0.000169  -0.207405  -0.001667   0.003684   0.017068
    15  C   -0.009429  -0.025510   0.180840  -0.008026   0.007958   0.005704
    16  H   -0.002509  -0.006508   0.003832  -0.000129  -0.000042   0.002738
    17  H    0.003877  -0.002287  -0.009677   0.001010  -0.000156   0.002476
    18  C    0.430685   0.376763  -1.324883  -0.000731  -0.058271   0.326347
    19  H    0.503662  -0.029452  -0.036698   0.004505  -0.005006   0.000340
    20  H   -0.029452   0.510893  -0.003872  -0.005729  -0.004358  -0.000691
    21  C   -0.036698  -0.003872   7.476418   0.406032   0.433648  -0.636280
    22  H    0.004505  -0.005729   0.406032   0.434749  -0.024570  -0.044657
    23  H   -0.005006  -0.004358   0.433648  -0.024570   0.460726  -0.043709
    24  S    0.000340  -0.000691  -0.636280  -0.044657  -0.043709  14.691192
    25  O    0.000771   0.000249  -0.023161   0.002254   0.008231   0.363572
    26  O   -0.007039   0.000291  -0.140693  -0.003502   0.008402   0.287622
    27  O    0.003544   0.000178  -0.215721   0.021996  -0.003749   0.104968
    28  O    0.000001  -0.000001  -0.003553   0.000150   0.000035   0.012753
    29  H    0.000001   0.000000  -0.006931   0.000029   0.000003  -0.001661
    30  H   -0.000004   0.000001   0.004013  -0.000120   0.000011   0.012793
    31  O   -0.000440   0.000028  -0.028298  -0.000310   0.000047   0.001355
    32  H    0.000001  -0.000002  -0.004397   0.000077   0.000005   0.001217
    33  H    0.000197  -0.000206   0.009404   0.001216   0.000169   0.017499
    34  O   -0.000001  -0.000007   0.010083  -0.000026   0.000018  -0.026353
    35  H    0.000001   0.000000  -0.001801   0.000001  -0.000001   0.002217
    36  H    0.000019   0.000020  -0.001020  -0.000077  -0.000029   0.015651
    37  O    0.000001   0.000002   0.002648  -0.000024   0.000002  -0.003061
    38  H   -0.000000  -0.000000  -0.000388   0.000002   0.000000  -0.000023
    39  H   -0.000003  -0.000001  -0.002214   0.000015  -0.000000   0.006950
              25         26         27         28         29         30
     1  C   -0.027388  -0.111614  -0.271424  -0.005505  -0.001716   0.001785
     2  C    0.051562   0.089015   0.232235   0.000509   0.001566  -0.001644
     3  C    0.013744  -0.017114  -0.087108  -0.000447   0.001243   0.000785
     4  C   -0.004500   0.028508   0.041514   0.008156  -0.000385  -0.001584
     5  C    0.024543   0.010348  -0.089115  -0.013659   0.000937   0.002297
     6  H   -0.000008   0.000124  -0.000046  -0.000003   0.000001   0.000001
     7  H   -0.000660   0.003431   0.011885   0.000015  -0.000021  -0.000007
     8  H   -0.000018  -0.000676  -0.002633  -0.000015   0.000060   0.000001
     9  H    0.000316  -0.011706   0.000661   0.000009  -0.000001  -0.000004
    10  C   -0.005736  -0.034632   0.006424   0.000480   0.000108  -0.000026
    11  H    0.000005  -0.000382   0.000041  -0.000000  -0.000000  -0.000000
    12  H   -0.000052   0.001033  -0.000099  -0.000001  -0.000000   0.000001
    13  H   -0.000001  -0.000049   0.000011   0.000001  -0.000000  -0.000000
    14  N   -0.061991   0.061550  -0.023490   0.002117  -0.000092   0.000477
    15  C    0.016210  -0.036584  -0.021585   0.001448  -0.000584  -0.000083
    16  H    0.000025   0.000289   0.001454  -0.000000   0.000000  -0.000000
    17  H    0.000889  -0.002476   0.006569  -0.000010   0.000003  -0.000001
    18  C   -0.123202   0.075036   0.092980   0.002997  -0.000064  -0.002017
    19  H    0.000771  -0.007039   0.003544   0.000001   0.000001  -0.000004
    20  H    0.000249   0.000291   0.000178  -0.000001   0.000000   0.000001
    21  C   -0.023161  -0.140693  -0.215721  -0.003553  -0.006931   0.004013
    22  H    0.002254  -0.003502   0.021996   0.000150   0.000029  -0.000120
    23  H    0.008231   0.008402  -0.003749   0.000035   0.000003   0.000011
    24  S    0.363572   0.287622   0.104968   0.012753  -0.001661   0.012793
    25  O    8.404374  -0.092508  -0.072024  -0.029825   0.009889   0.024756
    26  O   -0.092508   8.557420  -0.006042  -0.007413  -0.001274   0.001388
    27  O   -0.072024  -0.006042   9.159006   0.007781   0.002981   0.006115
    28  O   -0.029825  -0.007413   0.007781   8.036834   0.279863   0.312832
    29  H    0.009889  -0.001274   0.002981   0.279863   0.416011  -0.017824
    30  H    0.024756   0.001388   0.006115   0.312832  -0.017824   0.330946
    31  O   -0.002290   0.004910   0.049282   0.000004   0.000031  -0.000075
    32  H    0.000430  -0.000120   0.013820   0.000002   0.000036   0.000000
    33  H   -0.003825  -0.001476  -0.027579   0.000538  -0.000042   0.000202
    34  O   -0.005968   0.009132   0.050596   0.035570  -0.028807  -0.008018
    35  H   -0.001821  -0.001393  -0.007715  -0.011175   0.008676   0.001011
    36  H    0.008298  -0.016010  -0.021230  -0.004471   0.031463   0.006009
    37  O   -0.000444   0.000735   0.008056   0.000262  -0.000728  -0.000014
    38  H    0.000009   0.000003   0.000564   0.000007   0.000066  -0.000001
    39  H   -0.000047  -0.000257   0.002783  -0.000287   0.001791  -0.000022
              31         32         33         34         35         36
     1  C   -0.088636  -0.053268   0.060001  -0.379276   0.024988   0.160935
     2  C    0.027966   0.051700  -0.069712   0.594485  -0.055581  -0.229723
     3  C   -0.019194  -0.004553   0.006892  -0.124095   0.003070   0.056046
     4  C    0.020662   0.002734  -0.001946   0.032535  -0.001565  -0.020076
     5  C   -0.038396  -0.001858   0.002064  -0.032796   0.015144   0.028508
     6  H    0.000003   0.000002  -0.000003  -0.000291   0.000055   0.000032
     7  H    0.050638   0.012238  -0.006362  -0.000551  -0.000168  -0.001603
     8  H    0.000199  -0.000227   0.000012  -0.014895   0.000238   0.003424
     9  H   -0.000010   0.000004   0.000005   0.000110  -0.000020  -0.000082
    10  C    0.000674   0.000084   0.000331  -0.007150   0.001449   0.002898
    11  H   -0.000000   0.000000   0.000000  -0.000001   0.000001  -0.000000
    12  H   -0.000000  -0.000000   0.000000  -0.000001  -0.000001   0.000003
    13  H    0.000000  -0.000000  -0.000000   0.000002   0.000000  -0.000001
    14  N    0.023580  -0.000463   0.017001  -0.016721   0.000661   0.010532
    15  C   -0.038052  -0.014513   0.019690  -0.022065   0.003652   0.014733
    16  H    0.000212   0.000088  -0.000042   0.000013  -0.000001  -0.000026
    17  H    0.008155   0.000579  -0.002381   0.000216  -0.000023   0.000213
    18  C    0.056265   0.004374  -0.024529   0.008209  -0.001523  -0.014709
    19  H   -0.000440   0.000001   0.000197  -0.000001   0.000001   0.000019
    20  H    0.000028  -0.000002  -0.000206  -0.000007   0.000000   0.000020
    21  C   -0.028298  -0.004397   0.009404   0.010083  -0.001801  -0.001020
    22  H   -0.000310   0.000077   0.001216  -0.000026   0.000001  -0.000077
    23  H    0.000047   0.000005   0.000169   0.000018  -0.000001  -0.000029
    24  S    0.001355   0.001217   0.017499  -0.026353   0.002217   0.015651
    25  O   -0.002290   0.000430  -0.003825  -0.005968  -0.001821   0.008298
    26  O    0.004910  -0.000120  -0.001476   0.009132  -0.001393  -0.016010
    27  O    0.049282   0.013820  -0.027579   0.050596  -0.007715  -0.021230
    28  O    0.000004   0.000002   0.000538   0.035570  -0.011175  -0.004471
    29  H    0.000031   0.000036  -0.000042  -0.028807   0.008676   0.031463
    30  H   -0.000075   0.000000   0.000202  -0.008018   0.001011   0.006009
    31  O    7.974889   0.324192   0.281928   0.002755  -0.000199  -0.016269
    32  H    0.324192   0.374760  -0.033354   0.005114  -0.000495  -0.004924
    33  H    0.281928  -0.033354   0.398731  -0.018853   0.001886   0.028958
    34  O    0.002755   0.005114  -0.018853   8.329847   0.231806   0.044425
    35  H   -0.000199  -0.000495   0.001886   0.231806   0.438860   0.038339
    36  H   -0.016269  -0.004924   0.028958   0.044425   0.038339   0.496099
    37  O    0.008027  -0.018025   0.000096  -0.041891   0.002650   0.001209
    38  H   -0.000124  -0.000062   0.000111   0.009454  -0.000314  -0.000147
    39  H    0.000808  -0.001718  -0.000170  -0.009256   0.005395   0.019383
              37         38         39
     1  C    0.035342  -0.008861   0.021740
     2  C   -0.019955   0.013193  -0.029169
     3  C    0.007971  -0.001851  -0.022786
     4  C   -0.005015   0.000982   0.011891
     5  C   -0.002377   0.000337  -0.014885
     6  H    0.000023  -0.000001   0.000083
     7  H   -0.008506   0.001205   0.008157
     8  H    0.001237  -0.000348   0.000618
     9  H    0.000000   0.000000   0.000000
    10  C   -0.000794   0.000052   0.000783
    11  H    0.000000  -0.000000  -0.000000
    12  H   -0.000000  -0.000000   0.000000
    13  H    0.000000  -0.000000   0.000000
    14  N   -0.004999   0.000354   0.005121
    15  C    0.005046  -0.001026   0.000605
    16  H   -0.000025   0.000001   0.000005
    17  H   -0.000874   0.000010   0.000022
    18  C   -0.005608   0.000329   0.002855
    19  H    0.000001  -0.000000  -0.000003
    20  H    0.000002  -0.000000  -0.000001
    21  C    0.002648  -0.000388  -0.002214
    22  H   -0.000024   0.000002   0.000015
    23  H    0.000002   0.000000  -0.000000
    24  S   -0.003061  -0.000023   0.006950
    25  O   -0.000444   0.000009  -0.000047
    26  O    0.000735   0.000003  -0.000257
    27  O    0.008056   0.000564   0.002783
    28  O    0.000262   0.000007  -0.000287
    29  H   -0.000728   0.000066   0.001791
    30  H   -0.000014  -0.000001  -0.000022
    31  O    0.008027  -0.000124   0.000808
    32  H   -0.018025  -0.000062  -0.001718
    33  H    0.000096   0.000111  -0.000170
    34  O   -0.041891   0.009454  -0.009256
    35  H    0.002650  -0.000314   0.005395
    36  H    0.001209  -0.000147   0.019383
    37  O    8.208111   0.276827   0.284917
    38  H    0.276827   0.406684  -0.018681
    39  H    0.284917  -0.018681   0.332604
 Mulliken charges:
               1
     1  C    0.121216
     2  C   -0.582338
     3  C   -0.404176
     4  C    0.741092
     5  C   -0.239569
     6  H    0.156792
     7  H    0.188059
     8  H    0.201792
     9  H    0.174192
    10  C   -0.827756
    11  H    0.186012
    12  H    0.213056
    13  H    0.166542
    14  N    0.505580
    15  C   -0.381911
    16  H    0.190329
    17  H    0.246266
    18  C   -0.232878
    19  H    0.171207
    20  H    0.180551
    21  C   -0.453971
    22  H    0.227532
    23  H    0.213298
    24  S    1.221419
    25  O   -0.474656
    26  O   -0.646275
    27  O   -0.975882
    28  O   -0.625996
    29  H    0.305372
    30  H    0.326018
    31  O   -0.604316
    32  H    0.346524
    33  H    0.343549
    34  O   -0.627350
    35  H    0.303696
    36  H    0.363197
    37  O   -0.730822
    38  H    0.321638
    39  H    0.392968
 Sum of Mulliken charges =  -0.00000
 Mulliken charges with hydrogens summed into heavy atoms:
               1
     1  C    0.309275
     2  C   -0.380546
     3  C   -0.247384
     4  C    0.741092
     5  C   -0.065377
    10  C   -0.262146
    14  N    0.505580
    15  C    0.054684
    18  C    0.118880
    21  C   -0.013140
    24  S    1.221419
    25  O   -0.474656
    26  O   -0.646275
    27  O   -0.975882
    28  O    0.005394
    31  O    0.085758
    34  O    0.039543
    37  O   -0.016216
         Mulliken charges condensed to fragments:
      1     -0.114477
      2      0.005394
      3      0.085758
      4      0.039543
      5     -0.016216
 Electronic spatial extent (au):  <R**2>=         167208.8743
 Charge=             -0.0000 electrons
 Dipole moment (field-independent basis, Debye):
    X=             -6.4217    Y=             -8.0372    Z=              5.7755  Tot=             11.7980
 Quadrupole moment (field-independent basis, Debye-Ang):
   XX=           -259.0848   YY=           -281.4094   ZZ=              6.5359
   XY=           -146.7899   XZ=              9.3968   YZ=            -10.8404
 Traceless Quadrupole moment (field-independent basis, Debye-Ang):
   XX=            -81.0987   YY=           -103.4233   ZZ=            184.5220
   XY=           -146.7899   XZ=              9.3968   YZ=            -10.8404
 Octapole moment (field-independent basis, Debye-Ang**2):
  XXX=          -5631.0749  YYY=          -6229.7726  ZZZ=          -1464.1823  XYY=          -3447.0151
  XXY=          -3573.5187  XXZ=          -1665.9339  XZZ=           -193.3672  YZZ=           -564.6777
  YYZ=          -1920.7449  XYZ=           -620.3528
 Hexadecapole moment (field-independent basis, Debye-Ang**3):
 XXXX=         -97682.1008 YYYY=        -114997.0075 ZZZZ=         -41506.7679 XXXY=         -68986.1533
 XXXZ=         -44829.4888 YYYX=         -67881.4022 YYYZ=         -50230.6005 ZZZX=         -14215.7438
 ZZZY=         -20816.5929 XXYY=         -57531.3937 XXZZ=         -17681.3886 YYZZ=         -23178.3770
 XXYZ=         -25288.2343 YYXZ=         -24105.4524 ZZXY=          -8594.5841
 N-N= 1.793658569562D+03 E-N=-6.728923531032D+03  KE= 1.330759548155D+03
 No NMR shielding tensors so no spin-rotation constants.
 Leave Link  601 at Sun Feb 19 23:05:01 2023, MaxMem=  6710886400 cpu:               4.4 elap:               0.2
 (Enter /data0/home/software/g16/l122.exe)
 CPIOFr:  IOpCl= 0 IRwI=-1 IRwCP=  731 ICalc= -1 LCPTot=      590859 Len1MO=     1550684 IndFrg=      590859
 CPIOFr:  IOpCl= 0 IRwI=-1 IRwCP=  731 ICalc=  0 LCPTot=      590859 Len1MO=     1550684 IndFrg=     2141543
 Counterpoise: doing calculation for fragment   1 using the basis set of the full-system, NewBq=T
 Leave Link  122 at Sun Feb 19 23:05:01 2023, MaxMem=  6710886400 cpu:               0.6 elap:               0.0
 (Enter /data0/home/software/g16/l301.exe)
 Basis read from rwf:  (5D, 7F)
 No pseudopotential information found on rwf file.
   620 basis functions,   938 primitive gaussians,   656 cartesian basis functions
    57 alpha electrons       57 beta electrons
       nuclear repulsion energy      1128.5026052197 Hartrees.
 IExCor= 4336 DFT=T Ex+Corr=M062X ExCW=0 ScaHFX=  0.540000
 ScaDFX=  1.000000  1.000000  1.000000  1.000000 ScalE2=  1.000000  1.000000
 IRadAn=      5 IRanWt=     -1 IRanGd=            0 ICorTp=0 IEmpDi=131
 NAtoms=   39 NActive=   39 NUniq=   39 SFac= 1.00D+00 NAtFMM=   60 NAOKFM=F Big=F
 Integral buffers will be    131072 words long.
 Raffenetti 2 integral format.
 Two-electron integral symmetry is turned off.
 R6Disp:  Grimme-D3 Dispersion energy=       -0.0014392261 Hartrees.
 Nuclear repulsion after empirical dispersion term =     1128.5011659936 Hartrees.
 No density basis found on file   718.
 Leave Link  301 at Sun Feb 19 23:05:01 2023, MaxMem=  6710886400 cpu:               1.3 elap:               0.1
 (Enter /data0/home/software/g16/l302.exe)
 NPDir=0 NMtPBC=     1 NCelOv=     1 NCel=       1 NClECP=     1 NCelD=      1
         NCelK=      1 NCelE2=     1 NClLst=     1 CellRange=     0.0.
 One-electron integrals computed using PRISM.
 NBasis=   620 RedAO= T EigKep=  1.66D-06  NBF=   620
 NBsUse=   620 1.00D-06 EigRej= -1.00D+00 NBFU=   620
 Precomputing XC quadrature grid using
 IXCGrd= 4 IRadAn=           5 IRanWt=          -1 IRanGd=           0 AccXCQ= 0.00D+00.
 Generated NRdTot=       0 NPtTot=           0 NUsed=           0 NTot=          32
 NSgBfM=   652   652   652   652   652 MxSgAt=    39 MxSgA2=    39.
 Leave Link  302 at Sun Feb 19 23:05:02 2023, MaxMem=  6710886400 cpu:              17.5 elap:               0.7
 (Enter /data0/home/software/g16/l303.exe)
 DipDrv:  MaxL=1.
 Leave Link  303 at Sun Feb 19 23:05:02 2023, MaxMem=  6710886400 cpu:               1.6 elap:               0.1
 (Enter /data0/home/software/g16/l401.exe)
 ExpMin= 4.05D-02 ExpMax= 9.34D+04 ExpMxC= 3.17D+03 IAcc=3 IRadAn=         5 AccDes= 0.00D+00
 Harris functional with IExCor= 1009 and IRadAn=       5 diagonalized for initial guess.
 HarFok:  IExCor= 1009 AccDes= 0.00D+00 IRadAn=         5 IDoV= 1 UseB2=F ITyADJ=14
 ICtDFT=  3500011 ScaDFX=  1.000000  1.000000  1.000000  1.000000
 FoFCou: FMM=F IPFlag=           0 FMFlag=      100000 FMFlg1=           0
         NFxFlg=           0 DoJE=T BraDBF=F KetDBF=T FulRan=T
         wScrn=  0.000000 ICntrl=       500 IOpCl=  0 I1Cent=   200000004 NGrid=           0
         NMat0=    1 NMatS0=      1 NMatT0=    0 NMatD0=    1 NMtDS0=    0 NMtDT0=    0
 Symmetry not used in FoFCou.
 Harris En= -1028.88680368584    
 JPrj=0 DoOrth=F DoCkMO=F.
 Leave Link  401 at Sun Feb 19 23:05:05 2023, MaxMem=  6710886400 cpu:              70.1 elap:               3.0
 (Enter /data0/home/software/g16/l502.exe)
 Two-electron integral symmetry not used.
 Closed shell SCF:
 Using DIIS extrapolation, IDIIS=  1040.
[...]
    21  C    0.000000
    24  S    0.000000
    25  O    0.000000
    26  O    0.000000
    27  O    0.000000
    28  O    0.000000
    31  O    0.000000
    34  O   -0.000000
    37  O    0.000000
         Mulliken charges condensed to fragments:
      1      0.000000
      2      0.000000
      3      0.000000
      4     -0.000000
      5      0.000000
 Electronic spatial extent (au):  <R**2>=          14352.3785
 Charge=              0.0000 electrons
 Dipole moment (field-independent basis, Debye):
    X=              0.0912    Y=             -2.1185    Z=             -0.4064  Tot=              2.1590
 Quadrupole moment (field-independent basis, Debye-Ang):
   XX=             -4.4949   YY=            -61.3194   ZZ=            -14.6533
   XY=            -21.5232   XZ=             -1.7002   YZ=            -28.4193
 Traceless Quadrupole moment (field-independent basis, Debye-Ang):
   XX=             22.3276   YY=            -34.4969   ZZ=             12.1692
   XY=            -21.5232   XZ=             -1.7002   YZ=            -28.4193
 Octapole moment (field-independent basis, Debye-Ang**2):
  XXX=           -173.3478  YYY=          -1318.4425  ZZZ=           -335.4265  XYY=           -640.9129
  XXY=           -302.4838  XXZ=            -60.7954  XZZ=           -109.3081  YZZ=           -444.0212
  YYZ=           -738.4035  XYZ=           -270.6402
 Hexadecapole moment (field-independent basis, Debye-Ang**3):
 XXXX=          -3892.7143 YYYY=         -25005.8667 ZZZZ=          -6291.2630 XXXY=          -4882.9063
 XXXZ=          -1840.5631 YYYX=         -13894.2715 YYYZ=         -15293.6209 ZZZX=          -2861.7533
 ZZZY=          -7147.8752 XXYY=          -7803.2851 XXZZ=          -1444.3524 YYZZ=          -9815.4141
 XXYZ=          -3466.9854 YYXZ=          -7469.1512 ZZXY=          -4150.0871
 N-N= 8.973973160206D+00 E-N=-1.987761825804D+02  KE= 7.614884953185D+01
 No NMR shielding tensors so no spin-rotation constants.
 Leave Link  601 at Sun Feb 19 23:15:58 2023, MaxMem=  6710886400 cpu:               1.7 elap:               0.1
 (Enter /data0/home/software/g16/l122.exe)
 CPIOFr:  IOpCl= 0 IRwI=-1 IRwCP=  731 ICalc=  9 LCPTot=      590859 Len1MO=     1550684 IndFrg=    16097699
 Counterpoise: doing calculation for fragment   5 using the basis set of the fragment.
 Leave Link  122 at Sun Feb 19 23:15:58 2023, MaxMem=  6710886400 cpu:               0.3 elap:               0.0
 (Enter /data0/home/software/g16/l301.exe)
 Basis read from rwf:  (5D, 7F)
 No pseudopotential information found on rwf file.
    39 basis functions,    58 primitive gaussians,    41 cartesian basis functions
     5 alpha electrons        5 beta electrons
       nuclear repulsion energy         9.0793442529 Hartrees.
 IExCor= 4336 DFT=T Ex+Corr=M062X ExCW=0 ScaHFX=  0.540000
 ScaDFX=  1.000000  1.000000  1.000000  1.000000 ScalE2=  1.000000  1.000000
 IRadAn=      5 IRanWt=     -1 IRanGd=            0 ICorTp=0 IEmpDi=131
 NAtoms=   39 NActive=    3 NUniq=    3 SFac= 1.00D+00 NAtFMM=   60 NAOKFM=F Big=F
 Integral buffers will be    131072 words long.
 Raffenetti 2 integral format.
 Two-electron integral symmetry is turned off.
 R6Disp:  Grimme-D3 Dispersion energy=       -0.0000000082 Hartrees.
 Nuclear repulsion after empirical dispersion term =        9.0793442448 Hartrees.
 No density basis found on file   718.
 Leave Link  301 at Sun Feb 19 23:15:59 2023, MaxMem=  6710886400 cpu:               1.3 elap:               0.1
 (Enter /data0/home/software/g16/l302.exe)
 NPDir=0 NMtPBC=     1 NCelOv=     1 NCel=       1 NClECP=     1 NCelD=      1
         NCelK=      1 NCelE2=     1 NClLst=     1 CellRange=     0.0.
 One-electron integrals computed using PRISM.
 NBasis=    39 RedAO= T EigKep=  3.10D-03  NBF=    39
 NBsUse=    39 1.00D-06 EigRej= -1.00D+00 NBFU=    39
 Precomputing XC quadrature grid using
 IXCGrd= 4 IRadAn=           5 IRanWt=          -1 IRanGd=           0 AccXCQ= 0.00D+00.
 Generated NRdTot=       0 NPtTot=           0 NUsed=           0 NTot=          32
 NSgBfM=    41    41    41    41    41 MxSgAt=     3 MxSgA2=     3.
 Leave Link  302 at Sun Feb 19 23:15:59 2023, MaxMem=  6710886400 cpu:               2.3 elap:               0.1
 (Enter /data0/home/software/g16/l303.exe)
 DipDrv:  MaxL=1.
 Leave Link  303 at Sun Feb 19 23:15:59 2023, MaxMem=  6710886400 cpu:               0.4 elap:               0.0
 (Enter /data0/home/software/g16/l401.exe)
 ExpMin= 8.45D-02 ExpMax= 8.59D+03 ExpMxC= 1.30D+03 IAcc=3 IRadAn=         5 AccDes= 0.00D+00
 Harris functional with IExCor= 1009 and IRadAn=       5 diagonalized for initial guess.
 HarFok:  IExCor= 1009 AccDes= 0.00D+00 IRadAn=         5 IDoV= 1 UseB2=F ITyADJ=14
 ICtDFT=  3500011 ScaDFX=  1.000000  1.000000  1.000000  1.000000
 FoFCou: FMM=F IPFlag=           0 FMFlag=      100000 FMFlg1=           0
         NFxFlg=           0 DoJE=T BraDBF=F KetDBF=T FulRan=T
         wScrn=  0.000000 ICntrl=       500 IOpCl=  0 I1Cent=   200000004 NGrid=           0
         NMat0=    1 NMatS0=      1 NMatT0=    0 NMatD0=    1 NMtDS0=    0 NMtDT0=    0
 Symmetry not used in FoFCou.
 Harris En= -76.4160292992053    
 JPrj=0 DoOrth=F DoCkMO=F.
 Leave Link  401 at Sun Feb 19 23:15:59 2023, MaxMem=  6710886400 cpu:               2.9 elap:               0.1
 (Enter /data0/home/software/g16/l502.exe)
 Keep R1 ints in memory in canonical form, NReq=21044796.
 FoFCou: FMM=F IPFlag=           0 FMFlag=           0 FMFlg1=           0
         NFxFlg=           0 DoJE=F BraDBF=F KetDBF=F FulRan=T
         wScrn=  0.000000 ICntrl=       600 IOpCl=  0 I1Cent=           0 NGrid=           0
         NMat0=    1 NMatS0=    780 NMatT0=    0 NMatD0=    1 NMtDS0=    0 NMtDT0=    0
 Symmetry not used in FoFCou.
 Two-electron integral symmetry not used.
 Closed shell SCF:
 Using DIIS extrapolation, IDIIS=  1040.
 NGot=  6710886400 LenX=  6710575878 LenY=  6710573756
 Requested convergence on RMS density matrix=1.00D-08 within 128 cycles.
 Requested convergence on MAX density matrix=1.00D-06.
 Requested convergence on             energy=1.00D-06.
 No special actions if energy rises.
 Integral accuracy reduced to 1.0D-05 until final iterations.

 Cycle   1  Pass 0  IDiag  1:
 E= -76.3458181244495    
 DIIS: error= 7.01D-02 at cycle   1 NSaved=   1.
 NSaved= 1 IEnMin= 1 EnMin= -76.3458181244495     IErMin= 1 ErrMin= 7.01D-02
 ErrMax= 7.01D-02  0.00D+00 EMaxC= 1.00D-01 BMatC= 1.21D-01 BMatP= 1.21D-01
 IDIUse=3 WtCom= 2.99D-01 WtEn= 7.01D-01
 Coeff-Com:  0.100D+01
 Coeff-En:   0.100D+01
 Coeff:      0.100D+01
 Gap=     0.324 Goal=   None    Shift=    0.000
 GapD=    0.324 DampG=1.000 DampE=0.500 DampFc=0.5000 IDamp=-1.
 Damping current iteration by 5.00D-01
 RMSDP=7.88D-03 MaxDP=1.01D-01              OVMax= 1.68D-01

 Cycle   2  Pass 0  IDiag  1:
 E= -76.3771706423396     Delta-E=       -0.031352517890 Rises=F Damp=T
 DIIS: error= 1.12D-02 at cycle   2 NSaved=   2.
 NSaved= 2 IEnMin= 2 EnMin= -76.3771706423396     IErMin= 2 ErrMin= 1.12D-02
 ErrMax= 1.12D-02  0.00D+00 EMaxC= 1.00D-01 BMatC= 4.87D-03 BMatP= 1.21D-01
 IDIUse=3 WtCom= 8.88D-01 WtEn= 1.12D-01
 Coeff-Com:  0.834D-01 0.917D+00
 Coeff-En:   0.189D+00 0.811D+00
 Coeff:      0.952D-01 0.905D+00
 Gap=     0.456 Goal=   None    Shift=    0.000
 RMSDP=9.45D-04 MaxDP=1.41D-02 DE=-3.14D-02 OVMax= 1.01D-01

 Cycle   3  Pass 0  IDiag  1:
 E= -76.4211736201214     Delta-E=       -0.044002977782 Rises=F Damp=F
 DIIS: error= 2.21D-03 at cycle   3 NSaved=   3.
 NSaved= 3 IEnMin= 3 EnMin= -76.4211736201214     IErMin= 3 ErrMin= 2.21D-03
 ErrMax= 2.21D-03  0.00D+00 EMaxC= 1.00D-01 BMatC= 9.42D-05 BMatP= 4.87D-03
 IDIUse=3 WtCom= 9.78D-01 WtEn= 2.21D-02
 Coeff-Com: -0.201D-01 0.409D-01 0.979D+00
 Coeff-En:   0.000D+00 0.000D+00 0.100D+01
 Coeff:     -0.197D-01 0.400D-01 0.980D+00
 Gap=     0.461 Goal=   None    Shift=    0.000
 RMSDP=1.16D-04 MaxDP=1.04D-03 DE=-4.40D-02 OVMax= 3.35D-03

 Cycle   4  Pass 0  IDiag  1:
 E= -76.4212536860804     Delta-E=       -0.000080065959 Rises=F Damp=F
 DIIS: error= 4.19D-04 at cycle   4 NSaved=   4.
 NSaved= 4 IEnMin= 4 EnMin= -76.4212536860804     IErMin= 4 ErrMin= 4.19D-04
 ErrMax= 4.19D-04  0.00D+00 EMaxC= 1.00D-01 BMatC= 3.41D-06 BMatP= 9.42D-05
 IDIUse=3 WtCom= 9.96D-01 WtEn= 4.19D-03
 Coeff-Com: -0.202D-02-0.207D-02 0.166D+00 0.838D+00
 Coeff-En:   0.000D+00 0.000D+00 0.000D+00 0.100D+01
 Coeff:     -0.201D-02-0.207D-02 0.165D+00 0.839D+00
 Gap=     0.461 Goal=   None    Shift=    0.000
 RMSDP=2.23D-05 MaxDP=3.55D-04 DE=-8.01D-05 OVMax= 5.40D-04

 Cycle   5  Pass 0  IDiag  1:
 E= -76.4212557891586     Delta-E=       -0.000002103078 Rises=F Damp=F
 DIIS: error= 9.12D-05 at cycle   5 NSaved=   5.
 NSaved= 5 IEnMin= 5 EnMin= -76.4212557891586     IErMin= 5 ErrMin= 9.12D-05
 ErrMax= 9.12D-05  0.00D+00 EMaxC= 1.00D-01 BMatC= 8.64D-08 BMatP= 3.41D-06
 IDIUse=1 WtCom= 1.00D+00 WtEn= 0.00D+00
 Coeff-Com:  0.119D-02-0.183D-02-0.368D-01-0.706D-01 0.111D+01
 Coeff:      0.119D-02-0.183D-02-0.368D-01-0.706D-01 0.111D+01
 Gap=     0.462 Goal=   None    Shift=    0.000
 RMSDP=9.15D-06 MaxDP=1.04D-04 DE=-2.10D-06 OVMax= 2.07D-04

 Initial convergence to 1.0D-05 achieved.  Increase integral accuracy.
 Cycle   6  Pass 1  IDiag  1:
 E= -76.4212453381611     Delta-E=        0.000010450998 Rises=F Damp=F
 DIIS: error= 1.42D-05 at cycle   1 NSaved=   1.
 NSaved= 1 IEnMin= 1 EnMin= -76.4212453381611     IErMin= 1 ErrMin= 1.42D-05
 ErrMax= 1.42D-05  0.00D+00 EMaxC= 1.00D-01 BMatC= 9.18D-09 BMatP= 9.18D-09
 IDIUse=1 WtCom= 1.00D+00 WtEn= 0.00D+00
 Coeff-Com:  0.100D+01
 Coeff:      0.100D+01
 Gap=     0.461 Goal=   None    Shift=    0.000
 RMSDP=9.15D-06 MaxDP=1.04D-04 DE= 1.05D-05 OVMax= 4.78D-05

 Cycle   7  Pass 1  IDiag  1:
 E= -76.4212453456217     Delta-E=       -0.000000007461 Rises=F Damp=F
 DIIS: error= 1.36D-05 at cycle   2 NSaved=   2.
 NSaved= 2 IEnMin= 2 EnMin= -76.4212453456217     IErMin= 2 ErrMin= 1.36D-05
 ErrMax= 1.36D-05  0.00D+00 EMaxC= 1.00D-01 BMatC= 2.54D-09 BMatP= 9.18D-09
 IDIUse=1 WtCom= 1.00D+00 WtEn= 0.00D+00
 Coeff-Com:  0.258D+00 0.742D+00
 Coeff:      0.258D+00 0.742D+00
 Gap=     0.462 Goal=   None    Shift=    0.000
 RMSDP=8.53D-07 MaxDP=1.43D-05 DE=-7.46D-09 OVMax= 2.27D-05

 Cycle   8  Pass 1  IDiag  1:
 E= -76.4212453468272     Delta-E=       -0.000000001206 Rises=F Damp=F
 DIIS: error= 5.55D-06 at cycle   3 NSaved=   3.
 NSaved= 3 IEnMin= 3 EnMin= -76.4212453468272     IErMin= 3 ErrMin= 5.55D-06
 ErrMax= 5.55D-06  0.00D+00 EMaxC= 1.00D-01 BMatC= 9.73D-10 BMatP= 2.54D-09
 IDIUse=1 WtCom= 1.00D+00 WtEn= 0.00D+00
 Coeff-Com: -0.547D-01 0.378D+00 0.677D+00
 Coeff:     -0.547D-01 0.378D+00 0.677D+00
 Gap=     0.462 Goal=   None    Shift=    0.000
 RMSDP=3.69D-07 MaxDP=5.11D-06 DE=-1.21D-09 OVMax= 9.68D-06

 Cycle   9  Pass 1  IDiag  1:
 E= -76.4212453475010     Delta-E=       -0.000000000674 Rises=F Damp=F
 DIIS: error= 4.29D-07 at cycle   4 NSaved=   4.
 NSaved= 4 IEnMin= 4 EnMin= -76.4212453475010     IErMin= 4 ErrMin= 4.29D-07
 ErrMax= 4.29D-07  0.00D+00 EMaxC= 1.00D-01 BMatC= 2.86D-12 BMatP= 9.73D-10
 IDIUse=1 WtCom= 1.00D+00 WtEn= 0.00D+00
 Coeff-Com: -0.330D-03-0.427D-01-0.614D-01 0.110D+01
 Coeff:     -0.330D-03-0.427D-01-0.614D-01 0.110D+01
 Gap=     0.462 Goal=   None    Shift=    0.000
 RMSDP=7.29D-08 MaxDP=5.97D-07 DE=-6.74D-10 OVMax= 1.70D-06

 Cycle  10  Pass 1  IDiag  1:
 E= -76.4212453475086     Delta-E=       -0.000000000008 Rises=F Damp=F
 DIIS: error= 8.86D-08 at cycle   5 NSaved=   5.
 NSaved= 5 IEnMin= 5 EnMin= -76.4212453475086     IErMin= 5 ErrMin= 8.86D-08
 ErrMax= 8.86D-08  0.00D+00 EMaxC= 1.00D-01 BMatC= 2.62D-13 BMatP= 2.86D-12
 IDIUse=1 WtCom= 1.00D+00 WtEn= 0.00D+00
 Coeff-Com:  0.315D-02-0.309D-01-0.504D-01 0.168D+00 0.910D+00
 Coeff:      0.315D-02-0.309D-01-0.504D-01 0.168D+00 0.910D+00
 Gap=     0.462 Goal=   None    Shift=    0.000
 RMSDP=1.77D-08 MaxDP=1.48D-07 DE=-7.50D-12 OVMax= 3.71D-07

 Cycle  11  Pass 1  IDiag  1:
 E= -76.4212453475089     Delta-E=       -0.000000000000 Rises=F Damp=F
 DIIS: error= 1.55D-08 at cycle   6 NSaved=   6.
 NSaved= 6 IEnMin= 6 EnMin= -76.4212453475089     IErMin= 6 ErrMin= 1.55D-08
 ErrMax= 1.55D-08  0.00D+00 EMaxC= 1.00D-01 BMatC= 4.49D-15 BMatP= 2.62D-13
 IDIUse=1 WtCom= 1.00D+00 WtEn= 0.00D+00
 Coeff-Com: -0.205D-04 0.116D-02 0.316D-02-0.298D-01-0.309D-01 0.106D+01
 Coeff:     -0.205D-04 0.116D-02 0.316D-02-0.298D-01-0.309D-01 0.106D+01
 Gap=     0.462 Goal=   None    Shift=    0.000
 RMSDP=2.77D-09 MaxDP=2.48D-08 DE=-3.13D-13 OVMax= 5.73D-08

 SCF Done:  E(RM062X) =  -76.4212453475     A.U. after   11 cycles
            NFock= 11  Conv=0.28D-08     -V/T= 2.0031
 KE= 7.618654692266D+01 PE=-1.990072604537D+02 EE= 3.732012393882D+01
 Leave Link  502 at Sun Feb 19 23:15:59 2023, MaxMem=  6710886400 cpu:               8.8 elap:               0.4
 (Enter /data0/home/software/g16/l601.exe)
 Copying SCF densities to generalized density rwf, IOpCl= 0 IROHF=0.

 **********************************************************************

            Population analysis using the SCF density.

 **********************************************************************

 Alpha  occ. eigenvalues --  -19.62610  -1.13202  -0.60761  -0.47345  -0.39947
 Alpha virt. eigenvalues --    0.06205   0.13278   0.17397   0.17954   0.18953
 Alpha virt. eigenvalues --    0.23248   0.50471   0.53725   0.97822   1.00374
 Alpha virt. eigenvalues --    1.06034   1.18971   1.19713   1.32586   1.33996
 Alpha virt. eigenvalues --    1.69036   1.73765   1.75851   2.06689   2.09837
 Alpha virt. eigenvalues --    2.34797   2.42510   2.54119   2.87819   3.01094
 Alpha virt. eigenvalues --    5.05679   5.46809   5.92170   6.78201   6.80360
 Alpha virt. eigenvalues --    6.86982   6.91423   7.09827  49.95691
          Condensed to atoms (all electrons):
              37         38         39
    37  O    7.918228   0.323747   0.317541
    38  H    0.323747   0.423666  -0.024380
    39  H    0.317541  -0.024380   0.424290
 Mulliken charges:
               1
     1  C    0.000000
     2  C    0.000000
     3  C    0.000000
     4  C    0.000000
     5  C    0.000000
     6  H    0.000000
     7  H    0.000000
     8  H    0.000000
     9  H    0.000000
    10  C    0.000000
    11  H    0.000000
    12  H    0.000000
    13  H    0.000000
    14  N    0.000000
    15  C    0.000000
    16  H    0.000000
    17  H    0.000000
    18  C    0.000000
    19  H    0.000000
    20  H    0.000000
    21  C    0.000000
    22  H    0.000000
    23  H    0.000000
    24  S    0.000000
    25  O    0.000000
    26  O    0.000000
    27  O    0.000000
    28  O    0.000000
    29  H    0.000000
    30  H    0.000000
    31  O    0.000000
    32  H    0.000000
    33  H    0.000000
    34  O    0.000000
    35  H    0.000000
    36  H    0.000000
    37  O   -0.559516
    38  H    0.276967
    39  H    0.282549
 Sum of Mulliken charges =  -0.00000
 Mulliken charges with hydrogens summed into heavy atoms:
               1
     1  C    0.000000
     2  C    0.000000
     3  C    0.000000
     4  C    0.000000
     5  C    0.000000
    10  C    0.000000
    14  N    0.000000
    15  C    0.000000
    18  C    0.000000
    21  C    0.000000
    24  S    0.000000
    25  O    0.000000
    26  O    0.000000
    27  O    0.000000
    28  O    0.000000
    31  O    0.000000
    34  O    0.000000
    37  O   -0.000000
         Mulliken charges condensed to fragments:
      1      0.000000
      2      0.000000
      3      0.000000
      4      0.000000
      5     -0.000000
 Electronic spatial extent (au):  <R**2>=          14212.6375
 Charge=             -0.0000 electrons
 Dipole moment (field-independent basis, Debye):
    X=              1.5766    Y=              1.3991    Z=             -0.0515  Tot=              2.1085
 Quadrupole moment (field-independent basis, Debye-Ang):
   XX=             20.2487   YY=             32.3927   ZZ=             -8.3021
   XY=             32.3058   XZ=             17.6586   YZ=             17.1720
 Traceless Quadrupole moment (field-independent basis, Debye-Ang):
   XX=              5.4689   YY=             17.6129   ZZ=            -23.0818
   XY=             32.3058   XZ=             17.6586   YZ=             17.1720
 Octapole moment (field-independent basis, Debye-Ang**2):
  XXX=            181.1146  YYY=            547.0218  ZZZ=           -278.1338  XYY=            540.5734
  XXY=            359.3938  XXZ=            224.8410  XZZ=            138.8255  YZZ=            115.0646
  YYZ=            408.6541  XYZ=            379.4578
 Hexadecapole moment (field-independent basis, Debye-Ang**3):
 XXXX=           1242.0115 YYYY=           7880.2544 ZZZZ=          -6540.6806 XXXY=           3109.5376
 XXXZ=           1952.6628 YYYX=           8109.3891 YYYZ=           7036.2113 ZZZX=             81.4799
 ZZZY=           -878.6094 XXYY=           5645.2902 XXZZ=           2002.8178 YYZZ=           3847.6264
 XXYZ=           4139.7954 YYXZ=           6496.6713 ZZXY=           3671.0268
 N-N= 9.079344244750D+00 E-N=-1.990072607351D+02  KE= 7.618654692266D+01
 No NMR shielding tensors so no spin-rotation constants.
 Leave Link  601 at Sun Feb 19 23:15:59 2023, MaxMem=  6710886400 cpu:               1.8 elap:               0.1
 (Enter /data0/home/software/g16/l122.exe)
 CPIOFr:  IOpCl= 0 IRwI=-1 IRwCP=  731 ICalc= 10 LCPTot=      590859 Len1MO=     1550684 IndFrg=    17648383
 Restoring MOs from calculation   1 to rwf.
 CPIOFr:  IOpCl= 0 IRwI=-2 IRwCP=  731 ICalc=  0 LCPTot=      590859 Len1MO=     1550684 IndFrg=     2141543
 Counterpoise corrected energy =   -1335.028345326827
                   BSSE energy =       0.006735333817
              sum of fragments =   -1334.955476809450
           complexation energy =     -49.95 kcal/mole (raw)
           complexation energy =     -45.73 kcal/mole (corrected)
 Leave Link  122 at Sun Feb 19 23:15:59 2023, MaxMem=  6710886400 cpu:               0.6 elap:               0.0
 (Enter /data0/home/software/g16/l9999.exe)
 1\1\GINC-LOCALHOST\SP\RM062X\6-311+G(2d,p)\C9H21N1O7S1\WUHANYU\19-Feb-
 2023\0\\#p M062X/6-311+G(2d,p) nosymm em=GD3 counterpoise=5\\Title Car
 d Required\\0,1\C,0,8.175345,10.466769,11.169255\C,0,9.072563,10.40825
 2,12.235161\C,0,9.837915,9.266034,12.443004\C,0,9.7077,8.189379,11.552
 713\C,0,8.820692,8.294221,10.48062\H,0,10.542256,9.212386,13.280805\H,
 0,7.555671,11.365472,10.991104\H,0,9.184838,11.287287,12.879314\H,0,8.
 750344,7.499684,9.728224\C,0,10.528162,6.960324,11.693283\H,0,9.922861
 ,6.050058,11.77148\H,0,11.200996,6.83992,10.818276\H,0,11.197826,6.994
 199,12.567287\N,0,8.046919,9.408556,10.31922\C,0,7.078757,9.49502,9.19
 8412\H,0,6.215387,8.83478,9.443723\H,0,6.673783,10.543322,9.146104\C,0
 ,7.65419,9.113907,7.820019\H,0,8.246355,8.174729,7.882331\H,0,6.797244
 ,8.867256,7.154531\C,0,8.483817,10.213852,7.16529\H,0,7.882947,11.1338
 17,7.02434\H,0,8.796165,9.909985,6.149224\S,0,9.940442,10.610466,8.147
 975\O,0,10.931477,11.295469,7.321094\O,0,10.3601,9.302262,8.721606\O,0
 ,9.361534,11.506914,9.211485\O,0,12.71764,12.879331,8.878825\H,0,12.04
 5258,13.165905,9.510469\H,0,12.209927,12.420413,8.178345\O,0,6.99193,1
 2.912301,9.497603\H,0,7.193136,13.328503,10.343448\H,0,7.853634,12.541
 908,9.23185\O,0,10.585334,13.097865,10.955961\H,0,11.093028,12.419983,
 11.421373\H,0,10.122836,12.567151,10.250209\O,0,8.15789,13.526117,12.0
 72719\H,0,8.137648,14.418704,12.401065\H,0,9.069524,13.409953,11.71002
 8\\Version=ES64L-G16RevA.03\HF=-76.4212453\RMSD=2.770e-09\Dipole=-2.48
 53514,-3.2104359,2.2942415\Quadrupole=-59.5456518,-78.7995169,138.3451
 686,-109.1773518,8.2219078,-8.4060086\PG=C01 [X(C9H21N1O7S1)]\\@


 NATURE GIVES TO EVERY TIME AND SEASON SOME BEAUTY OF ITS OWN.

                                                    --DICKENS
 Job cpu time:       0 days  5 hours 35 minutes 24.3 seconds.
 Elapsed time:       0 days  0 hours 14 minutes  2.9 seconds.
 File lengths (MBytes):  RWF=    377 Int=      0 D2E=      0 Chk=    157 Scr=      1
 Normal termination of Gaussian 16 at Sun Feb 19 23:16:00 2023.
