          19
 G =       -0.289519 Gcorr = 0.084935 a.u. Nimag =   0 Frame:     1 Step:     1 Geom:     1
C          12.68142900     10.85874200      8.34059100
C          11.93909900     12.03970300      8.22955500
C          10.97492000     12.31406700      9.19888100
C          10.77937200     11.41159200     10.24122200
C          11.56430400     10.25114100     10.28258500
N          12.49795500      9.98580000      9.34976400
H          10.38052500     13.22537600      9.13962800
H          13.44957600     10.58666700      7.60746500
H          12.11182300     12.72449000      7.40514300
H          10.03355800     11.59605800     11.00891200
H          11.44845600      9.50163100     11.08129600
P          12.58087100      6.38370700      9.98567600
O          11.58955000      6.76560300     10.98251800
O          12.01562300      6.01381000      8.52988700
H          11.11127100      5.55678000      8.63433700
O          13.73194200      7.39681900      9.59228900
H          13.29194100      8.35013600      9.42391900
O          13.40436300      5.09356600     10.42687500
H          14.17343000      4.95432600      9.75946400
          19
 G =       -0.288962 Gcorr = 0.085746 a.u. Nimag =   0 Frame:     2 Step:     2 Geom:     2
C          12.94162900     10.25713800      8.48158700
C          11.66908500     10.58439400      7.99534100
C          10.67279900     10.91814500      8.91006300
C          10.96987100     10.92831700     10.27139900
C          12.26703800     10.59178900     10.67582500
N          13.23613000     10.25994700      9.79852600
H           9.66931500     11.16362900      8.56542400
H          13.75629900      9.95907200      7.81142900
H          11.46819900     10.56060000      6.93009200
H          10.21072500     11.17106800     11.00815000
H          12.55196600     10.56014900     11.73399600
P          12.38316200      7.02470000      9.90904400
O          11.34051600      7.25181300     10.89507500
O          12.18041000      7.75237000      8.48730300
H          11.19521800      7.77087400      8.24542400
O          13.87869400      7.46062700     10.22380200
H          13.93199800      8.51079300     10.22338000
O          12.55555600      5.48341400      9.56226200
H          13.39139700      5.37116500      8.97188400
          19
 G =       -0.289489 Gcorr = 0.084963 a.u. Nimag =   0 Frame:     3 Step:     3 Geom:     3
C          12.62998000     10.89202900      8.32577300
C          11.89851500     12.08467000      8.29766000
C          11.01555100     12.34937300      9.34396600
C          10.88758500     11.42619600     10.37872600
C          11.65645100     10.25515100     10.33456300
N          12.51158700      9.99883400      9.32687000
H          10.43158300     13.26929300      9.35032700
H          13.33589800     10.62699300      7.53015800
H          12.01758500     12.78567700      7.47738000
H          10.20576700     11.60306300     11.20546400
H          11.59179600      9.48957200     11.12383100
P          12.66158200      6.38524500      9.93568600
O          11.74996000      6.75777600     11.00922000
O          11.98431800      6.00447500      8.53142800
H          11.09537000      5.54029800      8.70991900
O          13.76422200      7.41124200      9.44835200
H          13.30058800      8.35928800      9.31776400
O          13.53397300      5.10624800     10.31030200
H          14.24769700      4.97458800      9.58261500
          19
 G =       -0.288958 Gcorr = 0.085750 a.u. Nimag =   0 Frame:     4 Step:     4 Geom:     4
C          12.91940900     10.28527600      8.48603400
C          11.63326400     10.61353300      8.03772300
C          10.66307600     10.94186100      8.98199300
C          10.99873600     10.94597800     10.33437400
C          12.30721200     10.60905900     10.70014600
N          13.25120800     10.28229200      9.79405900
H           9.64994800     11.18782800      8.66719800
H          13.71492000      9.99106300      7.79160500
H          11.40218000     10.59460800      6.97851500
H          10.26056900     11.18431600     11.09354300
H          12.62223300     10.57288500     11.74961000
P          12.40187400      7.04630800      9.91341900
O          11.38737800      7.26908800     10.92938600
O          12.15860800      7.77998400      8.50109500
H          11.16696300      7.79981200      8.28774700
O          13.90564700      7.48106200     10.18753100
H          13.95897100      8.53116400     10.19053900
O          12.56455300      5.50657700      9.55502100
H          13.38326300      5.39731400      8.94047100
          19
 G =       -0.288966 Gcorr = 0.085741 a.u. Nimag =   0 Frame:     5 Step:     5 Geom:     5
C          12.84129300     10.19819800      8.32023700
C          11.51575600     10.54430900      8.02687600
C          10.70542000     11.01005900      9.05991600
C          11.23436200     11.12874100     10.34355200
C          12.56970300     10.76496800     10.55337200
N          13.35978200     10.30587600      9.56146400
H           9.66643900     11.27397100      8.86783700
H          13.51645600      9.79915800      7.55438000
H          11.13237200     10.43416800      7.01863100
H          10.62337800     11.47561700     11.17084700
H          13.03273400     10.81532000     11.54584700
P          12.42764800      7.14196600     10.13308400
O          11.57967600      7.51062000     11.25379000
O          12.00681800      7.74647900      8.70146600
H          10.99594700      7.79314700      8.62917500
O          13.96913100      7.52805700     10.14626200
H          14.05804400      8.56950900     10.03222900
O          12.48423200      5.56873000      9.91523800
H          13.20082000      5.36111800      9.20580500
          19
 G =       -0.289126 Gcorr = 0.084628 a.u. Nimag =   0 Frame:     6 Step:     6 Geom:     6
C          12.92120000     10.37569100      8.34662000
C          11.55487600     10.53783100      8.08451000
C          10.71432400     10.89684500      9.13743300
C          11.25651800     11.10236100     10.40468500
C          12.63216900     10.91241300     10.58230200
N          13.45084100     10.54717900      9.57530800
H           9.64250700     10.99712800      8.97502600
H          13.62537700     10.07420700      7.56519600
H          11.15891000     10.35264300      7.09243100
H          10.62467100     11.36650400     11.24632300
H          13.10788200     11.03062900     11.56131500
P          12.10974300      7.32734500      9.94292200
O          11.27589700      7.85510700     11.00526000
O          11.73378800      7.94728600      8.52093500
H          12.02154000      7.29906600      7.78087000
O          13.68876500      7.51879600     10.07949600
H          13.91218600      8.52914500     10.10687700
O          12.04051200      5.75655200      9.64684400
H          12.62830500      5.27327400     10.33565900
          19
 G =       -0.289990 Gcorr = 0.084696 a.u. Nimag =   0 Frame:     7 Step:     7 Geom:     7
C          12.97017500     11.13809600      9.70827300
C          12.27630500     12.34182000      9.53912800
C          10.97933400     12.29743500      9.02961500
C          10.41444800     11.06570600      8.70666700
C          11.17473700      9.90566100      8.90463700
N          12.42799400      9.94637700      9.39407500
H          10.41318300     13.21758600      8.88664200
H          13.99142900     11.10803200     10.10682100
H          12.74078400     13.28780400      9.80094200
H           9.40576600     11.00008700      8.31010400
H          10.78174100      8.90527000      8.66982400
P          12.85039600      6.25648700     10.14981000
O          12.84714900      6.01986300     11.58227800
O          11.42335400      6.60854400      9.48866600
H          10.69512700      6.07006800      9.94273900
O          13.74248000      7.40884700      9.53641100
H          13.22989700      8.33354200      9.63639600
O          13.35368200      4.97483600      9.34928400
H          13.50203000      5.23394500      8.36769900
          19
 G =       -0.290207 Gcorr = 0.084545 a.u. Nimag =   0 Frame:     8 Step:     9 Geom:     9
C          11.50287600     10.64970700     10.96913400
C          11.23430400     12.00451600     10.74542700
C          11.29658000     12.48907400      9.43927400
C          11.62177500     11.61740800      8.40322900
C          11.87693900     10.27357300      8.70939100
N          11.81720900      9.80355900      9.96927200
H          11.09285800     13.53949400      9.23303600
H          11.46994300     10.21120000     11.97312400
H          10.98349300     12.66122300     11.57270100
H          11.67857500     11.96542200      7.37583500
H          12.13855100      9.54135500      7.92891900
P          12.92442600      6.33323400      9.07492300
O          12.65971800      6.96480900      7.79198300
O          14.48530700      6.18121300      9.33828300
H          14.62087300      5.69221700     10.23193900
O          12.32452600      7.00633900     10.38327300
H          12.18302000      8.03904600     10.22476400
O          12.43371600      4.82035300      9.26722600
H          11.45532400      4.83626800      9.56827800
          19
 G =       -0.289527 Gcorr = 0.084927 a.u. Nimag =   0 Frame:     9 Step:    10 Geom:    10
C          12.17978400     10.77765300     10.99248300
C          12.19002500     12.14328900     10.68753000
C          11.78948400     12.54434400      9.41347000
C          11.39450300     11.58174100      8.48796300
C          11.41109900     10.23354200      8.87080200
N          11.79422700      9.84430000     10.10123800
H          11.78696800     13.60057500      9.14575000
H          12.48772700     10.40151100     11.97494500
H          12.50440800     12.87171400     11.42846300
H          11.08081600     11.86307700      7.48693200
H          11.11340600      9.43089600      8.17779200
P          12.58635500      6.40818200      9.12525100
O          12.13694600      6.91134600      7.83407400
O          14.15053200      6.57299500      9.44433300
H          14.67632500      6.46329500      8.57881000
O          11.96341300      6.99327700     10.45780700
H          11.95671700      8.05399700     10.38333500
O          12.31530500      4.84663500      9.28442300
H          12.52196800      4.57763700     10.25460600
          19
 G =       -0.290004 Gcorr = 0.084683 a.u. Nimag =   0 Frame:    10 Step:    11 Geom:    11
C          13.04636200     10.85337600      8.31025400
C          12.64369200     12.18903100      8.42384800
C          11.56224200     12.49101500      9.25026900
C          10.91845800     11.46298200      9.93527200
C          11.38184400     10.15140300      9.76796900
N          12.42417000      9.85726400      8.96867700
H          11.22503300     13.52154400      9.35965900
H          13.89097600     10.55364800      7.67821400
H          13.16512300     12.97061800      7.87941900
H          10.07490200     11.66830100     10.58738900
H          10.91513600      9.29915600     10.28393800
P          13.03053000      6.30009500     10.12910700
O          14.25602000      6.20913000     10.90229900
O          11.78142200      7.00439100     10.86485100
H          11.78107700      6.75767900     11.84742800
O          13.01831000      7.06675800      8.74633900
H          12.91484300      8.10783900      8.92887700
O          12.49031200      4.85790600      9.72287200
H          11.72956100      4.96787200      9.04332800
          19
 G =       -0.290000 Gcorr = 0.084687 a.u. Nimag =   0 Frame:    11 Step:    12 Geom:    12
C          11.21972000     10.79978400     10.81873900
C          11.29851000     12.17939900     10.59631600
C          12.23057000     12.65357800      9.67429100
C          13.05024200     11.74784600      9.00470900
C          12.91021400     10.38203000      9.28377600
N          12.01272000      9.92222300     10.17536800
H          12.31578600     13.72234000      9.47901000
H          10.50556000     10.36635800     11.52924500
H          10.64572500     12.86261900     11.13134800
H          13.78372000     12.08777900      8.27982100
H          13.52780200      9.62001900      8.78549200
P          12.16841900      6.24272200      9.27774600
O          10.95244400      5.82216400      8.60509200
O          13.17808100      7.15117300      8.41008400
H          13.17701900      6.83725600      7.44684300
O          12.08722100      7.09435800     10.60744300
H          11.93866200      8.11533300     10.35581400
O          13.04651700      4.99250000      9.72798900
H          13.80107800      5.32052800     10.34088200
          19
 G =       -0.289520 Gcorr = 0.084934 a.u. Nimag =   0 Frame:    12 Step:    13 Geom:    13
C          11.86696200     10.35977100     10.48916800
C          11.18231300     11.57990600     10.57282200
C          11.37526600     12.52491500      9.56837100
C          12.23765200     12.23287900      8.51219900
C          12.88343600     10.99155200      8.50018000
N          12.70250700     10.07695300      9.47223200
H          10.85746700     13.48293000      9.60566700
H          11.74797100      9.57523000     11.25301900
H          10.51422300     11.77711900     11.40611300
H          12.40575500     12.94999000      7.71475600
H          13.56890500     10.70334100      7.69481700
P          12.52761700      6.44805000      9.90483800
O          11.64940300      6.84757400     10.99634200
O          11.82589200      6.21293700      8.48078800
H          10.89654400      5.82423300      8.63200400
O          13.72761200      7.38748300      9.47634200
H          13.35845000      8.38136000      9.39488300
O          13.26975800      5.07189500     10.20919700
H          13.97227800      4.91189000      9.47627300
          19
 G =       -0.289978 Gcorr = 0.084708 a.u. Nimag =   0 Frame:    13 Step:    14 Geom:    14
C          13.31871900     10.95082400     10.26222300
C          12.85676300     12.27193100     10.24631900
C          11.65994700     12.55151100      9.58813500
C          10.96233900     11.51592400      8.97053400
C          11.49168300     10.22011000      9.03082100
N          12.64825600      9.94835500      9.66350700
H          11.27403500     13.57025400      9.55839200
H          14.25126300     10.66812600     10.76536000
H          13.42033400     13.05938600     10.73772900
H          10.02669400     11.70326300      8.45238700
H          10.98519200      9.36233600      8.56384000
P          12.36625000      6.16947100      9.74503500
O          12.11072700      5.69854700     11.09444200
O          11.12842900      6.88305800      8.99922400
H          10.26428600      6.41876500      9.25249000
O          13.51101500      7.22632100      9.47553400
H          13.14029200      8.19900800      9.68584700
O          12.77511800      4.97152700      8.77837000
H          13.10867000      5.36129100      7.88981800
          19
 G =       -0.289516 Gcorr = 0.084937 a.u. Nimag =   0 Frame:    14 Step:    15 Geom:    15
C          10.95105000     10.75752500     10.31648000
C          11.34087900     12.06616500     10.62234600
C          12.51856200     12.55879000     10.06119800
C          13.26759900     11.74042500      9.21953100
C          12.80906900     10.44134600      8.96141800
N          11.67077000      9.96474600      9.49939200
H          12.84876000     13.57373500     10.28064600
H          10.03826200     10.31364100     10.73041100
H          10.73799000     12.68126700     11.28310600
H          14.19089600     12.09472600      8.77052000
H          13.36407100      9.75046000      8.30736400
P          12.56761400      6.44109800      9.09222900
O          13.75794000      7.04535300      8.50892200
O          12.61390200      6.16797000     10.67301400
H          13.56503300      5.91498500     10.93560100
O          11.17208900      7.17914100      8.97423600
H          11.31330200      8.20012400      9.23568800
O          12.24917900      5.01575200      8.45640200
H          11.33304700      4.70276000      8.80150100
          19
 G =       -0.290229 Gcorr = 0.084523 a.u. Nimag =   0 Frame:    15 Step:    16 Geom:    16
C          13.03428600     10.81702900      8.59199000
C          12.84356400     12.16892700      8.89803800
C          12.16506400     12.49693400     10.07140300
C          11.70045400     11.47748600     10.89831100
C          11.93192100     10.14729800     10.52178100
N          12.58674300      9.82829000      9.38986800
H          12.00070500     13.54088200     10.33706500
H          13.55928100     10.49751400      7.68444100
H          13.21671000     12.94286500      8.23446700
H          11.16821100     11.70159400     11.81830100
H          11.58635700      9.30233500     11.13849000
P          12.14129800      6.12561100      9.78923300
O          11.72261800      6.67405700     11.06933600
O          10.89542200      5.63967500      8.92877400
H          11.24226200      5.22091500      8.05681100
O          13.00756100      7.04352100      8.82386100
H          12.80870300      8.06035700      9.01861000
O          13.03379100      4.79540900      9.81391900
H          14.01505700      5.06930900      9.91531000
          19
 G =       -0.288961 Gcorr = 0.085747 a.u. Nimag =   0 Frame:    16 Step:    19 Geom:    19
C          11.92580300     10.28419500     11.15869900
C          11.27044300     11.12676300     10.25312600
C          11.89176600     11.41173100      9.03890300
C          13.14199000     10.86163600      8.76492600
C          13.72974100     10.02544500      9.72316900
N          13.13259100      9.74080400     10.89937000
H          11.40147900     12.05424100      8.30895600
H          11.47532200     10.00646900     12.11883200
H          10.29059300     11.52982700     10.48864400
H          13.64863200     11.05848800      7.82671100
H          14.69822700      9.54177500      9.55072600
P          11.73854900      7.06676300      9.44557100
O          10.38706800      7.52771800      9.71386100
O          12.62457600      8.00291500      8.48088800
H          12.03658800      8.41738900      7.76550400
O          12.76157500      6.87207500     10.64601200
H          13.02371500      7.81765400     11.02375100
O          11.75879000      5.63302000      8.76021100
H          12.73256200      5.30109700      8.72214200
          19
 G =       -0.289033 Gcorr = 0.085674 a.u. Nimag =   0 Frame:    17 Step:    20 Geom:    20
C          12.44360600     10.19446000      8.37654000
C          11.32945300     10.83524800      8.93403600
C          11.40893200     11.28246600     10.25097000
C          12.58836100     11.09166700     10.96800900
C          13.65764800     10.44478300     10.33749100
N          13.58777800     10.00178900      9.06558700
H          10.55562500     11.77193800     10.71823300
H          12.42921100      9.79655300      7.35520300
H          10.42367500     10.96226300      8.35169000
H          12.67491700     11.41699500     11.99985400
H          14.60123600     10.24644800     10.85926400
P          12.40722300      7.02757100     10.04319800
O          12.48056000      7.37512700     11.45205100
O          11.40434700      7.91469500      9.14904500
H          10.58736000      8.16847600      9.69441100
O          13.71280900      7.10329100      9.14052900
H          13.97248100      8.11345300      9.00511100
O          11.93853700      5.52561200      9.81890700
H          12.03625200      5.29717200      8.81987900
          19
 G =       -0.289520 Gcorr = 0.084934 a.u. Nimag =   0 Frame:    18 Step:    21 Geom:    21
C          11.08507700     10.82588900     10.29077200
C          11.53170300     12.14603700     10.41635000
C          12.63600700     12.54982800      9.66670100
C          13.25841900     11.63461200      8.82162800
C          12.74994500     10.33041500      8.75092100
N          11.68195600      9.93928700      9.47114300
H          13.00770900     13.57125800      9.74299500
H          10.22543700     10.44920300     10.85704400
H          11.02790300     12.83772900     11.08431500
H          14.12247200     11.91859500      8.22801400
H          13.20592900      9.56528700      8.10301200
P          12.46213600      6.36867200      9.30015400
O          13.57820100      6.88061200      8.51620700
O          12.70497500      6.24540000     10.88176800
H          13.67746400      5.99099600     11.04658600
O          11.07522100      7.13181800      9.28635800
H          11.26525100      8.16849700      9.42759600
O          12.04203600      4.89918500      8.85138300
H          11.17217500      4.64669000      9.33705900
