          44
 G =       -0.684652 Gcorr = 0.252834 a.u. Nimag =   0 Frame:     1 Step:     1 Geom:     1
C           2.56163100      2.76312300      5.86657800
C           3.19124300      2.51380700      7.08639700
C           3.81684500      1.29380400      7.31713900
C           3.82142800      0.32887000      6.29812100
C           3.18539800      0.61135100      5.08973200
H           4.31387700      1.09560500      8.27328500
H           2.08337500      3.73644200      5.65506800
H           3.21671700      3.30520700      7.84501700
H           3.22407200     -0.09854000      4.25528800
C           4.54254000     -0.95924700      6.45371700
H           5.42187600     -0.98925500      5.77471700
H           4.95449700     -1.09614400      7.46530900
H           3.92014700     -1.83106100      6.22402800
N           2.53806100      1.79920100      4.90022000
C           1.83806400      2.08243000      3.62177400
H           0.86853300      1.53360600      3.64106400
H           1.59772500      3.17763700      3.58286300
C           2.62606800      1.70517600      2.34966000
H           3.12425200      0.71787400      2.46845400
H           1.89361400      1.55786500      1.52665800
C           3.65065500      2.75078400      1.92044200
H           3.16532100      3.70540400      1.65183300
H           4.18383400      2.42127000      1.01076300
S           4.84698100      3.05069500      3.24040900
O           5.99590600      3.78615500      2.71182700
O           5.13128700      1.68138300      3.76019900
O           4.03856200      3.84727200      4.21668900
P           7.21927300      2.03576000      6.64624700
O           5.97455900      2.62535900      7.15949500
O           8.37016100      3.00651400      6.16399900
H           7.96371200      3.83347900      5.64459700
O           7.95097200      1.20953300      7.80268000
H           8.84444400      0.86729000      7.41849100
O           7.07653600      0.93741900      5.51813500
H           6.32994400      1.23488300      4.81912000
O           7.34505900      5.18936000      4.79194100
H           7.01916300      4.80817800      3.95057000
H           6.54070100      5.42430600      5.27322300
O           2.24853200      5.49300400      7.30436600
H           2.10464900      6.40203000      7.53734800
H           3.17383000      5.46465800      6.97061100
O           4.78614000      5.27200200      6.33267700
H           5.19347000      4.53233400      6.80100300
H           4.47634700      4.84318100      5.48824900
          44
 G =       -0.684731 Gcorr = 0.252551 a.u. Nimag =   0 Frame:     2 Step:     2 Geom:     2
C           2.61391500      2.87967400      6.03234500
C           3.31209800      2.60211400      7.20836000
C           3.88148400      1.34987600      7.40792300
C           3.76027600      0.37975600      6.40075000
C           3.05856300      0.69044400      5.23680900
H           4.43216200      1.12932500      8.32902500
H           2.17707900      3.87958300      5.84630700
H           3.43561500      3.39596800      7.95410100
H           2.99857600     -0.02566300      4.40901500
C           4.41752000     -0.94601100      6.51927000
H           3.73436300     -1.78269000      6.33660800
H           5.24796700     -1.02724700      5.78515300
H           4.88592300     -1.10164700      7.50312100
N           2.46847700      1.91278000      5.08024500
C           1.69865600      2.22804800      3.85037300
H           0.70099300      1.74098000      3.94470900
H           1.52395800      3.33577100      3.81472300
C           2.36985500      1.79171000      2.53095200
H           2.81505600      0.77707600      2.62772400
H           1.57290300      1.68180900      1.76398600
C           3.42218100      2.76877700      2.01587600
H           2.97689900      3.74834100      1.76858300
H           3.86879800      2.39825000      1.07585900
S           4.72489500      3.00950000      3.24393700
O           5.87256300      3.67474900      2.62663400
O           4.96846200      1.63087900      3.75911100
O           4.03463700      3.85940400      4.26486700
P           7.26091700      1.90807500      6.49774500
O           6.08915700      2.57109400      7.08717000
O           8.42451000      2.80819100      5.91827800
H           8.02709200      3.65248700      5.42078800
O           8.02863700      1.05890600      7.61355400
H           8.87347800      0.66469600      7.17353100
O           6.98035900      0.80318400      5.40233000
H           6.20813500      1.13295900      4.74713000
O           7.42670300      5.03170100      4.59111000
H           7.02589100      4.65763800      3.77927500
H           6.67014300      5.31457500      5.12114300
O           2.45687700      5.55704200      7.28188600
H           2.29735200      6.48122100      7.42956500
H           3.38693100      5.51140300      6.95932400
O           4.98163800      5.27125600      6.30106300
H           5.38080100      4.52050700      6.75867800
H           4.60751000      4.84351000      5.48107300
          44
 G =       -0.684666 Gcorr = 0.252821 a.u. Nimag =   0 Frame:     3 Step:     3 Geom:     3
C           2.60072600      2.90844900      6.22541800
C           3.39436700      2.60908600      7.33315200
C           3.96528100      1.34855200      7.46767700
C           3.74720000      0.39290300      6.46327600
C           2.95181100      0.72591700      5.36739000
H           4.59029600      1.11068600      8.33560800
H           2.16062500      3.91252500      6.08825200
H           3.59051800      3.39167400      8.07580900
H           2.81344300      0.02141500      4.53899900
C           4.39604500     -0.94140400      6.50907400
H           4.94862300     -1.11333700      7.44548000
H           3.68900000     -1.76818000      6.38000900
H           5.15658600     -1.02419700      5.70290700
N           2.36344700      1.95545000      5.27722300
C           1.49439100      2.29409800      4.12195000
H           0.50536300      1.81003100      4.29246700
H           1.32399600      3.40295100      4.11802500
C           2.04928700      1.87586200      2.74395400
H           2.49278500      0.85676300      2.78641200
H           1.19010500      1.78416600      2.04474900
C           3.06254300      2.85472200      2.15874100
H           2.60631300      3.84162100      1.96677700
H           3.42511200      2.49810500      1.17804400
S           4.46623900      3.06362100      3.27653400
O           5.56591300      3.72567200      2.57456100
O           4.73543400      1.67423600      3.74879100
O           3.87365800      3.90372700      4.36481000
P           7.26603400      1.86597700      6.27395100
O           6.15876400      2.53278400      6.97376700
O           8.38935800      2.76226000      5.61508900
H           7.96268300      3.62025700      5.16628200
O           8.11254600      0.98372200      7.30377200
H           8.91176300      0.58846100      6.78628200
O           6.87591600      0.78821900      5.18505500
H           6.05199600      1.14052300      4.60928500
O           7.31365000      5.01850600      4.41580300
H           6.61096300      5.30295800      5.01522600
H           6.83645300      4.66679300      3.63597500
O           2.69950800      5.64352100      7.68551900
H           2.65644200      6.55785200      7.93740200
H           3.55756200      5.55541400      7.21213500
O           5.03642900      5.25922400      6.33362900
H           5.46084800      4.49048600      6.73517000
H           4.56998300      4.85793000      5.54957400
          44
 G =       -0.684661 Gcorr = 0.252821 a.u. Nimag =   0 Frame:     4 Step:     4 Geom:     4
C           2.60089000      2.84873300      6.16495600
C           3.37133000      2.59366400      7.29982200
C           3.96985600      1.35136800      7.47736200
C           3.80348700      0.36923100      6.48872300
C           3.02981400      0.65799500      5.36510900
H           4.57657600      1.14821100      8.36682100
H           2.13986700      3.83813900      5.99370600
H           3.52759200      3.39681300      8.02988700
H           2.93169300     -0.06746200      4.54914200
C           4.48485600     -0.94636100      6.58083100
H           5.01518900     -1.08441600      7.53554200
H           3.80319000     -1.79394400      6.45012500
H           5.26951800     -1.02569700      5.79776100
N           2.41324400      1.86970500      5.23227200
C           1.56696000      2.16066300      4.04746600
H           0.58632800      1.65483600      4.20288000
H           1.36862800      3.26436800      4.01438200
C           2.16880300      1.72725300      2.69411000
H           2.63694100      0.72124300      2.77081500
H           1.33117500      1.59805000      1.97491200
C           3.17189200      2.71947100      2.11400600
H           2.69591700      3.68984500      1.88857500
H           3.56932500      2.35161300      1.15112100
S           4.53967300      2.98878400      3.26292700
O           5.64054400      3.66342300      2.57490900
O           4.83175200      1.61730400      3.77286200
O           3.89755000      3.83664200      4.31633800
P           7.28546000      1.92954200      6.35983800
O           6.14070700      2.58141300      7.01163800
O           8.40756300      2.84146400      5.72034100
H           7.97491700      3.67038100      5.22619200
O           8.12073600      1.08920300      7.43310300
H           8.94690700      0.70672600      6.94944900
O           6.95686500      0.82219700      5.28058700
H           6.13709300      1.13851600      4.67800800
O           7.30576800      5.03907400      4.43182000
H           6.58155500      5.31754800      5.00769200
H           6.85744800      4.65913100      3.64824900
O           2.58955600      5.61582800      7.56515900
H           2.51699500      6.53367000      7.79671600
H           3.46218500      5.54008300      7.11687800
O           4.97144500      5.26464200      6.28514400
H           5.40503200      4.51607100      6.71407700
H           4.53718200      4.83503800      5.49775600
          44
 G =       -0.667955 Gcorr = 0.237052 a.u. Nimag =   0 Frame:     5 Step:     5 Geom:     5
C           2.26966000      2.80109300      5.60624000
C           2.89930100      2.75978500      6.85860100
C           3.56303400      1.61495500      7.27371600
C           3.55596600      0.46412500      6.44489600
C           2.89081000      0.51904500      5.21954900
H           4.12048600      1.61323800      8.21935100
H           1.80703900      3.72710600      5.23281500
H           2.94248900      3.67999900      7.48220200
H           2.89648200     -0.33475600      4.53370000
C           4.29909700     -0.75812900      6.84073500
H           4.32089500     -0.91286900      7.92802600
H           3.92546000     -1.67793600      6.37877500
H           5.36834300     -0.65037200      6.52785100
N           2.25873500      1.68205200      4.80872500
C           1.62978800      1.74153300      3.45018100
H           0.83080400      0.96447500      3.40188900
H           1.12071200      2.72801400      3.32973900
C           2.62968100      1.52905200      2.29657400
H           3.31564800      0.67810700      2.52880100
H           2.05032000      1.20337500      1.40476500
C           3.45663200      2.75490300      1.92972900
H           2.81565800      3.63624500      1.73432900
H           3.97326600      2.58481900      0.96155000
S           4.63591000      3.10335200      3.21072600
O           5.73582500      3.94193300      2.68922800
O           5.07078900      1.77618500      3.71319400
O           3.85704500      3.86289500      4.24840200
P           7.00626300      2.24051800      6.48725500
O           5.80139300      2.96170200      7.03209100
O           7.98075400      3.04048700      5.58222400
H           7.66755500      4.17861800      5.07382700
O           7.88035300      1.58013200      7.71710700
H           8.77656200      1.23365000      7.46873200
O           6.60611400      0.86390200      5.68909400
H           6.15649400      1.00121800      4.76064500
O           7.23981700      5.16817600      4.48814800
H           6.34892800      5.37740700      5.03814300
H           6.88668200      4.76068200      3.61393100
O           4.33015500      4.77205200      8.39809500
H           5.05117700      4.11350500      8.39406800
H           4.62701500      5.47668000      7.80361700
O           5.09062200      5.26979600      5.88648200
H           5.11438800      4.31248000      6.23601100
H           4.35585500      5.23677000      5.21624500
          44
 G =       -0.684655 Gcorr = 0.252832 a.u. Nimag =   0 Frame:     6 Step:     6 Geom:     6
C           2.61002100      2.86477200      5.98030100
C           3.28333100      2.60841400      7.17503000
C           3.84077000      1.35693400      7.41209300
C           3.73271500      0.36641800      6.42381000
C           3.05585700      0.65667700      5.23963700
H           4.37173800      1.15288600      8.34857600
H           2.18414700      3.86080500      5.76292100
H           3.39775700      3.41689800      7.90691400
H           3.00738500     -0.07656200      4.42618900
C           4.37754300     -0.96109600      6.58310400
H           5.21816400     -1.06624100      5.86371300
H           4.83022300     -1.09709900      7.57728500
H           3.69045500     -1.79662400      6.41012700
N           2.47659300      1.87848300      5.04585600
C           1.73254200      2.17190300      3.79488500
H           0.73243400      1.68760100      3.87757100
H           1.56034200      3.27889800      3.73474100
C           2.42999200      1.71044000      2.49783100
H           2.86961400      0.69629100      2.62162600
H           1.64908300      1.58940300      1.71619100
C           3.49611100      2.67539200      1.98830400
H           3.05957300      3.65211500      1.71541400
H           3.96062900      2.28778600      1.06397800
S           4.77416300      2.93163900      3.23901500
O           5.93941600      3.57656400      2.63339500
O           4.99679700      1.56090100      3.78456700
O           4.06819500      3.80437400      4.22946400
P           7.24617600      1.85668900      6.55404500
O           6.06931400      2.53981100      7.10965800
O           8.43061400      2.73753600      5.98779600
H           8.05161700      3.57548700      5.46458900
O           7.98137000      1.01513300      7.69730600
H           8.83293200      0.60930500      7.28162700
O           6.97657500      0.74030400      5.46770300
H           6.21584600      1.06674000      4.79715700
O           7.48145300      4.94256500      4.60009700
H           6.71950600      5.24355200      5.11259400
H           7.08918100      4.56091100      3.78769000
O           2.54804000      5.64833200      7.34607100
H           2.47543600      6.57064600      7.55929200
H           3.45132700      5.55037900      6.96823100
O           5.01499300      5.23580500      6.25928400
H           5.39577700      4.48316200      6.72943000
H           4.63425200      4.80567400      5.44489600
          44
 G =       -0.686853 Gcorr = 0.252517 a.u. Nimag =   0 Frame:     7 Step:     7 Geom:     7
C           2.63045900      2.88105900      6.36700900
C           3.48508200      2.67388800      7.45055700
C           4.14517800      1.45905400      7.60002800
C           3.96633700      0.46389100      6.62694300
C           3.13186300      0.71850400      5.53844900
H           4.80602100      1.28475300      8.45758400
H           2.09244500      3.83552500      6.23771100
H           3.66577600      3.49668300      8.15032800
H           3.03068400     -0.00805000      4.72357500
C           4.68718200     -0.83138600      6.69846600
H           4.01695700     -1.69728800      6.65925500
H           5.40227100     -0.92383200      5.85330500
H           5.30463200     -0.92488400      7.60609200
N           2.44905700      1.89825400      5.43872700
C           1.54090500      2.13543500      4.29006000
H           0.64297600      1.49059100      4.42635100
H           1.17552800      3.19901800      4.31983500
C           2.17490300      1.86446700      2.91031100
H           2.71539900      0.89261500      2.90631000
H           1.34505100      1.73517400      2.18055400
C           3.09355700      2.97726100      2.41563500
H           2.54587600      3.93894000      2.34774400
H           3.44080100      2.76425300      1.38833600
S           4.51749800      3.18543200      3.50212100
O           5.58447800      3.89351400      2.80091800
O           4.82783400      1.80222400      3.95589800
O           3.92580000      4.00376300      4.62340000
P           7.50602300      1.95214600      6.36157000
O           6.43302100      2.56055800      7.15922700
O           8.54890500      2.90452000      5.65263700
H           8.06968600      3.78555800      5.30958900
O           8.44768700      1.05679800      7.29181000
H           9.22156000      0.71099800      6.70456600
O           7.06564200      0.90008700      5.26360300
H           6.21190100      1.26302000      4.75020500
O           7.32563900      5.19703000      4.70234500
H           6.64014100      5.40870400      5.35484300
H           6.83239700      4.87018900      3.92555400
O           1.62211300      5.38759700      4.43478900
H           2.51704900      4.97871700      4.50148500
H           1.76703900      6.31888900      4.55173600
O           5.17148200      5.26109000      6.71583900
H           5.63767800      4.49537300      7.06170000
H           4.65749100      4.88987300      5.97300700
          44
 G =       -0.684735 Gcorr = 0.252546 a.u. Nimag =   0 Frame:     8 Step:     8 Geom:     8
C           2.62229700      2.92374300      6.12655200
C           3.40840400      2.65864500      7.24876100
C           3.97725000      1.40292000      7.42680600
C           3.76539400      0.41622300      6.45118700
C           2.97693900      0.71462800      5.34084000
H           4.59641700      1.19199300      8.30566400
H           2.18379100      3.92567700      5.95629600
H           3.60008100      3.46437100      7.96689300
H           2.84322100     -0.01564700      4.53432100
C           4.41523900     -0.91532900      6.54256000
H           5.18676500     -1.01831400      5.74916200
H           4.95479100     -1.06077100      7.49080900
H           3.71134100     -1.74661800      6.42603300
N           2.39032800      1.94145800      5.20802000
C           1.52824600      2.24351400      4.03751200
H           0.53564800      1.77168100      4.22105800
H           1.36432300      3.35260800      3.99374800
C           2.08620200      1.77317500      2.67769100
H           2.52625100      0.75493500      2.75894400
H           1.22900700      1.65872300      1.97942100
C           3.10468500      2.72652000      2.06024100
H           2.65185000      3.70666100      1.82934000
H           3.47015900      2.33210600      1.09518000
S           4.50426300      2.97452500      3.17486400
O           5.60547300      3.61408200      2.45445500
O           4.77421300      1.60325700      3.69633900
O           3.90710400      3.85198500      4.23073700
P           7.27874900      1.90339400      6.24223800
O           6.16286900      2.59106100      6.90695800
O           8.40581800      2.77939800      5.56242300
H           7.98035400      3.61553400      5.07382000
O           8.11842500      1.06218200      7.31140800
H           8.92433500      0.65202400      6.81628900
O           6.90390200      0.78492400      5.18950100
H           6.08409900      1.11074200      4.59336700
O           7.33194900      4.98215500      4.26133400
H           6.62346600      5.28836100      4.84227600
H           6.86322800      4.59827800      3.49163300
O           2.60259600      5.62505500      7.33320200
H           2.47178900      6.55137000      7.49472700
H           3.49912900      5.56510600      6.92812700
O           5.03299300      5.29330000      6.15166500
H           5.45712400      4.54706600      6.59394600
H           4.58949300      4.85330200      5.37366200
          44
 G =       -0.670549 Gcorr = 0.236447 a.u. Nimag =   0 Frame:     9 Step:     9 Geom:     9
C           2.95506900      2.71579200      6.53283000
C           3.67794900      2.20817700      7.62271100
C           4.06207900      0.87243100      7.64286500
C           3.73581800      0.03941700      6.55152700
C           2.99204500      0.57223300      5.49036600
H           4.66489900      0.48195100      8.46855000
H           2.71630200      3.80939500      6.46470100
H           3.99307200      2.90250000      8.41511800
H           2.75623900     -0.03337100      4.60580000
C           4.23327600     -1.35916900      6.49177900
H           5.32419700     -1.34312700      6.27660000
H           4.10634100     -1.89642700      7.44178000
H           3.76739600     -1.96388000      5.70404600
N           2.61109900      1.89730100      5.49302800
C           1.81021200      2.45366100      4.35667000
H           0.75759700      2.10798200      4.47867900
H           1.77758500      3.58374900      4.45919900
C           2.33355700      2.07012700      2.96353200
H           2.76293800      1.04059800      2.96926800
H           1.45860800      2.01747600      2.27724400
C           3.34910500      3.04441900      2.38347200
H           2.95196200      4.08420100      2.41197700
H           3.47933600      2.85018500      1.29695300
S           4.90685000      2.96084200      3.21564200
O           6.00101200      3.25354300      2.27989200
O           4.96971600      1.62258000      3.87437800
O           4.88795700      4.06146000      4.25623600
P           7.03599300      2.49808800      6.63153500
O           6.02380000      3.41899500      7.21570400
O           7.99844800      3.04066500      5.49023400
H           7.72745700      3.99154000      4.90389700
O           8.05172100      1.88022000      7.76922300
H           8.84184600      1.39024000      7.41800300
O           6.42828500      1.10347500      6.03307700
H           5.97560500      1.15023100      5.08144800
O           7.31125300      4.91235500      3.94742400
H           6.34633900      5.05731000      4.19934500
H           7.25724000      4.35299800      3.11272700
O           2.58979700      5.29088200      5.02110000
H           3.51806600      5.12878300      4.70207300
H           2.71139400      5.85438200      5.80081000
O           4.33849000      5.17595800      6.74873100
H           4.88796600      5.17288000      7.54256100
H           4.84409300      4.58694800      6.12726500
          44
 G =       -0.667938 Gcorr = 0.237068 a.u. Nimag =   0 Frame:    10 Step:    10 Geom:    10
C           2.26530300      2.86509800      5.58588200
C           2.86115400      2.86935100      6.85535700
C           3.52331700      1.74460300      7.32436400
C           3.54864500      0.56814000      6.53269900
C           2.91640100      0.57798700      5.28889400
H           4.05498200      1.77813100      8.28414400
H           1.80512500      3.77442000      5.17083500
H           2.87922700      3.80909900      7.45039100
H           2.94795500     -0.29700800      4.63102400
C           4.29118500     -0.63393200      6.98707300
H           5.36813000     -0.52479000      6.70231900
H           4.28225700     -0.75559200      8.07873500
H           3.94005400     -1.57105700      6.54257400
N           2.28560300      1.72133300      4.82446700
C           1.69263900      1.73142700      3.44862500
H           0.90210300      0.94552800      3.40418000
H           1.17812400      2.70854100      3.28328000
C           2.72473500      1.49231100      2.32909800
H           3.41223900      0.65627200      2.60638100
H           2.17225900      1.13241900      1.43337500
C           3.54949100      2.71431800      1.94486400
H           2.90562400      3.58249000      1.70509000
H           4.09273000      2.51908100      0.99615900
S           4.69194400      3.11486600      3.24383300
O           5.79669100      3.94836700      2.72428300
O           5.12670600      1.80871500      3.79854400
O           3.87938400      3.89851600      4.23679500
P           6.97925000      2.38020000      6.60946500
O           5.75420400      3.10625900      7.10002600
O           7.96956000      3.16036600      5.70426800
H           7.65851100      4.27784700      5.15044600
O           7.82805300      1.76865800      7.88173000
H           8.73437400      1.42560100      7.66730000
O           6.61174200      0.97483200      5.84677600
H           6.18580400      1.07764600      4.90279600
O           7.23851800      5.24537600      4.52420700
H           6.33179400      5.46309600      5.04384500
H           6.91231000      4.80906100      3.65333600
O           4.23036900      4.94333900      8.36744700
H           4.95844800      4.29305600      8.40361400
H           4.53661800      5.63319800      7.76065000
O           5.05277400      5.37061700      5.86219200
H           5.07727900      4.42589800      6.24453500
H           4.33638400      5.30632000      5.17410500
          44
 G =       -0.667224 Gcorr = 0.232131 a.u. Nimag =   0 Frame:    11 Step:    11 Geom:    11
C           2.29192000      2.79422100      6.12913800
C           2.94315100      2.52196100      7.33293500
C           3.71474600      1.36880300      7.47650200
C           3.78507900      0.45006800      6.40835400
C           3.09936000      0.73407800      5.22004200
H           4.28523200      1.19902300      8.39736500
H           1.75065000      3.75407400      5.98895400
H           2.87979200      3.26828400      8.13949600
H           3.18546900      0.07097800      4.34712600
C           4.62886400     -0.77158500      6.49340300
H           4.10472600     -1.68076700      6.17622100
H           5.52676500     -0.66478000      5.84603000
H           5.01906200     -0.94903900      7.50656800
N           2.36366100      1.89517200      5.08914900
C           1.66293600      2.21576700      3.80232300
H           0.71690700      1.62413700      3.77483400
H           1.36658500      3.29519800      3.82102700
C           2.48484700      1.93329800      2.53142400
H           3.01902400      0.95647100      2.62011600
H           1.76846600      1.79873200      1.69077300
C           3.48218900      3.02313000      2.15919900
H           2.97885800      4.00318500      2.03602000
H           3.90875100      2.81606000      1.15530700
S           4.76985400      3.13097900      3.37499300
O           6.02572200      3.60660000      2.76117900
O           4.94340300      1.69933500      3.85798100
O           4.24462800      4.00252900      4.43926100
P           7.09384700      2.20816100      6.59747400
O           5.82810000      2.63725500      7.24569800
O           8.06307500      3.34528100      6.01460700
H           8.24893900      3.37585300      4.92324600
O           8.05815000      1.38306900      7.64619400
H           9.01767100      1.32411100      7.40440400
O           6.95790800      1.16094600      5.36964100
H           6.08135300      1.23530000      4.72899400
O           8.32705000      3.62513500      3.47633100
H           7.72052600      4.39865300      3.35406400
H           7.80657100      2.89362900      3.05830200
O           2.12984900      5.29112000      7.27333600
H           1.87789400      6.17001000      7.50722300
H           3.14140000      5.32420000      7.12853300
O           4.71076200      5.21117800      6.83272900
H           5.08196800      4.39619200      7.24619700
H           4.71429400      5.00399600      5.86731000
          44
 G =       -0.685043 Gcorr = 0.249043 a.u. Nimag =   0 Frame:    12 Step:    12 Geom:    12
C           2.55755500      2.70395500      5.89028700
C           3.21520500      2.39545900      7.08337100
C           3.82932900      1.16091800      7.24668700
C           3.79124300      0.23569400      6.19112400
C           3.12150700      0.57264900      5.01614100
H           4.36306400      0.92105800      8.17201900
H           2.08611200      3.69334400      5.73106700
H           3.27349800      3.15886100      7.86955600
H           3.11897400     -0.10648400      4.15658300
C           4.51468000     -1.05892900      6.27369000
H           3.85654500     -1.92663900      6.15379500
H           5.29604000     -1.11224900      5.48870900
H           5.05890500     -1.17270300      7.22493800
N           2.49662900      1.78185000      4.88805200
C           1.79413600      2.12945700      3.62765400
H           0.81991300      1.58925200      3.62259800
H           1.56276500      3.22743700      3.63858200
C           2.58488300      1.80054800      2.34395000
H           3.08394500      0.81032800      2.42713500
H           1.85491200      1.68422600      1.51377500
C           3.61062100      2.85987600      1.95754600
H           3.12405200      3.81810700      1.70346200
H           4.15831100      2.55529400      1.04731400
S           4.79674200      3.14916000      3.29214800
O           5.96047600      3.83278100      2.71971700
O           5.05820000      1.78281100      3.83754800
O           3.99784100      3.95707100      4.25520700
P           7.22013400      2.26030700      6.74194300
O           6.67216500      3.53816900      7.19353300
O           8.38402800      2.25506400      5.66797400
H           8.35501100      3.13292000      5.08427800
O           7.87335400      1.47306700      7.97018300
H           8.34738600      0.64261300      7.59137700
O           6.17492500      1.18759100      6.22660200
H           5.85199600      1.41795400      5.23891400
O           8.28597100      4.48896000      4.02997700
H           7.93737500      5.22908800      4.52658100
H           7.54130000      4.24097900      3.43059700