          46
 Energy =     -0.71311400 a.u.  #Cluster:    1
C          17.69069800      6.56286200     10.40169500
C          17.12327200      6.50602700     11.67764300
C          16.19597500      7.48583000     12.05899900
C          15.85985400      8.49217800     11.15180900
C          16.45338300      8.52198000      9.89497000
H          15.72933100      7.45290800     13.04990900
H          18.39136100      5.78806600     10.05663100
H          15.09934000      9.24121400     11.40437400
H          16.19299300      9.29985800      9.14547000
C          17.47129300      5.37457700     12.57167800
H          18.54477800      5.31605600     12.78860700
H          16.93344500      5.40999400     13.53172600
H          17.17369700      4.40869500     12.11021500
N          17.36331700      7.57017200      9.54362200
C          17.99847400      7.63531400      8.20657700
H          18.43563100      8.65425700      8.07818900
H          18.84640000      6.91238300      8.16281100
C          17.00647300      7.34299100      7.06938900
H          16.01326000      7.80732800      7.27825500
H          17.36085200      7.84900700      6.14754400
C          16.83125900      5.85137500      6.80255000
H          16.35737800      5.68629500      5.81513900
H          17.79521700      5.31566200      6.77269400
C          15.94010000      5.25337300      7.89232500
O          14.70716500      5.24714500      7.67281600
O          16.49273900      4.84737400      8.92890400
P          13.72871300      5.20998600     11.02759600
O          14.08233000      6.59523700     11.36924700
O          12.74393800      4.61381000     12.12648400
H          12.49966600      3.65364300     11.82776700
O          12.92327900      5.04701100      9.66877300
H          13.62369400      5.04546100      8.86013000
O          14.92140800      4.17315300     10.99212300
H          15.54527300      4.39318400     10.14261000
O          13.61580300      7.37608500      6.51291600
H          13.33248600      7.11390100      5.64553100
H          14.03228900      6.56662400      6.91572500
O          12.84247700      9.06645100     10.15927900
H          13.20403600      8.31934800     10.65187400
H          12.16661800      8.64095400      9.59398700
O          11.46322600      7.42510600      8.39508100
H          11.68346400      6.60229800      8.84943900
H          12.12622200      7.47524000      7.69025600
O          14.56312100      9.63563400      8.06692000
H          14.21840900      8.99606300      7.43531300
H          13.93589500      9.57790000      8.81443500
          46
 Energy =     -0.71058100 a.u.  #Cluster:    2
C          16.91131200      6.92823500     10.60266700
C          16.11434300      7.32183500     11.69147200
C          15.50943000      8.59117900     11.65915000
C          15.70747700      9.42295500     10.55772600
C          16.49024700      8.99522100      9.48266300
H          14.84779800      8.92470300     12.47173800
H          17.37430000      5.91728600     10.56775200
H          15.20190800     10.40060500     10.51527300
H          16.59576900      9.60963200      8.57209700
C          15.90119400      6.39897900     12.83442700
H          16.22741200      5.36237100     12.61799300
H          16.42430000      6.73119400     13.74080900
H          14.82773800      6.30832900     13.08475500
N          17.08850700      7.75847400      9.52254400
C          17.93081900      7.30775400      8.36763300
H          18.64561400      8.12029300      8.10950000
H          18.55029400      6.42817300      8.69375200
C          17.08078300      6.92219700      7.14541000
H          16.02375500      7.27831300      7.26291700
H          17.45845000      7.45125300      6.24778700
C          17.07125200      5.41383500      6.88636500
H          16.43304400      5.18151800      6.00768500
H          18.08266900      5.03632400      6.63880000
C          16.53879700      4.70275200      8.11414300
O          15.29112100      4.47444600      8.19815500
O          17.32132500      4.42546100      9.06248400
P          14.15578600      4.71548000     10.10965400
O          14.06445600      6.10016700      9.54061000
O          13.17021200      4.70671800     11.43966700
H          12.95366300      3.82102300     11.82146800
O          13.46043700      3.44761400      9.33840300
H          13.83335600      3.21653700      8.42904500
O          15.50382100      4.20738300     10.84884200
H          16.35404300      3.94983300     10.24746800
O          13.72605200      6.67400900      7.11668400
H          13.07047000      6.78908100      7.84102800
H          14.29392500      5.92520200      7.45714800
O          12.85925000      8.25213600      9.54071600
H          12.82851100      7.38298200     10.00782100
H          13.76383600      8.27488100      9.14961100
O          14.73140500      8.98496000      7.62236800
H          14.00991100      9.51374100      7.29273700
H          14.54383300      8.03102400      7.27870800
O          13.15252600     10.12572500     11.40347100
H          12.36855700     10.61107900     11.61218400
H          12.88632500      9.44710900     10.71669100
          46
 Energy =     -0.70768800 a.u.  #Cluster:    3
C          17.35873100      6.56434300     10.87683100
C          16.48626800      6.73162400     11.95640600
C          15.60960600      7.82461600     11.96468700
C          15.61403700      8.70595200     10.88157400
C          16.49161100      8.50570500      9.82218100
H          14.91754000      7.97729500     12.80101100
H          18.03710900      5.69945900     10.82350700
H          14.90468400      9.54493000     10.84096600
H          16.49798600      9.17180400      8.94236500
C          16.47273400      5.71190200     13.03361900
H          17.40860100      5.68384700     13.60505800
H          15.64504100      5.85968200     13.74620800
H          16.30864900      4.69825500     12.61154600
N          17.36416900      7.45598200      9.84581000
C          18.31906000      7.27782600      8.72755500
H          18.82302600      8.25527300      8.53661500
H          19.11839600      6.56226900      9.03239800
C          17.63725700      6.77808800      7.44340100
H          16.71351600      7.36328800      7.23108600
H          18.30899600      6.98708600      6.58416000
C          17.30835800      5.28863300      7.47967600
H          17.08304800      4.91728100      6.45887600
H          18.15350200      4.68314900      7.84819100
C          16.07588200      5.05938500      8.35636700
O          14.96362300      5.29876200      7.84187300
O          16.27428800      4.69887100      9.53368600
P          13.16813000      5.62885900     10.73171200
O          13.61873800      7.02824800     10.86587900
O          11.88957200      5.37987900     11.64333200
H          11.60611000      4.39318500     11.50178300
O          12.68780500      5.26217500      9.26495700
H          13.56573400      5.16517800      8.65174000
O          14.19992400      4.52904700     11.18776500
H          15.04170900      4.54858600     10.49821100
O          14.44772600      7.99145700      7.85749600
H          14.16128600      8.00835700      8.77915000
H          14.62488200      7.03921100      7.68859500
O          12.38750400      9.51213500      9.86835600
H          12.64228200      8.77167500     10.42977200
H          11.90462700      9.08317500      9.13892400
O          11.60251200      7.87372500      7.69099000
H          11.55237000      6.98993500      8.07343500
H          12.53690700      7.95994600      7.44982200
O          14.63807500     10.65549500      8.63095500
H          14.58491500     10.17203100      7.80381400
H          13.81351000     10.41240300      9.08767800
          46
 Energy =     -0.70747900 a.u.  #Cluster:    4
C          17.29936000      6.37306400     10.48909800
C          16.67787100      6.67354900     11.70680100
C          16.32895100      8.00066400     11.98130600
C          16.64566700      8.99321900     11.05563900
C          17.28550500      8.65995400      9.86531000
H          15.79232200      8.25248200     12.90244900
H          17.52380300      5.32882900     10.20701200
H          16.36586500     10.03757100     11.23836600
H          17.53630700      9.42051500      9.11080300
C          16.36748100      5.57495100     12.65454500
H          15.54036800      5.83984700     13.33811500
H          16.01514600      4.66571400     12.12995200
H          17.23374800      5.29568200     13.26704700
N          17.59911400      7.35976800      9.59963100
C          18.27881600      7.01875700      8.32619800
H          19.25093300      7.56070400      8.29803000
H          18.51153600      5.92388000      8.32038800
C          17.43181200      7.36096000      7.08710900
H          16.68542500      8.15655800      7.31488000
H          18.08510200      7.79607300      6.30516100
C          16.70630900      6.13869800      6.52813400
H          16.22920600      6.38123800      5.55698000
H          17.39334500      5.29779300      6.33388200
C          15.63495600      5.69897100      7.52223000
O          14.44016900      5.81529300      7.18782700
O          16.02315400      5.29106500      8.63841600
P          13.29394600      6.64332400     10.56512800
O          13.72668300      7.61447700     11.58271300
O          11.81458400      6.15797500     10.81170900
H          11.70201900      5.19720800     10.37597900
O          13.32466300      7.34570800      9.13664500
H          13.60102600      6.68425800      8.37403600
O          14.13415300      5.29787700     10.52712600
H          14.85601800      5.29150300      9.74154500
O          12.63055400      3.77484700      7.16328000
H          13.35526500      4.43895900      7.22028400
H          12.00927000      4.16888200      6.55667300
O          13.97203800     10.46302900     10.99969100
H          13.86898800      9.52369000     11.24225500
H          13.07828900     10.75450100     10.82049300
O          11.64174000      3.56315800      9.73458100
H          12.40923700      3.18788100     10.17331900
H          11.92195500      3.61870800      8.79544000
O          15.20242900      9.61978800      8.58330500
H          14.61543800      8.85910000      8.49820000
H          14.82947700     10.07934000      9.35231100
          46
 Energy =     -0.70432200 a.u.  #Cluster:    5
C          17.68320100      6.42123400     10.64952300
C          17.07320500      6.36212600     11.91280200
C          16.31184400      7.46535100     12.35029500
C          16.17985400      8.57965200     11.52698900
C          16.80208500      8.60613700     10.27092200
H          15.79216300      7.42214900     13.31205800
H          18.21559600      5.54236800     10.23413800
H          15.55528100      9.42788100     11.82394900
H          16.65352600      9.45808400      9.57609300
C          17.17692400      5.12709800     12.72797900
H          17.15740400      5.31658600     13.80846200
H          16.30110200      4.46796800     12.50546400
H          18.06881200      4.52632900     12.50832500
N          17.54923100      7.53551200      9.85487700
C          18.20197000      7.56467200      8.50505800
H          18.72436100      8.54267300      8.38939900
H          18.98983300      6.77413700      8.46477500
C          17.19369800      7.36719400      7.36419900
H          16.18415700      7.77417500      7.65601700
H          17.50274600      7.98551700      6.49756100
C          17.04800400      5.90882300      6.92587200
H          16.49322800      5.85692500      5.96657400
H          18.03027500      5.43552700      6.73501700
C          16.29468600      5.13554400      7.99030300
O          15.03323900      5.22793400      8.05263000
O          16.94775800      4.47744500      8.85301800
P          14.12611200      5.61929800     10.15256700
O          14.66797300      6.95663800      9.68898100
O          13.23359200      5.84903800     11.48465300
H          12.54844100      6.67425900     11.42867900
O          12.95069800      5.00199700      9.15474300
H          13.29192000      4.48506400      8.35999700
O          15.12388000      4.47138500     10.65124200
H          15.92246500      4.15777800      9.95333200
O          11.57171600      7.27013800      8.38951800
H          12.35324900      7.55679100      7.83594200
H          11.68393200      6.30444800      8.48198000
O          13.95845300      7.44875700      7.18053200
H          14.48046000      7.17951100      8.03167500
H          13.98790500      6.64330700      6.65408000
O          11.50535500      7.73432700     10.91098200
H          10.66557800      7.26785200     10.89370000
H          11.71765900      7.89166300      9.92923600
O          14.92576600      9.39745100      8.44853300
H          14.45330900      8.74272700      9.00808400
H          14.48738700      9.36854000      7.58926500
          46
 Energy =     -0.70422600 a.u.  #Cluster:    6
C          17.55799300      6.75570800     10.45820400
C          16.71737600      6.72926000     11.57338500
C          15.67376100      7.66331000     11.66213000
C          15.53337200      8.62109600     10.65688200
C          16.41581700      8.63795000      9.57984700
H          14.96675500      7.63138000     12.49851000
H          18.33091000      5.98513600     10.31179300
H          14.70267500      9.33715800     10.68704200
H          16.31065300      9.36961700      8.76507600
C          16.91280100      5.68198700     12.60608800
H          17.82981600      5.83382200     13.18917900
H          16.06902800      5.62391400     13.31347500
H          16.97080200      4.67219800     12.15058100
N          17.41382700      7.71398000      9.49742000
C          18.37493300      7.75564700      8.36880000
H          18.96082800      8.69963700      8.45326200
H          19.09700500      6.90701200      8.47719000
C          17.70715700      7.66101200      6.98625800
H          16.71482300      8.16355000      6.97847900
H          18.32085800      8.22175100      6.25191500
C          17.54833100      6.21620200      6.51888700
H          17.17134600      6.18088600      5.47790900
H          18.50665100      5.66974600      6.52248800
C          16.54854500      5.51059900      7.43990300
O          15.35847100      5.49005000      7.07191000
O          17.00027500      5.06547900      8.51593000
P          13.96774700      4.96800600     10.13074900
O          14.15892300      6.43635400     10.33463000
O          12.97416600      4.27178000     11.15111700
H          12.29853900      5.02116400     11.46637900
O          13.37256500      4.63986000      8.70463100
H          14.14335600      4.88112400      7.99034900
O          15.28922200      4.13463800     10.33846900
H          15.98100200      4.46024400      9.55226900
O          11.69539900      8.32908000      8.13332600
H          12.64338400      8.33188300      7.89773400
H          11.40885300      7.44060700      7.92017000
O          14.44536200      7.97231600      7.87249100
H          14.32244800      7.54340400      8.74123200
H          14.67904800      7.20257300      7.31130100
O          11.03219100      6.23928900     12.00557800
H          11.40668600      7.10033400     11.72698400
H          10.22880000      6.15040000     11.49916700
O          12.25873500      8.47437000     10.89059000
H          11.92116400      8.57523200      9.98201600
H          12.96763600      7.81926100     10.77829500
          46
 Energy =     -0.70355500 a.u.  #Cluster:    7
C          17.62767200      6.71343200     10.02891300
C          17.19716400      6.44280000     11.33067900
C          16.31997600      7.33774900     11.95790500
C          15.89008500      8.47190900     11.26210700
C          16.30004600      8.67825100      9.94981500
H          15.95150400      7.13709100     12.96745600
H          18.29325400      6.01428200      9.49283800
H          15.17948600      9.16780600     11.72076800
H          15.90911100      9.51399800      9.34909600
C          17.62042800      5.17751000     11.97957100
H          17.60392800      4.33552800     11.25545600
H          18.63154400      5.23497400     12.39996400
H          16.93152900      4.87056200     12.78487800
N          17.18362100      7.81777600      9.36607700
C          17.65442200      8.07857300      7.98641800
H          17.59862600      9.17543400      7.78713400
H          18.72965300      7.79610900      7.90921200
C          16.82449800      7.32493500      6.93608400
H          15.73571000      7.45110100      7.14706300
H          16.97348800      7.81378800      5.95103900
C          17.16958200      5.84142200      6.83418300
H          17.00618400      5.47478200      5.80068100
H          18.22387300      5.63132100      7.06816800
C          16.24216800      5.05185500      7.76669000
O          15.06332000      4.91141200      7.38016900
O          16.71147600      4.64315500      8.84405600
P          13.83303200      5.24000800     10.61165400
O          14.39934800      6.59345800     10.83075500
O          12.67981100      4.85652400     11.63797700
H          12.03520000      5.69299200     11.63665500
O          13.13520100      5.06511500      9.20086700
H          13.89592100      4.84633200      8.47601500
O          14.88712200      4.07702900     10.80767400
H          15.61504600      4.21997800     10.01360600
O          14.12308800      9.29379300      7.75314900
H          13.83365400      8.39671300      7.44217800
H          13.63301200      9.89949000      7.20493900
O          13.26858300      6.90958700      6.85619300
H          13.96710000      6.21219000      6.87155900
H          12.63126300      6.57399100      7.49958400
O          11.06706900      7.36816000     11.70519000
H          11.12044300      7.74719800     12.57923400
H          11.59792600      7.97064100     11.15494600
O          13.05717100      9.05168200     10.40682900
H          13.29810100      9.22753900      9.48965000
H          13.49959700      8.20003300     10.58494800
          46
 Energy =     -0.70349700 a.u.  #Cluster:    8
C          17.73151400      6.78371800     10.12308400
C          17.19331600      6.44631000     11.36804600
C          16.24094100      7.29295800     11.95184100
C          15.86486000      8.45832300     11.27772800
C          16.42668100      8.76028800     10.04326500
H          15.78453500      7.03865400     12.91463200
H          18.43809100      6.11079600      9.60977000
H          15.08780400      9.10440500     11.69339300
H          16.13994400      9.66927900      9.48537000
C          17.59280600      5.16513500     12.00059900
H          18.57423200      5.22268400     12.48674600
H          16.86037600      4.82207800     12.75251300
H          17.63459000      4.34696600     11.25180400
N          17.35206800      7.92741200      9.48612600
C          17.93233800      8.25543100      8.16291300
H          17.88896500      9.36556600      8.01602200
H          19.00706000      7.96641000      8.15658000
C          17.18786600      7.57959500      6.99982600
H          16.10770600      7.85362100      7.01927600
H          17.56206500      8.02271200      6.05241900
C          17.33117500      6.06281400      6.95594600
H          17.15196600      5.68814700      5.92747800
H          18.34264500      5.72524200      7.23044700
C          16.27958400      5.41977100      7.86887100
O          15.08388300      5.59979200      7.54945900
O          16.69143900      4.80757500      8.86983900
P          13.81306100      5.19040200     10.68531400
O          14.23249700      6.60347500     10.84581100
O          12.70696500      4.70137700     11.71141900
H          11.86595300      5.31734600     11.51218600
O          13.17265900      4.90523500      9.25689800
H          13.93708300      5.06172000      8.51474600
O          14.98199100      4.14790500     10.90542300
H          15.66239000      4.32544800     10.07811100
O          15.48303900     10.16730200      7.57858200
H          14.94287500     10.81869600      7.14339500
H          14.87387200      9.42404500      7.78280600
O          11.21190600      6.96385600      8.38435400
H          11.62639500      6.08886500      8.38037700
H          11.98429100      7.54846900      8.32492700
O          10.36558000      6.30233700     10.99804000
H          10.63881600      6.68606600     10.13933000
H           9.63749700      5.72758000     10.77184900
O          13.92906500      8.03130200      8.29761000
H          14.27716300      7.22187600      7.85447900
H          13.98848600      7.78102200      9.24036600
          46
 Energy =     -0.70299800 a.u.  #Cluster:    9
C          17.53316800      6.64658500     10.25360500
C          16.77300800      6.84041000     11.40948000
C          15.84273100      7.89020800     11.44262800
C          15.74806700      8.74802600     10.34802700
C          16.56688100      8.55763600      9.23680100
H          15.18196600      8.02368300     12.30797800
H          18.18679200      5.76599400     10.14152700
H          15.00725000      9.55770500     10.33763400
H          16.50463700      9.21748600      8.36027400
C          16.93504500      5.90946300     12.55377400
H          16.07543600      5.94150100     13.24527600
H          16.99084400      4.85420500     12.22120200
H          17.84067700      6.12218200     13.13601700
N          17.44428400      7.51638000      9.20538000
C          18.33765300      7.33115000      8.03620700
H          19.02940600      8.20312800      7.99289200
H          18.96455900      6.41782100      8.20211800
C          17.58454300      7.17567200      6.70384000
H          16.64364200      7.76780400      6.69920300
H          18.20225800      7.60315400      5.88834100
C          17.26576900      5.71568200      6.39075700
H          16.79954300      5.62184900      5.39095800
H          18.17237300      5.08724900      6.37332400
C          16.29490800      5.18674000      7.45205600
O          15.08322700      5.20583000      7.17131200
O          16.80362800      4.83076600      8.53787700
P          13.89833300      5.03991500     10.35749100
O          14.16338400      6.51015900     10.39836300
O          12.95953300      4.50485300     11.51876000
H          12.24841900      5.26767500     11.69238000
O          13.18689900      4.59739500      9.01900200
H          13.90053900      4.75577000      8.22813000
O          15.19806100      4.17118200     10.56055400
H          15.84029300      4.38468000      9.69582900
O          12.90748500      9.90686700      8.77031200
H          13.44902500      9.21132500      8.35507600
H          12.13796500      9.98294200      8.21358900
O          14.50861600      7.81360600      7.86977800
H          14.52772700      7.03206700      7.28341500
H          14.35653300      7.39271500      8.74318400
O          10.99037100      6.58104400     11.99412300
H          10.40502400      6.57360100     11.23830200
H          11.50435000      7.40419600     11.89782900
O          12.71186000      8.75418200     11.37719400
H          12.64244700      9.26132900     10.55666200
H          13.23087200      7.97620500     11.11155900
          46
 Energy =     -0.70205200 a.u.  #Cluster:   10
C          17.67099600      6.82161600     10.21258500
C          17.13247300      6.55060500     11.47193500
C          16.15043100      7.40662600     11.99289800
C          15.72414800      8.49720000     11.22956500
C          16.23432200      8.69199400      9.95035600
H          15.70631600      7.21112900     12.97380600
H          18.44897000      6.17762000      9.77470300
H          14.94166700      9.16510700     11.60761600
H          15.84666000      9.48499100      9.28824400
C          17.55986700      5.32339900     12.18676700
H          18.59569100      5.37457900     12.54252100
H          16.91343600      5.08785200     13.04738700
H          17.48133100      4.43905400     11.51628600
N          17.21633500      7.87441400      9.47475200
C          17.78228800      8.11643700      8.12838100
H          17.71113600      9.20630100      7.89742600
H          18.86728300      7.86339900      8.13576000
C          17.05126500      7.31376400      7.04078600
H          15.94843800      7.44534100      7.14683700
H          17.29059000      7.76027500      6.05337900
C          17.40323000      5.82860100      7.03439400
H          17.33870400      5.41902800      6.00595100
H          18.43173900      5.63393300      7.37472000
C          16.39677500      5.06407600      7.90369100
O          15.24099900      4.95323200      7.44317400
O          16.78777200      4.63264500      9.00256400
P          13.81651600      5.18196500     10.59863900
O          14.32393600      6.55633200     10.82954900
O          12.63050400      4.76221500     11.57141400
H          11.95025500      5.56858700     11.52849000
O          13.19144700      4.99624800      9.15131900
H          13.99507400      4.82266600      8.46457600
O          14.88604800      4.04643900     10.84108900
H          15.65198400      4.20933100     10.08037500
O          14.31237300      9.27971600      7.77856600
H          14.03420800      8.38694700      7.44100100
H          13.87752100      9.89698900      7.19794600
O          13.48978600      6.91840800      6.82364400
H          12.84647900      6.55980900      7.44738300
H          14.20391900      6.23274800      6.85867400
O          10.79563200      7.07660600     11.25486600
H          11.40045400      7.79076000     10.99445700
H          10.30215900      6.88353600     10.45836800
O          12.85970000      8.93220000     10.25917400
H          13.33303500      8.12092900     10.52306500
H          13.24613600      9.13436100      9.40094700
          46
 Energy =     -0.70183200 a.u.  #Cluster:   11
C          17.65845800      6.81810900     10.28376000
C          17.04900400      6.52922600     11.50798400
C          16.06532400      7.39718900     12.00193300
C          15.72213300      8.52839600     11.25658000
C          16.34174100      8.77269500     10.03688200
H          15.56181600      7.18567600     12.95163500
H          18.41637200      6.14438600      9.85364300
H          14.92726900      9.19222000     11.60380100
H          16.07585900      9.64924900      9.41965500
C          17.41050900      5.27560200     12.21359200
H          16.65052600      4.97803300     12.95742500
H          17.46115200      4.42222500     11.50464600
H          18.37796500      5.34113700     12.72578000
N          17.29998300      7.92236600      9.56967100
C          17.93421800      8.18116200      8.25585700
H          17.89257600      9.28120500      8.04566800
H          19.00932300      7.89871500      8.30928400
C          17.23903300      7.43685100      7.10387200
H          16.16162800      7.71880500      7.05484900
H          17.66122700      7.81681000      6.14917100
C          17.36968800      5.91927700      7.16173500
H          17.24757100      5.48321500      6.14899000
H          18.36019600      5.59303900      7.51502200
C          16.26067600      5.33652100      8.04664300
O          15.08581200      5.52247300      7.66032200
O          16.60796600      4.75905100      9.09145900
P          13.65485000      5.26002000     10.75746700
O          14.05384300      6.68426600     10.88926500
O          12.49784300      4.80120500     11.74080700
H          11.68981800      5.45553700     11.52380800
O          13.08434000      4.92861500      9.31193400
H          13.88400700      5.04421600      8.60287400
O          14.81697800      4.23863400     11.07945600
H          15.52670500      4.36384300     10.26539400
O          15.50712500     10.05491400      7.46452800
H          14.99058100     10.67296900      6.95756000
H          14.88748000      9.32602900      7.68817100
O          11.14466700      7.00200300      8.33476400
H          11.40503700      6.07106300      8.30787500
H          11.99512300      7.46073300      8.25143000
O          10.41700400      6.73527100     11.06411100
H          10.54870500      6.83103100     10.09822900
H          10.74738600      7.55709500     11.42281700
O          13.92149800      7.96598600      8.24743800
H          14.28568800      7.13793200      7.85147700
H          13.94332700      7.75501600      9.20075400
          46
 Energy =     -0.70047900 a.u.  #Cluster:   12
C          17.44759300      6.93602800     10.42138200
C          16.95874100      6.65789900     11.71096800
C          16.03091400      7.54513300     12.28783900
C          15.58396100      8.64615100     11.55764400
C          16.06184700      8.87355900     10.26245100
H          15.62817100      7.34528800     13.28481700
H          18.13061700      6.22720600      9.91045200
H          14.81658800      9.31634400     11.96506800
H          15.64426900      9.67699100      9.63047200
C          17.37659900      5.41331100     12.39993500
H          16.70599900      4.57470600     12.08186300
H          18.39601800      5.09147900     12.15092100
H          17.30092400      5.47063100     13.49289900
N          17.01475000      8.03950200      9.72949200
C          17.58875200      8.34202200      8.37848500
H          17.64344300      9.45016900      8.25853300
H          18.64055900      7.97064700      8.34244300
C          16.76723600      7.73858400      7.23274100
H          15.67366600      7.73998700      7.49501300
H          16.83632900      8.41230100      6.35325700
C          17.21253300      6.33170400      6.83208600
H          17.01904700      6.16200300      5.75168800
H          18.30017700      6.18240600      6.96712900
C          16.43771800      5.30199600      7.63822800
O          15.31872200      4.92165800      7.24895800
O          16.98680400      4.91187400      8.73256900