          46
 G =       -0.710581 Gcorr = 0.252662 a.u. Nimag =   0 Frame:     1 Step:     1 Geom:     1
C          16.91131200      6.92823500     10.60266700
C          16.11434300      7.32183500     11.69147200
C          15.50943000      8.59117900     11.65915000
C          15.70747700      9.42295500     10.55772600
C          16.49024700      8.99522100      9.48266300
H          14.84779800      8.92470300     12.47173800
H          17.37430000      5.91728600     10.56775200
H          15.20190800     10.40060500     10.51527300
H          16.59576900      9.60963200      8.57209700
C          15.90119400      6.39897900     12.83442700
H          16.22741200      5.36237100     12.61799300
H          16.42430000      6.73119400     13.74080900
H          14.82773800      6.30832900     13.08475500
N          17.08850700      7.75847400      9.52254400
C          17.93081900      7.30775400      8.36763300
H          18.64561400      8.12029300      8.10950000
H          18.55029400      6.42817300      8.69375200
C          17.08078300      6.92219700      7.14541000
H          16.02375500      7.27831300      7.26291700
H          17.45845000      7.45125300      6.24778700
C          17.07125200      5.41383500      6.88636500
H          16.43304400      5.18151800      6.00768500
H          18.08266900      5.03632400      6.63880000
C          16.53879700      4.70275200      8.11414300
O          15.29112100      4.47444600      8.19815500
O          17.32132500      4.42546100      9.06248400
P          14.15578600      4.71548000     10.10965400
O          14.06445600      6.10016700      9.54061000
O          13.17021200      4.70671800     11.43966700
H          12.95366300      3.82102300     11.82146800
O          13.46043700      3.44761400      9.33840300
H          13.83335600      3.21653700      8.42904500
O          15.50382100      4.20738300     10.84884200
H          16.35404300      3.94983300     10.24746800
O          13.72605200      6.67400900      7.11668400
H          13.07047000      6.78908100      7.84102800
H          14.29392500      5.92520200      7.45714800
O          12.85925000      8.25213600      9.54071600
H          12.82851100      7.38298200     10.00782100
H          13.76383600      8.27488100      9.14961100
O          14.73140500      8.98496000      7.62236800
H          14.00991100      9.51374100      7.29273700
H          14.54383300      8.03102400      7.27870800
O          13.15252600     10.12572500     11.40347100
H          12.36855700     10.61107900     11.61218400
H          12.88632500      9.44710900     10.71669100
          46
 G =       -0.707688 Gcorr = 0.272005 a.u. Nimag =   0 Frame:     2 Step:     2 Geom:     2
C          17.35873100      6.56434300     10.87683100
C          16.48626800      6.73162400     11.95640600
C          15.60960600      7.82461600     11.96468700
C          15.61403700      8.70595200     10.88157400
C          16.49161100      8.50570500      9.82218100
H          14.91754000      7.97729500     12.80101100
H          18.03710900      5.69945900     10.82350700
H          14.90468400      9.54493000     10.84096600
H          16.49798600      9.17180400      8.94236500
C          16.47273400      5.71190200     13.03361900
H          17.40860100      5.68384700     13.60505800
H          15.64504100      5.85968200     13.74620800
H          16.30864900      4.69825500     12.61154600
N          17.36416900      7.45598200      9.84581000
C          18.31906000      7.27782600      8.72755500
H          18.82302600      8.25527300      8.53661500
H          19.11839600      6.56226900      9.03239800
C          17.63725700      6.77808800      7.44340100
H          16.71351600      7.36328800      7.23108600
H          18.30899600      6.98708600      6.58416000
C          17.30835800      5.28863300      7.47967600
H          17.08304800      4.91728100      6.45887600
H          18.15350200      4.68314900      7.84819100
C          16.07588200      5.05938500      8.35636700
O          14.96362300      5.29876200      7.84187300
O          16.27428800      4.69887100      9.53368600
P          13.16813000      5.62885900     10.73171200
O          13.61873800      7.02824800     10.86587900
O          11.88957200      5.37987900     11.64333200
H          11.60611000      4.39318500     11.50178300
O          12.68780500      5.26217500      9.26495700
H          13.56573400      5.16517800      8.65174000
O          14.19992400      4.52904700     11.18776500
H          15.04170900      4.54858600     10.49821100
O          14.44772600      7.99145700      7.85749600
H          14.16128600      8.00835700      8.77915000
H          14.62488200      7.03921100      7.68859500
O          12.38750400      9.51213500      9.86835600
H          12.64228200      8.77167500     10.42977200
H          11.90462700      9.08317500      9.13892400
O          11.60251200      7.87372500      7.69099000
H          11.55237000      6.98993500      8.07343500
H          12.53690700      7.95994600      7.44982200
O          14.63807500     10.65549500      8.63095500
H          14.58491500     10.17203100      7.80381400
H          13.81351000     10.41240300      9.08767800
          46
 G =       -0.713114 Gcorr = 0.274069 a.u. Nimag =   0 Frame:     3 Step:     3 Geom:     3
C          17.69069800      6.56286200     10.40169500
C          17.12327200      6.50602700     11.67764300
C          16.19597500      7.48583000     12.05899900
C          15.85985400      8.49217800     11.15180900
C          16.45338300      8.52198000      9.89497000
H          15.72933100      7.45290800     13.04990900
H          18.39136100      5.78806600     10.05663100
H          15.09934000      9.24121400     11.40437400
H          16.19299300      9.29985800      9.14547000
C          17.47129300      5.37457700     12.57167800
H          18.54477800      5.31605600     12.78860700
H          16.93344500      5.40999400     13.53172600
H          17.17369700      4.40869500     12.11021500
N          17.36331700      7.57017200      9.54362200
C          17.99847400      7.63531400      8.20657700
H          18.43563100      8.65425700      8.07818900
H          18.84640000      6.91238300      8.16281100
C          17.00647300      7.34299100      7.06938900
H          16.01326000      7.80732800      7.27825500
H          17.36085200      7.84900700      6.14754400
C          16.83125900      5.85137500      6.80255000
H          16.35737800      5.68629500      5.81513900
H          17.79521700      5.31566200      6.77269400
C          15.94010000      5.25337300      7.89232500
O          14.70716500      5.24714500      7.67281600
O          16.49273900      4.84737400      8.92890400
P          13.72871300      5.20998600     11.02759600
O          14.08233000      6.59523700     11.36924700
O          12.74393800      4.61381000     12.12648400
H          12.49966600      3.65364300     11.82776700
O          12.92327900      5.04701100      9.66877300
H          13.62369400      5.04546100      8.86013000
O          14.92140800      4.17315300     10.99212300
H          15.54527300      4.39318400     10.14261000
O          13.61580300      7.37608500      6.51291600
H          13.33248600      7.11390100      5.64553100
H          14.03228900      6.56662400      6.91572500
O          12.84247700      9.06645100     10.15927900
H          13.20403600      8.31934800     10.65187400
H          12.16661800      8.64095400      9.59398700
O          11.46322600      7.42510600      8.39508100
H          11.68346400      6.60229800      8.84943900
H          12.12622200      7.47524000      7.69025600
O          14.56312100      9.63563400      8.06692000
H          14.21840900      8.99606300      7.43531300
H          13.93589500      9.57790000      8.81443500
          46
 G =       -0.707479 Gcorr = 0.270395 a.u. Nimag =   0 Frame:     4 Step:     4 Geom:     4
C          17.29936000      6.37306400     10.48909800
C          16.67787100      6.67354900     11.70680100
C          16.32895100      8.00066400     11.98130600
C          16.64566700      8.99321900     11.05563900
C          17.28550500      8.65995400      9.86531000
H          15.79232200      8.25248200     12.90244900
H          17.52380300      5.32882900     10.20701200
H          16.36586500     10.03757100     11.23836600
H          17.53630700      9.42051500      9.11080300
C          16.36748100      5.57495100     12.65454500
H          15.54036800      5.83984700     13.33811500
H          16.01514600      4.66571400     12.12995200
H          17.23374800      5.29568200     13.26704700
N          17.59911400      7.35976800      9.59963100
C          18.27881600      7.01875700      8.32619800
H          19.25093300      7.56070400      8.29803000
H          18.51153600      5.92388000      8.32038800
C          17.43181200      7.36096000      7.08710900
H          16.68542500      8.15655800      7.31488000
H          18.08510200      7.79607300      6.30516100
C          16.70630900      6.13869800      6.52813400
H          16.22920600      6.38123800      5.55698000
H          17.39334500      5.29779300      6.33388200
C          15.63495600      5.69897100      7.52223000
O          14.44016900      5.81529300      7.18782700
O          16.02315400      5.29106500      8.63841600
P          13.29394600      6.64332400     10.56512800
O          13.72668300      7.61447700     11.58271300
O          11.81458400      6.15797500     10.81170900
H          11.70201900      5.19720800     10.37597900
O          13.32466300      7.34570800      9.13664500
H          13.60102600      6.68425800      8.37403600
O          14.13415300      5.29787700     10.52712600
H          14.85601800      5.29150300      9.74154500
O          12.63055400      3.77484700      7.16328000
H          13.35526500      4.43895900      7.22028400
H          12.00927000      4.16888200      6.55667300
O          13.97203800     10.46302900     10.99969100
H          13.86898800      9.52369000     11.24225500
H          13.07828900     10.75450100     10.82049300
O          11.64174000      3.56315800      9.73458100
H          12.40923700      3.18788100     10.17331900
H          11.92195500      3.61870800      8.79544000
O          15.20242900      9.61978800      8.58330500
H          14.61543800      8.85910000      8.49820000
H          14.82947700     10.07934000      9.35231100
          46
 G =       -0.700307 Gcorr = 0.273653 a.u. Nimag =   0 Frame:     5 Step:     5 Geom:     5
C          17.76334700      6.70907600     10.35316900
C          16.90557400      6.80327000     11.45060300
C          15.94497600      7.82572500     11.48180700
C          15.86525300      8.71452600     10.40738000
C          16.72060600      8.57470700      9.31912500
H          15.25858300      7.92113300     12.33147100
H          18.50945900      5.90274900     10.28014100
H          15.09745200      9.49750200     10.39361500
H          16.63857000      9.22070700      8.43232700
C          16.99420700      5.78033700     12.52129600
H          17.85462200      5.93410600     13.18370200
H          16.08523900      5.74759400     13.14716300
H          17.07652900      4.76107300     12.09056100
N          17.67152900      7.59613400      9.32009800
C          18.59279200      7.47144500      8.16760200
H          18.89042700      8.49321600      7.83445700
H          19.52845900      6.96201900      8.49637200
C          17.95778500      6.70198600      6.99777900
H          16.94634400      7.11025300      6.76393800
H          18.56012700      6.88805100      6.08478700
C          17.85864600      5.20097300      7.25139400
H          17.75778600      4.65193600      6.29335900
H          18.75701800      4.79658100      7.74438600
C          16.60904300      4.90475700      8.09118300
O          15.51069500      5.07587800      7.52755300
O          16.79324500      4.55751300      9.27502500
P          13.68128300      5.34897100     10.37866100
O          14.14944000      6.76863500     10.36943200
O          12.38710400      5.13290500     11.27583700
H          11.68032900      5.80918200     10.87518000
O          13.26334700      4.83698800      8.94643600
H          14.15098900      4.85272200      8.32581500
O          14.73627300      4.35961700     11.00099000
H          15.57374500      4.37260300     10.28700900
O          12.00161600      8.74708300      8.26524200
H          12.82441700      8.39680700      7.89142700
H          12.28038600      9.13704800      9.10760500
O          14.74554000      7.79148700      7.73623600
H          14.51144700      7.53132800      8.64722800
H          14.90815600      6.92035500      7.32876600
O          10.54943600      7.08448500     10.04558000
H           9.92533300      6.57017400      9.53544900
H          11.03184300      7.60883800      9.37134500
O          12.68890700      9.11677500     10.98523100
H          13.21034900      8.30035100     10.86120800
H          11.82178100      8.79041100     11.24505100
          46
 G =       -0.704322 Gcorr = 0.256300 a.u. Nimag =   0 Frame:     6 Step:     6 Geom:     6
C          17.68320100      6.42123400     10.64952300
C          17.07320500      6.36212600     11.91280200
C          16.31184400      7.46535100     12.35029500
C          16.17985400      8.57965200     11.52698900
C          16.80208500      8.60613700     10.27092200
H          15.79216300      7.42214900     13.31205800
H          18.21559600      5.54236800     10.23413800
H          15.55528100      9.42788100     11.82394900
H          16.65352600      9.45808400      9.57609300
C          17.17692400      5.12709800     12.72797900
H          17.15740400      5.31658600     13.80846200
H          16.30110200      4.46796800     12.50546400
H          18.06881200      4.52632900     12.50832500
N          17.54923100      7.53551200      9.85487700
C          18.20197000      7.56467200      8.50505800
H          18.72436100      8.54267300      8.38939900
H          18.98983300      6.77413700      8.46477500
C          17.19369800      7.36719400      7.36419900
H          16.18415700      7.77417500      7.65601700
H          17.50274600      7.98551700      6.49756100
C          17.04800400      5.90882300      6.92587200
H          16.49322800      5.85692500      5.96657400
H          18.03027500      5.43552700      6.73501700
C          16.29468600      5.13554400      7.99030300
O          15.03323900      5.22793400      8.05263000
O          16.94775800      4.47744500      8.85301800
P          14.12611200      5.61929800     10.15256700
O          14.66797300      6.95663800      9.68898100
O          13.23359200      5.84903800     11.48465300
H          12.54844100      6.67425900     11.42867900
O          12.95069800      5.00199700      9.15474300
H          13.29192000      4.48506400      8.35999700
O          15.12388000      4.47138500     10.65124200
H          15.92246500      4.15777800      9.95333200
O          11.57171600      7.27013800      8.38951800
H          12.35324900      7.55679100      7.83594200
H          11.68393200      6.30444800      8.48198000
O          13.95845300      7.44875700      7.18053200
H          14.48046000      7.17951100      8.03167500
H          13.98790500      6.64330700      6.65408000
O          11.50535500      7.73432700     10.91098200
H          10.66557800      7.26785200     10.89370000
H          11.71765900      7.89166300      9.92923600
O          14.92576600      9.39745100      8.44853300
H          14.45330900      8.74272700      9.00808400
H          14.48738700      9.36854000      7.58926500
          46
 G =       -0.702052 Gcorr = 0.273934 a.u. Nimag =   0 Frame:     7 Step:     7 Geom:     7
C          17.67099600      6.82161600     10.21258500
C          17.13247300      6.55060500     11.47193500
C          16.15043100      7.40662600     11.99289800
C          15.72414800      8.49720000     11.22956500
C          16.23432200      8.69199400      9.95035600
H          15.70631600      7.21112900     12.97380600
H          18.44897000      6.17762000      9.77470300
H          14.94166700      9.16510700     11.60761600
H          15.84666000      9.48499100      9.28824400
C          17.55986700      5.32339900     12.18676700
H          18.59569100      5.37457900     12.54252100
H          16.91343600      5.08785200     13.04738700
H          17.48133100      4.43905400     11.51628600
N          17.21633500      7.87441400      9.47475200
C          17.78228800      8.11643700      8.12838100
H          17.71113600      9.20630100      7.89742600
H          18.86728300      7.86339900      8.13576000
C          17.05126500      7.31376400      7.04078600
H          15.94843800      7.44534100      7.14683700
H          17.29059000      7.76027500      6.05337900
C          17.40323000      5.82860100      7.03439400
H          17.33870400      5.41902800      6.00595100
H          18.43173900      5.63393300      7.37472000
C          16.39677500      5.06407600      7.90369100
O          15.24099900      4.95323200      7.44317400
O          16.78777200      4.63264500      9.00256400
P          13.81651600      5.18196500     10.59863900
O          14.32393600      6.55633200     10.82954900
O          12.63050400      4.76221500     11.57141400
H          11.95025500      5.56858700     11.52849000
O          13.19144700      4.99624800      9.15131900
H          13.99507400      4.82266600      8.46457600
O          14.88604800      4.04643900     10.84108900
H          15.65198400      4.20933100     10.08037500
O          14.31237300      9.27971600      7.77856600
H          14.03420800      8.38694700      7.44100100
H          13.87752100      9.89698900      7.19794600
O          13.48978600      6.91840800      6.82364400
H          12.84647900      6.55980900      7.44738300
H          14.20391900      6.23274800      6.85867400
O          10.79563200      7.07660600     11.25486600
H          11.40045400      7.79076000     10.99445700
H          10.30215900      6.88353600     10.45836800
O          12.85970000      8.93220000     10.25917400
H          13.33303500      8.12092900     10.52306500
H          13.24613600      9.13436100      9.40094700
          46
 G =       -0.700130 Gcorr = 0.275871 a.u. Nimag =   0 Frame:     8 Step:     8 Geom:     8
C          17.61098400      6.93188700     10.21274100
C          17.10831900      6.60638800     11.47454900
C          16.11027900      7.41364400     12.04014900
C          15.63740100      8.51572300     11.32186400
C          16.11470000      8.76486300     10.03935700
H          15.68825800      7.17083100     13.02003000
H          18.39995700      6.32674700      9.74009600
H          14.84161000      9.14660500     11.73455900
H          15.69434700      9.56867700      9.41559100
C          17.58990000      5.37312600     12.14292000
H          16.95097600      5.07421900     12.98966900
H          17.55591900      4.51217000     11.43923500
H          18.62041700      5.45943700     12.50724400
N          17.10702500      7.98954600      9.51604000
C          17.62514700      8.27966200      8.15986300
H          17.49711900      9.36823800      7.94846300
H          18.72048300      8.07776100      8.13462800
C          16.90151800      7.45982000      7.08008200
H          15.79744800      7.52197400      7.23103300
H          17.07333900      7.94375500      6.09622800
C          17.34006500      5.99888200      7.02128700
H          17.28884800      5.61964600      5.98063900
H          18.38125100      5.85296100      7.34633100
C          16.38776500      5.15031500      7.87391600
O          15.23802300      4.98176300      7.41554400
O          16.81023400      4.71391700      8.95897500
P          13.84370700      5.16733000     10.57926200
O          14.32751300      6.55192000     10.80081600
O          12.68032400      4.72762300     11.57036500
H          11.99223800      5.52842600     11.54798600
O          13.20394300      4.95927600      9.14197700
H          14.00501800      4.81056000      8.44523100
O          14.94124600      4.05590100     10.81081100
H          15.69756400      4.24062900     10.04570200
O          14.04847800      9.26553600      7.69260800
H          13.82742900      8.35606400      7.36182400
H          13.55889000      9.84912500      7.12097700
O          13.38243700      6.83788700      6.76780400
H          12.76876400      6.44746000      7.40175600
H          14.13871300      6.19968000      6.80538000
O          10.82127400      7.02863500     11.31430500
H          11.41064300      7.75129800     11.04028800
H          10.30376500      6.83767700     10.53290500
O          12.82273400      8.91089600     10.26844900
H          13.31642300      8.10290200     10.50102600
H          13.13759600      9.10862400      9.37951400
          46
 G =       -0.698637 Gcorr = 0.252565 a.u. Nimag =   0 Frame:     9 Step:     9 Geom:     9
C          17.39199400      6.82179500     10.31672000
C          16.58450400      6.89566500     11.46666900
C          15.65276300      7.94664600     11.56954600
C          15.56229200      8.89346700     10.54750100
C          16.40116800      8.80667600      9.43378400
H          14.96868600      7.99622600     12.42463700
H          18.05454600      5.95162900     10.14580500
H          14.79388200      9.68053500     10.57656200
H          16.31798700      9.52243300      8.60479700
C          16.70301200      5.84783000     12.50896400
H          15.98991800      5.97563000     13.33610900
H          16.47327600      4.83939400     12.08307300
H          17.70960900      5.78511600     12.94115900
N          17.30963700      7.77934500      9.33647800
C          18.21074100      7.69673400      8.14109200
H          18.73534500      8.67364400      8.03087300
H          19.00146500      6.93042100      8.33498500
C          17.45101300      7.34740400      6.85340300
H          16.40588900      7.75590700      6.88385600
H          17.94098100      7.85539100      5.99843300
C          17.38734400      5.84488800      6.58206900
H          17.02839500      5.66156800      5.54730200
H          18.38569100      5.37104400      6.64805800
C          16.43184300      5.17121200      7.55662000
O          15.20950300      5.14880400      7.31554700
O          16.96316200      4.69695600      8.62065200
P          13.95364100      4.88727300     10.19951800
O          14.12645200      6.40032200     10.04671700
O          12.96331300      4.51369500     11.39679600
H          12.01557200      5.07003800     11.43174700
O          13.24238000      4.30460000      8.84802400
H          13.83074600      4.30753000      7.99887300
O          15.31271500      4.11384500     10.45362000
H          16.09376700      4.18326400      9.57872500
O          13.04729300      9.41602700      8.90926500
H          13.45307500      8.65667500      8.38552400
H          12.51964300      9.90551000      8.29349100
O          14.51735900      7.57723900      7.70461900
H          14.55335900      7.04228600      8.57464400
H          14.24920200      6.90381900      7.05376700
O          10.87793400      6.04602800     11.20664200
H          11.28665600      6.97385800     11.36602000
H          10.69314100      6.01261200     10.26542600
O          12.39950300      8.12348300     11.13363900
H          13.16886400      7.56954000     10.80071100
H          12.23078000      8.75601100     10.40755500
          46
 G =       -0.704226 Gcorr = 0.271218 a.u. Nimag =   0 Frame:    10 Step:    10 Geom:    10
C          17.55799300      6.75570800     10.45820400
C          16.71737600      6.72926000     11.57338500
C          15.67376100      7.66331000     11.66213000
C          15.53337200      8.62109600     10.65688200
C          16.41581700      8.63795000      9.57984700
H          14.96675500      7.63138000     12.49851000
H          18.33091000      5.98513600     10.31179300
H          14.70267500      9.33715800     10.68704200
H          16.31065300      9.36961700      8.76507600
C          16.91280100      5.68198700     12.60608800
H          17.82981600      5.83382200     13.18917900
H          16.06902800      5.62391400     13.31347500
H          16.97080200      4.67219800     12.15058100
N          17.41382700      7.71398000      9.49742000
C          18.37493300      7.75564700      8.36880000
H          18.96082800      8.69963700      8.45326200
H          19.09700500      6.90701200      8.47719000
C          17.70715700      7.66101200      6.98625800
H          16.71482300      8.16355000      6.97847900
H          18.32085800      8.22175100      6.25191500
C          17.54833100      6.21620200      6.51888700
H          17.17134600      6.18088600      5.47790900
H          18.50665100      5.66974600      6.52248800
C          16.54854500      5.51059900      7.43990300
O          15.35847100      5.49005000      7.07191000
O          17.00027500      5.06547900      8.51593000
P          13.96774700      4.96800600     10.13074900
O          14.15892300      6.43635400     10.33463000
O          12.97416600      4.27178000     11.15111700
H          12.29853900      5.02116400     11.46637900
O          13.37256500      4.63986000      8.70463100
H          14.14335600      4.88112400      7.99034900
O          15.28922200      4.13463800     10.33846900
H          15.98100200      4.46024400      9.55226900
O          11.69539900      8.32908000      8.13332600
H          12.64338400      8.33188300      7.89773400
H          11.40885300      7.44060700      7.92017000
O          14.44536200      7.97231600      7.87249100
H          14.32244800      7.54340400      8.74123200
H          14.67904800      7.20257300      7.31130100
O          11.03219100      6.23928900     12.00557800
H          11.40668600      7.10033400     11.72698400
H          10.22880000      6.15040000     11.49916700
O          12.25873500      8.47437000     10.89059000
H          11.92116400      8.57523200      9.98201600
H          12.96763600      7.81926100     10.77829500
          46
 G =       -0.702944 Gcorr = 0.271971 a.u. Nimag =   0 Frame:    11 Step:    11 Geom:    11
C          17.49528900      6.79817600     10.36145400
C          16.67658400      6.82800700     11.49262400
C          15.63272800      7.76435200     11.55192000
C          15.48149700      8.67788600     10.51049200
C          16.35255000      8.64973500      9.42281300
H          14.93119800      7.76616400     12.39519800
H          18.25871100      6.01489500     10.23384600
H          14.65684900      9.40212400     10.51988300
H          16.24577000      9.35640000      8.58760100
C          16.89896700      5.84286300     12.57982400
H          17.04116800      4.81854100     12.18081300
H          17.77908900      6.08628400     13.18834700
H          16.03234800      5.76299100     13.25796500
N          17.33934400      7.71377700      9.36093300
C          18.27969800      7.69517900      8.21388500
H          18.90994400      8.61148400      8.27483000
H          18.96223200      6.81281600      8.32196000
C          17.58362400      7.61109400      6.84425500
H          16.59332500      8.11615300      6.85951900
H          18.18468500      8.17025000      6.09910200
C          17.40589700      6.16821900      6.37688200
H          16.96763000      6.13624500      5.36080700
H          18.36700800      5.62927500      6.32020000
C          16.47147000      5.44671500      7.35405600
O          15.27036500      5.36836800      7.03919100
O          16.99173100      5.04303400      8.41706400
P          14.05632000      4.82638600     10.17406700
O          14.16056800      6.30923300     10.33048100
O          13.15739300      4.10898600     11.26676200
H          12.35640000      4.76984700     11.46441400
O          13.42280900      4.41516100      8.78724200
H          14.12787600      4.71252200      8.02902300
O          15.43693700      4.08713400     10.35012300
H          16.06719800      4.42387900      9.51399400
O          12.55809500      9.65371700      8.91790200
H          13.18578900      9.05911200      8.46830600
H          11.79972900      9.68946100      8.34222100
O          14.41117500      7.83470400      7.91325600
H          14.28922300      7.33218300      8.74698600
H          14.52594000      7.10869200      7.26881300
O          10.94622200      5.90498400     11.81096200
H          11.36747900      6.78454000     11.79518400
H          10.38958800      5.89117000     11.03382500
O          12.43239600      8.29020600     11.42293000
H          12.32556700      8.84857600     10.64043900
H          13.04363100      7.59849000     11.11762200
          46
 G =       -0.704215 Gcorr = 0.271228 a.u. Nimag =   0 Frame:    12 Step:    12 Geom:    12
C          17.59161100      6.69227400     10.40034400
C          16.78797600      6.74795200     11.54139100
C          15.80725300      7.74732600     11.63584800
C          15.69322400      8.68504800     10.60858300
C          16.53936600      8.61829800      9.50468400
H          15.12735800      7.78166300     12.49432600
H          18.31026700      5.87124400     10.25189700
H          14.90952700      9.45200000     10.64405700
H          16.45280300      9.33326400      8.67306200
C          16.95227100      5.71826700     12.59694100
H          16.93192300      4.69507300     12.16889000
H          17.89597600      5.82724000     13.14600100
H          16.13067000      5.73240100     13.33210400
N          17.47538600      7.63198800      9.41766100
C          18.39982100      7.58367600      8.25904600
H          19.04473800      8.49149000      8.29804700