 Entering Gaussian System, Link 0=g16
 Initial command:
 /data0/hywu0/study/g16/l1.exe "/data0/hywu0/study/g16/scratch/Gau-2007302.inp" -scrdir="/data0/hywu0/study/g16/scratch/"
 Default is to use a total of  20 processors:
                               20 via shared-memory
                                1 via Linda
 Entering Link 1 = /data0/hywu0/study/g16/l1.exe PID=   2007303.
  
 Copyright (c) 1988,1990,1992,1993,1995,1998,2003,2009,2016,
            Gaussian, Inc.  All Rights Reserved.
  
 This is part of the Gaussian(R) 16 program.  It is based on
 the Gaussian(R) 09 system (copyright 2009, Gaussian, Inc.),
 the Gaussian(R) 03 system (copyright 2003, Gaussian, Inc.),
 the Gaussian(R) 98 system (copyright 1998, Gaussian, Inc.),
 the Gaussian(R) 94 system (copyright 1995, Gaussian, Inc.),
 the Gaussian 92(TM) system (copyright 1992, Gaussian, Inc.),
 the Gaussian 90(TM) system (copyright 1990, Gaussian, Inc.),
 the Gaussian 88(TM) system (copyright 1988, Gaussian, Inc.),
 the Gaussian 86(TM) system (copyright 1986, Carnegie Mellon
 University), and the Gaussian 82(TM) system (copyright 1983,
 Carnegie Mellon University). Gaussian is a federally registered
 trademark of Gaussian, Inc.
  
 This software contains proprietary and confidential information,
 including trade secrets, belonging to Gaussian, Inc.
  
 This software is provided under written license and may be
 used, copied, transmitted, or stored only in accord with that
 written license.
  
 The following legend is applicable only to US Government
 contracts under FAR:
  
                    RESTRICTED RIGHTS LEGEND
  
 Use, reproduction and disclosure by the US Government is
 subject to restrictions as set forth in subparagraphs (a)
 and (c) of the Commercial Computer Software - Restricted
 Rights clause in FAR 52.227-19.
  
 Gaussian, Inc.
 340 Quinnipiac St., Bldg. 40, Wallingford CT 06492
  
  
 ---------------------------------------------------------------
 Warning -- This program may not be used in any manner that
 competes with the business of Gaussian, Inc. or will provide
 assistance to any competitor of Gaussian, Inc.  The licensee
 of this program is prohibited from giving any competitor of
 Gaussian, Inc. access to this program.  By using this program,
 the user acknowledges that Gaussian, Inc. is engaged in the
 business of creating and licensing software in the field of
 computational chemistry and represents and warrants to the
 licensee that it is not a competitor of Gaussian, Inc. and that
 it will not use this program in any manner prohibited above.
 ---------------------------------------------------------------
  

 Cite this work as:
 Gaussian 16, Revision A.03,
 M. J. Frisch, G. W. Trucks, H. B. Schlegel, G. E. Scuseria, 
 M. A. Robb, J. R. Cheeseman, G. Scalmani, V. Barone, 
 G. A. Petersson, H. Nakatsuji, X. Li, M. Caricato, A. V. Marenich, 
 J. Bloino, B. G. Janesko, R. Gomperts, B. Mennucci, H. P. Hratchian, 
 J. V. Ortiz, A. F. Izmaylov, J. L. Sonnenberg, D. Williams-Young, 
 F. Ding, F. Lipparini, F. Egidi, J. Goings, B. Peng, A. Petrone, 
 T. Henderson, D. Ranasinghe, V. G. Zakrzewski, J. Gao, N. Rega, 
 G. Zheng, W. Liang, M. Hada, M. Ehara, K. Toyota, R. Fukuda, 
 J. Hasegawa, M. Ishida, T. Nakajima, Y. Honda, O. Kitao, H. Nakai, 
 T. Vreven, K. Throssell, J. A. Montgomery, Jr., J. E. Peralta, 
 F. Ogliaro, M. J. Bearpark, J. J. Heyd, E. N. Brothers, K. N. Kudin, 
 V. N. Staroverov, T. A. Keith, R. Kobayashi, J. Normand, 
 K. Raghavachari, A. P. Rendell, J. C. Burant, S. S. Iyengar, 
 J. Tomasi, M. Cossi, J. M. Millam, M. Klene, C. Adamo, R. Cammi, 
 J. W. Ochterski, R. L. Martin, K. Morokuma, O. Farkas, 
 J. B. Foresman, and D. J. Fox, Gaussian, Inc., Wallingford CT, 2016.
 
 ******************************************
 Gaussian 16:  ES64L-G16RevA.03 25-Dec-2016
                20-Apr-2022 
 ******************************************
 %chk=PA.chk
 %mem=60000MB
 %nprocshared=16
 Will use up to   16 processors via shared memory.
 -----------------------------------
 #p opt freq B3LYP/6-311G** em=GD3BJ
 -----------------------------------
 1/18=20,19=15,26=3,38=1/1,3;
 2/9=110,12=2,17=6,18=5,40=1/2;
 3/5=4,6=6,7=101,11=2,25=1,30=1,71=1,74=-5,124=41/1,2,3;
 4//1;
 5/5=2,38=5/2;
 6/7=2,8=2,9=2,10=2,28=1/1;
 7//1,2,3,16;
 1/18=20,19=15,26=3/3(2);
 2/9=110/2;
 99//99;
 2/9=110/2;
 3/5=4,6=6,7=101,11=2,25=1,30=1,71=1,74=-5,124=41/1,2,3;
 4/5=5,16=3,69=1/1;
 5/5=2,38=5/2;
 7//1,2,3,16;
 1/18=20,19=15,26=3/3(-5);
 2/9=110/2;
 6/7=2,8=2,9=2,10=2,19=2,28=1/1;
 99/9=1/99;
 Leave Link    1 at Wed Apr 20 09:16:48 2022, MaxMem=  7864320000 cpu:               0.6 elap:               0.0
 (Enter /data0/hywu0/study/g16/l101.exe)
 -------------------
 Title Card Required
 -------------------
 Symbolic Z-matrix:
 Charge =  0 Multiplicity = 1
 P                    -0.64924  -0.41315   0. 
 O                    -0.07923   0.39294   1.39621 
 O                    -0.07926  -2.02536   0. 
 H                    -0.40047  -2.47882  -0.78282 
 O                    -2.35924  -0.41313   0. 
 H                    -2.67971   0.12963  -0.7241 
 O                    -0.07923   0.39294  -1.39621 
 H                     0.8408    0.63732  -1.27199 
 
 ITRead=  0  0  0  0  0  0  0  0
 MicOpt= -1 -1 -1 -1 -1 -1 -1 -1
 NAtoms=      8 NQM=        8 NQMF=       0 NMMI=      0 NMMIF=      0
                NMic=       0 NMicF=      0.
                    Isotopes and Nuclear Properties:
 (Nuclear quadrupole moments (NQMom) in fm**2, nuclear magnetic moments (NMagM)
  in nuclear magnetons)

  Atom         1           2           3           4           5           6           7           8
 IAtWgt=          31          16          16           1          16           1          16           1
 AtmWgt=  30.9737634  15.9949146  15.9949146   1.0078250  15.9949146   1.0078250  15.9949146   1.0078250
 NucSpn=           1           0           0           1           0           1           0           1
 AtZEff=  -0.0000000  -0.0000000  -0.0000000  -0.0000000  -0.0000000  -0.0000000  -0.0000000  -0.0000000
 NQMom=    0.0000000   0.0000000   0.0000000   0.0000000   0.0000000   0.0000000   0.0000000   0.0000000
 NMagM=    1.1316000   0.0000000   0.0000000   2.7928460   0.0000000   2.7928460   0.0000000   2.7928460
 AtZNuc=  15.0000000   8.0000000   8.0000000   1.0000000   8.0000000   1.0000000   8.0000000   1.0000000
 Leave Link  101 at Wed Apr 20 09:16:48 2022, MaxMem=  7864320000 cpu:               9.2 elap:               0.6
 (Enter /data0/hywu0/study/g16/l103.exe)

 GradGradGradGradGradGradGradGradGradGradGradGradGradGradGradGradGradGrad
 Berny optimization.
 Initialization pass.
                           ----------------------------
                           !    Initial Parameters    !
                           ! (Angstroms and Degrees)  !
 --------------------------                            --------------------------
 ! Name  Definition              Value          Derivative Info.                !
 --------------------------------------------------------------------------------
 ! R1    R(1,2)                  1.71           estimate D2E/DX2                !
 ! R2    R(1,3)                  1.71           estimate D2E/DX2                !
 ! R3    R(1,5)                  1.71           estimate D2E/DX2                !
 ! R4    R(1,7)                  1.71           estimate D2E/DX2                !
 ! R5    R(3,4)                  0.96           estimate D2E/DX2                !
 ! R6    R(5,6)                  0.96           estimate D2E/DX2                !
 ! R7    R(7,8)                  0.96           estimate D2E/DX2                !
 ! A1    A(2,1,3)              109.4712         estimate D2E/DX2                !
 ! A2    A(2,1,5)              109.4712         estimate D2E/DX2                !
 ! A3    A(2,1,7)              109.4713         estimate D2E/DX2                !
 ! A4    A(3,1,5)              109.4712         estimate D2E/DX2                !
 ! A5    A(3,1,7)              109.4712         estimate D2E/DX2                !
 ! A6    A(5,1,7)              109.4712         estimate D2E/DX2                !
 ! A7    A(1,3,4)              109.5            estimate D2E/DX2                !
 ! A8    A(1,5,6)              109.5012         estimate D2E/DX2                !
 ! A9    A(1,7,8)              109.5            estimate D2E/DX2                !
 ! D1    D(2,1,3,4)            179.8889         estimate D2E/DX2                !
 ! D2    D(5,1,3,4)             59.8889         estimate D2E/DX2                !
 ! D3    D(7,1,3,4)            -60.1111         estimate D2E/DX2                !
 ! D4    D(2,1,5,6)            113.1462         estimate D2E/DX2                !
 ! D5    D(3,1,5,6)           -126.8538         estimate D2E/DX2                !
 ! D6    D(7,1,5,6)             -6.8538         estimate D2E/DX2                !
 ! D7    D(2,1,7,8)             42.3913         estimate D2E/DX2                !
 ! D8    D(3,1,7,8)            -77.6087         estimate D2E/DX2                !
 ! D9    D(5,1,7,8)            162.3913         estimate D2E/DX2                !
 --------------------------------------------------------------------------------
 Trust Radius=3.00D-01 FncErr=1.00D-07 GrdErr=1.00D-06 EigMax=2.50D+02 EigMin=1.00D-04
 Number of steps in this run=     35 maximum allowed number of steps=    100.
 GradGradGradGradGradGradGradGradGradGradGradGradGradGradGradGradGradGrad

 Leave Link  103 at Wed Apr 20 09:16:48 2022, MaxMem=  7864320000 cpu:               0.1 elap:               0.0
 (Enter /data0/hywu0/study/g16/l202.exe)
                          Input orientation:                          
 ---------------------------------------------------------------------
 Center     Atomic      Atomic             Coordinates (Angstroms)
 Number     Number       Type             X           Y           Z
 ---------------------------------------------------------------------
      1         15           0       -0.649241   -0.413153    0.000000
      2          8           0       -0.079231    0.392941    1.396209
      3          8           0       -0.079261   -2.025364    0.000000
      4          1           0       -0.400471   -2.478816   -0.782819
      5          8           0       -2.359241   -0.413132    0.000000
      6          1           0       -2.679708    0.129625   -0.724096
      7          8           0       -0.079231    0.392941   -1.396209
      8          1           0        0.840796    0.637317   -1.271989
 ---------------------------------------------------------------------
                    Distance matrix (angstroms):
                    1          2          3          4          5
     1  P    0.000000
     2  O    1.710000   0.000000
     3  O    1.710000   2.792418   0.000000
     4  H    2.222983   3.619164   0.960000   0.000000
     5  O    1.710000   2.792418   2.792418   2.952395   0.000000
     6  H    2.222998   3.365637   3.454073   3.464439   0.960000
     7  O    1.710000   2.792419   2.792418   2.954054   2.792418
     8  H    2.222983   2.832923   3.091008   3.389737   3.600227
                    6          7          8
     6  H    0.000000
     7  O    2.698805   0.000000
     8  H    3.598873   0.960000   0.000000
 Stoichiometry    H3O4P
 Framework group  C1[X(H3O4P)]
 Deg. of freedom    18
 Full point group                 C1      NOp   1
 Largest Abelian subgroup         C1      NOp   1
 Largest concise Abelian subgroup C1      NOp   1
                         Standard orientation:                         
 ---------------------------------------------------------------------
 Center     Atomic      Atomic             Coordinates (Angstroms)
 Number     Number       Type             X           Y           Z
 ---------------------------------------------------------------------
      1         15           0        0.003442   -0.006765    0.056166
      2          8           0       -0.307255   -0.756521    1.561302
      3          8           0       -0.617339    1.586474    0.074082
      4          1           0       -0.441596    2.008383   -0.770138
      5          8           0        1.690465    0.041879   -0.218943
      6          1           0        1.910954   -0.527750   -0.959556
      7          8           0       -0.752105   -0.898890   -1.191777
      8          1           0       -1.631119   -1.162699   -0.910106
 ---------------------------------------------------------------------
 Rotational constants (GHZ):           3.7992523           3.7752003           3.6890964
 Leave Link  202 at Wed Apr 20 09:16:48 2022, MaxMem=  7864320000 cpu:               0.0 elap:               0.0
 (Enter /data0/hywu0/study/g16/l301.exe)
 Standard basis: 6-311G(d,p) (5D, 7F)
 Ernie: Thresh=  0.10000D-02 Tol=  0.10000D-05 Strict=F.
 There are   121 symmetry adapted cartesian basis functions of A   symmetry.
 There are   116 symmetry adapted basis functions of A   symmetry.
   116 basis functions,   198 primitive gaussians,   121 cartesian basis functions
    25 alpha electrons       25 beta electrons
       nuclear repulsion energy       257.8369884246 Hartrees.
 IExCor=  402 DFT=T Ex+Corr=B3LYP ExCW=0 ScaHFX=  0.200000
 ScaDFX=  0.800000  0.720000  1.000000  0.810000 ScalE2=  1.000000  1.000000
 IRadAn=      5 IRanWt=     -1 IRanGd=            0 ICorTp=0 IEmpDi=141
 NAtoms=    8 NActive=    8 NUniq=    8 SFac= 1.00D+00 NAtFMM=   60 NAOKFM=F Big=F
 Integral buffers will be    131072 words long.
 Raffenetti 2 integral format.
 Two-electron integral symmetry is turned on.
 R6Disp:  Grimme-D3(BJ) Dispersion energy=       -0.0095077538 Hartrees.
 Nuclear repulsion after empirical dispersion term =      257.8274806709 Hartrees.
 Leave Link  301 at Wed Apr 20 09:16:49 2022, MaxMem=  7864320000 cpu:               0.6 elap:               0.1
 (Enter /data0/hywu0/study/g16/l302.exe)
 NPDir=0 NMtPBC=     1 NCelOv=     1 NCel=       1 NClECP=     1 NCelD=      1
         NCelK=      1 NCelE2=     1 NClLst=     1 CellRange=     0.0.
 One-electron integrals computed using PRISM.
 One-electron integral symmetry used in STVInt
 NBasis=   116 RedAO= T EigKep=  1.20D-02  NBF=   116
 NBsUse=   116 1.00D-06 EigRej= -1.00D+00 NBFU=   116
 Precomputing XC quadrature grid using
 IXCGrd= 4 IRadAn=           5 IRanWt=          -1 IRanGd=           0 AccXCQ= 0.00D+00.
 Generated NRdTot=       0 NPtTot=           0 NUsed=           0 NTot=          32
 NSgBfM=   121   121   121   121   121 MxSgAt=     8 MxSgA2=     8.
 Leave Link  302 at Wed Apr 20 09:16:49 2022, MaxMem=  7864320000 cpu:               1.9 elap:               0.1
 (Enter /data0/hywu0/study/g16/l303.exe)
 DipDrv:  MaxL=1.
 Leave Link  303 at Wed Apr 20 09:16:49 2022, MaxMem=  7864320000 cpu:               0.3 elap:               0.0
 (Enter /data0/hywu0/study/g16/l401.exe)
 ExpMin= 6.85D-02 ExpMax= 7.75D+04 ExpMxC= 2.65D+03 IAcc=3 IRadAn=         5 AccDes= 0.00D+00
 Harris functional with IExCor=  402 and IRadAn=       5 diagonalized for initial guess.
 HarFok:  IExCor=  402 AccDes= 0.00D+00 IRadAn=         5 IDoV= 1 UseB2=F ITyADJ=14
 ICtDFT=  3500011 ScaDFX=  1.000000  1.000000  1.000000  1.000000
 FoFCou: FMM=F IPFlag=           0 FMFlag=      100000 FMFlg1=           0
         NFxFlg=           0 DoJE=T BraDBF=F KetDBF=T FulRan=T
         wScrn=  0.000000 ICntrl=       500 IOpCl=  0 I1Cent=   200000004 NGrid=           0
         NMat0=    1 NMatS0=      1 NMatT0=    0 NMatD0=    1 NMtDS0=    0 NMtDT0=    0
 Petite list used in FoFCou.
 Harris En= -644.355616662883    
 JPrj=0 DoOrth=F DoCkMO=F.
 Leave Link  401 at Wed Apr 20 09:16:49 2022, MaxMem=  7864320000 cpu:               3.3 elap:               0.2
 (Enter /data0/hywu0/study/g16/l502.exe)
 Keep R1 ints in memory in canonical form, NReq=38165689.
 FoFCou: FMM=F IPFlag=           0 FMFlag=           0 FMFlg1=           0
         NFxFlg=           0 DoJE=F BraDBF=F KetDBF=F FulRan=T
         wScrn=  0.000000 ICntrl=       600 IOpCl=  0 I1Cent=           0 NGrid=           0
         NMat0=    1 NMatS0=   6786 NMatT0=    0 NMatD0=    1 NMtDS0=    0 NMtDT0=    0
 Symmetry not used in FoFCou.
 Two-electron integral symmetry not used.
 Closed shell SCF:
 Using DIIS extrapolation, IDIIS=  1040.
 NGot=  7864320000 LenX=  7841259185 LenY=  7841244103
 Requested convergence on RMS density matrix=1.00D-08 within 128 cycles.
 Requested convergence on MAX density matrix=1.00D-06.
 Requested convergence on             energy=1.00D-06.
 No special actions if energy rises.
 Integral accuracy reduced to 1.0D-05 until final iterations.

 Cycle   1  Pass 0  IDiag  1:
 E= -643.771759511536    
 DIIS: error= 5.62D-02 at cycle   1 NSaved=   1.
 NSaved= 1 IEnMin= 1 EnMin= -643.771759511536     IErMin= 1 ErrMin= 5.62D-02
 ErrMax= 5.62D-02  0.00D+00 EMaxC= 1.00D-01 BMatC= 6.15D-01 BMatP= 6.15D-01
 IDIUse=3 WtCom= 4.38D-01 WtEn= 5.62D-01
 Coeff-Com:  0.100D+01
 Coeff-En:   0.100D+01
 Coeff:      0.100D+01
 Gap=    -0.030 Goal=   None    Shift=    0.000
 GapD=   -0.030 DampG=0.250 DampE=0.500 DampFc=0.2500 IDamp=-1.
 Damping current iteration by 2.50D-01
 RMSDP=1.62D-02 MaxDP=4.87D-01              OVMax= 6.10D-01

 Cycle   2  Pass 0  IDiag  1:
 E= -643.871774210154     Delta-E=       -0.100014698618 Rises=F Damp=T
 DIIS: error= 1.55D-02 at cycle   2 NSaved=   2.
 NSaved= 2 IEnMin= 2 EnMin= -643.871774210154     IErMin= 2 ErrMin= 1.55D-02
 ErrMax= 1.55D-02  0.00D+00 EMaxC= 1.00D-01 BMatC= 7.14D-02 BMatP= 6.15D-01
 IDIUse=3 WtCom= 8.45D-01 WtEn= 1.55D-01
 Coeff-Com: -0.219D+00 0.122D+01
 Coeff-En:   0.290D+00 0.710D+00
 Coeff:     -0.140D+00 0.114D+01
 Gap=     0.187 Goal=   None    Shift=    0.000
 RMSDP=3.97D-03 MaxDP=4.41D-02 DE=-1.00D-01 OVMax= 4.24D-01

 Cycle   3  Pass 0  IDiag  1:
 E= -643.980439005263     Delta-E=       -0.108664795109 Rises=F Damp=F
 DIIS: error= 4.11D-02 at cycle   3 NSaved=   3.
 NSaved= 3 IEnMin= 3 EnMin= -643.980439005263     IErMin= 2 ErrMin= 1.55D-02
 ErrMax= 4.11D-02  0.00D+00 EMaxC= 1.00D-01 BMatC= 2.78D-01 BMatP= 7.14D-02
 IDIUse=2 WtCom= 0.00D+00 WtEn= 1.00D+00
 EnCoef did     4 forward-backward iterations
 Coeff-En:   0.491D-01 0.281D+00 0.670D+00
 Coeff:      0.491D-01 0.281D+00 0.670D+00
 Gap=     0.361 Goal=   None    Shift=    0.000
 RMSDP=9.60D-03 MaxDP=1.37D-01 DE=-1.09D-01 OVMax= 4.41D-01

 Cycle   4  Pass 0  IDiag  1:
 E= -643.221634694087     Delta-E=        0.758804311176 Rises=F Damp=F
 DIIS: error= 9.69D-02 at cycle   4 NSaved=   4.
 NSaved= 4 IEnMin= 3 EnMin= -643.980439005263     IErMin= 2 ErrMin= 1.55D-02
 ErrMax= 9.69D-02  0.00D+00 EMaxC= 1.00D-01 BMatC= 1.16D+00 BMatP= 7.14D-02
 IDIUse=2 WtCom= 0.00D+00 WtEn= 1.00D+00
 EnCoef did     2 forward-backward iterations
 Coeff-En:   0.702D-01 0.000D+00 0.685D+00 0.245D+00
 Coeff:      0.702D-01 0.000D+00 0.685D+00 0.245D+00
 Gap=     0.141 Goal=   None    Shift=    0.000
 RMSDP=6.34D-03 MaxDP=1.19D-01 DE= 7.59D-01 OVMax= 2.94D-01

 Cycle   5  Pass 0  IDiag  1:
 E= -644.152694618355     Delta-E=       -0.931059924268 Rises=F Damp=F
 DIIS: error= 1.66D-02 at cycle   5 NSaved=   5.
 NSaved= 5 IEnMin= 5 EnMin= -644.152694618355     IErMin= 2 ErrMin= 1.55D-02
 ErrMax= 1.66D-02  0.00D+00 EMaxC= 1.00D-01 BMatC= 6.93D-02 BMatP= 7.14D-02
 IDIUse=3 WtCom= 8.34D-01 WtEn= 1.66D-01
 Coeff-Com: -0.134D+00 0.241D+00 0.287D+00-0.635D-01 0.669D+00
 Coeff-En:   0.000D+00 0.000D+00 0.233D+00 0.000D+00 0.767D+00
 Coeff:     -0.112D+00 0.201D+00 0.278D+00-0.530D-01 0.686D+00
 Gap=     0.211 Goal=   None    Shift=    0.000
 RMSDP=1.38D-03 MaxDP=2.31D-02 DE=-9.31D-01 OVMax= 5.67D-02

 Cycle   6  Pass 0  IDiag  1:
 E= -644.199978666502     Delta-E=       -0.047284048147 Rises=F Damp=F
 DIIS: error= 2.27D-03 at cycle   6 NSaved=   6.
 NSaved= 6 IEnMin= 6 EnMin= -644.199978666502     IErMin= 6 ErrMin= 2.27D-03
 ErrMax= 2.27D-03  0.00D+00 EMaxC= 1.00D-01 BMatC= 8.64D-04 BMatP= 6.93D-02
 IDIUse=3 WtCom= 9.77D-01 WtEn= 2.27D-02
 Coeff-Com: -0.293D-01 0.504D-01 0.346D-01-0.108D-01 0.164D+00 0.791D+00
 Coeff-En:   0.000D+00 0.000D+00 0.000D+00 0.000D+00 0.000D+00 0.100D+01
 Coeff:     -0.287D-01 0.492D-01 0.338D-01-0.106D-01 0.160D+00 0.796D+00
 Gap=     0.207 Goal=   None    Shift=    0.000
 RMSDP=1.83D-04 MaxDP=4.04D-03 DE=-4.73D-02 OVMax= 8.08D-03

 Cycle   7  Pass 0  IDiag  1:
 E= -644.200531253742     Delta-E=       -0.000552587240 Rises=F Damp=F
 DIIS: error= 8.40D-04 at cycle   7 NSaved=   7.
 NSaved= 7 IEnMin= 7 EnMin= -644.200531253742     IErMin= 7 ErrMin= 8.40D-04
 ErrMax= 8.40D-04  0.00D+00 EMaxC= 1.00D-01 BMatC= 1.68D-04 BMatP= 8.64D-04
 IDIUse=3 WtCom= 9.92D-01 WtEn= 8.40D-03
 Coeff-Com:  0.456D-03-0.128D-02-0.233D-01 0.369D-02-0.551D-03 0.561D+00
 Coeff-Com:  0.460D+00
 Coeff-En:   0.000D+00 0.000D+00 0.000D+00 0.000D+00 0.000D+00 0.703D-01
 Coeff-En:   0.930D+00
 Coeff:      0.452D-03-0.127D-02-0.231D-01 0.366D-02-0.546D-03 0.556D+00
 Coeff:      0.464D+00
 Gap=     0.207 Goal=   None    Shift=    0.000
 RMSDP=6.46D-05 MaxDP=1.54D-03 DE=-5.53D-04 OVMax= 2.90D-03

 Cycle   8  Pass 0  IDiag  1:
 E= -644.200648914432     Delta-E=       -0.000117660691 Rises=F Damp=F
 DIIS: error= 8.01D-05 at cycle   8 NSaved=   8.
 NSaved= 8 IEnMin= 8 EnMin= -644.200648914432     IErMin= 8 ErrMin= 8.01D-05
 ErrMax= 8.01D-05  0.00D+00 EMaxC= 1.00D-01 BMatC= 1.39D-06 BMatP= 1.68D-04
 IDIUse=1 WtCom= 1.00D+00 WtEn= 0.00D+00
 Coeff-Com: -0.738D-03 0.874D-03-0.196D-02 0.687D-04-0.263D-04 0.198D-01
 Coeff-Com:  0.682D-01 0.914D+00
 Coeff:     -0.738D-03 0.874D-03-0.196D-02 0.687D-04-0.263D-04 0.198D-01
 Coeff:      0.682D-01 0.914D+00
 Gap=     0.207 Goal=   None    Shift=    0.000
 RMSDP=7.13D-06 MaxDP=1.08D-04 DE=-1.18D-04 OVMax= 3.23D-04

 Initial convergence to 1.0D-05 achieved.  Increase integral accuracy.
 Cycle   9  Pass 1  IDiag  1:
 E= -644.200642798141     Delta-E=        0.000006116291 Rises=F Damp=F
 DIIS: error= 2.99D-05 at cycle   1 NSaved=   1.
 NSaved= 1 IEnMin= 1 EnMin= -644.200642798141     IErMin= 1 ErrMin= 2.99D-05
 ErrMax= 2.99D-05  0.00D+00 EMaxC= 1.00D-01 BMatC= 2.63D-07 BMatP= 2.63D-07
 IDIUse=1 WtCom= 1.00D+00 WtEn= 0.00D+00
 Coeff-Com:  0.100D+01
 Coeff:      0.100D+01
 Gap=     0.207 Goal=   None    Shift=    0.000
 RMSDP=7.13D-06 MaxDP=1.08D-04 DE= 6.12D-06 OVMax= 4.21D-04

 Cycle  10  Pass 1  IDiag  1:
 E= -644.200641945037     Delta-E=        0.000000853104 Rises=F Damp=F
 DIIS: error= 8.60D-05 at cycle   2 NSaved=   2.
 NSaved= 2 IEnMin= 1 EnMin= -644.200642798141     IErMin= 1 ErrMin= 2.99D-05
 ErrMax= 8.60D-05  0.00D+00 EMaxC= 1.00D-01 BMatC= 1.40D-06 BMatP= 2.63D-07
 IDIUse=1 WtCom= 1.00D+00 WtEn= 0.00D+00
 Coeff-Com:  0.701D+00 0.299D+00
 Coeff:      0.701D+00 0.299D+00
 Gap=     0.207 Goal=   None    Shift=    0.000
 RMSDP=7.05D-06 MaxDP=1.31D-04 DE= 8.53D-07 OVMax= 2.95D-04

 Cycle  11  Pass 1  IDiag  1:
 E= -644.200642985328     Delta-E=       -0.000001040290 Rises=F Damp=F
 DIIS: error= 1.19D-05 at cycle   3 NSaved=   3.
 NSaved= 3 IEnMin= 3 EnMin= -644.200642985328     IErMin= 3 ErrMin= 1.19D-05
 ErrMax= 1.19D-05  0.00D+00 EMaxC= 1.00D-01 BMatC= 2.29D-08 BMatP= 2.63D-07
 IDIUse=1 WtCom= 1.00D+00 WtEn= 0.00D+00
 Coeff-Com:  0.417D+00 0.188D+00 0.395D+00
 Coeff:      0.417D+00 0.188D+00 0.395D+00
 Gap=     0.207 Goal=   None    Shift=    0.000
 RMSDP=1.02D-06 MaxDP=1.61D-05 DE=-1.04D-06 OVMax= 4.01D-05

 Cycle  12  Pass 1  IDiag  1:
 E= -644.200643000478     Delta-E=       -0.000000015150 Rises=F Damp=F
 DIIS: error= 3.69D-06 at cycle   4 NSaved=   4.
 NSaved= 4 IEnMin= 4 EnMin= -644.200643000478     IErMin= 4 ErrMin= 3.69D-06
 ErrMax= 3.69D-06  0.00D+00 EMaxC= 1.00D-01 BMatC= 1.97D-09 BMatP= 2.29D-08
 IDIUse=1 WtCom= 1.00D+00 WtEn= 0.00D+00
 Coeff-Com:  0.129D+00 0.589D-01 0.246D+00 0.566D+00
 Coeff:      0.129D+00 0.589D-01 0.246D+00 0.566D+00
 Gap=     0.207 Goal=   None    Shift=    0.000
 RMSDP=2.75D-07 MaxDP=5.70D-06 DE=-1.51D-08 OVMax= 1.18D-05

 Cycle  13  Pass 1  IDiag  1:
 E= -644.200643001956     Delta-E=       -0.000000001478 Rises=F Damp=F
 DIIS: error= 3.29D-07 at cycle   5 NSaved=   5.
 NSaved= 5 IEnMin= 5 EnMin= -644.200643001956     IErMin= 5 ErrMin= 3.29D-07
 ErrMax= 3.29D-07  0.00D+00 EMaxC= 1.00D-01 BMatC= 2.36D-11 BMatP= 1.97D-09
 IDIUse=1 WtCom= 1.00D+00 WtEn= 0.00D+00
 Coeff-Com: -0.124D-01-0.549D-02 0.782D-02 0.101D+00 0.909D+00
 Coeff:     -0.124D-01-0.549D-02 0.782D-02 0.101D+00 0.909D+00
 Gap=     0.207 Goal=   None    Shift=    0.000
 RMSDP=7.27D-08 MaxDP=2.15D-06 DE=-1.48D-09 OVMax= 2.75D-06

 Cycle  14  Pass 1  IDiag  1:
 E= -644.200643001978     Delta-E=       -0.000000000023 Rises=F Damp=F
 DIIS: error= 1.77D-07 at cycle   6 NSaved=   6.
 NSaved= 6 IEnMin= 6 EnMin= -644.200643001978     IErMin= 6 ErrMin= 1.77D-07
 ErrMax= 1.77D-07  0.00D+00 EMaxC= 1.00D-01 BMatC= 1.01D-11 BMatP= 2.36D-11
 IDIUse=1 WtCom= 1.00D+00 WtEn= 0.00D+00
 Coeff-Com: -0.138D-01-0.592D-02-0.135D-01 0.178D-01 0.478D+00 0.538D+00
 Coeff:     -0.138D-01-0.592D-02-0.135D-01 0.178D-01 0.478D+00 0.538D+00
 Gap=     0.207 Goal=   None    Shift=    0.000
 RMSDP=2.04D-08 MaxDP=4.92D-07 DE=-2.27D-11 OVMax= 7.39D-07

 Cycle  15  Pass 1  IDiag  1:
 E= -644.200643001987     Delta-E=       -0.000000000009 Rises=F Damp=F
 DIIS: error= 8.11D-08 at cycle   7 NSaved=   7.
 NSaved= 7 IEnMin= 7 EnMin= -644.200643001987     IErMin= 7 ErrMin= 8.11D-08
 ErrMax= 8.11D-08  0.00D+00 EMaxC= 1.00D-01 BMatC= 1.60D-12 BMatP= 1.01D-11
 IDIUse=1 WtCom= 1.00D+00 WtEn= 0.00D+00
 Coeff-Com: -0.739D-02-0.303D-02-0.104D-01 0.838D-03 0.205D+00 0.328D+00
 Coeff-Com:  0.488D+00
 Coeff:     -0.739D-02-0.303D-02-0.104D-01 0.838D-03 0.205D+00 0.328D+00
 Coeff:      0.488D+00
 Gap=     0.207 Goal=   None    Shift=    0.000
 RMSDP=7.03D-09 MaxDP=1.20D-07 DE=-8.64D-12 OVMax= 2.46D-07

 SCF Done:  E(RB3LYP) =  -644.200643002     A.U. after   15 cycles
            NFock= 15  Conv=0.70D-08     -V/T= 2.0032
 KE= 6.421579969902D+02 PE=-2.042825117949D+03 EE= 4.986389972862D+02
 Leave Link  502 at Wed Apr 20 09:16:51 2022, MaxMem=  7864320000 cpu:              28.0 elap:               2.1
 (Enter /data0/hywu0/study/g16/l601.exe)
 Copying SCF densities to generalized density rwf, IOpCl= 0 IROHF=0.

 **********************************************************************

            Population analysis using the SCF density.

 **********************************************************************

 Orbital symmetries:
       Occupied  (A) (A) (A) (A) (A) (A) (A) (A) (A) (A) (A) (A)
                 (A) (A) (A) (A) (A) (A) (A) (A) (A) (A) (A) (A)
                 (A)
       Virtual   (A) (A) (A) (A) (A) (A) (A) (A) (A) (A) (A) (A)
                 (A) (A) (A) (A) (A) (A) (A) (A) (A) (A) (A) (A)
                 (A) (A) (A) (A) (A) (A) (A) (A) (A) (A) (A) (A)
                 (A) (A) (A) (A) (A) (A) (A) (A) (A) (A) (A) (A)
                 (A) (A) (A) (A) (A) (A) (A) (A) (A) (A) (A) (A)
                 (A) (A) (A) (A) (A) (A) (A) (A) (A) (A) (A) (A)
                 (A) (A) (A) (A) (A) (A) (A) (A) (A) (A) (A) (A)
                 (A) (A) (A) (A) (A) (A) (A)
 The electronic state is 1-A.
 Alpha  occ. eigenvalues --  -77.25055 -19.19906 -19.19586 -19.19292 -19.08630
 Alpha  occ. eigenvalues --   -6.72331  -4.88646  -4.88614  -4.88315  -1.10257
 Alpha  occ. eigenvalues --   -1.06456  -1.06135  -0.89728  -0.67325  -0.59195
 Alpha  occ. eigenvalues --   -0.57815  -0.47599  -0.46058  -0.44920  -0.40295
 Alpha  occ. eigenvalues --   -0.39907  -0.37237  -0.35775  -0.26690  -0.26616
 Alpha virt. eigenvalues --   -0.05893   0.01617   0.02017   0.04164   0.04636
 Alpha virt. eigenvalues --    0.08501   0.09593   0.19353   0.19882   0.20946
 Alpha virt. eigenvalues --    0.31369   0.36945   0.38088   0.39648   0.53629
 Alpha virt. eigenvalues --    0.55151   0.71571   0.72801   0.74443   0.78632
 Alpha virt. eigenvalues --    0.80059   0.81194   0.83078   0.83385   0.85104
 Alpha virt. eigenvalues --    0.86646   0.92390   0.94229   0.96877   0.99375
 Alpha virt. eigenvalues --    1.01108   1.17019   1.17561   1.25198   1.31329
 Alpha virt. eigenvalues --    1.31627   1.32390   1.37643   1.41826   1.47383
 Alpha virt. eigenvalues --    1.56112   1.59207   1.64288   1.74333   1.90520
 Alpha virt. eigenvalues --    1.93198   1.93853   2.33053   2.35073   2.39311
 Alpha virt. eigenvalues --    2.73283   2.81034   2.84838   2.88183   2.88275
 Alpha virt. eigenvalues --    2.89508   2.94236   2.95989   3.03247   3.04169
 Alpha virt. eigenvalues --    3.05180   3.05458   3.06458   3.07561   3.22593
 Alpha virt. eigenvalues --    3.24393   3.32262   3.65725   3.68270   3.70894
 Alpha virt. eigenvalues --    4.66772   4.74114   4.75957   4.76531   4.80177
 Alpha virt. eigenvalues --    4.83771   4.91569   4.92539   4.95260   5.34077
 Alpha virt. eigenvalues --    5.37173   5.40587   6.75461  13.74529  13.75023
 Alpha virt. eigenvalues --   13.76896  49.72647  49.73085  49.75777  49.85191
 Alpha virt. eigenvalues --  162.75037
          Condensed to atoms (all electrons):
               1          2          3          4          5          6
     1  P   12.699794   0.474050   0.221857  -0.012536   0.240456  -0.025764
     2  O    0.474050   8.188552  -0.020412  -0.000400  -0.023095  -0.001710
     3  O    0.221857  -0.020412   8.016715   0.296029  -0.018764  -0.001265
     4  H   -0.012536  -0.000400   0.296029   0.431735  -0.000806  -0.000779
     5  O    0.240456  -0.023095  -0.018764  -0.000806   8.001070   0.312271
     6  H   -0.025764  -0.001710  -0.001265  -0.000779   0.312271   0.408646
     7  O    0.226956  -0.024215  -0.018494  -0.000784  -0.015060   0.002858
     8  H   -0.021256   0.001257  -0.000719   0.000019  -0.000216  -0.000395
               7          8
     1  P    0.226956  -0.021256
     2  O   -0.024215   0.001257
     3  O   -0.018494  -0.000719
     4  H   -0.000784   0.000019
     5  O   -0.015060  -0.000216
     6  H    0.002858  -0.000395
     7  O    8.059772   0.322906
     8  H    0.322906   0.369740
 Mulliken charges:
               1
     1  P    1.196443
     2  O   -0.594027
     3  O   -0.474946
     4  H    0.287523
     5  O   -0.495855
     6  H    0.306138
     7  O   -0.553939
     8  H    0.328664
 Sum of Mulliken charges =  -0.00000
 Mulliken charges with hydrogens summed into heavy atoms:
               1
     1  P    1.196443
     2  O   -0.594027
     3  O   -0.187424
     5  O   -0.189718
     7  O   -0.225275
 Electronic spatial extent (au):  <R**2>=            465.9310
 Charge=             -0.0000 electrons
 Dipole moment (field-independent basis, Debye):
    X=             -0.0250    Y=              1.0102    Z=             -5.7339  Tot=              5.8222
 Quadrupole moment (field-independent basis, Debye-Ang):
   XX=            -31.8234   YY=            -34.0566   ZZ=            -40.9354
   XY=              0.0248   XZ=             -0.2544   YZ=              0.1043
 Traceless Quadrupole moment (field-independent basis, Debye-Ang):
   XX=              3.7817   YY=              1.5485   ZZ=             -5.3303
   XY=              0.0248   XZ=             -0.2544   YZ=              0.1043
 Octapole moment (field-independent basis, Debye-Ang**2):
  XXX=             -5.4457  YYY=              7.4165  ZZZ=            -12.0640  XYY=             -1.2823
  XXY=            -10.8618  XXZ=            -11.4580  XZZ=              5.5760  YZZ=              7.9561
  YYZ=            -11.1224  XYZ=              1.6877
 Hexadecapole moment (field-independent basis, Debye-Ang**3):
 XXXX=           -159.3400 YYYY=           -163.0394 ZZZZ=           -193.4478 XXXY=              2.4124
 XXXZ=             -3.6282 YYYX=              1.1335 YYYZ=            -11.3175 ZZZX=             -2.4510
 ZZZY=              2.0783 XXYY=            -52.8106 XXZZ=            -51.5609 YYZZ=            -57.7573
 XXYZ=              9.8747 YYXZ=              5.3913 ZZXY=             -3.3956
 N-N= 2.578274806709D+02 E-N=-2.042825111761D+03  KE= 6.421579969902D+02
 No NMR shielding tensors so no spin-rotation constants.
 Leave Link  601 at Wed Apr 20 09:16:51 2022, MaxMem=  7864320000 cpu:               1.0 elap:               0.1
 (Enter /data0/hywu0/study/g16/l701.exe)
 ... and contract with generalized density number  0.
 Compute integral first derivatives.
 R6Disp: Adding Grimme-D3(BJ) dispersion energy 1st derivatives to the gradient.
 Leave Link  701 at Wed Apr 20 09:16:51 2022, MaxMem=  7864320000 cpu:               1.4 elap:               0.1
 (Enter /data0/hywu0/study/g16/l702.exe)
 L702 exits ... SP integral derivatives will be done elsewhere.
 Leave Link  702 at Wed Apr 20 09:16:51 2022, MaxMem=  7864320000 cpu:               0.3 elap:               0.0
 (Enter /data0/hywu0/study/g16/l703.exe)
 Integral derivatives from FoFJK, PRISM(SPDF).
 Compute integral first derivatives, UseDBF=F ICtDFT=           0.
 Calling FoFJK, ICntrl=      2127 FMM=F ISym2X=0 I1Cent= 0 IOpClX= 0 NMat=1 NMatS=1 NMatT=0.
 FoFJK:  IHMeth= 1 ICntrl=    2127 DoSepK=F KAlg= 0 I1Cent=           0 FoldK=F
 IRaf=         0 NMat=       1 IRICut=       1 DoRegI=T DoRafI=F ISym2E= 0 IDoP0=0 IntGTp=1.
 FoFCou: FMM=F IPFlag=           0 FMFlag=      100000 FMFlg1=         800
         NFxFlg=           0 DoJE=F BraDBF=F KetDBF=F FulRan=T
         wScrn=  0.000000 ICntrl=      2127 IOpCl=  0 I1Cent=           0 NGrid=           0
         NMat0=    1 NMatS0=      1 NMatT0=    0 NMatD0=    1 NMtDS0=    0 NMtDT0=    0
 Symmetry not used in FoFCou.
 Leave Link  703 at Wed Apr 20 09:16:52 2022, MaxMem=  7864320000 cpu:               8.8 elap:               0.6
 (Enter /data0/hywu0/study/g16/l716.exe)
 Dipole        =-9.83112395D-03 3.97459353D-01-2.25587170D+00
 ***** Axes restored to original set *****
 -------------------------------------------------------------------
 Center     Atomic                   Forces (Hartrees/Bohr)
 Number     Number              X              Y              Z
 -------------------------------------------------------------------
      1       15           0.051591795    0.065760704    0.124185454
      2        8          -0.045244576   -0.071913416   -0.119391629
      3        8          -0.024186571    0.053518303   -0.005699400
      4        1          -0.002148072   -0.007472226   -0.006378020
      5        8           0.058073915   -0.012364029   -0.016271355
      6        1          -0.004321987    0.006190137   -0.005713085
      7        8          -0.039408863   -0.035643162    0.022457036
      8        1           0.005644361    0.001923687    0.006810998
 -------------------------------------------------------------------
 Cartesian Forces:  Max     0.124185454 RMS     0.047764001
 Leave Link  716 at Wed Apr 20 09:16:52 2022, MaxMem=  7864320000 cpu:               0.3 elap:               0.0
 (Enter /data0/hywu0/study/g16/l103.exe)

 GradGradGradGradGradGradGradGradGradGradGradGradGradGradGradGradGradGrad
 Berny optimization.
 FormGI is forming the generalized inverse of G from B-inverse, IUseBI=4.
 Internal  Forces:  Max     0.146464663 RMS     0.036030216
 Search for a local minimum.
 Step number   1 out of a maximum of   35
 All quantities printed in internal units (Hartrees-Bohrs-Radians)
 RMS Force = .36030D-01 SwitMx=.10000D-02 MixMth= 1
 Mixed Optimization -- RFO/linear search
 Second derivative matrix not updated -- first step.
 ITU=  0
     Eigenvalues ---    0.01958   0.01958   0.01958   0.11175   0.13585
     Eigenvalues ---    0.13585   0.16000   0.16000   0.16000   0.22113
     Eigenvalues ---    0.22113   0.34713   0.34713   0.34713   0.34713
     Eigenvalues ---    0.55473   0.55473   0.55473
 RFO step:  Lambda=-8.19010464D-02 EMin= 1.95780437D-02
 Linear search not attempted -- first point.
 Maximum step size (   0.300) exceeded in Quadratic search.
    -- Step size scaled by   0.689
 Iteration  1 RMS(Cart)=  0.07293885 RMS(Int)=  0.00727545
 Iteration  2 RMS(Cart)=  0.00720355 RMS(Int)=  0.00104046
 Iteration  3 RMS(Cart)=  0.00000375 RMS(Int)=  0.00104046
 Iteration  4 RMS(Cart)=  0.00000000 RMS(Int)=  0.00104046
 ITry= 1 IFail=0 DXMaxC= 1.53D-01 DCOld= 1.00D+10 DXMaxT= 3.00D-01 DXLimC= 3.00D+00 Rises=F
 Variable       Old X    -DE/DX   Delta X   Delta X   Delta X     New X
                                 (Linear)    (Quad)   (Total)
    R1        3.23143  -0.14646   0.00000  -0.23512  -0.23512   2.99631
    R2        3.23143  -0.05219   0.00000  -0.08378  -0.08378   3.14765
    R3        3.23143  -0.05375   0.00000  -0.08629  -0.08629   3.14514
    R4        3.23143  -0.05105   0.00000  -0.08195  -0.08195   3.14948
    R5        1.81414   0.00945   0.00000   0.01022   0.01022   1.82436
    R6        1.81414   0.00925   0.00000   0.01001   0.01001   1.82415
    R7        1.81414   0.00678   0.00000   0.00734   0.00734   1.82147
    A1        1.91063   0.00409   0.00000   0.02428   0.02438   1.93501
    A2        1.91063   0.01789   0.00000   0.05584   0.05657   1.96721
    A3        1.91063   0.01280   0.00000   0.04360   0.04423   1.95487
    A4        1.91063  -0.00868   0.00000  -0.03437  -0.03667   1.87396
    A5        1.91063  -0.00213   0.00000  -0.01990  -0.02255   1.88808
    A6        1.91063  -0.02398   0.00000  -0.06944  -0.07106   1.83957
    A7        1.91114   0.00611   0.00000   0.01740   0.01740   1.92853
    A8        1.91116   0.00237   0.00000   0.00676   0.00676   1.91792
    A9        1.91114  -0.00969   0.00000  -0.02760  -0.02760   1.88354
    D1        3.13965   0.00034   0.00000  -0.00069  -0.00076   3.13889
    D2        1.04526  -0.01877   0.00000  -0.06290  -0.06217   0.98309
    D3       -1.04914   0.01722   0.00000   0.05539   0.05473  -0.99441
    D4        1.97477  -0.00044   0.00000  -0.00518  -0.00548   1.96929
    D5       -2.21402   0.01021   0.00000   0.03770   0.03607  -2.17794
    D6       -0.11962  -0.01239   0.00000  -0.05024  -0.04831  -0.16793
    D7        0.73987  -0.00273   0.00000  -0.01332  -0.01299   0.72688
    D8       -1.35453  -0.01427   0.00000  -0.05757  -0.05640  -1.41092
    D9        2.83426   0.01234   0.00000   0.03924   0.03774   2.87201
         Item               Value     Threshold  Converged?
 Maximum Force            0.146465     0.000450     NO 
 RMS     Force            0.036030     0.000300     NO 
 Maximum Displacement     0.153069     0.001800     NO 
 RMS     Displacement     0.075827     0.001200     NO 
 Predicted change in Energy=-4.122924D-02
 Lowest energy point so far.  Saving SCF results.
 GradGradGradGradGradGradGradGradGradGradGradGradGradGradGradGradGradGrad

 Leave Link  103 at Wed Apr 20 09:16:52 2022, MaxMem=  7864320000 cpu:               0.2 elap:               0.0
 (Enter /data0/hywu0/study/g16/l202.exe)
                          Input orientation:                          
 ---------------------------------------------------------------------
 Center     Atomic      Atomic             Coordinates (Angstroms)
 Number     Number       Type             X           Y           Z
 ---------------------------------------------------------------------
      1         15           0       -0.627038   -0.394321    0.048146
      2          8           0       -0.082286    0.348962    1.338430
      3          8           0       -0.096010   -1.972449    0.003914
      4          1           0       -0.432621   -2.420474   -0.782204
      5          8           0       -2.289629   -0.427408   -0.020537
      6          1           0       -2.598708    0.114391   -0.757234
      7          8           0       -0.140886    0.357484   -1.357598
      8          1           0        0.781589    0.616174   -1.251822
 ---------------------------------------------------------------------
                    Distance matrix (angstroms):
                    1          2          3          4          5
     1  P    0.000000
     2  O    1.585578   0.000000
     3  O    1.665664   2.677699   0.000000
     4  H    2.198313   3.505653   0.965409   0.000000
     5  O    1.664338   2.705903   2.683228   2.828591   0.000000
     6  H    2.189727   3.283171   3.346303   3.334381   0.965296
     7  O    1.666635   2.696679   2.698947   2.851884   2.649695
     8  H    2.166852   2.743554   3.007993   3.303949   3.469510
                    6          7          8
     6  H    0.000000
     7  O    2.541736   0.000000
     8  H    3.452942   0.963882   0.000000
 Stoichiometry    H3O4P
 Framework group  C1[X(H3O4P)]
 Deg. of freedom    18
 Full point group                 C1      NOp   1
 RotChk:  IX=0 Diff= 6.95D-01
 Largest Abelian subgroup         C1      NOp   1
 Largest concise Abelian subgroup C1      NOp   1
                         Standard orientation:                         
 ---------------------------------------------------------------------
 Center     Atomic      Atomic             Coordinates (Angstroms)
 Number     Number       Type             X           Y           Z
 ---------------------------------------------------------------------
      1         15           0       -0.025884   -0.027965    0.094854
      2          8           0       -0.442540   -0.821510    1.402808
      3          8           0       -1.118144    1.185174   -0.236353
      4          1           0       -0.858134    1.666193   -1.031986
      5          8           0        1.476341    0.677112    0.222156
      6          1           0        2.091663    0.251381   -0.387704
      7          8           0        0.064441   -1.024468   -1.237998
      8          1           0       -0.686044   -1.628572   -1.208025
 ---------------------------------------------------------------------
 Rotational constants (GHZ):           4.1003324           4.0661529           3.9828744
 Leave Link  202 at Wed Apr 20 09:16:52 2022, MaxMem=  7864320000 cpu:               0.1 elap:               0.0
 (Enter /data0/hywu0/study/g16/l301.exe)
 Standard basis: 6-311G(d,p) (5D, 7F)
 Ernie: Thresh=  0.10000D-02 Tol=  0.10000D-05 Strict=F.
 There are   121 symmetry adapted cartesian basis functions of A   symmetry.
 There are   116 symmetry adapted basis functions of A   symmetry.
   116 basis functions,   198 primitive gaussians,   121 cartesian basis functions
    25 alpha electrons       25 beta electrons
       nuclear repulsion energy       267.2165242493 Hartrees.
 IExCor=  402 DFT=T Ex+Corr=B3LYP ExCW=0 ScaHFX=  0.200000
 ScaDFX=  0.800000  0.720000  1.000000  0.810000 ScalE2=  1.000000  1.000000
 IRadAn=      5 IRanWt=     -1 IRanGd=            0 ICorTp=0 IEmpDi=141
 NAtoms=    8 NActive=    8 NUniq=    8 SFac= 1.00D+00 NAtFMM=   60 NAOKFM=F Big=F
 Integral buffers will be    131072 words long.
 Raffenetti 2 integral format.
 Two-electron integral symmetry is turned on.
 R6Disp:  Grimme-D3(BJ) Dispersion energy=       -0.0097555126 Hartrees.
 Nuclear repulsion after empirical dispersion term =      267.2067687366 Hartrees.
 Leave Link  301 at Wed Apr 20 09:16:52 2022, MaxMem=  7864320000 cpu:               0.6 elap:               0.1
 (Enter /data0/hywu0/study/g16/l302.exe)
 NPDir=0 NMtPBC=     1 NCelOv=     1 NCel=       1 NClECP=     1 NCelD=      1
         NCelK=      1 NCelE2=     1 NClLst=     1 CellRange=     0.0.
 One-electron integrals computed using PRISM.
 One-electron integral symmetry used in STVInt
 NBasis=   116 RedAO= T EigKep=  1.00D-02  NBF=   116
 NBsUse=   116 1.00D-06 EigRej= -1.00D+00 NBFU=   116
 Precomputing XC quadrature grid using
 IXCGrd= 4 IRadAn=           5 IRanWt=          -1 IRanGd=           0 AccXCQ= 0.00D+00.
 Generated NRdTot=       0 NPtTot=           0 NUsed=           0 NTot=          32
 NSgBfM=   121   121   121   121   121 MxSgAt=     8 MxSgA2=     8.
 Leave Link  302 at Wed Apr 20 09:16:52 2022, MaxMem=  7864320000 cpu:               1.5 elap:               0.1
 (Enter /data0/hywu0/study/g16/l303.exe)
 DipDrv:  MaxL=1.
 Leave Link  303 at Wed Apr 20 09:16:52 2022, MaxMem=  7864320000 cpu:               0.3 elap:               0.0
 (Enter /data0/hywu0/study/g16/l401.exe)
 Initial guess from the checkpoint file:  "PA.chk"
 B after Tr=    -0.000000   -0.000000    0.000000
         Rot=    0.968649    0.014603    0.150124   -0.197406 Ang=  28.77 deg.
 Guess basis will be translated and rotated to current coordinates.
 JPrj=2 DoOrth=T DoCkMO=T.
 Generating alternative initial guess.
 ExpMin= 6.85D-02 ExpMax= 7.75D+04 ExpMxC= 2.65D+03 IAcc=2 IRadAn=         4 AccDes= 0.00D+00
 Harris functional with IExCor=  402 and IRadAn=       4 diagonalized for initial guess.
 HarFok:  IExCor=  402 AccDes= 0.00D+00 IRadAn=         4 IDoV= 1 UseB2=F ITyADJ=14
 ICtDFT=  3500011 ScaDFX=  1.000000  1.000000  1.000000  1.000000
 FoFCou: FMM=F IPFlag=           0 FMFlag=      100000 FMFlg1=           0
         NFxFlg=           0 DoJE=T BraDBF=F KetDBF=T FulRan=T
         wScrn=  0.000000 ICntrl=       500 IOpCl=  0 I1Cent=   200000004 NGrid=           0
         NMat0=    1 NMatS0=      1 NMatT0=    0 NMatD0=    1 NMtDS0=    0 NMtDT0=    0
 Petite list used in FoFCou.
 Harris En= -644.384738616781    
 Leave Link  401 at Wed Apr 20 09:16:52 2022, MaxMem=  7864320000 cpu:               3.1 elap:               0.2
 (Enter /data0/hywu0/study/g16/l502.exe)
 Keep R1 ints in memory in canonical form, NReq=38165689.
 FoFCou: FMM=F IPFlag=           0 FMFlag=           0 FMFlg1=           0
         NFxFlg=           0 DoJE=F BraDBF=F KetDBF=F FulRan=T
         wScrn=  0.000000 ICntrl=       600 IOpCl=  0 I1Cent=           0 NGrid=           0
         NMat0=    1 NMatS0=   6786 NMatT0=    0 NMatD0=    1 NMtDS0=    0 NMtDT0=    0
 Symmetry not used in FoFCou.
 Two-electron integral symmetry not used.
 Closed shell SCF:
 Using DIIS extrapolation, IDIIS=  1040.
 NGot=  7864320000 LenX=  7841259185 LenY=  7841244103
 Requested convergence on RMS density matrix=1.00D-08 within 128 cycles.
 Requested convergence on MAX density matrix=1.00D-06.
 Requested convergence on             energy=1.00D-06.
 No special actions if energy rises.
 Integral accuracy reduced to 1.0D-05 until final iterations.

 Cycle   1  Pass 0  IDiag  1:
 E= -644.238606189284    
 DIIS: error= 6.41D-03 at cycle   1 NSaved=   1.
 NSaved= 1 IEnMin= 1 EnMin= -644.238606189284     IErMin= 1 ErrMin= 6.41D-03
 ErrMax= 6.41D-03  0.00D+00 EMaxC= 1.00D-01 BMatC= 7.78D-03 BMatP= 7.78D-03
 IDIUse=3 WtCom= 9.36D-01 WtEn= 6.41D-02
 Coeff-Com:  0.100D+01
 Coeff-En:   0.100D+01
 Coeff:      0.100D+01
 Gap=     0.576 Goal=   None    Shift=    0.000
 GapD=    0.576 DampG=2.000 DampE=1.000 DampFc=2.0000 IDamp=-1.
 RMSDP=1.34D-03 MaxDP=3.47D-02              OVMax= 4.33D-02

 Cycle   2  Pass 0  IDiag  1:
 E= -644.245321117420     Delta-E=       -0.006714928136 Rises=F Damp=F
 DIIS: error= 5.63D-03 at cycle   2 NSaved=   2.
 NSaved= 2 IEnMin= 2 EnMin= -644.245321117420     IErMin= 2 ErrMin= 5.63D-03
 ErrMax= 5.63D-03  0.00D+00 EMaxC= 1.00D-01 BMatC= 5.98D-03 BMatP= 7.78D-03
 IDIUse=3 WtCom= 9.44D-01 WtEn= 5.63D-02
 Coeff-Com:  0.452D+00 0.548D+00
 Coeff-En:   0.000D+00 0.100D+01
 Coeff:      0.426D+00 0.574D+00
 Gap=     0.243 Goal=   None    Shift=    0.000
 RMSDP=7.85D-04 MaxDP=1.75D-02 DE=-6.71D-03 OVMax= 3.96D-02

 Cycle   3  Pass 0  IDiag  1:
 E= -644.246009025792     Delta-E=       -0.000687908371 Rises=F Damp=F
 DIIS: error= 4.91D-03 at cycle   3 NSaved=   3.
 NSaved= 3 IEnMin= 3 EnMin= -644.246009025792     IErMin= 3 ErrMin= 4.91D-03
 ErrMax= 4.91D-03  0.00D+00 EMaxC= 1.00D-01 BMatC= 4.84D-03 BMatP= 5.98D-03
 IDIUse=3 WtCom= 9.51D-01 WtEn= 4.91D-02
 Coeff-Com:  0.245D-01 0.467D+00 0.509D+00
 Coeff-En:   0.000D+00 0.468D+00 0.532D+00
 Coeff:      0.233D-01 0.467D+00 0.510D+00
 Gap=     0.257 Goal=   None    Shift=    0.000
 RMSDP=4.61D-04 MaxDP=1.09D-02 DE=-6.88D-04 OVMax= 1.93D-02

 Cycle   4  Pass 0  IDiag  1:
 E= -644.249541641958     Delta-E=       -0.003532616166 Rises=F Damp=F
 DIIS: error= 6.21D-04 at cycle   4 NSaved=   4.
 NSaved= 4 IEnMin= 4 EnMin= -644.249541641958     IErMin= 4 ErrMin= 6.21D-04
 ErrMax= 6.21D-04  0.00D+00 EMaxC= 1.00D-01 BMatC= 1.06D-04 BMatP= 4.84D-03
 IDIUse=3 WtCom= 9.94D-01 WtEn= 6.21D-03
 Coeff-Com: -0.157D-01 0.181D+00 0.249D+00 0.586D+00
 Coeff-En:   0.000D+00 0.000D+00 0.000D+00 0.100D+01
 Coeff:     -0.156D-01 0.180D+00 0.247D+00 0.589D+00
 Gap=     0.257 Goal=   None    Shift=    0.000
 RMSDP=6.69D-05 MaxDP=1.69D-03 DE=-3.53D-03 OVMax= 2.24D-03

 Cycle   5  Pass 0  IDiag  1:
 E= -644.249616987872     Delta-E=       -0.000075345914 Rises=F Damp=F
 DIIS: error= 1.89D-04 at cycle   5 NSaved=   5.
 NSaved= 5 IEnMin= 5 EnMin= -644.249616987872     IErMin= 5 ErrMin= 1.89D-04
 ErrMax= 1.89D-04  0.00D+00 EMaxC= 1.00D-01 BMatC= 6.92D-06 BMatP= 1.06D-04
 IDIUse=3 WtCom= 9.98D-01 WtEn= 1.89D-03
 Coeff-Com: -0.912D-02 0.501D-01 0.787D-01 0.275D+00 0.605D+00
 Coeff-En:   0.000D+00 0.000D+00 0.000D+00 0.000D+00 0.100D+01
 Coeff:     -0.910D-02 0.500D-01 0.786D-01 0.274D+00 0.606D+00
 Gap=     0.257 Goal=   None    Shift=    0.000
 RMSDP=1.51D-05 MaxDP=3.95D-04 DE=-7.53D-05 OVMax= 4.44D-04

 Cycle   6  Pass 0  IDiag  1:
 E= -644.249620841414     Delta-E=       -0.000003853543 Rises=F Damp=F
 DIIS: error= 7.16D-05 at cycle   6 NSaved=   6.
 NSaved= 6 IEnMin= 6 EnMin= -644.249620841414     IErMin= 6 ErrMin= 7.16D-05
 ErrMax= 7.16D-05  0.00D+00 EMaxC= 1.00D-01 BMatC= 8.52D-07 BMatP= 6.92D-06
 IDIUse=1 WtCom= 1.00D+00 WtEn= 0.00D+00
 Coeff-Com: -0.197D-02 0.805D-02 0.129D-01 0.720D-01 0.303D+00 0.606D+00
 Coeff:     -0.197D-02 0.805D-02 0.129D-01 0.720D-01 0.303D+00 0.606D+00
 Gap=     0.257 Goal=   None    Shift=    0.000
 RMSDP=6.42D-06 MaxDP=3.36D-04 DE=-3.85D-06 OVMax= 1.94D-04

 Initial convergence to 1.0D-05 achieved.  Increase integral accuracy.
 Cycle   7  Pass 1  IDiag  1:
 E= -644.249626689214     Delta-E=       -0.000005847800 Rises=F Damp=F
 DIIS: error= 1.01D-05 at cycle   1 NSaved=   1.
 NSaved= 1 IEnMin= 1 EnMin= -644.249626689214     IErMin= 1 ErrMin= 1.01D-05
 ErrMax= 1.01D-05  0.00D+00 EMaxC= 1.00D-01 BMatC= 3.15D-08 BMatP= 3.15D-08
 IDIUse=1 WtCom= 1.00D+00 WtEn= 0.00D+00
 Coeff-Com:  0.100D+01
 Coeff:      0.100D+01
 Gap=     0.257 Goal=   None    Shift=    0.000
 RMSDP=6.42D-06 MaxDP=3.36D-04 DE=-5.85D-06 OVMax= 8.66D-05

 Cycle   8  Pass 1  IDiag  1:
 E= -644.249626655978     Delta-E=        0.000000033236 Rises=F Damp=F
 DIIS: error= 2.03D-05 at cycle   2 NSaved=   2.
 NSaved= 2 IEnMin= 1 EnMin= -644.249626689214     IErMin= 1 ErrMin= 1.01D-05
 ErrMax= 2.03D-05  0.00D+00 EMaxC= 1.00D-01 BMatC= 7.74D-08 BMatP= 3.15D-08
 IDIUse=1 WtCom= 1.00D+00 WtEn= 0.00D+00
 Coeff-Com:  0.620D+00 0.380D+00
 Coeff:      0.620D+00 0.380D+00
 Gap=     0.257 Goal=   None    Shift=    0.000
 RMSDP=1.85D-06 MaxDP=3.38D-05 DE= 3.32D-08 OVMax= 8.75D-05

 Cycle   9  Pass 1  IDiag  1:
 E= -644.249626708622     Delta-E=       -0.000000052644 Rises=F Damp=F
 DIIS: error= 4.70D-06 at cycle   3 NSaved=   3.
 NSaved= 3 IEnMin= 3 EnMin= -644.249626708622     IErMin= 3 ErrMin= 4.70D-06
 ErrMax= 4.70D-06  0.00D+00 EMaxC= 1.00D-01 BMatC= 6.32D-09 BMatP= 3.15D-08
 IDIUse=1 WtCom= 1.00D+00 WtEn= 0.00D+00
 Coeff-Com:  0.277D+00 0.243D+00 0.481D+00
 Coeff:      0.277D+00 0.243D+00 0.481D+00
 Gap=     0.257 Goal=   None    Shift=    0.000
 RMSDP=5.27D-07 MaxDP=2.05D-05 DE=-5.26D-08 OVMax= 1.94D-05

 Cycle  10  Pass 1  IDiag  1:
 E= -644.249626712897     Delta-E=       -0.000000004275 Rises=F Damp=F
 DIIS: error= 1.12D-06 at cycle   4 NSaved=   4.
 NSaved= 4 IEnMin= 4 EnMin= -644.249626712897     IErMin= 4 ErrMin= 1.12D-06
 ErrMax= 1.12D-06  0.00D+00 EMaxC= 1.00D-01 BMatC= 2.64D-10 BMatP= 6.32D-09
 IDIUse=1 WtCom= 1.00D+00 WtEn= 0.00D+00
 Coeff-Com:  0.869D-01 0.903D-01 0.243D+00 0.580D+00
 Coeff:      0.869D-01 0.903D-01 0.243D+00 0.580D+00
 Gap=     0.257 Goal=   None    Shift=    0.000
 RMSDP=1.18D-07 MaxDP=4.41D-06 DE=-4.27D-09 OVMax= 3.97D-06

 Cycle  11  Pass 1  IDiag  1:
 E= -644.249626713074     Delta-E=       -0.000000000177 Rises=F Damp=F
 DIIS: error= 4.47D-07 at cycle   5 NSaved=   5.
 NSaved= 5 IEnMin= 5 EnMin= -644.249626713074     IErMin= 5 ErrMin= 4.47D-07
 ErrMax= 4.47D-07  0.00D+00 EMaxC= 1.00D-01 BMatC= 3.61D-11 BMatP= 2.64D-10
 IDIUse=1 WtCom= 1.00D+00 WtEn= 0.00D+00
 Coeff-Com: -0.197D-03 0.849D-02 0.468D-01 0.306D+00 0.638D+00
 Coeff:     -0.197D-03 0.849D-02 0.468D-01 0.306D+00 0.638D+00
 Gap=     0.257 Goal=   None    Shift=    0.000
 RMSDP=3.40D-08 MaxDP=7.96D-07 DE=-1.77D-10 OVMax= 8.78D-07

 Cycle  12  Pass 1  IDiag  1:
 E= -644.249626713095     Delta-E=       -0.000000000022 Rises=F Damp=F
 DIIS: error= 8.12D-08 at cycle   6 NSaved=   6.
 NSaved= 6 IEnMin= 6 EnMin= -644.249626713095     IErMin= 6 ErrMin= 8.12D-08
 ErrMax= 8.12D-08  0.00D+00 EMaxC= 1.00D-01 BMatC= 1.67D-12 BMatP= 3.61D-11
 IDIUse=1 WtCom= 1.00D+00 WtEn= 0.00D+00
 Coeff-Com: -0.791D-02-0.437D-02-0.669D-02 0.702D-01 0.237D+00 0.712D+00
 Coeff:     -0.791D-02-0.437D-02-0.669D-02 0.702D-01 0.237D+00 0.712D+00
 Gap=     0.257 Goal=   None    Shift=    0.000
 RMSDP=1.09D-08 MaxDP=3.78D-07 DE=-2.16D-11 OVMax= 3.59D-07

 Cycle  13  Pass 1  IDiag  1:
 E= -644.249626713101     Delta-E=       -0.000000000005 Rises=F Damp=F
 DIIS: error= 3.64D-08 at cycle   7 NSaved=   7.
 NSaved= 7 IEnMin= 7 EnMin= -644.249626713101     IErMin= 7 ErrMin= 3.64D-08
 ErrMax= 3.64D-08  0.00D+00 EMaxC= 1.00D-01 BMatC= 2.37D-13 BMatP= 1.67D-12
 IDIUse=1 WtCom= 1.00D+00 WtEn= 0.00D+00
 Coeff-Com: -0.464D-02-0.271D-02-0.528D-02 0.328D-01 0.121D+00 0.417D+00
 Coeff-Com:  0.442D+00
 Coeff:     -0.464D-02-0.271D-02-0.528D-02 0.328D-01 0.121D+00 0.417D+00
 Coeff:      0.442D+00
 Gap=     0.257 Goal=   None    Shift=    0.000
 RMSDP=2.60D-09 MaxDP=6.42D-08 DE=-5.46D-12 OVMax= 1.03D-07

 SCF Done:  E(RB3LYP) =  -644.249626713     A.U. after   13 cycles
            NFock= 13  Conv=0.26D-08     -V/T= 2.0027
 KE= 6.424893454971D+02 PE=-2.061962698860D+03 EE= 5.080169579129D+02
 Leave Link  502 at Wed Apr 20 09:16:54 2022, MaxMem=  7864320000 cpu:              26.5 elap:               2.0
 (Enter /data0/hywu0/study/g16/l701.exe)
 ... and contract with generalized density number  0.
 Compute integral first derivatives.
 R6Disp: Adding Grimme-D3(BJ) dispersion energy 1st derivatives to the gradient.
 Leave Link  701 at Wed Apr 20 09:16:55 2022, MaxMem=  7864320000 cpu:               1.5 elap:               0.1
 (Enter /data0/hywu0/study/g16/l702.exe)
 L702 exits ... SP integral derivatives will be done elsewhere.
 Leave Link  702 at Wed Apr 20 09:16:55 2022, MaxMem=  7864320000 cpu:               0.4 elap:               0.0
 (Enter /data0/hywu0/study/g16/l703.exe)
 Integral derivatives from FoFJK, PRISM(SPDF).
 Compute integral first derivatives, UseDBF=F ICtDFT=           0.
 Calling FoFJK, ICntrl=      2127 FMM=F ISym2X=0 I1Cent= 0 IOpClX= 0 NMat=1 NMatS=1 NMatT=0.
 FoFJK:  IHMeth= 1 ICntrl=    2127 DoSepK=F KAlg= 0 I1Cent=           0 FoldK=F
 IRaf=         0 NMat=       1 IRICut=       1 DoRegI=T DoRafI=F ISym2E= 0 IDoP0=0 IntGTp=1.
 FoFCou: FMM=F IPFlag=           0 FMFlag=      100000 FMFlg1=         800
         NFxFlg=           0 DoJE=F BraDBF=F KetDBF=F FulRan=T
         wScrn=  0.000000 ICntrl=      2127 IOpCl=  0 I1Cent=           0 NGrid=           0
         NMat0=    1 NMatS0=      1 NMatT0=    0 NMatD0=    1 NMtDS0=    0 NMtDT0=    0
 Symmetry not used in FoFCou.
 Leave Link  703 at Wed Apr 20 09:16:55 2022, MaxMem=  7864320000 cpu:               9.2 elap:               0.6
 (Enter /data0/hywu0/study/g16/l716.exe)
 Dipole        = 4.55720965D-01 2.92399147D-01-2.04320500D+00
 ***** Axes restored to original set *****
 -------------------------------------------------------------------
 Center     Atomic                   Forces (Hartrees/Bohr)
 Number     Number              X              Y              Z
 -------------------------------------------------------------------
      1       15           0.033326998    0.044910809    0.090481155
      2        8          -0.033002161   -0.052461190   -0.086086813
      3        8          -0.017308070    0.034767586   -0.006389916
      4        1          -0.000230159   -0.003531819   -0.000525183
      5        8           0.038197929   -0.005670168   -0.014929325
      6        1          -0.002501800    0.002197412   -0.000008091
      7        8          -0.020190645   -0.023244755    0.016376497
      8        1           0.001707908    0.003032125    0.001081678
 -------------------------------------------------------------------
 Cartesian Forces:  Max     0.090481155 RMS     0.033592789
 Leave Link  716 at Wed Apr 20 09:16:55 2022, MaxMem=  7864320000 cpu:               0.3 elap:               0.0
 (Enter /data0/hywu0/study/g16/l103.exe)

 GradGradGradGradGradGradGradGradGradGradGradGradGradGradGradGradGradGrad
 Berny optimization.
 Using GEDIIS/GDIIS optimizer.
 FormGI is forming the generalized inverse of G from B-inverse, IUseBI=4.
 Internal  Forces:  Max     0.105985307 RMS     0.025136103
 Search for a local minimum.
 Step number   2 out of a maximum of   35
 All quantities printed in internal units (Hartrees-Bohrs-Radians)
 RMS Force = .25136D-01 SwitMx=.10000D-02 MixMth= 1
 Mixed Optimization -- RFO/linear search
 Update second derivatives using D2CorX and points    1    2
 DE= -4.90D-02 DEPred=-4.12D-02 R= 1.19D+00
 TightC=F SS=  1.41D+00  RLast= 3.25D-01 DXNew= 5.0454D-01 9.7575D-01
 Trust test= 1.19D+00 RLast= 3.25D-01 DXMaxT set to 5.05D-01
 ITU=  1  0
 Use linear search instead of GDIIS.
     Eigenvalues ---    0.01955   0.01958   0.01958   0.11513   0.13018
     Eigenvalues ---    0.13219   0.15810   0.16000   0.16245   0.19790
     Eigenvalues ---    0.21640   0.22704   0.34713   0.34713   0.35469
     Eigenvalues ---    0.55472   0.55473   0.55961
 RFO step:  Lambda=-4.78243103D-03 EMin= 1.95491799D-02
 Quartic linear search produced a step of  1.08934.
 Iteration  1 RMS(Cart)=  0.06477498 RMS(Int)=  0.02563388
 Iteration  2 RMS(Cart)=  0.02415837 RMS(Int)=  0.00137789
 Iteration  3 RMS(Cart)=  0.00003314 RMS(Int)=  0.00137760
 Iteration  4 RMS(Cart)=  0.00000003 RMS(Int)=  0.00137760
 ITry= 1 IFail=0 DXMaxC= 1.88D-01 DCOld= 1.00D+10 DXMaxT= 5.05D-01 DXLimC= 3.00D+00 Rises=F
 Variable       Old X    -DE/DX   Delta X   Delta X   Delta X     New X
                                 (Linear)    (Quad)   (Total)
    R1        2.99631  -0.10599  -0.25613  -0.07081  -0.32694   2.66937
    R2        3.14765  -0.03500  -0.09127  -0.00878  -0.10005   3.04760
    R3        3.14514  -0.03497  -0.09400  -0.00264  -0.09664   3.04851
    R4        3.14948  -0.02923  -0.08927   0.02118  -0.06809   3.08139
    R5        1.82436   0.00215   0.01114  -0.01291  -0.00177   1.82259
    R6        1.82415   0.00204   0.01090  -0.01287  -0.00197   1.82218
    R7        1.82147   0.00257   0.00799  -0.00542   0.00257   1.82404
    A1        1.93501   0.00187   0.02656  -0.03735  -0.01067   1.92435
    A2        1.96721   0.01360   0.06163  -0.01606   0.04656   2.01377
    A3        1.95487   0.00933   0.04819  -0.02256   0.02656   1.98143
    A4        1.87396  -0.00704  -0.03995   0.02496  -0.01783   1.85613
    A5        1.88808  -0.00218  -0.02456   0.02847   0.00044   1.88852
    A6        1.83957  -0.01748  -0.07741   0.02921  -0.05012   1.78945
    A7        1.92853   0.00494   0.01895   0.00361   0.02256   1.95109
    A8        1.91792   0.00342   0.00736   0.02046   0.02782   1.94574
    A9        1.88354   0.00031  -0.03006   0.09781   0.06775   1.95129
    D1        3.13889   0.00013  -0.00083  -0.00410  -0.00498   3.13392
    D2        0.98309  -0.01324  -0.06773   0.02269  -0.04410   0.93899
    D3       -0.99441   0.01151   0.05962  -0.03714   0.02160  -0.97281
    D4        1.96929  -0.00048  -0.00597   0.00174  -0.00469   1.96460
    D5       -2.17794   0.00564   0.03930  -0.03809  -0.00115  -2.17909
    D6       -0.16793  -0.00833  -0.05262   0.01953  -0.03028  -0.19821
    D7        0.72688  -0.00276  -0.01415   0.01466   0.00098   0.72786
    D8       -1.41092  -0.00965  -0.06144   0.05663  -0.00330  -1.41422
    D9        2.87201   0.00793   0.04112   0.00089   0.04003   2.91203
         Item               Value     Threshold  Converged?
 Maximum Force            0.105985     0.000450     NO 
 RMS     Force            0.025136     0.000300     NO 
 Maximum Displacement     0.187749     0.001800     NO 
 RMS     Displacement     0.078955     0.001200     NO 
 Predicted change in Energy=-3.447366D-02
 Lowest energy point so far.  Saving SCF results.
 GradGradGradGradGradGradGradGradGradGradGradGradGradGradGradGradGradGrad

 Leave Link  103 at Wed Apr 20 09:16:55 2022, MaxMem=  7864320000 cpu:               0.2 elap:               0.0
 (Enter /data0/hywu0/study/g16/l202.exe)
                          Input orientation:                          
 ---------------------------------------------------------------------
 Center     Atomic      Atomic             Coordinates (Angstroms)
 Number     Number       Type             X           Y           Z
 ---------------------------------------------------------------------
      1         15           0       -0.616946   -0.387049    0.086293
      2          8           0       -0.117428    0.249610    1.244093
      3          8           0       -0.113431   -1.918109    0.029721
      4          1           0       -0.447993   -2.376419   -0.750167
      5          8           0       -2.224659   -0.432864   -0.038500
      6          1           0       -2.537932    0.114048   -0.768250
      7          8           0       -0.175202    0.346093   -1.301595
      8          1           0        0.748004    0.627049   -1.280498
 ---------------------------------------------------------------------
                    Distance matrix (angstroms):
                    1          2          3          4          5
     1  P    0.000000
     2  O    1.412570   0.000000
     3  O    1.612722   2.484697   0.000000
     4  H    2.164671   3.313967   0.964471   0.000000
     5  O    1.613200   2.559538   2.582225   2.727713   0.000000
     6  H    2.161372   3.150672   3.262610   3.251245   0.964255
     7  O    1.630604   2.548171   2.627324   2.791157   2.530308
     8  H    2.181650   2.695364   2.989410   3.276046   3.391563
                    6          7          8
     6  H    0.000000
     7  O    2.433268   0.000000
     8  H    3.364958   0.965241   0.000000
 Stoichiometry    H3O4P
 Framework group  C1[X(H3O4P)]
 Deg. of freedom    18
 Full point group                 C1      NOp   1
 RotChk:  IX=0 Diff= 9.17D-01
 Largest Abelian subgroup         C1      NOp   1
 Largest concise Abelian subgroup C1      NOp   1
                         Standard orientation:                         
 ---------------------------------------------------------------------
 Center     Atomic      Atomic             Coordinates (Angstroms)
 Number     Number       Type             X           Y           Z
 ---------------------------------------------------------------------
      1         15           0       -0.038892   -0.026180    0.129951
      2          8           0       -0.306348   -0.548660    1.414800
      3          8           0       -1.418707    0.274991   -0.648687
      4          1           0       -1.261557    0.639577   -1.527656
      5          8           0        0.806155    1.347740    0.104364
      6          1           0        1.682795    1.216112   -0.275061
      7          8           0        0.865220   -1.014874   -0.799528
      8          1           0        0.591586   -1.936571   -0.714145
 ---------------------------------------------------------------------
 Rotational constants (GHZ):           4.6079920           4.4546078           4.2724815
 Leave Link  202 at Wed Apr 20 09:16:55 2022, MaxMem=  7864320000 cpu:               0.1 elap:               0.0
 (Enter /data0/hywu0/study/g16/l301.exe)
 Standard basis: 6-311G(d,p) (5D, 7F)
 Ernie: Thresh=  0.10000D-02 Tol=  0.10000D-05 Strict=F.
 There are   121 symmetry adapted cartesian basis functions of A   symmetry.
 There are   116 symmetry adapted basis functions of A   symmetry.
   116 basis functions,   198 primitive gaussians,   121 cartesian basis functions
    25 alpha electrons       25 beta electrons
       nuclear repulsion energy       279.7674044668 Hartrees.
 IExCor=  402 DFT=T Ex+Corr=B3LYP ExCW=0 ScaHFX=  0.200000
 ScaDFX=  0.800000  0.720000  1.000000  0.810000 ScalE2=  1.000000  1.000000
 IRadAn=      5 IRanWt=     -1 IRanGd=            0 ICorTp=0 IEmpDi=141
 NAtoms=    8 NActive=    8 NUniq=    8 SFac= 1.00D+00 NAtFMM=   60 NAOKFM=F Big=F
 Integral buffers will be    131072 words long.
 Raffenetti 2 integral format.
 Two-electron integral symmetry is turned on.
 R6Disp:  Grimme-D3(BJ) Dispersion energy=       -0.0099789647 Hartrees.
 Nuclear repulsion after empirical dispersion term =      279.7574255021 Hartrees.
 Leave Link  301 at Wed Apr 20 09:16:55 2022, MaxMem=  7864320000 cpu:               0.6 elap:               0.1
 (Enter /data0/hywu0/study/g16/l302.exe)
 NPDir=0 NMtPBC=     1 NCelOv=     1 NCel=       1 NClECP=     1 NCelD=      1
         NCelK=      1 NCelE2=     1 NClLst=     1 CellRange=     0.0.
 One-electron integrals computed using PRISM.
 One-electron integral symmetry used in STVInt
 NBasis=   116 RedAO= T EigKep=  8.48D-03  NBF=   116
 NBsUse=   116 1.00D-06 EigRej= -1.00D+00 NBFU=   116
 Precomputing XC quadrature grid using
 IXCGrd= 4 IRadAn=           5 IRanWt=          -1 IRanGd=           0 AccXCQ= 0.00D+00.
 Generated NRdTot=       0 NPtTot=           0 NUsed=           0 NTot=          32
 NSgBfM=   121   121   121   121   121 MxSgAt=     8 MxSgA2=     8.
 Leave Link  302 at Wed Apr 20 09:16:55 2022, MaxMem=  7864320000 cpu:               1.6 elap:               0.1
 (Enter /data0/hywu0/study/g16/l303.exe)
 DipDrv:  MaxL=1.
 Leave Link  303 at Wed Apr 20 09:16:55 2022, MaxMem=  7864320000 cpu:               0.3 elap:               0.0
 (Enter /data0/hywu0/study/g16/l401.exe)
 Initial guess from the checkpoint file:  "PA.chk"
 B after Tr=     0.000000    0.000000    0.000000
         Rot=    0.945639    0.142455    0.089332   -0.278376 Ang=  37.96 deg.
 Guess basis will be translated and rotated to current coordinates.
 JPrj=2 DoOrth=T DoCkMO=T.
 Generating alternative initial guess.
 ExpMin= 6.85D-02 ExpMax= 7.75D+04 ExpMxC= 2.65D+03 IAcc=2 IRadAn=         4 AccDes= 0.00D+00
 Harris functional with IExCor=  402 and IRadAn=       4 diagonalized for initial guess.
 HarFok:  IExCor=  402 AccDes= 0.00D+00 IRadAn=         4 IDoV= 1 UseB2=F ITyADJ=14
 ICtDFT=  3500011 ScaDFX=  1.000000  1.000000  1.000000  1.000000
 FoFCou: FMM=F IPFlag=           0 FMFlag=      100000 FMFlg1=           0
         NFxFlg=           0 DoJE=T BraDBF=F KetDBF=T FulRan=T
         wScrn=  0.000000 ICntrl=       500 IOpCl=  0 I1Cent=   200000004 NGrid=           0
         NMat0=    1 NMatS0=      1 NMatT0=    0 NMatD0=    1 NMtDS0=    0 NMtDT0=    0
 Petite list used in FoFCou.
 Harris En= -644.394691919249    
 Leave Link  401 at Wed Apr 20 09:16:56 2022, MaxMem=  7864320000 cpu:               3.2 elap:               0.2
 (Enter /data0/hywu0/study/g16/l502.exe)
 Keep R1 ints in memory in canonical form, NReq=38165689.
 FoFCou: FMM=F IPFlag=           0 FMFlag=           0 FMFlg1=           0
         NFxFlg=           0 DoJE=F BraDBF=F KetDBF=F FulRan=T
         wScrn=  0.000000 ICntrl=       600 IOpCl=  0 I1Cent=           0 NGrid=           0
         NMat0=    1 NMatS0=   6786 NMatT0=    0 NMatD0=    1 NMtDS0=    0 NMtDT0=    0
 Symmetry not used in FoFCou.
 Two-electron integral symmetry not used.
 Closed shell SCF:
 Using DIIS extrapolation, IDIIS=  1040.
 NGot=  7864320000 LenX=  7841259185 LenY=  7841244103
 Requested convergence on RMS density matrix=1.00D-08 within 128 cycles.
 Requested convergence on MAX density matrix=1.00D-06.
 Requested convergence on             energy=1.00D-06.
 No special actions if energy rises.
 Integral accuracy reduced to 1.0D-05 until final iterations.

 Cycle   1  Pass 0  IDiag  1:
 E= -644.247466000147    
 DIIS: error= 9.07D-03 at cycle   1 NSaved=   1.
 NSaved= 1 IEnMin= 1 EnMin= -644.247466000147     IErMin= 1 ErrMin= 9.07D-03
 ErrMax= 9.07D-03  0.00D+00 EMaxC= 1.00D-01 BMatC= 1.76D-02 BMatP= 1.76D-02
 IDIUse=3 WtCom= 9.09D-01 WtEn= 9.07D-02
 Coeff-Com:  0.100D+01
 Coeff-En:   0.100D+01
 Coeff:      0.100D+01
 Gap=     0.621 Goal=   None    Shift=    0.000
 GapD=    0.621 DampG=2.000 DampE=1.000 DampFc=2.0000 IDamp=-1.
 RMSDP=1.75D-03 MaxDP=3.85D-02              OVMax= 5.55D-02

 Cycle   2  Pass 0  IDiag  1:
 E= -644.261232864773     Delta-E=       -0.013766864626 Rises=F Damp=F
 DIIS: error= 6.30D-03 at cycle   2 NSaved=   2.
 NSaved= 2 IEnMin= 2 EnMin= -644.261232864773     IErMin= 2 ErrMin= 6.30D-03
 ErrMax= 6.30D-03  0.00D+00 EMaxC= 1.00D-01 BMatC= 9.82D-03 BMatP= 1.76D-02
 IDIUse=3 WtCom= 9.37D-01 WtEn= 6.30D-02
 Coeff-Com:  0.399D+00 0.601D+00
 Coeff-En:   0.000D+00 0.100D+01
 Coeff:      0.374D+00 0.626D+00
 Gap=     0.288 Goal=   None    Shift=    0.000
 RMSDP=8.44D-04 MaxDP=2.51D-02 DE=-1.38D-02 OVMax= 4.23D-02

 Cycle   3  Pass 0  IDiag  1:
 E= -644.263623023144     Delta-E=       -0.002390158370 Rises=F Damp=F
 DIIS: error= 4.70D-03 at cycle   3 NSaved=   3.
 NSaved= 3 IEnMin= 3 EnMin= -644.263623023144     IErMin= 3 ErrMin= 4.70D-03
 ErrMax= 4.70D-03  0.00D+00 EMaxC= 1.00D-01 BMatC= 5.90D-03 BMatP= 9.82D-03
 IDIUse=3 WtCom= 9.53D-01 WtEn= 4.70D-02
 Coeff-Com:  0.383D-01 0.429D+00 0.532D+00
 Coeff-En:   0.000D+00 0.408D+00 0.592D+00
 Coeff:      0.365D-01 0.428D+00 0.535D+00
 Gap=     0.299 Goal=   None    Shift=    0.000
 RMSDP=4.85D-04 MaxDP=1.04D-02 DE=-2.39D-03 OVMax= 2.09D-02

 Cycle   4  Pass 0  IDiag  1:
 E= -644.267595333579     Delta-E=       -0.003972310436 Rises=F Damp=F
 DIIS: error= 8.97D-04 at cycle   4 NSaved=   4.
 NSaved= 4 IEnMin= 4 EnMin= -644.267595333579     IErMin= 4 ErrMin= 8.97D-04
 ErrMax= 8.97D-04  0.00D+00 EMaxC= 1.00D-01 BMatC= 1.88D-04 BMatP= 5.90D-03
 IDIUse=3 WtCom= 9.91D-01 WtEn= 8.97D-03
 Coeff-Com: -0.102D-01 0.139D+00 0.247D+00 0.625D+00
 Coeff-En:   0.000D+00 0.000D+00 0.000D+00 0.100D+01
 Coeff:     -0.101D-01 0.137D+00 0.245D+00 0.628D+00
 Gap=     0.298 Goal=   None    Shift=    0.000
 RMSDP=9.40D-05 MaxDP=2.94D-03 DE=-3.97D-03 OVMax= 2.98D-03

 Cycle   5  Pass 0  IDiag  1:
 E= -644.267727414914     Delta-E=       -0.000132081335 Rises=F Damp=F
 DIIS: error= 2.55D-04 at cycle   5 NSaved=   5.
 NSaved= 5 IEnMin= 5 EnMin= -644.267727414914     IErMin= 5 ErrMin= 2.55D-04
 ErrMax= 2.55D-04  0.00D+00 EMaxC= 1.00D-01 BMatC= 1.17D-05 BMatP= 1.88D-04
 IDIUse=3 WtCom= 9.97D-01 WtEn= 2.55D-03
 Coeff-Com: -0.601D-02 0.357D-01 0.786D-01 0.288D+00 0.604D+00
 Coeff-En:   0.000D+00 0.000D+00 0.000D+00 0.000D+00 0.100D+01
 Coeff:     -0.599D-02 0.356D-01 0.784D-01 0.287D+00 0.605D+00
 Gap=     0.298 Goal=   None    Shift=    0.000
 RMSDP=1.79D-05 MaxDP=4.09D-04 DE=-1.32D-04 OVMax= 4.94D-04

 Cycle   6  Pass 0  IDiag  1:
 E= -644.267734190653     Delta-E=       -0.000006775739 Rises=F Damp=F
 DIIS: error= 7.37D-05 at cycle   6 NSaved=   6.
 NSaved= 6 IEnMin= 6 EnMin= -644.267734190653     IErMin= 6 ErrMin= 7.37D-05
 ErrMax= 7.37D-05  0.00D+00 EMaxC= 1.00D-01 BMatC= 1.05D-06 BMatP= 1.17D-05
 IDIUse=1 WtCom= 1.00D+00 WtEn= 0.00D+00
 Coeff-Com: -0.189D-02 0.869D-02 0.215D-01 0.101D+00 0.304D+00 0.567D+00
 Coeff:     -0.189D-02 0.869D-02 0.215D-01 0.101D+00 0.304D+00 0.567D+00
 Gap=     0.298 Goal=   None    Shift=    0.000
 RMSDP=6.61D-06 MaxDP=3.20D-04 DE=-6.78D-06 OVMax= 1.93D-04

 Initial convergence to 1.0D-05 achieved.  Increase integral accuracy.
 Cycle   7  Pass 1  IDiag  1:
 E= -644.267728031166     Delta-E=        0.000006159487 Rises=F Damp=F
 DIIS: error= 1.14D-05 at cycle   1 NSaved=   1.
 NSaved= 1 IEnMin= 1 EnMin= -644.267728031166     IErMin= 1 ErrMin= 1.14D-05
 ErrMax= 1.14D-05  0.00D+00 EMaxC= 1.00D-01 BMatC= 4.06D-08 BMatP= 4.06D-08
 IDIUse=1 WtCom= 1.00D+00 WtEn= 0.00D+00
 Coeff-Com:  0.100D+01
 Coeff:      0.100D+01
 Gap=     0.298 Goal=   None    Shift=    0.000
 RMSDP=6.61D-06 MaxDP=3.20D-04 DE= 6.16D-06 OVMax= 7.52D-05

 Cycle   8  Pass 1  IDiag  1:
 E= -644.267728010742     Delta-E=        0.000000020424 Rises=F Damp=F
 DIIS: error= 1.57D-05 at cycle   2 NSaved=   2.
 NSaved= 2 IEnMin= 1 EnMin= -644.267728031166     IErMin= 1 ErrMin= 1.14D-05
 ErrMax= 1.57D-05  0.00D+00 EMaxC= 1.00D-01 BMatC= 7.11D-08 BMatP= 4.06D-08
 IDIUse=1 WtCom= 1.00D+00 WtEn= 0.00D+00
 Coeff-Com:  0.574D+00 0.426D+00
 Coeff:      0.574D+00 0.426D+00
 Gap=     0.298 Goal=   None    Shift=    0.000
 RMSDP=1.53D-06 MaxDP=2.80D-05 DE= 2.04D-08 OVMax= 6.26D-05

 Cycle   9  Pass 1  IDiag  1:
 E= -644.267728057251     Delta-E=       -0.000000046509 Rises=F Damp=F
 DIIS: error= 3.10D-06 at cycle   3 NSaved=   3.
 NSaved= 3 IEnMin= 3 EnMin= -644.267728057251     IErMin= 3 ErrMin= 3.10D-06
 ErrMax= 3.10D-06  0.00D+00 EMaxC= 1.00D-01 BMatC= 3.72D-09 BMatP= 4.06D-08
 IDIUse=1 WtCom= 1.00D+00 WtEn= 0.00D+00
 Coeff-Com:  0.244D+00 0.238D+00 0.518D+00
 Coeff:      0.244D+00 0.238D+00 0.518D+00
 Gap=     0.298 Goal=   None    Shift=    0.000
 RMSDP=3.77D-07 MaxDP=1.27D-05 DE=-4.65D-08 OVMax= 1.41D-05

 Cycle  10  Pass 1  IDiag  1:
 E= -644.267728059527     Delta-E=       -0.000000002276 Rises=F Damp=F
 DIIS: error= 1.21D-06 at cycle   4 NSaved=   4.
 NSaved= 4 IEnMin= 4 EnMin= -644.267728059527     IErMin= 4 ErrMin= 1.21D-06
 ErrMax= 1.21D-06  0.00D+00 EMaxC= 1.00D-01 BMatC= 2.19D-10 BMatP= 3.72D-09
 IDIUse=1 WtCom= 1.00D+00 WtEn= 0.00D+00
 Coeff-Com:  0.664D-01 0.799D-01 0.257D+00 0.597D+00
 Coeff:      0.664D-01 0.799D-01 0.257D+00 0.597D+00
 Gap=     0.298 Goal=   None    Shift=    0.000
 RMSDP=1.05D-07 MaxDP=3.83D-06 DE=-2.28D-09 OVMax= 3.87D-06

 Cycle  11  Pass 1  IDiag  1:
 E= -644.267728059668     Delta-E=       -0.000000000141 Rises=F Damp=F
 DIIS: error= 3.91D-07 at cycle   5 NSaved=   5.
 NSaved= 5 IEnMin= 5 EnMin= -644.267728059668     IErMin= 5 ErrMin= 3.91D-07
 ErrMax= 3.91D-07  0.00D+00 EMaxC= 1.00D-01 BMatC= 2.93D-11 BMatP= 2.19D-10
 IDIUse=1 WtCom= 1.00D+00 WtEn= 0.00D+00
 Coeff-Com:  0.299D-02 0.109D-01 0.621D-01 0.316D+00 0.608D+00
 Coeff:      0.299D-02 0.109D-01 0.621D-01 0.316D+00 0.608D+00
 Gap=     0.298 Goal=   None    Shift=    0.000
 RMSDP=3.20D-08 MaxDP=6.38D-07 DE=-1.41D-10 OVMax= 9.46D-07

 Cycle  12  Pass 1  IDiag  1:
 E= -644.267728059683     Delta-E=       -0.000000000015 Rises=F Damp=F
 DIIS: error= 8.22D-08 at cycle   6 NSaved=   6.
 NSaved= 6 IEnMin= 6 EnMin= -644.267728059683     IErMin= 6 ErrMin= 8.22D-08
 ErrMax= 8.22D-08  0.00D+00 EMaxC= 1.00D-01 BMatC= 1.35D-12 BMatP= 2.93D-11
 IDIUse=1 WtCom= 1.00D+00 WtEn= 0.00D+00
 Coeff-Com: -0.516D-02-0.284D-02 0.993D-03 0.854D-01 0.247D+00 0.675D+00
 Coeff:     -0.516D-02-0.284D-02 0.993D-03 0.854D-01 0.247D+00 0.675D+00
 Gap=     0.298 Goal=   None    Shift=    0.000
 RMSDP=8.57D-09 MaxDP=2.90D-07 DE=-1.55D-11 OVMax= 2.13D-07

 SCF Done:  E(RB3LYP) =  -644.267728060     A.U. after   12 cycles
            NFock= 12  Conv=0.86D-08     -V/T= 2.0016
 KE= 6.432429625005D+02 PE=-2.087982370184D+03 EE= 5.207142541213D+02
 Leave Link  502 at Wed Apr 20 09:16:58 2022, MaxMem=  7864320000 cpu:              24.5 elap:               1.9
 (Enter /data0/hywu0/study/g16/l701.exe)
 ... and contract with generalized density number  0.
 Compute integral first derivatives.
 R6Disp: Adding Grimme-D3(BJ) dispersion energy 1st derivatives to the gradient.
 Leave Link  701 at Wed Apr 20 09:16:58 2022, MaxMem=  7864320000 cpu:               1.5 elap:               0.1
 (Enter /data0/hywu0/study/g16/l702.exe)
 L702 exits ... SP integral derivatives will be done elsewhere.
 Leave Link  702 at Wed Apr 20 09:16:58 2022, MaxMem=  7864320000 cpu:               0.4 elap:               0.0
 (Enter /data0/hywu0/study/g16/l703.exe)
 Integral derivatives from FoFJK, PRISM(SPDF).
 Compute integral first derivatives, UseDBF=F ICtDFT=           0.
 Calling FoFJK, ICntrl=      2127 FMM=F ISym2X=0 I1Cent= 0 IOpClX= 0 NMat=1 NMatS=1 NMatT=0.
 FoFJK:  IHMeth= 1 ICntrl=    2127 DoSepK=F KAlg= 0 I1Cent=           0 FoldK=F
 IRaf=         0 NMat=       1 IRICut=       1 DoRegI=T DoRafI=F ISym2E= 0 IDoP0=0 IntGTp=1.
 FoFCou: FMM=F IPFlag=           0 FMFlag=      100000 FMFlg1=         800
         NFxFlg=           0 DoJE=F BraDBF=F KetDBF=F FulRan=T
         wScrn=  0.000000 ICntrl=      2127 IOpCl=  0 I1Cent=           0 NGrid=           0
         NMat0=    1 NMatS0=      1 NMatT0=    0 NMatD0=    1 NMtDS0=    0 NMtDT0=    0
 Symmetry not used in FoFCou.
 Leave Link  703 at Wed Apr 20 09:16:58 2022, MaxMem=  7864320000 cpu:               9.2 elap:               0.6
 (Enter /data0/hywu0/study/g16/l716.exe)
 Dipole        = 7.22611112D-01-6.94202164D-02-1.75987048D+00
 ***** Axes restored to original set *****
 -------------------------------------------------------------------
 Center     Atomic                   Forces (Hartrees/Bohr)
 Number     Number              X              Y              Z
 -------------------------------------------------------------------
      1       15          -0.016736265   -0.022644709   -0.042764759
      2        8           0.029427206    0.035880449    0.066907386
      3        8          -0.008039835    0.004355201   -0.010809935
      4        1           0.000453955   -0.003965334    0.000636174
      5        8           0.007739910   -0.004254149   -0.013879147
      6        1          -0.002383896    0.001074714    0.001017981
      7        8          -0.008558748   -0.011285024   -0.002989531
      8        1          -0.001902326    0.000838851    0.001881829
 -------------------------------------------------------------------
 Cartesian Forces:  Max     0.066907386 RMS     0.020376033
 Leave Link  716 at Wed Apr 20 09:16:58 2022, MaxMem=  7864320000 cpu:               0.3 elap:               0.0
 (Enter /data0/hywu0/study/g16/l103.exe)

 GradGradGradGradGradGradGradGradGradGradGradGradGradGradGradGradGradGrad
 Berny optimization.
 Using GEDIIS/GDIIS optimizer.
 FormGI is forming the generalized inverse of G from B-inverse, IUseBI=4.
 Internal  Forces:  Max     0.081417856 RMS     0.017465624
 Search for a local minimum.
 Step number   3 out of a maximum of   35
 All quantities printed in internal units (Hartrees-Bohrs-Radians)
 RMS Force = .17466D-01 SwitMx=.10000D-02 MixMth= 1
 Mixed Optimization -- RFO/linear search
 Update second derivatives using D2CorX and points    2    3
 DE= -1.81D-02 DEPred=-3.45D-02 R= 5.25D-01
 TightC=F SS=  1.41D+00  RLast= 3.84D-01 DXNew= 8.4853D-01 1.1524D+00
 Trust test= 5.25D-01 RLast= 3.84D-01 DXMaxT set to 8.49D-01
 ITU=  1  1  0
 Use linear search instead of GDIIS.
     Eigenvalues ---    0.01954   0.01958   0.01958   0.12600   0.12812
     Eigenvalues ---    0.13027   0.15828   0.16000   0.16344   0.21142
     Eigenvalues ---    0.21699   0.32864   0.34713   0.35036   0.55362
     Eigenvalues ---    0.55473   0.55738   0.58714
 RFO step:  Lambda=-1.20595411D-02 EMin= 1.95406492D-02
 Quartic linear search produced a step of -0.23105.
 Iteration  1 RMS(Cart)=  0.07372217 RMS(Int)=  0.00286815
 Iteration  2 RMS(Cart)=  0.00269086 RMS(Int)=  0.00180563
 Iteration  3 RMS(Cart)=  0.00000186 RMS(Int)=  0.00180563
 Iteration  4 RMS(Cart)=  0.00000000 RMS(Int)=  0.00180563
 ITry= 1 IFail=0 DXMaxC= 1.88D-01 DCOld= 1.00D+10 DXMaxT= 8.49D-01 DXLimC= 3.00D+00 Rises=F
 Variable       Old X    -DE/DX   Delta X   Delta X   Delta X     New X
                                 (Linear)    (Quad)   (Total)
    R1        2.66937   0.08142   0.07554   0.03052   0.10606   2.77543
    R2        3.04760  -0.00238   0.02312  -0.04937  -0.02625   3.02135
    R3        3.04851  -0.00425   0.02233  -0.05214  -0.02981   3.01869
    R4        3.08139  -0.00659   0.01573  -0.04559  -0.02986   3.05153
    R5        1.82259   0.00121   0.00041   0.00115   0.00156   1.82414
    R6        1.82218   0.00061   0.00045   0.00027   0.00072   1.82290
    R7        1.82404  -0.00153  -0.00059  -0.00107  -0.00166   1.82238
    A1        1.92435   0.00549   0.00246   0.04069   0.04347   1.96782
    A2        2.01377   0.00888  -0.01076   0.07959   0.06971   2.08348
    A3        1.98143   0.00845  -0.00614   0.06796   0.06256   2.04400
    A4        1.85613  -0.00713   0.00412  -0.06217  -0.06167   1.79446
[...]
     10  0.100686D-01 -0.788411D-02 -0.106543D-01 -0.241923D-02  0.956859D-03
     11 -0.623490D-02  0.118296D-01  0.234077D-01 -0.112469D-01 -0.635842D-02
     12 -0.944162D-02  0.814136D-02 -0.825059D-02  0.139764D-01 -0.418997D-02
     13 -0.822230D-02 -0.108747D-01  0.119859D-01  0.207400D-01  0.193374D-02
     14  0.272737D-02  0.451675D-01  0.572162D-03  0.542802D-05  0.240050D-01
     15 -0.133598D-03  0.531408D-02  0.425143D-01  0.454341D-03 -0.363930D-03
     16  0.185114D-03  0.156732D-02  0.516895D-02  0.397199D-01 -0.391475D-04
     17 -0.156702D-02  0.498941D-03  0.123840D-01 -0.870659D-02 -0.317833D-03
     18 -0.541590D-02 -0.273812D-02  0.468172D-02  0.141539D-01 -0.505163D-03
     19  0.812153D-02  0.264796D-02 -0.141849D-01 -0.794166D-02  0.755530D-03
     20  0.211089D-02 -0.131005D-01 -0.382972D-02  0.108381D-01  0.954235D-03
     21  0.686686D-02  0.270974D-02  0.138068D-02 -0.155868D-01  0.259910D-02
     22 -0.687315D-02  0.115989D-01  0.209688D-02  0.150739D-02 -0.300347D-02
     23  0.114011D-02  0.101078D-01 -0.674647D-02 -0.287001D-02 -0.277343D-03
     24 -0.587158D-02 -0.210751D-02  0.190423D-01  0.823415D-03 -0.342040D-02
     25  0.631044D-02 -0.132728D-01 -0.810222D-02  0.184392D-02  0.389935D-02
                6             7             8             9            10 
      6  0.530872D+00
      7  0.620544D-04  0.528130D+00
      8 -0.951587D-04  0.174562D-02  0.702315D-01
      9 -0.363299D-02  0.757956D-03 -0.110363D-01  0.640641D-01
     10  0.198575D-02 -0.507116D-02 -0.209561D-01 -0.148295D-01  0.716294D-01
     11  0.559124D-02  0.239384D-03 -0.327585D-01 -0.262420D-01  0.120830D-01
     12  0.103190D-02 -0.133862D-02 -0.254530D-01  0.317079D-02 -0.232976D-01
     13 -0.460963D-02  0.421172D-02  0.111709D-01 -0.200789D-01 -0.336627D-01
     14 -0.126340D-03  0.217171D-03  0.123857D-01  0.237805D-02  0.112559D-02
     15  0.242330D-01  0.727485D-03  0.157934D-03 -0.950744D-02 -0.178541D-02
     16 -0.894961D-04  0.247325D-01 -0.186249D-02  0.183460D-02 -0.175207D-01
     17 -0.144829D-02  0.274915D-02  0.121467D-02  0.272206D-01 -0.287631D-01
     18 -0.870198D-03  0.609874D-03 -0.300146D-02 -0.271431D-01 -0.663892D-02
     19  0.185651D-02 -0.364495D-02  0.322579D-02  0.277008D-02  0.315444D-01
     20 -0.201591D-02 -0.194358D-02 -0.266648D-01 -0.151402D-02  0.281764D-01
     21  0.147367D-03  0.984046D-03  0.312959D-01  0.233322D-02  0.160100D-02
     22  0.152633D-02  0.739244D-03 -0.131840D-02 -0.659325D-02 -0.284402D-01
     23  0.263530D-02 -0.136575D-02  0.269915D-01 -0.266922D-01 -0.591836D-03
     24  0.571924D-03  0.941651D-03 -0.298980D-01 -0.447351D-02 -0.516208D-02
     25 -0.411898D-02 -0.423686D-03  0.845014D-02  0.299496D-01 -0.342165D-05
               11            12            13            14            15 
     11  0.116519D+00
     12 -0.205623D-01  0.990249D-01
     13 -0.405142D-01 -0.205174D-01  0.110347D+00
     14 -0.104612D-01 -0.567088D-02 -0.306571D-02  0.113694D+00
     15  0.165468D-01  0.655626D-03 -0.404813D-02  0.919156D-03  0.114997D+00
     16 -0.118491D-02  0.693319D-02  0.157040D-01 -0.345899D-03  0.156296D-02
     17  0.161127D-01 -0.164293D-01  0.171675D-02 -0.917345D-03  0.108662D-02
     18 -0.151921D-01  0.928112D-02  0.490104D-01 -0.368944D-02  0.993351D-03
     19 -0.687098D-02  0.121145D-01 -0.499966D-01  0.477523D-02 -0.612103D-03
     20 -0.224954D-01 -0.145248D-02  0.232560D-01 -0.239804D-02 -0.663005D-02
     21  0.130328D-01 -0.491978D-01 -0.734579D-02  0.669559D-02  0.110828D-02
     22  0.120300D-01  0.440610D-01 -0.109786D-01 -0.286601D-02  0.517009D-02
     23 -0.250864D-03  0.161773D-01 -0.160456D-01  0.414425D-02  0.511209D-02
     24  0.499064D-01 -0.115250D-01  0.886109D-02 -0.833008D-02  0.564145D-02
     25 -0.557643D-01 -0.934370D-02  0.194882D-01  0.556468D-02 -0.109421D-01
               16            17            18            19            20 
     16  0.117675D+00
     17  0.652822D-02  0.325178D-01
     18  0.619042D-02 -0.135148D-01  0.328154D-01
     19 -0.121287D-01 -0.166097D-01 -0.170437D-01  0.358798D-01
     20 -0.241757D-02 -0.169232D-01  0.166999D-01 -0.543665D-04  0.369027D-01
     21 -0.466696D-02  0.144288D-01 -0.161813D-01  0.283798D-03 -0.168618D-01
     22  0.640143D-02  0.191524D-02  0.229423D-02 -0.185858D-02 -0.183434D-01
     23 -0.505324D-02 -0.157768D-01  0.168568D-02  0.147098D-01 -0.160605D-01
     24  0.418903D-02  0.154768D-01  0.299591D-02 -0.208987D-01  0.899196D-04
     25 -0.193341D-02  0.202629D-02 -0.344756D-03  0.683764D-03  0.165740D-01
               21            22            23            24            25 
     21  0.357707D-01
     22 -0.143832D-01  0.322979D-01
     23  0.238380D-02  0.151401D-01  0.318768D-01
     24 -0.114469D-02  0.240553D-02 -0.153834D-01  0.360474D-01
     25  0.878133D-03 -0.187866D-01 -0.139308D-01 -0.176448D-01  0.381527D-01
 Leave Link  716 at Wed Apr 20 09:17:57 2022, MaxMem=  7864320000 cpu:               0.4 elap:               0.0
 (Enter /data0/hywu0/study/g16/l103.exe)

 GradGradGradGradGradGradGradGradGradGradGradGradGradGradGradGradGradGrad
 Berny optimization.
 Red2BG is reusing G-inverse.
 Internal  Forces:  Max     0.000023989 RMS     0.000008429
 Search for a local minimum.
 Step number   1 out of a maximum of    2
 All quantities printed in internal units (Hartrees-Bohrs-Radians)
 Second derivative matrix not updated -- analytic derivatives used.
 ITU=  0
     Eigenvalues ---    0.00137   0.00221   0.00343   0.09313   0.09720
     Eigenvalues ---    0.10231   0.13302   0.14296   0.16810   0.17175
     Eigenvalues ---    0.21740   0.34187   0.35554   0.39932   0.52943
     Eigenvalues ---    0.53002   0.53294   0.67725
 Angle between quadratic step and forces=  70.80 degrees.
 Linear search not attempted -- first point.
 Iteration  1 RMS(Cart)=  0.00019254 RMS(Int)=  0.00000005
 Iteration  2 RMS(Cart)=  0.00000004 RMS(Int)=  0.00000000
 ITry= 1 IFail=0 DXMaxC= 5.38D-04 DCOld= 1.00D+10 DXMaxT= 3.00D-01 DXLimC= 3.00D+00 Rises=F
 Variable       Old X    -DE/DX   Delta X   Delta X   Delta X     New X
                                 (Linear)    (Quad)   (Total)
    R1        2.77203  -0.00001   0.00000  -0.00001  -0.00001   2.77202
    R2        3.02135   0.00000   0.00000   0.00000   0.00000   3.02135
    R3        3.03710   0.00002   0.00000   0.00007   0.00007   3.03717
    R4        3.05878   0.00001   0.00000  -0.00003  -0.00003   3.05875
    R5        1.82223  -0.00001   0.00000  -0.00001  -0.00001   1.82221
    R6        1.82116  -0.00000   0.00000   0.00000   0.00000   1.82116
    R7        1.82266  -0.00001   0.00000  -0.00002  -0.00002   1.82264
    A1        1.98885  -0.00001   0.00000  -0.00000  -0.00000   1.98885
    A2        2.07842  -0.00001   0.00000  -0.00012  -0.00012   2.07830
    A3        1.99496   0.00001   0.00000   0.00009   0.00009   1.99505
    A4        1.75258   0.00001   0.00000   0.00003   0.00003   1.75261
    A5        1.85415  -0.00000   0.00000  -0.00003  -0.00003   1.85411
    A6        1.76178   0.00000   0.00000   0.00005   0.00005   1.76183
    A7        1.98661   0.00001   0.00000   0.00007   0.00007   1.98668
    A8        1.98099  -0.00001   0.00000  -0.00014  -0.00014   1.98085
    A9        1.93638   0.00002   0.00000   0.00022   0.00022   1.93660
    D1        3.03338  -0.00001   0.00000  -0.00028  -0.00028   3.03310
    D2        0.79068   0.00001   0.00000  -0.00015  -0.00015   0.79053
    D3       -1.03750  -0.00000   0.00000  -0.00020  -0.00020  -1.03770
    D4        0.93400   0.00001   0.00000  -0.00047  -0.00047   0.93353
    D5        3.11691  -0.00000   0.00000  -0.00053  -0.00053   3.11638
    D6       -1.26441  -0.00000   0.00000  -0.00055  -0.00055  -1.26495
    D7        0.45440  -0.00000   0.00000  -0.00026  -0.00026   0.45415
    D8       -1.75423   0.00000   0.00000  -0.00028  -0.00028  -1.75451
    D9        2.70747  -0.00001   0.00000  -0.00032  -0.00032   2.70715
         Item               Value     Threshold  Converged?
 Maximum Force            0.000024     0.000450     YES
 RMS     Force            0.000008     0.000300     YES
 Maximum Displacement     0.000538     0.001800     YES
 RMS     Displacement     0.000193     0.001200     YES
 Predicted change in Energy=-7.887706D-09
 Optimization completed.
    -- Stationary point found.
                           ----------------------------
                           !   Optimized Parameters   !
                           ! (Angstroms and Degrees)  !
 --------------------------                            --------------------------
 ! Name  Definition              Value          Derivative Info.                !
 --------------------------------------------------------------------------------
 ! R1    R(1,2)                  1.4669         -DE/DX =    0.0                 !
 ! R2    R(1,3)                  1.5988         -DE/DX =    0.0                 !
 ! R3    R(1,5)                  1.6072         -DE/DX =    0.0                 !
 ! R4    R(1,7)                  1.6186         -DE/DX =    0.0                 !
 ! R5    R(3,4)                  0.9643         -DE/DX =    0.0                 !
 ! R6    R(5,6)                  0.9637         -DE/DX =    0.0                 !
 ! R7    R(7,8)                  0.9645         -DE/DX =    0.0                 !
 ! A1    A(2,1,3)              113.9529         -DE/DX =    0.0                 !
 ! A2    A(2,1,5)              119.0848         -DE/DX =    0.0                 !
 ! A3    A(2,1,7)              114.3028         -DE/DX =    0.0                 !
 ! A4    A(3,1,5)              100.4156         -DE/DX =    0.0                 !
 ! A5    A(3,1,7)              106.2348         -DE/DX =    0.0                 !
 ! A6    A(5,1,7)              100.9426         -DE/DX =    0.0                 !
 ! A7    A(1,3,4)              113.8242         -DE/DX =    0.0                 !
 ! A8    A(1,5,6)              113.5021         -DE/DX =    0.0                 !
 ! A9    A(1,7,8)              110.9464         -DE/DX =    0.0                 !
 ! D1    D(2,1,3,4)            173.8001         -DE/DX =    0.0                 !
 ! D2    D(5,1,3,4)             45.3025         -DE/DX =    0.0                 !
 ! D3    D(7,1,3,4)            -59.4442         -DE/DX =    0.0                 !
 ! D4    D(2,1,5,6)             53.5142         -DE/DX =    0.0                 !
 ! D5    D(3,1,5,6)            178.5856         -DE/DX =    0.0                 !
 ! D6    D(7,1,5,6)            -72.4451         -DE/DX =    0.0                 !
 ! D7    D(2,1,7,8)             26.0353         -DE/DX =    0.0                 !
 ! D8    D(3,1,7,8)           -100.5097         -DE/DX =    0.0                 !
 ! D9    D(5,1,7,8)            155.1264         -DE/DX =    0.0                 !
 --------------------------------------------------------------------------------
 GradGradGradGradGradGradGradGradGradGradGradGradGradGradGradGradGradGrad

 Leave Link  103 at Wed Apr 20 09:17:57 2022, MaxMem=  7864320000 cpu:               0.1 elap:               0.0
 (Enter /data0/hywu0/study/g16/l9999.exe)

 ----------------------------------------------------------------------

 Electric dipole moment (input orientation):
 (Debye = 10**-18 statcoulomb cm , SI units = C m)
                  (au)            (Debye)         (10**-30 SI)
   Tot        0.133253D+01      0.338695D+01      0.112977D+02
   x         -0.298566D+00     -0.758879D+00     -0.253135D+01
   y          0.222714D-01      0.566083D-01      0.188825D+00
   z         -0.129846D+01     -0.330035D+01     -0.110088D+02

 Dipole polarizability, Alpha (input orientation).
 (esu units = cm**3 , SI units = C**2 m**2 J**-1)
 Alpha(0;0):
               (au)            (10**-24 esu)      (10**-40 SI)
   iso        0.299026D+02      0.443110D+01      0.493026D+01
   aniso      0.400814D+01      0.593945D+00      0.660853D+00
   xx         0.298388D+02      0.442165D+01      0.491975D+01
   yx         0.808045D+00      0.119740D+00      0.133229D+00
   yy         0.309062D+02      0.457982D+01      0.509574D+01
   zx         0.903367D+00      0.133865D+00      0.148945D+00
   zy         0.171427D+01      0.254029D+00      0.282646D+00
   zz         0.289627D+02      0.429183D+01      0.477530D+01

 ----------------------------------------------------------------------

 Dipole orientation:
    15         -1.10834137          0.75350168          0.22258224
     8         -0.91109378         -0.72427681         -2.11438418
     8         -0.27479622          3.64193551         -0.07858294
     1         -0.57310739          4.65293039          1.40782850
     8         -3.83013380          1.10039023          1.52468658
     1         -4.69193781         -0.47337030          1.83645586
     8          0.51543486         -0.36581358          2.56065826
     1          1.93437052         -1.34016781          1.96120200

 Electric dipole moment (dipole orientation):
 (Debye = 10**-18 statcoulomb cm , SI units = C m)
                  (au)            (Debye)         (10**-30 SI)
   Tot        0.133253D+01      0.338695D+01      0.112977D+02
   x          0.000000D+00      0.000000D+00      0.000000D+00
   y          0.000000D+00      0.000000D+00      0.000000D+00
   z          0.133253D+01      0.338695D+01      0.112977D+02

 Dipole polarizability, Alpha (dipole orientation).
 (esu units = cm**3 , SI units = C**2 m**2 J**-1)
 Alpha(0;0):
               (au)            (10**-24 esu)      (10**-40 SI)
   iso        0.299026D+02      0.443110D+01      0.493026D+01
   aniso      0.400814D+01      0.593945D+00      0.660853D+00
   xx         0.294018D+02      0.435690D+01      0.484771D+01
   yx        -0.423036D+00     -0.626874D-01     -0.697491D-01
   yy         0.309660D+02      0.458869D+01      0.510561D+01
   zx        -0.100055D+01     -0.148266D+00     -0.164969D+00
   zy         0.182367D+01      0.270241D+00      0.300683D+00
   zz         0.293398D+02      0.434771D+01      0.483748D+01

 ----------------------------------------------------------------------
 1\1\GINC-LOCALHOST\Freq\RB3LYP\6-311G(d,p)\H3O4P1\HYWU0\20-Apr-2022\0\
 \#P Geom=AllCheck Guess=TCheck SCRF=Check GenChk RB3LYP/6-311G(d,p) Fr
 eq\\Title Card Required\\0,1\P,-0.5987434158,-0.3978232935,0.009974663
 5\O,-0.2184476981,0.3636014713,1.204708138\O,-0.1360564628,-1.92792743
 76,0.0408918473\H,-0.4671564895,-2.4500000633,-0.6991439745\O,-2.15716
 70758,-0.5725781965,-0.3418046488\H,-2.6370045514,0.2619946555,-0.3864
 668438\O,-0.0374217324,0.2167178545,-1.3782746942\H,0.7664085958,0.728
 3732296,-1.2287882676\\Version=ES64L-G16RevA.03\State=1-A\HF=-644.2776
 831\RMSD=1.097e-09\RMSF=9.336e-06\ZeroPoint=0.048653\Thermal=0.0547781
 \Dipole=-0.2985659,0.0222714,-1.2984593\DipoleDeriv=2.3477167,-0.0232,
 -0.0415126,0.1310564,2.4114833,0.0320656,-0.0790443,-0.080741,2.259659
 8,-0.7541419,-0.043565,-0.0693772,-0.0681175,-0.7871573,-0.1429234,-0.
 0423456,-0.0915423,-0.9436254,-0.62624,0.1349882,0.0780427,0.1352709,-
 1.2846049,-0.0232889,0.0986945,-0.0700992,-0.5278763,0.3348355,-0.0064
 078,-0.0664578,0.004798,0.3736838,0.0066156,-0.0668438,-0.0015444,0.26
 69641,-1.3148297,0.0455372,-0.1001124,-0.0580525,-0.5192214,-0.0264055
 ,-0.1860785,-0.0082881,-0.6844897,0.4014503,-0.0097267,0.0072691,-0.02
 05785,0.2331287,-0.0129749,-0.0032526,-0.0077146,0.3779998,-0.6998713,
 -0.0874542,0.2707499,-0.1244134,-0.7835087,0.2076267,0.3473384,0.29548
 33,-1.0651472,0.3110803,-0.0101718,-0.0786018,0.0000366,0.3561966,-0.0
 407153,-0.0684681,-0.0355537,0.3165149\Polar=29.8387976,0.8080446,30.9
 061621,0.903367,1.7142739,28.962699\Quadrupole=2.7626766,2.187665,-4.9
 503416,-0.6300123,-2.0523407,-0.4730074\PG=C01 [X(H3O4P1)]\NImag=0\\0.
 56591644,0.07085057,0.69423819,0.11398588,0.20233918,0.80230381,-0.108
 16756,-0.07780743,-0.11962095,0.08729231,-0.07557170,-0.21797959,-0.23
 672365,0.08431487,0.21785873,-0.11934545,-0.23937507,-0.44772479,0.130
 58671,0.26253585,0.46816476,-0.07359862,0.04382620,-0.01267180,0.00969
 029,-0.00689796,-0.00253310,0.14681630,0.06722186,-0.27285005,0.003304
 24,0.00471973,-0.01754882,-0.00468892,0.01039463,0.48130979,-0.0053667
 8,-0.02501685,-0.07062170,0.00432660,-0.02705134,0.00178275,0.15002700
 ,0.20867602,0.36805488,0.00595416,0.00998277,0.00668959,0.00093203,0.0
 0301567,0.00050227,-0.07014842,-0.09896587,-0.14355531,0.06717388,-0.0
 0847079,-0.02993348,-0.02806849,0.00187666,-0.00199652,0.00124461,-0.0
 7746964,-0.16421818,-0.19021306,0.08592275,0.18859609,-0.00143621,0.00
 150058,0.00105210,-0.00041806,0.00123254,0.00219742,-0.13342594,-0.221
 86979,-0.30840201,0.13738552,0.21456552,0.30853371,-0.26172351,-0.0312
 4535,-0.05145445,-0.00800955,-0.00325753,-0.00492044,-0.02022330,0.014
 61686,-0.00447940,-0.00210492,-0.00284400,-0.00206268,0.46207955,-0.00
 357011,-0.07816269,-0.00772472,-0.01382292,0.00910582,-0.00537434,0.03
 694290,-0.01004244,0.00697799,-0.00087846,0.00372072,0.00278296,-0.197
 16903,0.46610703,-0.05192468,-0.01415228,-0.07099381,-0.02414017,-0.00
 512068,0.00253989,-0.00218591,0.00231369,0.00733585,-0.00098245,0.0011
 1546,-0.00099769,0.06961023,-0.01354991,0.06487013,-0.02531695,0.03040
 585,-0.00279381,0.00339299,-0.00161419,0.00190235,-0.00355681,0.000115
 26,-0.00155679,-0.00033253,-0.00014225,-0.00015755,-0.14400973,0.19394
 329,-0.01668938,0.16743941,-0.00399112,0.00151964,-0.00138722,-0.00207
 294,-0.00154783,-0.00089737,-0.00093822,0.00312283,-0.00026946,-0.0004
 5111,0.00002955,0.00019359,0.23116508,-0.39667167,0.02105102,-0.220855
 59,0.39521095,-0.00611991,0.00622831,0.00303402,0.00238390,-0.00155209
 ,-0.00111544,-0.00183829,0.00016526,0.00193352,-0.00039635,0.00049327,
 0.00018350,-0.01359127,0.01307216,-0.00716554,0.01996904,-0.01978517,0
 .00496874,-0.09054874,-0.03590778,0.06631574,0.01348326,-0.00197343,-0
 .00163328,0.01145003,-0.00240442,0.00250745,-0.00148981,0.00159871,0.0
 0025305,-0.02590051,-0.01411245,0.02343572,0.00249913,-0.00249465,-0.0
 0018704,0.44760732,-0.03211022,-0.08932535,0.06704372,0.00109010,0.013
 51184,-0.01066623,-0.00759747,-0.01865938,0.02504954,0.00172782,0.0036
 3468,0.00166242,-0.01428631,0.00316547,0.00923311,-0.00120574,-0.00184
 838,0.00094738,0.28117332,0.23923280,0.04179872,0.04703354,-0.21683071
 ,0.01096517,0.00907410,-0.02773782,0.00325435,0.01142678,0.00277100,0.
 00055120,0.00099673,-0.00267324,0.00311210,0.00281887,0.00737956,-0.00
 096294,0.00077682,-0.00179239,-0.00747612,-0.04271618,0.27709004,-0.01
 251522,-0.01010482,-0.00045020,0.00138624,0.00198426,-0.00455905,-0.00
 042947,0.00430195,-0.00190277,0.00001561,-0.00047144,-0.00013814,-0.00
 010802,-0.00133323,0.00287664,-0.00011551,-0.00036146,-0.00022007,-0.3
 5710069,-0.22879151,-0.05124248,0.36886705,-0.01435848,-0.00750667,0.0
 0121695,0.00170194,-0.00140363,-0.00277853,0.00173956,-0.00111376,0.00
 184715,-0.00035358,0.00016714,-0.00006782,0.00302028,0.00277776,-0.000
 89041,-0.00064664,0.00018490,0.00043087,-0.22587932,-0.14971168,-0.029
 41065,0.23477625,0.15660594,0.02840845,0.02144259,-0.00021893,-0.00408
 320,-0.00239473,0.00189323,-0.00062631,0.00067272,-0.00285428,-0.00019
 447,-0.00013403,0.00010621,0.00378592,0.00099700,-0.00296839,0.0002890
 7,0.00031778,-0.00004640,-0.08321551,-0.05055374,-0.03820645,0.0556360
 7,0.02965242,0.04229501\\-0.00001780,-0.00001265,0.00000455,0.00000828
 ,0.00000839,-0.00000134,-0.00000032,0.00000481,0.00000484,-0.00000223,
 -0.00000060,-0.00000719,0.00002622,0.00000391,-0.00000097,-0.00000559,
 -0.00000198,-0.00000304,-0.00001531,-0.00000083,-0.00001097,0.00000674
 ,-0.00000105,0.00001412\\\@


 HOW IS IT THAT THE SKY FEEDS THE STARS?

                           -- LUCRETIUS
 Job cpu time:       0 days  0 hours  3 minutes  2.1 seconds.
 Elapsed time:       0 days  0 hours  0 minutes 11.6 seconds.
 File lengths (MBytes):  RWF=     18 Int=      0 D2E=      0 Chk=      2 Scr=      1
 Normal termination of Gaussian 16 at Wed Apr 20 09:17:57 2022.
