          23
 Energy =  -1023.24788690 a.u.  #Cluster:    1
C           7.27195900      8.50782500     11.52253800
C           7.78576700      8.33823100     10.23470000
C           8.83763800     10.05714100     11.11365500
N           7.93023600      9.60597000     12.06547300
H           7.89543000      9.88620400     13.04418500
H           6.52964100      7.95683000     12.05999600
H           7.51776700      7.62836800      9.47914300
H           9.48978200     10.90582600     11.25566600
N           8.76227500      9.29711500     10.00196200
P          10.44770800      9.13993400     14.36431400
O           9.10200600      9.72034800     14.44103900
O          11.07678400      9.00621900     15.81382900
H          11.96281000      8.48030100     15.72494900
O          10.60229300      7.68461600     13.76999600
H          10.70971800      7.74052500     12.72338600
O          11.49095800      9.99516100     13.50935100
H          11.09048600     10.92568100     13.32155300
O          10.82157200      7.65640700     10.95441100
H           9.99511300      7.30312800     10.60468600
H          10.86821700      8.53994900     10.55769500
O          10.11691000     12.52723300     13.06266500
H          10.61570200     13.28532600     13.36792200
H           9.39923700     12.42167300     13.69690100
          23
 Energy =  -1023.24539890 a.u.  #Cluster:    2
C           7.14648100      8.01187600     11.71481200
C           7.70633800      7.57316700     10.51348300
C           8.41343200      9.63157600     10.82848000
N           7.58305700      9.32165800     11.89626300
H           7.52873500      9.84855700     12.76461200
H           6.51245500      7.51348100     12.41616900
H           7.60033100      6.63277300     10.01176100
H           8.90866100     10.57955500     10.70983900
N           8.49507500      8.58359000      9.97968000
P          10.29043800      9.49775000     14.00418900
O           9.13274300     10.33495300     13.66602600
O          10.28195500      9.17813500     15.56274100
H          10.98919900      8.45220100     15.74804500
O          10.39553900      8.06219300     13.35630800
H          10.68548800      8.14396900     12.34168300
O          11.70528400     10.14929600     13.68095700
H          11.66451600     11.16228100     13.90504400
O          11.11760500      8.11062200     10.65395900
H          10.29388100      7.98931600     10.12574400
H          11.44783800      8.96803200     10.39188300
O          11.31546800     12.94549100     14.38166600
H          11.07818300     12.89047300     15.31146700
H          10.47730200     13.07906600     13.92520200
          23
 Energy =  -1023.24342900 a.u.  #Cluster:    3
C           6.72464800      9.61988500     12.73636000
C           6.55253700     10.69147600     11.85664000
C           8.15020000      9.43451700     11.01973800
N           7.72482100      8.82226800     12.19043200
H           8.21105500      8.06389800     12.66583700
H           6.23495600      9.38288700     13.65652100
H           5.86188800     11.50867100     11.90009300
H           8.93348100      9.04595400     10.39012100
N           7.44776400     10.56745600     10.80319400
P          10.92453100      9.07356300     13.52345700
O          10.06574600      8.05612100     12.90430700
O          10.14195900      9.82121500     14.69242800
H          10.82332200     10.32203300     15.27728400
O          12.24964900      8.55411000     14.22574100
H          12.59980700      7.73531600     13.67539700
O          11.49762500     10.17934900     12.55140800
H          10.72608500     10.82901000     12.25729800
O          12.99719800      6.28623800     12.60080200
H          12.14648600      5.83264800     12.60604800
H          13.06987500      6.65800100     11.71683200
O           9.51256300     12.03590200     11.74446200
H           9.06810000     11.81866300     10.90102600
H           8.79571700     12.00083400     12.38458700
          23
 Energy =  -1023.24285300 a.u.  #Cluster:    4
C           6.59933300      9.05226400     12.33570800
C           6.40505600     10.43471200     12.35553300
C           8.02347100     10.04317300     10.91882300
N           7.61070200      8.81200200     11.41049000
H           8.11882100      7.93884500     11.30003300
H           6.11969900      8.26837600     12.88228500
H           5.69890600     11.01927000     12.90861500
H           8.81275600     10.16559000     10.19498100
N           7.30010400     11.03560300     11.47940000
P          10.71878400      8.37064000     12.86464800
O           9.99900000      7.96146400     11.66315300
O           9.79729800      8.13381000     14.14129600
H          10.37413800      8.13861000     14.98709400
O          12.06857500      7.59797100     13.17055700
H          12.86582700      8.26908500     13.03415400
O          11.21372100      9.88230100     12.91922000
H          10.42215400     10.55617100     12.98120500
O          14.04738000      9.64667300     12.76625600
H          13.89711100      9.84961500     11.83717400
H          13.56504600     10.33911800     13.23838300
O           9.20424900     11.80354600     13.19008600
H           8.49946300     11.38471500     13.69242000
H           8.75841500     12.04646000     12.34850200
