          23
 G =       -0.486121 Gcorr = 0.100710 a.u. Nimag =   0 Frame:     1 Step:     1 Geom:     1
C           7.23557900      7.66223900     11.88355900
C           7.77978100      7.25509800     10.66406100
C           8.26321800      9.38810700     10.89385400
N           7.52898100      9.01744300     12.01155100
H           7.45938000      9.55945000     12.86940900
H           6.69893900      7.11595600     12.62913500
H           7.75602100      6.29478600     10.19020500
H           8.64065400     10.38197700     10.72727100
N           8.42019600      8.33210900     10.06582600
P          10.30354600      9.55647700     13.96424800
O           9.04221500     10.24826700     13.67102400
O          10.41139900      9.28170500     15.52763400
H          11.20777600      8.64868900     15.69072400
O          10.53797700      8.12435100     13.34328600
H          10.76399000      8.21003600     12.31273700
O          11.61660200     10.35367200     13.55044300
H          11.47290900     11.36136100     13.75507900
O          11.11060000      8.17823300     10.60551000
H          10.28004200      7.94932900     10.12573500
H          11.32632500      9.05973700     10.30662800
O          10.94881900     13.10626600     14.21153800
H          10.07923700     13.13347200     13.79702100
H          10.76582500     13.05124900     15.15353300
          23
 G =       -0.486117 Gcorr = 0.100714 a.u. Nimag =   0 Frame:     2 Step:     3 Geom:     3
C           7.28231200      7.73324800     11.91457700
C           7.74792900      7.42113100     10.63594600
C           8.28933300      9.51885800     11.01364000
N           7.61156600      9.06777500     12.13744100
H           7.60250600      9.53661100     13.04000100
H           6.77696700      7.13518600     12.64205700
H           7.67681600      6.50462200     10.08617500
H           8.67801800     10.51678900     10.90850500
N           8.37658800      8.53380000     10.09307500
P          10.50411300      9.39289600     13.96160400
O           9.24317300     10.12796600     13.80280200
O          10.69635000      8.98459900     15.48725600
H          11.48456500      8.32386700     15.54854100
O          10.67102400      8.01494900     13.20991600
H          10.84084700      8.18384400     12.17889900
O          11.80796300     10.20030400     13.53875100
H          11.69843400     11.18923400     13.83552600
O          11.08926200      8.29122600     10.45790300
H          10.22801200      8.11638900     10.01042700
H          11.30472400      9.19172500     10.22189800
O          11.23670800     12.89706300     14.46670900
H          11.10751900     12.76555300     15.41004700
H          10.34527900     12.97237100     14.10831500
          23
 G =       -0.486146 Gcorr = 0.100685 a.u. Nimag =   0 Frame:     3 Step:     4 Geom:     4
C           7.14648100      8.01187600     11.71481200
C           7.70633800      7.57316700     10.51348300
C           8.41343200      9.63157600     10.82848000
N           7.58305700      9.32165800     11.89626300
H           7.52873500      9.84855700     12.76461200
H           6.51245500      7.51348100     12.41616900
H           7.60033100      6.63277300     10.01176100
H           8.90866100     10.57955500     10.70983900
N           8.49507500      8.58359000      9.97968000
P          10.29043800      9.49775000     14.00418900
O           9.13274300     10.33495300     13.66602600
O          10.28195500      9.17813500     15.56274100
H          10.98919900      8.45220100     15.74804500
O          10.39553900      8.06219300     13.35630800
H          10.68548800      8.14396900     12.34168300
O          11.70528400     10.14929600     13.68095700
H          11.66451600     11.16228100     13.90504400
O          11.11760500      8.11062200     10.65395900
H          10.29388100      7.98931600     10.12574400
H          11.44783800      8.96803200     10.39188300
O          11.31546800     12.94549100     14.38166600
H          11.07818300     12.89047300     15.31146700
H          10.47730200     13.07906600     13.92520200
          23
 G =       -0.486127 Gcorr = 0.100704 a.u. Nimag =   0 Frame:     4 Step:     5 Geom:     5
C           7.20159200      7.91664500     11.58749000
C           7.83367100      7.48263100     10.42071500
C           8.49062300      9.55280800     10.76561600
N           7.60739100      9.23358700     11.78724200
H           7.49695700      9.76260500     12.64898300
H           6.53761400      7.41067400     12.25487000
H           7.76968100      6.53899900      9.91796800
H           8.97707100     10.50794200     10.67046500
N           8.63510900      8.50333400      9.92702600
P          10.18948800      9.45870500     14.04110200
O           9.04009500     10.27754700     13.63609900
O          10.09940100      9.14450000     15.59813800
H          10.80859600      8.43277500     15.82623300
O          10.35097800      8.02264000     13.40621000
H          10.69615400      8.10508600     12.40902600
O          11.61043000     10.12991700     13.79352600
H          11.54232800     11.14316800     14.00960900
O          11.22275400      8.07199400     10.74837600
H          10.43132000      7.93654000     10.17598100
H          11.55437500      8.93325900     10.50096800
O          11.14179500     12.92281800     14.45724700
H          10.85400800     12.86837900     15.37270700
H          10.32857900     13.04345800     13.95441500
          23
 G =       -0.485505 Gcorr = 0.100591 a.u. Nimag =   0 Frame:     5 Step:     6 Geom:     6
C           7.27195900      8.50782500     11.52253800
C           7.78576700      8.33823100     10.23470000
C           8.83763800     10.05714100     11.11365500
N           7.93023600      9.60597000     12.06547300
H           7.89543000      9.88620400     13.04418500
H           6.52964100      7.95683000     12.05999600
H           7.51776700      7.62836800      9.47914300
H           9.48978200     10.90582600     11.25566600
N           8.76227500      9.29711500     10.00196200
P          10.44770800      9.13993400     14.36431400
O           9.10200600      9.72034800     14.44103900
O          11.07678400      9.00621900     15.81382900
H          11.96281000      8.48030100     15.72494900
O          10.60229300      7.68461600     13.76999600
H          10.70971800      7.74052500     12.72338600
O          11.49095800      9.99516100     13.50935100
H          11.09048600     10.92568100     13.32155300
O          10.82157200      7.65640700     10.95441100
H           9.99511300      7.30312800     10.60468600
H          10.86821700      8.53994900     10.55769500
O          10.11691000     12.52723300     13.06266500
H          10.61570200     13.28532600     13.36792200
H           9.39923700     12.42167300     13.69690100
          23
 G =       -0.485480 Gcorr = 0.100616 a.u. Nimag =   0 Frame:     6 Step:     7 Geom:     7
C           7.25556800      8.30033400     11.43999900
C           7.80439600      8.08055400     10.17437500
C           8.77981900      9.87729200     10.98305800
N           7.86553800      9.44670600     11.93777100
H           7.79850400      9.77709600     12.89894300
H           6.51920400      7.75380000     11.99005900
H           7.57695500      7.32351900      9.45203600
H           9.40106800     10.75337100     11.09378000
N           8.75474600      9.05787600      9.91199100
P          10.33995600      9.18416300     14.31373900
O           8.97377600      9.71981300     14.33073600
O          10.93918600      9.14906600     15.78154600
H          11.84391500      8.64994700     15.74025900
O          10.55832000      7.70608800     13.80125100
H          10.68691300      7.71073700     12.75546900
O          11.37303400     10.02966900     13.43705600
H          10.94605100     10.93473400     13.19217100
O          10.84220000      7.53826900     10.99657700
H          10.03638500      7.13909200     10.64800100
H          10.86932300      8.40069800     10.55417500
O           9.92537100     12.48528200     12.82887800
H           9.19654600     12.38865500     13.45173800
H          10.39323300     13.27324600     13.10640900
          23
 G =       -0.487177 Gcorr = 0.100513 a.u. Nimag =   0 Frame:     7 Step:     8 Geom:     8
C           6.65055600     10.18459000     12.93129300
C           6.78369600     11.01629200     11.81781200
C           7.64035400      9.06910600     11.25984200
N           7.17682500      8.94998600     12.56328300
H           7.40631600      8.18989400     13.19753200
H           6.24441000     10.37191600     13.90249200
H           6.47314700     12.03164500     11.68038900
H           8.11798000      8.26897800     10.71805100
N           7.40621500     10.31416800     10.79349600
P          10.42327600      8.47086800     13.65697800
O           9.24652000      7.67454400     13.32502200
O           9.99828500      9.67211000     14.61164300
H          10.82784400     10.05267700     15.07541000
O          11.58765800      7.71580200     14.42286800
H          12.40861000      7.63770800     13.77118400
O          11.22291300      9.10491700     12.43561700
H          10.67576400      9.84203800     11.94392500
O          13.68533000      7.67701400     12.45398000
H          13.56953400      8.59528000     12.17403500
H          13.25858300      7.16552700     11.75883100
O           9.92004100     11.17426800     11.08609800
H           9.37257500     11.61667300     11.74116300
H           9.26357200     10.87400900     10.41907200
          23
 G =       -0.487349 Gcorr = 0.099760 a.u. Nimag =   0 Frame:     8 Step:     9 Geom:     9
C           6.72464800      9.61988500     12.73636000
C           6.55253700     10.69147600     11.85664000
C           8.15020000      9.43451700     11.01973800
N           7.72482100      8.82226800     12.19043200
H           8.21105500      8.06389800     12.66583700
H           6.23495600      9.38288700     13.65652100
H           5.86188800     11.50867100     11.90009300
H           8.93348100      9.04595400     10.39012100
N           7.44776400     10.56745600     10.80319400
P          10.92453100      9.07356300     13.52345700
O          10.06574600      8.05612100     12.90430700
O          10.14195900      9.82121500     14.69242800
H          10.82332200     10.32203300     15.27728400
O          12.24964900      8.55411000     14.22574100
H          12.59980700      7.73531600     13.67539700
O          11.49762500     10.17934900     12.55140800
H          10.72608500     10.82901000     12.25729800
O          12.99719800      6.28623800     12.60080200
H          12.14648600      5.83264800     12.60604800
H          13.06987500      6.65800100     11.71683200
O           9.51256300     12.03590200     11.74446200
H           9.06810000     11.81866300     10.90102600
H           8.79571700     12.00083400     12.38458700
          23
 G =       -0.487167 Gcorr = 0.100523 a.u. Nimag =   0 Frame:     9 Step:    10 Geom:    10
C           6.70554400     10.16612900     12.75963200
C           6.98162900     11.23520500     11.90514500
C           7.95427000      9.46369400     11.03770300
N           7.30760100      9.04647600     12.19345600
H           7.45897400      8.15541300     12.65800200
H           6.15747700     10.12432900     13.67676700
H           6.67182200     12.25822300     11.96602900
H           8.52391000      8.80784300     10.39954100
N           7.76307900     10.78653300     10.84790100
P          10.36836700      8.28189000     13.61132600
O           9.27261000      7.60153500     12.92897300
O           9.77860800      9.22837000     14.74773800
H          10.52123500      9.47823200     15.40662900
O          11.42370700      7.35281900     14.34316300
H          12.33302800      7.41863000     13.82010100
O          11.32506000      9.17671900     12.70741800
H          10.83925400     10.01552700     12.32652400
O          13.78836200      7.74923800     12.75318700
H          13.48041100      7.42176500     11.90178700
H          13.69518300      8.70913100     12.68276200
O          10.18725900     11.52167000     11.70362700
H           9.64146100     11.39487300     10.89609300
H           9.54115800     11.80576600     12.35651100
          23
 G =       -0.486138 Gcorr = 0.100693 a.u. Nimag =   0 Frame:    10 Step:    11 Geom:    11
C           6.84565800      8.14540700     12.28384300
C           7.10186200      7.64873200     11.00447200
C           8.00331100      9.65238000     11.09935700
N           7.40217900      9.42107300     12.32853000
H           7.57319200      9.96276200     13.17231500
H           6.34375600      7.70616100     13.11897200
H           6.82446700      6.71192400     10.56544800
H           8.52693200     10.55862700     10.84932800
N           7.82655700      8.58921800     10.28457800
P          10.50436900      9.42172100     13.80389800
O           9.36301800     10.33898900     13.69679100
O          10.80847900      9.12377000     15.33686300
H          11.48663800      8.34979700     15.38775900
O          10.36627900      7.97411200     13.18991900
H          10.43663500      8.02077400     12.13487300
O          11.85905400      9.96098600     13.16767300
H          11.93877800     10.97707400     13.36572600
O          10.49301400      7.93293700     10.39548900
H          10.81693600      8.76006500     10.04346500
H           9.56840500      7.86504200     10.05963300
O          11.82679500     12.78721300     13.85381100
H          11.79199000     12.76348200     14.81406000
H          10.92170500     12.97776500     13.58321200
          23
 G =       -0.486102 Gcorr = 0.100729 a.u. Nimag =   0 Frame:    11 Step:    12 Geom:    12
C           7.04783200      7.98725500     12.21367900
C           7.27573700      7.70082200     10.86638400
C           8.00385300      9.74695900     11.21187000
N           7.49316400      9.29056400     12.41879900
H           7.66261700      9.72239500     13.32410800
H           6.63237400      7.39034000     12.99686000
H           7.05696000      6.81285600     10.30875500
H           8.43238100     10.72430000     11.07365900
N           7.87562600      8.79652800     10.26020200
P          10.65878900      9.37548900     13.74920600
O           9.43763700     10.18708900     13.82435400
O          11.07266700      8.89628900     15.20874300
H          11.82009000      8.19286900     15.11850500
O          10.61315800      8.02131600     12.93946000
H          10.62149000      8.22127000     11.90016400
O          11.92378400     10.12362300     13.14007200
H          11.92401600     11.10572300     13.47670600
O          10.59074900      8.38302300     10.16518100
H          10.82371900      9.27714300      9.92184000
H           9.65894200      8.27723600      9.86021000
O          11.67861800     12.81334900     14.22189900
H          11.69959600     12.65380700     15.16951400
H          10.74621200     12.94976600     14.01984000
          23
 G =       -0.486121 Gcorr = 0.100710 a.u. Nimag =   0 Frame:    12 Step:    13 Geom:    13
C           7.22702900      7.81854600     11.98765900
C           7.50810000      7.73172100     10.62289700
C           8.03268000      9.77326100     11.24995600
N           7.54317500      9.11917100     12.37170600
H           7.65296900      9.44311400     13.32966100
H           6.85403100      7.08955500     12.67448600
H           7.38548400      6.90773000      9.94961800
H           8.36973700     10.79520900     11.25143700
N           8.01398200      8.94699700     10.18114600
P          10.66003000      9.31807900     13.80114400
O           9.36674000      9.99892600     13.94050700
O          11.08820800      8.69247500     15.19991400
H          11.89842900      8.07537600     15.04389700
O          10.75761900      8.08240100     12.82379900
H          10.76847600      8.41604200     11.81933600
O          11.86086700     10.25054600     13.33284400
H          11.76521800     11.17482500     13.79604700
O          10.75794900      8.79844000     10.11963200
H           9.84622500      8.64780300      9.77533200
H          10.90800000      9.73467200     10.00183000
O          11.35197700     12.73818500     14.75022500
H          10.41555300     12.82025300     14.53780100
H          11.36753400     12.45668200     15.66913600
          23
 G =       -0.485501 Gcorr = 0.100596 a.u. Nimag =   0 Frame:    13 Step:    14 Geom:    14
C           7.34076800      8.20438200     11.68345200
C           7.63819900      8.42757700     10.33695200
C           8.47176700     10.12506600     11.45824700
N           7.85681500      9.28943300     12.38370500
H           7.94352200      9.34663800     13.39709500
H           6.82996300      7.39757800     12.16473100
H           7.38390300      7.84605300      9.47452800
H           8.95888100     11.05414500     11.71370500
N           8.34905600      9.61386300     10.21615800
P          10.78690700      8.96638000     14.16141900
O           9.38758000      9.18405800     14.54637600
O          11.67827700      8.69494500     15.44457300
H          12.62196300      8.42324500     15.12046100
O          11.12387100      7.74035100     13.22426400
H          11.02535600      8.02972400     12.21595400
O          11.46611200     10.19886500     13.40620100
H          10.86096200     11.02734600     13.50062300
O          10.82782500      8.33363100     10.47893600
H          10.63007000      9.26573500     10.29963500
H          10.03593800      7.87843400     10.16916900
O           9.55799000     12.37315200     13.76128900
H           9.94536200     13.14478500     14.17517000
H           8.99891700     11.97462300     14.43736500
          23
 G =       -0.486126 Gcorr = 0.100705 a.u. Nimag =   0 Frame:    14 Step:    15 Geom:    15
C           7.13935600      7.90529600     11.99657700
C           7.48674600      7.70007200     10.66003000
C           8.08889500      9.75432200     11.16372900
N           7.50582800      9.21372500     12.30104200
H           7.58201200      9.60435400     13.23710800
H           6.69129200      7.25085000     12.71297900
H           7.35467300      6.83422100     10.04345100
H           8.48110300     10.75489600     11.10907400
N           8.08118900      8.85065900     10.15933700
P          10.54986200      9.36434400     13.88615100
O           9.29116400     10.12009900     13.89727300
O          10.86318500      8.82626000     15.35025000
H          11.64504800      8.15807500     15.28899200
O          10.63297700      8.05387100     13.01010100
H          10.71290300      8.30838600     11.98590400
O          11.82564500     10.19459100     13.42382200
H          11.75422500     11.15650800     13.80817300
O          10.81188200      8.56053600     10.26388000
H          11.01917500      9.47601600     10.08539900
H           9.91255900      8.43015500      9.88102200
O          11.37281600     12.80998300     14.61411100
H          11.32194200     12.60035200     15.55075500
H          10.45553700     12.92244100     14.34085500
          23
 G =       -0.486139 Gcorr = 0.100692 a.u. Nimag =   0 Frame:    15 Step:    16 Geom:    16
C           7.26697400      7.90126100     11.66837800
C           7.72823700      7.74300700     10.36021300
C           8.25524400      9.78744200     10.97567300
N           7.58695600      9.20379600     12.04267400
H           7.57882100      9.56509300     12.99341000
H           6.77004200      7.21895800     12.32397100
H           7.66139100      6.89564800      9.70843100
H           8.63557400     10.79404600     10.98499800
N           8.34529500      8.91621700      9.94694800
P          10.48516000      9.34120300     13.88227700
O           9.21754300     10.07865200     13.81331500
O          10.68709200      8.76156800     15.35010100
H          11.48228000      8.10666200     15.33283100
O          10.66057000      8.06052300     12.97636600
H          10.82339700      8.34869000     11.97095300
O          11.78054300     10.20332800     13.55112800
H          11.66364700     11.15060200     13.95959200
O          11.06205300      8.65589300     10.27261300
H          11.27004700      9.57910100     10.14091100
H          10.20024600      8.52691000      9.81112500
O          11.19211800     12.77122900     14.78533300
H          10.29859300     12.88070900     14.44142300
H          11.06818500     12.52947300     15.70735400
          23
 G =       -0.487145 Gcorr = 0.100545 a.u. Nimag =   0 Frame:    16 Step:    17 Geom:    17
C           6.67781400      9.82451900     13.00748600
C           6.77040000     10.95571300     12.19436900
C           7.89248900      9.35639800     11.18452300
N           7.37337300      8.81295300     12.35211400
H           7.65874900      7.92759300     12.76125400
H           6.19648400      9.67580400     13.95061300
H           6.34471500     11.92942100     12.32457500
H           8.49574000      8.80365000     10.48276800
N           7.53291800     10.65286600     11.07340200
P          10.58764000      8.36209700     13.55244800
O           9.53811600      7.58754200     12.89845300
O           9.96458200      9.17452600     14.77174500
H          10.71312900      9.48052600     15.39940100
O          11.79028400      7.53349700     14.16854500
H          12.65124500      7.73911900     13.60161400
O          11.37216100      9.40903900     12.64602100
H          10.76613500     10.19704900     12.33588200
O          13.98716900      8.30174200     12.47764000
H          13.77521200      9.24512500     12.46761500
H          13.66858500      7.98204800     11.62708700
O           9.90083100     11.63723400     11.82768400
H           9.32599500     11.48117300     11.04583900
H           9.26624200     11.81037100     12.52893800
          23
 G =       -0.487183 Gcorr = 0.100507 a.u. Nimag =   0 Frame:    17 Step:    18 Geom:    18
C           6.57521100      9.74866100     12.96587900
C           6.64390000     10.92815200     12.22198700
C           7.78842800      9.41253100     11.11307400
N           7.28483800      8.79076600     12.24792100
H           7.58766200      7.88757600     12.60197400
H           6.10147400      9.53503000     13.90034200
H           6.20201000     11.88459200     12.41229200
H           8.39770100      8.91386100     10.37687500
N           7.40579700     10.70676900     11.08169200
P          10.51109800      8.32781700     13.40675600
O           9.47268800      7.57132600     12.71498700
O           9.87979400      9.06000200     14.67181400
H          10.62586000      9.34155800     15.31382300
O          11.73158500      7.48860100     13.97117000
H          12.58518800      7.73873200     13.41112900
O          11.27140100      9.43746300     12.55605600
H          10.65102300     10.23356100     12.29920500
O          13.90434200      8.38355100     12.31207300
H          13.67615500      9.32222000     12.35448500
H          13.58642000      8.10489700     11.44708100
O           9.75913500     11.68758700     11.88465700
H           9.12497100     11.80553600     12.59773200
H           9.18332900     11.56921700     11.09700800
          23
 G =       -0.487179 Gcorr = 0.100511 a.u. Nimag =   0 Frame:    18 Step:    19 Geom:    19
C           6.67143400      9.72215800     13.07037700
C           6.71754400     10.87176700     12.27942500
C           7.85654000      9.32258300     11.21198300
N           7.37732300      8.74229600     12.37890100
H           7.69353800      7.85628200     12.76295400
H           6.21505700      9.54198900     14.02038300
H           6.27063400     11.83142200     12.43941500
H           8.45779300      8.80008300     10.48578600
N           7.46221400     10.61146400     11.13601300
P          10.62813500      8.35261000     13.49794000
O           9.58494300      7.56252100     12.85249400
O          10.01158000      9.12570400     14.74578700
H          10.76617500      9.44223800     15.36108900
O          11.86536400      7.54511900     14.07209900
H          12.70716700      7.78118600     13.48841300
O          11.36454200      9.43617400     12.59413900
H          10.73233600     10.21530800     12.31537700
O          14.00130600      8.39552900     12.34394100
H          13.67117300      8.08274500     11.49533300
H          13.76604600      9.33335400     12.35563500
O           9.82008100     11.64374500     11.85867800
H           9.19710400     11.78484200     12.57734400
H           9.23198300     11.48889400     11.08650500
          23
 G =       -0.487161 Gcorr = 0.100529 a.u. Nimag =   0 Frame:    19 Step:    20 Geom:    20
C           6.63183900      9.50749800     12.86720300
C           6.67561800     10.80557800     12.35491500
C           8.00447500      9.58383100     11.09867200
N           7.45933700      8.73776400     12.05520400
H           7.79613500      7.80269300     12.26772900
H           6.10371400      9.10043200     13.70305000
H           6.15500400     11.68530000     12.67322100
H           8.70178600      9.26281900     10.34202800
N           7.53652200     10.83916300     11.26525000
P          10.60847300      8.24417400     13.39711700
O           9.68227100      7.57293800     12.49114800
O           9.83046300      8.69711500     14.71029600
H          10.50251600      8.89821000     15.45594200
O          11.83577800      7.38257400     13.91046100
H          12.71120800      7.77477800     13.48023800
O          11.35500600      9.53011900     12.82937500
H          10.70336500     10.32490600     12.66257300
O          14.06454000      8.67900200     12.63568600
H          13.83425600      8.54781400     11.71009800
H          13.77062200      9.58062300     12.82481600
O           9.74832500     11.78123200     12.43478000
H           9.05471500     11.73277000     13.09897500
H           9.24404300     11.77867200     11.59123800
          23
 G =       -0.487197 Gcorr = 0.100493 a.u. Nimag =   0 Frame:    20 Step:    21 Geom:    21
C           6.59933300      9.05226400     12.33570800
C           6.40505600     10.43471200     12.35553300
C           8.02347100     10.04317300     10.91882300
N           7.61070200      8.81200200     11.41049000
H           8.11882100      7.93884500     11.30003300
H           6.11969900      8.26837600     12.88228500
H           5.69890600     11.01927000     12.90861500
H           8.81275600     10.16559000     10.19498100
N           7.30010400     11.03560300     11.47940000
P          10.71878400      8.37064000     12.86464800
O           9.99900000      7.96146400     11.66315300
O           9.79729800      8.13381000     14.14129600
H          10.37413800      8.13861000     14.98709400
O          12.06857500      7.59797100     13.17055700
H          12.86582700      8.26908500     13.03415400
O          11.21372100      9.88230100     12.91922000
H          10.42215400     10.55617100     12.98120500
O          14.04738000      9.64667300     12.76625600
H          13.89711100      9.84961500     11.83717400
H          13.56504600     10.33911800     13.23838300
O           9.20424900     11.80354600     13.19008600
H           8.49946300     11.38471500     13.69242000
H           8.75841500     12.04646000     12.34850200
