          41
 Energy =  -1445.49702190 a.u.  #Cluster:    1
C           7.41258600     10.23683700      9.45811700
C           7.58710900      9.73109100     10.74351100
C           8.84572400     11.58530100     10.54813000
N           8.18827500     11.38863900      9.36459300
H           6.82973000      9.84552500      8.63585900
H           7.17308800      8.84001000     11.19588500
H           9.56034100     12.38271400     10.76242100
C           8.31234100     12.24919800      8.20266300
H           9.38330500     12.45541500      7.97307600
H           7.89599400     11.75541600      7.29639000
H           7.78720800     13.20604600      8.36261600
N           8.46987600     10.58324900     11.40422100
C           8.94365100     10.43245100     12.78091500
H           8.05665900     10.44088800     13.45832600
H           9.57214100     11.31989500     13.05412400
C           9.75041300      9.13972500     12.98311700
H           9.77793400      8.90669500     14.06768300
H           9.23012900      8.27212700     12.51698600
C          11.17625300      9.23568600     12.44773100
H          11.77066000      8.36007800     12.78005900
H          11.69618800     10.13116600     12.83778600
C          11.15525100      9.25409000     10.92250200
O          11.26060700     10.37707900     10.36344400
O          11.00817900      8.17735000     10.32425700
P          10.33865900      9.34093200      7.10170600
O           8.87453500      9.45210300      7.21265100
O          10.99060200      8.01993400      7.66069800
H          11.02540200      8.07778700      8.73810800
O          10.74381400      9.35239900      5.56065900
H          11.77431600      9.28494600      5.51652600
O          11.12161800     10.58438500      7.69636900
H          11.21978700     10.46820200      8.75481700
O           8.47089800      6.87604600     10.71879500
H           9.36843500      7.19940300     10.56458800
H           8.02307600      6.96991300      9.87180700
O          11.31548600     12.54495200     11.88876900
H          12.13007300     13.01232200     11.75816100
H          11.39505600     11.72023500     11.33771500
O           7.17373700      7.35374500      8.21546200
H           7.34131700      6.58119600      7.67652800
H           7.75956900      8.03484200      7.84224900
          41
 Energy =  -1445.49575700 a.u.  #Cluster:    2
C           7.40193700     10.24145700      9.61233900
C           7.62971000      9.69533100     10.87251100
C           8.88082400     11.55545300     10.68316000
N           8.17403900     11.39622500      9.52307400
H           6.78860400      9.87291700      8.80211300
H           7.24117900      8.78243200     11.31169200
H           9.60454700     12.34537600     10.89301500
C           8.24912000     12.29429400      8.38572200
H           9.30951800     12.49561100      8.10767100
H           7.77952000     11.83691000      7.48651900
H           7.74614600     13.25140300      8.60448800
N           8.54059100     10.52550200     11.52171500
C           9.08149400     10.32136600     12.86631700
H           8.23040800     10.31842200     13.58842500
H           9.73736900     11.18936100     13.13663200
C           9.87620800      9.01016400     12.98159300
H           9.96008400      8.74153200     14.05483400
H           9.31686000      8.16633000     12.51675600
C          11.27120100      9.10321300     12.36987300
H          11.86879200      8.20824600     12.63764900
H          11.82695200      9.97710200     12.75971400
C          11.16496800      9.17458300     10.84947800
O          11.28350300     10.31105900     10.32189700
O          10.94047200      8.12522700     10.22672400
P          10.19906900      9.41829400      7.06595800
O           8.74140800      9.54774900      7.22893100
O          10.84660100      8.06711000      7.55607700
H          10.89712900      8.07468000      8.63230900
O          10.55481000      9.47531600      5.51378500
H          11.58238900      9.39695700      5.43397200
O          11.02282400     10.62594100      7.67702100
H          11.16583100     10.46388200      8.72508400
O           8.32263700      7.01283700     10.65823400
H           9.23786800      7.27434100     10.48665300
H           7.88474100      7.05503600      9.80014800
O          11.42761100     12.42802700     11.91098100
H          11.47134800     11.62147500     11.32972000
H          12.24045900     12.89118000     11.75684300
O           7.06233800      7.38387400      8.12676900
H           7.27764400      6.63337400      7.57366500
H           7.62125800      8.10042900      7.77995800
          41
 Energy =  -1445.49445300 a.u.  #Cluster:    3
C           7.47974300     10.20577100      9.56717600
C           7.52268900      9.54550300     10.79298200
C           8.85756800     11.35332000     10.91987600
N           8.31845000     11.31214800      9.66663200
H           6.93556200      9.95259400      8.66771200
H           7.04440100      8.62198800     11.09763500
H           9.54937600     12.10435500     11.30102500
C           8.67203300     12.22981000      8.59956900
H           8.25580700     13.23492700      8.78265900
H           9.78450200     12.32043900      8.52242300
H           8.31547500     11.85351900      7.61645800
N           8.37321100     10.27518600     11.61982100
C           8.80071200      9.91967800     12.97129600
H           7.98175500      9.33822400     13.46255900
H           8.94223800     10.85486000     13.56270400
C          10.09463200      9.08350600     12.98194600
H          10.36471800      8.88082200     14.03870200
H           9.90384600      8.07534900     12.54280200
C          11.26797800      9.74146100     12.26408100
H          12.22593100      9.30816000     12.62003900
H          11.33031700     10.82331100     12.47700800
C          11.20197100      9.49541700     10.75558400
O          11.30862700     10.50500800     10.01488900
O          11.03836200      8.33738800     10.34684000
P          10.19304700      9.08726200      6.99971500
O           8.75159000      9.30853900      7.19525300
O          10.79775700      7.80753500      7.70366900
H          10.92997200      8.01064800      8.74450500
O          10.48163100      8.84025900      5.45300300
H          11.50171600      8.70526400      5.35179700
O          11.10582600     10.32857400      7.35957000
H          11.23617500     10.36488400      8.42265900
O           8.56374800      6.94461700     10.90056100
H           9.43465600      7.30641900     10.68657600
H           8.06984800      6.98593600     10.07367500
O          11.22674100     13.09814800     10.58692300
H          12.06859700     13.51026800     10.44208300
H          11.36135800     12.14438800     10.36448800
O           7.05853300      7.39186300      8.53564900
H           7.06731100      6.59631200      8.00423900
H           7.64160700      8.00635900      8.05323500
          41
 Energy =  -1445.49348900 a.u.  #Cluster:    4
C           7.44944800     10.38711100      9.46652700
C           7.40158300      9.68248200     10.66683000
C           8.83428500     11.40090600     10.91616000
N           8.34758700     11.43643800      9.64117900
H           6.92772300     10.20210500      8.53766100
H           6.85546700      8.78206000     10.91534800
H           9.55434700     12.09326800     11.35205500
C           8.80149800     12.36461900      8.62220100
H           9.91908800     12.41125400      8.61322200
H           8.49082600     12.02649600      7.61004300
H           8.41407400     13.38091600      8.80654700
N           8.25597500     10.33207900     11.55550300
C           8.59627800      9.90932600     12.91269300
H           7.71681800      9.37608200     13.35087300
H           8.77848000     10.81469200     13.53821900
C           9.82395400      8.98083800     12.94856900
H          10.01497800      8.70010900     14.00446600
H           9.58462900      8.01348000     12.44119100
C          11.08227000      9.58721700     12.33660800
H          11.98399700      9.07259200     12.72919200
H          11.20150500     10.65178600     12.60358100
C          11.09054800      9.41107700     10.81726900
O          11.21155500     10.45473900     10.12724900
O          10.96418000      8.27069700     10.34997300
P          10.20042800      9.16317800      7.01891100
O           8.75895400      9.41111000      7.17718100
O          10.75542700      7.84235400      7.68611500
H          10.87627000      8.00535100      8.73569700
O          10.53459000      8.97749900      5.47285800
H          11.55318500      8.81495300      5.39965700
O          11.12724400     10.36780700      7.46107700
H          11.20921900     10.36674300      8.52932500
O           8.48124700      6.92293700     10.86265200
H           9.36549200      7.25410700     10.64782800
H           7.96522300      7.07347000     10.06416300
O          11.32227700     13.04353800     10.74422200
H          11.39087700     12.08640700     10.51329800
H          12.19883400     13.39019300     10.63646200
O           6.95483100      7.63071300      8.56168200
H           6.86804600      6.84163200      8.02767100
H           7.58677800      8.18565700      8.06805800
          41
 Energy =  -1445.49108490 a.u.  #Cluster:    5
C           7.68029000     10.38158400      8.70801800
C           7.37643800      9.63141100      9.84063900
C           8.55745100     11.43172200     10.49245800
N           8.41439700     11.48542300      9.13384900
H           7.45897000     10.18472400      7.66783000
H           6.84507200      8.69520800      9.92798000
H           9.08631500     12.15430500     11.11374800
C           9.04137300     12.48606700      8.29012400
H           9.07920400     12.15018200      7.23210700
H           8.50568000     13.44903700      8.34930000
H          10.09956200     12.65105300      8.60871100
N           7.91881200     10.30215000     10.93543500
C           7.93766900      9.83705200     12.32096500
H           6.99785500      9.25691900     12.51868500
H           7.92837400     10.71860400     13.00197600
C           9.15731000      8.94436300     12.61330300
H           9.08310700      8.59472200     13.66384000
H           9.10021200      8.01014400     12.00712700
C          10.50016500      9.63211300     12.38277100
H          11.28799400      9.15292600     12.99876500
H          10.48074200     10.69374600     12.68289100
C          10.91265600      9.49366700     10.91582300
O          11.00129000     10.55366000     10.24682900
O          11.10778700      8.35548800     10.46531500
P          10.66775000      9.00351500      7.07989100
O           9.26944400      8.57523000      7.18795400
O          11.75255300      8.10812800      7.80812200
H          11.57356600      8.16527200      8.85761600
O          11.13442700      9.01659800      5.55808300
H          12.12563500      9.31049900      5.54630300
O          10.94004400     10.49761100      7.55387200
H          11.04465300     10.50622700      8.61189900
O           8.77152100      6.91040000      9.76840900
H           9.62352400      7.26845000     10.08205200
H           8.73201300      7.21603200      8.85480200
O          10.96728900     13.09319100     11.01670700
H          11.84126800     13.42638200     11.17262800
H          11.08981500     12.14867200     10.75126200
O           6.77072700      7.00978700     11.67438100
H           7.47519200      6.93968600     11.00131100
H           6.46187500      6.11807300     11.79623300
          41
 Energy =  -1445.49106570 a.u.  #Cluster:    6
C           7.60566400     10.75545100      9.02618500
C           7.51824700     10.04064000     10.21762000
C           9.12484800     11.59449600     10.45908200
N           8.59391700     11.71950400      9.20340100
H           7.07467500     10.61981400      8.09648100
H           6.87910300      9.20971400     10.47907100
H           9.94473600     12.18675300     10.87181900
C           9.02352700     12.69038600      8.21405700
H           8.51148600     13.65654100      8.36495800
H          10.12333000     12.85070700      8.25950200
H           8.80946500     12.32655400      7.18473200
N           8.46030100     10.57816400     11.09199500
C           8.69311300     10.14147100     12.47040700
H           7.71568500     10.16834900     13.01153400
H           9.37423200     10.87190900     12.97811600
C           9.28754200      8.72606200     12.54408800
H           9.03770900      8.28896300     13.53330200
H           8.78985700      8.05195800     11.81041300
C          10.79825500      8.69797500     12.33210300
H          11.21506700      7.72186800     12.65190800
H          11.31148600      9.46747500     12.93785800
C          11.09397300      8.89290100     10.84791000
O          11.39051000     10.05433000     10.46877200
O          10.98826700      7.90514600     10.10198700
P          10.49235000      9.45099400      7.09244100
O           9.03818700      9.36570200      7.27675100
O          11.34905500      8.17332800      7.44587900
H          11.26978900      8.01368500      8.50884100
O          10.83408500      9.74925900      5.56488200
H          11.86403300      9.77485800      5.48266300
O          11.16915700     10.67721900      7.85020400
H          11.33615300     10.40961100      8.86511500
O           8.30639700      7.25765600      9.49582800
H           9.24613200      7.30769000      9.75566500
H           8.27934000      7.77184500      8.68233700
O          11.44662400     11.97520100     12.29396400
H          11.51800200     11.22439800     11.64335700
H          12.32527400     12.32273300     12.37133500
O           6.50281400      7.13011800     11.62844800
H           7.11008900      7.12427500     10.86699300
H           6.10754100      6.26431700     11.62800900
          41
 Energy =  -1445.49089630 a.u.  #Cluster:    7
C           7.41122400     10.00626100      9.76009200
C           7.71325200      9.61422900     11.06143000
C           8.97523400     11.40954800     10.56391700
N           8.19090500     11.12424700      9.47994900
H           6.73604400      9.56251600      9.04113600
H           7.33834100      8.78051100     11.63606400
H           9.72126100     12.20402000     10.62804100
C           8.18168000     11.88363400      8.24377200
H           7.75948500     11.27823700      7.40850100
H           7.57090200     12.79725400      8.34883700
H           9.21189900     12.16562100      7.93640200
N           8.67676200     10.49830200     11.54334900
C           9.27225100     10.46318600     12.87923500
H           8.44772000     10.51215900     13.62966600
H           9.90029400     11.37970600     13.02930400
C          10.12127800      9.20115400     13.10629200
H          10.16648000      8.99400100     14.19489700
H           9.62646300      8.30746000     12.66043900
C          11.53835200      9.33564500     12.55402900
H          12.18715800      8.53021400     12.95352000
H          12.00643600     10.29080300     12.85712500
C          11.49644600      9.21898100     11.03312500
O          11.46959900     10.29217500     10.37685700
O          11.45736100      8.08087400     10.53956300
P          10.21069600      8.80342000      7.43279100
O           8.82996500      8.54196700      7.87586200
O          11.31086100      7.77064900      7.88044500
H          11.42235400      7.85807000      8.95512800
O          10.26015300      8.78701500      5.83919500
H          11.23975600      8.95622200      5.56025900
O          10.74294700     10.25393300      7.79511300
H          11.09944200     10.25289700      8.80288400
O           8.76177900      7.09152700     10.69294300
H           9.71700400      7.25972400     10.72832900
H           8.55031300      7.27530600      9.77313500
O          11.49961900     12.59509200     11.68950600
H          11.58612800     11.72511400     11.21525000
H          12.28499100     13.07855200     11.46899000
O           6.38161900      9.46153700      6.58878100
H           6.35980300      9.11677600      5.70007400
H           7.19575100      9.09148000      6.96579300
          41
 Energy =  -1445.49033660 a.u.  #Cluster:    8
C           7.33877900     10.13969000      9.45959300
C           7.47385500      9.53745500     10.70785100
C           8.69628400     11.42727900     10.70671000
N           8.09028800     11.31065100      9.48662200
H           6.79831700      9.80409600      8.58600300
H           7.07063700      8.60051400     11.06658900
H           9.39414100     12.21005000     11.00159500
C           8.23146500     12.26242100      8.40016600
H           7.94174800     11.80388600      7.42986700
H           7.61150500     13.15752900      8.57828400
H           9.29494600     12.58232300      8.29107400
N           8.30365200     10.35680600     11.47004300
C           8.71447900     10.13043100     12.85722500
H           7.79739700     10.12860300     13.49438900
H           9.35091400     10.98701800     13.18921900
C           9.48493500      8.81383300     13.04130100
H           9.41115200      8.49967600     14.10201700
H           8.99728100      7.98764100     12.46792300
C          10.95323600      8.92567500     12.64107200
H          11.50045700      8.00356500     12.92538000
H          11.45837000      9.76196200     13.15573800
C          11.05194700      9.11168700     11.13071600
O          11.02217100     10.29101500     10.70294500
O          11.11019700      8.09564600     10.41777400
P          10.44833700      9.48562100      7.29129400
O           8.97690400      9.50447100      7.30077100
O          11.14134900      8.14816400      7.75148700
H          11.16250400      8.12068000      8.83213900
O          10.96409800      9.70995400      5.80140600
H          11.99672800      9.65988600      5.82671700
O          11.11015700     10.68263600      8.09327400
H          11.09832500     10.45379500      9.14742900
O           8.62589200      6.73256000     10.76621800
H           9.52719100      7.05572000     10.61775300
H           8.17463500      6.87092700      9.92710100
O          11.18413800     12.97135100      9.82385300
H          11.30007900     12.09496200     10.22554600
H          11.57713800     12.87049100      8.95334200
O           7.32944300      7.34661300      8.30241700
H           7.47284200      6.59508100      7.72767400
H           7.91209900      8.03765000      7.94150100
          41
 Energy =  -1445.48859910 a.u.  #Cluster:    9
C           7.38196800      9.87089300      9.22533400
C           7.51330000      9.58524900     10.58065800
C           8.69552500     11.45110500     10.14717600
N           8.10193200     11.03844300      8.98554000
H           6.86858600      9.31610600      8.45098500
H           7.10729900      8.76896300     11.15915600
H           9.36473200     12.30603500     10.26270100
C           8.20655700     11.72167100      7.70970600
H           8.04038100     11.00986100      6.86921900
H           7.46415700     12.53529800      7.63890600
H           9.22477400     12.14444900      7.56062200
N           8.32531000     10.57436100     11.13346400
C           8.73989400     10.62973400     12.53462000
H           7.82301000     10.65277700     13.17022600
H           9.28769200     11.58851000     12.72581200
C           9.62351500      9.42822700     12.91490000
H           9.52890900      9.24570600     14.00429900
H           9.25529700      8.49715400     12.42555000
C          11.09174100      9.64656600     12.55782900
H          11.73113900      8.89632300     13.06392700
H          11.45187900     10.63744800     12.89137500
C          11.26414200      9.49367500     11.04793200
O          11.30984400     10.54924900     10.36782000
O          11.31049800      8.34308400     10.58493200
P          10.64032100      8.99217800      7.26336900
O           9.21971200      8.68275900      7.47544600
O          11.69597500      8.01898800      7.92246600
H          11.60441700      8.10883900      8.98868200
O          10.98436800      8.95303500      5.70879800
H          11.99177000      9.16638400      5.61518000
O          11.05013300     10.47050800      7.68414400
H          11.22622400     10.49447000      8.73278700
O           8.76449400      7.20321300     10.10354800
H           9.65051500      7.41587000     10.44647700
H           8.83252800      7.49995500      9.18426500
O          10.93780300     12.88456100     11.55320900
H          11.70205500     13.43073600     11.42429700
H          11.17155800     12.00828200     11.14290100
O           5.92384400      7.26522100      9.60700600
H           6.85847200      7.13536300      9.81698400
H           5.62375400      6.41876500      9.28776500
          41
 Energy =  -1445.48745550 a.u.  #Cluster:   10
C           6.62600800      9.16299900     10.98481200
C           7.25341700      9.52423100     12.17217800
C           8.28105800     10.60421300     10.48600200
N           7.26089300      9.85977000      9.95933400
H           5.83999700      8.44946500     10.80422900
H           7.06129900      9.20224600     13.17718500
H           8.99213500     11.22003300      9.92273400
C           6.92906200      9.75591900      8.55072600
H           7.33734500     10.61363700      7.97499200
H           7.37077600      8.82510000      8.11753600
H           5.83733900      9.72082400      8.40125300
N           8.26428500     10.42868800     11.84364300
C           9.22933800     10.98880800     12.78852700
H           8.68123100     11.33336700     13.69467900
H           9.70206100     11.90136900     12.33482100
C          10.30669200      9.95270100     13.16177500
H          10.58996800     10.08509500     14.22381200
H           9.89611200      8.92151600     13.08219100
C          11.54365400     10.07073200     12.27795200
H          12.33539200      9.37213600     12.61484600
H          11.99075700     11.08315400     12.33869200
C          11.23208600      9.73884700     10.82289500
O          11.86709400     10.36560500      9.95087200
O          10.33890500      8.89780900     10.58624800
P          10.50589900      8.95670600      7.03367300
O           9.35142400      9.83592600      6.79804600
O          10.25084600      7.84060200      8.13372900
H          10.35031700      8.27260900      9.10523000
O          10.80350900      8.11261500      5.71773300
H          11.61286100      7.50314600      5.92637100
O          11.87677800      9.66169700      7.36237900
H          11.88990100      9.94018200      8.40207700
O           8.04121100      7.21777000      9.99084400
H           8.79589700      7.73124700     10.31783200
H           8.39191700      6.79477500      9.20117100
O          10.44848400     12.75689200     10.21649600
H          10.04514700     12.85147300      9.34608000
H          11.13453900     12.07877100     10.09238000
O           9.05247300     12.51344100      7.75230400
H           9.40374600     13.09615100      7.08142800
H           9.21816700     11.61775800      7.40031800
          41
 Energy =  -1445.48596960 a.u.  #Cluster:   11
C           6.83542500     10.03184900     10.16597000
C           7.28777600      9.70089200     11.43917600
C           8.68311900     11.24821800     10.58300900
N           7.70840200     10.99209600      9.65929000
H           6.00725400      9.63030200      9.60235800
H           6.91429900      8.96572000     12.13446100
H           9.53200700     11.92673400     10.45641200
C           7.58668000     11.62743800      8.36101000
H           7.17033100     10.91555000      7.61307400
H           6.92346900     12.50877300      8.41485600
H           8.57812400     11.94978500      7.97013800
N           8.42280100     10.47230900     11.68431000
C           9.21328500     10.43089500     12.91471600
H           8.52066300     10.55587600     13.77942300
H           9.91292200     11.31020200     12.93955500
C          10.00156000      9.11676700     13.04457700
H          10.11479400      8.87034700     14.11943100
H           9.42748100      8.26556700     12.61033100
C          11.37816400      9.19319800     12.39102100
H          11.98635900      8.30860400     12.66834300
H          11.94216500     10.08016100     12.73640300
C          11.23424700      9.21549800     10.87158100
O          11.40712600     10.32173300     10.29942700
O          10.93616100      8.15921000     10.29368100
P          10.62928000      9.39384200      6.99985200
O           9.21149200      9.78514300      7.03728600
O          10.96032400      7.97071300      7.60252000
H          10.97184000      8.03691900      8.67009900
O          11.09743000      9.27794200      5.48073700
H          12.09492700      9.00725400      5.49009100
O          11.63306300     10.44533500      7.62094600
H          11.56484700     10.39288900      8.68670000
O           8.19834000      7.46728200     10.63669600
H           9.15256000      7.58438200     10.51256100
H           7.81888400      7.61597700      9.76401500
O          11.18950300     12.53435400     11.72117800
H          11.38543400     11.70687900     11.20229700
H          11.93143800     13.10502700     11.57067500
O           7.10641300      8.13792100      8.04272000
H           7.15086100      7.33676200      7.52116700
H           7.83877500      8.68366900      7.69792100
          41
 Energy =  -1445.48466020 a.u.  #Cluster:   12
C           7.68793100      9.01913700     10.06233300
C           8.16136900      8.96996500     11.37150000
C           8.62985900     11.00590000     10.53901400
N           7.97977000     10.28661500      9.57211800
H           7.18543700      8.26239000      9.47509500
H           8.14774500      8.15970200     12.07410900
H           9.01524000     12.02230200     10.43328700
C           7.66795100     10.78309600      8.24419700
H           7.60321100      9.94487900      7.51478600
H           6.68772100     11.29916100      8.24232200
H           8.46065000     11.46565600      7.87594000
N           8.73072200     10.21261700     11.64972000
C           9.31853800     10.60995100     12.92781700
H           8.56515700     10.43051700     13.73069200
H           9.51764000     11.71405800     12.91524900
C          10.61908600      9.84737700     13.23581900
H          10.74984700      9.79310200     14.33512700
H          10.55093900      8.79205500     12.88958400
C          11.84555900     10.50660100     12.60671700
H          12.77506500     10.13151400     13.07818600
H          11.84544200     11.60250000     12.74781800
C          11.86783100     10.14996000     11.12126300
O          11.33607700     10.97566100     10.32930400
O          12.36509400      9.06483800     10.80008200
P          10.63412800      8.53922300      7.86425500
O           9.41591500      7.93393200      8.42980700
O          12.02252400      8.03281700      8.38716800
H          12.17928600      8.44589400      9.38986500
O          10.66033400      8.22614000      6.29497700
H          11.52828600      8.62278700      5.91057300
O          10.62592300     10.12634300      7.89961800
H          10.98629500     10.46504400      8.84925200
O           7.03370200      7.45475200      6.94849200
H           7.31013800      7.44371900      6.03454200
H           7.87454700      7.50160200      7.44933500
O          10.46459900     13.27065800     11.31475500
H          10.97751600     13.98336000     10.95771300
H          10.88299100     12.44110900     10.95298200
O           5.25879500      9.24918300      8.13929700
H           5.83538800      8.61867900      7.67366700
H           4.38577800      8.87522600      8.08164200
          41
 Energy =  -1445.47645200 a.u.  #Cluster:   13
C           7.36508400     10.22899600      9.37266300
C           7.54083900      9.69646600     10.64612500
C           8.69192900     11.63960800     10.54081300
N           8.07620400     11.43558800      9.32411800
H           6.84706500      9.80920600      8.51366700
H           7.19784900      8.73441200     11.04345400
H           9.36709400     12.46543300     10.80889400
C           8.24329100     12.29461200      8.14739400
H           7.74766900     11.84550700      7.26163500
H           7.82817400     13.30089600      8.31960900
H           9.32722300     12.38182100      7.88604000
N           8.35945300     10.57850500     11.36271800
C           8.85229200     10.40143300     12.74969600
H           7.97996400     10.47000600     13.44124700
H           9.54288200     11.25526000     12.99447800
C           9.57656700      9.06325700     12.94163800
H           9.59170900      8.82457500     14.02613700
H           8.99799700      8.22570900     12.47632500
C          11.00882000      9.06027400     12.40933400
H          11.52455200      8.13088500     12.73577100
H          11.59275800      9.90089800     12.83675900
C          11.04988000      9.12296100     10.89246000
O          11.39945300     10.22762900     10.36018200
O          10.74031900      8.10923500     10.22191900
P          10.09794000      9.33346300      7.16841600
O           8.62410200      9.18284800      7.29460700
O          11.00878700      8.08935500      7.64794300
H          11.06744100      7.91341000      8.71099000
O          10.56543700      9.52846800      5.60944200
H          11.54212400      9.46320000      5.43229500
O          10.70200200     10.64143400      7.90705800
H          11.17177700     10.48220000      8.88606800
O           8.20238100      7.00259300     10.93932400
H           9.12189500      7.14670500     10.64345400
H           7.75247600      6.60787900     10.16371100
O          11.03688300     12.39576400     11.87020200
H          11.40330000     11.63129000     11.33581600
H          11.73797500     13.02875600     11.94411900
O           7.77289400      6.76538000      8.35572600