          41
 G =       -0.634401 Gcorr = 0.236021 a.u. Nimag =   0 Frame:     1 Step:     1 Geom:     1
C           7.43748800     10.10128800      8.73635700
C           7.45128400      9.61294800     10.04014300
C           8.68514600     11.49123800      9.99165700
N           8.19152200     11.27101300      8.73370300
H           6.98908000      9.68736600      7.84656400
H           6.98956400      8.72619900     10.45002000
H           9.34713100     12.30765700     10.28803500
C           8.44518500     12.11694400      7.58219500
H           7.73198700     12.95878800      7.55008400
H           9.48208900     12.51959400      7.59953300
H           8.35774200     11.53497100      6.63805800
N           8.22209600     10.48863400     10.80126400
C           8.47687800     10.37341900     12.23890500
H           7.49109500     10.33816300     12.76303700
H           9.00781200     11.29620400     12.59474300
C           9.29886500      9.12323800     12.58926600
H           9.06740400      8.82768300     13.63374200
H           8.97274800      8.25225300     11.97673500
C          10.80232100      9.33293900     12.43260700
H          11.36000800      8.50711200     12.91807600
H          11.13826400     10.26516600     12.92280800
C          11.14782600      9.35162400     10.94664300
O          11.22942500     10.47593300     10.38954600
O          11.29110500      8.25985300     10.37152400
P          10.66220800      9.17470500      7.13983400
O           9.24774100      8.81521000      7.30157000
O          11.74101500      8.17864000      7.71841500
H          11.63605200      8.17419400      8.79139600
O          11.02164000      9.29542100      5.59194500
H          12.02807800      9.52173600      5.52958400
O          11.02867000     10.62010700      7.69925000
H          11.19302300     10.55660600      8.74712200
O           8.83605200      6.98106700      9.82949700
H           9.73074500      7.26466400     10.09830600
H           8.75114800      7.34391900      8.94206900
O          10.68843900     12.60518600     11.85894700
H          11.46213500     13.14272900     11.96141800
H          10.98821200     11.80468300     11.34373000
O           6.96535600      6.80503900     11.89733900
H           7.61292400      6.80966600     11.16993900
H           6.75251800      5.88622500     12.02441100
          41
 G =       -0.634959 Gcorr = 0.236054 a.u. Nimag =   0 Frame:     2 Step:     2 Geom:     2
C           7.68029000     10.38158400      8.70801800
C           7.37643800      9.63141100      9.84063900
C           8.55745100     11.43172200     10.49245800
N           8.41439700     11.48542300      9.13384900
H           7.45897000     10.18472400      7.66783000
H           6.84507200      8.69520800      9.92798000
H           9.08631500     12.15430500     11.11374800
C           9.04137300     12.48606700      8.29012400
H           9.07920400     12.15018200      7.23210700
H           8.50568000     13.44903700      8.34930000
H          10.09956200     12.65105300      8.60871100
N           7.91881200     10.30215000     10.93543500
C           7.93766900      9.83705200     12.32096500
H           6.99785500      9.25691900     12.51868500
H           7.92837400     10.71860400     13.00197600
C           9.15731000      8.94436300     12.61330300
H           9.08310700      8.59472200     13.66384000
H           9.10021200      8.01014400     12.00712700
C          10.50016500      9.63211300     12.38277100
H          11.28799400      9.15292600     12.99876500
H          10.48074200     10.69374600     12.68289100
C          10.91265600      9.49366700     10.91582300
O          11.00129000     10.55366000     10.24682900
O          11.10778700      8.35548800     10.46531500
P          10.66775000      9.00351500      7.07989100
O           9.26944400      8.57523000      7.18795400
O          11.75255300      8.10812800      7.80812200
H          11.57356600      8.16527200      8.85761600
O          11.13442700      9.01659800      5.55808300
H          12.12563500      9.31049900      5.54630300
O          10.94004400     10.49761100      7.55387200
H          11.04465300     10.50622700      8.61189900
O           8.77152100      6.91040000      9.76840900
H           9.62352400      7.26845000     10.08205200
H           8.73201300      7.21603200      8.85480200
O          10.96728900     13.09319100     11.01670700
H          11.84126800     13.42638200     11.17262800
H          11.08981500     12.14867200     10.75126200
O           6.77072700      7.00978700     11.67438100
H           7.47519200      6.93968600     11.00131100
H           6.46187500      6.11807300     11.79623300
          41
 G =       -0.631328 Gcorr = 0.236257 a.u. Nimag =   0 Frame:     3 Step:     3 Geom:     3
C           7.38196800      9.87089300      9.22533400
C           7.51330000      9.58524900     10.58065800
C           8.69552500     11.45110500     10.14717600
N           8.10193200     11.03844300      8.98554000
H           6.86858600      9.31610600      8.45098500
H           7.10729900      8.76896300     11.15915600
H           9.36473200     12.30603500     10.26270100
C           8.20655700     11.72167100      7.70970600
H           8.04038100     11.00986100      6.86921900
H           7.46415700     12.53529800      7.63890600
H           9.22477400     12.14444900      7.56062200
N           8.32531000     10.57436100     11.13346400
C           8.73989400     10.62973400     12.53462000
H           7.82301000     10.65277700     13.17022600
H           9.28769200     11.58851000     12.72581200
C           9.62351500      9.42822700     12.91490000
H           9.52890900      9.24570600     14.00429900
H           9.25529700      8.49715400     12.42555000
C          11.09174100      9.64656600     12.55782900
H          11.73113900      8.89632300     13.06392700
H          11.45187900     10.63744800     12.89137500
C          11.26414200      9.49367500     11.04793200
O          11.30984400     10.54924900     10.36782000
O          11.31049800      8.34308400     10.58493200
P          10.64032100      8.99217800      7.26336900
O           9.21971200      8.68275900      7.47544600
O          11.69597500      8.01898800      7.92246600
H          11.60441700      8.10883900      8.98868200
O          10.98436800      8.95303500      5.70879800
H          11.99177000      9.16638400      5.61518000
O          11.05013300     10.47050800      7.68414400
H          11.22622400     10.49447000      8.73278700
O           8.76449400      7.20321300     10.10354800
H           9.65051500      7.41587000     10.44647700
H           8.83252800      7.49995500      9.18426500
O          10.93780300     12.88456100     11.55320900
H          11.70205500     13.43073600     11.42429700
H          11.17155800     12.00828200     11.14290100
O           5.92384400      7.26522100      9.60700600
H           6.85847200      7.13536300      9.81698400
H           5.62375400      6.41876500      9.28776500
          41
 G =       -0.631326 Gcorr = 0.216124 a.u. Nimag =   0 Frame:     4 Step:     4 Geom:     4
C           7.17898300      9.43200500     10.35605300
C           7.65617500      9.48812700     11.66174800
C           8.70574200     11.09455500     10.46325700
N           7.82970700     10.43581700      9.62911700
H           6.44119900      8.76221900      9.89643700
H           7.39860700      8.87198700     12.50717800
H           9.40155700     11.90926000     10.18998900
C           7.61299600     10.73314300      8.21033400
H           6.66245400     11.27201200      8.05873100
H           8.45745800     11.31515000      7.78699500
H           7.55698700      9.77669300      7.62559900
N           8.59616800     10.53008200     11.72048500
C           9.34833400     10.95910900     12.92090600
H           8.62286000     11.11563200     13.75194600
H           9.81638800     11.96349500     12.70979700
C          10.42400800      9.94177400     13.32815500
H          10.55726200      9.98618100     14.42910100
H          10.09281600      8.90138500     13.11112400
C          11.77095100     10.19178400     12.64972000
H          12.55442000      9.55815800     13.11750600
H          12.10408100     11.23972800     12.78775800
C          11.70042500      9.85595200     11.16826100
O          11.75249500     10.82639900     10.34450000
O          11.57168800      8.65726300     10.82827000
P          10.60378000      8.93522700      7.48157500
O           9.22468300      8.39828800      7.33428700
O          11.71318500      8.12521000      8.30680400
H          11.71431700      8.21499200      9.40842800
O          11.35608100      9.04894000      6.02235700
H          12.34414800      8.94638800      6.03183900
O          10.58546100     10.43534700      8.09746500
H          11.29787900     10.64744700      8.88796800
O           7.44618200      6.89777500      6.79129200
H           7.88732400      7.51576900      6.17021500
H           8.13394100      6.76439000      7.47845400
O          10.69453600     13.05983800     11.15129400
H          10.98386400     13.90178800     10.82676600
H          11.39160900     12.39466700     10.87569600
O           5.71529100      8.39592600      8.10218800
H           6.42893700      7.87331400      7.60650200
H           4.89503600      7.98680000      7.86391500
          41
 G =       -0.629829 Gcorr = 0.233832 a.u. Nimag =   0 Frame:     5 Step:     5 Geom:     5
C           7.68793100      9.01913700     10.06233300
C           8.16136900      8.96996500     11.37150000
C           8.62985900     11.00590000     10.53901400
N           7.97977000     10.28661500      9.57211800
H           7.18543700      8.26239000      9.47509500
H           8.14774500      8.15970200     12.07410900
H           9.01524000     12.02230200     10.43328700
C           7.66795100     10.78309600      8.24419700
H           7.60321100      9.94487900      7.51478600
H           6.68772100     11.29916100      8.24232200
H           8.46065000     11.46565600      7.87594000
N           8.73072200     10.21261700     11.64972000
C           9.31853800     10.60995100     12.92781700
H           8.56515700     10.43051700     13.73069200
H           9.51764000     11.71405800     12.91524900
C          10.61908600      9.84737700     13.23581900
H          10.74984700      9.79310200     14.33512700
H          10.55093900      8.79205500     12.88958400
C          11.84555900     10.50660100     12.60671700
H          12.77506500     10.13151400     13.07818600
H          11.84544200     11.60250000     12.74781800
C          11.86783100     10.14996000     11.12126300
O          11.33607700     10.97566100     10.32930400
O          12.36509400      9.06483800     10.80008200
P          10.63412800      8.53922300      7.86425500
O           9.41591500      7.93393200      8.42980700
O          12.02252400      8.03281700      8.38716800
H          12.17928600      8.44589400      9.38986500
O          10.66033400      8.22614000      6.29497700
H          11.52828600      8.62278700      5.91057300
O          10.62592300     10.12634300      7.89961800
H          10.98629500     10.46504400      8.84925200
O           7.03370200      7.45475200      6.94849200
H           7.31013800      7.44371900      6.03454200
H           7.87454700      7.50160200      7.44933500
O          10.46459900     13.27065800     11.31475500
H          10.97751600     13.98336000     10.95771300
H          10.88299100     12.44110900     10.95298200
O           5.25879500      9.24918300      8.13929700
H           5.83538800      8.61867900      7.67366700
H           4.38577800      8.87522600      8.08164200
          41
 G =       -0.639526 Gcorr = 0.221633 a.u. Nimag =   0 Frame:     6 Step:     6 Geom:     6
C           7.20418700     10.62297700      9.00349400
C           7.20605200     10.03304200     10.26306000
C           8.96827300     11.44713500     10.15496800
N           8.29581300     11.50394400      8.95300600
H           6.55148000     10.43936300      8.16488300
H           6.53609800      9.27478600     10.68001500
H           9.88478600     11.99428000     10.43121500
C           8.71782500     12.28358000      7.78535500
H           8.40260300     11.78881900      6.84409800
H           8.30238900     13.30468300      7.81395700
H           9.83388900     12.34506100      7.73328600
N           8.30219000     10.54981200     10.96774400
C           8.72567200     10.15299200     12.33142300
H           7.81448100     10.09201700     12.97310300
H           9.38026200     10.96267500     12.75658400
C           9.45153600      8.80046200     12.33083600
H           9.24507900      8.28839100     13.29437100
H           9.00611100      8.12166800     11.55615100
C          10.96213700      8.89997600     12.12336800
H          11.42643200      7.90312400     12.28187200
H          11.42255800      9.57284000     12.87490100
C          11.29574700      9.38030000     10.72679700
O          11.72722200     10.56287400     10.56449100
O          11.12058400      8.61675300      9.73491500
P          10.59826900      9.25699200      7.62560200
O           9.26607600      8.86171600      8.14655100
O          11.84702300      8.20075200      7.49408800
H          12.12240000      7.72497700      8.33873000
O          10.45088400      9.57780900      6.00657600
H          11.29467800      9.61851000      5.49326300
O          11.20872900     10.71603100      8.03176000
H          11.72413000     10.80074300      8.95170000
O           8.70079900      6.97569700      9.70027100
H           9.56327200      7.45511100      9.80954100
H           8.34909600      7.36966600      8.87008600
O          10.84361400     12.36615600     12.19958800
H          11.33616000     13.12671000     12.47217200
H          11.49519300     11.73912600     11.77602600
O           6.82485600      7.48483300     11.48546800
H           7.63611800      7.29371100     10.90807400
H           6.29531400      6.69992100     11.44662800
          41
 G =       -0.634535 Gcorr = 0.236193 a.u. Nimag =   0 Frame:     7 Step:     7 Geom:     7
C           7.41844400     10.44139400      8.96022400
C           7.43789000      9.82459100     10.20809500
C           8.87518300     11.55220400     10.26756900
N           8.30246200     11.51465800      9.02467200
H           6.88160200     10.17324200      8.06322900
H           6.89806800      8.95650900     10.55784200
H           9.63769600     12.25920700     10.60243200
C           8.60075700     12.43782300      7.94545800
H           7.99235800     13.35454400      8.03439700
H           9.67794600     12.71539300      7.94028000
H           8.40096000     11.96778100      6.95709700
N           8.33897000     10.52935800     11.00332700
C           8.65135000     10.23742400     12.40408500
H           7.69044700     10.20778200     12.97388500
H           9.26295000     11.07523200     12.82750600
C           9.39515800      8.90304800     12.57259600
H           9.21842300      8.52755400     13.60205000
H           8.95400600      8.12109100     11.91365300
C          10.89441700      9.01478700     12.31225100
H          11.42088100      8.11773000     12.69544000
H          11.33792400      9.88165600     12.83594500
C          11.12977400      9.11404200     10.80785900
O          11.29196900     10.26394100     10.32618000
O          11.10992600      8.06152900     10.14832900
P          10.37903800      9.28783600      7.04150200
O           8.94708100      9.06917100      7.28108700
O          11.37426500      8.13936400      7.46834700
H          11.33927400      8.06286500      8.54261500
O          10.64912700      9.48955000      5.48404300
H          11.66839800      9.61197800      5.36501900
O          10.94156300     10.63670800      7.67378400
H          11.16036000     10.47450100      8.70109700
O           8.49852000      7.08867400      9.68933400
H           9.43386700      7.25941600      9.91101700
H           8.39464200      7.52480700      8.83751000
O          11.18769100     12.32722100     11.98664400
H          12.02581400     12.77006400     12.00362000
H          11.32189400     11.53479200     11.39834000
O           6.77369200      6.95528200     11.88683000
H           7.36266200      6.94615400     11.11118100
H           6.46256500      6.05911000     11.96364700
          41
 G =       -0.633179 Gcorr = 0.235607 a.u. Nimag =   0 Frame:     8 Step:     8 Geom:     8
C           7.47974300     10.20577100      9.56717600
C           7.52268900      9.54550300     10.79298200
C           8.85756800     11.35332000     10.91987600
N           8.31845000     11.31214800      9.66663200
H           6.93556200      9.95259400      8.66771200
H           7.04440100      8.62198800     11.09763500
H           9.54937600     12.10435500     11.30102500
C           8.67203300     12.22981000      8.59956900
H           8.25580700     13.23492700      8.78265900
H           9.78450200     12.32043900      8.52242300
H           8.31547500     11.85351900      7.61645800
N           8.37321100     10.27518600     11.61982100
C           8.80071200      9.91967800     12.97129600
H           7.98175500      9.33822400     13.46255900
H           8.94223800     10.85486000     13.56270400
C          10.09463200      9.08350600     12.98194600
H          10.36471800      8.88082200     14.03870200
H           9.90384600      8.07534900     12.54280200
C          11.26797800      9.74146100     12.26408100
H          12.22593100      9.30816000     12.62003900
H          11.33031700     10.82331100     12.47700800
C          11.20197100      9.49541700     10.75558400
O          11.30862700     10.50500800     10.01488900
O          11.03836200      8.33738800     10.34684000
P          10.19304700      9.08726200      6.99971500
O           8.75159000      9.30853900      7.19525300
O          10.79775700      7.80753500      7.70366900
H          10.92997200      8.01064800      8.74450500
O          10.48163100      8.84025900      5.45300300
H          11.50171600      8.70526400      5.35179700
O          11.10582600     10.32857400      7.35957000
H          11.23617500     10.36488400      8.42265900
O           8.56374800      6.94461700     10.90056100
H           9.43465600      7.30641900     10.68657600
H           8.06984800      6.98593600     10.07367500
O          11.22674100     13.09814800     10.58692300
H          12.06859700     13.51026800     10.44208300
H          11.36135800     12.14438800     10.36448800
O           7.05853300      7.39186300      8.53564900
H           7.06731100      6.59631200      8.00423900
H           7.64160700      8.00635900      8.05323500
          41
 G =       -0.629795 Gcorr = 0.241710 a.u. Nimag =   0 Frame:     9 Step:     9 Geom:     9
C           7.41258600     10.23683700      9.45811700
C           7.58710900      9.73109100     10.74351100
C           8.84572400     11.58530100     10.54813000
N           8.18827500     11.38863900      9.36459300
H           6.82973000      9.84552500      8.63585900
H           7.17308800      8.84001000     11.19588500
H           9.56034100     12.38271400     10.76242100
C           8.31234100     12.24919800      8.20266300
H           9.38330500     12.45541500      7.97307600
H           7.89599400     11.75541600      7.29639000
H           7.78720800     13.20604600      8.36261600
N           8.46987600     10.58324900     11.40422100
C           8.94365100     10.43245100     12.78091500
H           8.05665900     10.44088800     13.45832600
H           9.57214100     11.31989500     13.05412400
C           9.75041300      9.13972500     12.98311700
H           9.77793400      8.90669500     14.06768300
H           9.23012900      8.27212700     12.51698600
C          11.17625300      9.23568600     12.44773100
H          11.77066000      8.36007800     12.78005900
H          11.69618800     10.13116600     12.83778600
C          11.15525100      9.25409000     10.92250200
O          11.26060700     10.37707900     10.36344400
O          11.00817900      8.17735000     10.32425700
P          10.33865900      9.34093200      7.10170600
O           8.87453500      9.45210300      7.21265100
O          10.99060200      8.01993400      7.66069800
H          11.02540200      8.07778700      8.73810800
O          10.74381400      9.35239900      5.56065900
H          11.77431600      9.28494600      5.51652600
O          11.12161800     10.58438500      7.69636900
H          11.21978700     10.46820200      8.75481700
O           8.47089800      6.87604600     10.71879500
H           9.36843500      7.19940300     10.56458800
H           8.02307600      6.96991300      9.87180700
O          11.31548600     12.54495200     11.88876900
H          12.13007300     13.01232200     11.75816100
H          11.39505600     11.72023500     11.33771500
O           7.17373700      7.35374500      8.21546200
H           7.34131700      6.58119600      7.67652800
H           7.75956900      8.03484200      7.84224900
          41
 G =       -0.630040 Gcorr = 0.236345 a.u. Nimag =   0 Frame:    10 Step:    10 Geom:    10
C           6.62600800      9.16299900     10.98481200
C           7.25341700      9.52423100     12.17217800
C           8.28105800     10.60421300     10.48600200
N           7.26089300      9.85977000      9.95933400
H           5.83999700      8.44946500     10.80422900
H           7.06129900      9.20224600     13.17718500
H           8.99213500     11.22003300      9.92273400
C           6.92906200      9.75591900      8.55072600
H           7.33734500     10.61363700      7.97499200
H           7.37077600      8.82510000      8.11753600
H           5.83733900      9.72082400      8.40125300
N           8.26428500     10.42868800     11.84364300
C           9.22933800     10.98880800     12.78852700
H           8.68123100     11.33336700     13.69467900
H           9.70206100     11.90136900     12.33482100
C          10.30669200      9.95270100     13.16177500
H          10.58996800     10.08509500     14.22381200
H           9.89611200      8.92151600     13.08219100
C          11.54365400     10.07073200     12.27795200
H          12.33539200      9.37213600     12.61484600
H          11.99075700     11.08315400     12.33869200
C          11.23208600      9.73884700     10.82289500
O          11.86709400     10.36560500      9.95087200
O          10.33890500      8.89780900     10.58624800
P          10.50589900      8.95670600      7.03367300
O           9.35142400      9.83592600      6.79804600
O          10.25084600      7.84060200      8.13372900
H          10.35031700      8.27260900      9.10523000
O          10.80350900      8.11261500      5.71773300
H          11.61286100      7.50314600      5.92637100
O          11.87677800      9.66169700      7.36237900
H          11.88990100      9.94018200      8.40207700
O           8.04121100      7.21777000      9.99084400
H           8.79589700      7.73124700     10.31783200
H           8.39191700      6.79477500      9.20117100
O          10.44848400     12.75689200     10.21649600
H          10.04514700     12.85147300      9.34608000
H          11.13453900     12.07877100     10.09238000
O           9.05247300     12.51344100      7.75230400
H           9.40374600     13.09615100      7.08142800
H           9.21816700     11.61775800      7.40031800
          41
 G =       -0.631641 Gcorr = 0.236376 a.u. Nimag =   0 Frame:    11 Step:    11 Geom:    11
C           7.33877900     10.13969000      9.45959300
C           7.47385500      9.53745500     10.70785100
C           8.69628400     11.42727900     10.70671000
N           8.09028800     11.31065100      9.48662200
H           6.79831700      9.80409600      8.58600300
H           7.07063700      8.60051400     11.06658900
H           9.39414100     12.21005000     11.00159500
C           8.23146500     12.26242100      8.40016600
H           7.94174800     11.80388600      7.42986700
H           7.61150500     13.15752900      8.57828400
H           9.29494600     12.58232300      8.29107400
N           8.30365200     10.35680600     11.47004300
C           8.71447900     10.13043100     12.85722500
H           7.79739700     10.12860300     13.49438900
H           9.35091400     10.98701800     13.18921900
C           9.48493500      8.81383300     13.04130100
H           9.41115200      8.49967600     14.10201700
H           8.99728100      7.98764100     12.46792300
C          10.95323600      8.92567500     12.64107200
H          11.50045700      8.00356500     12.92538000
H          11.45837000      9.76196200     13.15573800
C          11.05194700      9.11168700     11.13071600
O          11.02217100     10.29101500     10.70294500
O          11.11019700      8.09564600     10.41777400
P          10.44833700      9.48562100      7.29129400
O           8.97690400      9.50447100      7.30077100
O          11.14134900      8.14816400      7.75148700
H          11.16250400      8.12068000      8.83213900
O          10.96409800      9.70995400      5.80140600
H          11.99672800      9.65988600      5.82671700
O          11.11015700     10.68263600      8.09327400
H          11.09832500     10.45379500      9.14742900
O           8.62589200      6.73256000     10.76621800
H           9.52719100      7.05572000     10.61775300
H           8.17463500      6.87092700      9.92710100
O          11.18413800     12.97135100      9.82385300
H          11.30007900     12.09496200     10.22554600
H          11.57713800     12.87049100      8.95334200
O           7.32944300      7.34661300      8.30241700
H           7.47284200      6.59508100      7.72767400
H           7.91209900      8.03765000      7.94150100
          41
 G =       -0.632118 Gcorr = 0.218170 a.u. Nimag =   0 Frame:    12 Step:    12 Geom:    12
C           7.36508400     10.22899600      9.37266300
C           7.54083900      9.69646600     10.64612500
C           8.69192900     11.63960800     10.54081300
N           8.07620400     11.43558800      9.32411800
H           6.84706500      9.80920600      8.51366700
H           7.19784900      8.73441200     11.04345400
H           9.36709400     12.46543300     10.80889400
C           8.24329100     12.29461200      8.14739400
H           7.74766900     11.84550700      7.26163500
H           7.82817400     13.30089600      8.31960900
H           9.32722300     12.38182100      7.88604000
N           8.35945300     10.57850500     11.36271800
C           8.85229200     10.40143300     12.74969600
H           7.97996400     10.47000600     13.44124700
H           9.54288200     11.25526000     12.99447800
C           9.57656700      9.06325700     12.94163800
H           9.59170900      8.82457500     14.02613700
H           8.99799700      8.22570900     12.47632500
C          11.00882000      9.06027400     12.40933400
H          11.52455200      8.13088500     12.73577100
H          11.59275800      9.90089800     12.83675900
C          11.04988000      9.12296100     10.89246000
O          11.39945300     10.22762900     10.36018200
O          10.74031900      8.10923500     10.22191900
P          10.09794000      9.33346300      7.16841600
O           8.62410200      9.18284800      7.29460700
O          11.00878700      8.08935500      7.64794300
H          11.06744100      7.91341000      8.71099000
O          10.56543700      9.52846800      5.60944200
H          11.54212400      9.46320000      5.43229500
O          10.70200200     10.64143400      7.90705800
H          11.17177700     10.48220000      8.88606800
O           8.20238100      7.00259300     10.93932400
H           9.12189500      7.14670500     10.64345400
H           7.75247600      6.60787900     10.16371100
O          11.03688300     12.39576400     11.87020200
H          11.40330000     11.63129000     11.33581600
H          11.73797500     13.02875600     11.94411900
O           7.77289400      6.76538000      8.35572600
H           8.49413200      6.31761600      7.91970800
H           7.78940100      7.68648100      8.00806500
          41
 G =       -0.634104 Gcorr = 0.237238 a.u. Nimag =   0 Frame:    13 Step:    13 Geom:    13
C           7.37199300     10.13101600      9.46962100
C           7.56523400      9.64942700     10.76155500
C           8.75133100     11.54820300     10.54180500
N           8.10328000     11.31034800      9.36089100
H           6.80660300      9.70536000      8.65277500
H           7.19442100      8.74197100     11.22490200
H           9.43485600     12.37460500     10.74607300
C           8.19757500     12.15697400      8.18608900
H           9.25999800     12.40511000      7.95904900
H           7.80840500     11.63108900      7.28577400
H           7.63069400     13.09265500      8.32749500
N           8.41347200     10.54341000     11.41083600
C           8.89178100     10.42549300     12.78928400
H           8.00461200     10.41222700     13.46637300
H           9.49047700     11.33596300     13.05194200
C           9.73876200      9.16109000     13.00431700
H           9.76138400      8.92981700     14.08889500
H           9.25096000      8.27445600     12.53299300
C          11.16606600      9.30497600     12.48381900
H          11.78976000      8.45751500     12.83439500
H          11.64664000     10.22486700     12.86738400
C          11.16146600      9.30273500     10.95853500
O          11.23647800     10.41914400     10.38340200
O          11.05621300      8.21198800     10.37466300
P          10.33271200      9.30490500      7.14077300
O           8.86533800      9.35380500      7.25363500
O          11.04274100      8.02136800      7.71557200
H          11.07806800      8.09502400      8.79278100