 Entering Gaussian System, Link 0=g16
 Initial command:
 /data0/home/software/g16/l1.exe "/data0/home/software/g16/scratch/Gau-2478095.inp" -scrdir="/data0/home/software/g16/scratch/"
 Default is to use a total of  22 processors:
                               22 via shared-memory
                                1 via Linda
 Entering Link 1 = /data0/home/software/g16/l1.exe PID=   2478096.
  
 Copyright (c) 1988,1990,1992,1993,1995,1998,2003,2009,2016,
            Gaussian, Inc.  All Rights Reserved.
  
 This is part of the Gaussian(R) 16 program.  It is based on
 the Gaussian(R) 09 system (copyright 2009, Gaussian, Inc.),
 the Gaussian(R) 03 system (copyright 2003, Gaussian, Inc.),
 the Gaussian(R) 98 system (copyright 1998, Gaussian, Inc.),
 the Gaussian(R) 94 system (copyright 1995, Gaussian, Inc.),
 the Gaussian 92(TM) system (copyright 1992, Gaussian, Inc.),
 the Gaussian 90(TM) system (copyright 1990, Gaussian, Inc.),
 the Gaussian 88(TM) system (copyright 1988, Gaussian, Inc.),
 the Gaussian 86(TM) system (copyright 1986, Carnegie Mellon
 University), and the Gaussian 82(TM) system (copyright 1983,
 Carnegie Mellon University). Gaussian is a federally registered
 trademark of Gaussian, Inc.
  
 This software contains proprietary and confidential information,
 including trade secrets, belonging to Gaussian, Inc.
  
 This software is provided under written license and may be
 used, copied, transmitted, or stored only in accord with that
 written license.
  
 The following legend is applicable only to US Government
 contracts under FAR:
  
                    RESTRICTED RIGHTS LEGEND
  
 Use, reproduction and disclosure by the US Government is
 subject to restrictions as set forth in subparagraphs (a)
 and (c) of the Commercial Computer Software - Restricted
 Rights clause in FAR 52.227-19.
  
 Gaussian, Inc.
 340 Quinnipiac St., Bldg. 40, Wallingford CT 06492
  
  
 ---------------------------------------------------------------
 Warning -- This program may not be used in any manner that
 competes with the business of Gaussian, Inc. or will provide
 assistance to any competitor of Gaussian, Inc.  The licensee
 of this program is prohibited from giving any competitor of
 Gaussian, Inc. access to this program.  By using this program,
 the user acknowledges that Gaussian, Inc. is engaged in the
 business of creating and licensing software in the field of
 computational chemistry and represents and warrants to the
 licensee that it is not a competitor of Gaussian, Inc. and that
 it will not use this program in any manner prohibited above.
 ---------------------------------------------------------------
  

 Cite this work as:
 Gaussian 16, Revision A.03,
 M. J. Frisch, G. W. Trucks, H. B. Schlegel, G. E. Scuseria, 
 M. A. Robb, J. R. Cheeseman, G. Scalmani, V. Barone, 
 G. A. Petersson, H. Nakatsuji, X. Li, M. Caricato, A. V. Marenich, 
 J. Bloino, B. G. Janesko, R. Gomperts, B. Mennucci, H. P. Hratchian, 
 J. V. Ortiz, A. F. Izmaylov, J. L. Sonnenberg, D. Williams-Young, 
 F. Ding, F. Lipparini, F. Egidi, J. Goings, B. Peng, A. Petrone, 
 T. Henderson, D. Ranasinghe, V. G. Zakrzewski, J. Gao, N. Rega, 
 G. Zheng, W. Liang, M. Hada, M. Ehara, K. Toyota, R. Fukuda, 
 J. Hasegawa, M. Ishida, T. Nakajima, Y. Honda, O. Kitao, H. Nakai, 
 T. Vreven, K. Throssell, J. A. Montgomery, Jr., J. E. Peralta, 
 F. Ogliaro, M. J. Bearpark, J. J. Heyd, E. N. Brothers, K. N. Kudin, 
 V. N. Staroverov, T. A. Keith, R. Kobayashi, J. Normand, 
 K. Raghavachari, A. P. Rendell, J. C. Burant, S. S. Iyengar, 
 J. Tomasi, M. Cossi, J. M. Millam, M. Klene, C. Adamo, R. Cammi, 
 J. W. Ochterski, R. L. Martin, K. Morokuma, O. Farkas, 
 J. B. Foresman, and D. J. Fox, Gaussian, Inc., Wallingford CT, 2016.
 
 ******************************************
 Gaussian 16:  ES64L-G16RevA.03 25-Dec-2016
                20-Feb-2023 
 ******************************************
 %nproc=24
 Will use up to   24 processors via shared memory.
 %mem=50GB
 ---------------------------------------------------
 #p M062X/6-311+G(2d,p) nosymm em=GD3 counterpoise=2
 ---------------------------------------------------
 1/38=1,62=2,172=1/1;
 2/12=2,15=1,17=6,18=5,40=1/2;
 1/38=1,53=2,62=2,63=1/22;
 3/5=4,6=6,7=112,11=2,25=1,30=1,74=-55,124=31/1,2,3;
 4//1;
 5/5=2,38=5/2;
 6/7=2,8=2,9=2,10=2,28=1/1;
 1/53=2,62=2,63=1/22;
 3/5=7,6=11,7=112,11=2,25=1,30=1,74=-55,82=7,124=31/1,2,3;
 4//1;
 5/5=2,38=5/2;
 6/7=2,8=2,9=2,10=2,28=1/1;
 1/53=2,62=2,63=1/22(-4);
 99/5=1,9=1/99;
 Leave Link    1 at Mon Feb 20 21:04:40 2023, MaxMem=  6710886400 cpu:               0.7 elap:               0.0
 (Enter /data0/home/software/g16/l101.exe)
 -------------------
 Title Card Required
 -------------------
 Symbolic Z-matrix:
 Charge =  0 Multiplicity = 1 in supermolecule
 Charge =  0 Multiplicity = 1 in fragment      1.
 Charge =  0 Multiplicity = 1 in fragment      2.
 C                     10.24997   17.12097   7.65018    
 C                     9.10033   16.66487   8.29453    
 C                     8.47382   18.34318   7.01652    
 N                     9.84776   18.18529   6.84094    
 H                     10.44373   18.7214   6.25183    
 H                     11.26392   16.78577   7.70511    
 H                     8.97745   15.86287   8.99777    
 H                     7.88175   19.09138   6.51646    
 N                     8.01699   17.43123   7.89099    
 O                     5.5657    17.45613   9.03508    
 H                     6.14029   17.95707   9.60764    
 H                     6.1783    17.13984   8.34295    
 
 ITRead=  0  0  0  0  0  0  0  0  0  0  0  0
 MicOpt= -1 -1 -1 -1 -1 -1 -1 -1 -1 -1 -1 -1
 NAtoms=     12 NQM=       12 NQMF=       0 NMMI=      0 NMMIF=      0
                NMic=       0 NMicF=      0.
                    Isotopes and Nuclear Properties:
 (Nuclear quadrupole moments (NQMom) in fm**2, nuclear magnetic moments (NMagM)
  in nuclear magnetons)

  Atom         1           2           3           4           5           6           7           8           9          10
 IAtWgt=          12          12          12          14           1           1           1           1          14          16
 AtmWgt=  12.0000000  12.0000000  12.0000000  14.0030740   1.0078250   1.0078250   1.0078250   1.0078250  14.0030740  15.9949146
 NucSpn=           0           0           0           2           1           1           1           1           2           0
 AtZEff=  -0.0000000  -0.0000000  -0.0000000  -0.0000000  -0.0000000  -0.0000000  -0.0000000  -0.0000000  -0.0000000  -0.0000000
 NQMom=    0.0000000   0.0000000   0.0000000   2.0440000   0.0000000   0.0000000   0.0000000   0.0000000   2.0440000   0.0000000
 NMagM=    0.0000000   0.0000000   0.0000000   0.4037610   2.7928460   2.7928460   2.7928460   2.7928460   0.4037610   0.0000000
 AtZNuc=   6.0000000   6.0000000   6.0000000   7.0000000   1.0000000   1.0000000   1.0000000   1.0000000   7.0000000   8.0000000

  Atom        11          12
 IAtWgt=           1           1
 AtmWgt=   1.0078250   1.0078250
 NucSpn=           1           1
 AtZEff=  -0.0000000  -0.0000000
 NQMom=    0.0000000   0.0000000
 NMagM=    2.7928460   2.7928460
 AtZNuc=   1.0000000   1.0000000
 Leave Link  101 at Mon Feb 20 21:04:40 2023, MaxMem=  6710886400 cpu:               2.0 elap:               0.1
 (Enter /data0/home/software/g16/l202.exe)
                          Input orientation:                          
 ---------------------------------------------------------------------
 Center     Atomic      Atomic             Coordinates (Angstroms)
 Number     Number       Type             X           Y           Z
 ---------------------------------------------------------------------
      1          6           0       10.249968   17.120966    7.650183
      2          6           0        9.100335   16.664871    8.294531
      3          6           0        8.473815   18.343177    7.016519
      4          7           0        9.847756   18.185295    6.840937
      5          1           0       10.443731   18.721399    6.251834
      6          1           0       11.263916   16.785772    7.705106
      7          1           0        8.977450   15.862869    8.997771
      8          1           0        7.881751   19.091382    6.516464
      9          7           0        8.016988   17.431230    7.890990
     10          8           0        5.565704   17.456130    9.035077
     11          1           0        6.140291   17.957075    9.607641
     12          1           0        6.178303   17.139844    8.342952
 ---------------------------------------------------------------------
                    Distance matrix (angstroms):
                    1          2          3          4          5
     1  C    0.000000
     2  C    1.394583   0.000000
     3  C    2.247231   2.200580   0.000000
     4  N    1.396227   2.232322   1.394084   0.000000
     5  H    2.134083   3.194782   2.146710   0.994805   0.000000
     6  H    1.069328   2.245690   3.268689   2.170475   2.555652
     7  H    2.240112   1.073711   3.214177   3.286796   4.226268
     8  H    3.282729   3.245678   1.077221   2.188939   2.602049
     9  N    2.267256   1.387008   1.343517   2.241191   3.200070
    10  O    4.896182   3.697041   3.649457   4.866405   5.756952
    11  H    4.628192   3.486533   3.508322   4.631634   5.510465
    12  H    4.130223   2.960779   2.911496   4.100476   5.006792
                    6          7          8          9         10
     6  H    0.000000
     7  H    2.784001   0.000000
     8  H    4.262364   4.216721   0.000000
     9  N    3.315676   2.146441   2.159564   0.000000
    10  O    5.889637   3.765619   3.792299   2.705245   0.000000
    11  H    5.589555   3.578702   3.724877   2.597190   0.953376
    12  H    5.137672   3.145581   3.169589   1.915708   0.976909
                   11         12
    11  H    0.000000
    12  H    1.506237   0.000000
 Symmetry turned off by external request.
 Stoichiometry    C3H6N2O
 Framework group  C1[X(C3H6N2O)]
 Deg. of freedom    30
 Full point group                 C1      NOp   1
 Rotational constants (GHZ):           9.0748353           1.9010171           1.5889764
 Leave Link  202 at Mon Feb 20 21:04:40 2023, MaxMem=  6710886400 cpu:               0.1 elap:               0.0
 (Enter /data0/home/software/g16/l122.exe)
 Counterpoise: doing full-system calculation.
 Leave Link  122 at Mon Feb 20 21:04:40 2023, MaxMem=  6710886400 cpu:               0.0 elap:               0.0
 (Enter /data0/home/software/g16/l301.exe)
 Standard basis: 6-311+G(2d,p) (5D, 7F)
 Ernie: Thresh=  0.10000D-02 Tol=  0.10000D-05 Strict=F.
   198 basis functions,   300 primitive gaussians,   210 cartesian basis functions
    23 alpha electrons       23 beta electrons
       nuclear repulsion energy       221.4645948931 Hartrees.
 IExCor= 4336 DFT=T Ex+Corr=M062X ExCW=0 ScaHFX=  0.540000
 ScaDFX=  1.000000  1.000000  1.000000  1.000000 ScalE2=  1.000000  1.000000
 IRadAn=      5 IRanWt=     -1 IRanGd=            0 ICorTp=0 IEmpDi=131
 NAtoms=   12 NActive=   12 NUniq=   12 SFac= 1.00D+00 NAtFMM=   60 NAOKFM=F Big=F
 Integral buffers will be    131072 words long.
 Raffenetti 2 integral format.
 Two-electron integral symmetry is turned off.
 R6Disp:  Grimme-D3 Dispersion energy=       -0.0001884372 Hartrees.
 Nuclear repulsion after empirical dispersion term =      221.4644064559 Hartrees.
 Leave Link  301 at Mon Feb 20 21:04:40 2023, MaxMem=  6710886400 cpu:               1.1 elap:               0.1
 (Enter /data0/home/software/g16/l302.exe)
 NPDir=0 NMtPBC=     1 NCelOv=     1 NCel=       1 NClECP=     1 NCelD=      1
         NCelK=      1 NCelE2=     1 NClLst=     1 CellRange=     0.0.
 One-electron integrals computed using PRISM.
 NBasis=   198 RedAO= T EigKep=  4.77D-05  NBF=   198
 NBsUse=   198 1.00D-06 EigRej= -1.00D+00 NBFU=   198
 Precomputing XC quadrature grid using
 IXCGrd= 4 IRadAn=           5 IRanWt=          -1 IRanGd=           0 AccXCQ= 0.00D+00.
 Generated NRdTot=       0 NPtTot=           0 NUsed=           0 NTot=          32
 NSgBfM=   210   210   210   210   210 MxSgAt=    12 MxSgA2=    12.
 Leave Link  302 at Mon Feb 20 21:04:41 2023, MaxMem=  6710886400 cpu:               3.2 elap:               0.2
 (Enter /data0/home/software/g16/l303.exe)
 DipDrv:  MaxL=1.
 Leave Link  303 at Mon Feb 20 21:04:41 2023, MaxMem=  6710886400 cpu:               0.5 elap:               0.0
 (Enter /data0/home/software/g16/l401.exe)
 ExpMin= 4.38D-02 ExpMax= 8.59D+03 ExpMxC= 1.30D+03 IAcc=3 IRadAn=         5 AccDes= 0.00D+00
 Harris functional with IExCor= 1009 and IRadAn=       5 diagonalized for initial guess.
 HarFok:  IExCor= 1009 AccDes= 0.00D+00 IRadAn=         5 IDoV= 1 UseB2=F ITyADJ=14
 ICtDFT=  3500011 ScaDFX=  1.000000  1.000000  1.000000  1.000000
 FoFCou: FMM=F IPFlag=           0 FMFlag=      100000 FMFlg1=           0
         NFxFlg=           0 DoJE=T BraDBF=F KetDBF=T FulRan=T
         wScrn=  0.000000 ICntrl=       500 IOpCl=  0 I1Cent=   200000004 NGrid=           0
         NMat0=    1 NMatS0=      1 NMatT0=    0 NMatD0=    1 NMtDS0=    0 NMtDT0=    0
 Symmetry not used in FoFCou.
 Harris En= -302.473725742924    
 JPrj=0 DoOrth=F DoCkMO=F.
 Leave Link  401 at Mon Feb 20 21:04:41 2023, MaxMem=  6710886400 cpu:               9.3 elap:               0.4
 (Enter /data0/home/software/g16/l502.exe)
 Keep R1 ints in memory in canonical form, NReq=218988661.
 FoFCou: FMM=F IPFlag=           0 FMFlag=           0 FMFlg1=           0
         NFxFlg=           0 DoJE=F BraDBF=F KetDBF=F FulRan=T
         wScrn=  0.000000 ICntrl=       600 IOpCl=  0 I1Cent=           0 NGrid=           0
         NMat0=    1 NMatS0=  19701 NMatT0=    0 NMatD0=    1 NMtDS0=    0 NMtDT0=    0
 Symmetry not used in FoFCou.
 Two-electron integral symmetry not used.
 Closed shell SCF:
 Using DIIS extrapolation, IDIIS=  1040.
 NGot=  6710886400 LenX=  6516717039 LenY=  6516672498
 Requested convergence on RMS density matrix=1.00D-08 within 128 cycles.
 Requested convergence on MAX density matrix=1.00D-06.
 Requested convergence on             energy=1.00D-06.
 No special actions if energy rises.

 Cycle   1  Pass 1  IDiag  1:
 E= -302.448380496400    
 DIIS: error= 4.68D-02 at cycle   1 NSaved=   1.
 NSaved= 1 IEnMin= 1 EnMin= -302.448380496400     IErMin= 1 ErrMin= 4.68D-02
 ErrMax= 4.68D-02  0.00D+00 EMaxC= 1.00D-01 BMatC= 2.51D-01 BMatP= 2.51D-01
 IDIUse=3 WtCom= 5.32D-01 WtEn= 4.68D-01
 Coeff-Com:  0.100D+01
 Coeff-En:   0.100D+01
 Coeff:      0.100D+01
 Gap=     0.311 Goal=   None    Shift=    0.000
 GapD=    0.311 DampG=1.000 DampE=0.500 DampFc=0.5000 IDamp=-1.
 Damping current iteration by 5.00D-01
 RMSDP=6.60D-03 MaxDP=4.54D-01              OVMax= 1.96D-01

 Cycle   2  Pass 1  IDiag  1:
 E= -302.525451964901     Delta-E=       -0.077071468500 Rises=F Damp=T
 DIIS: error= 9.26D-03 at cycle   2 NSaved=   2.
 NSaved= 2 IEnMin= 2 EnMin= -302.525451964901     IErMin= 2 ErrMin= 9.26D-03
 ErrMax= 9.26D-03  0.00D+00 EMaxC= 1.00D-01 BMatC= 1.96D-02 BMatP= 2.51D-01
 IDIUse=3 WtCom= 9.07D-01 WtEn= 9.26D-02
 Coeff-Com: -0.725D-02 0.101D+01
 Coeff-En:   0.503D-01 0.950D+00
 Coeff:     -0.192D-02 0.100D+01
 Gap=     0.356 Goal=   None    Shift=    0.000
 RMSDP=1.72D-03 MaxDP=1.23D-01 DE=-7.71D-02 OVMax= 1.24D-01

 Cycle   3  Pass 1  IDiag  1:
 E= -302.613318725741     Delta-E=       -0.087866760840 Rises=F Damp=F
 DIIS: error= 7.18D-03 at cycle   3 NSaved=   3.
 NSaved= 3 IEnMin= 3 EnMin= -302.613318725741     IErMin= 3 ErrMin= 7.18D-03
 ErrMax= 7.18D-03  0.00D+00 EMaxC= 1.00D-01 BMatC= 5.68D-03 BMatP= 1.96D-02
 IDIUse=3 WtCom= 9.28D-01 WtEn= 7.18D-02
 Coeff-Com: -0.780D-01 0.331D+00 0.747D+00
 Coeff-En:   0.000D+00 0.000D+00 0.100D+01
 Coeff:     -0.724D-01 0.307D+00 0.765D+00
 Gap=     0.304 Goal=   None    Shift=    0.000
 RMSDP=3.77D-04 MaxDP=1.34D-02 DE=-8.79D-02 OVMax= 2.69D-02

 Cycle   4  Pass 1  IDiag  1:
 E= -302.616671537064     Delta-E=       -0.003352811323 Rises=F Damp=F
 DIIS: error= 2.59D-03 at cycle   4 NSaved=   4.
 NSaved= 4 IEnMin= 4 EnMin= -302.616671537064     IErMin= 4 ErrMin= 2.59D-03
 ErrMax= 2.59D-03  0.00D+00 EMaxC= 1.00D-01 BMatC= 1.23D-03 BMatP= 5.68D-03
 IDIUse=3 WtCom= 9.74D-01 WtEn= 2.59D-02
 Coeff-Com: -0.371D-01 0.100D+00 0.396D+00 0.541D+00
 Coeff-En:   0.000D+00 0.000D+00 0.151D+00 0.849D+00
 Coeff:     -0.361D-01 0.976D-01 0.390D+00 0.549D+00
 Gap=     0.300 Goal=   None    Shift=    0.000
 RMSDP=1.41D-04 MaxDP=4.27D-03 DE=-3.35D-03 OVMax= 1.15D-02

 Cycle   5  Pass 1  IDiag  1:
 E= -302.617673048661     Delta-E=       -0.001001511597 Rises=F Damp=F
 DIIS: error= 7.19D-04 at cycle   5 NSaved=   5.
 NSaved= 5 IEnMin= 5 EnMin= -302.617673048661     IErMin= 5 ErrMin= 7.19D-04
 ErrMax= 7.19D-04  0.00D+00 EMaxC= 1.00D-01 BMatC= 8.40D-05 BMatP= 1.23D-03
 IDIUse=3 WtCom= 9.93D-01 WtEn= 7.19D-03
 Coeff-Com: -0.124D-01 0.253D-01 0.138D+00 0.275D+00 0.574D+00
 Coeff-En:   0.000D+00 0.000D+00 0.000D+00 0.000D+00 0.100D+01
 Coeff:     -0.123D-01 0.251D-01 0.137D+00 0.273D+00 0.577D+00
 Gap=     0.298 Goal=   None    Shift=    0.000
 RMSDP=6.00D-05 MaxDP=3.51D-03 DE=-1.00D-03 OVMax= 3.68D-03

 Cycle   6  Pass 1  IDiag  1:
 E= -302.617742279050     Delta-E=       -0.000069230389 Rises=F Damp=F
 DIIS: error= 1.68D-04 at cycle   6 NSaved=   6.
 NSaved= 6 IEnMin= 6 EnMin= -302.617742279050     IErMin= 6 ErrMin= 1.68D-04
 ErrMax= 1.68D-04  0.00D+00 EMaxC= 1.00D-01 BMatC= 5.83D-06 BMatP= 8.40D-05
 IDIUse=3 WtCom= 9.98D-01 WtEn= 1.68D-03
 Coeff-Com: -0.210D-02 0.211D-02 0.248D-01 0.665D-01 0.257D+00 0.652D+00
 Coeff-En:   0.000D+00 0.000D+00 0.000D+00 0.000D+00 0.000D+00 0.100D+01
 Coeff:     -0.209D-02 0.211D-02 0.248D-01 0.664D-01 0.257D+00 0.652D+00
 Gap=     0.298 Goal=   None    Shift=    0.000
 RMSDP=1.38D-05 MaxDP=4.43D-04 DE=-6.92D-05 OVMax= 7.04D-04

 Cycle   7  Pass 1  IDiag  1:
 E= -302.617747482300     Delta-E=       -0.000005203250 Rises=F Damp=F
 DIIS: error= 2.89D-05 at cycle   7 NSaved=   7.
 NSaved= 7 IEnMin= 7 EnMin= -302.617747482300     IErMin= 7 ErrMin= 2.89D-05
 ErrMax= 2.89D-05  0.00D+00 EMaxC= 1.00D-01 BMatC= 1.52D-07 BMatP= 5.83D-06
 IDIUse=1 WtCom= 1.00D+00 WtEn= 0.00D+00
 Coeff-Com:  0.112D-02-0.248D-02-0.108D-01-0.227D-01-0.304D-01 0.469D-01
 Coeff-Com:  0.102D+01
 Coeff:      0.112D-02-0.248D-02-0.108D-01-0.227D-01-0.304D-01 0.469D-01
 Coeff:      0.102D+01
 Gap=     0.298 Goal=   None    Shift=    0.000
 RMSDP=7.94D-06 MaxDP=4.36D-04 DE=-5.20D-06 OVMax= 2.56D-04

 Cycle   8  Pass 1  IDiag  1:
 E= -302.617747695101     Delta-E=       -0.000000212801 Rises=F Damp=F
 DIIS: error= 1.97D-05 at cycle   8 NSaved=   8.
 NSaved= 8 IEnMin= 8 EnMin= -302.617747695101     IErMin= 8 ErrMin= 1.97D-05
 ErrMax= 1.97D-05  0.00D+00 EMaxC= 1.00D-01 BMatC= 5.58D-08 BMatP= 1.52D-07
 IDIUse=1 WtCom= 1.00D+00 WtEn= 0.00D+00
 Coeff-Com:  0.635D-03-0.128D-02-0.624D-02-0.142D-01-0.252D-01-0.893D-02
 Coeff-Com:  0.509D+00 0.546D+00
 Coeff:      0.635D-03-0.128D-02-0.624D-02-0.142D-01-0.252D-01-0.893D-02
 Coeff:      0.509D+00 0.546D+00
 Gap=     0.298 Goal=   None    Shift=    0.000
 RMSDP=1.37D-06 MaxDP=6.16D-05 DE=-2.13D-07 OVMax= 1.03D-04

 Cycle   9  Pass 1  IDiag  1:
 E= -302.617747751429     Delta-E=       -0.000000056328 Rises=F Damp=F
 DIIS: error= 4.69D-06 at cycle   9 NSaved=   9.
 NSaved= 9 IEnMin= 9 EnMin= -302.617747751429     IErMin= 9 ErrMin= 4.69D-06
 ErrMax= 4.69D-06  0.00D+00 EMaxC= 1.00D-01 BMatC= 2.68D-09 BMatP= 5.58D-08
 IDIUse=1 WtCom= 1.00D+00 WtEn= 0.00D+00
 Coeff-Com: -0.675D-04 0.152D-03 0.602D-03 0.725D-03 0.112D-02-0.115D-01
 Coeff-Com: -0.594D-01 0.121D+00 0.947D+00
 Coeff:     -0.675D-04 0.152D-03 0.602D-03 0.725D-03 0.112D-02-0.115D-01
 Coeff:     -0.594D-01 0.121D+00 0.947D+00
 Gap=     0.298 Goal=   None    Shift=    0.000
 RMSDP=6.11D-07 MaxDP=2.52D-05 DE=-5.63D-08 OVMax= 2.69D-05

 Cycle  10  Pass 1  IDiag  1:
 E= -302.617747754872     Delta-E=       -0.000000003443 Rises=F Damp=F
 DIIS: error= 9.71D-07 at cycle  10 NSaved=  10.
 NSaved=10 IEnMin=10 EnMin= -302.617747754872     IErMin=10 ErrMin= 9.71D-07
 ErrMax= 9.71D-07  0.00D+00 EMaxC= 1.00D-01 BMatC= 1.23D-10 BMatP= 2.68D-09
 IDIUse=1 WtCom= 1.00D+00 WtEn= 0.00D+00
 Coeff-Com: -0.419D-04 0.877D-04 0.387D-03 0.676D-03 0.136D-02-0.328D-02
 Coeff-Com: -0.346D-01 0.639D-02 0.189D+00 0.840D+00
 Coeff:     -0.419D-04 0.877D-04 0.387D-03 0.676D-03 0.136D-02-0.328D-02
 Coeff:     -0.346D-01 0.639D-02 0.189D+00 0.840D+00
 Gap=     0.298 Goal=   None    Shift=    0.000
 RMSDP=8.70D-08 MaxDP=2.59D-06 DE=-3.44D-09 OVMax= 5.53D-06

 Cycle  11  Pass 1  IDiag  1:
 E= -302.617747755011     Delta-E=       -0.000000000139 Rises=F Damp=F
 DIIS: error= 5.55D-07 at cycle  11 NSaved=  11.
 NSaved=11 IEnMin=11 EnMin= -302.617747755011     IErMin=11 ErrMin= 5.55D-07
 ErrMax= 5.55D-07  0.00D+00 EMaxC= 1.00D-01 BMatC= 3.86D-11 BMatP= 1.23D-10
 IDIUse=1 WtCom= 1.00D+00 WtEn= 0.00D+00
 Coeff-Com: -0.978D-05 0.208D-04 0.988D-04 0.191D-03 0.515D-03-0.256D-03
 Coeff-Com: -0.809D-02-0.102D-01-0.293D-01 0.404D+00 0.643D+00
 Coeff:     -0.978D-05 0.208D-04 0.988D-04 0.191D-03 0.515D-03-0.256D-03
 Coeff:     -0.809D-02-0.102D-01-0.293D-01 0.404D+00 0.643D+00
 Gap=     0.298 Goal=   None    Shift=    0.000
 RMSDP=2.82D-08 MaxDP=1.12D-06 DE=-1.39D-10 OVMax= 2.20D-06

 Cycle  12  Pass 1  IDiag  1:
 E= -302.617747755056     Delta-E=       -0.000000000045 Rises=F Damp=F
 DIIS: error= 1.33D-07 at cycle  12 NSaved=  12.
 NSaved=12 IEnMin=12 EnMin= -302.617747755056     IErMin=12 ErrMin= 1.33D-07
 ErrMax= 1.33D-07  0.00D+00 EMaxC= 1.00D-01 BMatC= 1.88D-12 BMatP= 3.86D-11
 IDIUse=1 WtCom= 1.00D+00 WtEn= 0.00D+00
 Coeff-Com:  0.343D-05-0.698D-05-0.230D-04-0.456D-04-0.473D-04 0.327D-03
 Coeff-Com:  0.254D-02-0.232D-02-0.299D-01-0.253D-01 0.154D+00 0.901D+00
 Coeff:      0.343D-05-0.698D-05-0.230D-04-0.456D-04-0.473D-04 0.327D-03
 Coeff:      0.254D-02-0.232D-02-0.299D-01-0.253D-01 0.154D+00 0.901D+00
 Gap=     0.298 Goal=   None    Shift=    0.000
 RMSDP=1.17D-08 MaxDP=4.04D-07 DE=-4.48D-11 OVMax= 9.35D-07

 Cycle  13  Pass 1  IDiag  1:
 E= -302.617747755057     Delta-E=       -0.000000000002 Rises=F Damp=F
 DIIS: error= 2.32D-08 at cycle  13 NSaved=  13.
 NSaved=13 IEnMin=13 EnMin= -302.617747755057     IErMin=13 ErrMin= 2.32D-08
 ErrMax= 2.32D-08  0.00D+00 EMaxC= 1.00D-01 BMatC= 1.04D-13 BMatP= 1.88D-12
 IDIUse=1 WtCom= 1.00D+00 WtEn= 0.00D+00
 Coeff-Com:  0.114D-05-0.239D-05-0.787D-05-0.156D-04-0.286D-04 0.111D-03
 Coeff-Com:  0.818D-03 0.430D-04-0.535D-02-0.282D-01 0.192D-02 0.150D+00
 Coeff-Com:  0.881D+00
 Coeff:      0.114D-05-0.239D-05-0.787D-05-0.156D-04-0.286D-04 0.111D-03
 Coeff:      0.818D-03 0.430D-04-0.535D-02-0.282D-01 0.192D-02 0.150D+00
 Coeff:      0.881D+00
 Gap=     0.298 Goal=   None    Shift=    0.000
 RMSDP=2.98D-09 MaxDP=9.21D-08 DE=-1.82D-12 OVMax= 1.88D-07

 SCF Done:  E(RM062X) =  -302.617747755     A.U. after   13 cycles
            NFock= 13  Conv=0.30D-08     -V/T= 2.0044
 KE= 3.012893851750D+02 PE=-1.150154361939D+03 EE= 3.247828225529D+02
 Leave Link  502 at Mon Feb 20 21:04:53 2023, MaxMem=  6710886400 cpu:             205.2 elap:              11.6
 (Enter /data0/home/software/g16/l601.exe)
 Copying SCF densities to generalized density rwf, IOpCl= 0 IROHF=0.

 **********************************************************************

            Population analysis using the SCF density.

 **********************************************************************

 Alpha  occ. eigenvalues --  -19.56908 -14.82955 -14.75588 -10.62392 -10.59338
 Alpha  occ. eigenvalues --  -10.57557  -1.13498  -1.08218  -0.99061  -0.85465
 Alpha  occ. eigenvalues --   -0.72313  -0.68720  -0.66004  -0.55676  -0.53089
 Alpha  occ. eigenvalues --   -0.52222  -0.51974  -0.49802  -0.44189  -0.36530
 Alpha  occ. eigenvalues --   -0.35594  -0.34923  -0.30227
 Alpha virt. eigenvalues --   -0.00382   0.01918   0.02111   0.02992   0.04713
 Alpha virt. eigenvalues --    0.04899   0.05232   0.06486   0.07128   0.09170
 Alpha virt. eigenvalues --    0.09850   0.10565   0.11484   0.14167   0.14743
 Alpha virt. eigenvalues --    0.17330   0.18427   0.19254   0.19792   0.20166
 Alpha virt. eigenvalues --    0.21540   0.21649   0.22192   0.23584   0.24303
 Alpha virt. eigenvalues --    0.25211   0.25985   0.27474   0.28022   0.28760
 Alpha virt. eigenvalues --    0.29918   0.32096   0.32515   0.39651   0.41874
 Alpha virt. eigenvalues --    0.42962   0.46258   0.47836   0.53735   0.55290
 Alpha virt. eigenvalues --    0.55848   0.57018   0.57512   0.60538   0.61349
 Alpha virt. eigenvalues --    0.63029   0.64068   0.65814   0.68135   0.69803
 Alpha virt. eigenvalues --    0.73314   0.75554   0.76274   0.77644   0.77828
 Alpha virt. eigenvalues --    0.79375   0.82286   0.83795   0.85766   0.88515
 Alpha virt. eigenvalues --    0.89954   0.91885   0.94184   0.96646   0.98810
 Alpha virt. eigenvalues --    1.00037   1.04213   1.05648   1.10927   1.16224
 Alpha virt. eigenvalues --    1.16541   1.17582   1.25692   1.26115   1.27119
 Alpha virt. eigenvalues --    1.29110   1.32106   1.34889   1.37806   1.39074
 Alpha virt. eigenvalues --    1.40452   1.41809   1.42890   1.43861   1.47048
 Alpha virt. eigenvalues --    1.49154   1.51691   1.54851   1.66713   1.68948
 Alpha virt. eigenvalues --    1.71147   1.71808   1.73602   1.80150   1.80910
 Alpha virt. eigenvalues --    1.83308   1.88399   1.90177   1.98514   2.02285
 Alpha virt. eigenvalues --    2.03884   2.13351   2.14496   2.17319   2.22192
 Alpha virt. eigenvalues --    2.30950   2.39439   2.43636   2.49238   2.53578
 Alpha virt. eigenvalues --    2.58583   2.63673   2.67600   2.69668   2.75713
 Alpha virt. eigenvalues --    2.78392   2.80884   2.84108   2.86318   2.94602
 Alpha virt. eigenvalues --    2.94863   2.97577   3.08335   3.12474   3.15333
 Alpha virt. eigenvalues --    3.22242   3.26173   3.30271   3.33405   3.36924
 Alpha virt. eigenvalues --    3.37157   3.41149   3.41960   3.45866   3.51513
 Alpha virt. eigenvalues --    3.55822   3.57398   3.63703   3.66166   3.68860
 Alpha virt. eigenvalues --    3.71421   3.93112   3.94820   3.98099   3.99760
 Alpha virt. eigenvalues --    4.02099   4.48299   4.60157   4.87460   4.95148
 Alpha virt. eigenvalues --    4.97038   4.99033   5.00134   5.02685   5.09167
 Alpha virt. eigenvalues --    5.15500   5.20582   5.24703   5.34869   5.45320
 Alpha virt. eigenvalues --    5.50994   5.58878   5.60863   6.00638   6.84792
 Alpha virt. eigenvalues --    6.86236   6.93564   6.99951   7.17288  23.89368
 Alpha virt. eigenvalues --   24.07644  24.12414  35.65105  35.68651  50.04851
          Condensed to atoms (all electrons):
               1          2          3          4          5          6
     1  C    5.376560   0.149766  -0.131915   0.433242  -0.048148   0.387052
     2  C    0.149766   5.579274  -0.233248  -0.172737   0.020396  -0.010094
     3  C   -0.131915  -0.233248   5.092772   0.343134  -0.013639   0.010727
     4  N    0.433242  -0.172737   0.343134   6.338051   0.371244  -0.033981
     5  H   -0.048148   0.020396  -0.013639   0.371244   0.398105  -0.002129
     6  H    0.387052  -0.010094   0.010727  -0.033981  -0.002129   0.500320
     7  H   -0.058828   0.442593   0.009251   0.007696  -0.000123  -0.000286
     8  H    0.004885   0.006983   0.434632  -0.047971  -0.000041  -0.000021
     9  N    0.029293   0.210823   0.412288  -0.004085   0.000188   0.006109
    10  O   -0.011295   0.011698  -0.005638   0.001383   0.000057   0.000034
    11  H   -0.003157  -0.001107  -0.000887   0.000294   0.000004  -0.000001
    12  H    0.000445  -0.001736  -0.000140   0.000568  -0.000032  -0.000004
               7          8          9         10         11         12
     1  C   -0.058828   0.004885   0.029293  -0.011295  -0.003157   0.000445
     2  C    0.442593   0.006983   0.210823   0.011698  -0.001107  -0.001736
     3  C    0.009251   0.434632   0.412288  -0.005638  -0.000887  -0.000140
     4  N    0.007696  -0.047971  -0.004085   0.001383   0.000294   0.000568
     5  H   -0.000123  -0.000041   0.000188   0.000057   0.000004  -0.000032
     6  H   -0.000286  -0.000021   0.006109   0.000034  -0.000001  -0.000004
     7  H    0.510272  -0.000133  -0.048801  -0.000436  -0.000053  -0.000247
     8  H   -0.000133   0.485530  -0.041727  -0.000413   0.000110  -0.000141
     9  N   -0.048801  -0.041727   6.893811  -0.012745   0.015543   0.019180
    10  O   -0.000436  -0.000413  -0.012745   7.922311   0.324329   0.341821
    11  H   -0.000053   0.000110   0.015543   0.324329   0.444354  -0.043395
    12  H   -0.000247  -0.000141   0.019180   0.341821  -0.043395   0.325776
 Mulliken charges:
               1
     1  C   -0.127899
     2  C   -0.002610
     3  C    0.082663
     4  N   -0.236837
     5  H    0.274118
     6  H    0.142273
     7  H    0.139098
     8  H    0.158306
     9  N   -0.479877
    10  O   -0.571105
    11  H    0.263967
    12  H    0.357905
 Sum of Mulliken charges =  -0.00000
 Mulliken charges with hydrogens summed into heavy atoms:
               1
     1  C    0.014373
     2  C    0.136488
     3  C    0.240969
     4  N    0.037281
     9  N   -0.479877
    10  O    0.050767
         Mulliken charges condensed to fragments:
      1     -0.050767
      2      0.050767
 Electronic spatial extent (au):  <R**2>=          72974.8953
 Charge=             -0.0000 electrons
 Dipole moment (field-independent basis, Debye):
    X=              5.9370    Y=              1.6476    Z=             -2.4229  Tot=              6.6206
 Quadrupole moment (field-independent basis, Debye-Ang):
   XX=             55.8208   YY=             24.8182   ZZ=            -71.4724
   XY=            117.3658   XZ=             27.5303   YZ=            -33.4231
 Traceless Quadrupole moment (field-independent basis, Debye-Ang):
   XX=             52.7653   YY=             21.7627   ZZ=            -74.5280
   XY=            117.3658   XZ=             27.5303   YZ=            -33.4231
 Octapole moment (field-independent basis, Debye-Ang**2):
  XXX=            210.7314  YYY=           -211.0857  ZZZ=          -1233.1192  XYY=           2012.9283
  XXY=           1090.2706  XXZ=            263.9346  XZZ=           -211.5528  YZZ=          -1203.4539
  YYZ=           -687.4453  XYZ=            544.7687
 Hexadecapole moment (field-independent basis, Debye-Ang**3):
 XXXX=          -3198.5384 YYYY=         -25182.5706 ZZZZ=         -17149.1892 XXXY=           4674.1189
 XXXZ=              2.4095 YYYX=          29671.8127 YYYZ=         -18346.4886 ZZZX=          -7096.3886
 ZZZY=         -21295.2514 XXYY=          18618.9993 XXZZ=          -1741.3718 YYZZ=         -22324.2756
 XXYZ=           5080.0329 YYXZ=           8478.3549 ZZXY=          -3476.5218
 N-N= 2.214644064559D+02 E-N=-1.150154362495D+03  KE= 3.012893851750D+02
 No NMR shielding tensors so no spin-rotation constants.
 Leave Link  601 at Mon Feb 20 21:04:53 2023, MaxMem=  6710886400 cpu:               2.0 elap:               0.1
 (Enter /data0/home/software/g16/l122.exe)
 CPIOFr:  IOpCl= 0 IRwI=-1 IRwCP=  731 ICalc= -1 LCPTot=       61799 Len1MO=      161020 IndFrg=       61799
 CPIOFr:  IOpCl= 0 IRwI=-1 IRwCP=  731 ICalc=  0 LCPTot=       61799 Len1MO=      161020 IndFrg=      222819
 Counterpoise: doing calculation for fragment   1 using the basis set of the full-system, NewBq=T
 Leave Link  122 at Mon Feb 20 21:04:53 2023, MaxMem=  6710886400 cpu:               0.1 elap:               0.0
 (Enter /data0/home/software/g16/l301.exe)
 Basis read from rwf:  (5D, 7F)
 No pseudopotential information found on rwf file.
   198 basis functions,   300 primitive gaussians,   210 cartesian basis functions
    18 alpha electrons       18 beta electrons
       nuclear repulsion energy       161.0616571824 Hartrees.
 IExCor= 4336 DFT=T Ex+Corr=M062X ExCW=0 ScaHFX=  0.540000
 ScaDFX=  1.000000  1.000000  1.000000  1.000000 ScalE2=  1.000000  1.000000
 IRadAn=      5 IRanWt=     -1 IRanGd=            0 ICorTp=0 IEmpDi=131
 NAtoms=   12 NActive=   12 NUniq=   12 SFac= 1.00D+00 NAtFMM=   60 NAOKFM=F Big=F
 Integral buffers will be    131072 words long.
 Raffenetti 2 integral format.
 Two-electron integral symmetry is turned off.
 R6Disp:  Grimme-D3 Dispersion energy=       -0.0000416888 Hartrees.
 Nuclear repulsion after empirical dispersion term =      161.0616154935 Hartrees.
 No density basis found on file   718.
 Leave Link  301 at Mon Feb 20 21:04:53 2023, MaxMem=  6710886400 cpu:               1.3 elap:               0.1
 (Enter /data0/home/software/g16/l302.exe)
 NPDir=0 NMtPBC=     1 NCelOv=     1 NCel=       1 NClECP=     1 NCelD=      1
         NCelK=      1 NCelE2=     1 NClLst=     1 CellRange=     0.0.
 One-electron integrals computed using PRISM.
 NBasis=   198 RedAO= T EigKep=  4.77D-05  NBF=   198
 NBsUse=   198 1.00D-06 EigRej= -1.00D+00 NBFU=   198
 Precomputing XC quadrature grid using
 IXCGrd= 4 IRadAn=           5 IRanWt=          -1 IRanGd=           0 AccXCQ= 0.00D+00.
 Generated NRdTot=       0 NPtTot=           0 NUsed=           0 NTot=          32
 NSgBfM=   210   210   210   210   210 MxSgAt=    12 MxSgA2=    12.
 Leave Link  302 at Mon Feb 20 21:04:53 2023, MaxMem=  6710886400 cpu:               3.3 elap:               0.2
 (Enter /data0/home/software/g16/l303.exe)
 DipDrv:  MaxL=1.
 Leave Link  303 at Mon Feb 20 21:04:53 2023, MaxMem=  6710886400 cpu:               0.5 elap:               0.0
 (Enter /data0/home/software/g16/l401.exe)
 ExpMin= 4.38D-02 ExpMax= 8.59D+03 ExpMxC= 1.30D+03 IAcc=3 IRadAn=         5 AccDes= 0.00D+00
 Harris functional with IExCor= 1009 and IRadAn=       5 diagonalized for initial guess.
 HarFok:  IExCor= 1009 AccDes= 0.00D+00 IRadAn=         5 IDoV= 1 UseB2=F ITyADJ=14
 ICtDFT=  3500011 ScaDFX=  1.000000  1.000000  1.000000  1.000000
 FoFCou: FMM=F IPFlag=           0 FMFlag=      100000 FMFlg1=           0
         NFxFlg=           0 DoJE=T BraDBF=F KetDBF=T FulRan=T
         wScrn=  0.000000 ICntrl=       500 IOpCl=  0 I1Cent=   200000004 NGrid=           0
         NMat0=    1 NMatS0=      1 NMatT0=    0 NMatD0=    1 NMtDS0=    0 NMtDT0=    0
 Symmetry not used in FoFCou.
 Harris En= -226.053703718184    
 JPrj=0 DoOrth=F DoCkMO=F.
 Leave Link  401 at Mon Feb 20 21:04:53 2023, MaxMem=  6710886400 cpu:               9.3 elap:               0.4
 (Enter /data0/home/software/g16/l502.exe)
 Keep R1 ints in memory in canonical form, NReq=218988661.
 FoFCou: FMM=F IPFlag=           0 FMFlag=           0 FMFlg1=           0
         NFxFlg=           0 DoJE=F BraDBF=F KetDBF=F FulRan=T
         wScrn=  0.000000 ICntrl=       600 IOpCl=  0 I1Cent=           0 NGrid=           0
         NMat0=    1 NMatS0=  19701 NMatT0=    0 NMatD0=    1 NMtDS0=    0 NMtDT0=    0
 Symmetry not used in FoFCou.
 Two-electron integral symmetry not used.
 Closed shell SCF:
 Using DIIS extrapolation, IDIIS=  1040.
 NGot=  6710886400 LenX=  6516717039 LenY=  6516672498
 Requested convergence on RMS density matrix=1.00D-08 within 128 cycles.
 Requested convergence on MAX density matrix=1.00D-06.
 Requested convergence on             energy=1.00D-06.
 No special actions if energy rises.

 Cycle   1  Pass 1  IDiag  1:
 E= -226.087965864553    
 DIIS: error= 2.68D-02 at cycle   1 NSaved=   1.
 NSaved= 1 IEnMin= 1 EnMin= -226.087965864553     IErMin= 1 ErrMin= 2.68D-02
 ErrMax= 2.68D-02  0.00D+00 EMaxC= 1.00D-01 BMatC= 1.33D-01 BMatP= 1.33D-01
 IDIUse=3 WtCom= 7.32D-01 WtEn= 2.68D-01
 Coeff-Com:  0.100D+01
 Coeff-En:   0.100D+01
 Coeff:      0.100D+01
 Gap=     0.312 Goal=   None    Shift=    0.000
 GapD=    0.312 DampG=1.000 DampE=0.500 DampFc=0.5000 IDamp=-1.
 Damping current iteration by 5.00D-01
 RMSDP=3.52D-03 MaxDP=1.18D-01              OVMax= 1.72D-01

 Cycle   2  Pass 1  IDiag  1:
 E= -226.135127130304     Delta-E=       -0.047161265752 Rises=F Damp=T
 DIIS: error= 9.01D-03 at cycle   2 NSaved=   2.
 NSaved= 2 IEnMin= 2 EnMin= -226.135127130304     IErMin= 2 ErrMin= 9.01D-03
 ErrMax= 9.01D-03  0.00D+00 EMaxC= 1.00D-01 BMatC= 1.57D-02 BMatP= 1.33D-01
 IDIUse=3 WtCom= 9.10D-01 WtEn= 9.01D-02
 Coeff-Com: -0.999D-01 0.110D+01
 Coeff-En:   0.000D+00 0.100D+01
 Coeff:     -0.909D-01 0.109D+01
 Gap=     0.293 Goal=   None    Shift=    0.000
 RMSDP=1.07D-03 MaxDP=3.82D-02 DE=-4.72D-02 OVMax= 1.14D-01

 Cycle   3  Pass 1  IDiag  1:
 E= -226.179659697591     Delta-E=       -0.044532567287 Rises=F Damp=F
 DIIS: error= 8.10D-03 at cycle   3 NSaved=   3.
 NSaved= 3 IEnMin= 3 EnMin= -226.179659697591     IErMin= 3 ErrMin= 8.10D-03
 ErrMax= 8.10D-03  0.00D+00 EMaxC= 1.00D-01 BMatC= 1.00D-02 BMatP= 1.57D-02
 IDIUse=3 WtCom= 9.19D-01 WtEn= 8.10D-02
 Coeff-Com: -0.152D+00 0.540D+00 0.612D+00
 Coeff-En:   0.000D+00 0.000D+00 0.100D+01
 Coeff:     -0.140D+00 0.496D+00 0.644D+00
 Gap=     0.296 Goal=   None    Shift=    0.000
 RMSDP=4.34D-04 MaxDP=1.42D-02 DE=-4.45D-02 OVMax= 4.41D-02

 Cycle   4  Pass 1  IDiag  1:
 E= -226.187082501896     Delta-E=       -0.007422804305 Rises=F Damp=F
 DIIS: error= 2.69D-03 at cycle   4 NSaved=   4.
 NSaved= 4 IEnMin= 4 EnMin= -226.187082501896     IErMin= 4 ErrMin= 2.69D-03
 ErrMax= 2.69D-03  0.00D+00 EMaxC= 1.00D-01 BMatC= 1.57D-03 BMatP= 1.00D-02
 IDIUse=3 WtCom= 9.73D-01 WtEn= 2.69D-02
 Coeff-Com: -0.623D-01 0.155D+00 0.346D+00 0.560D+00
 Coeff-En:   0.000D+00 0.000D+00 0.107D+00 0.893D+00
 Coeff:     -0.606D-01 0.151D+00 0.340D+00 0.569D+00
 Gap=     0.290 Goal=   None    Shift=    0.000
 RMSDP=1.63D-04 MaxDP=4.38D-03 DE=-7.42D-03 OVMax= 1.18D-02

 Cycle   5  Pass 1  IDiag  1:
 E= -226.188411671012     Delta-E=       -0.001329169116 Rises=F Damp=F
 DIIS: error= 4.99D-04 at cycle   5 NSaved=   5.
 NSaved= 5 IEnMin= 5 EnMin= -226.188411671012     IErMin= 5 ErrMin= 4.99D-04
 ErrMax= 4.99D-04  0.00D+00 EMaxC= 1.00D-01 BMatC= 2.78D-05 BMatP= 1.57D-03
 IDIUse=3 WtCom= 9.95D-01 WtEn= 4.99D-03
 Coeff-Com: -0.146D-01 0.293D-01 0.869D-01 0.201D+00 0.698D+00
 Coeff-En:   0.000D+00 0.000D+00 0.000D+00 0.000D+00 0.100D+01
 Coeff:     -0.145D-01 0.291D-01 0.865D-01 0.200D+00 0.699D+00
 Gap=     0.290 Goal=   None    Shift=    0.000
 RMSDP=2.46D-05 MaxDP=8.18D-04 DE=-1.33D-03 OVMax= 2.25D-03

 Cycle   6  Pass 1  IDiag  1:
 E= -226.188433501983     Delta-E=       -0.000021830971 Rises=F Damp=F
 DIIS: error= 1.83D-04 at cycle   6 NSaved=   6.
 NSaved= 6 IEnMin= 6 EnMin= -226.188433501983     IErMin= 6 ErrMin= 1.83D-04
 ErrMax= 1.83D-04  0.00D+00 EMaxC= 1.00D-01 BMatC= 4.35D-06 BMatP= 2.78D-05
 IDIUse=3 WtCom= 9.98D-01 WtEn= 1.83D-03
 Coeff-Com: -0.381D-02 0.572D-02 0.242D-01 0.656D-01 0.348D+00 0.560D+00
 Coeff-En:   0.000D+00 0.000D+00 0.000D+00 0.000D+00 0.131D-01 0.987D+00
 Coeff:     -0.380D-02 0.571D-02 0.241D-01 0.655D-01 0.348D+00 0.561D+00
 Gap=     0.290 Goal=   None    Shift=    0.000
 RMSDP=1.08D-05 MaxDP=3.54D-04 DE=-2.18D-05 OVMax= 9.30D-04

 Cycle   7  Pass 1  IDiag  1:
 E= -226.188437534232     Delta-E=       -0.000004032249 Rises=F Damp=F
 DIIS: error= 2.44D-05 at cycle   7 NSaved=   7.
 NSaved= 7 IEnMin= 7 EnMin= -226.188437534232     IErMin= 7 ErrMin= 2.44D-05
 ErrMax= 2.44D-05  0.00D+00 EMaxC= 1.00D-01 BMatC= 1.46D-07 BMatP= 4.35D-06
 IDIUse=1 WtCom= 1.00D+00 WtEn= 0.00D+00
 Coeff-Com:  0.176D-02-0.375D-02-0.854D-02-0.216D-01-0.518D-01 0.781D-01
 Coeff-Com:  0.101D+01
 Coeff:      0.176D-02-0.375D-02-0.854D-02-0.216D-01-0.518D-01 0.781D-01
 Coeff:      0.101D+01
 Gap=     0.290 Goal=   None    Shift=    0.000
 RMSDP=5.47D-06 MaxDP=1.44D-04 DE=-4.03D-06 OVMax= 2.27D-04

 Cycle   8  Pass 1  IDiag  1:
 E= -226.188437743094     Delta-E=       -0.000000208861 Rises=F Damp=F
 DIIS: error= 9.72D-06 at cycle   8 NSaved=   8.
 NSaved= 8 IEnMin= 8 EnMin= -226.188437743094     IErMin= 8 ErrMin= 9.72D-06
 ErrMax= 9.72D-06  0.00D+00 EMaxC= 1.00D-01 BMatC= 1.35D-08 BMatP= 1.46D-07
 IDIUse=1 WtCom= 1.00D+00 WtEn= 0.00D+00
 Coeff-Com:  0.715D-03-0.146D-02-0.333D-02-0.930D-02-0.261D-01 0.128D-01
 Coeff-Com:  0.357D+00 0.669D+00
 Coeff:      0.715D-03-0.146D-02-0.333D-02-0.930D-02-0.261D-01 0.128D-01
 Coeff:      0.357D+00 0.669D+00
 Gap=     0.290 Goal=   None    Shift=    0.000
 RMSDP=7.32D-07 MaxDP=2.33D-05 DE=-2.09D-07 OVMax= 5.48D-05

 Cycle   9  Pass 1  IDiag  1:
 E= -226.188437755713     Delta-E=       -0.000000012619 Rises=F Damp=F
 DIIS: error= 4.47D-06 at cycle   9 NSaved=   9.
 NSaved= 9 IEnMin= 9 EnMin= -226.188437755713     IErMin= 9 ErrMin= 4.47D-06
 ErrMax= 4.47D-06  0.00D+00 EMaxC= 1.00D-01 BMatC= 2.83D-09 BMatP= 1.35D-08
 IDIUse=1 WtCom= 1.00D+00 WtEn= 0.00D+00
 Coeff-Com: -0.101D-03 0.226D-03 0.689D-03 0.984D-03 0.944D-03-0.129D-01
 Coeff-Com: -0.852D-01 0.288D+00 0.807D+00
 Coeff:     -0.101D-03 0.226D-03 0.689D-03 0.984D-03 0.944D-03-0.129D-01
 Coeff:     -0.852D-01 0.288D+00 0.807D+00
 Gap=     0.290 Goal=   None    Shift=    0.000
 RMSDP=3.95D-07 MaxDP=1.39D-05 DE=-1.26D-08 OVMax= 2.08D-05

 Cycle  10  Pass 1  IDiag  1:
 E= -226.188437758605     Delta-E=       -0.000000002892 Rises=F Damp=F
 DIIS: error= 4.60D-07 at cycle  10 NSaved=  10.
 NSaved=10 IEnMin=10 EnMin= -226.188437758605     IErMin=10 ErrMin= 4.60D-07
 ErrMax= 4.60D-07  0.00D+00 EMaxC= 1.00D-01 BMatC= 6.15D-11 BMatP= 2.83D-09
 IDIUse=1 WtCom= 1.00D+00 WtEn= 0.00D+00
 Coeff-Com: -0.450D-04 0.973D-04 0.279D-03 0.530D-03 0.127D-02-0.182D-02
 Coeff-Com: -0.297D-01 0.170D-01 0.104D+00 0.908D+00
 Coeff:     -0.450D-04 0.973D-04 0.279D-03 0.530D-03 0.127D-02-0.182D-02
 Coeff:     -0.297D-01 0.170D-01 0.104D+00 0.908D+00
 Gap=     0.290 Goal=   None    Shift=    0.000
 RMSDP=6.37D-08 MaxDP=2.04D-06 DE=-2.89D-09 OVMax= 4.34D-06

 Cycle  11  Pass 1  IDiag  1:
 E= -226.188437758666     Delta-E=       -0.000000000061 Rises=F Damp=F
 DIIS: error= 4.15D-07 at cycle  11 NSaved=  11.
 NSaved=11 IEnMin=11 EnMin= -226.188437758666     IErMin=11 ErrMin= 4.15D-07
 ErrMax= 4.15D-07  0.00D+00 EMaxC= 1.00D-01 BMatC= 1.51D-11 BMatP= 6.15D-11
 IDIUse=1 WtCom= 1.00D+00 WtEn= 0.00D+00
 Coeff-Com: -0.662D-05 0.139D-04 0.492D-04 0.964D-04 0.340D-03 0.432D-03
 Coeff-Com: -0.461D-02-0.154D-01-0.297D-01 0.392D+00 0.657D+00
 Coeff:     -0.662D-05 0.139D-04 0.492D-04 0.964D-04 0.340D-03 0.432D-03
 Coeff:     -0.461D-02-0.154D-01-0.297D-01 0.392D+00 0.657D+00
 Gap=     0.290 Goal=   None    Shift=    0.000
 RMSDP=2.01D-08 MaxDP=6.76D-07 DE=-6.07D-11 OVMax= 1.84D-06

 Cycle  12  Pass 1  IDiag  1:
 E= -226.188437758681     Delta-E=       -0.000000000015 Rises=F Damp=F
 DIIS: error= 1.07D-07 at cycle  12 NSaved=  12.
 NSaved=12 IEnMin=12 EnMin= -226.188437758681     IErMin=12 ErrMin= 1.07D-07
 ErrMax= 1.07D-07  0.00D+00 EMaxC= 1.00D-01 BMatC= 1.63D-12 BMatP= 1.51D-11
 IDIUse=1 WtCom= 1.00D+00 WtEn= 0.00D+00
 Coeff-Com:  0.342D-05-0.739D-05-0.150D-04-0.303D-04-0.218D-04 0.430D-03
 Coeff-Com:  0.206D-02-0.634D-02-0.261D-01-0.126D-02 0.252D+00 0.779D+00
 Coeff:      0.342D-05-0.739D-05-0.150D-04-0.303D-04-0.218D-04 0.430D-03
 Coeff:      0.206D-02-0.634D-02-0.261D-01-0.126D-02 0.252D+00 0.779D+00
 Gap=     0.290 Goal=   None    Shift=    0.000
 RMSDP=6.35D-09 MaxDP=2.08D-07 DE=-1.48D-11 OVMax= 3.94D-07

 SCF Done:  E(RM062X) =  -226.188437759     A.U. after   12 cycles
            NFock= 12  Conv=0.64D-08     -V/T= 2.0051
 KE= 2.250370564524D+02 PE=-8.485889820950D+02 EE= 2.363018723903D+02
 Leave Link  502 at Mon Feb 20 21:05:04 2023, MaxMem=  6710886400 cpu:             191.4 elap:              10.8
 (Enter /data0/home/software/g16/l601.exe)
 Copying SCF densities to generalized density rwf, IOpCl= 0 IROHF=0.

 **********************************************************************

            Population analysis using the SCF density.

 **********************************************************************

 Alpha  occ. eigenvalues --  -14.81277 -14.73514 -10.60480 -10.57744 -10.55834
 Alpha  occ. eigenvalues --   -1.11689  -0.97078  -0.83760  -0.70491  -0.66946
 Alpha  occ. eigenvalues --   -0.64339  -0.51432  -0.50554  -0.50222  -0.48030
 Alpha  occ. eigenvalues --   -0.34462  -0.34155  -0.28569
 Alpha virt. eigenvalues --    0.00477   0.02599   0.03512   0.03708   0.05303
 Alpha virt. eigenvalues --    0.05990   0.06154   0.07766   0.08026   0.10188
 Alpha virt. eigenvalues --    0.10207   0.11619   0.12047   0.14439   0.15256
 Alpha virt. eigenvalues --    0.16330   0.18435   0.19646   0.20271   0.20928
 Alpha virt. eigenvalues --    0.22124   0.22722   0.24354   0.24886   0.25825
 Alpha virt. eigenvalues --    0.25973   0.26786   0.27713   0.29381   0.30512
 Alpha virt. eigenvalues --    0.32037   0.33910   0.36818   0.40152   0.43114
 Alpha virt. eigenvalues --    0.44659   0.48306   0.49341   0.55329   0.57031
 Alpha virt. eigenvalues --    0.57196   0.58592   0.61197   0.62319   0.63448
 Alpha virt. eigenvalues --    0.65124   0.67073   0.69504   0.70405   0.73582
 Alpha virt. eigenvalues --    0.75386   0.77306   0.78516   0.78715   0.79184
 Alpha virt. eigenvalues --    0.79811   0.81745   0.82637   0.85838   0.85943
 Alpha virt. eigenvalues --    0.90575   0.91306   0.92515   0.93823   0.98387
 Alpha virt. eigenvalues --    1.00662   1.01217   1.02127   1.04341   1.09398
 Alpha virt. eigenvalues --    1.11493   1.18122   1.23022   1.27387   1.28881
 Alpha virt. eigenvalues --    1.33181   1.36546   1.38129   1.39318   1.41165
 Alpha virt. eigenvalues --    1.42438   1.45119   1.47051   1.48256   1.52565
 Alpha virt. eigenvalues --    1.68746   1.69382   1.73098   1.73423   1.78149
 Alpha virt. eigenvalues --    1.80463   1.82928   1.89362   1.89861   1.97654
 Alpha virt. eigenvalues --    2.01618   2.03922   2.06645   2.14765   2.17916
 Alpha virt. eigenvalues --    2.23198   2.30936   2.34873   2.41537   2.45237
 Alpha virt. eigenvalues --    2.46122   2.48543   2.50886   2.56006   2.63884
 Alpha virt. eigenvalues --    2.64460   2.64850   2.69898   2.71843   2.76845
 Alpha virt. eigenvalues --    2.79722   2.82383   2.85446   2.87042   2.88126
 Alpha virt. eigenvalues --    2.96367   2.96919   3.07415   3.13583   3.16820
 Alpha virt. eigenvalues --    3.24542   3.27717   3.32104   3.35111   3.38784
 Alpha virt. eigenvalues --    3.38819   3.41596   3.43087   3.44012   3.47356
 Alpha virt. eigenvalues --    3.53529   3.57469   3.59307   3.64911   3.66330
 Alpha virt. eigenvalues --    3.69089   3.72465   3.73709   3.94759   3.96477
 Alpha virt. eigenvalues --    3.99731   4.01623   4.05032   4.49876   4.58342
 Alpha virt. eigenvalues --    4.63285   4.89239   4.96922   4.98732   5.00388
 Alpha virt. eigenvalues --    5.02455   5.04588   5.06227   5.15807   5.24098
 Alpha virt. eigenvalues --    5.26536   5.36797   5.51497   5.55552   5.60926
 Alpha virt. eigenvalues --    9.62192   9.66165   9.71405   9.82178   9.98222
 Alpha virt. eigenvalues --   12.54861  12.98256  13.39470  17.22889  23.91075
 Alpha virt. eigenvalues --   24.09516  24.14079  35.66886  35.70641 129.71258
          Condensed to atoms (all electrons):
               1          2          3          4          5          6
     1  C    5.231287   0.391411  -0.225817   0.471471  -0.048075   0.384402
     2  C    0.391411   5.132116  -0.024891  -0.232371   0.022812  -0.005769
     3  C   -0.225817  -0.024891   5.031002   0.326918  -0.014735   0.010281
     4  N    0.471471  -0.232371   0.326918   6.365767   0.369251  -0.034033
     5  H   -0.048075   0.022812  -0.014735   0.369251   0.404863  -0.002062
     6  H    0.384402  -0.005769   0.010281  -0.034033  -0.002062   0.505371
     7  H   -0.058490   0.429604   0.017728   0.006496  -0.000053  -0.000002
     8  H    0.001771   0.015996   0.432081  -0.054152   0.000206  -0.000032
     9  N    0.009934   0.277368   0.395738   0.018768   0.000489   0.004910
    10  O    0.000752  -0.001228  -0.001617   0.000243  -0.000022   0.000004
    11  H   -0.000174   0.000339   0.000750  -0.000063   0.000002  -0.000001
    12  H   -0.000981   0.002616   0.001459  -0.000436   0.000006   0.000008
               7          8          9         10         11         12
     1  C   -0.058490   0.001771   0.009934   0.000752  -0.000174  -0.000981
     2  C    0.429604   0.015996   0.277368  -0.001228   0.000339   0.002616
     3  C    0.017728   0.432081   0.395738  -0.001617   0.000750   0.001459
     4  N    0.006496  -0.054152   0.018768   0.000243  -0.000063  -0.000436
     5  H   -0.000053   0.000206   0.000489  -0.000022   0.000002   0.000006
     6  H   -0.000002  -0.000032   0.004910   0.000004  -0.000001   0.000008
     7  H    0.525881  -0.000019  -0.047545   0.000018   0.000053   0.000063
     8  H   -0.000019   0.500811  -0.041889  -0.000162   0.000066   0.000059
     9  N   -0.047545  -0.041889   6.713536   0.010208  -0.002119  -0.013413
    10  O    0.000018  -0.000162   0.010208   0.001088  -0.000130  -0.000824
    11  H    0.000053   0.000066  -0.002119  -0.000130   0.000200   0.000027
    12  H    0.000063   0.000059  -0.013413  -0.000824   0.000027   0.001668
 Mulliken charges:
               1
     1  C   -0.157491
     2  C   -0.008004
     3  C    0.051102
     4  N   -0.237860
     5  H    0.267320
     6  H    0.136923
     7  H    0.126265
     8  H    0.145262
     9  N   -0.325985
    10  O   -0.008329
    11  H    0.001048
    12  H    0.009748
 Sum of Mulliken charges =  -0.00000
 Mulliken charges with hydrogens summed into heavy atoms:
               1
     1  C   -0.020568
     2  C    0.118262
     3  C    0.196364
     4  N    0.029460
     9  N   -0.325985
    10  O    0.002468
         Mulliken charges condensed to fragments:
      1     -0.002468
      2      0.002468
 Electronic spatial extent (au):  <R**2>=          58017.9308
 Charge=             -0.0000 electrons
 Dipole moment (field-independent basis, Debye):
    X=              2.9828    Y=              1.2931    Z=             -1.7724  Tot=              3.7028
 Quadrupole moment (field-independent basis, Debye-Ang):
   XX=             25.1266   YY=             18.8039   ZZ=            -55.1756
   XY=             63.4401   XZ=              6.1404   YZ=            -26.4301
 Traceless Quadrupole moment (field-independent basis, Debye-Ang):
   XX=             28.8750   YY=             22.5522   ZZ=            -51.4272
   XY=             63.4401   XZ=              6.1404   YZ=            -26.4301
 Octapole moment (field-independent basis, Debye-Ang**2):
  XXX=            -46.3551  YYY=           -202.0431  ZZZ=           -947.4893  XYY=           1064.1719
  XXY=            539.0680  XXZ=             32.4837  XZZ=           -336.1270  YZZ=           -969.6156
  YYZ=           -583.3426  XYZ=            143.9559
 Hexadecapole moment (field-independent basis, Debye-Ang**3):
 XXXX=          -5352.3732 YYYY=         -21093.9179 ZZZZ=         -12891.7766 XXXY=             87.5025
 XXXZ=          -1900.2969 YYYX=          13568.0858 YYYZ=         -15827.6074 ZZZX=          -7383.9796
 ZZZY=         -16872.9947 XXYY=           8901.3136 XXZZ=          -3343.5597 YYZZ=         -18594.6792
 XXYZ=            870.9262 YYXZ=           1314.1707 ZZXY=          -5961.2470
 N-N= 1.610616154935D+02 E-N=-8.485889856018D+02  KE= 2.250370564524D+02
 No NMR shielding tensors so no spin-rotation constants.
 Leave Link  601 at Mon Feb 20 21:05:04 2023, MaxMem=  6710886400 cpu:               1.9 elap:               0.1
 (Enter /data0/home/software/g16/l122.exe)
 CPIOFr:  IOpCl= 0 IRwI=-1 IRwCP=  731 ICalc=  1 LCPTot=       61799 Len1MO=      161020 IndFrg=      383839
 Counterpoise: doing calculation for fragment   2 using the basis set of the full-system, NewBq=T
 Leave Link  122 at Mon Feb 20 21:05:04 2023, MaxMem=  6710886400 cpu:               0.1 elap:               0.0
 (Enter /data0/home/software/g16/l301.exe)
 Basis read from rwf:  (5D, 7F)
 No pseudopotential information found on rwf file.
   198 basis functions,   300 primitive gaussians,   210 cartesian basis functions
     5 alpha electrons        5 beta electrons
       nuclear repulsion energy         9.1252552665 Hartrees.
 IExCor= 4336 DFT=T Ex+Corr=M062X ExCW=0 ScaHFX=  0.540000
 ScaDFX=  1.000000  1.000000  1.000000  1.000000 ScalE2=  1.000000  1.000000
 IRadAn=      5 IRanWt=     -1 IRanGd=            0 ICorTp=0 IEmpDi=131
 NAtoms=   12 NActive=   12 NUniq=   12 SFac= 1.00D+00 NAtFMM=   60 NAOKFM=F Big=F
 Integral buffers will be    131072 words long.
 Raffenetti 2 integral format.
 Two-electron integral symmetry is turned off.
 R6Disp:  Grimme-D3 Dispersion energy=       -0.0000000070 Hartrees.
 Nuclear repulsion after empirical dispersion term =        9.1252552595 Hartrees.
 No density basis found on file   718.
 Leave Link  301 at Mon Feb 20 21:05:04 2023, MaxMem=  6710886400 cpu:               1.3 elap:               0.1
 (Enter /data0/home/software/g16/l302.exe)
 NPDir=0 NMtPBC=     1 NCelOv=     1 NCel=       1 NClECP=     1 NCelD=      1
         NCelK=      1 NCelE2=     1 NClLst=     1 CellRange=     0.0.
 One-electron integrals computed using PRISM.
 NBasis=   198 RedAO= T EigKep=  4.77D-05  NBF=   198
 NBsUse=   198 1.00D-06 EigRej= -1.00D+00 NBFU=   198
 Precomputing XC quadrature grid using
 IXCGrd= 4 IRadAn=           5 IRanWt=          -1 IRanGd=           0 AccXCQ= 0.00D+00.
 Generated NRdTot=       0 NPtTot=           0 NUsed=           0 NTot=          32
 NSgBfM=   210   210   210   210   210 MxSgAt=    12 MxSgA2=    12.
 Leave Link  302 at Mon Feb 20 21:05:05 2023, MaxMem=  6710886400 cpu:               3.3 elap:               0.2
 (Enter /data0/home/software/g16/l303.exe)
 DipDrv:  MaxL=1.
 Leave Link  303 at Mon Feb 20 21:05:05 2023, MaxMem=  6710886400 cpu:               0.5 elap:               0.0
 (Enter /data0/home/software/g16/l401.exe)
 ExpMin= 4.38D-02 ExpMax= 8.59D+03 ExpMxC= 1.30D+03 IAcc=3 IRadAn=         5 AccDes= 0.00D+00
 Harris functional with IExCor= 1009 and IRadAn=       5 diagonalized for initial guess.
 HarFok:  IExCor= 1009 AccDes= 0.00D+00 IRadAn=         5 IDoV= 1 UseB2=F ITyADJ=14
 ICtDFT=  3500011 ScaDFX=  1.000000  1.000000  1.000000  1.000000
 FoFCou: FMM=F IPFlag=           0 FMFlag=      100000 FMFlg1=           0
         NFxFlg=           0 DoJE=T BraDBF=F KetDBF=T FulRan=T
         wScrn=  0.000000 ICntrl=       500 IOpCl=  0 I1Cent=   200000004 NGrid=           0
         NMat0=    1 NMatS0=      1 NMatT0=    0 NMatD0=    1 NMtDS0=    0 NMtDT0=    0
 Symmetry not used in FoFCou.
 Harris En= -76.4168692110967    
 JPrj=0 DoOrth=F DoCkMO=F.
 Leave Link  401 at Mon Feb 20 21:05:05 2023, MaxMem=  6710886400 cpu:               9.1 elap:               0.4
 (Enter /data0/home/software/g16/l502.exe)
 Keep R1 ints in memory in canonical form, NReq=218988661.
 FoFCou: FMM=F IPFlag=           0 FMFlag=           0 FMFlg1=           0
         NFxFlg=           0 DoJE=F BraDBF=F KetDBF=F FulRan=T
         wScrn=  0.000000 ICntrl=       600 IOpCl=  0 I1Cent=           0 NGrid=           0
         NMat0=    1 NMatS0=  19701 NMatT0=    0 NMatD0=    1 NMtDS0=    0 NMtDT0=    0
 Symmetry not used in FoFCou.
 Two-electron integral symmetry not used.
 Closed shell SCF:
 Using DIIS extrapolation, IDIIS=  1040.
 NGot=  6710886400 LenX=  6516717039 LenY=  6516672498
 Requested convergence on RMS density matrix=1.00D-08 within 128 cycles.
 Requested convergence on MAX density matrix=1.00D-06.
 Requested convergence on             energy=1.00D-06.
 No special actions if energy rises.

 Cycle   1  Pass 1  IDiag  1:
 E= -76.3472333426060    
 DIIS: error= 4.24D-02 at cycle   1 NSaved=   1.
 NSaved= 1 IEnMin= 1 EnMin= -76.3472333426060     IErMin= 1 ErrMin= 4.24D-02
 ErrMax= 4.24D-02  0.00D+00 EMaxC= 1.00D-01 BMatC= 1.20D-01 BMatP= 1.20D-01
 IDIUse=3 WtCom= 5.76D-01 WtEn= 4.24D-01
 Coeff-Com:  0.100D+01
 Coeff-En:   0.100D+01
 Coeff:      0.100D+01
 Gap=     0.266 Goal=   None    Shift=    0.000
 GapD=    0.266 DampG=1.000 DampE=0.500 DampFc=0.5000 IDamp=-1.
 Damping current iteration by 5.00D-01
 RMSDP=4.39D-03 MaxDP=3.06D-01              OVMax= 1.72D-01

 Cycle   2  Pass 1  IDiag  1:
 E= -76.3781791554375     Delta-E=       -0.030945812831 Rises=F Damp=T
 DIIS: error= 6.63D-03 at cycle   2 NSaved=   2.
 NSaved= 2 IEnMin= 2 EnMin= -76.3781791554375     IErMin= 2 ErrMin= 6.63D-03
 ErrMax= 6.63D-03  0.00D+00 EMaxC= 1.00D-01 BMatC= 4.96D-03 BMatP= 1.20D-01
 IDIUse=3 WtCom= 9.34D-01 WtEn= 6.63D-02
 Coeff-Com:  0.868D-01 0.913D+00
 Coeff-En:   0.197D+00 0.803D+00
 Coeff:      0.941D-01 0.906D+00
 Gap=     0.392 Goal=   None    Shift=    0.000
 RMSDP=8.28D-04 MaxDP=7.38D-02 DE=-3.09D-02 OVMax= 1.04D-01

 Cycle   3  Pass 1  IDiag  1:
 E= -76.4224769720362     Delta-E=       -0.044297816599 Rises=F Damp=F
 DIIS: error= 1.39D-03 at cycle   3 NSaved=   3.
 NSaved= 3 IEnMin= 3 EnMin= -76.4224769720362     IErMin= 3 ErrMin= 1.39D-03
 ErrMax= 1.39D-03  0.00D+00 EMaxC= 1.00D-01 BMatC= 1.39D-04 BMatP= 4.96D-03
 IDIUse=3 WtCom= 9.86D-01 WtEn= 1.39D-02
 Coeff-Com: -0.268D-01 0.468D-01 0.980D+00
 Coeff-En:   0.000D+00 0.000D+00 0.100D+01
 Coeff:     -0.265D-01 0.461D-01 0.980D+00
 Gap=     0.395 Goal=   None    Shift=    0.000
 RMSDP=5.18D-05 MaxDP=2.31D-03 DE=-4.43D-02 OVMax= 3.83D-03

 Cycle   4  Pass 1  IDiag  1:
 E= -76.4225890192711     Delta-E=       -0.000112047235 Rises=F Damp=F
 DIIS: error= 2.25D-04 at cycle   4 NSaved=   4.
 NSaved= 4 IEnMin= 4 EnMin= -76.4225890192711     IErMin= 4 ErrMin= 2.25D-04
 ErrMax= 2.25D-04  0.00D+00 EMaxC= 1.00D-01 BMatC= 2.55D-06 BMatP= 1.39D-04
 IDIUse=3 WtCom= 9.98D-01 WtEn= 2.25D-03
 Coeff-Com: -0.215D-02-0.893D-03 0.129D+00 0.874D+00
 Coeff-En:   0.000D+00 0.000D+00 0.000D+00 0.100D+01
 Coeff:     -0.215D-02-0.891D-03 0.129D+00 0.875D+00
 Gap=     0.395 Goal=   None    Shift=    0.000
 RMSDP=1.57D-05 MaxDP=1.01D-03 DE=-1.12D-04 OVMax= 5.33D-04

 Cycle   5  Pass 1  IDiag  1:
 E= -76.4225907105184     Delta-E=       -0.000001691247 Rises=F Damp=F
 DIIS: error= 4.65D-05 at cycle   5 NSaved=   5.
 NSaved= 5 IEnMin= 5 EnMin= -76.4225907105184     IErMin= 5 ErrMin= 4.65D-05
 ErrMax= 4.65D-05  0.00D+00 EMaxC= 1.00D-01 BMatC= 6.98D-08 BMatP= 2.55D-06
 IDIUse=1 WtCom= 1.00D+00 WtEn= 0.00D+00
 Coeff-Com:  0.140D-02-0.219D-02-0.366D-01-0.259D-01 0.106D+01
 Coeff:      0.140D-02-0.219D-02-0.366D-01-0.259D-01 0.106D+01
 Gap=     0.396 Goal=   None    Shift=    0.000
 RMSDP=1.06D-05 MaxDP=7.03D-04 DE=-1.69D-06 OVMax= 2.02D-04

 Cycle   6  Pass 1  IDiag  1:
 E= -76.4225908352562     Delta-E=       -0.000000124738 Rises=F Damp=F
 DIIS: error= 3.30D-06 at cycle   6 NSaved=   6.
 NSaved= 6 IEnMin= 6 EnMin= -76.4225908352562     IErMin= 6 ErrMin= 3.30D-06
 ErrMax= 3.30D-06  0.00D+00 EMaxC= 1.00D-01 BMatC= 1.84D-09 BMatP= 6.98D-08
 IDIUse=1 WtCom= 1.00D+00 WtEn= 0.00D+00
 Coeff-Com: -0.269D-03 0.384D-03 0.356D-02-0.121D-01-0.144D+00 0.115D+01
 Coeff:     -0.269D-03 0.384D-03 0.356D-02-0.121D-01-0.144D+00 0.115D+01
 Gap=     0.396 Goal=   None    Shift=    0.000
 RMSDP=1.27D-06 MaxDP=8.19D-05 DE=-1.25D-07 OVMax= 3.84D-05

 Cycle   7  Pass 1  IDiag  1:
 E= -76.4225908388246     Delta-E=       -0.000000003568 Rises=F Damp=F
 DIIS: error= 6.91D-07 at cycle   7 NSaved=   7.
 NSaved= 7 IEnMin= 7 EnMin= -76.4225908388246     IErMin= 7 ErrMin= 6.91D-07
 ErrMax= 6.91D-07  0.00D+00 EMaxC= 1.00D-01 BMatC= 2.14D-11 BMatP= 1.84D-09
 IDIUse=1 WtCom= 1.00D+00 WtEn= 0.00D+00
 Coeff-Com:  0.292D-04-0.230D-04-0.305D-03 0.250D-02 0.674D-03-0.141D+00
 Coeff-Com:  0.114D+01
 Coeff:      0.292D-04-0.230D-04-0.305D-03 0.250D-02 0.674D-03-0.141D+00
 Coeff:      0.114D+01
 Gap=     0.396 Goal=   None    Shift=    0.000
 RMSDP=1.65D-07 MaxDP=1.06D-05 DE=-3.57D-09 OVMax= 4.98D-06

 Cycle   8  Pass 1  IDiag  1:
 E= -76.4225908388745     Delta-E=       -0.000000000050 Rises=F Damp=F
 DIIS: error= 9.11D-08 at cycle   8 NSaved=   8.
 NSaved= 8 IEnMin= 8 EnMin= -76.4225908388745     IErMin= 8 ErrMin= 9.11D-08
 ErrMax= 9.11D-08  0.00D+00 EMaxC= 1.00D-01 BMatC= 5.92D-13 BMatP= 2.14D-11
 IDIUse=1 WtCom= 1.00D+00 WtEn= 0.00D+00
 Coeff-Com:  0.580D-05-0.875D-05-0.425D-04 0.389D-03 0.231D-02-0.244D-01
 Coeff-Com:  0.348D-01 0.987D+00
 Coeff:      0.580D-05-0.875D-05-0.425D-04 0.389D-03 0.231D-02-0.244D-01
 Coeff:      0.348D-01 0.987D+00
 Gap=     0.396 Goal=   None    Shift=    0.000
 RMSDP=7.61D-09 MaxDP=2.69D-07 DE=-4.99D-11 OVMax= 4.88D-07

 SCF Done:  E(RM062X) =  -76.4225908389     A.U. after    8 cycles
            NFock=  8  Conv=0.76D-08     -V/T= 2.0029
 KE= 7.619936274619D+01 PE=-1.990936624322D+02 EE= 3.734645358761D+01
 Leave Link  502 at Mon Feb 20 21:05:13 2023, MaxMem=  6710886400 cpu:             137.7 elap:               7.6
 (Enter /data0/home/software/g16/l601.exe)
 Copying SCF densities to generalized density rwf, IOpCl= 0 IROHF=0.

 **********************************************************************

            Population analysis using the SCF density.

 **********************************************************************

 Alpha  occ. eigenvalues --  -19.62723  -1.13561  -0.60551  -0.47912  -0.40094
 Alpha virt. eigenvalues --   -0.00542   0.04068   0.04178   0.05123   0.08013
 Alpha virt. eigenvalues --    0.08737   0.09969   0.10606   0.10894   0.12908
 Alpha virt. eigenvalues --    0.13148   0.14924   0.15609   0.16584   0.17082
 Alpha virt. eigenvalues --    0.18427   0.19261   0.20689   0.21491   0.21967
 Alpha virt. eigenvalues --    0.22948   0.25253   0.25874   0.27716   0.28761
 Alpha virt. eigenvalues --    0.30464   0.32768   0.34783   0.38262   0.41441
 Alpha virt. eigenvalues --    0.42272   0.42779   0.44466   0.45301   0.49076
 Alpha virt. eigenvalues --    0.50617   0.52076   0.53408   0.55899   0.59386
 Alpha virt. eigenvalues --    0.60150   0.62085   0.65819   0.67179   0.68454
 Alpha virt. eigenvalues --    0.73100   0.74925   0.78969   0.81304   0.86565
 Alpha virt. eigenvalues --    0.89436   0.95555   0.96982   0.98652   1.02610
 Alpha virt. eigenvalues --    1.05104   1.07004   1.11901   1.13394   1.18664
 Alpha virt. eigenvalues --    1.18983   1.21297   1.22350   1.24963   1.27430
 Alpha virt. eigenvalues --    1.31517   1.35261   1.37312   1.38674   1.38743
 Alpha virt. eigenvalues --    1.41841   1.42326   1.43585   1.44512   1.48612
 Alpha virt. eigenvalues --    1.50143   1.52623   1.54188   1.54593   1.64696
 Alpha virt. eigenvalues --    1.66673   1.69688   1.73187   1.74083   1.75547
 Alpha virt. eigenvalues --    1.78285   1.80273   1.82056   1.92142   1.95609
 Alpha virt. eigenvalues --    1.96361   2.00252   2.03308   2.04150   2.06316
 Alpha virt. eigenvalues --    2.08916   2.10169   2.12046   2.14498   2.18784
 Alpha virt. eigenvalues --    2.22496   2.26801   2.28265   2.30285   2.35070
 Alpha virt. eigenvalues --    2.37236   2.38055   2.47410   2.49400   2.52207
 Alpha virt. eigenvalues --    2.52707   2.60286   2.63628   2.65056   2.75310
 Alpha virt. eigenvalues --    2.75938   2.80526   2.85364   2.89092   2.94374
 Alpha virt. eigenvalues --    2.98094   3.00179   3.07632   3.10033   3.15038
 Alpha virt. eigenvalues --    3.41032   3.54374   3.57725   3.65456   3.79783
 Alpha virt. eigenvalues --    4.29799   4.64322   4.72566   4.82456   4.88910
 Alpha virt. eigenvalues --    4.91970   4.92616   4.95990   5.01203   5.08811
 Alpha virt. eigenvalues --    5.10966   5.17693   5.22007   5.26373   5.37846
 Alpha virt. eigenvalues --    5.42032   5.50289   5.54818   5.66403   5.87371
 Alpha virt. eigenvalues --    5.93971   6.04090   6.79627   6.80573   6.87962
 Alpha virt. eigenvalues --    6.92671   6.97888   6.98506   7.04575   7.06863
 Alpha virt. eigenvalues --    7.10766   7.16674   7.18307   7.33776   7.43086
 Alpha virt. eigenvalues --    7.44404   7.49393   7.55963   7.65624   7.70536
 Alpha virt. eigenvalues --    7.83190   7.99742   8.07515   8.11228   8.22867
 Alpha virt. eigenvalues --    8.29603   9.51548   9.59161   9.63550  10.08232
 Alpha virt. eigenvalues --   10.12506  10.41885  10.94315  11.37263  11.43170
 Alpha virt. eigenvalues --   13.20415  13.92521  49.99019  69.05356  69.23310
 Alpha virt. eigenvalues --   69.96683  98.37089 101.64915
          Condensed to atoms (all electrons):
               1          2          3          4          5          6
     1  C    0.158872  -0.207719   0.033856  -0.015726  -0.002103  -0.000735
     2  C   -0.207719   0.374407  -0.133450   0.022955   0.000758   0.000088
     3  C    0.033856  -0.133450   0.125414  -0.009964   0.004118   0.000764
     4  N   -0.015726   0.022955  -0.009964   0.008981  -0.001917  -0.000155
     5  H   -0.002103   0.000758   0.004118  -0.001917   0.001097   0.000081
     6  H   -0.000735   0.000088   0.000764  -0.000155   0.000081   0.000086
     7  H   -0.004464   0.011783  -0.004284   0.000340  -0.000023  -0.000043
     8  H    0.000894  -0.004784   0.006930  -0.000400   0.000283   0.000010
     9  N    0.027499  -0.057590  -0.027841  -0.001965  -0.002242  -0.000086
    10  O   -0.004753   0.001905  -0.008121   0.002036   0.000029   0.000007
    11  H   -0.003037  -0.000454  -0.001659   0.000366   0.000002   0.000001
    12  H   -0.000386  -0.002385  -0.001318   0.000804  -0.000022  -0.000004
               7          8          9         10         11         12
     1  C   -0.004464   0.000894   0.027499  -0.004753  -0.003037  -0.000386
     2  C    0.011783  -0.004784  -0.057590   0.001905  -0.000454  -0.002385
     3  C   -0.004284   0.006930  -0.027841  -0.008121  -0.001659  -0.001318
     4  N    0.000340  -0.000400  -0.001965   0.002036   0.000366   0.000804
     5  H   -0.000023   0.000283  -0.002242   0.000029   0.000002  -0.000022
     6  H   -0.000043   0.000010  -0.000086   0.000007   0.000001  -0.000004
     7  H    0.001021  -0.000051  -0.004507  -0.001013  -0.000035  -0.000043
     8  H   -0.000051   0.001018  -0.003918  -0.000729   0.000060  -0.000002
     9  N   -0.004507  -0.003918   0.092523   0.049453   0.017714   0.022411
    10  O   -0.001013  -0.000729   0.049453   7.826706   0.325733   0.335932
    11  H   -0.000035   0.000060   0.017714   0.325733   0.429006  -0.040668
    12  H   -0.000043  -0.000002   0.022411   0.335932  -0.040668   0.344436
 Mulliken charges:
               1
     1  C    0.017803
     2  C   -0.005515
     3  C    0.015556
     4  N   -0.005356
     5  H   -0.000061
     6  H   -0.000014
     7  H    0.001319
     8  H    0.000688
     9  N   -0.111450
    10  O   -0.527187
    11  H    0.272972
    12  H    0.341246
 Sum of Mulliken charges =  -0.00000
 Mulliken charges with hydrogens summed into heavy atoms:
               1
     1  C    0.017789
     2  C   -0.004196
     3  C    0.016244
     4  N   -0.005417
     9  N   -0.111450
    10  O    0.087031
         Mulliken charges condensed to fragments:
      1     -0.087031
      2      0.087031
 Electronic spatial extent (au):  <R**2>=          14963.0192
 Charge=              0.0000 electrons
 Dipole moment (field-independent basis, Debye):
    X=              1.9746    Y=              0.3263    Z=             -0.1683  Tot=              2.0084
 Quadrupole moment (field-independent basis, Debye-Ang):
   XX=             16.0381   YY=              4.6795   ZZ=             -8.4498
   XY=             36.5421   XZ=             16.6955   YZ=              1.4781
 Traceless Quadrupole moment (field-independent basis, Debye-Ang):
   XX=             11.9489   YY=              0.5902   ZZ=            -12.5391
   XY=             36.5421   XZ=             16.6955   YZ=              1.4781
 Octapole moment (field-independent basis, Debye-Ang**2):
  XXX=             83.1614  YYY=            -53.2565  ZZZ=           -187.8225  XYY=            636.4812
  XXY=            292.9546  XXZ=            137.3315  XZZ=            110.7652  YZZ=            -94.4294
  YYZ=             42.4871  XYZ=            318.9837
 Hexadecapole moment (field-independent basis, Debye-Ang**3):
 XXXX=            224.2276 YYYY=          -5338.6410 ZZZZ=          -3152.7993 XXXY=           1532.1873
 XXXZ=            702.3737 YYYX=          10429.7308 YYYZ=            -21.3547 ZZZX=            369.9829
 ZZZY=          -2680.4103 XXYY=           5127.6401 XXZZ=           1006.8796 YYZZ=          -1267.4627
 XXYZ=           2567.6561 YYXZ=           5710.9643 ZZXY=           2261.5674
 N-N= 9.125255259510D+00 E-N=-1.990936645847D+02  KE= 7.619936274619D+01
 No NMR shielding tensors so no spin-rotation constants.
 Leave Link  601 at Mon Feb 20 21:05:13 2023, MaxMem=  6710886400 cpu:               2.0 elap:               0.1
 (Enter /data0/home/software/g16/l122.exe)
 CPIOFr:  IOpCl= 0 IRwI=-1 IRwCP=  731 ICalc=  2 LCPTot=       61799 Len1MO=      161020 IndFrg=      544859
 Counterpoise: doing calculation for fragment   1 using the basis set of the fragment.
 Leave Link  122 at Mon Feb 20 21:05:13 2023, MaxMem=  6710886400 cpu:               0.1 elap:               0.0
 (Enter /data0/home/software/g16/l301.exe)
 Basis read from rwf:  (5D, 7F)
 No pseudopotential information found on rwf file.
   159 basis functions,   242 primitive gaussians,   169 cartesian basis functions
    18 alpha electrons       18 beta electrons
       nuclear repulsion energy       161.0616571824 Hartrees.
 IExCor= 4336 DFT=T Ex+Corr=M062X ExCW=0 ScaHFX=  0.540000
 ScaDFX=  1.000000  1.000000  1.000000  1.000000 ScalE2=  1.000000  1.000000
 IRadAn=      5 IRanWt=     -1 IRanGd=            0 ICorTp=0 IEmpDi=131
 NAtoms=   12 NActive=    9 NUniq=    9 SFac= 1.00D+00 NAtFMM=   60 NAOKFM=F Big=F
 Integral buffers will be    131072 words long.
 Raffenetti 2 integral format.
 Two-electron integral symmetry is turned off.
 R6Disp:  Grimme-D3 Dispersion energy=       -0.0000416888 Hartrees.
 Nuclear repulsion after empirical dispersion term =      161.0616154935 Hartrees.
 No density basis found on file   718.
 Leave Link  301 at Mon Feb 20 21:05:13 2023, MaxMem=  6710886400 cpu:               1.3 elap:               0.1
 (Enter /data0/home/software/g16/l302.exe)
 NPDir=0 NMtPBC=     1 NCelOv=     1 NCel=       1 NClECP=     1 NCelD=      1
         NCelK=      1 NCelE2=     1 NClLst=     1 CellRange=     0.0.
 One-electron integrals computed using PRISM.
 NBasis=   159 RedAO= T EigKep=  5.81D-05  NBF=   159
 NBsUse=   159 1.00D-06 EigRej= -1.00D+00 NBFU=   159
 Precomputing XC quadrature grid using
 IXCGrd= 4 IRadAn=           5 IRanWt=          -1 IRanGd=           0 AccXCQ= 0.00D+00.
 Generated NRdTot=       0 NPtTot=           0 NUsed=           0 NTot=          32
 NSgBfM=   169   169   169   169   169 MxSgAt=     9 MxSgA2=     9.
 Leave Link  302 at Mon Feb 20 21:05:13 2023, MaxMem=  6710886400 cpu:               2.9 elap:               0.1
 (Enter /data0/home/software/g16/l303.exe)
 DipDrv:  MaxL=1.
 Leave Link  303 at Mon Feb 20 21:05:13 2023, MaxMem=  6710886400 cpu:               0.5 elap:               0.0
 (Enter /data0/home/software/g16/l401.exe)
 ExpMin= 4.38D-02 ExpMax= 6.29D+03 ExpMxC= 9.49D+02 IAcc=3 IRadAn=         5 AccDes= 0.00D+00
 Harris functional with IExCor= 1009 and IRadAn=       5 diagonalized for initial guess.
 HarFok:  IExCor= 1009 AccDes= 0.00D+00 IRadAn=         5 IDoV= 1 UseB2=F ITyADJ=14
 ICtDFT=  3500011 ScaDFX=  1.000000  1.000000  1.000000  1.000000
 FoFCou: FMM=F IPFlag=           0 FMFlag=      100000 FMFlg1=           0
         NFxFlg=           0 DoJE=T BraDBF=F KetDBF=T FulRan=T
         wScrn=  0.000000 ICntrl=       500 IOpCl=  0 I1Cent=   200000004 NGrid=           0
         NMat0=    1 NMatS0=      1 NMatT0=    0 NMatD0=    1 NMtDS0=    0 NMtDT0=    0
 Symmetry not used in FoFCou.
 Harris En= -226.053576241538    
 JPrj=0 DoOrth=F DoCkMO=F.
 Leave Link  401 at Mon Feb 20 21:05:13 2023, MaxMem=  6710886400 cpu:               6.8 elap:               0.3
 (Enter /data0/home/software/g16/l502.exe)
 Keep R1 ints in memory in canonical form, NReq=104822207.
 FoFCou: FMM=F IPFlag=           0 FMFlag=           0 FMFlg1=           0
         NFxFlg=           0 DoJE=F BraDBF=F KetDBF=F FulRan=T
         wScrn=  0.000000 ICntrl=       600 IOpCl=  0 I1Cent=           0 NGrid=           0
         NMat0=    1 NMatS0=  12720 NMatT0=    0 NMatD0=    1 NMtDS0=    0 NMtDT0=    0
 Symmetry not used in FoFCou.
 Two-electron integral symmetry not used.
 Closed shell SCF:
 Using DIIS extrapolation, IDIIS=  1040.
 NGot=  6710886400 LenX=  6629918297 LenY=  6629889295
 Requested convergence on RMS density matrix=1.00D-08 within 128 cycles.
 Requested convergence on MAX density matrix=1.00D-06.
 Requested convergence on             energy=1.00D-06.
 No special actions if energy rises.

 Cycle   1  Pass 1  IDiag  1:
 E= -226.087892637889    
 DIIS: error= 2.77D-02 at cycle   1 NSaved=   1.
 NSaved= 1 IEnMin= 1 EnMin= -226.087892637889     IErMin= 1 ErrMin= 2.77D-02
 ErrMax= 2.77D-02  0.00D+00 EMaxC= 1.00D-01 BMatC= 1.33D-01 BMatP= 1.33D-01
 IDIUse=3 WtCom= 7.23D-01 WtEn= 2.77D-01
 Coeff-Com:  0.100D+01
 Coeff-En:   0.100D+01
 Coeff:      0.100D+01
 Gap=     0.312 Goal=   None    Shift=    0.000
 GapD=    0.312 DampG=1.000 DampE=0.500 DampFc=0.5000 IDamp=-1.
 Damping current iteration by 5.00D-01
 RMSDP=5.26D-03 MaxDP=1.86D-01              OVMax= 1.72D-01

 Cycle   2  Pass 1  IDiag  1:
 E= -226.135031288890     Delta-E=       -0.047138651000 Rises=F Damp=T
 DIIS: error= 9.36D-03 at cycle   2 NSaved=   2.
 NSaved= 2 IEnMin= 2 EnMin= -226.135031288890     IErMin= 2 ErrMin= 9.36D-03
 ErrMax= 9.36D-03  0.00D+00 EMaxC= 1.00D-01 BMatC= 1.56D-02 BMatP= 1.33D-01
 IDIUse=3 WtCom= 9.06D-01 WtEn= 9.36D-02
 Coeff-Com: -0.100D+00 0.110D+01
 Coeff-En:   0.000D+00 0.100D+01
 Coeff:     -0.906D-01 0.109D+01
 Gap=     0.293 Goal=   None    Shift=    0.000
 RMSDP=1.38D-03 MaxDP=5.46D-02 DE=-4.71D-02 OVMax= 1.14D-01

 Cycle   3  Pass 1  IDiag  1:
 E= -226.179549862632     Delta-E=       -0.044518573742 Rises=F Damp=F
 DIIS: error= 8.60D-03 at cycle   3 NSaved=   3.
 NSaved= 3 IEnMin= 3 EnMin= -226.179549862632     IErMin= 3 ErrMin= 8.60D-03
 ErrMax= 8.60D-03  0.00D+00 EMaxC= 1.00D-01 BMatC= 1.00D-02 BMatP= 1.56D-02
 IDIUse=3 WtCom= 9.14D-01 WtEn= 8.60D-02
 Coeff-Com: -0.152D+00 0.539D+00 0.613D+00
 Coeff-En:   0.000D+00 0.000D+00 0.100D+01
 Coeff:     -0.139D+00 0.493D+00 0.646D+00
 Gap=     0.296 Goal=   None    Shift=    0.000
 RMSDP=5.66D-04 MaxDP=1.43D-02 DE=-4.45D-02 OVMax= 4.43D-02

 Cycle   4  Pass 1  IDiag  1:
 E= -226.186918471179     Delta-E=       -0.007368608548 Rises=F Damp=F
 DIIS: error= 3.97D-03 at cycle   4 NSaved=   4.
 NSaved= 4 IEnMin= 4 EnMin= -226.186918471179     IErMin= 4 ErrMin= 3.97D-03
 ErrMax= 3.97D-03  0.00D+00 EMaxC= 1.00D-01 BMatC= 1.61D-03 BMatP= 1.00D-02
 IDIUse=3 WtCom= 9.60D-01 WtEn= 3.97D-02
 Coeff-Com: -0.618D-01 0.154D+00 0.349D+00 0.559D+00
 Coeff-En:   0.000D+00 0.000D+00 0.113D+00 0.887D+00
 Coeff:     -0.593D-01 0.148D+00 0.339D+00 0.572D+00
 Gap=     0.291 Goal=   None    Shift=    0.000
 RMSDP=2.25D-04 MaxDP=5.34D-03 DE=-7.37D-03 OVMax= 1.22D-02

 Cycle   5  Pass 1  IDiag  1:
 E= -226.188278124077     Delta-E=       -0.001359652898 Rises=F Damp=F
 DIIS: error= 6.38D-04 at cycle   5 NSaved=   5.
 NSaved= 5 IEnMin= 5 EnMin= -226.188278124077     IErMin= 5 ErrMin= 6.38D-04
 ErrMax= 6.38D-04  0.00D+00 EMaxC= 1.00D-01 BMatC= 3.09D-05 BMatP= 1.61D-03
 IDIUse=3 WtCom= 9.94D-01 WtEn= 6.38D-03
 Coeff-Com: -0.143D-01 0.287D-01 0.869D-01 0.206D+00 0.693D+00
 Coeff-En:   0.000D+00 0.000D+00 0.000D+00 0.000D+00 0.100D+01
 Coeff:     -0.143D-01 0.285D-01 0.864D-01 0.205D+00 0.695D+00
 Gap=     0.291 Goal=   None    Shift=    0.000
 RMSDP=2.97D-05 MaxDP=7.79D-04 DE=-1.36D-03 OVMax= 2.30D-03

 Cycle   6  Pass 1  IDiag  1:
 E= -226.188302642439     Delta-E=       -0.000024518362 Rises=F Damp=F
 DIIS: error= 2.06D-04 at cycle   6 NSaved=   6.
 NSaved= 6 IEnMin= 6 EnMin= -226.188302642439     IErMin= 6 ErrMin= 2.06D-04
 ErrMax= 2.06D-04  0.00D+00 EMaxC= 1.00D-01 BMatC= 4.36D-06 BMatP= 3.09D-05
 IDIUse=3 WtCom= 9.98D-01 WtEn= 2.06D-03
 Coeff-Com: -0.370D-02 0.549D-02 0.240D-01 0.683D-01 0.346D+00 0.560D+00
 Coeff-En:   0.000D+00 0.000D+00 0.000D+00 0.000D+00 0.000D+00 0.100D+01
 Coeff:     -0.370D-02 0.548D-02 0.240D-01 0.682D-01 0.345D+00 0.561D+00
 Gap=     0.291 Goal=   None    Shift=    0.000
 RMSDP=1.49D-05 MaxDP=4.41D-04 DE=-2.45D-05 OVMax= 9.31D-04

 Cycle   7  Pass 1  IDiag  1:
 E= -226.188306683778     Delta-E=       -0.000004041339 Rises=F Damp=F
 DIIS: error= 2.92D-05 at cycle   7 NSaved=   7.
 NSaved= 7 IEnMin= 7 EnMin= -226.188306683778     IErMin= 7 ErrMin= 2.92D-05
 ErrMax= 2.92D-05  0.00D+00 EMaxC= 1.00D-01 BMatC= 1.45D-07 BMatP= 4.36D-06
 IDIUse=1 WtCom= 1.00D+00 WtEn= 0.00D+00
 Coeff-Com:  0.173D-02-0.370D-02-0.852D-02-0.218D-01-0.509D-01 0.786D-01
 Coeff-Com:  0.100D+01
 Coeff:      0.173D-02-0.370D-02-0.852D-02-0.218D-01-0.509D-01 0.786D-01
 Coeff:      0.100D+01
 Gap=     0.291 Goal=   None    Shift=    0.000
 RMSDP=8.30D-06 MaxDP=2.69D-04 DE=-4.04D-06 OVMax= 2.25D-04

 Cycle   8  Pass 1  IDiag  1:
 E= -226.188306891300     Delta-E=       -0.000000207522 Rises=F Damp=F
 DIIS: error= 1.03D-05 at cycle   8 NSaved=   8.
 NSaved= 8 IEnMin= 8 EnMin= -226.188306891300     IErMin= 8 ErrMin= 1.03D-05
 ErrMax= 1.03D-05  0.00D+00 EMaxC= 1.00D-01 BMatC= 1.35D-08 BMatP= 1.45D-07
 IDIUse=1 WtCom= 1.00D+00 WtEn= 0.00D+00
 Coeff-Com:  0.705D-03-0.144D-02-0.333D-02-0.947D-02-0.258D-01 0.132D-01
 Coeff-Com:  0.358D+00 0.668D+00
 Coeff:      0.705D-03-0.144D-02-0.333D-02-0.947D-02-0.258D-01 0.132D-01
 Coeff:      0.358D+00 0.668D+00
 Gap=     0.291 Goal=   None    Shift=    0.000
 RMSDP=9.90D-07 MaxDP=2.32D-05 DE=-2.08D-07 OVMax= 5.47D-05

 Cycle   9  Pass 1  IDiag  1:
 E= -226.188306903903     Delta-E=       -0.000000012603 Rises=F Damp=F
 DIIS: error= 4.53D-06 at cycle   9 NSaved=   9.
 NSaved= 9 IEnMin= 9 EnMin= -226.188306903903     IErMin= 9 ErrMin= 4.53D-06
 ErrMax= 4.53D-06  0.00D+00 EMaxC= 1.00D-01 BMatC= 2.81D-09 BMatP= 1.35D-08
 IDIUse=1 WtCom= 1.00D+00 WtEn= 0.00D+00
 Coeff-Com: -0.100D-03 0.224D-03 0.694D-03 0.992D-03 0.954D-03-0.129D-01
 Coeff-Com: -0.859D-01 0.286D+00 0.810D+00
 Coeff:     -0.100D-03 0.224D-03 0.694D-03 0.992D-03 0.954D-03-0.129D-01
 Coeff:     -0.859D-01 0.286D+00 0.810D+00
 Gap=     0.291 Goal=   None    Shift=    0.000
 RMSDP=4.53D-07 MaxDP=1.14D-05 DE=-1.26D-08 OVMax= 2.09D-05

 Cycle  10  Pass 1  IDiag  1:
 E= -226.188306906769     Delta-E=       -0.000000002866 Rises=F Damp=F
 DIIS: error= 5.65D-07 at cycle  10 NSaved=  10.
 NSaved=10 IEnMin=10 EnMin= -226.188306906769     IErMin=10 ErrMin= 5.65D-07
 ErrMax= 5.65D-07  0.00D+00 EMaxC= 1.00D-01 BMatC= 6.17D-11 BMatP= 2.81D-09
 IDIUse=1 WtCom= 1.00D+00 WtEn= 0.00D+00
 Coeff-Com: -0.448D-04 0.970D-04 0.282D-03 0.544D-03 0.127D-02-0.184D-02
 Coeff-Com: -0.300D-01 0.168D-01 0.105D+00 0.908D+00
 Coeff:     -0.448D-04 0.970D-04 0.282D-03 0.544D-03 0.127D-02-0.184D-02
 Coeff:     -0.300D-01 0.168D-01 0.105D+00 0.908D+00
 Gap=     0.291 Goal=   None    Shift=    0.000
 RMSDP=7.21D-08 MaxDP=1.96D-06 DE=-2.87D-09 OVMax= 4.32D-06

 Cycle  11  Pass 1  IDiag  1:
 E= -226.188306906832     Delta-E=       -0.000000000063 Rises=F Damp=F
 DIIS: error= 4.27D-07 at cycle  11 NSaved=  11.
 NSaved=11 IEnMin=11 EnMin= -226.188306906832     IErMin=11 ErrMin= 4.27D-07
 ErrMax= 4.27D-07  0.00D+00 EMaxC= 1.00D-01 BMatC= 1.50D-11 BMatP= 6.17D-11
 IDIUse=1 WtCom= 1.00D+00 WtEn= 0.00D+00
 Coeff-Com: -0.667D-05 0.140D-04 0.499D-04 0.101D-03 0.341D-03 0.428D-03
 Coeff-Com: -0.468D-02-0.152D-01-0.296D-01 0.392D+00 0.657D+00
 Coeff:     -0.667D-05 0.140D-04 0.499D-04 0.101D-03 0.341D-03 0.428D-03
 Coeff:     -0.468D-02-0.152D-01-0.296D-01 0.392D+00 0.657D+00
 Gap=     0.291 Goal=   None    Shift=    0.000
 RMSDP=2.53D-08 MaxDP=6.72D-07 DE=-6.28D-11 OVMax= 1.83D-06

 Cycle  12  Pass 1  IDiag  1:
 E= -226.188306906848     Delta-E=       -0.000000000016 Rises=F Damp=F
 DIIS: error= 1.08D-07 at cycle  12 NSaved=  12.
 NSaved=12 IEnMin=12 EnMin= -226.188306906848     IErMin=12 ErrMin= 1.08D-07
 ErrMax= 1.08D-07  0.00D+00 EMaxC= 1.00D-01 BMatC= 1.61D-12 BMatP= 1.50D-11
 IDIUse=1 WtCom= 1.00D+00 WtEn= 0.00D+00
 Coeff-Com:  0.335D-05-0.725D-05-0.150D-04-0.301D-04-0.215D-04 0.432D-03
 Coeff-Com:  0.207D-02-0.628D-02-0.262D-01-0.105D-02 0.252D+00 0.779D+00
 Coeff:      0.335D-05-0.725D-05-0.150D-04-0.301D-04-0.215D-04 0.432D-03
 Coeff:      0.207D-02-0.628D-02-0.262D-01-0.105D-02 0.252D+00 0.779D+00
 Gap=     0.291 Goal=   None    Shift=    0.000
 RMSDP=8.04D-09 MaxDP=2.06D-07 DE=-1.65D-11 OVMax= 3.89D-07

[...]
 Alpha virt. eigenvalues --    5.21455   5.25512   5.35949   5.42298   5.52155
 Alpha virt. eigenvalues --    5.60737  23.89783  24.09355  24.13891  35.65487
 Alpha virt. eigenvalues --   35.70068
          Condensed to atoms (all electrons):
               1          2          3          4          5          6
     1  C    5.356435   0.301534  -0.272102   0.446385  -0.052411   0.376237
     2  C    0.301534   5.169631   0.029618  -0.219290   0.026818   0.004888
     3  C   -0.272102   0.029618   5.064442   0.317359  -0.009997   0.010486
     4  N    0.446385  -0.219290   0.317359   6.388300   0.370935  -0.033257
     5  H   -0.052411   0.026818  -0.009997   0.370935   0.408970  -0.001644
     6  H    0.376237   0.004888   0.010486  -0.033257  -0.001644   0.504969
     7  H   -0.065648   0.436792   0.019363   0.006860  -0.000014   0.000079
     8  H   -0.001014   0.019271   0.435343  -0.055598   0.000481  -0.000028
     9  N    0.040290   0.267611   0.356249   0.018158  -0.000870   0.001498
               7          8          9
     1  C   -0.065648  -0.001014   0.040290
     2  C    0.436792   0.019271   0.267611
     3  C    0.019363   0.435343   0.356249
     4  N    0.006860  -0.055598   0.018158
     5  H   -0.000014   0.000481  -0.000870
     6  H    0.000079  -0.000028   0.001498
     7  H    0.527546   0.000018  -0.051801
     8  H    0.000018   0.502205  -0.045969
     9  N   -0.051801  -0.045969   6.724242
 Mulliken charges:
               1
     1  C   -0.129707
     2  C   -0.036872
     3  C    0.049239
     4  N   -0.239851
     5  H    0.257731
     6  H    0.136771
     7  H    0.126806
     8  H    0.145291
     9  N   -0.309409
    10  O    0.000000
    11  H    0.000000
    12  H    0.000000
 Sum of Mulliken charges =  -0.00000
 Mulliken charges with hydrogens summed into heavy atoms:
               1
     1  C    0.007063
     2  C    0.089934
     3  C    0.194531
     4  N    0.017880
     9  N   -0.309409
    10  O    0.000000
         Mulliken charges condensed to fragments:
      1     -0.000000
      2      0.000000
 Electronic spatial extent (au):  <R**2>=          58017.8450
 Charge=             -0.0000 electrons
 Dipole moment (field-independent basis, Debye):
    X=              2.9863    Y=              1.2952    Z=             -1.7736  Tot=              3.7069
 Quadrupole moment (field-independent basis, Debye-Ang):
   XX=             25.1745   YY=             18.8838   ZZ=            -55.1880
   XY=             63.5145   XZ=              6.1597   YZ=            -26.4370
 Traceless Quadrupole moment (field-independent basis, Debye-Ang):
   XX=             28.8844   YY=             22.5937   ZZ=            -51.4781
   XY=             63.5145   XZ=              6.1597   YZ=            -26.4370
 Octapole moment (field-independent basis, Debye-Ang**2):
  XXX=            -45.8718  YYY=           -199.7995  ZZZ=           -947.5673  XYY=           1065.7420
  XXY=            539.9769  XXZ=             32.8015  XZZ=           -335.9930  YZZ=           -969.7433
  YYZ=           -583.1833  XYZ=            144.3646
 Hexadecapole moment (field-independent basis, Debye-Ang**3):
 XXXX=          -5348.1248 YYYY=         -21038.0239 ZZZZ=         -12891.8922 XXXY=             96.2359
 XXXZ=          -1896.9195 YYYX=          13601.0828 YYYZ=         -15819.1911 ZZZX=          -7382.7533
 ZZZY=         -16873.7938 XXYY=           8918.8211 XXZZ=          -3341.1535 YYZZ=         -18595.0594
 XXYZ=            876.7335 YYXZ=           1322.8789 ZZXY=          -5958.5450
 N-N= 1.610616154935D+02 E-N=-8.485896406810D+02  KE= 2.250385091741D+02
 No NMR shielding tensors so no spin-rotation constants.
 Leave Link  601 at Mon Feb 20 21:05:20 2023, MaxMem=  6710886400 cpu:               2.0 elap:               0.1
 (Enter /data0/home/software/g16/l122.exe)
 CPIOFr:  IOpCl= 0 IRwI=-1 IRwCP=  731 ICalc=  3 LCPTot=       61799 Len1MO=      161020 IndFrg=      705879
 Counterpoise: doing calculation for fragment   2 using the basis set of the fragment.
 Leave Link  122 at Mon Feb 20 21:05:20 2023, MaxMem=  6710886400 cpu:               0.1 elap:               0.0
 (Enter /data0/home/software/g16/l301.exe)
 Basis read from rwf:  (5D, 7F)
 No pseudopotential information found on rwf file.
    39 basis functions,    58 primitive gaussians,    41 cartesian basis functions
     5 alpha electrons        5 beta electrons
       nuclear repulsion energy         9.1252552665 Hartrees.
 IExCor= 4336 DFT=T Ex+Corr=M062X ExCW=0 ScaHFX=  0.540000
 ScaDFX=  1.000000  1.000000  1.000000  1.000000 ScalE2=  1.000000  1.000000
 IRadAn=      5 IRanWt=     -1 IRanGd=            0 ICorTp=0 IEmpDi=131
 NAtoms=   12 NActive=    3 NUniq=    3 SFac= 1.00D+00 NAtFMM=   60 NAOKFM=F Big=F
 Integral buffers will be    131072 words long.
 Raffenetti 2 integral format.
 Two-electron integral symmetry is turned off.
 R6Disp:  Grimme-D3 Dispersion energy=       -0.0000000070 Hartrees.
 Nuclear repulsion after empirical dispersion term =        9.1252552595 Hartrees.
 No density basis found on file   718.
 Leave Link  301 at Mon Feb 20 21:05:20 2023, MaxMem=  6710886400 cpu:               1.3 elap:               0.1
 (Enter /data0/home/software/g16/l302.exe)
 NPDir=0 NMtPBC=     1 NCelOv=     1 NCel=       1 NClECP=     1 NCelD=      1
         NCelK=      1 NCelE2=     1 NClLst=     1 CellRange=     0.0.
 One-electron integrals computed using PRISM.
 NBasis=    39 RedAO= T EigKep=  2.94D-03  NBF=    39
 NBsUse=    39 1.00D-06 EigRej= -1.00D+00 NBFU=    39
 Precomputing XC quadrature grid using
 IXCGrd= 4 IRadAn=           5 IRanWt=          -1 IRanGd=           0 AccXCQ= 0.00D+00.
 Generated NRdTot=       0 NPtTot=           0 NUsed=           0 NTot=          32
 NSgBfM=    41    41    41    41    41 MxSgAt=     3 MxSgA2=     3.
 Leave Link  302 at Mon Feb 20 21:05:20 2023, MaxMem=  6710886400 cpu:               2.3 elap:               0.1
 (Enter /data0/home/software/g16/l303.exe)
 DipDrv:  MaxL=1.
 Leave Link  303 at Mon Feb 20 21:05:20 2023, MaxMem=  6710886400 cpu:               0.4 elap:               0.0
 (Enter /data0/home/software/g16/l401.exe)
 ExpMin= 8.45D-02 ExpMax= 8.59D+03 ExpMxC= 1.30D+03 IAcc=3 IRadAn=         5 AccDes= 0.00D+00
 Harris functional with IExCor= 1009 and IRadAn=       5 diagonalized for initial guess.
 HarFok:  IExCor= 1009 AccDes= 0.00D+00 IRadAn=         5 IDoV= 1 UseB2=F ITyADJ=14
 ICtDFT=  3500011 ScaDFX=  1.000000  1.000000  1.000000  1.000000
 FoFCou: FMM=F IPFlag=           0 FMFlag=      100000 FMFlg1=           0
         NFxFlg=           0 DoJE=T BraDBF=F KetDBF=T FulRan=T
         wScrn=  0.000000 ICntrl=       500 IOpCl=  0 I1Cent=   200000004 NGrid=           0
         NMat0=    1 NMatS0=      1 NMatT0=    0 NMatD0=    1 NMtDS0=    0 NMtDT0=    0
 Symmetry not used in FoFCou.
 Harris En= -76.4163493847990    
 JPrj=0 DoOrth=F DoCkMO=F.
 Leave Link  401 at Mon Feb 20 21:05:20 2023, MaxMem=  6710886400 cpu:               2.9 elap:               0.1
 (Enter /data0/home/software/g16/l502.exe)
 Keep R1 ints in memory in canonical form, NReq=21037293.
 FoFCou: FMM=F IPFlag=           0 FMFlag=           0 FMFlg1=           0
         NFxFlg=           0 DoJE=F BraDBF=F KetDBF=F FulRan=T
         wScrn=  0.000000 ICntrl=       600 IOpCl=  0 I1Cent=           0 NGrid=           0
         NMat0=    1 NMatS0=    780 NMatT0=    0 NMatD0=    1 NMtDS0=    0 NMtDT0=    0
 Symmetry not used in FoFCou.
 Two-electron integral symmetry not used.
 Closed shell SCF:
 Using DIIS extrapolation, IDIIS=  1040.
 NGot=  6710886400 LenX=  6710576739 LenY=  6710574617
 Requested convergence on RMS density matrix=1.00D-08 within 128 cycles.
 Requested convergence on MAX density matrix=1.00D-06.
 Requested convergence on             energy=1.00D-06.
 No special actions if energy rises.
 Integral accuracy reduced to 1.0D-05 until final iterations.

 Cycle   1  Pass 0  IDiag  1:
 E= -76.3460570729086    
 DIIS: error= 7.02D-02 at cycle   1 NSaved=   1.
 NSaved= 1 IEnMin= 1 EnMin= -76.3460570729086     IErMin= 1 ErrMin= 7.02D-02
 ErrMax= 7.02D-02  0.00D+00 EMaxC= 1.00D-01 BMatC= 1.21D-01 BMatP= 1.21D-01
 IDIUse=3 WtCom= 2.98D-01 WtEn= 7.02D-01
 Coeff-Com:  0.100D+01
 Coeff-En:   0.100D+01
 Coeff:      0.100D+01
 Gap=     0.325 Goal=   None    Shift=    0.000
 GapD=    0.325 DampG=1.000 DampE=0.500 DampFc=0.5000 IDamp=-1.
 Damping current iteration by 5.00D-01
 RMSDP=8.00D-03 MaxDP=1.01D-01              OVMax= 1.68D-01

 Cycle   2  Pass 0  IDiag  1:
 E= -76.3775704678683     Delta-E=       -0.031513394960 Rises=F Damp=T
 DIIS: error= 1.13D-02 at cycle   2 NSaved=   2.
 NSaved= 2 IEnMin= 2 EnMin= -76.3775704678683     IErMin= 2 ErrMin= 1.13D-02
 ErrMax= 1.13D-02  0.00D+00 EMaxC= 1.00D-01 BMatC= 4.81D-03 BMatP= 1.21D-01
 IDIUse=3 WtCom= 8.87D-01 WtEn= 1.13D-01
 Coeff-Com:  0.818D-01 0.918D+00
 Coeff-En:   0.186D+00 0.814D+00
 Coeff:      0.937D-01 0.906D+00
 Gap=     0.458 Goal=   None    Shift=    0.000
 RMSDP=9.47D-04 MaxDP=1.40D-02 DE=-3.15D-02 OVMax= 1.00D-01

 Cycle   3  Pass 0  IDiag  1:
 E= -76.4214917255501     Delta-E=       -0.043921257682 Rises=F Damp=F
 DIIS: error= 2.14D-03 at cycle   3 NSaved=   3.
 NSaved= 3 IEnMin= 3 EnMin= -76.4214917255501     IErMin= 3 ErrMin= 2.14D-03
 ErrMax= 2.14D-03  0.00D+00 EMaxC= 1.00D-01 BMatC= 8.95D-05 BMatP= 4.81D-03
 IDIUse=3 WtCom= 9.79D-01 WtEn= 2.14D-02
 Coeff-Com: -0.200D-01 0.384D-01 0.982D+00
 Coeff-En:   0.000D+00 0.000D+00 0.100D+01
 Coeff:     -0.196D-01 0.376D-01 0.982D+00
 Gap=     0.462 Goal=   None    Shift=    0.000
 RMSDP=1.14D-04 MaxDP=9.54D-04 DE=-4.39D-02 OVMax= 3.30D-03

 Cycle   4  Pass 0  IDiag  1:
 E= -76.4215682138576     Delta-E=       -0.000076488308 Rises=F Damp=F
 DIIS: error= 4.09D-04 at cycle   4 NSaved=   4.
 NSaved= 4 IEnMin= 4 EnMin= -76.4215682138576     IErMin= 4 ErrMin= 4.09D-04
 ErrMax= 4.09D-04  0.00D+00 EMaxC= 1.00D-01 BMatC= 3.18D-06 BMatP= 8.95D-05
 IDIUse=3 WtCom= 9.96D-01 WtEn= 4.09D-03
 Coeff-Com: -0.179D-02-0.234D-02 0.159D+00 0.846D+00
 Coeff-En:   0.000D+00 0.000D+00 0.000D+00 0.100D+01
 Coeff:     -0.178D-02-0.233D-02 0.158D+00 0.846D+00
 Gap=     0.463 Goal=   None    Shift=    0.000
 RMSDP=2.20D-05 MaxDP=3.53D-04 DE=-7.65D-05 OVMax= 5.33D-04

 Cycle   5  Pass 0  IDiag  1:
 E= -76.4215701895321     Delta-E=       -0.000001975675 Rises=F Damp=F
 DIIS: error= 8.66D-05 at cycle   5 NSaved=   5.
 NSaved= 5 IEnMin= 5 EnMin= -76.4215701895321     IErMin= 5 ErrMin= 8.66D-05
 ErrMax= 8.66D-05  0.00D+00 EMaxC= 1.00D-01 BMatC= 8.02D-08 BMatP= 3.18D-06
 IDIUse=1 WtCom= 1.00D+00 WtEn= 0.00D+00
 Coeff-Com:  0.117D-02-0.179D-02-0.367D-01-0.579D-01 0.110D+01
 Coeff:      0.117D-02-0.179D-02-0.367D-01-0.579D-01 0.110D+01
 Gap=     0.463 Goal=   None    Shift=    0.000
 RMSDP=8.84D-06 MaxDP=1.00D-04 DE=-1.98D-06 OVMax= 1.98D-04

 Initial convergence to 1.0D-05 achieved.  Increase integral accuracy.
 Cycle   6  Pass 1  IDiag  1:
 E= -76.4215789418852     Delta-E=       -0.000008752353 Rises=F Damp=F
 DIIS: error= 1.09D-05 at cycle   1 NSaved=   1.
 NSaved= 1 IEnMin= 1 EnMin= -76.4215789418852     IErMin= 1 ErrMin= 1.09D-05
 ErrMax= 1.09D-05  0.00D+00 EMaxC= 1.00D-01 BMatC= 8.56D-09 BMatP= 8.56D-09
 IDIUse=1 WtCom= 1.00D+00 WtEn= 0.00D+00
 Coeff-Com:  0.100D+01
 Coeff:      0.100D+01
 Gap=     0.463 Goal=   None    Shift=    0.000
 RMSDP=8.84D-06 MaxDP=1.00D-04 DE=-8.75D-06 OVMax= 3.50D-05

 Cycle   7  Pass 1  IDiag  1:
 E= -76.4215789479861     Delta-E=       -0.000000006101 Rises=F Damp=F
 DIIS: error= 6.11D-06 at cycle   2 NSaved=   2.
 NSaved= 2 IEnMin= 2 EnMin= -76.4215789479861     IErMin= 2 ErrMin= 6.11D-06
 ErrMax= 6.11D-06  0.00D+00 EMaxC= 1.00D-01 BMatC= 5.24D-10 BMatP= 8.56D-09
 IDIUse=1 WtCom= 1.00D+00 WtEn= 0.00D+00
 Coeff-Com:  0.405D-01 0.959D+00
 Coeff:      0.405D-01 0.959D+00
 Gap=     0.463 Goal=   None    Shift=    0.000
 RMSDP=5.03D-07 MaxDP=8.29D-06 DE=-6.10D-09 OVMax= 1.36D-05

 Cycle   8  Pass 1  IDiag  1:
 E= -76.4215789481301     Delta-E=       -0.000000000144 Rises=F Damp=F
 DIIS: error= 4.35D-06 at cycle   3 NSaved=   3.
 NSaved= 3 IEnMin= 3 EnMin= -76.4215789481301     IErMin= 3 ErrMin= 4.35D-06
 ErrMax= 4.35D-06  0.00D+00 EMaxC= 1.00D-01 BMatC= 4.89D-10 BMatP= 5.24D-10
 IDIUse=1 WtCom= 1.00D+00 WtEn= 0.00D+00
 Coeff-Com: -0.431D-01 0.503D+00 0.540D+00
 Coeff:     -0.431D-01 0.503D+00 0.540D+00
 Gap=     0.463 Goal=   None    Shift=    0.000
 RMSDP=2.66D-07 MaxDP=3.38D-06 DE=-1.44D-10 OVMax= 6.24D-06

 Cycle   9  Pass 1  IDiag  1:
 E= -76.4215789484563     Delta-E=       -0.000000000326 Rises=F Damp=F
 DIIS: error= 5.57D-07 at cycle   4 NSaved=   4.
 NSaved= 4 IEnMin= 4 EnMin= -76.4215789484563     IErMin= 4 ErrMin= 5.57D-07
 ErrMax= 5.57D-07  0.00D+00 EMaxC= 1.00D-01 BMatC= 3.64D-12 BMatP= 4.89D-10
 IDIUse=1 WtCom= 1.00D+00 WtEn= 0.00D+00
 Coeff-Com:  0.267D-02-0.979D-01-0.258D-01 0.112D+01
 Coeff:      0.267D-02-0.979D-01-0.258D-01 0.112D+01
 Gap=     0.463 Goal=   None    Shift=    0.000
 RMSDP=6.91D-08 MaxDP=5.04D-07 DE=-3.26D-10 OVMax= 1.61D-06

 Cycle  10  Pass 1  IDiag  1:
 E= -76.4215789484625     Delta-E=       -0.000000000006 Rises=F Damp=F
 DIIS: error= 5.32D-08 at cycle   5 NSaved=   5.
 NSaved= 5 IEnMin= 5 EnMin= -76.4215789484625     IErMin= 5 ErrMin= 5.32D-08
 ErrMax= 5.32D-08  0.00D+00 EMaxC= 1.00D-01 BMatC= 1.35D-13 BMatP= 3.64D-12
 IDIUse=1 WtCom= 1.00D+00 WtEn= 0.00D+00
 Coeff-Com:  0.229D-02-0.366D-01-0.311D-01 0.153D+00 0.912D+00
 Coeff:      0.229D-02-0.366D-01-0.311D-01 0.153D+00 0.912D+00
 Gap=     0.463 Goal=   None    Shift=    0.000
 RMSDP=1.38D-08 MaxDP=9.96D-08 DE=-6.20D-12 OVMax= 2.72D-07

 Cycle  11  Pass 1  IDiag  1:
 E= -76.4215789484627     Delta-E=       -0.000000000000 Rises=F Damp=F
 DIIS: error= 7.55D-09 at cycle   6 NSaved=   6.
 NSaved= 6 IEnMin= 6 EnMin= -76.4215789484627     IErMin= 6 ErrMin= 7.55D-09
 ErrMax= 7.55D-09  0.00D+00 EMaxC= 1.00D-01 BMatC= 3.38D-15 BMatP= 1.35D-13
 IDIUse=1 WtCom= 1.00D+00 WtEn= 0.00D+00
 Coeff-Com:  0.924D-04 0.107D-02-0.234D-02-0.313D-01 0.249D-01 0.101D+01
 Coeff:      0.924D-04 0.107D-02-0.234D-02-0.313D-01 0.249D-01 0.101D+01
 Gap=     0.463 Goal=   None    Shift=    0.000
 RMSDP=3.38D-09 MaxDP=3.56D-08 DE=-1.99D-13 OVMax= 6.50D-08

 SCF Done:  E(RM062X) =  -76.4215789485     A.U. after   11 cycles
            NFock= 11  Conv=0.34D-08     -V/T= 2.0028
 KE= 7.620568744692D+01 PE=-1.991025781093D+02 EE= 3.735005645445D+01
 Leave Link  502 at Mon Feb 20 21:05:21 2023, MaxMem=  6710886400 cpu:               8.8 elap:               0.4
 (Enter /data0/home/software/g16/l601.exe)
 Copying SCF densities to generalized density rwf, IOpCl= 0 IROHF=0.

 **********************************************************************

            Population analysis using the SCF density.

 **********************************************************************

 Alpha  occ. eigenvalues --  -19.62638  -1.13552  -0.60537  -0.47832  -0.40039
 Alpha virt. eigenvalues --    0.06267   0.13368   0.17414   0.17936   0.18904
 Alpha virt. eigenvalues --    0.23416   0.50876   0.53960   0.98046   1.00232
 Alpha virt. eigenvalues --    1.06001   1.17217   1.20343   1.31863   1.33827
 Alpha virt. eigenvalues --    1.70950   1.74450   1.75485   2.07269   2.10287
 Alpha virt. eigenvalues --    2.36350   2.39670   2.55215   2.88037   3.02182
 Alpha virt. eigenvalues --    5.05654   5.49588   5.91913   6.78525   6.79935
 Alpha virt. eigenvalues --    6.87280   6.91787   7.09136  49.95937
          Condensed to atoms (all electrons):
              10         11         12
    10  O    7.915334   0.319690   0.315798
    11  H    0.319690   0.430504  -0.023877
    12  H    0.315798  -0.023877   0.430940
 Mulliken charges:
               1
     1  C    0.000000
     2  C    0.000000
     3  C    0.000000
     4  N    0.000000
     5  H    0.000000
     6  H    0.000000
     7  H    0.000000
     8  H    0.000000
     9  N    0.000000
    10  O   -0.550822
    11  H    0.273682
    12  H    0.277139
 Sum of Mulliken charges =   0.00000
 Mulliken charges with hydrogens summed into heavy atoms:
               1
     1  C    0.000000
     2  C    0.000000
     3  C    0.000000
     4  N    0.000000
     9  N    0.000000
    10  O    0.000000
         Mulliken charges condensed to fragments:
      1      0.000000
      2      0.000000
 Electronic spatial extent (au):  <R**2>=          14962.0876
 Charge=              0.0000 electrons
 Dipole moment (field-independent basis, Debye):
    X=              2.1042    Y=              0.3353    Z=             -0.1997  Tot=              2.1400
 Quadrupole moment (field-independent basis, Debye-Ang):
   XX=             17.5552   YY=              4.9845   ZZ=             -9.0188
   XY=             38.8533   XZ=             17.6608   YZ=              1.0060
 Traceless Quadrupole moment (field-independent basis, Debye-Ang):
   XX=             13.0482   YY=              0.4776   ZZ=            -13.5258
   XY=             38.8533   XZ=             17.6608   YZ=              1.0060
 Octapole moment (field-independent basis, Debye-Ang**2):
  XXX=             96.8636  YYY=            -45.4696  ZZZ=           -195.6470  XYY=            677.7824
  XXY=            319.7105  XXZ=            149.6898  XZZ=            117.7201  YZZ=           -103.6716
  YYZ=             35.4811  XYZ=            336.2231
 Hexadecapole moment (field-independent basis, Debye-Ang**3):
 XXXX=            337.2162 YYYY=          -5162.2001 ZZZZ=          -3249.5515 XXXY=           1772.8848
 XXXZ=            817.2149 YYYX=          11168.9883 YYYZ=           -124.1238 ZZZX=            416.9630
 ZZZY=          -2810.5761 XXYY=           5600.8772 XXZZ=           1107.4647 YYZZ=          -1418.1149
 XXYZ=           2785.3283 YYXZ=           6019.2583 ZZXY=           2386.1267
 N-N= 9.125255259510D+00 E-N=-1.991025779433D+02  KE= 7.620568744692D+01
 No NMR shielding tensors so no spin-rotation constants.
 Leave Link  601 at Mon Feb 20 21:05:21 2023, MaxMem=  6710886400 cpu:               1.8 elap:               0.1
 (Enter /data0/home/software/g16/l122.exe)
 CPIOFr:  IOpCl= 0 IRwI=-1 IRwCP=  731 ICalc=  4 LCPTot=       61799 Len1MO=      161020 IndFrg=      866899
 Restoring MOs from calculation   1 to rwf.
 CPIOFr:  IOpCl= 0 IRwI=-2 IRwCP=  731 ICalc=  0 LCPTot=       61799 Len1MO=      161020 IndFrg=      222819
 Counterpoise corrected energy =    -302.616605012813
                   BSSE energy =       0.001142742244
              sum of fragments =    -302.609885855311
           complexation energy =      -4.93 kcal/mole (raw)
           complexation energy =      -4.22 kcal/mole (corrected)
 Leave Link  122 at Mon Feb 20 21:05:21 2023, MaxMem=  6710886400 cpu:               0.1 elap:               0.0
 (Enter /data0/home/software/g16/l9999.exe)
 1\1\GINC-LOCALHOST\SP\RM062X\6-311+G(2d,p)\C3H6N2O1\WUHANYU\20-Feb-202
 3\0\\#p M062X/6-311+G(2d,p) nosymm em=GD3 counterpoise=2\\Title Card R
 equired\\0,1\C,0,10.249968,17.120966,7.650183\C,0,9.100335,16.664871,8
 .294531\C,0,8.473815,18.343177,7.016519\N,0,9.847756,18.185295,6.84093
 7\H,0,10.443731,18.721399,6.251834\H,0,11.263916,16.785772,7.705106\H,
 0,8.97745,15.862869,8.997771\H,0,7.881751,19.091382,6.516464\N,0,8.016
 988,17.43123,7.89099\O,0,5.565704,17.45613,9.035077\H,0,6.140291,17.95
 7075,9.607641\H,0,6.178303,17.139844,8.342952\\Version=ES64L-G16RevA.0
 3\HF=-76.4215789\RMSD=3.381e-09\Dipole=2.3881429,0.6525924,-0.9660806\
 Quadrupole=40.0540782,16.1270681,-56.1811463,89.0321633,21.2001324,-25
 .2054089\PG=C01 [X(C3H6N2O1)]\\@


 AND THIS OUR LIFE, EXEMPT FROM PUBLIC HAUNT,
 FINDS TONGUES IN TREES, BOOKS IN THE RUNNING BROOKS,
 SERMONS IN STONES, AND GOOD IN EVERYTHING.
 I WOULD NOT CHANGE IT. -- W. SHAKESPEARE
 AS YOU LIKE IT, ACT II, SCENE 1.
 Job cpu time:       0 days  0 hours 12 minutes 20.7 seconds.
 Elapsed time:       0 days  0 hours  0 minutes 40.5 seconds.
 File lengths (MBytes):  RWF=     27 Int=      0 D2E=      0 Chk=     10 Scr=      1
 Normal termination of Gaussian 16 at Mon Feb 20 21:05:21 2023.
