 Entering Gaussian System, Link 0=g16
 Initial command:
 /data0/home/software/g16/l1.exe "/data0/home/software/g16/scratch/Gau-2486212.inp" -scrdir="/data0/home/software/g16/scratch/"
 Default is to use a total of  22 processors:
                               22 via shared-memory
                                1 via Linda
 Entering Link 1 = /data0/home/software/g16/l1.exe PID=   2486213.
  
 Copyright (c) 1988,1990,1992,1993,1995,1998,2003,2009,2016,
            Gaussian, Inc.  All Rights Reserved.
  
 This is part of the Gaussian(R) 16 program.  It is based on
 the Gaussian(R) 09 system (copyright 2009, Gaussian, Inc.),
 the Gaussian(R) 03 system (copyright 2003, Gaussian, Inc.),
 the Gaussian(R) 98 system (copyright 1998, Gaussian, Inc.),
 the Gaussian(R) 94 system (copyright 1995, Gaussian, Inc.),
 the Gaussian 92(TM) system (copyright 1992, Gaussian, Inc.),
 the Gaussian 90(TM) system (copyright 1990, Gaussian, Inc.),
 the Gaussian 88(TM) system (copyright 1988, Gaussian, Inc.),
 the Gaussian 86(TM) system (copyright 1986, Carnegie Mellon
 University), and the Gaussian 82(TM) system (copyright 1983,
 Carnegie Mellon University). Gaussian is a federally registered
 trademark of Gaussian, Inc.
  
 This software contains proprietary and confidential information,
 including trade secrets, belonging to Gaussian, Inc.
  
 This software is provided under written license and may be
 used, copied, transmitted, or stored only in accord with that
 written license.
  
 The following legend is applicable only to US Government
 contracts under FAR:
  
                    RESTRICTED RIGHTS LEGEND
  
 Use, reproduction and disclosure by the US Government is
 subject to restrictions as set forth in subparagraphs (a)
 and (c) of the Commercial Computer Software - Restricted
 Rights clause in FAR 52.227-19.
  
 Gaussian, Inc.
 340 Quinnipiac St., Bldg. 40, Wallingford CT 06492
  
  
 ---------------------------------------------------------------
 Warning -- This program may not be used in any manner that
 competes with the business of Gaussian, Inc. or will provide
 assistance to any competitor of Gaussian, Inc.  The licensee
 of this program is prohibited from giving any competitor of
 Gaussian, Inc. access to this program.  By using this program,
 the user acknowledges that Gaussian, Inc. is engaged in the
 business of creating and licensing software in the field of
 computational chemistry and represents and warrants to the
 licensee that it is not a competitor of Gaussian, Inc. and that
 it will not use this program in any manner prohibited above.
 ---------------------------------------------------------------
  

 Cite this work as:
 Gaussian 16, Revision A.03,
 M. J. Frisch, G. W. Trucks, H. B. Schlegel, G. E. Scuseria, 
 M. A. Robb, J. R. Cheeseman, G. Scalmani, V. Barone, 
 G. A. Petersson, H. Nakatsuji, X. Li, M. Caricato, A. V. Marenich, 
 J. Bloino, B. G. Janesko, R. Gomperts, B. Mennucci, H. P. Hratchian, 
 J. V. Ortiz, A. F. Izmaylov, J. L. Sonnenberg, D. Williams-Young, 
 F. Ding, F. Lipparini, F. Egidi, J. Goings, B. Peng, A. Petrone, 
 T. Henderson, D. Ranasinghe, V. G. Zakrzewski, J. Gao, N. Rega, 
 G. Zheng, W. Liang, M. Hada, M. Ehara, K. Toyota, R. Fukuda, 
 J. Hasegawa, M. Ishida, T. Nakajima, Y. Honda, O. Kitao, H. Nakai, 
 T. Vreven, K. Throssell, J. A. Montgomery, Jr., J. E. Peralta, 
 F. Ogliaro, M. J. Bearpark, J. J. Heyd, E. N. Brothers, K. N. Kudin, 
 V. N. Staroverov, T. A. Keith, R. Kobayashi, J. Normand, 
 K. Raghavachari, A. P. Rendell, J. C. Burant, S. S. Iyengar, 
 J. Tomasi, M. Cossi, J. M. Millam, M. Klene, C. Adamo, R. Cammi, 
 J. W. Ochterski, R. L. Martin, K. Morokuma, O. Farkas, 
 J. B. Foresman, and D. J. Fox, Gaussian, Inc., Wallingford CT, 2016.
 
 ******************************************
 Gaussian 16:  ES64L-G16RevA.03 25-Dec-2016
                11-Oct-2023 
 ******************************************
 %nprocshared=24
 Will use up to   24 processors via shared memory.
 %mem=50GB
 ----------------------------------------
 #p M052X/6-31G* scrf=(smd,solvent=water)
 ----------------------------------------
 1/38=1,172=1/1;
 2/12=2,17=6,18=5,40=1/2;
 3/5=1,6=6,7=1,11=2,25=1,30=1,70=32201,72=1,74=-38/1,2,3;
 4//1;
 5/5=2,38=5,53=1/2;
 6/7=2,8=2,9=2,10=2,28=1/1;
 99/5=1,9=1/99;
 Leave Link    1 at Wed Oct 11 11:54:00 2023, MaxMem=  6710886400 cpu:               0.8 elap:               0.0
 (Enter /data0/home/software/g16/l101.exe)
 -------------------
 Title Card Required
 -------------------
 Symbolic Z-matrix:
 Charge =  0 Multiplicity = 1
 C                     0.61579   0.97567  -0.00004 
 C                     1.14051  -0.28606  -0.00013 
 C                    -0.9963   -0.52822   0.00004 
 N                    -0.7493    0.80411   0. 
 H                    -1.44469   1.53657   0.00006 
 H                     1.07233   1.9503   -0.00008 
 H                     2.17958  -0.57192  -0.00022 
 H                    -1.9957   -0.93133   0.00011 
 N                     0.1248   -1.22582   0.00013 
 
 ITRead=  0  0  0  0  0  0  0  0  0
 MicOpt= -1 -1 -1 -1 -1 -1 -1 -1 -1
 NAtoms=      9 NQM=        9 NQMF=       0 NMMI=      0 NMMIF=      0
                NMic=       0 NMicF=      0.
                    Isotopes and Nuclear Properties:
 (Nuclear quadrupole moments (NQMom) in fm**2, nuclear magnetic moments (NMagM)
  in nuclear magnetons)

  Atom         1           2           3           4           5           6           7           8           9
 IAtWgt=          12          12          12          14           1           1           1           1          14
 AtmWgt=  12.0000000  12.0000000  12.0000000  14.0030740   1.0078250   1.0078250   1.0078250   1.0078250  14.0030740
 NucSpn=           0           0           0           2           1           1           1           1           2
 AtZEff=  -0.0000000  -0.0000000  -0.0000000  -0.0000000  -0.0000000  -0.0000000  -0.0000000  -0.0000000  -0.0000000
 NQMom=    0.0000000   0.0000000   0.0000000   2.0440000   0.0000000   0.0000000   0.0000000   0.0000000   2.0440000
 NMagM=    0.0000000   0.0000000   0.0000000   0.4037610   2.7928460   2.7928460   2.7928460   2.7928460   0.4037610
 AtZNuc=   6.0000000   6.0000000   6.0000000   7.0000000   1.0000000   1.0000000   1.0000000   1.0000000   7.0000000
 Leave Link  101 at Wed Oct 11 11:54:01 2023, MaxMem=  6710886400 cpu:               1.9 elap:               0.1
 (Enter /data0/home/software/g16/l202.exe)
                          Input orientation:                          
 ---------------------------------------------------------------------
 Center     Atomic      Atomic             Coordinates (Angstroms)
 Number     Number       Type             X           Y           Z
 ---------------------------------------------------------------------
      1          6           0        0.615790    0.975670   -0.000038
      2          6           0        1.140510   -0.286059   -0.000129
      3          6           0       -0.996301   -0.528220    0.000038
      4          7           0       -0.749304    0.804106    0.000002
      5          1           0       -1.444694    1.536566    0.000059
      6          1           0        1.072330    1.950299   -0.000084
      7          1           0        2.179575   -0.571919   -0.000223
      8          1           0       -1.995704   -0.931332    0.000107
      9          7           0        0.124804   -1.225815    0.000129
 ---------------------------------------------------------------------
                    Distance matrix (angstroms):
                    1          2          3          4          5
     1  C    0.000000
     2  C    1.366489   0.000000
     3  C    2.204659   2.150489   0.000000
     4  N    1.375833   2.181710   1.355028   0.000000
     5  H    2.135462   3.163106   2.112912   1.009983   0.000000
     6  H    1.076258   2.237397   3.228357   2.152233   2.550801
     7  H    2.200103   1.077670   3.176177   3.236013   4.192974
     8  H    3.233660   3.201908   1.077639   2.136646   2.528662
     9  N    2.255572   1.383763   1.320422   2.210123   3.177117
                    6          7          8          9
     6  H    0.000000
     7  H    2.754555   0.000000
     8  H    4.209113   4.190720   0.000000
     9  N    3.314439   2.156308   2.140858   0.000000
 Stoichiometry    C3H4N2
 Framework group  C1[X(C3H4N2)]
 Deg. of freedom    21
 Full point group                 C1      NOp   1
 Largest Abelian subgroup         C1      NOp   1
 Largest concise Abelian subgroup C1      NOp   1
                         Standard orientation:                         
 ---------------------------------------------------------------------
 Center     Atomic      Atomic             Coordinates (Angstroms)
 Number     Number       Type             X           Y           Z
 ---------------------------------------------------------------------
      1          6           0       -0.615789    0.975671    0.000038
      2          6           0       -1.140510   -0.286058    0.000129
      3          6           0        0.996301   -0.528221   -0.000038
      4          7           0        0.749305    0.804106   -0.000002
      5          1           0        1.444695    1.536565   -0.000059
      6          1           0       -1.072329    1.950300    0.000084
      7          1           0       -2.179575   -0.571917    0.000223
      8          1           0        1.995703   -0.931333   -0.000107
      9          7           0       -0.124805   -1.225815   -0.000129
 ---------------------------------------------------------------------
 Rotational constants (GHZ):           9.7145345           9.4639618           4.7938056
 Leave Link  202 at Wed Oct 11 11:54:01 2023, MaxMem=  6710886400 cpu:               0.1 elap:               0.0
 (Enter /data0/home/software/g16/l301.exe)
 Standard basis: 6-31G(d) (6D, 7F)
 Ernie: Thresh=  0.10000D-02 Tol=  0.10000D-05 Strict=F.
 There are    83 symmetry adapted cartesian basis functions of A   symmetry.
 There are    83 symmetry adapted basis functions of A   symmetry.
    83 basis functions,   156 primitive gaussians,    83 cartesian basis functions
    18 alpha electrons       18 beta electrons
       nuclear repulsion energy       163.3043287477 Hartrees.
 IExCor= 3428 DFT=T Ex+Corr=M052X ExCW=0 ScaHFX=  0.560000
 ScaDFX=  0.440000  0.440000  1.000000  1.000000 ScalE2=  1.000000  1.000000
 IRadAn=      5 IRanWt=     -1 IRanGd=            0 ICorTp=0 IEmpDi=  4
 NAtoms=    9 NActive=    9 NUniq=    9 SFac= 1.00D+00 NAtFMM=   60 NAOKFM=F Big=F
 Integral buffers will be    131072 words long.
 Raffenetti 2 integral format.
 Two-electron integral symmetry is turned on.
 ------------------------------------------------------------------------------
 Polarizable Continuum Model (PCM)
 =================================
 Model                : PCM.
 Atomic radii         : SMD-Coulomb.
 Polarization charges : Total charges.
 Charge compensation  : None.
 Solution method      : On-the-fly selection.
 Cavity type          : VdW (van der Waals Surface) (Alpha=1.000).
 Cavity algorithm     : GePol (No added spheres)
                        Default sphere list used, NSphG=    9.
                        Lebedev-Laikov grids with approx.  5.0 points / Ang**2.
                        Smoothing algorithm: York/Karplus (Gamma=1.0000).
                        Polarization charges: spherical gaussians, with
                                              point-specific exponents (IZeta= 3).
                        Self-potential: point-specific (ISelfS= 7).
                        Self-field    : sphere-specific E.n sum rule (ISelfD= 2).
 Solvent              : Water, Eps=  78.355300 Eps(inf)=   1.777849
 ------------------------------------------------------------------------------
 Spheres list:
 ISph  on   Nord     Re0    Alpha      Xe            Ye            Ze
    1   C      1    1.8500  1.000     -0.615789      0.975671      0.000038
    2   C      2    1.8500  1.000     -1.140510     -0.286058      0.000129
    3   C      3    1.8500  1.000      0.996301     -0.528221     -0.000038
    4   N      4    1.8900  1.000      0.749305      0.804106     -0.000002
    5   H      5    1.2000  1.000      1.444695      1.536565     -0.000059
    6   H      6    1.2000  1.000     -1.072329      1.950300      0.000084
    7   H      7    1.2000  1.000     -2.179575     -0.571917      0.000223
    8   H      8    1.2000  1.000      1.995703     -0.931333     -0.000107
    9   N      9    1.8900  1.000     -0.124805     -1.225815     -0.000129
 ------------------------------------------------------------------------------
 GePol: Number of generator spheres                  =       9
 GePol: Total number of spheres                      =       9
 GePol: Number of exposed spheres                    =       9 (100.00%)
 GePol: Number of points                             =     842
 GePol: Average weight of points                     =       0.11
 GePol: Minimum weight of points                     =   0.87D-09
 GePol: Maximum weight of points                     =    0.17992
 GePol: Number of points with low weight             =      35
 GePol: Fraction of low-weight points (<1% of avg)   =       4.16%
 GePol: Cavity surface area                          =     96.051 Ang**2
 GePol: Cavity volume                                =     77.893 Ang**3
 ------------------------------------------------------------------------------
 Atomic radii for non-electrostatic terms: SMD-CDS.
 ------------------------------------------------------------------------------
 PCM non-electrostatic energy =         0.0023798500 Hartrees.
 Nuclear repulsion after PCM non-electrostatic terms =      163.3067085977 Hartrees.
 Leave Link  301 at Wed Oct 11 11:54:01 2023, MaxMem=  6710886400 cpu:               1.4 elap:               0.1
 (Enter /data0/home/software/g16/l302.exe)
 NPDir=0 NMtPBC=     1 NCelOv=     1 NCel=       1 NClECP=     1 NCelD=      1
         NCelK=      1 NCelE2=     1 NClLst=     1 CellRange=     0.0.
 One-electron integrals computed using PRISM.
 One-electron integral symmetry used in STVInt
 NBasis=    83 RedAO= T EigKep=  1.82D-03  NBF=    83
 NBsUse=    83 1.00D-06 EigRej= -1.00D+00 NBFU=    83
 Precomputing XC quadrature grid using
 IXCGrd= 4 IRadAn=           5 IRanWt=          -1 IRanGd=           0 AccXCQ= 0.00D+00.
 Generated NRdTot=       0 NPtTot=           0 NUsed=           0 NTot=          32
 NSgBfM=    83    83    83    83    83 MxSgAt=     9 MxSgA2=     9.
 Leave Link  302 at Wed Oct 11 11:54:01 2023, MaxMem=  6710886400 cpu:               2.5 elap:               0.1
 (Enter /data0/home/software/g16/l303.exe)
 DipDrv:  MaxL=1.
 Leave Link  303 at Wed Oct 11 11:54:01 2023, MaxMem=  6710886400 cpu:               0.4 elap:               0.0
 (Enter /data0/home/software/g16/l401.exe)
 ExpMin= 1.61D-01 ExpMax= 4.17D+03 ExpMxC= 6.27D+02 IAcc=3 IRadAn=         5 AccDes= 0.00D+00
 Harris functional with IExCor= 1009 and IRadAn=       5 diagonalized for initial guess.
 HarFok:  IExCor= 1009 AccDes= 0.00D+00 IRadAn=         5 IDoV= 1 UseB2=F ITyADJ=14
 ICtDFT=  3500011 ScaDFX=  1.000000  1.000000  1.000000  1.000000
 FoFCou: FMM=F IPFlag=           0 FMFlag=      100000 FMFlg1=           0
         NFxFlg=           0 DoJE=T BraDBF=F KetDBF=T FulRan=T
         wScrn=  0.000000 ICntrl=       500 IOpCl=  0 I1Cent=   200000004 NGrid=           0
         NMat0=    1 NMatS0=      1 NMatT0=    0 NMatD0=    1 NMtDS0=    0 NMtDT0=    0
 Petite list used in FoFCou.
 Harris En= -225.988131200943    
 JPrj=0 DoOrth=F DoCkMO=F.
 Leave Link  401 at Wed Oct 11 11:54:01 2023, MaxMem=  6710886400 cpu:               4.2 elap:               0.2
 (Enter /data0/home/software/g16/l502.exe)
 Keep R1 ints in memory in canonical form, NReq=27808369.
 FoFCou: FMM=F IPFlag=           0 FMFlag=           0 FMFlg1=           0
         NFxFlg=           0 DoJE=F BraDBF=F KetDBF=F FulRan=T
         wScrn=  0.000000 ICntrl=       600 IOpCl=  0 I1Cent=           0 NGrid=           0
         NMat0=    1 NMatS0=   3486 NMatT0=    0 NMatD0=    1 NMtDS0=    0 NMtDT0=    0
 Symmetry not used in FoFCou.
 Two-electron integral symmetry not used.
 Closed shell SCF:
 Using DIIS extrapolation, IDIIS=  1040.
 NGot=  6710886400 LenX=  6704791747 LenY=  6704784417
 Requested convergence on RMS density matrix=1.00D-08 within 128 cycles.
 Requested convergence on MAX density matrix=1.00D-06.
 Requested convergence on             energy=1.00D-06.
 No special actions if energy rises.

 Cycle   1  Pass 1  IDiag  1:
 Inv3:  Mode=1 IEnd=     2126892.
 Iteration    1 A*A^-1 deviation from unit magnitude is 3.55D-15 for    830.
 Iteration    1 A*A^-1 deviation from orthogonality  is 1.27D-15 for    478     22.
 Iteration    1 A^-1*A deviation from unit magnitude is 3.55D-15 for    830.
 Iteration    1 A^-1*A deviation from orthogonality  is 1.70D-15 for    806    216.
 E= -226.121889681922    
 DIIS: error= 3.01D-02 at cycle   1 NSaved=   1.
 NSaved= 1 IEnMin= 1 EnMin= -226.121889681922     IErMin= 1 ErrMin= 3.01D-02
 ErrMax= 3.01D-02  0.00D+00 EMaxC= 1.00D-01 BMatC= 8.71D-02 BMatP= 8.71D-02
 IDIUse=3 WtCom= 6.99D-01 WtEn= 3.01D-01
 Coeff-Com:  0.100D+01
 Coeff-En:   0.100D+01
 Coeff:      0.100D+01
 Gap=     0.356 Goal=   None    Shift=    0.000
 GapD=    0.356 DampG=1.000 DampE=0.500 DampFc=0.5000 IDamp=-1.
 Damping current iteration by 5.00D-01
 RMSDP=6.01D-03 MaxDP=9.33D-02              OVMax= 1.16D-01

 Cycle   2  Pass 1  IDiag  1:
 E= -226.164653668772     Delta-E=       -0.042763986850 Rises=F Damp=T
 DIIS: error= 1.13D-02 at cycle   2 NSaved=   2.
 NSaved= 2 IEnMin= 2 EnMin= -226.164653668772     IErMin= 2 ErrMin= 1.13D-02
 ErrMax= 1.13D-02  0.00D+00 EMaxC= 1.00D-01 BMatC= 8.89D-03 BMatP= 8.71D-02
 IDIUse=3 WtCom= 8.87D-01 WtEn= 1.13D-01
 Coeff-Com: -0.185D+00 0.119D+01
 Coeff-En:   0.000D+00 0.100D+01
 Coeff:     -0.164D+00 0.116D+01
 Gap=     0.370 Goal=   None    Shift=    0.000
 RMSDP=1.37D-03 MaxDP=1.94D-02 DE=-4.28D-02 OVMax= 5.88D-02

 Cycle   3  Pass 1  IDiag  1:
 E= -226.201614241127     Delta-E=       -0.036960572355 Rises=F Damp=F
 DIIS: error= 4.99D-03 at cycle   3 NSaved=   3.
 NSaved= 3 IEnMin= 3 EnMin= -226.201614241127     IErMin= 3 ErrMin= 4.99D-03
 ErrMax= 4.99D-03  0.00D+00 EMaxC= 1.00D-01 BMatC= 2.12D-03 BMatP= 8.89D-03
 IDIUse=3 WtCom= 9.50D-01 WtEn= 4.99D-02
 Coeff-Com: -0.113D+00 0.405D+00 0.708D+00
 Coeff-En:   0.000D+00 0.000D+00 0.100D+01
 Coeff:     -0.108D+00 0.385D+00 0.723D+00
 Gap=     0.368 Goal=   None    Shift=    0.000
 RMSDP=5.80D-04 MaxDP=1.39D-02 DE=-3.70D-02 OVMax= 2.11D-02

 Cycle   4  Pass 1  IDiag  1:
 E= -226.202982794821     Delta-E=       -0.001368553694 Rises=F Damp=F
 DIIS: error= 1.88D-03 at cycle   4 NSaved=   4.
 NSaved= 4 IEnMin= 4 EnMin= -226.202982794821     IErMin= 4 ErrMin= 1.88D-03
 ErrMax= 1.88D-03  0.00D+00 EMaxC= 1.00D-01 BMatC= 5.30D-04 BMatP= 2.12D-03
 IDIUse=3 WtCom= 9.81D-01 WtEn= 1.88D-02
 Coeff-Com: -0.304D-01 0.713D-01 0.362D+00 0.597D+00
 Coeff-En:   0.000D+00 0.000D+00 0.177D+00 0.823D+00
 Coeff:     -0.298D-01 0.700D-01 0.358D+00 0.602D+00
 Gap=     0.368 Goal=   None    Shift=    0.000
 RMSDP=2.17D-04 MaxDP=3.90D-03 DE=-1.37D-03 OVMax= 6.95D-03

 Cycle   5  Pass 1  IDiag  1:
 E= -226.203424432510     Delta-E=       -0.000441637689 Rises=F Damp=F
 DIIS: error= 3.38D-04 at cycle   5 NSaved=   5.
 NSaved= 5 IEnMin= 5 EnMin= -226.203424432510     IErMin= 5 ErrMin= 3.38D-04
 ErrMax= 3.38D-04  0.00D+00 EMaxC= 1.00D-01 BMatC= 7.58D-06 BMatP= 5.30D-04
 IDIUse=3 WtCom= 9.97D-01 WtEn= 3.38D-03
 Coeff-Com: -0.491D-02 0.708D-02 0.844D-01 0.186D+00 0.727D+00
 Coeff-En:   0.000D+00 0.000D+00 0.000D+00 0.000D+00 0.100D+01
 Coeff:     -0.490D-02 0.705D-02 0.841D-01 0.186D+00 0.728D+00
 Gap=     0.368 Goal=   None    Shift=    0.000
 RMSDP=3.80D-05 MaxDP=6.71D-04 DE=-4.42D-04 OVMax= 9.84D-04

 Cycle   6  Pass 1  IDiag  1:
 E= -226.203430533129     Delta-E=       -0.000006100619 Rises=F Damp=F
 DIIS: error= 1.10D-04 at cycle   6 NSaved=   6.
 NSaved= 6 IEnMin= 6 EnMin= -226.203430533129     IErMin= 6 ErrMin= 1.10D-04
 ErrMax= 1.10D-04  0.00D+00 EMaxC= 1.00D-01 BMatC= 1.20D-06 BMatP= 7.58D-06
 IDIUse=3 WtCom= 9.99D-01 WtEn= 1.10D-03
 Coeff-Com: -0.303D-03-0.148D-02 0.152D-01 0.435D-01 0.328D+00 0.615D+00
 Coeff-En:   0.000D+00 0.000D+00 0.000D+00 0.000D+00 0.000D+00 0.100D+01
 Coeff:     -0.302D-03-0.148D-02 0.152D-01 0.435D-01 0.328D+00 0.615D+00
 Gap=     0.368 Goal=   None    Shift=    0.000
 RMSDP=1.20D-05 MaxDP=2.10D-04 DE=-6.10D-06 OVMax= 3.12D-04

 Cycle   7  Pass 1  IDiag  1:
 E= -226.203431585892     Delta-E=       -0.000001052763 Rises=F Damp=F
 DIIS: error= 1.76D-05 at cycle   7 NSaved=   7.
 NSaved= 7 IEnMin= 7 EnMin= -226.203431585892     IErMin= 7 ErrMin= 1.76D-05
 ErrMax= 1.76D-05  0.00D+00 EMaxC= 1.00D-01 BMatC= 2.26D-08 BMatP= 1.20D-06
 IDIUse=1 WtCom= 1.00D+00 WtEn= 0.00D+00
 Coeff-Com:  0.543D-03-0.105D-02-0.778D-02-0.181D-01-0.444D-01 0.397D-01
 Coeff-Com:  0.103D+01
 Coeff:      0.543D-03-0.105D-02-0.778D-02-0.181D-01-0.444D-01 0.397D-01
 Coeff:      0.103D+01
 Gap=     0.368 Goal=   None    Shift=    0.000
 RMSDP=5.21D-06 MaxDP=6.71D-05 DE=-1.05D-06 OVMax= 1.15D-04

 Cycle   8  Pass 1  IDiag  1:
 E= -226.203431627567     Delta-E=       -0.000000041675 Rises=F Damp=F
 DIIS: error= 3.90D-06 at cycle   8 NSaved=   8.
 NSaved= 8 IEnMin= 8 EnMin= -226.203431627567     IErMin= 8 ErrMin= 3.90D-06
 ErrMax= 3.90D-06  0.00D+00 EMaxC= 1.00D-01 BMatC= 3.02D-09 BMatP= 2.26D-08
 IDIUse=1 WtCom= 1.00D+00 WtEn= 0.00D+00
 Coeff-Com:  0.203D-03-0.348D-03-0.325D-02-0.813D-02-0.250D-01-0.664D-02
 Coeff-Com:  0.394D+00 0.649D+00
 Coeff:      0.203D-03-0.348D-03-0.325D-02-0.813D-02-0.250D-01-0.664D-02
 Coeff:      0.394D+00 0.649D+00
 Gap=     0.368 Goal=   None    Shift=    0.000
 RMSDP=8.13D-07 MaxDP=9.35D-06 DE=-4.17D-08 OVMax= 1.67D-05

 Cycle   9  Pass 1  IDiag  1:
 E= -226.203431630314     Delta-E=       -0.000000002747 Rises=F Damp=F
 DIIS: error= 2.03D-06 at cycle   9 NSaved=   9.
 NSaved= 9 IEnMin= 9 EnMin= -226.203431630314     IErMin= 9 ErrMin= 2.03D-06
 ErrMax= 2.03D-06  0.00D+00 EMaxC= 1.00D-01 BMatC= 2.99D-10 BMatP= 3.02D-09
 IDIUse=1 WtCom= 1.00D+00 WtEn= 0.00D+00
 Coeff-Com: -0.614D-04 0.132D-03 0.735D-03 0.129D-02 0.252D-02-0.125D-01
 Coeff-Com: -0.842D-01 0.189D+00 0.903D+00
 Coeff:     -0.614D-04 0.132D-03 0.735D-03 0.129D-02 0.252D-02-0.125D-01
 Coeff:     -0.842D-01 0.189D+00 0.903D+00
 Gap=     0.368 Goal=   None    Shift=    0.000
 RMSDP=3.45D-07 MaxDP=4.78D-06 DE=-2.75D-09 OVMax= 1.31D-05

 Cycle  10  Pass 1  IDiag  1:
 E= -226.203431630735     Delta-E=       -0.000000000421 Rises=F Damp=F
 DIIS: error= 2.16D-07 at cycle  10 NSaved=  10.
 NSaved=10 IEnMin=10 EnMin= -226.203431630735     IErMin=10 ErrMin= 2.16D-07
 ErrMax= 2.16D-07  0.00D+00 EMaxC= 1.00D-01 BMatC= 4.98D-12 BMatP= 2.99D-10
 IDIUse=1 WtCom= 1.00D+00 WtEn= 0.00D+00
 Coeff-Com: -0.368D-05 0.592D-05 0.829D-04 0.200D-03 0.763D-03-0.292D-03
 Coeff-Com: -0.953D-02-0.285D-01-0.198D-01 0.106D+01
 Coeff:     -0.368D-05 0.592D-05 0.829D-04 0.200D-03 0.763D-03-0.292D-03
 Coeff:     -0.953D-02-0.285D-01-0.198D-01 0.106D+01
 Gap=     0.368 Goal=   None    Shift=    0.000
 RMSDP=6.42D-08 MaxDP=8.38D-07 DE=-4.21D-10 OVMax= 2.33D-06

 Cycle  11  Pass 1  IDiag  1:
 E= -226.203431630748     Delta-E=       -0.000000000013 Rises=F Damp=F
 DIIS: error= 1.38D-07 at cycle  11 NSaved=  11.
 NSaved=11 IEnMin=11 EnMin= -226.203431630748     IErMin=11 ErrMin= 1.38D-07
 ErrMax= 1.38D-07  0.00D+00 EMaxC= 1.00D-01 BMatC= 7.68D-13 BMatP= 4.98D-12
 IDIUse=1 WtCom= 1.00D+00 WtEn= 0.00D+00
 Coeff-Com:  0.263D-05-0.616D-05-0.166D-04-0.141D-04 0.111D-03 0.449D-03
 Coeff-Com:  0.235D-02-0.185D-01-0.549D-01 0.299D+00 0.771D+00
 Coeff:      0.263D-05-0.616D-05-0.166D-04-0.141D-04 0.111D-03 0.449D-03
 Coeff:      0.235D-02-0.185D-01-0.549D-01 0.299D+00 0.771D+00
 Gap=     0.368 Goal=   None    Shift=    0.000
 RMSDP=1.64D-08 MaxDP=2.94D-07 DE=-1.33D-11 OVMax= 6.29D-07

 Cycle  12  Pass 1  IDiag  1:
 E= -226.203431630750     Delta-E=       -0.000000000002 Rises=F Damp=F
 DIIS: error= 4.33D-08 at cycle  12 NSaved=  12.
 NSaved=12 IEnMin=12 EnMin= -226.203431630750     IErMin=12 ErrMin= 4.33D-08
 ErrMax= 4.33D-08  0.00D+00 EMaxC= 1.00D-01 BMatC= 1.68D-13 BMatP= 7.68D-13
 IDIUse=1 WtCom= 1.00D+00 WtEn= 0.00D+00
 Coeff-Com:  0.171D-05-0.357D-05-0.202D-04-0.359D-04-0.678D-04 0.175D-03
 Coeff-Com:  0.254D-02-0.372D-02-0.211D-01-0.465D-01 0.323D+00 0.746D+00
 Coeff:      0.171D-05-0.357D-05-0.202D-04-0.359D-04-0.678D-04 0.175D-03
 Coeff:      0.254D-02-0.372D-02-0.211D-01-0.465D-01 0.323D+00 0.746D+00
 Gap=     0.368 Goal=   None    Shift=    0.000
 RMSDP=6.14D-09 MaxDP=7.50D-08 DE=-1.59D-12 OVMax= 2.26D-07

 Error on total polarization charges =  0.01903
 SCF Done:  E(RM052X) =  -226.203431631     A.U. after   12 cycles
            NFock= 12  Conv=0.61D-08     -V/T= 2.0094
 KE= 2.241054772600D+02 PE=-8.524328084744D+02 EE= 2.388171909860D+02
 SMD-CDS (non-electrostatic) energy       (kcal/mol) =       1.49
 (included in total energy above)
 Leave Link  502 at Wed Oct 11 11:54:04 2023, MaxMem=  6710886400 cpu:              71.3 elap:               3.2
 (Enter /data0/home/software/g16/l601.exe)
 Copying SCF densities to generalized density rwf, IOpCl= 0 IROHF=0.

 **********************************************************************

            Population analysis using the SCF density.

 **********************************************************************

 Orbital symmetries:
       Occupied  (A) (A) (A) (A) (A) (A) (A) (A) (A) (A) (A) (A)
                 (A) (A) (A) (A) (A) (A)
       Virtual   (A) (A) (A) (A) (A) (A) (A) (A) (A) (A) (A) (A)
                 (A) (A) (A) (A) (A) (A) (A) (A) (A) (A) (A) (A)
                 (A) (A) (A) (A) (A) (A) (A) (A) (A) (A) (A) (A)
                 (A) (A) (A) (A) (A) (A) (A) (A) (A) (A) (A) (A)
                 (A) (A) (A) (A) (A) (A) (A) (A) (A) (A) (A) (A)
                 (A) (A) (A) (A) (A)
 The electronic state is 1-A.
 Alpha  occ. eigenvalues --  -14.85031 -14.77853 -10.62390 -10.59665 -10.58120
 Alpha  occ. eigenvalues --   -1.13158  -0.97217  -0.84461  -0.69451  -0.67269
 Alpha  occ. eigenvalues --   -0.63987  -0.50861  -0.50585  -0.49972  -0.47406
 Alpha  occ. eigenvalues --   -0.34638  -0.34191  -0.28361
 Alpha virt. eigenvalues --    0.08459   0.11978   0.17013   0.21530   0.23312
 Alpha virt. eigenvalues --    0.23993   0.27816   0.30319   0.36514   0.40565
 Alpha virt. eigenvalues --    0.52489   0.56995   0.60021   0.64603   0.64979
 Alpha virt. eigenvalues --    0.67941   0.69996   0.70271   0.71773   0.73753
 Alpha virt. eigenvalues --    0.83530   0.86945   0.88935   0.89574   0.92669
 Alpha virt. eigenvalues --    0.96205   0.98582   1.00782   1.06450   1.08518
 Alpha virt. eigenvalues --    1.24678   1.31111   1.36539   1.39864   1.43776
 Alpha virt. eigenvalues --    1.46123   1.52210   1.58020   1.63146   1.64553
 Alpha virt. eigenvalues --    1.82868   1.94187   2.08313   2.10910   2.15583
 Alpha virt. eigenvalues --    2.20198   2.27062   2.31000   2.34685   2.36107
 Alpha virt. eigenvalues --    2.40891   2.47041   2.62079   2.64895   2.67374
 Alpha virt. eigenvalues --    2.76385   2.79704   3.01728   3.05807   3.13132
 Alpha virt. eigenvalues --    3.90294   4.01693   4.18399   4.28648   4.42631
          Condensed to atoms (all electrons):
               1          2          3          4          5          6
     1  C    4.942846   0.601096  -0.111483   0.369777  -0.021257   0.374967
     2  C    0.601096   4.910144  -0.125479  -0.077304   0.004960  -0.028850
     3  C   -0.111483  -0.125479   4.772553   0.391121  -0.019959   0.004535
     4  N    0.369777  -0.077304   0.391121   6.758273   0.311461  -0.037435
     5  H   -0.021257   0.004960  -0.019959   0.311461   0.300139  -0.001233
     6  H    0.374967  -0.028850   0.004535  -0.037435  -0.001233   0.447911
     7  H   -0.044997   0.389764   0.006290   0.003390  -0.000063  -0.000054
     8  H    0.003762   0.005075   0.391407  -0.045770  -0.000534  -0.000064
     9  N   -0.078332   0.443721   0.529917  -0.093278   0.004272   0.003957
               7          8          9
     1  C   -0.044997   0.003762  -0.078332
     2  C    0.389764   0.005075   0.443721
     3  C    0.006290   0.391407   0.529917
     4  N    0.003390  -0.045770  -0.093278
     5  H   -0.000063  -0.000534   0.004272
     6  H   -0.000054  -0.000064   0.003957
     7  H    0.480922  -0.000103  -0.038457
     8  H   -0.000103   0.445572  -0.035822
     9  N   -0.038457  -0.035822   6.783645
 Mulliken charges:
               1
     1  C   -0.036380
     2  C   -0.123125
     3  C    0.161098
     4  N   -0.580235
     5  H    0.422213
     6  H    0.236266
     7  H    0.203308
     8  H    0.236477
     9  N   -0.519623
 Sum of Mulliken charges =  -0.00000
 Mulliken charges with hydrogens summed into heavy atoms:
               1
     1  C    0.199887
     2  C    0.080183
     3  C    0.397575
     4  N   -0.158022
     9  N   -0.519623
 Electronic spatial extent (au):  <R**2>=            282.7962
 Charge=              0.0000 electrons
 Dipole moment (field-independent basis, Debye):
    X=              2.2536    Y=              4.6687    Z=              0.0002  Tot=              5.1842
 Quadrupole moment (field-independent basis, Debye-Ang):
   XX=            -20.8862   YY=            -28.5299   ZZ=            -31.5928
   XY=              0.6836   XZ=             -0.0008   YZ=             -0.0006
 Traceless Quadrupole moment (field-independent basis, Debye-Ang):
   XX=              6.1167   YY=             -1.5269   ZZ=             -4.5898
   XY=              0.6836   XZ=             -0.0008   YZ=             -0.0006
 Octapole moment (field-independent basis, Debye-Ang**2):
  XXX=              8.3531  YYY=             23.9446  ZZZ=             -0.0004  XYY=              5.5163
  XXY=              2.5559  XXZ=              0.0003  XZZ=              1.7686  YZZ=              0.7276
  YYZ=              0.0005  XYZ=              0.0001
 Hexadecapole moment (field-independent basis, Debye-Ang**3):
 XXXX=           -137.1593 YYYY=           -164.7650 ZZZZ=            -30.9828 XXXY=              6.8545
 XXXZ=              0.0012 YYYX=              2.1276 YYYZ=             -0.0046 ZZZX=              0.0051
 ZZZY=             -0.0036 XXYY=            -40.9932 XXZZ=            -36.8914 YYZZ=            -35.5594
 XXYZ=             -0.0013 YYXZ=              0.0002 ZZXY=              1.1217
 N-N= 1.633067085977D+02 E-N=-8.524328080243D+02  KE= 2.241054772600D+02
 No NMR shielding tensors so no spin-rotation constants.
 Leave Link  601 at Wed Oct 11 11:54:04 2023, MaxMem=  6710886400 cpu:               1.8 elap:               0.1
 (Enter /data0/home/software/g16/l9999.exe)
 1\1\GINC-LOCALHOST\SP\RM052X\6-31G(d)\C3H4N2\WUHANYU\11-Oct-2023\0\\#p
  M052X/6-31G* scrf=(smd,solvent=water)\\Title Card Required\\0,1\C,0,0
 .61579,0.97567,-0.000038\C,0,1.14051,-0.286059,-0.000129\C,0,-0.996301
 ,-0.52822,0.000038\N,0,-0.749304,0.804106,0.000002\H,0,-1.444694,1.536
 566,0.000059\H,0,1.07233,1.950299,-0.000084\H,0,2.179575,-0.571919,-0.
 000223\H,0,-1.995704,-0.931332,0.000107\N,0,0.124804,-1.225815,0.00012
 9\\Version=ES64L-G16RevA.03\State=1-A\HF=-226.2034316\RMSD=6.143e-09\D
 ipole=-0.8866347,1.8368268,-0.0000822\Quadrupole=4.5476264,-1.1352043,
 -3.4124221,-0.5082551,-0.0005865,0.0004266\PG=C01 [X(C3H4N2)]\\@


 HEAVEN'S NET CASTS WIDE.
 THOUGH ITS MESHES ARE COARSE, NOTHING SLIPS THROUGH.

                                          -- LAO-TSU
 Job cpu time:       0 days  0 hours  1 minutes 25.1 seconds.
 Elapsed time:       0 days  0 hours  0 minutes  3.9 seconds.
 File lengths (MBytes):  RWF=     19 Int=      0 D2E=      0 Chk=      2 Scr=      1
 Normal termination of Gaussian 16 at Wed Oct 11 11:54:04 2023.
