 Entering Gaussian System, Link 0=g16
 Initial command:
 /data0/home/software/g16/l1.exe "/data0/home/software/g16/scratch/Gau-2485011.inp" -scrdir="/data0/home/software/g16/scratch/"
 Default is to use a total of  22 processors:
                               22 via shared-memory
                                1 via Linda
 Entering Link 1 = /data0/home/software/g16/l1.exe PID=   2485012.
  
 Copyright (c) 1988,1990,1992,1993,1995,1998,2003,2009,2016,
            Gaussian, Inc.  All Rights Reserved.
  
 This is part of the Gaussian(R) 16 program.  It is based on
 the Gaussian(R) 09 system (copyright 2009, Gaussian, Inc.),
 the Gaussian(R) 03 system (copyright 2003, Gaussian, Inc.),
 the Gaussian(R) 98 system (copyright 1998, Gaussian, Inc.),
 the Gaussian(R) 94 system (copyright 1995, Gaussian, Inc.),
 the Gaussian 92(TM) system (copyright 1992, Gaussian, Inc.),
 the Gaussian 90(TM) system (copyright 1990, Gaussian, Inc.),
 the Gaussian 88(TM) system (copyright 1988, Gaussian, Inc.),
 the Gaussian 86(TM) system (copyright 1986, Carnegie Mellon
 University), and the Gaussian 82(TM) system (copyright 1983,
 Carnegie Mellon University). Gaussian is a federally registered
 trademark of Gaussian, Inc.
  
 This software contains proprietary and confidential information,
 including trade secrets, belonging to Gaussian, Inc.
  
 This software is provided under written license and may be
 used, copied, transmitted, or stored only in accord with that
 written license.
  
 The following legend is applicable only to US Government
 contracts under FAR:
  
                    RESTRICTED RIGHTS LEGEND
  
 Use, reproduction and disclosure by the US Government is
 subject to restrictions as set forth in subparagraphs (a)
 and (c) of the Commercial Computer Software - Restricted
 Rights clause in FAR 52.227-19.
  
 Gaussian, Inc.
 340 Quinnipiac St., Bldg. 40, Wallingford CT 06492
  
  
 ---------------------------------------------------------------
 Warning -- This program may not be used in any manner that
 competes with the business of Gaussian, Inc. or will provide
 assistance to any competitor of Gaussian, Inc.  The licensee
 of this program is prohibited from giving any competitor of
 Gaussian, Inc. access to this program.  By using this program,
 the user acknowledges that Gaussian, Inc. is engaged in the
 business of creating and licensing software in the field of
 computational chemistry and represents and warrants to the
 licensee that it is not a competitor of Gaussian, Inc. and that
 it will not use this program in any manner prohibited above.
 ---------------------------------------------------------------
  

 Cite this work as:
 Gaussian 16, Revision A.03,
 M. J. Frisch, G. W. Trucks, H. B. Schlegel, G. E. Scuseria, 
 M. A. Robb, J. R. Cheeseman, G. Scalmani, V. Barone, 
 G. A. Petersson, H. Nakatsuji, X. Li, M. Caricato, A. V. Marenich, 
 J. Bloino, B. G. Janesko, R. Gomperts, B. Mennucci, H. P. Hratchian, 
 J. V. Ortiz, A. F. Izmaylov, J. L. Sonnenberg, D. Williams-Young, 
 F. Ding, F. Lipparini, F. Egidi, J. Goings, B. Peng, A. Petrone, 
 T. Henderson, D. Ranasinghe, V. G. Zakrzewski, J. Gao, N. Rega, 
 G. Zheng, W. Liang, M. Hada, M. Ehara, K. Toyota, R. Fukuda, 
 J. Hasegawa, M. Ishida, T. Nakajima, Y. Honda, O. Kitao, H. Nakai, 
 T. Vreven, K. Throssell, J. A. Montgomery, Jr., J. E. Peralta, 
 F. Ogliaro, M. J. Bearpark, J. J. Heyd, E. N. Brothers, K. N. Kudin, 
 V. N. Staroverov, T. A. Keith, R. Kobayashi, J. Normand, 
 K. Raghavachari, A. P. Rendell, J. C. Burant, S. S. Iyengar, 
 J. Tomasi, M. Cossi, J. M. Millam, M. Klene, C. Adamo, R. Cammi, 
 J. W. Ochterski, R. L. Martin, K. Morokuma, O. Farkas, 
 J. B. Foresman, and D. J. Fox, Gaussian, Inc., Wallingford CT, 2016.
 
 ******************************************
 Gaussian 16:  ES64L-G16RevA.03 25-Dec-2016
                11-Oct-2023 
 ******************************************
 %nprocshared=24
 Will use up to   24 processors via shared memory.
 %mem=50GB
 -----------------------------------------------------------------
 #p opt freq b3lyp/6-311+g(2d,p) scrf=(smd,solvent=water) em=gd3bj
 -----------------------------------------------------------------
 1/18=20,19=15,26=3,38=1/1,3;
 2/9=110,12=2,17=6,18=5,40=1/2;
 3/5=4,6=6,7=112,11=2,25=1,30=1,70=32201,71=1,72=1,74=-5,124=41/1,2,3;
 4//1;
 5/5=2,38=5,53=1/2;
 6/7=2,8=2,9=2,10=2,28=1/1;
 7//1,2,3,16;
 1/18=20,19=15,26=3/3(2);
 2/9=110/2;
 99//99;
 2/9=110/2;
 3/5=4,6=6,7=112,11=2,25=1,30=1,70=32205,71=1,72=1,74=-5,124=41/1,2,3;
 4/5=5,16=3,69=1/1;
 5/5=2,38=5,53=1/2;
 7//1,2,3,16;
 1/18=20,19=15,26=3/3(-5);
 2/9=110/2;
 6/7=2,8=2,9=2,10=2,19=2,28=1/1;
 99/9=1/99;
 Leave Link    1 at Wed Oct 11 11:52:12 2023, MaxMem=  6710886400 cpu:               0.9 elap:               0.0
 (Enter /data0/home/software/g16/l101.exe)
 -------------------
 Title Card Required
 -------------------
 Symbolic Z-matrix:
 Charge =  0 Multiplicity = 1
 C                     0.60413   0.98243  -0.00007 
 C                     1.14181  -0.27358  -0.00003 
 C                    -0.98839  -0.53871   0.0001 
 N                    -0.75802   0.79626   0.00004 
 H                    -1.46222   1.52061   0.00014 
 H                     1.05112   1.96187  -0.00013 
 H                     2.18437  -0.54749  -0.00008 
 H                    -1.9835   -0.9531    0.00017 
 N                     0.13872  -1.22523  -0.00005 
 
 ITRead=  0  0  0  0  0  0  0  0  0
 MicOpt= -1 -1 -1 -1 -1 -1 -1 -1 -1
 NAtoms=      9 NQM=        9 NQMF=       0 NMMI=      0 NMMIF=      0
                NMic=       0 NMicF=      0.
                    Isotopes and Nuclear Properties:
 (Nuclear quadrupole moments (NQMom) in fm**2, nuclear magnetic moments (NMagM)
  in nuclear magnetons)

  Atom         1           2           3           4           5           6           7           8           9
 IAtWgt=          12          12          12          14           1           1           1           1          14
 AtmWgt=  12.0000000  12.0000000  12.0000000  14.0030740   1.0078250   1.0078250   1.0078250   1.0078250  14.0030740
 NucSpn=           0           0           0           2           1           1           1           1           2
 AtZEff=  -0.0000000  -0.0000000  -0.0000000  -0.0000000  -0.0000000  -0.0000000  -0.0000000  -0.0000000  -0.0000000
 NQMom=    0.0000000   0.0000000   0.0000000   2.0440000   0.0000000   0.0000000   0.0000000   0.0000000   2.0440000
 NMagM=    0.0000000   0.0000000   0.0000000   0.4037610   2.7928460   2.7928460   2.7928460   2.7928460   0.4037610
 AtZNuc=   6.0000000   6.0000000   6.0000000   7.0000000   1.0000000   1.0000000   1.0000000   1.0000000   7.0000000
 Leave Link  101 at Wed Oct 11 11:52:12 2023, MaxMem=  6710886400 cpu:               9.3 elap:               0.4
 (Enter /data0/home/software/g16/l103.exe)

 GradGradGradGradGradGradGradGradGradGradGradGradGradGradGradGradGradGrad
 Berny optimization.
 Initialization pass.
                           ----------------------------
                           !    Initial Parameters    !
                           ! (Angstroms and Degrees)  !
 --------------------------                            --------------------------
 ! Name  Definition              Value          Derivative Info.                !
 --------------------------------------------------------------------------------
 ! R1    R(1,2)                  1.3663         estimate D2E/DX2                !
 ! R2    R(1,4)                  1.3748         estimate D2E/DX2                !
 ! R3    R(1,6)                  1.0766         estimate D2E/DX2                !
 ! R4    R(2,7)                  1.0779         estimate D2E/DX2                !
 ! R5    R(2,9)                  1.3827         estimate D2E/DX2                !
 ! R6    R(3,4)                  1.3547         estimate D2E/DX2                !
 ! R7    R(3,8)                  1.0779         estimate D2E/DX2                !
 ! R8    R(3,9)                  1.3197         estimate D2E/DX2                !
 ! R9    R(4,5)                  1.0102         estimate D2E/DX2                !
 ! A1    A(2,1,4)              105.3926         estimate D2E/DX2                !
 ! A2    A(2,1,6)              132.2939         estimate D2E/DX2                !
 ! A3    A(4,1,6)              122.3135         estimate D2E/DX2                !
 ! A4    A(1,2,7)              127.8959         estimate D2E/DX2                !
 ! A5    A(1,2,9)              110.3173         estimate D2E/DX2                !
 ! A6    A(7,2,9)              121.7868         estimate D2E/DX2                !
 ! A7    A(4,3,8)              122.3987         estimate D2E/DX2                !
 ! A8    A(4,3,9)              111.5549         estimate D2E/DX2                !
 ! A9    A(8,3,9)              126.0464         estimate D2E/DX2                !
 ! A10   A(1,4,3)              107.5732         estimate D2E/DX2                !
 ! A11   A(1,4,5)              126.4091         estimate D2E/DX2                !
 ! A12   A(3,4,5)              126.0177         estimate D2E/DX2                !
 ! A13   A(2,9,3)              105.1621         estimate D2E/DX2                !
 ! D1    D(4,1,2,7)           -179.999          estimate D2E/DX2                !
 ! D2    D(4,1,2,9)              0.0063         estimate D2E/DX2                !
 ! D3    D(6,1,2,7)             -0.001          estimate D2E/DX2                !
 ! D4    D(6,1,2,9)           -179.9956         estimate D2E/DX2                !
 ! D5    D(2,1,4,3)             -0.0015         estimate D2E/DX2                !
 ! D6    D(2,1,4,5)            179.9933         estimate D2E/DX2                !
 ! D7    D(6,1,4,3)           -179.9998         estimate D2E/DX2                !
 ! D8    D(6,1,4,5)             -0.005          estimate D2E/DX2                !
 ! D9    D(1,2,9,3)             -0.0086         estimate D2E/DX2                !
 ! D10   D(7,2,9,3)            179.9963         estimate D2E/DX2                !
 ! D11   D(8,3,4,1)           -179.9993         estimate D2E/DX2                !
 ! D12   D(8,3,4,5)              0.0058         estimate D2E/DX2                !
 ! D13   D(9,3,4,1)             -0.004          estimate D2E/DX2                !
 ! D14   D(9,3,4,5)           -179.9989         estimate D2E/DX2                !
 ! D15   D(4,3,9,2)              0.0077         estimate D2E/DX2                !
 ! D16   D(8,3,9,2)           -179.9972         estimate D2E/DX2                !
 --------------------------------------------------------------------------------
 Trust Radius=3.00D-01 FncErr=1.00D-07 GrdErr=1.00D-06 EigMax=2.50D+02 EigMin=1.00D-04
 Number of steps in this run=     48 maximum allowed number of steps=    100.
 GradGradGradGradGradGradGradGradGradGradGradGradGradGradGradGradGradGrad

 Leave Link  103 at Wed Oct 11 11:52:12 2023, MaxMem=  6710886400 cpu:               0.2 elap:               0.0
 (Enter /data0/home/software/g16/l202.exe)
                          Input orientation:                          
 ---------------------------------------------------------------------
 Center     Atomic      Atomic             Coordinates (Angstroms)
 Number     Number       Type             X           Y           Z
 ---------------------------------------------------------------------
      1          6           0        0.604130    0.982433   -0.000069
      2          6           0        1.141813   -0.273579   -0.000033
      3          6           0       -0.988386   -0.538711    0.000098
      4          7           0       -0.758021    0.796263    0.000038
      5          1           0       -1.462218    1.520614    0.000140
      6          1           0        1.051124    1.961872   -0.000131
      7          1           0        2.184367   -0.547492   -0.000076
      8          1           0       -1.983498   -0.953101    0.000174
      9          7           0        0.138719   -1.225228   -0.000049
 ---------------------------------------------------------------------
                    Distance matrix (angstroms):
                    1          2          3          4          5
     1  C    0.000000
     2  C    1.366261   0.000000
     3  C    2.202268   2.146635   0.000000
     4  N    1.374814   2.180351   1.354704   0.000000
     5  H    2.135283   3.162294   2.113134   1.010237   0.000000
     6  H    1.076617   2.237290   3.226843   2.152127   2.551783
     7  H    2.199504   1.077937   3.172765   3.234706   4.192212
     8  H    3.231425   3.198331   1.077946   2.135900   2.528042
     9  N    2.256186   1.382691   1.319724   2.211463   3.178466
                    6          7          8          9
     6  H    0.000000
     7  H    2.753388   0.000000
     8  H    4.207850   4.187555   0.000000
     9  N    3.315130   2.154995   2.139593   0.000000
 Stoichiometry    C3H4N2
 Framework group  C1[X(C3H4N2)]
 Deg. of freedom    21
 Full point group                 C1      NOp   1
 Largest Abelian subgroup         C1      NOp   1
 Largest concise Abelian subgroup C1      NOp   1
                         Standard orientation:                         
 ---------------------------------------------------------------------
 Center     Atomic      Atomic             Coordinates (Angstroms)
 Number     Number       Type             X           Y           Z
 ---------------------------------------------------------------------
      1          6           0        0.604130    0.982433   -0.000069
      2          6           0        1.141813   -0.273579   -0.000033
      3          6           0       -0.988386   -0.538711    0.000098
      4          7           0       -0.758021    0.796263    0.000038
      5          1           0       -1.462218    1.520614    0.000140
      6          1           0        1.051124    1.961872   -0.000131
      7          1           0        2.184367   -0.547492   -0.000076
      8          1           0       -1.983498   -0.953101    0.000174
      9          7           0        0.138719   -1.225228   -0.000049
 ---------------------------------------------------------------------
 Rotational constants (GHZ):           9.7379946           9.4570569           4.7977349
 Leave Link  202 at Wed Oct 11 11:52:12 2023, MaxMem=  6710886400 cpu:               0.1 elap:               0.0
 (Enter /data0/home/software/g16/l301.exe)
 Standard basis: 6-311+G(2d,p) (5D, 7F)
 Ernie: Thresh=  0.10000D-02 Tol=  0.10000D-05 Strict=F.
 There are   169 symmetry adapted cartesian basis functions of A   symmetry.
 There are   159 symmetry adapted basis functions of A   symmetry.
   159 basis functions,   242 primitive gaussians,   169 cartesian basis functions
    18 alpha electrons       18 beta electrons
       nuclear repulsion energy       163.3689795764 Hartrees.
 IExCor=  402 DFT=T Ex+Corr=B3LYP ExCW=0 ScaHFX=  0.200000
 ScaDFX=  0.800000  0.720000  1.000000  0.810000 ScalE2=  1.000000  1.000000
 IRadAn=      5 IRanWt=     -1 IRanGd=            0 ICorTp=0 IEmpDi=141
 NAtoms=    9 NActive=    9 NUniq=    9 SFac= 1.00D+00 NAtFMM=   60 NAOKFM=F Big=F
 Integral buffers will be    131072 words long.
 Raffenetti 2 integral format.
 Two-electron integral symmetry is turned on.
 R6Disp:  Grimme-D3(BJ) Dispersion energy=       -0.0113493646 Hartrees.
 Nuclear repulsion after empirical dispersion term =      163.3576302118 Hartrees.
 ------------------------------------------------------------------------------
 Polarizable Continuum Model (PCM)
 =================================
 Model                : PCM.
 Atomic radii         : SMD-Coulomb.
 Polarization charges : Total charges.
 Charge compensation  : None.
 Solution method      : On-the-fly selection.
 Cavity type          : VdW (van der Waals Surface) (Alpha=1.000).
 Cavity algorithm     : GePol (No added spheres)
                        Default sphere list used, NSphG=    9.
                        Lebedev-Laikov grids with approx.  5.0 points / Ang**2.
                        Smoothing algorithm: York/Karplus (Gamma=1.0000).
                        Polarization charges: spherical gaussians, with
                                              point-specific exponents (IZeta= 3).
                        Self-potential: point-specific (ISelfS= 7).
                        Self-field    : sphere-specific E.n sum rule (ISelfD= 2).
 1st derivatives      : Analytical E(r).r(x)/FMM algorithm (CHGder, D1EAlg=3).
                        Cavity 1st derivative terms included.
 Solvent              : Water, Eps=  78.355300 Eps(inf)=   1.777849
 ------------------------------------------------------------------------------
 Spheres list:
 ISph  on   Nord     Re0    Alpha      Xe            Ye            Ze
    1   C      1    1.8500  1.000      0.604130      0.982433     -0.000069
    2   C      2    1.8500  1.000      1.141813     -0.273579     -0.000033
    3   C      3    1.8500  1.000     -0.988386     -0.538711      0.000098
    4   N      4    1.8900  1.000     -0.758021      0.796263      0.000038
    5   H      5    1.2000  1.000     -1.462218      1.520614      0.000140
    6   H      6    1.2000  1.000      1.051124      1.961872     -0.000131
    7   H      7    1.2000  1.000      2.184367     -0.547492     -0.000076
    8   H      8    1.2000  1.000     -1.983498     -0.953101      0.000174
    9   N      9    1.8900  1.000      0.138719     -1.225228     -0.000049
 ------------------------------------------------------------------------------
 GePol: Number of generator spheres                  =       9
 GePol: Total number of spheres                      =       9
 GePol: Number of exposed spheres                    =       9 (100.00%)
 GePol: Number of points                             =     846
 GePol: Average weight of points                     =       0.11
 GePol: Minimum weight of points                     =   0.21D-08
 GePol: Maximum weight of points                     =    0.17992
 GePol: Number of points with low weight             =      38
 GePol: Fraction of low-weight points (<1% of avg)   =       4.49%
 GePol: Cavity surface area                          =     96.034 Ang**2
 GePol: Cavity volume                                =     77.878 Ang**3
 ------------------------------------------------------------------------------
 Atomic radii for non-electrostatic terms: SMD-CDS.
 ------------------------------------------------------------------------------
 PCM non-electrostatic energy =         0.0023658048 Hartrees.
 Nuclear repulsion after PCM non-electrostatic terms =      163.3599960166 Hartrees.
 Leave Link  301 at Wed Oct 11 11:52:13 2023, MaxMem=  6710886400 cpu:               1.4 elap:               0.1
 (Enter /data0/home/software/g16/l302.exe)
 NPDir=0 NMtPBC=     1 NCelOv=     1 NCel=       1 NClECP=     1 NCelD=      1
         NCelK=      1 NCelE2=     1 NClLst=     1 CellRange=     0.0.
 One-electron integrals computed using PRISM.
 One-electron integral symmetry used in STVInt
 NBasis=   159 RedAO= T EigKep=  5.10D-05  NBF=   159
 NBsUse=   159 1.00D-06 EigRej= -1.00D+00 NBFU=   159
 Precomputing XC quadrature grid using
 IXCGrd= 4 IRadAn=           5 IRanWt=          -1 IRanGd=           0 AccXCQ= 0.00D+00.
 Generated NRdTot=       0 NPtTot=           0 NUsed=           0 NTot=          32
 NSgBfM=   169   169   169   169   169 MxSgAt=     9 MxSgA2=     9.
 Leave Link  302 at Wed Oct 11 11:52:13 2023, MaxMem=  6710886400 cpu:               2.9 elap:               0.1
 (Enter /data0/home/software/g16/l303.exe)
 DipDrv:  MaxL=1.
 Leave Link  303 at Wed Oct 11 11:52:13 2023, MaxMem=  6710886400 cpu:               0.5 elap:               0.0
 (Enter /data0/home/software/g16/l401.exe)
 ExpMin= 4.38D-02 ExpMax= 6.29D+03 ExpMxC= 9.49D+02 IAcc=3 IRadAn=         5 AccDes= 0.00D+00
 Harris functional with IExCor=  402 and IRadAn=       5 diagonalized for initial guess.
 HarFok:  IExCor=  402 AccDes= 0.00D+00 IRadAn=         5 IDoV= 1 UseB2=F ITyADJ=14
 ICtDFT=  3500011 ScaDFX=  1.000000  1.000000  1.000000  1.000000
 FoFCou: FMM=F IPFlag=           0 FMFlag=      100000 FMFlg1=           0
         NFxFlg=           0 DoJE=T BraDBF=F KetDBF=T FulRan=T
         wScrn=  0.000000 ICntrl=       500 IOpCl=  0 I1Cent=   200000004 NGrid=           0
         NMat0=    1 NMatS0=      1 NMatT0=    0 NMatD0=    1 NMtDS0=    0 NMtDT0=    0
 Petite list used in FoFCou.
 Harris En= -226.286372072261    
 JPrj=0 DoOrth=F DoCkMO=F.
 Leave Link  401 at Wed Oct 11 11:52:13 2023, MaxMem=  6710886400 cpu:               6.5 elap:               0.3
 (Enter /data0/home/software/g16/l502.exe)
 Keep R1 ints in memory in canonical form, NReq=104803557.
 FoFCou: FMM=F IPFlag=           0 FMFlag=           0 FMFlg1=           0
         NFxFlg=           0 DoJE=F BraDBF=F KetDBF=F FulRan=T
         wScrn=  0.000000 ICntrl=       600 IOpCl=  0 I1Cent=           0 NGrid=           0
         NMat0=    1 NMatS0=  12720 NMatT0=    0 NMatD0=    1 NMtDS0=    0 NMtDT0=    0
 Symmetry not used in FoFCou.
 Two-electron integral symmetry not used.
 Closed shell SCF:
 Using DIIS extrapolation, IDIIS=  1040.
 NGot=  6710886400 LenX=  6629918005 LenY=  6629889003
 Requested convergence on RMS density matrix=1.00D-08 within 128 cycles.
 Requested convergence on MAX density matrix=1.00D-06.
 Requested convergence on             energy=1.00D-06.
 No special actions if energy rises.

 Cycle   1  Pass 1  IDiag  1:
 Inv3:  Mode=1 IEnd=     2147148.
 Iteration    1 A*A^-1 deviation from unit magnitude is 3.77D-15 for    843.
 Iteration    1 A*A^-1 deviation from orthogonality  is 2.58D-15 for    211    128.
 Iteration    1 A^-1*A deviation from unit magnitude is 3.77D-15 for    843.
 Iteration    1 A^-1*A deviation from orthogonality  is 1.79D-15 for    257    126.
 E= -226.215869218219    
 DIIS: error= 3.53D-02 at cycle   1 NSaved=   1.
 NSaved= 1 IEnMin= 1 EnMin= -226.215869218219     IErMin= 1 ErrMin= 3.53D-02
 ErrMax= 3.53D-02  0.00D+00 EMaxC= 1.00D-01 BMatC= 1.13D-01 BMatP= 1.13D-01
 IDIUse=3 WtCom= 6.47D-01 WtEn= 3.53D-01
 Coeff-Com:  0.100D+01
 Coeff-En:   0.100D+01
 Coeff:      0.100D+01
 Gap=     0.241 Goal=   None    Shift=    0.000
 GapD=    0.241 DampG=1.000 DampE=0.500 DampFc=0.5000 IDamp=-1.
 Damping current iteration by 5.00D-01
 RMSDP=3.97D-03 MaxDP=1.00D-01              OVMax= 1.85D-01

 Cycle   2  Pass 1  IDiag  1:
 E= -226.255170511612     Delta-E=       -0.039301293394 Rises=F Damp=T
 DIIS: error= 5.46D-03 at cycle   2 NSaved=   2.
 NSaved= 2 IEnMin= 2 EnMin= -226.255170511612     IErMin= 2 ErrMin= 5.46D-03
 ErrMax= 5.46D-03  0.00D+00 EMaxC= 1.00D-01 BMatC= 9.91D-03 BMatP= 1.13D-01
 IDIUse=3 WtCom= 9.45D-01 WtEn= 5.46D-02
 Coeff-Com:  0.556D-01 0.944D+00
 Coeff-En:   0.171D+00 0.829D+00
 Coeff:      0.619D-01 0.938D+00
 Gap=     0.248 Goal=   None    Shift=    0.000
 RMSDP=1.13D-03 MaxDP=3.00D-02 DE=-3.93D-02 OVMax= 1.24D-01

 Cycle   3  Pass 1  IDiag  1:
 E= -226.305892408288     Delta-E=       -0.050721896676 Rises=F Damp=F
 DIIS: error= 9.68D-03 at cycle   3 NSaved=   3.
 NSaved= 3 IEnMin= 3 EnMin= -226.305892408288     IErMin= 2 ErrMin= 5.46D-03
 ErrMax= 9.68D-03  0.00D+00 EMaxC= 1.00D-01 BMatC= 9.59D-03 BMatP= 9.91D-03
 IDIUse=3 WtCom= 9.03D-01 WtEn= 9.68D-02
 Coeff-Com: -0.616D-01 0.510D+00 0.552D+00
 Coeff-En:   0.000D+00 0.000D+00 0.100D+01
 Coeff:     -0.556D-01 0.461D+00 0.595D+00
 Gap=     0.256 Goal=   None    Shift=    0.000
 RMSDP=5.43D-04 MaxDP=1.70D-02 DE=-5.07D-02 OVMax= 4.77D-02

 Cycle   4  Pass 1  IDiag  1:
 E= -226.312130909988     Delta-E=       -0.006238501700 Rises=F Damp=F
 DIIS: error= 5.48D-03 at cycle   4 NSaved=   4.
 NSaved= 4 IEnMin= 4 EnMin= -226.312130909988     IErMin= 2 ErrMin= 5.46D-03
 ErrMax= 5.48D-03  0.00D+00 EMaxC= 1.00D-01 BMatC= 2.30D-03 BMatP= 9.59D-03
 IDIUse=3 WtCom= 9.45D-01 WtEn= 5.48D-02
 Coeff-Com: -0.433D-01 0.166D+00 0.373D+00 0.504D+00
 Coeff-En:   0.000D+00 0.000D+00 0.209D+00 0.791D+00
 Coeff:     -0.409D-01 0.157D+00 0.364D+00 0.520D+00
 Gap=     0.252 Goal=   None    Shift=    0.000
 RMSDP=2.17D-04 MaxDP=5.36D-03 DE=-6.24D-03 OVMax= 1.79D-02

 Cycle   5  Pass 1  IDiag  1:
 E= -226.314058381937     Delta-E=       -0.001927471949 Rises=F Damp=F
 DIIS: error= 8.08D-04 at cycle   5 NSaved=   5.
 NSaved= 5 IEnMin= 5 EnMin= -226.314058381937     IErMin= 5 ErrMin= 8.08D-04
 ErrMax= 8.08D-04  0.00D+00 EMaxC= 1.00D-01 BMatC= 6.85D-05 BMatP= 2.30D-03
 IDIUse=3 WtCom= 9.92D-01 WtEn= 8.08D-03
 Coeff-Com: -0.152D-01 0.400D-01 0.121D+00 0.236D+00 0.618D+00
 Coeff-En:   0.000D+00 0.000D+00 0.000D+00 0.000D+00 0.100D+01
 Coeff:     -0.151D-01 0.397D-01 0.120D+00 0.234D+00 0.621D+00
 Gap=     0.251 Goal=   None    Shift=    0.000
 RMSDP=4.59D-05 MaxDP=1.25D-03 DE=-1.93D-03 OVMax= 3.11D-03

 Cycle   6  Pass 1  IDiag  1:
 E= -226.314106837913     Delta-E=       -0.000048455976 Rises=F Damp=F
 DIIS: error= 3.05D-04 at cycle   6 NSaved=   6.
 NSaved= 6 IEnMin= 6 EnMin= -226.314106837913     IErMin= 6 ErrMin= 3.05D-04
 ErrMax= 3.05D-04  0.00D+00 EMaxC= 1.00D-01 BMatC= 1.19D-05 BMatP= 6.85D-05
 IDIUse=3 WtCom= 9.97D-01 WtEn= 3.05D-03
 Coeff-Com: -0.601D-02 0.108D-01 0.435D-01 0.101D+00 0.369D+00 0.482D+00
 Coeff-En:   0.000D+00 0.000D+00 0.000D+00 0.000D+00 0.105D+00 0.895D+00
 Coeff:     -0.599D-02 0.108D-01 0.433D-01 0.100D+00 0.368D+00 0.483D+00
 Gap=     0.251 Goal=   None    Shift=    0.000
 RMSDP=1.32D-05 MaxDP=4.96D-04 DE=-4.85D-05 OVMax= 1.17D-03

 Cycle   7  Pass 1  IDiag  1:
 E= -226.314116681788     Delta-E=       -0.000009843875 Rises=F Damp=F
 DIIS: error= 1.84D-05 at cycle   7 NSaved=   7.
 NSaved= 7 IEnMin= 7 EnMin= -226.314116681788     IErMin= 7 ErrMin= 1.84D-05
 ErrMax= 1.84D-05  0.00D+00 EMaxC= 1.00D-01 BMatC= 5.87D-08 BMatP= 1.19D-05
 IDIUse=1 WtCom= 1.00D+00 WtEn= 0.00D+00
 Coeff-Com: -0.120D-03-0.109D-03 0.184D-02 0.540D-02 0.278D-01 0.832D-01
 Coeff-Com:  0.882D+00
 Coeff:     -0.120D-03-0.109D-03 0.184D-02 0.540D-02 0.278D-01 0.832D-01
 Coeff:      0.882D+00
 Gap=     0.251 Goal=   None    Shift=    0.000
 RMSDP=2.27D-06 MaxDP=5.27D-05 DE=-9.84D-06 OVMax= 1.44D-04

 Cycle   8  Pass 1  IDiag  1:
 E= -226.314116718708     Delta-E=       -0.000000036920 Rises=F Damp=F
 DIIS: error= 1.08D-05 at cycle   8 NSaved=   8.
 NSaved= 8 IEnMin= 8 EnMin= -226.314116718708     IErMin= 8 ErrMin= 1.08D-05
 ErrMax= 1.08D-05  0.00D+00 EMaxC= 1.00D-01 BMatC= 2.21D-08 BMatP= 5.87D-08
 IDIUse=1 WtCom= 1.00D+00 WtEn= 0.00D+00
 Coeff-Com:  0.167D-03-0.531D-03-0.624D-03-0.791D-03 0.216D-02 0.286D-01
 Coeff-Com:  0.508D+00 0.463D+00
 Coeff:      0.167D-03-0.531D-03-0.624D-03-0.791D-03 0.216D-02 0.286D-01
 Coeff:      0.508D+00 0.463D+00
 Gap=     0.251 Goal=   None    Shift=    0.000
 RMSDP=7.58D-07 MaxDP=2.89D-05 DE=-3.69D-08 OVMax= 5.52D-05

 Cycle   9  Pass 1  IDiag  1:
 E= -226.314116739218     Delta-E=       -0.000000020510 Rises=F Damp=F
 DIIS: error= 1.77D-06 at cycle   9 NSaved=   9.
 NSaved= 9 IEnMin= 9 EnMin= -226.314116739218     IErMin= 9 ErrMin= 1.77D-06
 ErrMax= 1.77D-06  0.00D+00 EMaxC= 1.00D-01 BMatC= 2.85D-10 BMatP= 2.21D-08
 IDIUse=1 WtCom= 1.00D+00 WtEn= 0.00D+00
 Coeff-Com:  0.498D-04-0.100D-03-0.325D-03-0.780D-03-0.233D-02-0.300D-02
 Coeff-Com:  0.304D-01 0.104D+00 0.872D+00
 Coeff:      0.498D-04-0.100D-03-0.325D-03-0.780D-03-0.233D-02-0.300D-02
 Coeff:      0.304D-01 0.104D+00 0.872D+00
 Gap=     0.251 Goal=   None    Shift=    0.000
 RMSDP=2.88D-07 MaxDP=8.81D-06 DE=-2.05D-08 OVMax= 1.11D-05

 Cycle  10  Pass 1  IDiag  1:
 E= -226.314116739539     Delta-E=       -0.000000000321 Rises=F Damp=F
 DIIS: error= 3.60D-07 at cycle  10 NSaved=  10.
 NSaved=10 IEnMin=10 EnMin= -226.314116739539     IErMin=10 ErrMin= 3.60D-07
 ErrMax= 3.60D-07  0.00D+00 EMaxC= 1.00D-01 BMatC= 1.41D-11 BMatP= 2.85D-10
 IDIUse=1 WtCom= 1.00D+00 WtEn= 0.00D+00
 Coeff-Com:  0.871D-05-0.164D-04-0.686D-04-0.190D-03-0.682D-03-0.128D-02
 Coeff-Com: -0.256D-02 0.141D-01 0.234D+00 0.756D+00
 Coeff:      0.871D-05-0.164D-04-0.686D-04-0.190D-03-0.682D-03-0.128D-02
 Coeff:     -0.256D-02 0.141D-01 0.234D+00 0.756D+00
 Gap=     0.251 Goal=   None    Shift=    0.000
 RMSDP=5.64D-08 MaxDP=1.48D-06 DE=-3.21D-10 OVMax= 2.49D-06

 Cycle  11  Pass 1  IDiag  1:
 E= -226.314116739548     Delta-E=       -0.000000000009 Rises=F Damp=F
 DIIS: error= 2.62D-07 at cycle  11 NSaved=  11.
 NSaved=11 IEnMin=11 EnMin= -226.314116739548     IErMin=11 ErrMin= 2.62D-07
 ErrMax= 2.62D-07  0.00D+00 EMaxC= 1.00D-01 BMatC= 8.22D-12 BMatP= 1.41D-11
 IDIUse=1 WtCom= 1.00D+00 WtEn= 0.00D+00
 Coeff-Com: -0.754D-06 0.291D-05-0.455D-06-0.198D-04-0.135D-03-0.349D-03
 Coeff-Com: -0.514D-02-0.620D-02 0.212D-01 0.463D+00 0.528D+00
 Coeff:     -0.754D-06 0.291D-05-0.455D-06-0.198D-04-0.135D-03-0.349D-03
 Coeff:     -0.514D-02-0.620D-02 0.212D-01 0.463D+00 0.528D+00
 Gap=     0.251 Goal=   None    Shift=    0.000
 RMSDP=1.72D-08 MaxDP=5.09D-07 DE=-9.32D-12 OVMax= 1.08D-06

 Cycle  12  Pass 1  IDiag  1:
 E= -226.314116739556     Delta-E=       -0.000000000007 Rises=F Damp=F
 DIIS: error= 3.40D-08 at cycle  12 NSaved=  12.
 NSaved=12 IEnMin=12 EnMin= -226.314116739556     IErMin=12 ErrMin= 3.40D-08
 ErrMax= 3.40D-08  0.00D+00 EMaxC= 1.00D-01 BMatC= 5.33D-14 BMatP= 8.22D-12
 IDIUse=1 WtCom= 1.00D+00 WtEn= 0.00D+00
 Coeff-Com: -0.587D-06 0.135D-05 0.451D-05 0.672D-05 0.801D-05 0.108D-04
 Coeff-Com: -0.813D-03-0.220D-02-0.841D-02 0.484D-01 0.988D-01 0.864D+00
 Coeff:     -0.587D-06 0.135D-05 0.451D-05 0.672D-05 0.801D-05 0.108D-04
 Coeff:     -0.813D-03-0.220D-02-0.841D-02 0.484D-01 0.988D-01 0.864D+00
 Gap=     0.251 Goal=   None    Shift=    0.000
 RMSDP=4.20D-09 MaxDP=1.17D-07 DE=-7.05D-12 OVMax= 1.00D-07

 Error on total polarization charges =  0.03310
 SCF Done:  E(RB3LYP) =  -226.314116740     A.U. after   12 cycles
            NFock= 12  Conv=0.42D-08     -V/T= 2.0041
 KE= 2.253802252915D+02 PE=-8.538453369160D+02 EE= 2.387909988683D+02
 SMD-CDS (non-electrostatic) energy       (kcal/mol) =       1.48
 (included in total energy above)
 Leave Link  502 at Wed Oct 11 11:52:19 2023, MaxMem=  6710886400 cpu:             105.5 elap:               6.3
 (Enter /data0/home/software/g16/l601.exe)
 Copying SCF densities to generalized density rwf, IOpCl= 0 IROHF=0.

 **********************************************************************

            Population analysis using the SCF density.

 **********************************************************************

 Orbital symmetries:
       Occupied  (A) (A) (A) (A) (A) (A) (A) (A) (A) (A) (A) (A)
                 (A) (A) (A) (A) (A) (A)
       Virtual   (A) (A) (A) (A) (A) (A) (A) (A) (A) (A) (A) (A)
                 (A) (A) (A) (A) (A) (A) (A) (A) (A) (A) (A) (A)
                 (A) (A) (A) (A) (A) (A) (A) (A) (A) (A) (A) (A)
                 (A) (A) (A) (A) (A) (A) (A) (A) (A) (A) (A) (A)
                 (A) (A) (A) (A) (A) (A) (A) (A) (A) (A) (A) (A)
                 (A) (A) (A) (A) (A) (A) (A) (A) (A) (A) (A) (A)
                 (A) (A) (A) (A) (A) (A) (A) (A) (A) (A) (A) (A)
                 (A) (A) (A) (A) (A) (A) (A) (A) (A) (A) (A) (A)
                 (A) (A) (A) (A) (A) (A) (A) (A) (A) (A) (A) (A)
                 (A) (A) (A) (A) (A) (A) (A) (A) (A) (A) (A) (A)
                 (A) (A) (A) (A) (A) (A) (A) (A) (A) (A) (A) (A)
                 (A) (A) (A) (A) (A) (A) (A) (A) (A)
 The electronic state is 1-A.
 Alpha  occ. eigenvalues --  -14.36675 -14.30204 -10.22402 -10.19681 -10.18346
 Alpha  occ. eigenvalues --   -1.02005  -0.87383  -0.74760  -0.61340  -0.59420
 Alpha  occ. eigenvalues --   -0.56216  -0.44295  -0.43774  -0.43615  -0.41253
 Alpha  occ. eigenvalues --   -0.29227  -0.29082  -0.23958
 Alpha virt. eigenvalues --    0.01129   0.01233   0.03541   0.03761   0.03882
 Alpha virt. eigenvalues --    0.05766   0.05918   0.05929   0.07488   0.09459
 Alpha virt. eigenvalues --    0.10849   0.11196   0.13063   0.14383   0.15434
 Alpha virt. eigenvalues --    0.19080   0.19140   0.19678   0.20374   0.20677
 Alpha virt. eigenvalues --    0.21147   0.21699   0.23243   0.24306   0.26175
 Alpha virt. eigenvalues --    0.26770   0.29266   0.30948   0.40184   0.41862
 Alpha virt. eigenvalues --    0.44322   0.46220   0.51357   0.51731   0.54491
 Alpha virt. eigenvalues --    0.54922   0.55586   0.57605   0.59056   0.60865
 Alpha virt. eigenvalues --    0.62776   0.67391   0.71358   0.73455   0.73498
 Alpha virt. eigenvalues --    0.75928   0.76308   0.77117   0.80096   0.81790
 Alpha virt. eigenvalues --    0.82175   0.85045   0.87373   0.88570   0.90739
 Alpha virt. eigenvalues --    0.94928   0.95946   0.98228   1.03310   1.08317
 Alpha virt. eigenvalues --    1.15634   1.22238   1.24156   1.30069   1.31569
 Alpha virt. eigenvalues --    1.33105   1.36461   1.37672   1.39582   1.42337
 Alpha virt. eigenvalues --    1.42813   1.44624   1.48148   1.66710   1.68137
 Alpha virt. eigenvalues --    1.70234   1.71527   1.77207   1.79592   1.88340
 Alpha virt. eigenvalues --    1.88463   1.98658   2.01902   2.12762   2.21049
 Alpha virt. eigenvalues --    2.30304   2.37424   2.46386   2.51799   2.62888
 Alpha virt. eigenvalues --    2.68689   2.74669   2.76254   2.77630   2.82025
 Alpha virt. eigenvalues --    2.82580   2.90884   2.92390   3.07845   3.13009
 Alpha virt. eigenvalues --    3.19098   3.23768   3.29795   3.32110   3.35886
 Alpha virt. eigenvalues --    3.36951   3.40153   3.42102   3.42322   3.50380
 Alpha virt. eigenvalues --    3.56369   3.60013   3.60319   3.62764   3.69433
 Alpha virt. eigenvalues --    3.74019   3.88146   3.93294   3.94780   3.96914
 Alpha virt. eigenvalues --    4.01120   4.46508   4.60847   4.90822   4.94355
 Alpha virt. eigenvalues --    4.99109   5.01994   5.03970   5.04142   5.09803
 Alpha virt. eigenvalues --    5.24399   5.29667   5.39107   5.45798   5.60129
 Alpha virt. eigenvalues --    5.70029  23.83571  24.06565  24.13798  35.56504
 Alpha virt. eigenvalues --   35.63248
          Condensed to atoms (all electrons):
               1          2          3          4          5          6
     1  C    5.229385   0.349964  -0.182591   0.415469  -0.049958   0.411083
     2  C    0.349964   5.133529  -0.033067  -0.155367   0.024131  -0.029543
     3  C   -0.182591  -0.033067   4.932152   0.378042  -0.025051   0.008079
     4  N    0.415469  -0.155367   0.378042   6.291576   0.381690  -0.030316
     5  H   -0.049958   0.024131  -0.025051   0.381690   0.351135  -0.002366
     6  H    0.411083  -0.029543   0.008079  -0.030316  -0.002366   0.483420
     7  H   -0.068964   0.444961   0.014729   0.008685  -0.000082  -0.000801
     8  H    0.001140   0.016513   0.429636  -0.042563  -0.000853  -0.000056
     9  N    0.013280   0.272400   0.356157   0.002371   0.001892   0.005054
               7          8          9
     1  C   -0.068964   0.001140   0.013280
     2  C    0.444961   0.016513   0.272400
     3  C    0.014729   0.429636   0.356157
     4  N    0.008685  -0.042563   0.002371
     5  H   -0.000082  -0.000853   0.001892
     6  H   -0.000801  -0.000056   0.005054
     7  H    0.523523  -0.000092  -0.051100
     8  H   -0.000092   0.485479  -0.048275
     9  N   -0.051100  -0.048275   6.941337
 Mulliken charges:
               1
     1  C   -0.118808
     2  C   -0.023521
     3  C    0.121913
     4  N   -0.249587
     5  H    0.319462
     6  H    0.155446
     7  H    0.129141
     8  H    0.159071
     9  N   -0.493117
 Sum of Mulliken charges =  -0.00000
 Mulliken charges with hydrogens summed into heavy atoms:
               1
     1  C    0.036638
     2  C    0.105620
     3  C    0.280984
     4  N    0.069875
     9  N   -0.493117
 Electronic spatial extent (au):  <R**2>=            285.2270
 Charge=             -0.0000 electrons
 Dipole moment (field-independent basis, Debye):
    X=             -2.3323    Y=              4.8708    Z=              0.0004  Tot=              5.4004
 Quadrupole moment (field-independent basis, Debye-Ang):
   XX=            -21.7963   YY=            -30.0933   ZZ=            -32.6237
   XY=             -0.6523   XZ=             -0.0009   YZ=             -0.0001
 Traceless Quadrupole moment (field-independent basis, Debye-Ang):
   XX=              6.3748   YY=             -1.9222   ZZ=             -4.4526
   XY=             -0.6523   XZ=             -0.0009   YZ=             -0.0001
 Octapole moment (field-independent basis, Debye-Ang**2):
  XXX=             -8.9351  YYY=             26.6555  ZZZ=              0.0005  XYY=             -6.0168
  XXY=              2.8382  XXZ=              0.0011  XZZ=             -2.2029  YZZ=              1.2422
  YYZ=              0.0005  XYZ=             -0.0005
 Hexadecapole moment (field-independent basis, Debye-Ang**3):
 XXXX=           -144.8196 YYYY=           -181.8839 ZZZZ=            -38.1185 XXXY=             -7.2732
 XXXZ=              0.0016 YYYX=             -1.4537 YYYZ=             -0.0001 ZZZX=              0.0054
 ZZZY=              0.0008 XXYY=            -44.5054 XXZZ=            -40.1450 YYZZ=            -39.6332
 XXYZ=              0.0004 YYXZ=             -0.0003 ZZXY=             -1.4025
 N-N= 1.633599960166D+02 E-N=-8.538453371790D+02  KE= 2.253802252915D+02
 No NMR shielding tensors so no spin-rotation constants.
 Leave Link  601 at Wed Oct 11 11:52:20 2023, MaxMem=  6710886400 cpu:               2.0 elap:               0.1
 (Enter /data0/home/software/g16/l701.exe)
 ... and contract with generalized density number  0.
 Compute integral first derivatives.
 R6Disp: Adding Grimme-D3(BJ) dispersion energy 1st derivatives to the gradient.
 D1PCM: PCM CHGder 1st derivatives, ID1Alg=3 FixD1E=F DoIter=F DoCFld=F I1PDM=0.
 GePol: Maximum number of non-zero 1st derivatives   =     221
 Leave Link  701 at Wed Oct 11 11:52:20 2023, MaxMem=  6710886400 cpu:               9.5 elap:               0.4
 (Enter /data0/home/software/g16/l702.exe)
 L702 exits ... SP integral derivatives will be done elsewhere.
 Leave Link  702 at Wed Oct 11 11:52:20 2023, MaxMem=  6710886400 cpu:               0.4 elap:               0.0
 (Enter /data0/home/software/g16/l703.exe)
 Integral derivatives from FoFJK, PRISM(SPDF).
 Compute integral first derivatives, UseDBF=F ICtDFT=           0.
 Calling FoFJK, ICntrl=      2127 FMM=F ISym2X=0 I1Cent= 0 IOpClX= 0 NMat=1 NMatS=1 NMatT=0.
 FoFJK:  IHMeth= 1 ICntrl=    2127 DoSepK=F KAlg= 0 I1Cent=           0 FoldK=F
 IRaf=         0 NMat=       1 IRICut=       1 DoRegI=T DoRafI=F ISym2E= 0 IDoP0=0 IntGTp=1.
 FoFCou: FMM=F IPFlag=           0 FMFlag=      100000 FMFlg1=         800
         NFxFlg=           0 DoJE=F BraDBF=F KetDBF=F FulRan=T
         wScrn=  0.000000 ICntrl=      2127 IOpCl=  0 I1Cent=           0 NGrid=           0
         NMat0=    1 NMatS0=      1 NMatT0=    0 NMatD0=    1 NMtDS0=    0 NMtDT0=    0
 Symmetry not used in FoFCou.
 Leave Link  703 at Wed Oct 11 11:52:21 2023, MaxMem=  6710886400 cpu:              21.3 elap:               0.9
 (Enter /data0/home/software/g16/l716.exe)
 Dipole        =-9.17610218D-01 1.91630433D+00 1.43509541D-04
 ***** Axes restored to original set *****
 -------------------------------------------------------------------
 Center     Atomic                   Forces (Hartrees/Bohr)
 Number     Number              X              Y              Z
 -------------------------------------------------------------------
      1        6           0.000775774    0.000522863    0.000008579
      2        6           0.001634047    0.000160931   -0.000017504
      3        6          -0.001845208   -0.000511419   -0.000013582
      4        7          -0.000515677    0.000109790    0.000002830
      5        1           0.000181417   -0.000130814   -0.000000884
      6        1          -0.000197365   -0.000181920    0.000001614
      7        1          -0.000181675    0.000029995   -0.000001691
      8        1           0.000181020    0.000112054   -0.000000544
      9        7          -0.000032334   -0.000111478    0.000021183
 -------------------------------------------------------------------
 Cartesian Forces:  Max     0.001845208 RMS     0.000535113
 Leave Link  716 at Wed Oct 11 11:52:21 2023, MaxMem=  6710886400 cpu:               0.5 elap:               0.0
 (Enter /data0/home/software/g16/l103.exe)

 GradGradGradGradGradGradGradGradGradGradGradGradGradGradGradGradGradGrad
 Berny optimization.
 FormGI is forming the generalized inverse of G from B-inverse, IUseBI=4.
 Internal  Forces:  Max     0.000995665 RMS     0.000349091
 Search for a local minimum.
 Step number   1 out of a maximum of   48
 All quantities printed in internal units (Hartrees-Bohrs-Radians)
 RMS Force = .34909D-03 SwitMx=.10000D-02 MixMth= 2
 Mixed Optimization -- En-DIIS/RFO-DIIS
 Second derivative matrix not updated -- first step.
 ITU=  0
     Eigenvalues ---    0.02143   0.02212   0.02249   0.02376   0.02411
     Eigenvalues ---    0.02479   0.16000   0.16000   0.16000   0.16000
     Eigenvalues ---    0.22000   0.22903   0.36244   0.36245   0.36406
     Eigenvalues ---    0.43851   0.45933   0.46394   0.49725   0.52984
     Eigenvalues ---    0.59646
 RFO step:  Lambda=-1.33449313D-05 EMin= 2.14256589D-02
 Linear search not attempted -- first point.
 Iteration  1 RMS(Cart)=  0.00119626 RMS(Int)=  0.00000097
 Iteration  2 RMS(Cart)=  0.00000095 RMS(Int)=  0.00000017
 ITry= 1 IFail=0 DXMaxC= 3.71D-03 DCOld= 1.00D+10 DXMaxT= 3.00D-01 DXLimC= 3.00D+00 Rises=F
 Variable       Old X    -DE/DX   Delta X   Delta X   Delta X     New X
                                 (Linear)    (Quad)   (Total)
    R1        2.58186   0.00024   0.00000   0.00043   0.00043   2.58229
    R2        2.59802   0.00100   0.00000   0.00192   0.00192   2.59995
    R3        2.03451  -0.00025   0.00000  -0.00068  -0.00068   2.03383
    R4        2.03700  -0.00018   0.00000  -0.00051  -0.00051   2.03650
    R5        2.61291   0.00096   0.00000   0.00203   0.00203   2.61493
    R6        2.56002   0.00033   0.00000   0.00061   0.00061   2.56063
    R7        2.03702  -0.00021   0.00000  -0.00058  -0.00058   2.03644
    R8        2.49392   0.00079   0.00000   0.00132   0.00132   2.49524
    R9        1.90907  -0.00022   0.00000  -0.00048  -0.00048   1.90859
    A1        1.83945   0.00013   0.00000   0.00044   0.00044   1.83989
    A2        2.30896   0.00004   0.00000   0.00044   0.00044   2.30941
    A3        2.13477  -0.00017   0.00000  -0.00088  -0.00088   2.13389
    A4        2.23221   0.00026   0.00000   0.00118   0.00118   2.23338
    A5        1.92540  -0.00049   0.00000  -0.00214  -0.00214   1.92326
    A6        2.12558   0.00023   0.00000   0.00096   0.00096   2.12654
    A7        2.13626   0.00030   0.00000   0.00124   0.00124   2.13750
    A8        1.94700  -0.00067   0.00000  -0.00290  -0.00290   1.94410
    A9        2.19992   0.00037   0.00000   0.00166   0.00166   2.20159
   A10        1.87751   0.00038   0.00000   0.00162   0.00162   1.87913
   A11        2.20626  -0.00023   0.00000  -0.00104  -0.00104   2.20522
   A12        2.19942  -0.00015   0.00000  -0.00058  -0.00058   2.19884
   A13        1.83542   0.00065   0.00000   0.00298   0.00298   1.83840
    D1       -3.14158  -0.00000   0.00000  -0.00006  -0.00006   3.14155
    D2        0.00011  -0.00001   0.00000  -0.00032  -0.00032  -0.00021
    D3       -0.00002   0.00000   0.00000   0.00008   0.00008   0.00006
    D4       -3.14152  -0.00000   0.00000  -0.00018  -0.00018   3.14149
    D5       -0.00003   0.00000   0.00000   0.00011   0.00011   0.00008
    D6        3.14148   0.00000   0.00000   0.00013   0.00013  -3.14158
    D7       -3.14159  -0.00000   0.00000  -0.00002  -0.00002   3.14158
    D8       -0.00009   0.00000   0.00000   0.00001   0.00001  -0.00008
    D9       -0.00015   0.00001   0.00000   0.00041   0.00041   0.00026
   D10        3.14153   0.00000   0.00000   0.00017   0.00017  -3.14148
   D11       -3.14158  -0.00000   0.00000  -0.00005  -0.00005   3.14155
   D12        0.00010  -0.00000   0.00000  -0.00007  -0.00007   0.00003
   D13       -0.00007   0.00000   0.00000   0.00016   0.00016   0.00009
   D14       -3.14157   0.00000   0.00000   0.00013   0.00013  -3.14144
   D15        0.00013  -0.00001   0.00000  -0.00034  -0.00034  -0.00021
   D16       -3.14154  -0.00000   0.00000  -0.00013  -0.00013   3.14151
         Item               Value     Threshold  Converged?
 Maximum Force            0.000996     0.000450     NO 
 RMS     Force            0.000349     0.000300     NO 
 Maximum Displacement     0.003708     0.001800     NO 
 RMS     Displacement     0.001196     0.001200     YES
 Predicted change in Energy=-6.672406D-06
 Lowest energy point so far.  Saving SCF results.
 GradGradGradGradGradGradGradGradGradGradGradGradGradGradGradGradGradGrad

 Leave Link  103 at Wed Oct 11 11:52:21 2023, MaxMem=  6710886400 cpu:               0.3 elap:               0.0
 (Enter /data0/home/software/g16/l202.exe)
                          Input orientation:                          
 ---------------------------------------------------------------------
 Center     Atomic      Atomic             Coordinates (Angstroms)
 Number     Number       Type             X           Y           Z
 ---------------------------------------------------------------------
      1          6           0        0.604926    0.982507   -0.000012
      2          6           0        1.143640   -0.273312   -0.000103
      3          6           0       -0.990348   -0.539210    0.000063
      4          7           0       -0.758176    0.795780    0.000028
      5          1           0       -1.461665    1.520464    0.000084
      6          1           0        1.050604    1.962151   -0.000058
      7          1           0        2.185817   -0.547604   -0.000197
      8          1           0       -1.985208   -0.953406    0.000133
      9          7           0        0.138442   -1.224300    0.000154
 ---------------------------------------------------------------------
                    Distance matrix (angstroms):
                    1          2          3          4          5
     1  C    0.000000
     2  C    1.366489   0.000000
     3  C    2.204659   2.150490   0.000000
     4  N    1.375832   2.181710   1.355028   0.000000
     5  H    2.135462   3.163107   2.112912   1.009983   0.000000
     6  H    1.076258   2.237398   3.228357   2.152233   2.550801
     7  H    2.200103   1.077669   3.176177   3.236012   4.192974
     8  H    3.233660   3.201909   1.077639   2.136647   2.528662
     9  N    2.255572   1.383764   1.320422   2.210123   3.177117
                    6          7          8          9
     6  H    0.000000
     7  H    2.754556   0.000000
     8  H    4.209112   4.190720   0.000000
     9  N    3.314440   2.156308   2.140858   0.000000
 Stoichiometry    C3H4N2
 Framework group  C1[X(C3H4N2)]
 Deg. of freedom    21
 Full point group                 C1      NOp   1
 RotChk:  IX=2 Diff= 1.57D-02
 Largest Abelian subgroup         C1      NOp   1
 Largest concise Abelian subgroup C1      NOp   1
                         Standard orientation:                         
 ---------------------------------------------------------------------
 Center     Atomic      Atomic             Coordinates (Angstroms)
 Number     Number       Type             X           Y           Z
 ---------------------------------------------------------------------
      1          6           0        0.615790    0.975670   -0.000038
      2          6           0        1.140510   -0.286059   -0.000129
      3          6           0       -0.996301   -0.528220    0.000038
      4          7           0       -0.749304    0.804106    0.000002
      5          1           0       -1.444694    1.536566    0.000059
      6          1           0        1.072330    1.950299   -0.000084
      7          1           0        2.179575   -0.571919   -0.000223
      8          1           0       -1.995704   -0.931332    0.000107
      9          7           0        0.124804   -1.225815    0.000129
 ---------------------------------------------------------------------
 Rotational constants (GHZ):           9.7145326           9.4639597           4.7938047
 Leave Link  202 at Wed Oct 11 11:52:21 2023, MaxMem=  6710886400 cpu:               0.1 elap:               0.0
 (Enter /data0/home/software/g16/l301.exe)
 Standard basis: 6-311+G(2d,p) (5D, 7F)
 Ernie: Thresh=  0.10000D-02 Tol=  0.10000D-05 Strict=F.
 There are   169 symmetry adapted cartesian basis functions of A   symmetry.
 There are   159 symmetry adapted basis functions of A   symmetry.
   159 basis functions,   242 primitive gaussians,   169 cartesian basis functions
    18 alpha electrons       18 beta electrons
       nuclear repulsion energy       163.3043145220 Hartrees.
 IExCor=  402 DFT=T Ex+Corr=B3LYP ExCW=0 ScaHFX=  0.200000
 ScaDFX=  0.800000  0.720000  1.000000  0.810000 ScalE2=  1.000000  1.000000
 IRadAn=      5 IRanWt=     -1 IRanGd=            0 ICorTp=0 IEmpDi=141
 NAtoms=    9 NActive=    9 NUniq=    9 SFac= 1.00D+00 NAtFMM=   60 NAOKFM=F Big=F
 Integral buffers will be    131072 words long.
 Raffenetti 2 integral format.
 Two-electron integral symmetry is turned on.
 R6Disp:  Grimme-D3(BJ) Dispersion energy=       -0.0113623695 Hartrees.
 Nuclear repulsion after empirical dispersion term =      163.2929521525 Hartrees.
 ------------------------------------------------------------------------------
 Polarizable Continuum Model (PCM)
 =================================
 Model                : PCM.
 Atomic radii         : SMD-Coulomb.
 Polarization charges : Total charges.
 Charge compensation  : None.
 Solution method      : On-the-fly selection.
 Cavity type          : VdW (van der Waals Surface) (Alpha=1.000).
 Cavity algorithm     : GePol (No added spheres)
                        Default sphere list used, NSphG=    9.
                        Lebedev-Laikov grids with approx.  5.0 points / Ang**2.
                        Smoothing algorithm: York/Karplus (Gamma=1.0000).
                        Polarization charges: spherical gaussians, with
                                              point-specific exponents (IZeta= 3).
                        Self-potential: point-specific (ISelfS= 7).
                        Self-field    : sphere-specific E.n sum rule (ISelfD= 2).
 1st derivatives      : Analytical E(r).r(x)/FMM algorithm (CHGder, D1EAlg=3).
                        Cavity 1st derivative terms included.
 Solvent              : Water, Eps=  78.355300 Eps(inf)=   1.777849
 ------------------------------------------------------------------------------
 Spheres list:
 ISph  on   Nord     Re0    Alpha      Xe            Ye            Ze
    1   C      1    1.8500  1.000      0.615790      0.975670     -0.000038
    2   C      2    1.8500  1.000      1.140510     -0.286059     -0.000129
    3   C      3    1.8500  1.000     -0.996301     -0.528220      0.000038
    4   N      4    1.8900  1.000     -0.749304      0.804106      0.000002
    5   H      5    1.2000  1.000     -1.444694      1.536566      0.000059
    6   H      6    1.2000  1.000      1.072330      1.950299     -0.000084
    7   H      7    1.2000  1.000      2.179575     -0.571919     -0.000223
    8   H      8    1.2000  1.000     -1.995704     -0.931332      0.000107
    9   N      9    1.8900  1.000      0.124804     -1.225815      0.000129
 ------------------------------------------------------------------------------
 GePol: Number of generator spheres                  =       9
 GePol: Total number of spheres                      =       9
 GePol: Number of exposed spheres                    =       9 (100.00%)
 GePol: Number of points                             =     842
 GePol: Average weight of points                     =       0.11
 GePol: Minimum weight of points                     =   0.87D-09
 GePol: Maximum weight of points                     =    0.17992
 GePol: Number of points with low weight             =      35
 GePol: Fraction of low-weight points (<1% of avg)   =       4.16%
 GePol: Cavity surface area                          =     96.051 Ang**2
 GePol: Cavity volume                                =     77.893 Ang**3
 ------------------------------------------------------------------------------
 Atomic radii for non-electrostatic terms: SMD-CDS.
 ------------------------------------------------------------------------------
 PCM non-electrostatic energy =         0.0023798527 Hartrees.
 Nuclear repulsion after PCM non-electrostatic terms =      163.2953320052 Hartrees.
 Leave Link  301 at Wed Oct 11 11:52:21 2023, MaxMem=  6710886400 cpu:               1.5 elap:               0.1
 (Enter /data0/home/software/g16/l302.exe)
 NPDir=0 NMtPBC=     1 NCelOv=     1 NCel=       1 NClECP=     1 NCelD=      1
         NCelK=      1 NCelE2=     1 NClLst=     1 CellRange=     0.0.
 One-electron integrals computed using PRISM.
 One-electron integral symmetry used in STVInt
 NBasis=   159 RedAO= T EigKep=  5.11D-05  NBF=   159
 NBsUse=   159 1.00D-06 EigRej= -1.00D+00 NBFU=   159
 Precomputing XC quadrature grid using
 IXCGrd= 4 IRadAn=           5 IRanWt=          -1 IRanGd=           0 AccXCQ= 0.00D+00.
 Generated NRdTot=       0 NPtTot=           0 NUsed=           0 NTot=          32
 NSgBfM=   169   169   169   169   169 MxSgAt=     9 MxSgA2=     9.
 Leave Link  302 at Wed Oct 11 11:52:21 2023, MaxMem=  6710886400 cpu:               2.9 elap:               0.1
 (Enter /data0/home/software/g16/l303.exe)
 DipDrv:  MaxL=1.
 Leave Link  303 at Wed Oct 11 11:52:21 2023, MaxMem=  6710886400 cpu:               0.5 elap:               0.0
 (Enter /data0/home/software/g16/l401.exe)
 Initial guess from the checkpoint file:  "/data0/home/software/g16/scratch/Gau-2485012.chk"
 B after Tr=     0.000000    0.000000    0.000000
         Rot=    0.999985    0.000018    0.000002    0.005564 Ang=   0.64 deg.
 Guess basis will be translated and rotated to current coordinates.
 JPrj=2 DoOrth=T DoCkMO=T.
 Leave Link  401 at Wed Oct 11 11:52:21 2023, MaxMem=  6710886400 cpu:               2.2 elap:               0.1
 (Enter /data0/home/software/g16/l502.exe)
 Keep R1 ints in memory in canonical form, NReq=104803557.
 FoFCou: FMM=F IPFlag=           0 FMFlag=           0 FMFlg1=           0
         NFxFlg=           0 DoJE=F BraDBF=F KetDBF=F FulRan=T
         wScrn=  0.000000 ICntrl=       600 IOpCl=  0 I1Cent=           0 NGrid=           0
         NMat0=    1 NMatS0=  12720 NMatT0=    0 NMatD0=    1 NMtDS0=    0 NMtDT0=    0
 Symmetry not used in FoFCou.
 Two-electron integral symmetry not used.
 Closed shell SCF:
 Using DIIS extrapolation, IDIIS=  1040.
 NGot=  6710886400 LenX=  6629918005 LenY=  6629889003
 Requested convergence on RMS density matrix=1.00D-08 within 128 cycles.
 Requested convergence on MAX density matrix=1.00D-06.
 Requested convergence on             energy=1.00D-06.
 No special actions if energy rises.

 Cycle   1  Pass 1  IDiag  1:
 Inv3:  Mode=1 IEnd=     2126892.
 Iteration    1 A*A^-1 deviation from unit magnitude is 2.55D-15 for    114.
 Iteration    1 A*A^-1 deviation from orthogonality  is 1.28D-15 for     79     63.
 Iteration    1 A^-1*A deviation from unit magnitude is 2.44D-15 for    503.
 Iteration    1 A^-1*A deviation from orthogonality  is 1.76D-15 for    515      1.
 E= -226.314118336578    
 DIIS: error= 1.23D-04 at cycle   1 NSaved=   1.
 NSaved= 1 IEnMin= 1 EnMin= -226.314118336578     IErMin= 1 ErrMin= 1.23D-04
 ErrMax= 1.23D-04  0.00D+00 EMaxC= 1.00D-01 BMatC= 3.10D-06 BMatP= 3.10D-06
 IDIUse=3 WtCom= 9.99D-01 WtEn= 1.23D-03
 Coeff-Com:  0.100D+01
 Coeff-En:   0.100D+01
 Coeff:      0.100D+01
 Gap=     0.494 Goal=   None    Shift=    0.000
 RMSDP=1.73D-05 MaxDP=3.59D-04              OVMax= 6.62D-04

 Cycle   2  Pass 1  IDiag  1:
 E= -226.314121037225     Delta-E=       -0.000002700647 Rises=F Damp=F
 DIIS: error= 7.32D-05 at cycle   2 NSaved=   2.
 NSaved= 2 IEnMin= 2 EnMin= -226.314121037225     IErMin= 2 ErrMin= 7.32D-05
 ErrMax= 7.32D-05  0.00D+00 EMaxC= 1.00D-01 BMatC= 5.50D-07 BMatP= 3.10D-06
 IDIUse=1 WtCom= 1.00D+00 WtEn= 0.00D+00
 Coeff-Com:  0.198D+00 0.802D+00
 Coeff:      0.198D+00 0.802D+00
 Gap=     0.251 Goal=   None    Shift=    0.000
 RMSDP=7.21D-06 MaxDP=2.60D-04 DE=-2.70D-06 OVMax= 4.59D-04

 Cycle   3  Pass 1  IDiag  1:
 E= -226.314120927507     Delta-E=        0.000000109718 Rises=F Damp=F
 DIIS: error= 8.49D-05 at cycle   3 NSaved=   3.
 NSaved= 3 IEnMin= 2 EnMin= -226.314121037225     IErMin= 2 ErrMin= 7.32D-05
 ErrMax= 8.49D-05  0.00D+00 EMaxC= 1.00D-01 BMatC= 6.67D-07 BMatP= 5.50D-07
 IDIUse=1 WtCom= 1.00D+00 WtEn= 0.00D+00
 Coeff-Com: -0.652D-02 0.526D+00 0.480D+00
 Coeff:     -0.652D-02 0.526D+00 0.480D+00
 Gap=     0.251 Goal=   None    Shift=    0.000
 RMSDP=3.94D-06 MaxDP=1.46D-04 DE= 1.10D-07 OVMax= 2.90D-04

 Cycle   4  Pass 1  IDiag  1:
 E= -226.314121470022     Delta-E=       -0.000000542515 Rises=F Damp=F
 DIIS: error= 1.68D-05 at cycle   4 NSaved=   4.
 NSaved= 4 IEnMin= 4 EnMin= -226.314121470022     IErMin= 4 ErrMin= 1.68D-05
 ErrMax= 1.68D-05  0.00D+00 EMaxC= 1.00D-01 BMatC= 1.89D-08 BMatP= 5.50D-07
 IDIUse=1 WtCom= 1.00D+00 WtEn= 0.00D+00
 Coeff-Com: -0.118D-01 0.248D+00 0.264D+00 0.500D+00
 Coeff:     -0.118D-01 0.248D+00 0.264D+00 0.500D+00
 Gap=     0.251 Goal=   None    Shift=    0.000
 RMSDP=6.60D-07 MaxDP=1.81D-05 DE=-5.43D-07 OVMax= 5.25D-05

 Cycle   5  Pass 1  IDiag  1:
 E= -226.314121484946     Delta-E=       -0.000000014924 Rises=F Damp=F
 DIIS: error= 4.63D-06 at cycle   5 NSaved=   5.
 NSaved= 5 IEnMin= 5 EnMin= -226.314121484946     IErMin= 5 ErrMin= 4.63D-06
 ErrMax= 4.63D-06  0.00D+00 EMaxC= 1.00D-01 BMatC= 1.41D-09 BMatP= 1.89D-08
 IDIUse=1 WtCom= 1.00D+00 WtEn= 0.00D+00
 Coeff-Com: -0.500D-02 0.625D-01 0.833D-01 0.259D+00 0.600D+00
 Coeff:     -0.500D-02 0.625D-01 0.833D-01 0.259D+00 0.600D+00
 Gap=     0.251 Goal=   None    Shift=    0.000
 RMSDP=1.77D-07 MaxDP=7.23D-06 DE=-1.49D-08 OVMax= 1.43D-05

 Cycle   6  Pass 1  IDiag  1:
 E= -226.314121486021     Delta-E=       -0.000000001075 Rises=F Damp=F
 DIIS: error= 9.86D-07 at cycle   6 NSaved=   6.
 NSaved= 6 IEnMin= 6 EnMin= -226.314121486021     IErMin= 6 ErrMin= 9.86D-07
 ErrMax= 9.86D-07  0.00D+00 EMaxC= 1.00D-01 BMatC= 1.62D-10 BMatP= 1.41D-09
 IDIUse=1 WtCom= 1.00D+00 WtEn= 0.00D+00
 Coeff-Com: -0.120D-02 0.584D-02 0.166D-01 0.840D-01 0.322D+00 0.573D+00
 Coeff:     -0.120D-02 0.584D-02 0.166D-01 0.840D-01 0.322D+00 0.573D+00
 Gap=     0.251 Goal=   None    Shift=    0.000
 RMSDP=6.54D-08 MaxDP=1.68D-06 DE=-1.08D-09 OVMax= 4.00D-06

 Cycle   7  Pass 1  IDiag  1:
 E= -226.314121486165     Delta-E=       -0.000000000144 Rises=F Damp=F
 DIIS: error= 1.44D-07 at cycle   7 NSaved=   7.
 NSaved= 7 IEnMin= 7 EnMin= -226.314121486165     IErMin= 7 ErrMin= 1.44D-07
 ErrMax= 1.44D-07  0.00D+00 EMaxC= 1.00D-01 BMatC= 3.96D-12 BMatP= 1.62D-10
 IDIUse=1 WtCom= 1.00D+00 WtEn= 0.00D+00
 Coeff-Com:  0.446D-04-0.395D-02-0.268D-02 0.194D-03 0.418D-01 0.174D+00
 Coeff-Com:  0.790D+00
 Coeff:      0.446D-04-0.395D-02-0.268D-02 0.194D-03 0.418D-01 0.174D+00
 Coeff:      0.790D+00
 Gap=     0.251 Goal=   None    Shift=    0.000
 RMSDP=1.59D-08 MaxDP=3.58D-07 DE=-1.44D-10 OVMax= 6.69D-07

 Cycle   8  Pass 1  IDiag  1:
 E= -226.314121486169     Delta-E=       -0.000000000004 Rises=F Damp=F
 DIIS: error= 2.67D-08 at cycle   8 NSaved=   8.
 NSaved= 8 IEnMin= 8 EnMin= -226.314121486169     IErMin= 8 ErrMin= 2.67D-08
 ErrMax= 2.67D-08  0.00D+00 EMaxC= 1.00D-01 BMatC= 1.31D-13 BMatP= 3.96D-12
 IDIUse=1 WtCom= 1.00D+00 WtEn= 0.00D+00
 Coeff-Com:  0.348D-04-0.946D-03-0.102D-02-0.189D-02 0.367D-02 0.305D-01
 Coeff-Com:  0.220D+00 0.750D+00
 Coeff:      0.348D-04-0.946D-03-0.102D-02-0.189D-02 0.367D-02 0.305D-01
 Coeff:      0.220D+00 0.750D+00
 Gap=     0.251 Goal=   None    Shift=    0.000
 RMSDP=3.05D-09 MaxDP=6.65D-08 DE=-4.49D-12 OVMax= 2.21D-07

 Error on total polarization charges =  0.03311
 SCF Done:  E(RB3LYP) =  -226.314121486     A.U. after    8 cycles
            NFock=  8  Conv=0.30D-08     -V/T= 2.0042
 KE= 2.253727222319D+02 PE=-8.537121896878D+02 EE= 2.387300139645D+02
 SMD-CDS (non-electrostatic) energy       (kcal/mol) =       1.49
 (included in total energy above)
 Leave Link  502 at Wed Oct 11 11:52:26 2023, MaxMem=  6710886400 cpu:              83.2 elap:               4.4
 (Enter /data0/home/software/g16/l701.exe)
 ... and contract with generalized density number  0.
 Compute integral first derivatives.
 R6Disp: Adding Grimme-D3(BJ) dispersion energy 1st derivatives to the gradient.
 D1PCM: PCM CHGder 1st derivatives, ID1Alg=3 FixD1E=F DoIter=F DoCFld=F I1PDM=0.
 GePol: Maximum number of non-zero 1st derivatives   =     221
 Leave Link  701 at Wed Oct 11 11:52:26 2023, MaxMem=  6710886400 cpu:               9.6 elap:               0.4
 (Enter /data0/home/software/g16/l702.exe)
 L702 exits ... SP integral derivatives will be done elsewhere.
 Leave Link  702 at Wed Oct 11 11:52:26 2023, MaxMem=  6710886400 cpu:               0.4 elap:               0.0
 (Enter /data0/home/software/g16/l703.exe)
 Integral derivatives from FoFJK, PRISM(SPDF).
 Compute integral first derivatives, UseDBF=F ICtDFT=           0.
 Calling FoFJK, ICntrl=      2127 FMM=F ISym2X=0 I1Cent= 0 IOpClX= 0 NMat=1 NMatS=1 NMatT=0.
 FoFJK:  IHMeth= 1 ICntrl=    2127 DoSepK=F KAlg= 0 I1Cent=           0 FoldK=F
 IRaf=         0 NMat=       1 IRICut=       1 DoRegI=T DoRafI=F ISym2E= 0 IDoP0=0 IntGTp=1.
 FoFCou: FMM=F IPFlag=           0 FMFlag=      100000 FMFlg1=         800
         NFxFlg=           0 DoJE=F BraDBF=F KetDBF=F FulRan=T
         wScrn=  0.000000 ICntrl=      2127 IOpCl=  0 I1Cent=           0 NGrid=           0
         NMat0=    1 NMatS0=      1 NMatT0=    0 NMatD0=    1 NMtDS0=    0 NMtDT0=    0
 Symmetry not used in FoFCou.
 Leave Link  703 at Wed Oct 11 11:52:27 2023, MaxMem=  6710886400 cpu:              20.6 elap:               0.9
 (Enter /data0/home/software/g16/l716.exe)
 Dipole        =-8.95412563D-01 1.92579404D+00-8.68757389D-05
 ***** Axes restored to original set *****
 -------------------------------------------------------------------
 Center     Atomic                   Forces (Hartrees/Bohr)
 Number     Number              X              Y              Z
 -------------------------------------------------------------------
      1        6          -0.000064374   -0.000081312   -0.000017470
      2        6          -0.000372114    0.000163043    0.000030271
      3        6           0.000543742    0.000190649    0.000022392
      4        7          -0.000060095    0.000196074    0.000000515
      5        1           0.000038696    0.000086470   -0.000001348
      6        1          -0.000089636    0.000057684   -0.000001665
      7        1          -0.000084472   -0.000077801    0.000002639
      8        1           0.000059689    0.000000437    0.000001294
      9        7           0.000028563   -0.000535244   -0.000036628
 -------------------------------------------------------------------
 Cartesian Forces:  Max     0.000543742 RMS     0.000180260
 Leave Link  716 at Wed Oct 11 11:52:27 2023, MaxMem=  6710886400 cpu:               0.4 elap:               0.0
 (Enter /data0/home/software/g16/l103.exe)

 GradGradGradGradGradGradGradGradGradGradGradGradGradGradGradGradGradGrad
 Berny optimization.
 Using GEDIIS/GDIIS optimizer.
 FormGI is forming the generalized inverse of G from B-inverse, IUseBI=4.
 Internal  Forces:  Max     0.000445521 RMS     0.000142439
 Search for a local minimum.
 Step number   2 out of a maximum of   48
 All quantities printed in internal units (Hartrees-Bohrs-Radians)
 RMS Force = .14244D-03 SwitMx=.10000D-02 MixMth= 2
 Mixed Optimization -- En-DIIS/RFO-DIIS
 Swapping is turned off.
 Update second derivatives using D2CorX and points    1    2
 DE= -4.75D-06 DEPred=-6.67D-06 R= 7.11D-01
 TightC=F SS=  1.41D+00  RLast= 6.76D-03 DXNew= 5.0454D-01 2.0270D-02
 Trust test= 7.11D-01 RLast= 6.76D-03 DXMaxT set to 3.00D-01
 ITU=  1  0
     Eigenvalues ---    0.02143   0.02213   0.02250   0.02377   0.02412
     Eigenvalues ---    0.02480   0.15403   0.16000   0.16000   0.16019
     Eigenvalues ---    0.22038   0.31657   0.35642   0.36245   0.36486
     Eigenvalues ---    0.43354   0.45914   0.46801   0.51091   0.53552
     Eigenvalues ---    0.59856
 En-DIIS/RFO-DIIS/Sim-DIIS IScMMF=       -3 using points:     2    1
 RFO step:  Lambda=-2.05980569D-06.
 NNeg= 0 NGDIIS= 2 SimSw=  2.50D-03 Rises=F DC= -4.75D-06 SmlDif=  1.00D-05
 NRisDI= 0 DoIntr=F SqrtH=F CThrHd= 10.0 CDAdj=  3.0
 RMS Error=  0.4219069688D-03 NUsed= 2 OKEnD=F EnDIS=F
 InvSVX:  RCond= 5.14D-05 Info=           0 Equed=N FErr=  1.25D-15 BErr=  5.66D-17
 DidBck=T Rises=F RFO-DIIS coefs:    0.73266    0.26734
 Iteration  1 RMS(Cart)=  0.00048620 RMS(Int)=  0.00000014
 Iteration  2 RMS(Cart)=  0.00000014 RMS(Int)=  0.00000004
 ITry= 1 IFail=0 DXMaxC= 1.25D-03 DCOld= 1.00D+10 DXMaxT= 3.00D-01 DXLimC= 3.00D+00 Rises=F
 Variable       Old X    -DE/DX   Delta X   Delta X   Delta X     New X
                                 (Linear)    (Quad)   (Total)
    R1        2.58229   0.00005  -0.00012   0.00021   0.00010   2.58239
    R2        2.59995  -0.00032  -0.00051   0.00015  -0.00036   2.59958
    R3        2.03383   0.00002   0.00018  -0.00019  -0.00001   2.03383
    R4        2.03650  -0.00006   0.00014  -0.00029  -0.00015   2.03635
    R5        2.61493  -0.00008  -0.00054   0.00054  -0.00001   2.61493
    R6        2.56063   0.00008  -0.00016   0.00030   0.00014   2.56077
    R7        2.03644  -0.00006   0.00016  -0.00030  -0.00014   2.03630
    R8        2.49524  -0.00007  -0.00035   0.00034  -0.00001   2.49523
    R9        1.90859   0.00003   0.00013  -0.00010   0.00003   1.90862
    A1        1.83989  -0.00003  -0.00012   0.00002  -0.00010   1.83979
    A2        2.30941   0.00013  -0.00012   0.00071   0.00059   2.31000
    A3        2.13389  -0.00010   0.00024  -0.00073  -0.00049   2.13340
    A4        2.23338  -0.00004  -0.00031   0.00037   0.00005   2.23344
    A5        1.92326   0.00028   0.00057   0.00019   0.00076   1.92402
    A6        2.12654  -0.00023  -0.00026  -0.00056  -0.00082   2.12573
    A7        2.13750  -0.00016  -0.00033  -0.00009  -0.00042   2.13707
    A8        1.94410   0.00038   0.00078   0.00029   0.00107   1.94517
    A9        2.20159  -0.00022  -0.00044  -0.00020  -0.00065   2.20094
   A10        1.87913  -0.00018  -0.00043  -0.00011  -0.00054   1.87859
   A11        2.20522   0.00001   0.00028  -0.00039  -0.00011   2.20510
   A12        2.19884   0.00017   0.00016   0.00050   0.00065   2.19949
   A13        1.83840  -0.00045  -0.00080  -0.00040  -0.00119   1.83721
    D1        3.14155   0.00000   0.00002   0.00006   0.00008  -3.14156
    D2       -0.00021   0.00001   0.00009   0.00031   0.00040   0.00018
    D3        0.00006  -0.00000  -0.00002  -0.00008  -0.00011  -0.00004
    D4        3.14149   0.00001   0.00005   0.00016   0.00021  -3.14148
    D5        0.00008  -0.00000  -0.00003  -0.00011  -0.00014  -0.00006
    D6       -3.14158  -0.00000  -0.00003  -0.00009  -0.00012   3.14148
    D7        3.14158   0.00000   0.00000   0.00001   0.00002  -3.14159
    D8       -0.00008   0.00000  -0.00000   0.00004   0.00004  -0.00004
    D9        0.00026  -0.00002  -0.00011  -0.00039  -0.00050  -0.00024
   D10       -3.14148  -0.00001  -0.00005  -0.00016  -0.00020   3.14150
   D11        3.14155   0.00000   0.00001   0.00006   0.00007  -3.14156
   D12        0.00003   0.00000   0.00002   0.00003   0.00005   0.00008
   D13        0.00009  -0.00001  -0.00004  -0.00013  -0.00017  -0.00009
   D14       -3.14144  -0.00001  -0.00004  -0.00016  -0.00019   3.14155
   D15       -0.00021   0.00001   0.00009   0.00031   0.00041   0.00020
   D16        3.14151   0.00001   0.00003   0.00012   0.00015  -3.14152
         Item               Value     Threshold  Converged?
 Maximum Force            0.000446     0.000450     YES
 RMS     Force            0.000142     0.000300     YES
 Maximum Displacement     0.001255     0.001800     YES
 RMS     Displacement     0.000486     0.001200     YES
 Predicted change in Energy=-1.029905D-06
 Optimization completed.
    -- Stationary point found.
                           ----------------------------
                           !   Optimized Parameters   !
                           ! (Angstroms and Degrees)  !
 --------------------------                            --------------------------
 ! Name  Definition              Value          Derivative Info.                !
 --------------------------------------------------------------------------------
 ! R1    R(1,2)                  1.3665         -DE/DX =    0.0001              !
 ! R2    R(1,4)                  1.3758         -DE/DX =   -0.0003              !
 ! R3    R(1,6)                  1.0763         -DE/DX =    0.0                 !
 ! R4    R(2,7)                  1.0777         -DE/DX =   -0.0001              !
 ! R5    R(2,9)                  1.3838         -DE/DX =   -0.0001              !
 ! R6    R(3,4)                  1.355          -DE/DX =    0.0001              !
 ! R7    R(3,8)                  1.0776         -DE/DX =   -0.0001              !
 ! R8    R(3,9)                  1.3204         -DE/DX =   -0.0001              !
 ! R9    R(4,5)                  1.01           -DE/DX =    0.0                 !
 ! A1    A(2,1,4)              105.4178         -DE/DX =    0.0                 !
 ! A2    A(2,1,6)              132.3193         -DE/DX =    0.0001              !
 ! A3    A(4,1,6)              122.2629         -DE/DX =   -0.0001              !
 ! A4    A(1,2,7)              127.9634         -DE/DX =    0.0                 !
 ! A5    A(1,2,9)              110.1946         -DE/DX =    0.0003              !
 ! A6    A(7,2,9)              121.842          -DE/DX =   -0.0002              !
 ! A7    A(4,3,8)              122.4695         -DE/DX =   -0.0002              !
 ! A8    A(4,3,9)              111.3888         -DE/DX =    0.0004              !
 ! A9    A(8,3,9)              126.1417         -DE/DX =   -0.0002              !
 ! A10   A(1,4,3)              107.6661         -DE/DX =   -0.0002              !
 ! A11   A(1,4,5)              126.3495         -DE/DX =    0.0                 !
 ! A12   A(3,4,5)              125.9844         -DE/DX =    0.0002              !
 ! A13   A(2,9,3)              105.3328         -DE/DX =   -0.0004              !
 ! D1    D(4,1,2,7)           -180.0027         -DE/DX =    0.0                 !
 ! D2    D(4,1,2,9)             -0.0121         -DE/DX =    0.0                 !
 ! D3    D(6,1,2,7)              0.0035         -DE/DX =    0.0                 !
 ! D4    D(6,1,2,9)           -180.0059         -DE/DX =    0.0                 !
 ! D5    D(2,1,4,3)              0.0046         -DE/DX =    0.0                 !
 ! D6    D(2,1,4,5)            180.0007         -DE/DX =    0.0                 !
 ! D7    D(6,1,4,3)           -180.0008         -DE/DX =    0.0                 !
 ! D8    D(6,1,4,5)             -0.0047         -DE/DX =    0.0                 !
 ! D9    D(1,2,9,3)              0.015          -DE/DX =    0.0                 !
 ! D10   D(7,2,9,3)            180.0063         -DE/DX =    0.0                 !
 ! D11   D(8,3,4,1)           -180.0022         -DE/DX =    0.0                 !
 ! D12   D(8,3,4,5)              0.0016         -DE/DX =    0.0                 !
 ! D13   D(9,3,4,1)              0.0049         -DE/DX =    0.0                 !
 ! D14   D(9,3,4,5)            180.0087         -DE/DX =    0.0                 !
 ! D15   D(4,3,9,2)             -0.0121         -DE/DX =    0.0                 !
 ! D16   D(8,3,9,2)           -180.0047         -DE/DX =    0.0                 !
 --------------------------------------------------------------------------------
 Lowest energy point so far.  Saving SCF results.
 Largest change from initial coordinates is atom    8       0.014 Angstoms.
 GradGradGradGradGradGradGradGradGradGradGradGradGradGradGradGradGradGrad

 Leave Link  103 at Wed Oct 11 11:52:27 2023, MaxMem=  6710886400 cpu:               0.3 elap:               0.0
 (Enter /data0/home/software/g16/l202.exe)
                          Input orientation:                          
 ---------------------------------------------------------------------
 Center     Atomic      Atomic             Coordinates (Angstroms)
 Number     Number       Type             X           Y           Z
 ---------------------------------------------------------------------
      1          6           0        0.604926    0.982507   -0.000012
      2          6           0        1.143640   -0.273312   -0.000103
      3          6           0       -0.990348   -0.539210    0.000063
      4          7           0       -0.758176    0.795780    0.000028
      5          1           0       -1.461665    1.520464    0.000084
      6          1           0        1.050604    1.962151   -0.000058
      7          1           0        2.185817   -0.547604   -0.000197
      8          1           0       -1.985208   -0.953406    0.000133
      9          7           0        0.138442   -1.224300    0.000154
 ---------------------------------------------------------------------
                    Distance matrix (angstroms):
                    1          2          3          4          5
     1  C    0.000000
     2  C    1.366489   0.000000
     3  C    2.204659   2.150490   0.000000
     4  N    1.375832   2.181710   1.355028   0.000000
     5  H    2.135462   3.163107   2.112912   1.009983   0.000000
     6  H    1.076258   2.237398   3.228357   2.152233   2.550801
     7  H    2.200103   1.077669   3.176177   3.236012   4.192974
     8  H    3.233660   3.201909   1.077639   2.136647   2.528662
     9  N    2.255572   1.383764   1.320422   2.210123   3.177117
                    6          7          8          9
     6  H    0.000000
     7  H    2.754556   0.000000
     8  H    4.209112   4.190720   0.000000
     9  N    3.314440   2.156308   2.140858   0.000000
 Stoichiometry    C3H4N2
 Framework group  C1[X(C3H4N2)]
 Deg. of freedom    21
 Full point group                 C1      NOp   1
 RotChk:  IX=2 Diff= 2.55D-15
 Largest Abelian subgroup         C1      NOp   1
 Largest concise Abelian subgroup C1      NOp   1
                         Standard orientation:                         
 ---------------------------------------------------------------------
 Center     Atomic      Atomic             Coordinates (Angstroms)
 Number     Number       Type             X           Y           Z
 ---------------------------------------------------------------------
      1          6           0        0.615790    0.975670   -0.000038
      2          6           0        1.140510   -0.286059   -0.000129
      3          6           0       -0.996301   -0.528220    0.000038
      4          7           0       -0.749304    0.804106    0.000002
      5          1           0       -1.444694    1.536566    0.000059
      6          1           0        1.072330    1.950299   -0.000084
      7          1           0        2.179575   -0.571919   -0.000223
      8          1           0       -1.995704   -0.931332    0.000107
      9          7           0        0.124804   -1.225815    0.000129
 ---------------------------------------------------------------------
 Rotational constants (GHZ):           9.7145326           9.4639597           4.7938047
 Leave Link  202 at Wed Oct 11 11:52:27 2023, MaxMem=  6710886400 cpu:               0.1 elap:               0.0
 (Enter /data0/home/software/g16/l601.exe)
 Copying SCF densities to generalized density rwf, IOpCl= 0 IROHF=0.

 **********************************************************************

            Population analysis using the SCF density.

 **********************************************************************

 Orbital symmetries:
       Occupied  (A) (A) (A) (A) (A) (A) (A) (A) (A) (A) (A) (A)
                 (A) (A) (A) (A) (A) (A)
       Virtual   (A) (A) (A) (A) (A) (A) (A) (A) (A) (A) (A) (A)
                 (A) (A) (A) (A) (A) (A) (A) (A) (A) (A) (A) (A)
                 (A) (A) (A) (A) (A) (A) (A) (A) (A) (A) (A) (A)
                 (A) (A) (A) (A) (A) (A) (A) (A) (A) (A) (A) (A)
                 (A) (A) (A) (A) (A) (A) (A) (A) (A) (A) (A) (A)
                 (A) (A) (A) (A) (A) (A) (A) (A) (A) (A) (A) (A)
                 (A) (A) (A) (A) (A) (A) (A) (A) (A) (A) (A) (A)
                 (A) (A) (A) (A) (A) (A) (A) (A) (A) (A) (A) (A)
                 (A) (A) (A) (A) (A) (A) (A) (A) (A) (A) (A) (A)
                 (A) (A) (A) (A) (A) (A) (A) (A) (A) (A) (A) (A)
                 (A) (A) (A) (A) (A) (A) (A) (A) (A) (A) (A) (A)
                 (A) (A) (A) (A) (A) (A) (A) (A) (A)
 The electronic state is 1-A.
 Alpha  occ. eigenvalues --  -14.36672 -14.30204 -10.22419 -10.19698 -10.18368
 Alpha  occ. eigenvalues --   -1.01957  -0.87324  -0.74772  -0.61319  -0.59412
 Alpha  occ. eigenvalues --   -0.56215  -0.44286  -0.43744  -0.43627  -0.41312
 Alpha  occ. eigenvalues --   -0.29196  -0.29035  -0.23974
 Alpha virt. eigenvalues --    0.01132   0.01215   0.03541   0.03761   0.03862
 Alpha virt. eigenvalues --    0.05763   0.05914   0.05926   0.07489   0.09458
 Alpha virt. eigenvalues --    0.10849   0.11195   0.13065   0.14379   0.15435
 Alpha virt. eigenvalues --    0.19080   0.19136   0.19674   0.20344   0.20675
 Alpha virt. eigenvalues --    0.21134   0.21706   0.23244   0.24271   0.26163
 Alpha virt. eigenvalues --    0.26763   0.29257   0.30953   0.40176   0.41825
 Alpha virt. eigenvalues --    0.44272   0.46162   0.51365   0.51738   0.54488
 Alpha virt. eigenvalues --    0.54928   0.55591   0.57607   0.59080   0.60828
 Alpha virt. eigenvalues --    0.62769   0.67395   0.71333   0.73445   0.73466
 Alpha virt. eigenvalues --    0.75887   0.76279   0.77123   0.80065   0.81805
 Alpha virt. eigenvalues --    0.82152   0.85034   0.87331   0.88540   0.90764
 Alpha virt. eigenvalues --    0.94947   0.95958   0.98239   1.03239   1.08293
 Alpha virt. eigenvalues --    1.15590   1.22192   1.24149   1.30011   1.31524
 Alpha virt. eigenvalues --    1.33044   1.36415   1.37677   1.39563   1.42309
 Alpha virt. eigenvalues --    1.42865   1.44592   1.48053   1.66646   1.68148
 Alpha virt. eigenvalues --    1.70298   1.71524   1.77174   1.79543   1.88268
 Alpha virt. eigenvalues --    1.88455   1.98591   2.01944   2.12771   2.20961
 Alpha virt. eigenvalues --    2.30313   2.37465   2.46328   2.51793   2.62716
 Alpha virt. eigenvalues --    2.68687   2.74620   2.76217   2.77610   2.82013
 Alpha virt. eigenvalues --    2.82568   2.90859   2.92427   3.07857   3.12992
 Alpha virt. eigenvalues --    3.19064   3.23746   3.29787   3.31992   3.35909
 Alpha virt. eigenvalues --    3.36953   3.40112   3.42098   3.42343   3.50298
 Alpha virt. eigenvalues --    3.56293   3.60050   3.60287   3.62834   3.69236
 Alpha virt. eigenvalues --    3.73779   3.88111   3.93314   3.94743   3.96963
 Alpha virt. eigenvalues --    4.01142   4.46392   4.60710   4.90837   4.94411
 Alpha virt. eigenvalues --    4.99112   5.01925   5.03971   5.04156   5.09725
 Alpha virt. eigenvalues --    5.24460   5.29567   5.38938   5.45717   5.60073
 Alpha virt. eigenvalues --    5.69791  23.83439  24.06530  24.13705  35.56465
 Alpha virt. eigenvalues --   35.63198
          Condensed to atoms (all electrons):
               1          2          3          4          5          6
     1  C    5.228625   0.349020  -0.182313   0.416582  -0.050117   0.410882
     2  C    0.349020   5.133970  -0.032051  -0.155568   0.024215  -0.029380
     3  C   -0.182313  -0.032051   4.931888   0.377249  -0.025000   0.008088
     4  N    0.416582  -0.155568   0.377249   6.292197   0.381622  -0.030334
     5  H   -0.050117   0.024215  -0.025000   0.381622   0.351469  -0.002346
     6  H    0.410882  -0.029380   0.008088  -0.030334  -0.002346   0.483428
     7  H   -0.068693   0.444835   0.014600   0.008617  -0.000080  -0.000790
     8  H    0.001066   0.016414   0.429613  -0.042409  -0.000832  -0.000054
     9  N    0.012799   0.272346   0.355846   0.002320   0.001924   0.005066
               7          8          9
[...]
     38  0.000000D+00 -0.413692D-05  0.223202D-02  0.549952D-02 -0.212483D-02
               26            27            28            29            30 
     26  0.954417D-02
     27 -0.328782D-02  0.167684D-01
     28 -0.662695D-03  0.741838D-02  0.637668D-02
     29 -0.501522D-02  0.729966D-02  0.113836D-02  0.771113D-02
     30 -0.239010D-02 -0.205034D-02  0.966492D-04  0.154983D-02  0.369682D-02
     31 -0.894574D-02  0.590104D-02  0.520570D-02 -0.279710D-04 -0.723309D-03
     32  0.546603D-03 -0.634005D-03  0.215552D-02 -0.435749D-02 -0.156796D-02
     33  0.311421D-02 -0.654339D-02 -0.397585D-03 -0.420925D-02  0.193656D-02
     34  0.501293D-03  0.276316D-02  0.639280D-03  0.192342D-02 -0.200454D-03
     35 -0.231732D-02 -0.140445D-01 -0.452373D-02 -0.780460D-02  0.171612D-02
     36 -0.493024D-02 -0.473791D-02 -0.348686D-02 -0.167194D-02 -0.420886D-03
     37  0.681711D-02  0.509431D-02 -0.350402D-03  0.482358D-02 -0.621132D-03
     38  0.114267D-02 -0.274222D-02 -0.466107D-02  0.106743D-02 -0.851422D-03
               31            32            33            34            35 
     31  0.195311D-01
     32  0.666463D-02  0.104018D-01
     33 -0.274891D-02  0.119154D-02  0.106266D-01
     34 -0.205680D-02 -0.158502D-02  0.450934D-02  0.662334D-02
     35  0.642176D-02  0.501546D-02  0.518995D-02 -0.428654D-02  0.191620D-01
     36  0.711387D-02  0.223890D-02 -0.927296D-03 -0.217253D-02  0.968550D-02
     37 -0.157228D-01 -0.710446D-02 -0.154016D-02  0.387926D-02 -0.156707D-01
     38 -0.614200D-02 -0.310952D-02 -0.721993D-02 -0.530999D-02 -0.107385D-02
               36            37            38 
     36  0.844027D-02
     37 -0.102513D-01  0.191245D-01
     38  0.836091D-03  0.436199D-02  0.107829D-01
 Leave Link  716 at Wed Oct 11 11:53:00 2023, MaxMem=  6710886400 cpu:               0.6 elap:               0.0
 (Enter /data0/home/software/g16/l103.exe)

 GradGradGradGradGradGradGradGradGradGradGradGradGradGradGradGradGradGrad
 Berny optimization.
 Red2BG is reusing G-inverse.
 Internal  Forces:  Max     0.000445504 RMS     0.000142438
 Search for a local minimum.
 Step number   1 out of a maximum of    2
 All quantities printed in internal units (Hartrees-Bohrs-Radians)
 Second derivative matrix not updated -- analytic derivatives used.
 ITU=  0
     Eigenvalues ---    0.00578   0.01172   0.02005   0.02645   0.06020
     Eigenvalues ---    0.06337   0.09585   0.10439   0.10853   0.11915
     Eigenvalues ---    0.22910   0.24727   0.33522   0.37149   0.37399
     Eigenvalues ---    0.37639   0.40656   0.43663   0.46349   0.47010
     Eigenvalues ---    0.56873
 Angle between quadratic step and forces=  30.62 degrees.
 Linear search not attempted -- first point.
 Iteration  1 RMS(Cart)=  0.00055303 RMS(Int)=  0.00000016
 Iteration  2 RMS(Cart)=  0.00000017 RMS(Int)=  0.00000005
 ITry= 1 IFail=0 DXMaxC= 1.53D-03 DCOld= 1.00D+10 DXMaxT= 3.00D-01 DXLimC= 3.00D+00 Rises=F
 Variable       Old X    -DE/DX   Delta X   Delta X   Delta X     New X
                                 (Linear)    (Quad)   (Total)
    R1        2.58229   0.00005   0.00000  -0.00010  -0.00010   2.58220
    R2        2.59995  -0.00032   0.00000  -0.00030  -0.00030   2.59965
    R3        2.03383   0.00002   0.00000   0.00004   0.00004   2.03387
    R4        2.03650  -0.00006   0.00000  -0.00013  -0.00013   2.03637
    R5        2.61493  -0.00008   0.00000   0.00013   0.00013   2.61507
    R6        2.56063   0.00008   0.00000   0.00000   0.00000   2.56064
    R7        2.03644  -0.00006   0.00000  -0.00009  -0.00009   2.03635
    R8        2.49524  -0.00007   0.00000  -0.00008  -0.00008   2.49515
    R9        1.90859   0.00003   0.00000   0.00005   0.00005   1.90864
    A1        1.83989  -0.00003   0.00000  -0.00008  -0.00008   1.83981
    A2        2.30941   0.00013   0.00000   0.00091   0.00091   2.31032
    A3        2.13389  -0.00010   0.00000  -0.00083  -0.00083   2.13306
    A4        2.23338  -0.00004   0.00000   0.00035   0.00035   2.23373
    A5        1.92326   0.00028   0.00000   0.00073   0.00073   1.92399
    A6        2.12654  -0.00023   0.00000  -0.00108  -0.00108   2.12546
    A7        2.13750  -0.00016   0.00000  -0.00036  -0.00036   2.13713
    A8        1.94410   0.00038   0.00000   0.00109   0.00109   1.94519
    A9        2.20159  -0.00022   0.00000  -0.00072  -0.00072   2.20087
   A10        1.87913  -0.00018   0.00000  -0.00054  -0.00054   1.87859
   A11        2.20522   0.00001   0.00000  -0.00034  -0.00034   2.20488
   A12        2.19884   0.00017   0.00000   0.00087   0.00087   2.19972
   A13        1.83840  -0.00045   0.00000  -0.00121  -0.00121   1.83720
    D1        3.14155   0.00000   0.00000   0.00005   0.00005  -3.14159
    D2       -0.00021   0.00001   0.00000   0.00021   0.00021  -0.00000
    D3        0.00006  -0.00000   0.00000  -0.00006  -0.00006  -0.00000
    D4        3.14149   0.00001   0.00000   0.00010   0.00010   3.14159
    D5        0.00008  -0.00000   0.00000  -0.00008  -0.00008   0.00000
    D6       -3.14158  -0.00000   0.00000  -0.00002  -0.00002   3.14159
    D7        3.14158   0.00000   0.00000   0.00002   0.00002  -3.14159
    D8       -0.00008   0.00000   0.00000   0.00008   0.00008  -0.00000
    D9        0.00026  -0.00002   0.00000  -0.00026  -0.00026   0.00000
   D10       -3.14148  -0.00001   0.00000  -0.00011  -0.00011   3.14159
   D11        3.14155   0.00000   0.00000   0.00004   0.00004   3.14159
   D12        0.00003   0.00000   0.00000  -0.00003  -0.00003   0.00000
   D13        0.00009  -0.00001   0.00000  -0.00009  -0.00009  -0.00000
   D14       -3.14144  -0.00001   0.00000  -0.00015  -0.00015  -3.14159
   D15       -0.00021   0.00001   0.00000   0.00021   0.00021  -0.00000
   D16        3.14151   0.00001   0.00000   0.00008   0.00008   3.14159
         Item               Value     Threshold  Converged?
 Maximum Force            0.000446     0.000450     YES
 RMS     Force            0.000142     0.000300     YES
 Maximum Displacement     0.001532     0.001800     YES
 RMS     Displacement     0.000553     0.001200     YES
 Predicted change in Energy=-1.081526D-06
 Optimization completed.
    -- Stationary point found.
                           ----------------------------
                           !   Optimized Parameters   !
                           ! (Angstroms and Degrees)  !
 --------------------------                            --------------------------
 ! Name  Definition              Value          Derivative Info.                !
 --------------------------------------------------------------------------------
 ! R1    R(1,2)                  1.3665         -DE/DX =    0.0001              !
 ! R2    R(1,4)                  1.3758         -DE/DX =   -0.0003              !
 ! R3    R(1,6)                  1.0763         -DE/DX =    0.0                 !
 ! R4    R(2,7)                  1.0777         -DE/DX =   -0.0001              !
 ! R5    R(2,9)                  1.3838         -DE/DX =   -0.0001              !
 ! R6    R(3,4)                  1.355          -DE/DX =    0.0001              !
 ! R7    R(3,8)                  1.0776         -DE/DX =   -0.0001              !
 ! R8    R(3,9)                  1.3204         -DE/DX =   -0.0001              !
 ! R9    R(4,5)                  1.01           -DE/DX =    0.0                 !
 ! A1    A(2,1,4)              105.4178         -DE/DX =    0.0                 !
 ! A2    A(2,1,6)              132.3193         -DE/DX =    0.0001              !
 ! A3    A(4,1,6)              122.2629         -DE/DX =   -0.0001              !
 ! A4    A(1,2,7)              127.9634         -DE/DX =    0.0                 !
 ! A5    A(1,2,9)              110.1946         -DE/DX =    0.0003              !
 ! A6    A(7,2,9)              121.842          -DE/DX =   -0.0002              !
 ! A7    A(4,3,8)              122.4695         -DE/DX =   -0.0002              !
 ! A8    A(4,3,9)              111.3888         -DE/DX =    0.0004              !
 ! A9    A(8,3,9)              126.1417         -DE/DX =   -0.0002              !
 ! A10   A(1,4,3)              107.6661         -DE/DX =   -0.0002              !
 ! A11   A(1,4,5)              126.3495         -DE/DX =    0.0                 !
 ! A12   A(3,4,5)              125.9844         -DE/DX =    0.0002              !
 ! A13   A(2,9,3)              105.3328         -DE/DX =   -0.0004              !
 ! D1    D(4,1,2,7)           -180.0027         -DE/DX =    0.0                 !
 ! D2    D(4,1,2,9)             -0.0121         -DE/DX =    0.0                 !
 ! D3    D(6,1,2,7)              0.0035         -DE/DX =    0.0                 !
 ! D4    D(6,1,2,9)            179.9941         -DE/DX =    0.0                 !
 ! D5    D(2,1,4,3)              0.0046         -DE/DX =    0.0                 !
 ! D6    D(2,1,4,5)            180.0007         -DE/DX =    0.0                 !
 ! D7    D(6,1,4,3)           -180.0008         -DE/DX =    0.0                 !
 ! D8    D(6,1,4,5)             -0.0047         -DE/DX =    0.0                 !
 ! D9    D(1,2,9,3)              0.015          -DE/DX =    0.0                 !
 ! D10   D(7,2,9,3)            180.0063         -DE/DX =    0.0                 !
 ! D11   D(8,3,4,1)            179.9978         -DE/DX =    0.0                 !
 ! D12   D(8,3,4,5)              0.0016         -DE/DX =    0.0                 !
 ! D13   D(9,3,4,1)              0.0049         -DE/DX =    0.0                 !
 ! D14   D(9,3,4,5)           -179.9913         -DE/DX =    0.0                 !
 ! D15   D(4,3,9,2)             -0.0121         -DE/DX =    0.0                 !
 ! D16   D(8,3,9,2)            179.9953         -DE/DX =    0.0                 !
 --------------------------------------------------------------------------------
 GradGradGradGradGradGradGradGradGradGradGradGradGradGradGradGradGradGrad

 Leave Link  103 at Wed Oct 11 11:53:00 2023, MaxMem=  6710886400 cpu:               0.3 elap:               0.0
 (Enter /data0/home/software/g16/l9999.exe)

 ----------------------------------------------------------------------

 Electric dipole moment (input orientation):
 (Debye = 10**-18 statcoulomb cm , SI units = C m)
                  (au)            (Debye)         (10**-30 SI)
   Tot        0.212378D+01      0.539811D+01      0.180062D+02
   x         -0.916765D+00     -0.233018D+01     -0.777266D+01
   y          0.191572D+01      0.486928D+01      0.162422D+02
   z         -0.868733D-04     -0.220810D-03     -0.736543D-03

 Dipole polarizability, Alpha (input orientation).
 (esu units = cm**3 , SI units = C**2 m**2 J**-1)
 Alpha(0;0):
               (au)            (10**-24 esu)      (10**-40 SI)
   iso        0.664618D+02      0.984862D+01      0.109581D+02
   aniso      0.311508D+02      0.461607D+01      0.513607D+01
   xx         0.765446D+02      0.113427D+02      0.126205D+02
   yx         0.151634D+01      0.224698D+00      0.250010D+00
   yy         0.770700D+02      0.114206D+02      0.127071D+02
   zx        -0.179102D-02     -0.265402D-03     -0.295300D-03
   zy        -0.706518D-03     -0.104695D-03     -0.116489D-03
   zz         0.457708D+02      0.678253D+01      0.754658D+01

 ----------------------------------------------------------------------

 Dipole orientation:
     6          1.65309240          0.79105598          1.18132048
     6          1.55724641          0.74549754         -1.39878848
     6         -1.91947166         -0.91868733         -0.11127636
     7         -0.58016768         -0.27778544          1.97495040
     1         -1.12854132         -0.54040993          3.78410310
     1          3.05919077          1.46397991          2.48766388
     1          2.95777269          1.41597282         -2.71648254
     1         -3.75388468         -1.79669354         -0.00577474
     7         -0.68790544         -0.32941960         -2.19986785

 Electric dipole moment (dipole orientation):
 (Debye = 10**-18 statcoulomb cm , SI units = C m)
                  (au)            (Debye)         (10**-30 SI)
   Tot        0.212378D+01      0.539811D+01      0.180062D+02
   x          0.000000D+00      0.000000D+00      0.000000D+00
   y          0.000000D+00      0.000000D+00      0.000000D+00
   z          0.212378D+01      0.539811D+01      0.180062D+02

 Dipole polarizability, Alpha (dipole orientation).
 (esu units = cm**3 , SI units = C**2 m**2 J**-1)
 Alpha(0;0):
               (au)            (10**-24 esu)      (10**-40 SI)
   iso        0.664618D+02      0.984862D+01      0.109581D+02
   aniso      0.311508D+02      0.461607D+01      0.513607D+01
   xx         0.718494D+02      0.106470D+02      0.118464D+02
   yx         0.124817D+02      0.184960D+01      0.205796D+01
   yy         0.517448D+02      0.766778D+01      0.853156D+01
   zx         0.104318D+01      0.154584D+00      0.171998D+00
   zy         0.497702D+00      0.737518D-01      0.820600D-01
   zz         0.757913D+02      0.112311D+02      0.124963D+02

 ----------------------------------------------------------------------
 1\1\GINC-LOCALHOST\Freq\RB3LYP\6-311+G(2d,p)\C3H4N2\WUHANYU\11-Oct-202
 3\0\\#P Geom=AllCheck Guess=TCheck SCRF=Check GenChk RB3LYP/6-311+G(2d
 ,p) Freq\\Title Card Required\\0,1\C,0.6049261895,0.9825072478,-0.0000
 119376\C,1.1436395432,-0.2733115665,-0.0001033461\C,-0.9903482771,-0.5
 392096746,0.000063243\N,-0.758175946,0.7957795041,0.0000275101\H,-1.46
 16654961,1.5204639833,0.0000843958\H,1.0506037267,1.9621509316,-0.0000
 583326\H,2.1858171531,-0.5476035763,-0.0001969354\H,-1.9852084906,-0.9
 534058686,0.0001330366\N,0.1384415972,-1.2242999808,0.0001543662\\Vers
 ion=ES64L-G16RevA.03\State=1-A\HF=-226.3141215\RMSD=2.174e-09\RMSF=1.8
 03e-04\ZeroPoint=0.0711025\Thermal=0.0748377\Dipole=-0.9167647,1.91572
 04,-0.0000869\DipoleDeriv=0.2454917,-0.368028,-0.0000296,-0.1204361,-0
 .0557655,0.0000061,-0.0000193,-0.000067,-0.1896462,0.143029,0.1402363,
 -0.0000559,-0.040658,0.2086928,-0.0000232,0.0000373,-0.0000826,-0.2261
 621,0.1590248,-0.3203736,0.0000307,-0.2890786,0.702364,-0.0000498,-0.0
 000519,-0.0000427,0.0004086,-0.4798833,0.5427231,0.0000134,0.403424,-0
 .6429717,0.0000307,-0.0000326,0.0000279,-0.2909972,0.3299623,-0.061742
 3,0.0000037,-0.0621237,0.3384949,0.0000057,0.0000112,-0.0000117,0.4230
 841,0.1096752,-0.0211035,0.0000158,-0.0460858,0.0397665,0.0000095,0.00
 00283,0.0000418,0.2701289,-0.0447059,0.0056717,0.000026,0.0316348,0.11
 39718,0.0000074,-0.0000059,0.0000348,0.2302187,0.028617,-0.0108048,0.0
 000055,-0.0217223,0.1045029,0.0000135,0.0000543,0.0000305,0.221724,-0.
 4912109,0.093421,-0.0000096,0.1450457,-0.8090557,0.,-0.0000214,0.00006
 9,-0.4387587\Polar=76.5446081,1.5163351,77.0700312,-0.001791,-0.000706
 5,45.7707621\Quadrupole=4.760959,-1.4422562,-3.3187028,-0.4750916,-0.0
 00618,0.0004348\PG=C01 [X(C3H4N2)]\NImag=0\\0.58935590,0.08704084,0.88
 441672,-0.00003701,-0.00000680,0.11804217,-0.14979299,0.11575594,0.000
 00892,0.82708424,0.09992742,-0.33537688,-0.00001779,-0.14507396,0.6078
 2401,0.00001244,-0.00001593,-0.06941787,-0.00006876,0.00000177,0.13281
 581,-0.05388585,-0.02768979,0.00000416,-0.11080116,-0.04164846,0.00000
 761,0.89756631,-0.07595599,-0.04686312,0.00000370,0.00940239,0.0146450
 0,-0.00000412,0.09100440,0.62888071,0.00000298,0.00000440,0.01651697,0
 .00001071,0.00000014,0.01180647,-0.00002518,-0.00003698,0.14292319,-0.
 28112937,-0.02824266,0.00001069,-0.07039536,0.07538243,0.00000147,-0.1
 2466285,-0.04509517,0.00000618,0.77231062,-0.02150903,-0.12405180,0.00
 000023,0.01582368,-0.02013422,0.00000406,-0.04939258,-0.30024062,0.000
 01051,-0.18741973,0.80575643,0.00000935,0.00000031,-0.05623230,0.00000
 830,-0.00000303,0.01403442,0.00000632,0.00000399,-0.06428236,-0.000035
 74,0.00000756,0.08668968,-0.00772889,0.02255020,0.00000100,-0.00583519
 ,-0.00179302,0.00000057,0.01234931,-0.00193976,-0.00000125,-0.25941748
 ,0.19262504,0.00001499,0.25651639,-0.00403150,0.01264979,0.00000090,-0
 .00514923,0.00044022,0.00000036,0.02376041,-0.00804655,-0.00000128,0.1
 9292332,-0.26940994,-0.00001774,-0.20628881,0.26847814,-0.00000004,-0.
 00000004,-0.00651922,0.00000077,-0.00000053,0.00283336,-0.00000198,0.0
 0000188,-0.00757668,0.00001681,-0.00002048,-0.00527362,-0.00001598,0.0
 0001718,0.01155908,-0.10732665,-0.10575875,0.00000862,0.01338069,0.008
 28677,-0.00000227,-0.00656656,0.00264268,0.00000029,-0.00893414,-0.032
 03517,0.00000166,0.00105988,0.00056361,-0.00000021,0.10729533,-0.11588
 945,-0.31530384,0.00001078,-0.01343327,-0.00631020,0.00000270,0.002420
 02,-0.00055983,-0.00000002,0.00325532,0.00648257,0.00000003,-0.0005977
 5,-0.00020918,0.00000001,0.12371759,0.31939739,0.00001003,0.00001315,-
 0.02356729,-0.00000208,-0.00000152,-0.00029700,0.00000056,0.00000117,0
 .00289971,-0.00000101,0.00000017,-0.00283331,-0.00000030,0.,-0.0016780
 2,-0.00000833,-0.00001317,0.01945058,-0.00167745,-0.00181080,-0.000000
 74,-0.33077194,0.07955134,0.00002832,-0.00182461,-0.00330398,0.0000015
 0,0.00060202,0.00078317,0.00000062,0.00016748,-0.00010641,0.00000033,-
 0.00024607,0.00039694,-0.00000021,0.35019340,0.02326927,0.00341794,-0.
 00000039,0.08262350,-0.08267268,-0.00000526,-0.00422026,-0.00392700,0.
 00000139,0.00292315,-0.00530923,-0.00000053,0.00101199,0.00100632,-0.0
 0000007,-0.00071451,0.00011469,-0.00000010,-0.07979202,0.07566508,0.00
 000311,-0.00000128,0.00013833,0.00002338,-0.00000224,-0.02787564,0.000
 00046,0.00000212,0.00483096,-0.00000236,-0.00000027,0.00523911,0.00000
 007,-0.00000023,0.00167427,-0.00000014,-0.00000011,-0.00240069,-0.0000
 2943,0.00000451,0.02226046,0.00116570,0.00086315,0.00000015,-0.0020756
 7,0.00340265,-0.00000062,-0.31085323,-0.10973743,0.00001724,0.00394010
 ,0.00164030,0.00000053,-0.00021170,-0.00058410,-0.00000008,0.00031844,
 -0.00001883,-0.00000009,-0.00044294,-0.00083392,0.00000009,0.32659561,
 0.00259052,-0.00555010,0.00000006,0.00366131,-0.00102062,0.00000098,-0
 .10528504,-0.10696344,0.00001160,-0.03173778,-0.00834141,0.00000237,0.
 00031469,0.00070831,-0.00000016,-0.00140055,0.00042191,-0.00000003,0.0
 0062702,0.00097146,-0.00000009,0.11355180,0.10607041,0.00000146,0.0000
 0053,0.00294512,0.00000041,0.00000193,0.00638493,0.00002181,0.00001293
 ,-0.02780780,-0.00000032,-0.00000107,-0.00005019,-0.00000013,0.0000001
 1,-0.00186707,-0.00000003,-0.00000009,0.00157740,0.00000014,-0.0000001
 1,0.00119911,-0.00001993,-0.00001152,0.02173311,0.01101959,-0.06270814
 ,0.00000420,-0.17079261,-0.07803517,0.00002124,-0.30132136,0.13298288,
 -0.00001248,-0.03231353,0.07948432,-0.00000603,0.00310021,-0.00108729,
 0.00000038,0.00101909,0.00014943,0.00000144,-0.01599989,-0.02426719,0.
 00000482,-0.01843631,0.01767804,-0.00000342,0.52372481,0.00455793,-0.0
 7333870,0.00000932,-0.06361035,-0.17739463,0.00001545,0.11105131,-0.17
 692515,0.00001023,0.01801112,-0.08475178,0.00000704,-0.00588257,-0.005
 61711,0.00000220,0.00469833,-0.00403350,0.00000031,0.00365474,0.010733
 43,-0.00000240,-0.00828362,0.01370346,-0.00000272,-0.06419689,0.497623
 97,-0.00000232,0.00000565,0.01809409,0.00001835,0.00002128,-0.07028449
 ,-0.00001376,0.00001531,-0.07931046,0.00000428,-0.00000072,0.02270857,
 0.00000103,0.00000070,0.00684791,0.00000039,-0.00000013,0.00684862,-0.
 00000053,0.00000056,-0.00506592,0.00000270,-0.00000322,-0.00411460,-0.
 00001015,-0.00003943,0.10427627\\0.00006438,0.00008132,0.00001747,0.00
 037209,-0.00016294,-0.00003027,-0.00054378,-0.00019069,-0.00002239,0.0
 0006020,-0.00019601,-0.00000051,-0.00003871,-0.00008647,0.00000135,0.0
 0008961,-0.00005774,0.00000166,0.00008449,0.00007779,-0.00000264,-0.00
 005971,-0.00000045,-0.00000129,-0.00002857,0.00053519,0.00003663\\\@


 IF AT FIRST YOU DON'T SUCCEED, TRY LOOKING IN 
 THE WASTEBASKET FOR THE DIRECTIONS.
 Job cpu time:       0 days  0 hours 12 minutes 41.2 seconds.
 Elapsed time:       0 days  0 hours  0 minutes 32.4 seconds.
 File lengths (MBytes):  RWF=     39 Int=      0 D2E=      0 Chk=      6 Scr=      1
 Normal termination of Gaussian 16 at Wed Oct 11 11:53:00 2023.
