          42
 Energy =  -1354.42557270 a.u.  #Cluster:    1
C          11.57097100     10.90281200     11.93420100
H          12.34150400     11.17179200     11.17734000
H          11.92715600     11.20463900     12.92671200
H          11.49349200      9.79582300     11.91455200
C           9.21853300     11.11321600     12.59210100
H           8.22391800     11.50926800     12.33081900
H           9.13549000     10.00098900     12.60292100
H           9.47371200     11.43973900     13.61038000
C          10.42944600     13.03368300     11.66012300
H           9.47695500     13.56665500     11.52173400
H          10.86269600     13.34672800     12.62109400
H          11.12270500     13.37309000     10.84902500
C           9.83952400     11.09233200     10.20613800
H           9.41815100     10.05645200     10.27543700
H          10.77585500     10.99455500      9.59589700
C           8.86158000     12.02215900      9.48275000
H           9.36086900     12.98086100      9.21992400
H           7.98790400     12.26921200     10.10953000
C           8.39619000     11.34632400      8.18829100
H           7.91956800     12.07789700      7.51107500
H           7.63440800     10.56898400      8.39365800
N          10.25183800     11.54669600     11.59501200
C           9.60198400     10.72873900      7.47093900
O          10.55222200     11.47424200      7.17341700
O           9.57345900      9.49111800      7.28739900
P          12.80903700      8.96750600      8.32280800
O          12.37231000      9.04776700      9.72189300
O          14.24341900      8.28789800      8.23046800
H          14.50426400      8.26539400      7.22880800
O          11.91062000      8.12232500      7.33517900
H          10.97382200      8.63118000      7.22143000
O          13.02902000     10.38833500      7.63655600
H          12.09786900     10.76248600      7.30488200
O           8.16079700      8.12452600      9.11297900
H           8.65982700      8.62072100      8.41019100
H           7.97976300      7.27755500      8.71882300
O           9.88987800      8.12193500     11.28444200
H          10.73149100      8.08876000     10.81738100
H           9.22743800      7.99733000     10.58101200
O          12.00118600     12.99374700      9.00359900
H          12.85871200     12.61664500      8.79193500
H          11.42043500     12.61790300      8.30716400
          42
 Energy =  -1354.42241970 a.u.  #Cluster:    2
C          11.28920300     10.01587800     12.04864900
H          11.93436500      9.57825900     11.25246800
H          11.94102700     10.30841200     12.88254900
H          10.61524900      9.20810800     12.39621800
C           9.59572100     11.68569400     12.60237800
H           9.01321700     12.55763800     12.26199000
H           8.87862800     10.88864100     12.89282200
H          10.15897700     11.97812500     13.50184900
C          11.47565300     12.26471500     11.12560000
H          10.96286100     13.17452200     10.76410300
H          12.13857700     12.54074700     11.95594200
H          12.11719200     11.92432700     10.27582500
C           9.68865400     10.72596300     10.33104600
H           8.96422300      9.94839700     10.67324000
H          10.39274000     10.20298900      9.63171100
C           8.93005700     11.83729500      9.59943000
H           9.59271400     12.69646600      9.35829600
H           8.11051400     12.24079600     10.21994500
C           8.36373000     11.27872000      8.29022500
H           7.88852200     12.08006700      7.69511500
H           7.58574800     10.51686100      8.47370200
N          10.50874600     11.18985400     11.52034900
C           9.51462500     10.67229700      7.47841700
O          10.36892500     11.44813000      7.01450500
O           9.54944800      9.42569500      7.39259300
P          13.00557300      9.37094200      7.92428700
O          12.90616200      9.83485400      9.31211000
O          14.42544900      8.70063900      7.66694700
H          14.43901200      8.38894000      6.68013300
O          11.97401500      8.22824800      7.53081200
H          11.02950600      8.67525000      7.33068200
O          12.90172400     10.48234200      6.80054300
H          11.89945600     10.85319900      6.78471200
O           9.39964800      7.76776400      9.52597700
H           9.26713700      8.35443800      8.74061300
H          10.23480500      7.33723300      9.33340800
O           8.64374400      8.37501900     12.13973000
H           8.02429200      7.71402100     12.43377200
H           8.89191500      8.09991800     11.23120400
O          11.68995800     13.45101500      8.43140300
H          12.55967900     13.38939000      8.04071100
H          11.15862600     12.81821000      7.90400700
          42
 Energy =  -1354.42238140 a.u.  #Cluster:    3
C          11.11753300     10.75643300     12.42498500
H          11.98663800     10.73352400     11.73136300
H          11.46877000     11.05633400     13.42075600
H          10.72976000      9.71731500     12.49185800
C           8.92124200     11.75229500     12.87696300
H           8.10085300     12.37775900     12.48877700
H           8.50616200     10.73739000     13.05968700
H           9.24165100     12.15717300     13.84874600
C          10.66324100     13.05775300     11.76210500
H           9.91500300     13.80482000     11.45749800
H          11.12483000     13.39101100     12.70322700
H          11.46559100     13.05065800     10.98107400
C           9.56936800     11.14664700     10.57169800
H           8.91326200     10.26476300     10.76957200
H          10.46618700     10.74465500     10.01617700
C           8.84538000     12.16161400      9.68467700
H           9.54143800     12.96789100      9.36154800
H           8.00358400     12.64438000     10.20737000
C           8.34533600     11.43496600      8.43247100
H           7.92481900     12.14966600      7.70249000
H           7.54399000     10.71343600      8.66664700
N          10.05990500     11.69237500     11.90178600
C           9.53349100     10.71118000      7.77622100
O          10.49004300     11.41974800      7.41082200
O           9.47034100      9.46758300      7.72255100
P          12.83649800      8.85419000      7.21534200
O          13.01951600      8.96640000      8.66989200
O          14.06818400      8.10367400      6.54453400
H          13.87846300      8.06173300      5.52774200
O          11.57518800      8.01672400      6.74351200
H          10.70216500      8.54869900      7.04497800
O          12.76185400     10.23391800      6.43443200
H          11.86346100     10.72590000      6.72323900
O          10.31709900      8.30809500     10.10246300
H           9.89686500      8.57960400      9.25803300
H          11.24799700      8.21181600      9.87077200
O           8.90455700      8.44610100     12.46401000
H           8.52547600      7.59618800     12.66626400
H           9.38471300      8.31233100     11.62284600
O          12.27563100     11.89026700      9.54101000
H          12.90105300     11.17695800      9.36111800
H          11.71288200     11.89605000      8.73875200
          42
 Energy =  -1354.42227170 a.u.  #Cluster:    4
C          11.06702000      9.96063300     12.09467300
H          11.71355700      9.47887600     11.32900400
H          11.70714300     10.25009700     12.93922800
H          10.35582400      9.18592100     12.44558500
C           9.37184300     11.65721100     12.54166200
H           8.83209700     12.54481700     12.17168300
H           8.62117100     10.87501500     12.78071200
H           9.88180600     11.93250400     13.47813300
C          11.35013300     12.20778500     11.18624800
H          10.87407400     13.12487300     10.79303000
H          11.96356200     12.47502400     12.05634200
H          12.03698500     11.85846400     10.37615900
C           9.59862500     10.70184500     10.27368000
H           8.86889000      9.90724000     10.55094600
H          10.35229100     10.20872100      9.60317700
C           8.86713500     11.82192800      9.52740400
H           9.53922200     12.68278100      9.32074400
H           8.02482300     12.21923200     10.12071100
C           8.34878600     11.27767600      8.19249100
H           7.91065700     12.08859400      7.58206800
H           7.55339400     10.52584800      8.33840500
N          10.34330400     11.14822500     11.51841000
C           9.52444400     10.65806500      7.42682300
O          10.39948600     11.42688000      6.99001400
O           9.55446700      9.41132000      7.35174000
P          13.01978900      9.35362100      7.93761600
O          12.94842200      9.86720700      9.30805500
O          14.42429600      8.65129900      7.68117300
H          14.41703900      8.30413900      6.70641900
O          11.96553900      8.20879200      7.60845500
H          11.03769100      8.65795100      7.35156800
O          12.91075100     10.41793100      6.77010600
H          11.91555900     10.80926500      6.75982000
O           9.45468800      7.75007600      9.50078100
H           9.29223200      8.31902700      8.71073700
H          10.30898300      7.35652500      9.30718900
O           8.52841000      8.13504800     12.12956700
H           7.98948000      7.38836200     12.37269700
H           8.82115600      7.94663100     11.21585700
O          11.69385100     13.38351800      8.50046000
H          12.58159700     13.31271600      8.15392100
H          11.17979900     12.76833700      7.93652400
          42
 Energy =  -1354.42214450 a.u.  #Cluster:    5
C          11.41715700     10.28905500     11.89153400
H          11.93778700      9.76787400     11.05696200
H          12.20223000     10.68901500     12.55509400
H          10.83781800      9.52606800     12.43979300
C           9.72690100     11.93588000     12.51552400
H           9.05049600     12.73812300     12.18014000
H           9.10220400     11.13581300     12.96825000
H          10.38301800     12.33845200     13.30304800
C          11.37845300     12.46625300     10.77819400
H          10.78775300     13.35436700     10.51299300
H          12.18398000     12.77006600     11.47116800
H          11.88180200     12.10391400      9.85129500
C           9.59035900     10.79213600     10.33421000
H           8.88575100     10.09340400     10.84590400
H          10.20809100     10.15081100      9.64856300
C           8.79216600     11.81402200      9.52033000
H           9.45702500     12.56544200      9.04079900
H           8.07861700     12.36908900     10.15216600
C           8.04545800     11.06612100      8.40921000
H           7.40461100     11.75417900      7.83023200
H           7.38686600     10.27679100      8.80864100
N          10.52525700     11.38463000     11.37025200
C           9.10790600     10.46701100      7.47611700
O           9.76561300     11.24607700      6.78000300
O           9.27651300      9.22092300      7.54951800
P          12.67604200      9.55136800      7.56161300
O          12.59336400      9.93345900      8.98418200
O          14.15994800      9.06364900      7.24093700
H          14.18136600      8.79602100      6.24264100
O          11.75876700      8.34263000      7.13373100
H          10.72413500      8.66929200      7.20730100
O          12.43024700     10.73012700      6.53774500
H          11.38114900     10.95725600      6.54337300
O           9.07289200      7.84057900      9.81909100
H           9.01269900      8.36316100      8.96919100
H           9.76745800      7.21221700      9.64134700
O           8.59307600      8.66921200     12.45090300
H           7.92078500      8.09558400     12.80560000
H           8.76200700      8.32650500     11.54873000
O          14.09093200     11.31453500     11.03550600
H          13.68786600     10.83328900     10.29325400
H          15.02345600     11.31561400     10.83493100
          42
 Energy =  -1354.42186990 a.u.  #Cluster:    6
C          11.34145400      9.85448600     12.01286700
H          12.14671000      9.62471300     11.27993800
H          11.81568600     10.07661200     12.97800900
H          10.73202500      8.93553300     12.12232300
C           9.38018000     11.21861300     12.51266700
H           8.80558900     12.12792900     12.27430100
H           8.67573800     10.35504100     12.49062100
H           9.75950100     11.31245000     13.54127100
C          11.34763600     12.23559700     11.44872000
H          10.77480300     13.09373800     11.04809400
H          11.77156700     12.50825400     12.42258200
H          12.18567800     12.07743900     10.72681800
C           9.96870700     10.65548000     10.15499400
H           9.64390300      9.58802400     10.14649600
H          10.84789300     10.72427200      9.45821200
C           8.84005800     11.55235400      9.63671600
H           9.18250700     12.60469600      9.54870600
H           7.97280500     11.55510800     10.32108900
C           8.38735100     11.04669100      8.25911300
H           7.90891900     11.85799500      7.68167800
H           7.63292100     10.24285900      8.35945400
N          10.49427200     11.00406500     11.53521600
C           9.60463200     10.52343200      7.48833000
O          10.35856000     11.34970300      6.94938000
O           9.80407200      9.28603000      7.53122900
P          13.30407400      9.67198000      7.89385300
O          13.23820400     10.25997000      9.23527700
O          14.77806700      9.15094800      7.59221800
H          14.77047800      8.75337400      6.63744300
O          12.40320200      8.38489400      7.66396400
H          11.39855500      8.69128500      7.53504900
O          13.00476600     10.65459200      6.68455600
H          11.97203000     10.90311800      6.69245500
O           8.29578000      7.79796700      9.11606700
H           8.82779700      8.38257000      8.49349500
H           8.47753200      6.91668900      8.81202000
O           8.38795000      8.33476700     11.81958400
H           7.75223600      7.73653700     12.19758900
H           8.35536600      8.14993200     10.85402100
O          11.37351200     13.28032600      8.70062100
H          12.27408700     13.34049800      8.38456200
H          10.94322400     12.68946900      8.04842300
          42
 Energy =  -1354.42177230 a.u.  #Cluster:    7
C          11.34023700     10.41418900     11.98693700
H          11.87906000      9.84350300     11.20122000
H          12.11071100     10.86170700     12.63753700
H          10.75420600      9.68547800     12.57406300
C           9.61286100     12.06599500     12.47104600
H           8.94366800     12.84766600     12.07746800
H           8.97756500     11.28293100     12.93869800
H          10.23993100     12.50897300     13.26051900
C          11.30779600     12.52985400     10.75545900
H          10.71468800     13.40150900     10.44439900
H          12.10207300     12.86743700     11.44535800
H          11.82541000     12.13378900      9.85040800
C           9.55853900     10.81102600     10.34631400
H           8.86653300     10.10805000     10.86916800
H          10.20852400     10.16931800      9.69063300
C           8.74361400     11.78220000      9.48817700
H           9.39821300     12.51432800      8.96630400
H           8.02886400     12.36202500     10.09609000
C           7.99454800     10.97130900      8.42422900
H           7.32748900     11.61995400      7.82934400
H           7.36174900     10.18496500      8.86858100
N          10.45246700     11.46815900     11.37972500
C           9.05286600     10.35717300      7.49586500
O           9.65590000     11.11654200      6.73245400
O           9.27194700      9.12492300      7.63733700
P          12.65384200      9.58393400      7.51618400
O          12.58829100     10.03388000      8.91794600
O          14.14764600      9.13744500      7.17992200
H          14.15569200      8.82479700      6.19485200
O          11.77640700      8.31877600      7.17248200
H          10.73415400      8.60479900      7.27177400
O          12.33533500     10.69493800      6.43759400
H          11.27951500     10.88256800      6.46337300
O           9.07540600      7.84011300      9.95210500
H           9.02410600      8.33013900      9.08004900
H           9.74916100      7.18517000      9.79835700
O           8.53330000      8.77126300     12.53890700
H           7.85752500      8.20902400     12.90486700
H           8.72196100      8.39099900     11.65585100
O          14.00165700     11.36142400     11.07274200
H          13.63256700     10.89986300     10.30160000
H          14.94398900     11.34787700     10.92409000
          42
 Energy =  -1354.42166000 a.u.  #Cluster:    8
C          11.00148600     10.30730200     11.97166900
H          11.67016300      9.83612700     11.22155800
H          11.65189600     10.81328400     12.70468200
H          10.45643200      9.48951000     12.48059300
C           9.04506100     11.71273300     12.34507400
H           8.32113700     12.42447900     11.91738700
H           8.47677000     10.83570900     12.72198600
H           9.53708300     12.19171800     13.20627100
C          10.82031600     12.46042200     10.82092000
H          10.15527800     13.26680200     10.48083900
H          11.49621800     12.85974900     11.59834600
H          11.46811200     12.17186000      9.95993500
C           9.34503600     10.56739300     10.17827800
H           8.71551900      9.74647200     10.59806600
H          10.13289900     10.06121500      9.55581500
C           8.47980300     11.47169500      9.29629600
H           9.06552700     12.32313400      8.88550400
H           7.63433200     11.90171100      9.85914300
C           7.96032200     10.64021200      8.11767300
H           7.27308000     11.23248600      7.48798300
H           7.40095100      9.74995700      8.44994100
N          10.04956200     11.27454200     11.31947000
C           9.18050500     10.23289900      7.27842200
O           9.75778600     11.11823500      6.64052400
O           9.53964500      9.02919500      7.36332200
P          12.83282000      9.88631000      7.62035300
O          12.58082100     10.21458600      9.03486200
O          14.39482300      9.64334900      7.40975800
H          14.53287400      9.40888900      6.41257800
O          12.15319500      8.55842700      7.10682000
H          11.07849100      8.71519300      7.11127600
O          12.48142500     11.03323900      6.59088200
H          11.41210300     11.09442200      6.52184600
O           9.46991100      7.58421600      9.60055500
H           9.35534000      8.10532000      8.75554100
H          10.29918200      7.13194100      9.46679400
O           8.68838100      8.27205700     12.18632300
H           8.16651700      7.55222900     12.52716300
H           8.96511500      7.97920600     11.29135000
O          13.59847700     11.61926500     11.35762400
H          13.36248700     11.14572400     10.54277300
H          14.54314100     11.73680400     11.29382400
          42
 Energy =  -1354.42141540 a.u.  #Cluster:    9
C          10.99531900     10.05728000     12.18000500
H          11.51313800      9.39711900     11.44794600
H          11.74321600     10.39151300     12.91257900
H          10.24683400      9.42936700     12.69795000
C           9.66623800     12.08412500     12.49944100
H           9.14658400     12.93061700     12.01457300
H           8.91234000     11.50706900     13.06392500
H          10.39102600     12.49909500     13.21884600
C          11.40953700     12.01815000     10.77737200
H          11.13454700     13.08274000     10.67308400
H          12.38013500     11.95915200     11.29307600
H          11.57969100     11.64379500      9.74169800
C           9.31632300     10.67033600     10.50615500
H           8.53117500     10.12849200     11.09004500
H           9.82462700      9.88214400      9.88866500
C           8.66330000     11.72867500      9.61177200
H           9.28421300     12.64463800      9.52539900
H           7.70346200     12.06648700     10.04629000
C           8.42342900     11.16661300      8.20885600
H           8.00144700     11.94262000      7.54329200
H           7.69121400     10.33824500      8.22529700
N          10.34818400     11.22038000     11.47791000
C           9.74776600     10.68126200      7.60992400
O          10.68005800     11.50633900      7.51491800
O           9.82847200      9.47768700      7.30175900
P          13.07172300      8.98725900      8.23135900
O          12.51186000      8.45387700      9.47861100
O          14.58045000      8.51779500      8.05262000
H          14.92565700      8.93455600      7.17068100
O          12.35491900      8.54176300      6.89229200
H          11.34106400      8.88981700      6.93388200
O          13.16954600     10.57503300      8.17677100
H          12.26433300     10.95818500      7.78895400
O           9.61253700      7.47394800      9.23942600
H           9.50730900      8.08908000      8.48344700
H          10.57274200      7.41720400      9.33541100
O           8.54377900      8.11122100     11.63876100
H           7.94935700      7.40170700     11.85606500
H           8.92970800      7.85377500     10.76818900
O          10.94334500     14.02639500      8.47465200
H          11.36273100     14.52368600      7.78267100
H          10.80668300     13.13077400      8.08544900
          42
 Energy =  -1354.42092510 a.u.  #Cluster:   10
C          11.33861900      9.96956400     12.15662600
H          11.90208100      9.43373100     11.36155700
H          12.05630100     10.25861200     12.93719000
H          10.62474300      9.24381700     12.58768000
C           9.76956100     11.76768500     12.66903500
H           9.27028100     12.68560100     12.31570100
H           8.98184800     11.04775300     12.97573100
H          10.36259700     12.02325100     13.56077600
C          11.65166700     12.16284800     11.13482500
H          11.18932500     13.06578400     10.68894500
H          12.31361000     12.47368900     11.95260300
H          12.28459600     11.73119300     10.32199800
C           9.75736700     10.71316700     10.43587400
H           9.03699200      9.94680500     10.81029500
H          10.42699900     10.18026600      9.70938000
C           8.98234200     11.83311900      9.73554500
H           9.64421700     12.68394500      9.46501500
H           8.19432800     12.24658700     10.38990500
C           8.35190800     11.27800500      8.45493300
H           7.84043200     12.07883500      7.89009200
H           7.58997000     10.50930800      8.67466100
N          10.62657600     11.17062000     11.59226400
C           9.46355300     10.68596500      7.57988600
O          10.28661000     11.47171900      7.08001000
O           9.49784700      9.43981100      7.47948900
P          12.95766000      9.33244200      7.77084000
O          12.90487100      9.67347700      9.19542700
O          14.37026800      8.69348200      7.40921100
H          14.35373300      8.47303200      6.39849600
O          11.91706700      8.23760500      7.28628100
H          10.95188200      8.68771600      7.23991700
O          12.83141900     10.55115200      6.76254800
H          11.82476200     10.89776600      6.77751000
O           9.26854700      7.81268500      9.61750200
H           9.20030100      8.39775500      8.81989000
H          10.02652400      7.26279500      9.42603800
O           8.39446300      8.43868800     12.21538900
H           7.64834100      7.88325800     12.42087500
H           8.68364200      8.14864700     11.32677700
O          11.77150800     13.34554600      8.51822500
H          12.62734600     13.22302900      8.10862900
H          11.18331800     12.76926600      7.98644600
          42
 Energy =  -1354.41867900 a.u.  #Cluster:   11
C          11.23193300     10.49526900     12.00653500
H          11.55790500      9.70733700     11.29061400
H          12.14125900     10.90515300     12.47719100
H          10.61929600      9.98797400     12.77297100
C          10.02085400     12.60163800     12.29217100
H           9.45713900     13.41372300     11.80247600
H           9.37347700     12.15753400     13.06779000
H          10.89460200     13.05066500     12.79526500
C          11.33075500     12.20318700     10.26266800
H          10.78924800     12.93432700      9.63767800
H          12.21124300     12.68181600     10.72127000
H          11.71640300     11.44121500      9.54926400
C           9.22817400     10.91857100     10.66484700
H           8.62216600     10.43961000     11.47052600
H           9.59867000     10.06788700     10.02964500
C           8.35809100     11.87639100      9.84019400
H           8.90036000     12.81045900      9.58110300
H           7.46928200     12.18893900     10.41797000
C           7.92604800     11.20285400      8.53590200
H           7.36448100     11.90186100      7.89103600
H           7.25545500     10.34434300      8.72155300
N          10.44961000     11.56579700     11.29423200
C           9.17987900     10.74213200      7.78163500
O          10.09486000     11.56627400      7.63098000
O           9.20756200      9.53874600      7.43518200
P          12.63116200      9.17022300      7.63933900
O          12.64147800      9.10318100      9.11042100
O          13.99992600      8.59143000      7.06680100
H          13.93868600      8.63088600      6.03542400
O          11.51609900      8.31619000      6.91998300
H          10.57146300      8.83273100      7.02957900
O          12.56534900     10.64050300      7.05251600
H          11.57503800     11.02484100      7.19086700
O           9.18666300      7.62123200      9.38107600
H           9.04444400      8.29260300      8.67290700
H          10.00295900      7.19162900      9.11135600
O           9.26196500      8.40905200     11.99335600
H           8.91708500      7.66212200     12.47133400
H           9.25670200      8.12032200     11.05179900
O          13.96382700     10.98688300     10.89857500
H          13.56906900     10.31735300     10.31308600
H          14.83935100     11.11513700     10.54089900
          42
 Energy =  -1354.41849850 a.u.  #Cluster:   12
C          11.25884100     10.08782000     12.30081700
H          11.92548500      9.58317900     11.56098400
H          11.87401100     10.38714700     13.15797600
H          10.53518500      9.31116500     12.61901100
C           9.76597000     11.97964500     12.72222500
H           9.25995000     12.86554100     12.29991200
H           8.99057600     11.31612400     13.14402700
H          10.40841600     12.32302000     13.54956800
C          11.60758000     12.19248600     11.12036500
H          11.17308800     13.12983800     10.72504100
H          12.36770900     12.44361100     11.87153700
H          12.13725800     11.72634800     10.25300300
C           9.64331100     10.75407400     10.57815000
H           8.90171800     10.04805400     11.02350100
H          10.26648900     10.12049200      9.89392900
C           8.92760900     11.86339000      9.80071700
H           9.61504000     12.70408400      9.56338100
H           8.10384900     12.29685200     10.39684600
C           8.36941200     11.31513400      8.48441200
H           7.96018800     12.13417900      7.86396200
H           7.53318900     10.61262300      8.66458100
N          10.56616400     11.26601800     11.67200600
C           9.49364000     10.61999400      7.71158700
O          10.40560900     11.31988000      7.23896900
O           9.45681700      9.36798200      7.65988300
P          12.99280800      9.21027200      8.23002900
O          13.17585100      9.96770500      9.46952500
O          14.27283600      8.31800600      7.92609100
H          14.07942800      7.79050500      7.05749200
O          11.80884000      8.14362200      8.33586400
H          10.92496700      8.54975700      7.93631200
O          12.77105300     10.01810300      6.88948300
H          11.83165600     10.52652400      6.94293700
O           7.93736400      8.23916200      9.51754500
H           8.45773300      8.65168900      8.76984700
H           7.51117300      7.48388100      9.12827900
O          10.23161200      7.81949600     11.01031000
H          10.85740900      7.70635200     10.28708600
H           9.36695600      7.84051700     10.57025400
O          11.66420600     13.42670400      8.52732000
H          12.51219600     13.44958700      8.09107700
H          11.16682600     12.73946300      8.03417600
          42
 Energy =  -1354.40247630 a.u.  #Cluster:   13
C          11.10212000     10.06523100     12.11079600
H          11.62214800      9.38275500     11.38527100
H          11.83522600     10.35736400     12.87128000
H          10.31081900      9.44172000     12.58234200
C           9.87936800     12.18348000     12.40740700
H           9.47728900     13.09217600     11.92605200
H           9.04524100     11.68102700     12.92997700
H          10.60743100     12.50671400     13.16919200
C          11.60999600     11.99169900     10.66324100
H          11.21272400     12.83441900     10.03993400
H          12.37002900     12.39127000     11.34533000
H          12.13485000     11.33173900      9.93224900
C           9.44647000     10.75211500     10.42036300
H           8.64901800     10.22195600     11.00683300
H           9.92041500      9.94081300      9.79920800
C           8.81743700     11.83926600      9.54552300
H           9.49490800     12.72302400      9.44142100
H           7.89303900     12.22668900     10.01638300
C           8.48852300     11.30694000      8.14800500
H           8.07376100     12.11769600      7.51547500
H           7.70398100     10.52394200      8.19113700
N          10.51389800     11.25776300     11.39035000
C           9.73930300     10.74025000      7.49340800
O          10.69857900     11.51031800      7.21284500
O           9.78010000      9.48842500      7.31678900
P          12.64488500      8.95857200      8.31621700
O          11.86868800      8.68184400      9.56088400