 Entering Gaussian System, Link 0=g16
 Initial command:
 /data0/home/software/g16/l1.exe "/data0/home/software/g16/scratch/Gau-293772.inp" -scrdir="/data0/home/software/g16/scratch/"
 Default is to use a total of  22 processors:
                               22 via shared-memory
                                1 via Linda
 Entering Link 1 = /data0/home/software/g16/l1.exe PID=    293773.
  
 Copyright (c) 1988,1990,1992,1993,1995,1998,2003,2009,2016,
            Gaussian, Inc.  All Rights Reserved.
  
 This is part of the Gaussian(R) 16 program.  It is based on
 the Gaussian(R) 09 system (copyright 2009, Gaussian, Inc.),
 the Gaussian(R) 03 system (copyright 2003, Gaussian, Inc.),
 the Gaussian(R) 98 system (copyright 1998, Gaussian, Inc.),
 the Gaussian(R) 94 system (copyright 1995, Gaussian, Inc.),
 the Gaussian 92(TM) system (copyright 1992, Gaussian, Inc.),
 the Gaussian 90(TM) system (copyright 1990, Gaussian, Inc.),
 the Gaussian 88(TM) system (copyright 1988, Gaussian, Inc.),
 the Gaussian 86(TM) system (copyright 1986, Carnegie Mellon
 University), and the Gaussian 82(TM) system (copyright 1983,
 Carnegie Mellon University). Gaussian is a federally registered
 trademark of Gaussian, Inc.
  
 This software contains proprietary and confidential information,
 including trade secrets, belonging to Gaussian, Inc.
  
 This software is provided under written license and may be
 used, copied, transmitted, or stored only in accord with that
 written license.
  
 The following legend is applicable only to US Government
 contracts under FAR:
  
                    RESTRICTED RIGHTS LEGEND
  
 Use, reproduction and disclosure by the US Government is
 subject to restrictions as set forth in subparagraphs (a)
 and (c) of the Commercial Computer Software - Restricted
 Rights clause in FAR 52.227-19.
  
 Gaussian, Inc.
 340 Quinnipiac St., Bldg. 40, Wallingford CT 06492
  
  
 ---------------------------------------------------------------
 Warning -- This program may not be used in any manner that
 competes with the business of Gaussian, Inc. or will provide
 assistance to any competitor of Gaussian, Inc.  The licensee
 of this program is prohibited from giving any competitor of
 Gaussian, Inc. access to this program.  By using this program,
 the user acknowledges that Gaussian, Inc. is engaged in the
 business of creating and licensing software in the field of
 computational chemistry and represents and warrants to the
 licensee that it is not a competitor of Gaussian, Inc. and that
 it will not use this program in any manner prohibited above.
 ---------------------------------------------------------------
  

 Cite this work as:
 Gaussian 16, Revision A.03,
 M. J. Frisch, G. W. Trucks, H. B. Schlegel, G. E. Scuseria, 
 M. A. Robb, J. R. Cheeseman, G. Scalmani, V. Barone, 
 G. A. Petersson, H. Nakatsuji, X. Li, M. Caricato, A. V. Marenich, 
 J. Bloino, B. G. Janesko, R. Gomperts, B. Mennucci, H. P. Hratchian, 
 J. V. Ortiz, A. F. Izmaylov, J. L. Sonnenberg, D. Williams-Young, 
 F. Ding, F. Lipparini, F. Egidi, J. Goings, B. Peng, A. Petrone, 
 T. Henderson, D. Ranasinghe, V. G. Zakrzewski, J. Gao, N. Rega, 
 G. Zheng, W. Liang, M. Hada, M. Ehara, K. Toyota, R. Fukuda, 
 J. Hasegawa, M. Ishida, T. Nakajima, Y. Honda, O. Kitao, H. Nakai, 
 T. Vreven, K. Throssell, J. A. Montgomery, Jr., J. E. Peralta, 
 F. Ogliaro, M. J. Bearpark, J. J. Heyd, E. N. Brothers, K. N. Kudin, 
 V. N. Staroverov, T. A. Keith, R. Kobayashi, J. Normand, 
 K. Raghavachari, A. P. Rendell, J. C. Burant, S. S. Iyengar, 
 J. Tomasi, M. Cossi, J. M. Millam, M. Klene, C. Adamo, R. Cammi, 
 J. W. Ochterski, R. L. Martin, K. Morokuma, O. Farkas, 
 J. B. Foresman, and D. J. Fox, Gaussian, Inc., Wallingford CT, 2016.
 
 ******************************************
 Gaussian 16:  ES64L-G16RevA.03 25-Dec-2016
                19-Feb-2023 
 ******************************************
 %nproc=24
 Will use up to   24 processors via shared memory.
 %mem=50GB
 ---------------------------------------------------
 #p M062X/6-311+G(2d,p) nosymm em=GD3 counterpoise=2
 ---------------------------------------------------
 1/38=1,62=2,172=1/1;
 2/12=2,15=1,17=6,18=5,40=1/2;
 1/38=1,53=2,62=2,63=1/22;
 3/5=4,6=6,7=112,11=2,25=1,30=1,74=-55,124=31/1,2,3;
 4//1;
 5/5=2,38=5/2;
 6/7=2,8=2,9=2,10=2,28=1/1;
 1/53=2,62=2,63=1/22;
 3/5=7,6=11,7=112,11=2,25=1,30=1,74=-55,82=7,124=31/1,2,3;
 4//1;
 5/5=2,38=5/2;
 6/7=2,8=2,9=2,10=2,28=1/1;
 1/53=2,62=2,63=1/22(-4);
 99/5=1,9=1/99;
 Leave Link    1 at Sun Feb 19 13:23:13 2023, MaxMem=  6710886400 cpu:               0.7 elap:               0.0
 (Enter /data0/home/software/g16/l101.exe)
 -------------------
 Title Card Required
 -------------------
 Symbolic Z-matrix:
 Charge =  0 Multiplicity = 1 in supermolecule
 Charge =  0 Multiplicity = 1 in fragment      1.
 Charge =  0 Multiplicity = 1 in fragment      2.
 P                     10.09592   7.00654   11.29628    
 O                     10.61464   6.20854   12.40722    
 O                     9.18409   8.17602   11.86485    
 H                     9.00255   8.90583   11.14351    
 O                     11.10234   7.63341   10.25447    
 H                     11.70296   8.39011   10.73155    
 O                     9.1632    6.10796   10.35922    
 H                     9.12808   6.52775   9.42539    
 O                     8.82683   10.26561   9.9719     
 H                     9.56832   10.85273   10.26476    
 H                     9.10944   9.9885    9.10308    
 
 ITRead=  0  0  0  0  0  0  0  0  0  0  0
 MicOpt= -1 -1 -1 -1 -1 -1 -1 -1 -1 -1 -1
 NAtoms=     11 NQM=       11 NQMF=       0 NMMI=      0 NMMIF=      0
                NMic=       0 NMicF=      0.
                    Isotopes and Nuclear Properties:
 (Nuclear quadrupole moments (NQMom) in fm**2, nuclear magnetic moments (NMagM)
  in nuclear magnetons)

  Atom         1           2           3           4           5           6           7           8           9          10
 IAtWgt=          31          16          16           1          16           1          16           1          16           1
 AtmWgt=  30.9737634  15.9949146  15.9949146   1.0078250  15.9949146   1.0078250  15.9949146   1.0078250  15.9949146   1.0078250
 NucSpn=           1           0           0           1           0           1           0           1           0           1
 AtZEff=  -0.0000000  -0.0000000  -0.0000000  -0.0000000  -0.0000000  -0.0000000  -0.0000000  -0.0000000  -0.0000000  -0.0000000
 NQMom=    0.0000000   0.0000000   0.0000000   0.0000000   0.0000000   0.0000000   0.0000000   0.0000000   0.0000000   0.0000000
 NMagM=    1.1316000   0.0000000   0.0000000   2.7928460   0.0000000   2.7928460   0.0000000   2.7928460   0.0000000   2.7928460
 AtZNuc=  15.0000000   8.0000000   8.0000000   1.0000000   8.0000000   1.0000000   8.0000000   1.0000000   8.0000000   1.0000000

  Atom        11
 IAtWgt=           1
 AtmWgt=   1.0078250
 NucSpn=           1
 AtZEff=  -0.0000000
 NQMom=    0.0000000
 NMagM=    2.7928460
 AtZNuc=   1.0000000
 Leave Link  101 at Sun Feb 19 13:23:13 2023, MaxMem=  6710886400 cpu:               1.9 elap:               0.1
 (Enter /data0/home/software/g16/l202.exe)
                          Input orientation:                          
 ---------------------------------------------------------------------
 Center     Atomic      Atomic             Coordinates (Angstroms)
 Number     Number       Type             X           Y           Z
 ---------------------------------------------------------------------
      1         15           0       10.095917    7.006538   11.296277
      2          8           0       10.614643    6.208537   12.407217
      3          8           0        9.184088    8.176025   11.864852
      4          1           0        9.002549    8.905827   11.143513
      5          8           0       11.102335    7.633407   10.254473
      6          1           0       11.702962    8.390108   10.731550
      7          8           0        9.163202    6.107958   10.359215
      8          1           0        9.128078    6.527746    9.425385
      9          8           0        8.826825   10.265605    9.971905
     10          1           0        9.568321   10.852727   10.264758
     11          1           0        9.109442    9.988498    9.103083
 ---------------------------------------------------------------------
                    Distance matrix (angstroms):
                    1          2          3          4          5
     1  P    0.000000
     2  O    1.462898   0.000000
     3  O    1.588210   2.492319   0.000000
     4  H    2.196836   3.386911   1.042064   0.000000
     5  O    1.578353   2.627243   2.562699   2.611235   0.000000
     6  H    2.194488   2.958302   2.770367   2.779912   1.077475
     7  O    1.598590   2.512192   2.558179   2.910155   2.469454
     8  H    2.160137   3.347102   2.944649   2.936493   2.409889
     9  O    3.739796   5.058343   2.842047   1.803480   3.490882
    10  H    4.016909   5.220481   3.142080   2.209690   3.566136
    11  H    3.830838   5.241282   3.304239   2.312349   3.292989
                    6          7          8          9         10
     6  H    0.000000
     7  O    3.434709   0.000000
     8  H    3.435766   1.024448   0.000000
     9  O    3.516634   4.189175   3.789595   0.000000
    10  H    3.292276   4.762969   4.427620   0.990097   0.000000
    11  H    3.454432   4.079136   3.475778   0.954732   1.518865
                   11
    11  H    0.000000
 Symmetry turned off by external request.
 Stoichiometry    H5O5P
 Framework group  C1[X(H5O5P)]
 Deg. of freedom    27
 Full point group                 C1      NOp   1
 Rotational constants (GHZ):           4.4296472           1.6077069           1.5757379
 Leave Link  202 at Sun Feb 19 13:23:13 2023, MaxMem=  6710886400 cpu:               0.1 elap:               0.0
 (Enter /data0/home/software/g16/l122.exe)
 Counterpoise: doing full-system calculation.
 Leave Link  122 at Sun Feb 19 13:23:13 2023, MaxMem=  6710886400 cpu:               0.0 elap:               0.0
 (Enter /data0/home/software/g16/l301.exe)
 Standard basis: 6-311+G(2d,p) (5D, 7F)
 Ernie: Thresh=  0.10000D-02 Tol=  0.10000D-05 Strict=F.
   200 basis functions,   306 primitive gaussians,   212 cartesian basis functions
    30 alpha electrons       30 beta electrons
       nuclear repulsion energy       360.8595548152 Hartrees.
 IExCor= 4336 DFT=T Ex+Corr=M062X ExCW=0 ScaHFX=  0.540000
 ScaDFX=  1.000000  1.000000  1.000000  1.000000 ScalE2=  1.000000  1.000000
 IRadAn=      5 IRanWt=     -1 IRanGd=            0 ICorTp=0 IEmpDi=131
 NAtoms=   11 NActive=   11 NUniq=   11 SFac= 1.00D+00 NAtFMM=   60 NAOKFM=F Big=F
 Integral buffers will be    131072 words long.
 Raffenetti 2 integral format.
 Two-electron integral symmetry is turned off.
 R6Disp:  Grimme-D3 Dispersion energy=       -0.0001758438 Hartrees.
 Nuclear repulsion after empirical dispersion term =      360.8593789714 Hartrees.
 Leave Link  301 at Sun Feb 19 13:23:13 2023, MaxMem=  6710886400 cpu:               1.1 elap:               0.1
 (Enter /data0/home/software/g16/l302.exe)
 NPDir=0 NMtPBC=     1 NCelOv=     1 NCel=       1 NClECP=     1 NCelD=      1
         NCelK=      1 NCelE2=     1 NClLst=     1 CellRange=     0.0.
 One-electron integrals computed using PRISM.
 NBasis=   200 RedAO= T EigKep=  5.38D-04  NBF=   200
 NBsUse=   200 1.00D-06 EigRej= -1.00D+00 NBFU=   200
 Precomputing XC quadrature grid using
 IXCGrd= 4 IRadAn=           5 IRanWt=          -1 IRanGd=           0 AccXCQ= 0.00D+00.
 Generated NRdTot=       0 NPtTot=           0 NUsed=           0 NTot=          32
 NSgBfM=   212   212   212   212   212 MxSgAt=    11 MxSgA2=    11.
 Leave Link  302 at Sun Feb 19 13:23:14 2023, MaxMem=  6710886400 cpu:               3.2 elap:               0.2
 (Enter /data0/home/software/g16/l303.exe)
 DipDrv:  MaxL=1.
 Leave Link  303 at Sun Feb 19 13:23:14 2023, MaxMem=  6710886400 cpu:               0.5 elap:               0.0
 (Enter /data0/home/software/g16/l401.exe)
 ExpMin= 3.48D-02 ExpMax= 7.75D+04 ExpMxC= 2.65D+03 IAcc=3 IRadAn=         5 AccDes= 0.00D+00
 Harris functional with IExCor= 1009 and IRadAn=       5 diagonalized for initial guess.
 HarFok:  IExCor= 1009 AccDes= 0.00D+00 IRadAn=         5 IDoV= 1 UseB2=F ITyADJ=14
 ICtDFT=  3500011 ScaDFX=  1.000000  1.000000  1.000000  1.000000
 FoFCou: FMM=F IPFlag=           0 FMFlag=      100000 FMFlg1=           0
         NFxFlg=           0 DoJE=T BraDBF=F KetDBF=T FulRan=T
         wScrn=  0.000000 ICntrl=       500 IOpCl=  0 I1Cent=   200000004 NGrid=           0
         NMat0=    1 NMatS0=      1 NMatT0=    0 NMatD0=    1 NMtDS0=    0 NMtDT0=    0
 Symmetry not used in FoFCou.
 Harris En= -720.362906941009    
 JPrj=0 DoOrth=F DoCkMO=F.
 Leave Link  401 at Sun Feb 19 13:23:14 2023, MaxMem=  6710886400 cpu:               8.0 elap:               0.4
 (Enter /data0/home/software/g16/l502.exe)
 Keep R1 ints in memory in canonical form, NReq=227026219.
 FoFCou: FMM=F IPFlag=           0 FMFlag=           0 FMFlg1=           0
         NFxFlg=           0 DoJE=F BraDBF=F KetDBF=F FulRan=T
         wScrn=  0.000000 ICntrl=       600 IOpCl=  0 I1Cent=           0 NGrid=           0
         NMat0=    1 NMatS0=  20100 NMatT0=    0 NMatD0=    1 NMtDS0=    0 NMtDT0=    0
 Symmetry not used in FoFCou.
 Two-electron integral symmetry not used.
 Closed shell SCF:
 Using DIIS extrapolation, IDIIS=  1040.
 NGot=  6710886400 LenX=  6508774801 LenY=  6508729416
 Requested convergence on RMS density matrix=1.00D-08 within 128 cycles.
 Requested convergence on MAX density matrix=1.00D-06.
 Requested convergence on             energy=1.00D-06.
 No special actions if energy rises.

 Cycle   1  Pass 1  IDiag  1:
 E= -720.219006479496    
 DIIS: error= 4.85D-02 at cycle   1 NSaved=   1.
 NSaved= 1 IEnMin= 1 EnMin= -720.219006479496     IErMin= 1 ErrMin= 4.85D-02
 ErrMax= 4.85D-02  0.00D+00 EMaxC= 1.00D-01 BMatC= 6.17D-01 BMatP= 6.17D-01
 IDIUse=3 WtCom= 5.15D-01 WtEn= 4.85D-01
 Coeff-Com:  0.100D+01
 Coeff-En:   0.100D+01
 Coeff:      0.100D+01
 Gap=     0.243 Goal=   None    Shift=    0.000
 GapD=    0.243 DampG=1.000 DampE=0.500 DampFc=0.5000 IDamp=-1.
 Damping current iteration by 5.00D-01
 RMSDP=8.33D-03 MaxDP=2.43D-01              OVMax= 2.66D-01

 Cycle   2  Pass 1  IDiag  1:
 E= -720.363174470446     Delta-E=       -0.144167990950 Rises=F Damp=T
 DIIS: error= 9.50D-03 at cycle   2 NSaved=   2.
 NSaved= 2 IEnMin= 2 EnMin= -720.363174470446     IErMin= 2 ErrMin= 9.50D-03
 ErrMax= 9.50D-03  0.00D+00 EMaxC= 1.00D-01 BMatC= 3.21D-02 BMatP= 6.17D-01
 IDIUse=3 WtCom= 9.05D-01 WtEn= 9.50D-02
 Coeff-Com:  0.714D-01 0.929D+00
 Coeff-En:   0.199D+00 0.801D+00
 Coeff:      0.836D-01 0.916D+00
 Gap=     0.325 Goal=   None    Shift=    0.000
 RMSDP=1.88D-03 MaxDP=7.98D-02 DE=-1.44D-01 OVMax= 1.68D-01

 Cycle   3  Pass 1  IDiag  1:
 E= -720.566942758745     Delta-E=       -0.203768288299 Rises=F Damp=F
 DIIS: error= 7.28D-03 at cycle   3 NSaved=   3.
 NSaved= 3 IEnMin= 3 EnMin= -720.566942758745     IErMin= 3 ErrMin= 7.28D-03
 ErrMax= 7.28D-03  0.00D+00 EMaxC= 1.00D-01 BMatC= 1.21D-02 BMatP= 3.21D-02
 IDIUse=3 WtCom= 9.27D-01 WtEn= 7.28D-02
 Coeff-Com: -0.141D-01 0.339D+00 0.675D+00
 Coeff-En:   0.000D+00 0.000D+00 0.100D+01
 Coeff:     -0.131D-01 0.314D+00 0.699D+00
 Gap=     0.316 Goal=   None    Shift=    0.000
 RMSDP=6.03D-04 MaxDP=1.72D-02 DE=-2.04D-01 OVMax= 3.94D-02

 Cycle   4  Pass 1  IDiag  1:
 E= -720.572405737937     Delta-E=       -0.005462979191 Rises=F Damp=F
 DIIS: error= 4.34D-03 at cycle   4 NSaved=   4.
 NSaved= 4 IEnMin= 4 EnMin= -720.572405737937     IErMin= 4 ErrMin= 4.34D-03
 ErrMax= 4.34D-03  0.00D+00 EMaxC= 1.00D-01 BMatC= 4.62D-03 BMatP= 1.21D-02
 IDIUse=3 WtCom= 9.57D-01 WtEn= 4.34D-02
 Coeff-Com: -0.205D-01 0.439D-01 0.403D+00 0.574D+00
 Coeff-En:   0.000D+00 0.000D+00 0.275D+00 0.725D+00
 Coeff:     -0.197D-01 0.419D-01 0.397D+00 0.580D+00
 Gap=     0.322 Goal=   None    Shift=    0.000
 RMSDP=2.41D-04 MaxDP=7.28D-03 DE=-5.46D-03 OVMax= 1.29D-02

 Cycle   5  Pass 1  IDiag  1:
 E= -720.575457242592     Delta-E=       -0.003051504655 Rises=F Damp=F
 DIIS: error= 2.19D-04 at cycle   5 NSaved=   5.
 NSaved= 5 IEnMin= 5 EnMin= -720.575457242592     IErMin= 5 ErrMin= 2.19D-04
 ErrMax= 2.19D-04  0.00D+00 EMaxC= 1.00D-01 BMatC= 1.87D-05 BMatP= 4.62D-03
 IDIUse=3 WtCom= 9.98D-01 WtEn= 2.19D-03
 Coeff-Com: -0.239D-02-0.331D-04 0.587D-01 0.119D+00 0.825D+00
 Coeff-En:   0.000D+00 0.000D+00 0.000D+00 0.000D+00 0.100D+01
 Coeff:     -0.238D-02-0.330D-04 0.585D-01 0.118D+00 0.826D+00
 Gap=     0.321 Goal=   None    Shift=    0.000
 RMSDP=2.58D-05 MaxDP=8.31D-04 DE=-3.05D-03 OVMax= 7.68D-04

 Cycle   6  Pass 1  IDiag  1:
 E= -720.575470191530     Delta-E=       -0.000012948938 Rises=F Damp=F
 DIIS: error= 6.74D-05 at cycle   6 NSaved=   6.
 NSaved= 6 IEnMin= 6 EnMin= -720.575470191530     IErMin= 6 ErrMin= 6.74D-05
 ErrMax= 6.74D-05  0.00D+00 EMaxC= 1.00D-01 BMatC= 1.96D-06 BMatP= 1.87D-05
 IDIUse=1 WtCom= 1.00D+00 WtEn= 0.00D+00
 Coeff-Com:  0.108D-03-0.178D-02 0.483D-03 0.102D-01 0.252D+00 0.739D+00
 Coeff:      0.108D-03-0.178D-02 0.483D-03 0.102D-01 0.252D+00 0.739D+00
 Gap=     0.321 Goal=   None    Shift=    0.000
 RMSDP=1.06D-05 MaxDP=2.45D-04 DE=-1.29D-05 OVMax= 2.80D-04

 Cycle   7  Pass 1  IDiag  1:
 E= -720.575471590949     Delta-E=       -0.000001399419 Rises=F Damp=F
 DIIS: error= 4.24D-05 at cycle   7 NSaved=   7.
 NSaved= 7 IEnMin= 7 EnMin= -720.575471590949     IErMin= 7 ErrMin= 4.24D-05
 ErrMax= 4.24D-05  0.00D+00 EMaxC= 1.00D-01 BMatC= 4.10D-07 BMatP= 1.96D-06
 IDIUse=1 WtCom= 1.00D+00 WtEn= 0.00D+00
 Coeff-Com:  0.401D-03-0.705D-03-0.933D-02-0.145D-01-0.148D-01 0.310D+00
 Coeff-Com:  0.729D+00
 Coeff:      0.401D-03-0.705D-03-0.933D-02-0.145D-01-0.148D-01 0.310D+00
 Coeff:      0.729D+00
 Gap=     0.321 Goal=   None    Shift=    0.000
 RMSDP=4.41D-06 MaxDP=1.11D-04 DE=-1.40D-06 OVMax= 1.43D-04

 Cycle   8  Pass 1  IDiag  1:
 E= -720.575471870382     Delta-E=       -0.000000279433 Rises=F Damp=F
 DIIS: error= 9.79D-06 at cycle   8 NSaved=   8.
 NSaved= 8 IEnMin= 8 EnMin= -720.575471870382     IErMin= 8 ErrMin= 9.79D-06
 ErrMax= 9.79D-06  0.00D+00 EMaxC= 1.00D-01 BMatC= 5.00D-08 BMatP= 4.10D-07
 IDIUse=1 WtCom= 1.00D+00 WtEn= 0.00D+00
 Coeff-Com:  0.160D-03-0.190D-03-0.421D-02-0.681D-02-0.188D-01 0.873D-01
 Coeff-Com:  0.335D+00 0.607D+00
 Coeff:      0.160D-03-0.190D-03-0.421D-02-0.681D-02-0.188D-01 0.873D-01
 Coeff:      0.335D+00 0.607D+00
 Gap=     0.321 Goal=   None    Shift=    0.000
 RMSDP=9.20D-07 MaxDP=3.05D-05 DE=-2.79D-07 OVMax= 3.99D-05

 Cycle   9  Pass 1  IDiag  1:
 E= -720.575471907526     Delta-E=       -0.000000037144 Rises=F Damp=F
 DIIS: error= 1.33D-06 at cycle   9 NSaved=   9.
 NSaved= 9 IEnMin= 9 EnMin= -720.575471907526     IErMin= 9 ErrMin= 1.33D-06
 ErrMax= 1.33D-06  0.00D+00 EMaxC= 1.00D-01 BMatC= 1.05D-09 BMatP= 5.00D-08
 IDIUse=1 WtCom= 1.00D+00 WtEn= 0.00D+00
 Coeff-Com: -0.306D-04 0.582D-04 0.393D-03 0.710D-03-0.999D-03-0.209D-01
 Coeff-Com: -0.351D-01 0.494D-01 0.101D+01
 Coeff:     -0.306D-04 0.582D-04 0.393D-03 0.710D-03-0.999D-03-0.209D-01
 Coeff:     -0.351D-01 0.494D-01 0.101D+01
 Gap=     0.321 Goal=   None    Shift=    0.000
 RMSDP=3.49D-07 MaxDP=8.60D-06 DE=-3.71D-08 OVMax= 1.20D-05

 Cycle  10  Pass 1  IDiag  1:
 E= -720.575471908924     Delta-E=       -0.000000001398 Rises=F Damp=F
 DIIS: error= 8.81D-07 at cycle  10 NSaved=  10.
 NSaved=10 IEnMin=10 EnMin= -720.575471908924     IErMin=10 ErrMin= 8.81D-07
 ErrMax= 8.81D-07  0.00D+00 EMaxC= 1.00D-01 BMatC= 1.26D-10 BMatP= 1.05D-09
 IDIUse=1 WtCom= 1.00D+00 WtEn= 0.00D+00
 Coeff-Com: -0.146D-04 0.252D-04 0.271D-03 0.453D-03 0.233D-03-0.104D-01
 Coeff-Com: -0.244D-01-0.355D-02 0.354D+00 0.683D+00
 Coeff:     -0.146D-04 0.252D-04 0.271D-03 0.453D-03 0.233D-03-0.104D-01
 Coeff:     -0.244D-01-0.355D-02 0.354D+00 0.683D+00
 Gap=     0.321 Goal=   None    Shift=    0.000
 RMSDP=6.78D-08 MaxDP=1.83D-06 DE=-1.40D-09 OVMax= 2.67D-06

 Cycle  11  Pass 1  IDiag  1:
 E= -720.575471909013     Delta-E=       -0.000000000089 Rises=F Damp=F
 DIIS: error= 3.12D-07 at cycle  11 NSaved=  11.
 NSaved=11 IEnMin=11 EnMin= -720.575471909013     IErMin=11 ErrMin= 3.12D-07
 ErrMax= 3.12D-07  0.00D+00 EMaxC= 1.00D-01 BMatC= 2.74D-11 BMatP= 1.26D-10
 IDIUse=1 WtCom= 1.00D+00 WtEn= 0.00D+00
 Coeff-Com:  0.396D-06-0.124D-05 0.422D-04 0.558D-04 0.335D-03-0.621D-03
 Coeff-Com: -0.448D-02-0.113D-01-0.404D-01 0.309D+00 0.747D+00
 Coeff:      0.396D-06-0.124D-05 0.422D-04 0.558D-04 0.335D-03-0.621D-03
 Coeff:     -0.448D-02-0.113D-01-0.404D-01 0.309D+00 0.747D+00
 Gap=     0.321 Goal=   None    Shift=    0.000
 RMSDP=2.59D-08 MaxDP=6.26D-07 DE=-8.89D-11 OVMax= 1.17D-06

 Cycle  12  Pass 1  IDiag  1:
 E= -720.575471909050     Delta-E=       -0.000000000036 Rises=F Damp=F
 DIIS: error= 4.24D-08 at cycle  12 NSaved=  12.
 NSaved=12 IEnMin=12 EnMin= -720.575471909050     IErMin=12 ErrMin= 4.24D-08
 ErrMax= 4.24D-08  0.00D+00 EMaxC= 1.00D-01 BMatC= 5.72D-13 BMatP= 2.74D-11
 IDIUse=1 WtCom= 1.00D+00 WtEn= 0.00D+00
 Coeff-Com:  0.780D-06-0.151D-05-0.207D-05-0.712D-05 0.579D-04 0.296D-03
 Coeff-Com:  0.294D-03-0.167D-02-0.253D-01 0.267D-01 0.151D+00 0.848D+00
 Coeff:      0.780D-06-0.151D-05-0.207D-05-0.712D-05 0.579D-04 0.296D-03
 Coeff:      0.294D-03-0.167D-02-0.253D-01 0.267D-01 0.151D+00 0.848D+00
 Gap=     0.321 Goal=   None    Shift=    0.000
 RMSDP=6.91D-09 MaxDP=1.34D-07 DE=-3.64D-11 OVMax= 2.45D-07

 SCF Done:  E(RM062X) =  -720.575471909     A.U. after   12 cycles
            NFock= 12  Conv=0.69D-08     -V/T= 2.0026
 KE= 7.187385532611D+02 PE=-2.430269067885D+03 EE= 6.300956637435D+02
 Leave Link  502 at Sun Feb 19 13:23:23 2023, MaxMem=  6710886400 cpu:             151.4 elap:               9.2
 (Enter /data0/home/software/g16/l601.exe)
 Copying SCF densities to generalized density rwf, IOpCl= 0 IROHF=0.

 **********************************************************************

            Population analysis using the SCF density.

 **********************************************************************

 Alpha  occ. eigenvalues --  -78.15387 -19.69758 -19.69421 -19.66789 -19.65308
 Alpha  occ. eigenvalues --  -19.56514  -6.96176  -5.08120  -5.08053  -5.07838
 Alpha  occ. eigenvalues --   -1.23517  -1.19985  -1.16312  -1.14738  -1.07088
 Alpha  occ. eigenvalues --   -0.71551  -0.66706  -0.65546  -0.62991  -0.56841
 Alpha  occ. eigenvalues --   -0.54902  -0.54044  -0.49440  -0.47636  -0.47315
 Alpha  occ. eigenvalues --   -0.45151  -0.44101  -0.42154  -0.36450  -0.35977
 Alpha virt. eigenvalues --   -0.03860   0.00810   0.02484   0.04925   0.07061
 Alpha virt. eigenvalues --    0.08974   0.09786   0.11358   0.13377   0.13726
 Alpha virt. eigenvalues --    0.14534   0.15472   0.16623   0.17918   0.18616
 Alpha virt. eigenvalues --    0.20108   0.20267   0.21819   0.22379   0.24473
 Alpha virt. eigenvalues --    0.25427   0.25819   0.26219   0.27727   0.28768
 Alpha virt. eigenvalues --    0.29456   0.31365   0.31910   0.32618   0.33605
 Alpha virt. eigenvalues --    0.35544   0.37030   0.37714   0.40349   0.43609
 Alpha virt. eigenvalues --    0.45347   0.46482   0.48138   0.50794   0.55153
 Alpha virt. eigenvalues --    0.56687   0.59900   0.65031   0.75167   0.77704
 Alpha virt. eigenvalues --    0.79457   0.88377   0.93127   0.97175   0.99016
 Alpha virt. eigenvalues --    1.01625   1.03525   1.05200   1.08034   1.09715
 Alpha virt. eigenvalues --    1.11887   1.13268   1.14270   1.15308   1.17887
 Alpha virt. eigenvalues --    1.20140   1.20842   1.23362   1.24509   1.25115
 Alpha virt. eigenvalues --    1.28343   1.31338   1.34320   1.34629   1.37038
 Alpha virt. eigenvalues --    1.40563   1.41814   1.47431   1.48955   1.53731
 Alpha virt. eigenvalues --    1.57554   1.58834   1.61024   1.63190   1.65617
 Alpha virt. eigenvalues --    1.66629   1.67708   1.68313   1.70255   1.73147
 Alpha virt. eigenvalues --    1.76424   1.80788   1.82731   1.85795   1.89401
 Alpha virt. eigenvalues --    1.94590   1.95220   1.97570   1.99563   2.04358
 Alpha virt. eigenvalues --    2.06340   2.07144   2.11805   2.18511   2.19421
 Alpha virt. eigenvalues --    2.23407   2.24928   2.29668   2.35391   2.38626
 Alpha virt. eigenvalues --    2.45929   2.48488   2.51190   2.53356   2.57106
 Alpha virt. eigenvalues --    2.61106   2.67138   2.71879   2.77961   2.84365
 Alpha virt. eigenvalues --    2.85977   2.89106   2.94596   2.97303   3.01359
 Alpha virt. eigenvalues --    5.03455   5.04896   5.07277   5.09006   5.09398
 Alpha virt. eigenvalues --    5.13727   5.16472   5.20028   5.24660   5.36193
 Alpha virt. eigenvalues --    5.42145   5.46353   5.54827   5.61241   5.83476
 Alpha virt. eigenvalues --    6.72623   6.74026   6.74862   6.75168   6.76645
 Alpha virt. eigenvalues --    6.78326   6.79688   6.80694   6.84892   6.86225
 Alpha virt. eigenvalues --    6.88633   6.89768   6.93303   6.94624   6.97915
 Alpha virt. eigenvalues --    7.01217   7.02148   7.04253   7.05583   7.10776
 Alpha virt. eigenvalues --    7.23960   7.30137   7.31851   7.35057   7.42236
 Alpha virt. eigenvalues --    7.65418  14.23174  14.26533  14.37918  49.93683
 Alpha virt. eigenvalues --   49.98582  50.02170  50.04792  50.11638 163.87383
          Condensed to atoms (all electrons):
               1          2          3          4          5          6
     1  P   12.570423   0.515687   0.184229   0.065282   0.190465  -0.013999
     2  O    0.515687   8.279036  -0.077295   0.016896  -0.039190  -0.016398
     3  O    0.184229  -0.077295   8.240456   0.153219   0.079025  -0.005170
     4  H    0.065282   0.016896   0.153219   0.444042  -0.050387   0.001032
     5  O    0.190465  -0.039190   0.079025  -0.050387   8.118363   0.265801
     6  H   -0.013999  -0.016398  -0.005170   0.001032   0.265801   0.434971
     7  O    0.186787  -0.057047  -0.002654   0.009173   0.015083   0.004720
     8  H    0.057447   0.006837  -0.012660   0.000282  -0.016307   0.000444
     9  O    0.000265  -0.000045   0.051612  -0.078329   0.035047  -0.001312
    10  H   -0.002390  -0.000057  -0.006450   0.007678  -0.003941   0.000447
    11  H    0.004803   0.000246  -0.009636   0.011395  -0.006707  -0.000576
               7          8          9         10         11
     1  P    0.186787   0.057447   0.000265  -0.002390   0.004803
     2  O   -0.057047   0.006837  -0.000045  -0.000057   0.000246
     3  O   -0.002654  -0.012660   0.051612  -0.006450  -0.009636
     4  H    0.009173   0.000282  -0.078329   0.007678   0.011395
     5  O    0.015083  -0.016307   0.035047  -0.003941  -0.006707
     6  H    0.004720   0.000444  -0.001312   0.000447  -0.000576
     7  O    8.124016   0.215023  -0.013596   0.001060   0.001860
     8  H    0.215023   0.459399   0.000377  -0.000081  -0.000359
     9  O   -0.013596   0.000377   7.925833   0.329409   0.327622
    10  H    0.001060  -0.000081   0.329409   0.397224  -0.023035
    11  H    0.001860  -0.000359   0.327622  -0.023035   0.402974
 Mulliken charges:
               1
     1  P    1.241001
     2  O   -0.628669
     3  O   -0.594676
     4  H    0.419716
     5  O   -0.587253
     6  H    0.330041
     7  O   -0.484425
     8  H    0.289597
     9  O   -0.576882
    10  H    0.300136
    11  H    0.291414
 Sum of Mulliken charges =  -0.00000
 Mulliken charges with hydrogens summed into heavy atoms:
               1
     1  P    1.241001
     2  O   -0.628669
     3  O   -0.174960
     5  O   -0.257211
     7  O   -0.194828
     9  O    0.014668
         Mulliken charges condensed to fragments:
      1     -0.014668
      2      0.014668
 Electronic spatial extent (au):  <R**2>=          59886.5054
 Charge=             -0.0000 electrons
 Dipole moment (field-independent basis, Debye):
    X=              1.1855    Y=              6.3135    Z=             -5.7115  Tot=              8.5957
 Quadrupole moment (field-independent basis, Debye-Ang):
   XX=            -19.8915   YY=             56.4959   ZZ=           -168.0899
   XY=             78.7891   XZ=            -42.7963   YZ=             26.9216
 Traceless Quadrupole moment (field-independent basis, Debye-Ang):
   XX=             23.9370   YY=            100.3244   ZZ=           -124.2614
   XY=             78.7891   XZ=            -42.7963   YZ=             26.9216
 Octapole moment (field-independent basis, Debye-Ang**2):
  XXX=           -923.5443  YYY=            236.9416  ZZZ=          -3501.0572  XYY=            751.0604
  XXY=            614.8234  XXZ=           -765.9303  XZZ=          -1513.0769  YZZ=           -482.2920
  YYZ=            290.1503  XYZ=            452.2996
 Hexadecapole moment (field-independent basis, Debye-Ang**3):
 XXXX=         -20467.4582 YYYY=          -1740.1719 ZZZZ=         -62629.8969 XXXY=           1423.9659
 XXXZ=         -15560.3463 YYYX=           4513.4089 YYYZ=            -25.4485 ZZZX=         -33103.8358
 ZZZY=         -17427.9230 XXYY=           6735.9789 XXZZ=         -18836.7335 YYZZ=          -2837.4054
 XXYZ=           2747.9451 YYXZ=           5018.1657 ZZXY=          -2691.6542
 N-N= 3.608593789714D+02 E-N=-2.430269072152D+03  KE= 7.187385532611D+02
 No NMR shielding tensors so no spin-rotation constants.
 Leave Link  601 at Sun Feb 19 13:23:23 2023, MaxMem=  6710886400 cpu:               2.0 elap:               0.1
 (Enter /data0/home/software/g16/l122.exe)
 CPIOFr:  IOpCl= 0 IRwI=-1 IRwCP=  731 ICalc= -1 LCPTot=       62711 Len1MO=      164280 IndFrg=       62711
 CPIOFr:  IOpCl= 0 IRwI=-1 IRwCP=  731 ICalc=  0 LCPTot=       62711 Len1MO=      164280 IndFrg=      226991
 Counterpoise: doing calculation for fragment   1 using the basis set of the full-system, NewBq=T
 Leave Link  122 at Sun Feb 19 13:23:23 2023, MaxMem=  6710886400 cpu:               0.1 elap:               0.0
 (Enter /data0/home/software/g16/l301.exe)
 Basis read from rwf:  (5D, 7F)
 No pseudopotential information found on rwf file.
   200 basis functions,   306 primitive gaussians,   212 cartesian basis functions
    25 alpha electrons       25 beta electrons
       nuclear repulsion energy       280.0064167330 Hartrees.
 IExCor= 4336 DFT=T Ex+Corr=M062X ExCW=0 ScaHFX=  0.540000
 ScaDFX=  1.000000  1.000000  1.000000  1.000000 ScalE2=  1.000000  1.000000
 IRadAn=      5 IRanWt=     -1 IRanGd=            0 ICorTp=0 IEmpDi=131
 NAtoms=   11 NActive=   11 NUniq=   11 SFac= 1.00D+00 NAtFMM=   60 NAOKFM=F Big=F
 Integral buffers will be    131072 words long.
 Raffenetti 2 integral format.
 Two-electron integral symmetry is turned off.
 R6Disp:  Grimme-D3 Dispersion energy=       -0.0000406111 Hartrees.
 Nuclear repulsion after empirical dispersion term =      280.0063761219 Hartrees.
 No density basis found on file   718.
 Leave Link  301 at Sun Feb 19 13:23:23 2023, MaxMem=  6710886400 cpu:               1.3 elap:               0.1
 (Enter /data0/home/software/g16/l302.exe)
 NPDir=0 NMtPBC=     1 NCelOv=     1 NCel=       1 NClECP=     1 NCelD=      1
         NCelK=      1 NCelE2=     1 NClLst=     1 CellRange=     0.0.
 One-electron integrals computed using PRISM.
 NBasis=   200 RedAO= T EigKep=  5.38D-04  NBF=   200
 NBsUse=   200 1.00D-06 EigRej= -1.00D+00 NBFU=   200
 Precomputing XC quadrature grid using
 IXCGrd= 4 IRadAn=           5 IRanWt=          -1 IRanGd=           0 AccXCQ= 0.00D+00.
 Generated NRdTot=       0 NPtTot=           0 NUsed=           0 NTot=          32
 NSgBfM=   212   212   212   212   212 MxSgAt=    11 MxSgA2=    11.
 Leave Link  302 at Sun Feb 19 13:23:24 2023, MaxMem=  6710886400 cpu:               3.3 elap:               0.2
 (Enter /data0/home/software/g16/l303.exe)
 DipDrv:  MaxL=1.
 Leave Link  303 at Sun Feb 19 13:23:24 2023, MaxMem=  6710886400 cpu:               0.5 elap:               0.0
 (Enter /data0/home/software/g16/l401.exe)
 ExpMin= 3.48D-02 ExpMax= 7.75D+04 ExpMxC= 2.65D+03 IAcc=3 IRadAn=         5 AccDes= 0.00D+00
 Harris functional with IExCor= 1009 and IRadAn=       5 diagonalized for initial guess.
 HarFok:  IExCor= 1009 AccDes= 0.00D+00 IRadAn=         5 IDoV= 1 UseB2=F ITyADJ=14
 ICtDFT=  3500011 ScaDFX=  1.000000  1.000000  1.000000  1.000000
 FoFCou: FMM=F IPFlag=           0 FMFlag=      100000 FMFlg1=           0
         NFxFlg=           0 DoJE=T BraDBF=F KetDBF=T FulRan=T
         wScrn=  0.000000 ICntrl=       500 IOpCl=  0 I1Cent=   200000004 NGrid=           0
         NMat0=    1 NMatS0=      1 NMatT0=    0 NMatD0=    1 NMtDS0=    0 NMtDT0=    0
 Symmetry not used in FoFCou.
 Harris En= -643.942446252139    
 JPrj=0 DoOrth=F DoCkMO=F.
 Leave Link  401 at Sun Feb 19 13:23:24 2023, MaxMem=  6710886400 cpu:               8.3 elap:               0.4
 (Enter /data0/home/software/g16/l502.exe)
 Keep R1 ints in memory in canonical form, NReq=227026219.
 FoFCou: FMM=F IPFlag=           0 FMFlag=           0 FMFlg1=           0
         NFxFlg=           0 DoJE=F BraDBF=F KetDBF=F FulRan=T
         wScrn=  0.000000 ICntrl=       600 IOpCl=  0 I1Cent=           0 NGrid=           0
         NMat0=    1 NMatS0=  20100 NMatT0=    0 NMatD0=    1 NMtDS0=    0 NMtDT0=    0
 Symmetry not used in FoFCou.
 Two-electron integral symmetry not used.
 Closed shell SCF:
 Using DIIS extrapolation, IDIIS=  1040.
 NGot=  6710886400 LenX=  6508774801 LenY=  6508729416
 Requested convergence on RMS density matrix=1.00D-08 within 128 cycles.
 Requested convergence on MAX density matrix=1.00D-06.
 Requested convergence on             energy=1.00D-06.
 No special actions if energy rises.

 Cycle   1  Pass 1  IDiag  1:
 E= -643.842252006372    
 DIIS: error= 4.66D-02 at cycle   1 NSaved=   1.
 NSaved= 1 IEnMin= 1 EnMin= -643.842252006372     IErMin= 1 ErrMin= 4.66D-02
 ErrMax= 4.66D-02  0.00D+00 EMaxC= 1.00D-01 BMatC= 5.16D-01 BMatP= 5.16D-01
 IDIUse=3 WtCom= 5.34D-01 WtEn= 4.66D-01
 Coeff-Com:  0.100D+01
 Coeff-En:   0.100D+01
 Coeff:      0.100D+01
 Gap=     0.264 Goal=   None    Shift=    0.000
 GapD=    0.264 DampG=1.000 DampE=0.500 DampFc=0.5000 IDamp=-1.
 Damping current iteration by 5.00D-01
 RMSDP=7.37D-03 MaxDP=2.09D-01              OVMax= 2.68D-01

 Cycle   2  Pass 1  IDiag  1:
 E= -643.958005944065     Delta-E=       -0.115753937693 Rises=F Damp=T
 DIIS: error= 8.18D-03 at cycle   2 NSaved=   2.
 NSaved= 2 IEnMin= 2 EnMin= -643.958005944065     IErMin= 2 ErrMin= 8.18D-03
 ErrMax= 8.18D-03  0.00D+00 EMaxC= 1.00D-01 BMatC= 2.92D-02 BMatP= 5.16D-01
 IDIUse=3 WtCom= 9.18D-01 WtEn= 8.18D-02
 Coeff-Com:  0.821D-01 0.918D+00
 Coeff-En:   0.223D+00 0.777D+00
 Coeff:      0.936D-01 0.906D+00
 Gap=     0.340 Goal=   None    Shift=    0.000
 RMSDP=1.74D-03 MaxDP=7.16D-02 DE=-1.16D-01 OVMax= 1.73D-01

 Cycle   3  Pass 1  IDiag  1:
 E= -644.132092316626     Delta-E=       -0.174086372561 Rises=F Damp=F
 DIIS: error= 7.36D-03 at cycle   3 NSaved=   3.
 NSaved= 3 IEnMin= 3 EnMin= -644.132092316626     IErMin= 3 ErrMin= 7.36D-03
 ErrMax= 7.36D-03  0.00D+00 EMaxC= 1.00D-01 BMatC= 1.22D-02 BMatP= 2.92D-02
 IDIUse=3 WtCom= 9.26D-01 WtEn= 7.36D-02
 Coeff-Com: -0.129D-01 0.358D+00 0.655D+00
 Coeff-En:   0.000D+00 0.000D+00 0.100D+01
 Coeff:     -0.119D-01 0.331D+00 0.681D+00
 Gap=     0.330 Goal=   None    Shift=    0.000
 RMSDP=5.75D-04 MaxDP=1.65D-02 DE=-1.74D-01 OVMax= 3.79D-02

 Cycle   4  Pass 1  IDiag  1:
 E= -644.138112451076     Delta-E=       -0.006020134450 Rises=F Damp=F
 DIIS: error= 3.99D-03 at cycle   4 NSaved=   4.
 NSaved= 4 IEnMin= 4 EnMin= -644.138112451076     IErMin= 4 ErrMin= 3.99D-03
 ErrMax= 3.99D-03  0.00D+00 EMaxC= 1.00D-01 BMatC= 3.90D-03 BMatP= 1.22D-02
 IDIUse=3 WtCom= 9.60D-01 WtEn= 3.99D-02
 Coeff-Com: -0.226D-01 0.492D-01 0.384D+00 0.589D+00
 Coeff-En:   0.000D+00 0.000D+00 0.235D+00 0.765D+00
 Coeff:     -0.217D-01 0.473D-01 0.378D+00 0.596D+00
 Gap=     0.336 Goal=   None    Shift=    0.000
 RMSDP=2.14D-04 MaxDP=6.41D-03 DE=-6.02D-03 OVMax= 1.11D-02

 Cycle   5  Pass 1  IDiag  1:
 E= -644.140669074022     Delta-E=       -0.002556622946 Rises=F Damp=F
 DIIS: error= 2.21D-04 at cycle   5 NSaved=   5.
 NSaved= 5 IEnMin= 5 EnMin= -644.140669074022     IErMin= 5 ErrMin= 2.21D-04
 ErrMax= 2.21D-04  0.00D+00 EMaxC= 1.00D-01 BMatC= 1.62D-05 BMatP= 3.90D-03
 IDIUse=3 WtCom= 9.98D-01 WtEn= 2.21D-03
 Coeff-Com: -0.251D-02-0.152D-03 0.496D-01 0.116D+00 0.837D+00
 Coeff-En:   0.000D+00 0.000D+00 0.000D+00 0.000D+00 0.100D+01
 Coeff:     -0.250D-02-0.151D-03 0.495D-01 0.115D+00 0.838D+00
 Gap=     0.335 Goal=   None    Shift=    0.000
 RMSDP=2.24D-05 MaxDP=6.51D-04 DE=-2.56D-03 OVMax= 7.23D-04

 Cycle   6  Pass 1  IDiag  1:
 E= -644.140679764547     Delta-E=       -0.000010690525 Rises=F Damp=F
 DIIS: error= 5.44D-05 at cycle   6 NSaved=   6.
 NSaved= 6 IEnMin= 6 EnMin= -644.140679764547     IErMin= 6 ErrMin= 5.44D-05
 ErrMax= 5.44D-05  0.00D+00 EMaxC= 1.00D-01 BMatC= 1.07D-06 BMatP= 1.62D-05
 IDIUse=1 WtCom= 1.00D+00 WtEn= 0.00D+00
 Coeff-Com:  0.144D-03-0.151D-02-0.188D-02 0.419D-02 0.186D+00 0.813D+00
 Coeff:      0.144D-03-0.151D-02-0.188D-02 0.419D-02 0.186D+00 0.813D+00
 Gap=     0.335 Goal=   None    Shift=    0.000
 RMSDP=8.92D-06 MaxDP=2.13D-04 DE=-1.07D-05 OVMax= 2.46D-04

 Cycle   7  Pass 1  IDiag  1:
 E= -644.140680489103     Delta-E=       -0.000000724556 Rises=F Damp=F
 DIIS: error= 3.32D-05 at cycle   7 NSaved=   7.
 NSaved= 7 IEnMin= 7 EnMin= -644.140680489103     IErMin= 7 ErrMin= 3.32D-05
 ErrMax= 3.32D-05  0.00D+00 EMaxC= 1.00D-01 BMatC= 3.43D-07 BMatP= 1.07D-06
 IDIUse=1 WtCom= 1.00D+00 WtEn= 0.00D+00
 Coeff-Com:  0.390D-03-0.640D-03-0.788D-02-0.139D-01-0.205D-01 0.374D+00
 Coeff-Com:  0.669D+00
 Coeff:      0.390D-03-0.640D-03-0.788D-02-0.139D-01-0.205D-01 0.374D+00
 Coeff:      0.669D+00
 Gap=     0.335 Goal=   None    Shift=    0.000
 RMSDP=3.21D-06 MaxDP=8.54D-05 DE=-7.25D-07 OVMax= 1.22D-04

 Cycle   8  Pass 1  IDiag  1:
 E= -644.140680719216     Delta-E=       -0.000000230113 Rises=F Damp=F
 DIIS: error= 8.07D-06 at cycle   8 NSaved=   8.
 NSaved= 8 IEnMin= 8 EnMin= -644.140680719216     IErMin= 8 ErrMin= 8.07D-06
 ErrMax= 8.07D-06  0.00D+00 EMaxC= 1.00D-01 BMatC= 2.84D-08 BMatP= 3.43D-07
 IDIUse=1 WtCom= 1.00D+00 WtEn= 0.00D+00
 Coeff-Com:  0.141D-03-0.181D-03-0.325D-02-0.572D-02-0.148D-01 0.112D+00
 Coeff-Com:  0.295D+00 0.617D+00
 Coeff:      0.141D-03-0.181D-03-0.325D-02-0.572D-02-0.148D-01 0.112D+00
 Coeff:      0.295D+00 0.617D+00
 Gap=     0.335 Goal=   None    Shift=    0.000
 RMSDP=7.38D-07 MaxDP=2.09D-05 DE=-2.30D-07 OVMax= 3.32D-05

 Cycle   9  Pass 1  IDiag  1:
 E= -644.140680740379     Delta-E=       -0.000000021164 Rises=F Damp=F
 DIIS: error= 1.60D-06 at cycle   9 NSaved=   9.
 NSaved= 9 IEnMin= 9 EnMin= -644.140680740379     IErMin= 9 ErrMin= 1.60D-06
 ErrMax= 1.60D-06  0.00D+00 EMaxC= 1.00D-01 BMatC= 1.08D-09 BMatP= 2.84D-08
 IDIUse=1 WtCom= 1.00D+00 WtEn= 0.00D+00
 Coeff-Com: -0.306D-04 0.573D-04 0.291D-03 0.635D-03-0.969D-03-0.256D-01
 Coeff-Com: -0.275D-01 0.105D+00 0.948D+00
 Coeff:     -0.306D-04 0.573D-04 0.291D-03 0.635D-03-0.969D-03-0.256D-01
 Coeff:     -0.275D-01 0.105D+00 0.948D+00
 Gap=     0.335 Goal=   None    Shift=    0.000
 RMSDP=3.22D-07 MaxDP=1.01D-05 DE=-2.12D-08 OVMax= 1.26D-05

 Cycle  10  Pass 1  IDiag  1:
 E= -644.140680741678     Delta-E=       -0.000000001299 Rises=F Damp=F
 DIIS: error= 2.83D-07 at cycle  10 NSaved=  10.
 NSaved=10 IEnMin=10 EnMin= -644.140680741678     IErMin=10 ErrMin= 2.83D-07
 ErrMax= 2.83D-07  0.00D+00 EMaxC= 1.00D-01 BMatC= 2.17D-11 BMatP= 1.08D-09
 IDIUse=1 WtCom= 1.00D+00 WtEn= 0.00D+00
 Coeff-Com: -0.275D-05 0.417D-05 0.108D-03 0.180D-03 0.657D-03-0.440D-02
 Coeff-Com: -0.119D-01-0.216D-01-0.803D-02 0.104D+01
 Coeff:     -0.275D-05 0.417D-05 0.108D-03 0.180D-03 0.657D-03-0.440D-02
 Coeff:     -0.119D-01-0.216D-01-0.803D-02 0.104D+01
 Gap=     0.335 Goal=   None    Shift=    0.000
 RMSDP=6.89D-08 MaxDP=1.42D-06 DE=-1.30D-09 OVMax= 2.74D-06

 Cycle  11  Pass 1  IDiag  1:
 E= -644.140680741729     Delta-E=       -0.000000000051 Rises=F Damp=F
 DIIS: error= 1.08D-07 at cycle  11 NSaved=  11.
 NSaved=11 IEnMin=11 EnMin= -644.140680741729     IErMin=11 ErrMin= 1.08D-07
 ErrMax= 1.08D-07  0.00D+00 EMaxC= 1.00D-01 BMatC= 5.96D-12 BMatP= 2.17D-11
 IDIUse=1 WtCom= 1.00D+00 WtEn= 0.00D+00
 Coeff-Com:  0.707D-06-0.154D-05 0.273D-04 0.350D-04 0.279D-03-0.553D-03
 Coeff-Com: -0.306D-02-0.127D-01-0.530D-01 0.399D+00 0.670D+00
 Coeff:      0.707D-06-0.154D-05 0.273D-04 0.350D-04 0.279D-03-0.553D-03
 Coeff:     -0.306D-02-0.127D-01-0.530D-01 0.399D+00 0.670D+00
 Gap=     0.335 Goal=   None    Shift=    0.000
 RMSDP=1.64D-08 MaxDP=4.06D-07 DE=-5.12D-11 OVMax= 7.21D-07

 Cycle  12  Pass 1  IDiag  1:
 E= -644.140680741729     Delta-E=        0.000000000000 Rises=F Damp=F
 DIIS: error= 6.57D-08 at cycle  12 NSaved=  12.
 NSaved=12 IEnMin=11 EnMin= -644.140680741729     IErMin=12 ErrMin= 6.57D-08
 ErrMax= 6.57D-08  0.00D+00 EMaxC= 1.00D-01 BMatC= 1.25D-12 BMatP= 5.96D-12
 IDIUse=1 WtCom= 1.00D+00 WtEn= 0.00D+00
 Coeff-Com:  0.767D-06-0.147D-05-0.285D-05-0.100D-04 0.287D-04 0.401D-03
 Coeff-Com:  0.488D-03-0.244D-02-0.244D-01 0.214D-01 0.329D+00 0.676D+00
 Coeff:      0.767D-06-0.147D-05-0.285D-05-0.100D-04 0.287D-04 0.401D-03
 Coeff:      0.488D-03-0.244D-02-0.244D-01 0.214D-01 0.329D+00 0.676D+00
 Gap=     0.335 Goal=   None    Shift=    0.000
 RMSDP=6.32D-09 MaxDP=1.33D-07 DE= 2.27D-13 OVMax= 2.45D-07

 SCF Done:  E(RM062X) =  -644.140680742     A.U. after   12 cycles
            NFock= 12  Conv=0.63D-08     -V/T= 2.0025
 KE= 6.425319969574D+02 PE=-2.087672686570D+03 EE= 5.209936327485D+02
 Leave Link  502 at Sun Feb 19 13:23:34 2023, MaxMem=  6710886400 cpu:             164.9 elap:              10.4
 (Enter /data0/home/software/g16/l601.exe)
 Copying SCF densities to generalized density rwf, IOpCl= 0 IROHF=0.

 **********************************************************************

            Population analysis using the SCF density.

 **********************************************************************

 Alpha  occ. eigenvalues --  -78.16723 -19.70385 -19.68559 -19.67731 -19.57748
 Alpha  occ. eigenvalues --   -6.97517  -5.09448  -5.09405  -5.09177  -1.24724
 Alpha  occ. eigenvalues --   -1.17525  -1.16663  -1.08326  -0.72688  -0.66846
 Alpha  occ. eigenvalues --   -0.64234  -0.57571  -0.55855  -0.50413  -0.48904
 Alpha  occ. eigenvalues --   -0.47575  -0.45450  -0.43869  -0.37591  -0.37282
 Alpha virt. eigenvalues --   -0.03762   0.00576   0.01974   0.04648   0.06416
 Alpha virt. eigenvalues --    0.09379   0.10100   0.10615   0.10921   0.12875
 Alpha virt. eigenvalues --    0.14546   0.15948   0.17536   0.18807   0.19481
 Alpha virt. eigenvalues --    0.20154   0.20538   0.22019   0.23405   0.24155
 Alpha virt. eigenvalues --    0.25006   0.25609   0.27643   0.27836   0.28888
 Alpha virt. eigenvalues --    0.30024   0.30690   0.31952   0.32283   0.32814
 Alpha virt. eigenvalues --    0.34886   0.36460   0.37349   0.37791   0.42839
 Alpha virt. eigenvalues --    0.45005   0.47105   0.49884   0.54632   0.55680
 Alpha virt. eigenvalues --    0.63465   0.65067   0.68446   0.70845   0.74765
 Alpha virt. eigenvalues --    0.75874   0.78325   0.81053   0.87993   0.91431
 Alpha virt. eigenvalues --    0.98285   1.01390   1.02615   1.05500   1.07593
 Alpha virt. eigenvalues --    1.09181   1.12773   1.13247   1.14593   1.17835
 Alpha virt. eigenvalues --    1.19744   1.22579   1.24004   1.25520   1.26399
 Alpha virt. eigenvalues --    1.30328   1.33527   1.36514   1.38071   1.46073
 Alpha virt. eigenvalues --    1.47344   1.52281   1.55891   1.58168   1.59823
 Alpha virt. eigenvalues --    1.61557   1.63813   1.65486   1.66207   1.70192
 Alpha virt. eigenvalues --    1.72915   1.74433   1.77316   1.80793   1.82542
 Alpha virt. eigenvalues --    1.85156   1.89088   1.94565   1.98023   1.98966
 Alpha virt. eigenvalues --    1.99348   2.01793   2.04066   2.12216   2.16692
 Alpha virt. eigenvalues --    2.18603   2.20656   2.23430   2.25933   2.33475
 Alpha virt. eigenvalues --    2.36632   2.37512   2.43093   2.47419   2.51556
 Alpha virt. eigenvalues --    2.52463   2.56403   2.58756   2.60048   2.61851
 Alpha virt. eigenvalues --    2.62058   2.69069   2.70888   2.77155   2.83372
 Alpha virt. eigenvalues --    2.87878   2.90115   2.92375   2.93870   3.07955
 Alpha virt. eigenvalues --    3.43925   3.53836   4.45337   4.99113   5.02231
 Alpha virt. eigenvalues --    5.03743   5.07117   5.08460   5.12066   5.15138
 Alpha virt. eigenvalues --    5.18828   5.22955   5.35092   5.41594   5.53977
 Alpha virt. eigenvalues --    5.61130   6.72064   6.73972   6.74191   6.76117
 Alpha virt. eigenvalues --    6.77870   6.79720   6.84753   6.88183   6.88489
 Alpha virt. eigenvalues --    6.93141   6.96638   6.99752   7.00829   7.03268
 Alpha virt. eigenvalues --    7.08744   7.22788   7.29208   7.29614   7.33555
 Alpha virt. eigenvalues --    7.40875   7.64049   9.75056   9.77071   9.87008
 Alpha virt. eigenvalues --    9.91115  10.03585  12.84861  13.18870  13.59421
 Alpha virt. eigenvalues --   14.21848  14.25197  14.36593  17.61054  49.97736
 Alpha virt. eigenvalues --   50.01227  50.01385  50.10394 135.92133 163.86048
          Condensed to atoms (all electrons):
               1          2          3          4          5          6
     1  P   12.520840   0.537893   0.181089   0.053196   0.215924  -0.010644
     2  O    0.537893   8.217439  -0.061736   0.014398  -0.038034  -0.014317
     3  O    0.181089  -0.061736   8.152405   0.193264   0.072700  -0.005409
     4  H    0.053196   0.014398   0.193264   0.416369  -0.043683   0.000319
     5  O    0.215924  -0.038034   0.072700  -0.043683   8.076455   0.269830
     6  H   -0.010644  -0.014317  -0.005409   0.000319   0.269830   0.421055
     7  O    0.200665  -0.044743   0.004255   0.004083   0.010230   0.003299
     8  H    0.054633   0.006419  -0.013138   0.000792  -0.015124   0.000508
     9  O   -0.005722  -0.000972   0.029854  -0.004272   0.021076   0.001342
    10  H    0.001349   0.000121  -0.007366   0.003366  -0.003718  -0.000005
    11  H    0.000455   0.000108  -0.003645   0.001995  -0.004321  -0.000404
               7          8          9         10         11
     1  P    0.200665   0.054633  -0.005722   0.001349   0.000455
     2  O   -0.044743   0.006419  -0.000972   0.000121   0.000108
     3  O    0.004255  -0.013138   0.029854  -0.007366  -0.003645
     4  H    0.004083   0.000792  -0.004272   0.003366   0.001995
     5  O    0.010230  -0.015124   0.021076  -0.003718  -0.004321
     6  H    0.003299   0.000508   0.001342  -0.000005  -0.000404
     7  O    8.094528   0.223067  -0.005597   0.000581   0.001209
     8  H    0.223067   0.445011   0.000036  -0.000045  -0.000321
     9  O   -0.005597   0.000036   0.034252  -0.012250  -0.009969
    10  H    0.000581  -0.000045  -0.012250   0.006209   0.002774
    11  H    0.001209  -0.000321  -0.009969   0.002774   0.004646
 Mulliken charges:
               1
     1  P    1.250321
     2  O   -0.616577
     3  O   -0.542271
     4  H    0.360173
     5  O   -0.561337
     6  H    0.334427
     7  O   -0.491577
     8  H    0.298163
     9  O   -0.047778
    10  H    0.008983
    11  H    0.007472
 Sum of Mulliken charges =  -0.00000
 Mulliken charges with hydrogens summed into heavy atoms:
               1
     1  P    1.250321
     2  O   -0.616577
     3  O   -0.182098
     5  O   -0.226909
     7  O   -0.193414
     9  O   -0.031322
         Mulliken charges condensed to fragments:
      1      0.031322
      2     -0.031322
 Electronic spatial extent (au):  <R**2>=          49738.7117
 Charge=             -0.0000 electrons
 Dipole moment (field-independent basis, Debye):
    X=             -0.1908    Y=              4.9338    Z=             -4.2942  Tot=              6.5436
 Quadrupole moment (field-independent basis, Debye-Ang):
   XX=            -37.3186   YY=             37.0197   ZZ=           -133.6900
   XY=             50.3388   XZ=            -43.5301   YZ=             25.5480
 Traceless Quadrupole moment (field-independent basis, Debye-Ang):
   XX=              7.3444   YY=             81.6826   ZZ=            -89.0270
   XY=             50.3388   XZ=            -43.5301   YZ=             25.5480
 Octapole moment (field-independent basis, Debye-Ang**2):
  XXX=          -1060.0247  YYY=             63.1560  ZZZ=          -2891.3959  XYY=            393.8826
  XXY=            287.2902  XXZ=           -820.3128  XZZ=          -1335.5645  YZZ=           -312.2056
  YYZ=            203.9224  XYZ=            280.9580
 Hexadecapole moment (field-independent basis, Debye-Ang**3):
 XXXX=         -20910.4242 YYYY=          -2481.5060 ZZZZ=         -53200.6614 XXXY=          -1522.0665
 XXXZ=         -15819.2162 YYYX=            913.7266 YYYZ=           -827.9819 ZZZX=         -28906.0286
 ZZZY=         -13271.6026 XXYY=           2615.5217 XXZZ=         -17685.2510 YYZZ=          -2016.1396
 XXYZ=            502.0770 YYXZ=           2427.1674 ZZXY=          -2739.8876
 N-N= 2.800063761219D+02 E-N=-2.087672690846D+03  KE= 6.425319969574D+02
 No NMR shielding tensors so no spin-rotation constants.
 Leave Link  601 at Sun Feb 19 13:23:34 2023, MaxMem=  6710886400 cpu:               2.0 elap:               0.1
 (Enter /data0/home/software/g16/l122.exe)
 CPIOFr:  IOpCl= 0 IRwI=-1 IRwCP=  731 ICalc=  1 LCPTot=       62711 Len1MO=      164280 IndFrg=      391271
 Counterpoise: doing calculation for fragment   2 using the basis set of the full-system, NewBq=T
 Leave Link  122 at Sun Feb 19 13:23:35 2023, MaxMem=  6710886400 cpu:               0.1 elap:               0.0
 (Enter /data0/home/software/g16/l301.exe)
 Basis read from rwf:  (5D, 7F)
 No pseudopotential information found on rwf file.
   200 basis functions,   306 primitive gaussians,   212 cartesian basis functions
     5 alpha electrons        5 beta electrons
       nuclear repulsion energy         9.0583095566 Hartrees.
 IExCor= 4336 DFT=T Ex+Corr=M062X ExCW=0 ScaHFX=  0.540000
 ScaDFX=  1.000000  1.000000  1.000000  1.000000 ScalE2=  1.000000  1.000000
 IRadAn=      5 IRanWt=     -1 IRanGd=            0 ICorTp=0 IEmpDi=131
 NAtoms=   11 NActive=   11 NUniq=   11 SFac= 1.00D+00 NAtFMM=   60 NAOKFM=F Big=F
 Integral buffers will be    131072 words long.
 Raffenetti 2 integral format.
 Two-electron integral symmetry is turned off.
 R6Disp:  Grimme-D3 Dispersion energy=       -0.0000000075 Hartrees.
 Nuclear repulsion after empirical dispersion term =        9.0583095491 Hartrees.
 No density basis found on file   718.
 Leave Link  301 at Sun Feb 19 13:23:35 2023, MaxMem=  6710886400 cpu:               1.3 elap:               0.1
 (Enter /data0/home/software/g16/l302.exe)
 NPDir=0 NMtPBC=     1 NCelOv=     1 NCel=       1 NClECP=     1 NCelD=      1
         NCelK=      1 NCelE2=     1 NClLst=     1 CellRange=     0.0.
 One-electron integrals computed using PRISM.
 NBasis=   200 RedAO= T EigKep=  5.38D-04  NBF=   200
 NBsUse=   200 1.00D-06 EigRej= -1.00D+00 NBFU=   200
 Precomputing XC quadrature grid using
 IXCGrd= 4 IRadAn=           5 IRanWt=          -1 IRanGd=           0 AccXCQ= 0.00D+00.
 Generated NRdTot=       0 NPtTot=           0 NUsed=           0 NTot=          32
 NSgBfM=   212   212   212   212   212 MxSgAt=    11 MxSgA2=    11.
 Leave Link  302 at Sun Feb 19 13:23:35 2023, MaxMem=  6710886400 cpu:               3.3 elap:               0.2
 (Enter /data0/home/software/g16/l303.exe)
 DipDrv:  MaxL=1.
 Leave Link  303 at Sun Feb 19 13:23:35 2023, MaxMem=  6710886400 cpu:               0.6 elap:               0.0
 (Enter /data0/home/software/g16/l401.exe)
 ExpMin= 3.48D-02 ExpMax= 7.75D+04 ExpMxC= 2.65D+03 IAcc=3 IRadAn=         5 AccDes= 0.00D+00
 Harris functional with IExCor= 1009 and IRadAn=       5 diagonalized for initial guess.
 HarFok:  IExCor= 1009 AccDes= 0.00D+00 IRadAn=         5 IDoV= 1 UseB2=F ITyADJ=14
 ICtDFT=  3500011 ScaDFX=  1.000000  1.000000  1.000000  1.000000
 FoFCou: FMM=F IPFlag=           0 FMFlag=      100000 FMFlg1=           0
         NFxFlg=           0 DoJE=T BraDBF=F KetDBF=T FulRan=T
         wScrn=  0.000000 ICntrl=       500 IOpCl=  0 I1Cent=   200000004 NGrid=           0
         NMat0=    1 NMatS0=      1 NMatT0=    0 NMatD0=    1 NMtDS0=    0 NMtDT0=    0
 Symmetry not used in FoFCou.
 Harris En= -76.4162082108783    
 JPrj=0 DoOrth=F DoCkMO=F.
 Leave Link  401 at Sun Feb 19 13:23:35 2023, MaxMem=  6710886400 cpu:               7.6 elap:               0.3
 (Enter /data0/home/software/g16/l502.exe)
 Keep R1 ints in memory in canonical form, NReq=227026219.
 FoFCou: FMM=F IPFlag=           0 FMFlag=           0 FMFlg1=           0
         NFxFlg=           0 DoJE=F BraDBF=F KetDBF=F FulRan=T
         wScrn=  0.000000 ICntrl=       600 IOpCl=  0 I1Cent=           0 NGrid=           0
         NMat0=    1 NMatS0=  20100 NMatT0=    0 NMatD0=    1 NMtDS0=    0 NMtDT0=    0
 Symmetry not used in FoFCou.
 Two-electron integral symmetry not used.
 Closed shell SCF:
 Using DIIS extrapolation, IDIIS=  1040.
 NGot=  6710886400 LenX=  6508774801 LenY=  6508729416
 Requested convergence on RMS density matrix=1.00D-08 within 128 cycles.
 Requested convergence on MAX density matrix=1.00D-06.
 Requested convergence on             energy=1.00D-06.
 No special actions if energy rises.

 Cycle   1  Pass 1  IDiag  1:
 E= -76.3473827330095    
 DIIS: error= 4.23D-02 at cycle   1 NSaved=   1.
 NSaved= 1 IEnMin= 1 EnMin= -76.3473827330095     IErMin= 1 ErrMin= 4.23D-02
 ErrMax= 4.23D-02  0.00D+00 EMaxC= 1.00D-01 BMatC= 1.19D-01 BMatP= 1.19D-01
 IDIUse=3 WtCom= 5.77D-01 WtEn= 4.23D-01
 Coeff-Com:  0.100D+01
 Coeff-En:   0.100D+01
 Coeff:      0.100D+01
 Gap=     0.281 Goal=   None    Shift=    0.000
 GapD=    0.281 DampG=1.000 DampE=0.500 DampFc=0.5000 IDamp=-1.
 Damping current iteration by 5.00D-01
 RMSDP=2.82D-03 MaxDP=9.89D-02              OVMax= 1.71D-01

 Cycle   2  Pass 1  IDiag  1:
 E= -76.3780310531276     Delta-E=       -0.030648320118 Rises=F Damp=T
 DIIS: error= 8.36D-03 at cycle   2 NSaved=   2.
 NSaved= 2 IEnMin= 2 EnMin= -76.3780310531276     IErMin= 2 ErrMin= 8.36D-03
 ErrMax= 8.36D-03  0.00D+00 EMaxC= 1.00D-01 BMatC= 5.05D-03 BMatP= 1.19D-01
 IDIUse=3 WtCom= 9.16D-01 WtEn= 8.36D-02
 Coeff-Com:  0.889D-01 0.911D+00
 Coeff-En:   0.199D+00 0.801D+00
 Coeff:      0.981D-01 0.902D+00
 Gap=     0.404 Goal=   None    Shift=    0.000
 RMSDP=4.42D-04 MaxDP=2.01D-02 DE=-3.06D-02 OVMax= 1.03D-01

 Cycle   3  Pass 1  IDiag  1:
 E= -76.4220584176153     Delta-E=       -0.044027364488 Rises=F Damp=F
 DIIS: error= 1.14D-03 at cycle   3 NSaved=   3.
 NSaved= 3 IEnMin= 3 EnMin= -76.4220584176153     IErMin= 3 ErrMin= 1.14D-03
 ErrMax= 1.14D-03  0.00D+00 EMaxC= 1.00D-01 BMatC= 1.17D-04 BMatP= 5.05D-03
 IDIUse=3 WtCom= 9.89D-01 WtEn= 1.14D-02
 Coeff-Com: -0.238D-01 0.438D-01 0.980D+00
 Coeff-En:   0.000D+00 0.000D+00 0.100D+01
 Coeff:     -0.235D-01 0.433D-01 0.980D+00
 Gap=     0.406 Goal=   None    Shift=    0.000
 RMSDP=3.94D-05 MaxDP=1.43D-03 DE=-4.40D-02 OVMax= 3.62D-03

 Cycle   4  Pass 1  IDiag  1:
 E= -76.4221552432115     Delta-E=       -0.000096825596 Rises=F Damp=F
 DIIS: error= 1.29D-04 at cycle   4 NSaved=   4.
 NSaved= 4 IEnMin= 4 EnMin= -76.4221552432115     IErMin= 4 ErrMin= 1.29D-04
 ErrMax= 1.29D-04  0.00D+00 EMaxC= 1.00D-01 BMatC= 2.85D-06 BMatP= 1.17D-04
 IDIUse=3 WtCom= 9.99D-01 WtEn= 1.29D-03
 Coeff-Com: -0.238D-02-0.987D-03 0.148D+00 0.855D+00
 Coeff-En:   0.000D+00 0.000D+00 0.000D+00 0.100D+01
 Coeff:     -0.238D-02-0.986D-03 0.148D+00 0.855D+00
 Gap=     0.407 Goal=   None    Shift=    0.000
 RMSDP=8.49D-06 MaxDP=3.30D-04 DE=-9.68D-05 OVMax= 5.42D-04

 Cycle   5  Pass 1  IDiag  1:
 E= -76.4221570902617     Delta-E=       -0.000001847050 Rises=F Damp=F
 DIIS: error= 3.05D-05 at cycle   5 NSaved=   5.
 NSaved= 5 IEnMin= 5 EnMin= -76.4221570902617     IErMin= 5 ErrMin= 3.05D-05
 ErrMax= 3.05D-05  0.00D+00 EMaxC= 1.00D-01 BMatC= 7.80D-08 BMatP= 2.85D-06
 IDIUse=1 WtCom= 1.00D+00 WtEn= 0.00D+00
 Coeff-Com:  0.132D-02-0.203D-02-0.372D-01-0.480D-01 0.109D+01
 Coeff:      0.132D-02-0.203D-02-0.372D-01-0.480D-01 0.109D+01
 Gap=     0.407 Goal=   None    Shift=    0.000
 RMSDP=6.32D-06 MaxDP=2.16D-04 DE=-1.85D-06 OVMax= 2.19D-04

 Cycle   6  Pass 1  IDiag  1:
 E= -76.4221572280311     Delta-E=       -0.000000137769 Rises=F Damp=F
 DIIS: error= 6.23D-06 at cycle   6 NSaved=   6.
 NSaved= 6 IEnMin= 6 EnMin= -76.4221572280311     IErMin= 6 ErrMin= 6.23D-06
 ErrMax= 6.23D-06  0.00D+00 EMaxC= 1.00D-01 BMatC= 1.99D-09 BMatP= 7.80D-08
 IDIUse=1 WtCom= 1.00D+00 WtEn= 0.00D+00
 Coeff-Com: -0.241D-03 0.353D-03 0.291D-02-0.739D-02-0.139D+00 0.114D+01
 Coeff:     -0.241D-03 0.353D-03 0.291D-02-0.739D-02-0.139D+00 0.114D+01
 Gap=     0.407 Goal=   None    Shift=    0.000
 RMSDP=8.92D-07 MaxDP=3.12D-05 DE=-1.38D-07 OVMax= 4.00D-05

 Cycle   7  Pass 1  IDiag  1:
 E= -76.4221572318707     Delta-E=       -0.000000003840 Rises=F Damp=F
 DIIS: error= 6.02D-07 at cycle   7 NSaved=   7.
 NSaved= 7 IEnMin= 7 EnMin= -76.4221572318707     IErMin= 7 ErrMin= 6.02D-07
 ErrMax= 6.02D-07  0.00D+00 EMaxC= 1.00D-01 BMatC= 3.65D-11 BMatP= 1.99D-09
 IDIUse=1 WtCom= 1.00D+00 WtEn= 0.00D+00
 Coeff-Com: -0.135D-04 0.350D-04 0.356D-03 0.120D-02-0.225D-01 0.765D-02
 Coeff-Com:  0.101D+01
 Coeff:     -0.135D-04 0.350D-04 0.356D-03 0.120D-02-0.225D-01 0.765D-02
 Coeff:      0.101D+01
 Gap=     0.407 Goal=   None    Shift=    0.000
 RMSDP=1.27D-07 MaxDP=4.77D-06 DE=-3.84D-09 OVMax= 5.18D-06

 Cycle   8  Pass 1  IDiag  1:
 E= -76.4221572319370     Delta-E=       -0.000000000066 Rises=F Damp=F
 DIIS: error= 1.66D-07 at cycle   8 NSaved=   8.
 NSaved= 8 IEnMin= 8 EnMin= -76.4221572319370     IErMin= 8 ErrMin= 1.66D-07
 ErrMax= 1.66D-07  0.00D+00 EMaxC= 1.00D-01 BMatC= 2.44D-12 BMatP= 3.65D-11
 IDIUse=1 WtCom= 1.00D+00 WtEn= 0.00D+00
 Coeff-Com:  0.131D-04-0.161D-04-0.126D-03 0.685D-03 0.433D-02-0.576D-01
 Coeff-Com:  0.130D+00 0.923D+00
 Coeff:      0.131D-04-0.161D-04-0.126D-03 0.685D-03 0.433D-02-0.576D-01
 Coeff:      0.130D+00 0.923D+00
 Gap=     0.407 Goal=   None    Shift=    0.000
 RMSDP=1.75D-08 MaxDP=6.78D-07 DE=-6.63D-11 OVMax= 9.36D-07

 Cycle   9  Pass 1  IDiag  1:
 E= -76.4221572319404     Delta-E=       -0.000000000003 Rises=F Damp=F
 DIIS: error= 2.67D-08 at cycle   9 NSaved=   9.
 NSaved= 9 IEnMin= 9 EnMin= -76.4221572319404     IErMin= 9 ErrMin= 2.67D-08
 ErrMax= 2.67D-08  0.00D+00 EMaxC= 1.00D-01 BMatC= 3.69D-14 BMatP= 2.44D-12
 IDIUse=1 WtCom= 1.00D+00 WtEn= 0.00D+00
 Coeff-Com: -0.127D-05 0.495D-06 0.195D-04-0.689D-04-0.474D-04 0.601D-02
 Coeff-Com: -0.386D-01-0.951D-01 0.113D+01
 Coeff:     -0.127D-05 0.495D-06 0.195D-04-0.689D-04-0.474D-04 0.601D-02
 Coeff:     -0.386D-01-0.951D-01 0.113D+01
 Gap=     0.407 Goal=   None    Shift=    0.000
 RMSDP=1.88D-09 MaxDP=4.16D-08 DE=-3.35D-12 OVMax= 1.53D-07

 SCF Done:  E(RM062X) =  -76.4221572319     A.U. after    9 cycles
            NFock=  9  Conv=0.19D-08     -V/T= 2.0033
 KE= 7.617175091351D+01 PE=-1.989492788199D+02 EE= 3.729706112537D+01
 Leave Link  502 at Sun Feb 19 13:23:44 2023, MaxMem=  6710886400 cpu:             129.7 elap:               8.6
 (Enter /data0/home/software/g16/l601.exe)
 Copying SCF densities to generalized density rwf, IOpCl= 0 IROHF=0.

 **********************************************************************

            Population analysis using the SCF density.

 **********************************************************************

 Alpha  occ. eigenvalues --  -19.62821  -1.13219  -0.60238  -0.47768  -0.40015
 Alpha virt. eigenvalues --    0.00698   0.04174   0.04981   0.05615   0.10216
 Alpha virt. eigenvalues --    0.12933   0.13767   0.15201   0.16020   0.18185
 Alpha virt. eigenvalues --    0.18596   0.19636   0.19799   0.20690   0.21662
 Alpha virt. eigenvalues --    0.23454   0.24226   0.25466   0.26822   0.28009
 Alpha virt. eigenvalues --    0.28615   0.30641   0.31417   0.35614   0.35909
 Alpha virt. eigenvalues --    0.36300   0.37384   0.37423   0.39462   0.40397
 Alpha virt. eigenvalues --    0.42495   0.45976   0.48472   0.51813   0.59049
 Alpha virt. eigenvalues --    0.67997   0.70285   0.71387   0.72605   0.74267
 Alpha virt. eigenvalues --    0.75566   0.76367   0.79807   0.81699   0.84966
 Alpha virt. eigenvalues --    0.86949   0.89260   0.95215   0.97658   0.99524
 Alpha virt. eigenvalues --    1.00544   1.02712   1.05577   1.07849   1.10400
 Alpha virt. eigenvalues --    1.10781   1.13516   1.15820   1.17456   1.18869
 Alpha virt. eigenvalues --    1.21838   1.24192   1.27676   1.29813   1.37062
 Alpha virt. eigenvalues --    1.43044   1.44539   1.46500   1.50340   1.66952
 Alpha virt. eigenvalues --    1.69680   1.75612   1.78572   1.86518   1.89867
 Alpha virt. eigenvalues --    1.93808   1.99682   2.00913   2.07959   2.11996
 Alpha virt. eigenvalues --    2.14644   2.23245   2.25494   2.26563   2.32656
 Alpha virt. eigenvalues --    2.35803   2.36399   2.40073   2.41831   2.44895
 Alpha virt. eigenvalues --    2.48962   2.50235   2.55308   2.56384   2.56693
 Alpha virt. eigenvalues --    2.60198   2.61756   2.62571   2.66414   2.68189
 Alpha virt. eigenvalues --    2.71691   2.74327   2.76742   2.79633   2.82794
 Alpha virt. eigenvalues --    2.85954   2.89032   2.92057   2.93653   2.95784
 Alpha virt. eigenvalues --    2.99075   3.01263   3.02327   3.04994   3.06556
 Alpha virt. eigenvalues --    3.07156   3.14655   3.16966   3.18426   3.22500
 Alpha virt. eigenvalues --    3.24064   3.29800   3.34832   3.39718   3.46297
 Alpha virt. eigenvalues --    3.67726   3.70561   3.78299   4.39163   4.45115
 Alpha virt. eigenvalues --    4.50350   4.52464   4.59158   4.75577   4.85844
 Alpha virt. eigenvalues --    4.90805   5.00869   5.15402   5.53174   5.89959
 Alpha virt. eigenvalues --    6.81490   6.83406   6.91619   6.99864   7.10522
 Alpha virt. eigenvalues --    9.74401   9.85407   9.86667   9.95042   9.99403
 Alpha virt. eigenvalues --   10.07831  10.09727  10.12687  10.19325  10.21461
 Alpha virt. eigenvalues --   10.25664  10.28866  10.31274  10.34216  10.36628
 Alpha virt. eigenvalues --   10.39823  10.43703  10.46993  10.54744  10.63921
 Alpha virt. eigenvalues --   10.68579  10.75679  10.83576  12.84494  12.95326
 Alpha virt. eigenvalues --   13.10114  13.22155  13.32142  13.38534  13.43225
 Alpha virt. eigenvalues --   13.45179  13.48458  13.59207  13.76919  13.92409
 Alpha virt. eigenvalues --   14.13516  17.75543  18.01087  18.46850  18.51249
 Alpha virt. eigenvalues --   50.00667  52.62171  52.66684  52.83040  70.36448
 Alpha virt. eigenvalues --  136.52191 136.89705 139.62350 139.75117 482.93005
          Condensed to atoms (all electrons):
               1          2          3          4          5          6
     1  P    0.031001  -0.018210  -0.009653   0.008168  -0.004872   0.001043
     2  O   -0.018210   0.023317   0.002604  -0.001491   0.003946  -0.001011
     3  O   -0.009653   0.002604   0.056138  -0.066502   0.002209  -0.000987
     4  H    0.008168  -0.001491  -0.066502   0.090040  -0.001675   0.000706
     5  O   -0.004872   0.003946   0.002209  -0.001675   0.003792  -0.001462
     6  H    0.001043  -0.001011  -0.000987   0.000706  -0.001462   0.000915
     7  O   -0.002988  -0.008310  -0.005333   0.005206  -0.001309   0.000550
     8  H   -0.000695  -0.000292   0.000630  -0.000601  -0.000074   0.000019
     9  O    0.002219   0.001223   0.079378  -0.137026   0.006087  -0.001134
    10  H   -0.001189  -0.000102  -0.002695   0.007123   0.000171   0.000179
    11  H   -0.000558  -0.000066  -0.005357   0.010138   0.000311  -0.000033
               7          8          9         10         11
     1  P   -0.002988  -0.000695   0.002219  -0.001189  -0.000558
     2  O   -0.008310  -0.000292   0.001223  -0.000102  -0.000066
     3  O   -0.005333   0.000630   0.079378  -0.002695  -0.005357
     4  H    0.005206  -0.000601  -0.137026   0.007123   0.010138
     5  O   -0.001309  -0.000074   0.006087   0.000171   0.000311
     6  H    0.000550   0.000019  -0.001134   0.000179  -0.000033
     7  O    0.011848   0.000460  -0.006759   0.000238   0.000780
     8  H    0.000460   0.000229   0.000681  -0.000042  -0.000043
     9  O   -0.006759   0.000681   7.927458   0.339338   0.342081
    10  H    0.000238  -0.000042   0.339338   0.420504  -0.027449
    11  H    0.000780  -0.000043   0.342081  -0.027449   0.419620
 Mulliken charges:
               1
     1  P   -0.004265
     2  O   -0.001606
     3  O   -0.050433
     4  H    0.085914
     5  O   -0.007125
     6  H    0.001215
     7  O    0.005616
     8  H   -0.000272
     9  O   -0.553545
    10  H    0.263924
    11  H    0.260577
 Sum of Mulliken charges =  -0.00000
 Mulliken charges with hydrogens summed into heavy atoms:
               1
     1  P   -0.004265
     2  O   -0.001606
     3  O    0.035481
     5  O   -0.005909
     7  O    0.005344
     9  O   -0.029044
         Mulliken charges condensed to fragments:
      1      0.029044
      2     -0.029044
 Electronic spatial extent (au):  <R**2>=          10146.8755
 Charge=              0.0000 electrons
 Dipole moment (field-independent basis, Debye):
    X=              1.7364    Y=              0.5104    Z=             -0.9705  Tot=              2.0536
 Quadrupole moment (field-independent basis, Debye-Ang):
   XX=             24.5233   YY=              3.9162   ZZ=            -24.7011
   XY=             23.3285   XZ=              8.7162   YZ=             -3.6800
 Traceless Quadrupole moment (field-independent basis, Debye-Ang):
   XX=             23.2771   YY=              2.6701   ZZ=            -25.9472
   XY=             23.3285   XZ=              8.7162   YZ=             -3.6800
 Octapole moment (field-independent basis, Debye-Ang**2):
  XXX=            242.8233  YYY=            -40.8586  ZZZ=           -449.9296  XYY=            238.0915
  XXY=            309.6331  XXZ=            168.8157  XZZ=            -45.9543  YZZ=           -179.5413
  YYZ=            -38.3563  XYZ=            155.2848
 Hexadecapole moment (field-independent basis, Debye-Ang**3):
 XXXX=           1878.4084 YYYY=          -1952.6524 ZZZZ=          -7064.9549 XXXY=           3090.7256
 XXXZ=           1758.8543 YYYX=           1835.0652 YYYZ=          -1068.5415 ZZZX=          -2257.8400
 ZZZY=          -3771.7657 XXYY=           3260.1243 XXZZ=            510.4266 YYZZ=          -1730.6104
 XXYZ=           2410.4939 YYXZ=           1695.9452 ZZXY=            288.8719
 N-N= 9.058309549095D+00 E-N=-1.989492794226D+02  KE= 7.617175091351D+01
 No NMR shielding tensors so no spin-rotation constants.
 Leave Link  601 at Sun Feb 19 13:23:44 2023, MaxMem=  6710886400 cpu:               1.9 elap:               0.1
 (Enter /data0/home/software/g16/l122.exe)
 CPIOFr:  IOpCl= 0 IRwI=-1 IRwCP=  731 ICalc=  2 LCPTot=       62711 Len1MO=      164280 IndFrg=      555551
 Counterpoise: doing calculation for fragment   1 using the basis set of the fragment.
 Leave Link  122 at Sun Feb 19 13:23:44 2023, MaxMem=  6710886400 cpu:               0.1 elap:               0.0
 (Enter /data0/home/software/g16/l301.exe)
 Basis read from rwf:  (5D, 7F)
 No pseudopotential information found on rwf file.
   161 basis functions,   248 primitive gaussians,   171 cartesian basis functions
    25 alpha electrons       25 beta electrons
       nuclear repulsion energy       280.0064167330 Hartrees.
 IExCor= 4336 DFT=T Ex+Corr=M062X ExCW=0 ScaHFX=  0.540000
 ScaDFX=  1.000000  1.000000  1.000000  1.000000 ScalE2=  1.000000  1.000000
 IRadAn=      5 IRanWt=     -1 IRanGd=            0 ICorTp=0 IEmpDi=131
 NAtoms=   11 NActive=    8 NUniq=    8 SFac= 1.00D+00 NAtFMM=   60 NAOKFM=F Big=F
 Integral buffers will be    131072 words long.
 Raffenetti 2 integral format.
 Two-electron integral symmetry is turned off.
 R6Disp:  Grimme-D3 Dispersion energy=       -0.0000406111 Hartrees.
 Nuclear repulsion after empirical dispersion term =      280.0063761219 Hartrees.
 No density basis found on file   718.
 Leave Link  301 at Sun Feb 19 13:23:44 2023, MaxMem=  6710886400 cpu:               1.3 elap:               0.1
 (Enter /data0/home/software/g16/l302.exe)
 NPDir=0 NMtPBC=     1 NCelOv=     1 NCel=       1 NClECP=     1 NCelD=      1
         NCelK=      1 NCelE2=     1 NClLst=     1 CellRange=     0.0.
 One-electron integrals computed using PRISM.
 NBasis=   161 RedAO= T EigKep=  7.86D-04  NBF=   161
 NBsUse=   161 1.00D-06 EigRej= -1.00D+00 NBFU=   161
 Precomputing XC quadrature grid using
 IXCGrd= 4 IRadAn=           5 IRanWt=          -1 IRanGd=           0 AccXCQ= 0.00D+00.
 Generated NRdTot=       0 NPtTot=           0 NUsed=           0 NTot=          32
 NSgBfM=   171   171   171   171   171 MxSgAt=     8 MxSgA2=     8.
 Leave Link  302 at Sun Feb 19 13:23:44 2023, MaxMem=  6710886400 cpu:               2.9 elap:               0.1
 (Enter /data0/home/software/g16/l303.exe)
 DipDrv:  MaxL=1.
 Leave Link  303 at Sun Feb 19 13:23:44 2023, MaxMem=  6710886400 cpu:               0.5 elap:               0.0
 (Enter /data0/home/software/g16/l401.exe)
 ExpMin= 3.48D-02 ExpMax= 7.75D+04 ExpMxC= 2.65D+03 IAcc=3 IRadAn=         5 AccDes= 0.00D+00
 Harris functional with IExCor= 1009 and IRadAn=       5 diagonalized for initial guess.
 HarFok:  IExCor= 1009 AccDes= 0.00D+00 IRadAn=         5 IDoV= 1 UseB2=F ITyADJ=14
 ICtDFT=  3500011 ScaDFX=  1.000000  1.000000  1.000000  1.000000
 FoFCou: FMM=F IPFlag=           0 FMFlag=      100000 FMFlg1=           0
         NFxFlg=           0 DoJE=T BraDBF=F KetDBF=T FulRan=T
         wScrn=  0.000000 ICntrl=       500 IOpCl=  0 I1Cent=   200000004 NGrid=           0
         NMat0=    1 NMatS0=      1 NMatT0=    0 NMatD0=    1 NMtDS0=    0 NMtDT0=    0
 Symmetry not used in FoFCou.
 Harris En= -643.942103402727    
 JPrj=0 DoOrth=F DoCkMO=F.
 Leave Link  401 at Sun Feb 19 13:23:44 2023, MaxMem=  6710886400 cpu:               6.0 elap:               0.3
 (Enter /data0/home/software/g16/l502.exe)
 Keep R1 ints in memory in canonical form, NReq=108960467.
 FoFCou: FMM=F IPFlag=           0 FMFlag=           0 FMFlg1=           0
         NFxFlg=           0 DoJE=F BraDBF=F KetDBF=F FulRan=T
         wScrn=  0.000000 ICntrl=       600 IOpCl=  0 I1Cent=           0 NGrid=           0
         NMat0=    1 NMatS0=  13041 NMatT0=    0 NMatD0=    1 NMtDS0=    0 NMtDT0=    0
 Symmetry not used in FoFCou.
 Two-electron integral symmetry not used.
 Closed shell SCF:
 Using DIIS extrapolation, IDIIS=  1040.
 NGot=  6710886400 LenX=  6625782085 LenY=  6625752403
 Requested convergence on RMS density matrix=1.00D-08 within 128 cycles.
 Requested convergence on MAX density matrix=1.00D-06.
 Requested convergence on             energy=1.00D-06.
 No special actions if energy rises.

 Cycle   1  Pass 1  IDiag  1:
 E= -643.841980840350    
 DIIS: error= 4.62D-02 at cycle   1 NSaved=   1.
 NSaved= 1 IEnMin= 1 EnMin= -643.841980840350     IErMin= 1 ErrMin= 4.62D-02
 ErrMax= 4.62D-02  0.00D+00 EMaxC= 1.00D-01 BMatC= 5.16D-01 BMatP= 5.16D-01
 IDIUse=3 WtCom= 5.38D-01 WtEn= 4.62D-01
 Coeff-Com:  0.100D+01
 Coeff-En:   0.100D+01
 Coeff:      0.100D+01
 Gap=     0.265 Goal=   None    Shift=    0.000
 GapD=    0.265 DampG=1.000 DampE=0.500 DampFc=0.5000 IDamp=-1.
 Damping current iteration by 5.00D-01
 RMSDP=9.10D-03 MaxDP=2.12D-01              OVMax= 2.68D-01

 Cycle   2  Pass 1  IDiag  1:
 E= -643.957791890815     Delta-E=       -0.115811050465 Rises=F Damp=T
 DIIS: error= 9.19D-03 at cycle   2 NSaved=   2.
 NSaved= 2 IEnMin= 2 EnMin= -643.957791890815     IErMin= 2 ErrMin= 9.19D-03
 ErrMax= 9.19D-03  0.00D+00 EMaxC= 1.00D-01 BMatC= 2.91D-02 BMatP= 5.16D-01
 IDIUse=3 WtCom= 9.08D-01 WtEn= 9.19D-02
 Coeff-Com:  0.819D-01 0.918D+00
 Coeff-En:   0.223D+00 0.777D+00
 Coeff:      0.949D-01 0.905D+00
 Gap=     0.341 Goal=   None    Shift=    0.000
 RMSDP=2.20D-03 MaxDP=7.17D-02 DE=-1.16D-01 OVMax= 1.73D-01

 Cycle   3  Pass 1  IDiag  1:
 E= -644.131908857141     Delta-E=       -0.174116966326 Rises=F Damp=F
 DIIS: error= 9.34D-03 at cycle   3 NSaved=   3.
 NSaved= 3 IEnMin= 3 EnMin= -644.131908857141     IErMin= 2 ErrMin= 9.19D-03
 ErrMax= 9.34D-03  0.00D+00 EMaxC= 1.00D-01 BMatC= 1.20D-02 BMatP= 2.91D-02
 IDIUse=3 WtCom= 9.07D-01 WtEn= 9.34D-02
 Coeff-Com: -0.119D-01 0.356D+00 0.656D+00
 Coeff-En:   0.000D+00 0.000D+00 0.100D+01
 Coeff:     -0.107D-01 0.323D+00 0.688D+00
 Gap=     0.330 Goal=   None    Shift=    0.000
 RMSDP=7.13D-04 MaxDP=1.66D-02 DE=-1.74D-01 OVMax= 3.82D-02

 Cycle   4  Pass 1  IDiag  1:
 E= -644.137655899035     Delta-E=       -0.005747041894 Rises=F Damp=F
 DIIS: error= 5.11D-03 at cycle   4 NSaved=   4.
 NSaved= 4 IEnMin= 4 EnMin= -644.137655899035     IErMin= 4 ErrMin= 5.11D-03
 ErrMax= 5.11D-03  0.00D+00 EMaxC= 1.00D-01 BMatC= 4.12D-03 BMatP= 1.20D-02
 IDIUse=3 WtCom= 9.49D-01 WtEn= 5.11D-02
 Coeff-Com: -0.212D-01 0.466D-01 0.391D+00 0.583D+00
 Coeff-En:   0.000D+00 0.000D+00 0.252D+00 0.748D+00
 Coeff:     -0.201D-01 0.442D-01 0.384D+00 0.592D+00
 Gap=     0.337 Goal=   None    Shift=    0.000
 RMSDP=2.72D-04 MaxDP=6.63D-03 DE=-5.75D-03 OVMax= 1.17D-02

 Cycle   5  Pass 1  IDiag  1:
 E= -644.140362057787     Delta-E=       -0.002706158752 Rises=F Damp=F
 DIIS: error= 2.23D-04 at cycle   5 NSaved=   5.
 NSaved= 5 IEnMin= 5 EnMin= -644.140362057787     IErMin= 5 ErrMin= 2.23D-04
 ErrMax= 2.23D-04  0.00D+00 EMaxC= 1.00D-01 BMatC= 1.77D-05 BMatP= 4.12D-03
 IDIUse=3 WtCom= 9.98D-01 WtEn= 2.23D-03
 Coeff-Com: -0.214D-02-0.905D-03 0.508D-01 0.117D+00 0.835D+00
 Coeff-En:   0.000D+00 0.000D+00 0.000D+00 0.000D+00 0.100D+01
 Coeff:     -0.213D-02-0.903D-03 0.507D-01 0.117D+00 0.836D+00
 Gap=     0.336 Goal=   None    Shift=    0.000
 RMSDP=2.76D-05 MaxDP=6.67D-04 DE=-2.71D-03 OVMax= 7.44D-04

 Cycle   6  Pass 1  IDiag  1:
 E= -644.140373722451     Delta-E=       -0.000011664664 Rises=F Damp=F
 DIIS: error= 5.60D-05 at cycle   6 NSaved=   6.
 NSaved= 6 IEnMin= 6 EnMin= -644.140373722451     IErMin= 6 ErrMin= 5.60D-05
 ErrMax= 5.60D-05  0.00D+00 EMaxC= 1.00D-01 BMatC= 1.09D-06 BMatP= 1.77D-05
 IDIUse=1 WtCom= 1.00D+00 WtEn= 0.00D+00
 Coeff-Com:  0.173D-03-0.162D-02-0.155D-02 0.536D-02 0.190D+00 0.807D+00
 Coeff:      0.173D-03-0.162D-02-0.155D-02 0.536D-02 0.190D+00 0.807D+00
 Gap=     0.336 Goal=   None    Shift=    0.000
 RMSDP=1.12D-05 MaxDP=2.26D-04 DE=-1.17D-05 OVMax= 2.45D-04

 Cycle   7  Pass 1  IDiag  1:
 E= -644.140374460546     Delta-E=       -0.000000738095 Rises=F Damp=F
 DIIS: error= 3.29D-05 at cycle   7 NSaved=   7.
 NSaved= 7 IEnMin= 7 EnMin= -644.140374460546     IErMin= 7 ErrMin= 3.29D-05
 ErrMax= 3.29D-05  0.00D+00 EMaxC= 1.00D-01 BMatC= 3.41D-07 BMatP= 1.09D-06
 IDIUse=1 WtCom= 1.00D+00 WtEn= 0.00D+00
 Coeff-Com:  0.358D-03-0.586D-03-0.798D-02-0.137D-01-0.200D-01 0.370D+00
 Coeff-Com:  0.672D+00
 Coeff:      0.358D-03-0.586D-03-0.798D-02-0.137D-01-0.200D-01 0.370D+00
 Coeff:      0.672D+00
 Gap=     0.336 Goal=   None    Shift=    0.000
 RMSDP=3.81D-06 MaxDP=8.56D-05 DE=-7.38D-07 OVMax= 1.22D-04

 Cycle   8  Pass 1  IDiag  1:
 E= -644.140374689389     Delta-E=       -0.000000228843 Rises=F Damp=F
 DIIS: error= 1.10D-05 at cycle   8 NSaved=   8.
 NSaved= 8 IEnMin= 8 EnMin= -644.140374689389     IErMin= 8 ErrMin= 1.10D-05
 ErrMax= 1.10D-05  0.00D+00 EMaxC= 1.00D-01 BMatC= 2.87D-08 BMatP= 3.41D-07
 IDIUse=1 WtCom= 1.00D+00 WtEn= 0.00D+00
 Coeff-Com:  0.126D-03-0.153D-03-0.331D-02-0.572D-02-0.149D-01 0.111D+00
 Coeff-Com:  0.296D+00 0.617D+00
 Coeff:      0.126D-03-0.153D-03-0.331D-02-0.572D-02-0.149D-01 0.111D+00
 Coeff:      0.296D+00 0.617D+00
 Gap=     0.336 Goal=   None    Shift=    0.000
 RMSDP=8.90D-07 MaxDP=2.09D-05 DE=-2.29D-07 OVMax= 3.33D-05

 Cycle   9  Pass 1  IDiag  1:
 E= -644.140374710852     Delta-E=       -0.000000021463 Rises=F Damp=F
 DIIS: error= 2.20D-06 at cycle   9 NSaved=   9.
 NSaved= 9 IEnMin= 9 EnMin= -644.140374710852     IErMin= 9 ErrMin= 2.20D-06
 ErrMax= 2.20D-06  0.00D+00 EMaxC= 1.00D-01 BMatC= 1.08D-09 BMatP= 2.87D-08
 IDIUse=1 WtCom= 1.00D+00 WtEn= 0.00D+00
 Coeff-Com: -0.292D-04 0.562D-04 0.281D-03 0.603D-03-0.106D-02-0.249D-01
 Coeff-Com: -0.269D-01 0.103D+00 0.948D+00
 Coeff:     -0.292D-04 0.562D-04 0.281D-03 0.603D-03-0.106D-02-0.249D-01
 Coeff:     -0.269D-01 0.103D+00 0.948D+00
 Gap=     0.336 Goal=   None    Shift=    0.000
 RMSDP=3.85D-07 MaxDP=1.00D-05 DE=-2.15D-08 OVMax= 1.27D-05

 Cycle  10  Pass 1  IDiag  1:
 E= -644.140374712147     Delta-E=       -0.000000001295 Rises=F Damp=F
 DIIS: error= 3.28D-07 at cycle  10 NSaved=  10.
 NSaved=10 IEnMin=10 EnMin= -644.140374712147     IErMin=10 ErrMin= 3.28D-07
 ErrMax= 3.28D-07  0.00D+00 EMaxC= 1.00D-01 BMatC= 2.20D-11 BMatP= 1.08D-09
 IDIUse=1 WtCom= 1.00D+00 WtEn= 0.00D+00
 Coeff-Com: -0.218D-05 0.307D-05 0.110D-03 0.180D-03 0.663D-03-0.436D-02
 Coeff-Com: -0.120D-01-0.216D-01-0.921D-02 0.105D+01
 Coeff:     -0.218D-05 0.307D-05 0.110D-03 0.180D-03 0.663D-03-0.436D-02
 Coeff:     -0.120D-01-0.216D-01-0.921D-02 0.105D+01
 Gap=     0.336 Goal=   None    Shift=    0.000
 RMSDP=8.51D-08 MaxDP=1.50D-06 DE=-1.29D-09 OVMax= 2.73D-06

 Cycle  11  Pass 1  IDiag  1:
 E= -644.140374712194     Delta-E=       -0.000000000048 Rises=F Damp=F
 DIIS: error= 1.46D-07 at cycle  11 NSaved=  11.
 NSaved=11 IEnMin=11 EnMin= -644.140374712194     IErMin=11 ErrMin= 1.46D-07
 ErrMax= 1.46D-07  0.00D+00 EMaxC= 1.00D-01 BMatC= 6.29D-12 BMatP= 2.20D-11
 IDIUse=1 WtCom= 1.00D+00 WtEn= 0.00D+00
 Coeff-Com:  0.833D-06-0.189D-05 0.296D-04 0.382D-04 0.293D-03-0.610D-03
 Coeff-Com: -0.323D-02-0.129D-01-0.535D-01 0.410D+00 0.660D+00
 Coeff:      0.833D-06-0.189D-05 0.296D-04 0.382D-04 0.293D-03-0.610D-03
 Coeff:     -0.323D-02-0.129D-01-0.535D-01 0.410D+00 0.660D+00
 Gap=     0.336 Goal=   None    Shift=    0.000
 RMSDP=2.03D-08 MaxDP=4.13D-07 DE=-4.75D-11 OVMax= 7.17D-07

 Cycle  12  Pass 1  IDiag  1:
 E= -644.140374712192     Delta-E=        0.000000000003 Rises=F Damp=F
 DIIS: error= 6.58D-08 at cycle  12 NSaved=  12.
 NSaved=12 IEnMin=11 EnMin= -644.140374712194     IErMin=12 ErrMin= 6.58D-08
 ErrMax= 6.58D-08  0.00D+00 EMaxC= 1.00D-01 BMatC= 1.23D-12 BMatP= 6.29D-12
 IDIUse=1 WtCom= 1.00D+00 WtEn= 0.00D+00
 Coeff-Com:  0.734D-06-0.146D-05-0.233D-05-0.892D-05 0.315D-04 0.374D-03
 Coeff-Com:  0.449D-03-0.239D-02-0.241D-01 0.218D-01 0.319D+00 0.685D+00
 Coeff:      0.734D-06-0.146D-05-0.233D-05-0.892D-05 0.315D-04 0.374D-03
 Coeff:      0.449D-03-0.239D-02-0.241D-01 0.218D-01 0.319D+00 0.685D+00
 Gap=     0.336 Goal=   None    Shift=    0.000
 RMSDP=7.75D-09 MaxDP=1.31D-07 DE= 2.50D-12 OVMax= 2.44D-07

 SCF Done:  E(RM062X) =  -644.140374712     A.U. after   12 cycles
            NFock= 12  Conv=0.77D-08     -V/T= 2.0025
 KE= 6.425349845859D+02 PE=-2.087675251585D+03 EE= 5.209935161651D+02
 Leave Link  502 at Sun Feb 19 13:23:50 2023, MaxMem=  6710886400 cpu:             101.8 elap:               5.5
 (Enter /data0/home/software/g16/l601.exe)
 Copying SCF densities to generalized density rwf, IOpCl= 0 IROHF=0.

 **********************************************************************

            Population analysis using the SCF density.

 **********************************************************************

 Alpha  occ. eigenvalues --  -78.16722 -19.70387 -19.68557 -19.67724 -19.57744
 Alpha  occ. eigenvalues --   -6.97517  -5.09447  -5.09405  -5.09177  -1.24728
 Alpha  occ. eigenvalues --   -1.17530  -1.16660  -1.08325  -0.72690  -0.66851
 Alpha  occ. eigenvalues --   -0.64232  -0.57574  -0.55857  -0.50409  -0.48902
 Alpha  occ. eigenvalues --   -0.47577  -0.45450  -0.43865  -0.37591  -0.37282
 Alpha virt. eigenvalues --   -0.03639   0.00836   0.02741   0.04872   0.07562
 Alpha virt. eigenvalues --    0.09912   0.11544   0.13953   0.14514   0.15807
 Alpha virt. eigenvalues --    0.17472   0.18063   0.19102   0.19695   0.22440
 Alpha virt. eigenvalues --    0.23063   0.24274   0.25159   0.25776   0.26609
 Alpha virt. eigenvalues --    0.27842   0.29560   0.31386   0.31854   0.33000
 Alpha virt. eigenvalues --    0.34752   0.36352   0.36985   0.39826   0.43501
 Alpha virt. eigenvalues --    0.44043   0.49539   0.50137   0.55666   0.58104
 Alpha virt. eigenvalues --    0.73441   0.75863   0.76866   0.86650   0.97100
[...]
 Alpha virt. eigenvalues --    5.14701   5.18477   5.22806   5.34638   5.41459
 Alpha virt. eigenvalues --    5.49537   5.54615   6.71956   6.73702   6.74147
 Alpha virt. eigenvalues --    6.75857   6.77628   6.79414   6.84688   6.87802
 Alpha virt. eigenvalues --    6.87845   6.92988   6.96562   6.99604   7.00515
 Alpha virt. eigenvalues --    7.01857   7.07728   7.22498   7.28305   7.29073
 Alpha virt. eigenvalues --    7.33230   7.40102   7.63637  14.21502  14.25046
 Alpha virt. eigenvalues --   14.35895  49.96609  49.99820  50.01111  50.09896
 Alpha virt. eigenvalues --  163.85303
          Condensed to atoms (all electrons):
               1          2          3          4          5          6
     1  P   12.522816   0.543571   0.185517   0.041567   0.205699  -0.009825
     2  O    0.543571   8.228435  -0.058202   0.008362  -0.048987  -0.011517
     3  O    0.185517  -0.058202   8.113202   0.207441   0.062540  -0.008045
     4  H    0.041567   0.008362   0.207441   0.468782  -0.021033   0.000699
     5  O    0.205699  -0.048987   0.062540  -0.021033   8.135611   0.260972
     6  H   -0.009825  -0.011517  -0.008045   0.000699   0.260972   0.417759
     7  O    0.198463  -0.046092   0.017059  -0.009091   0.003889   0.004209
     8  H    0.051016   0.006996  -0.010147  -0.001182  -0.015754   0.000733
               7          8
     1  P    0.198463   0.051016
     2  O   -0.046092   0.006996
     3  O    0.017059  -0.010147
     4  H   -0.009091  -0.001182
     5  O    0.003889  -0.015754
     6  H    0.004209   0.000733
     7  O    8.101580   0.223187
     8  H    0.223187   0.447719
 Mulliken charges:
               1
     1  P    1.261174
     2  O   -0.622567
     3  O   -0.509366
     4  H    0.304453
     5  O   -0.582938
     6  H    0.345015
     7  O   -0.493204
     8  H    0.297432
     9  O    0.000000
    10  H    0.000000
    11  H    0.000000
 Sum of Mulliken charges =  -0.00000
 Mulliken charges with hydrogens summed into heavy atoms:
               1
     1  P    1.261174
     2  O   -0.622567
     3  O   -0.204913
     5  O   -0.237923
     7  O   -0.195772
     9  O    0.000000
         Mulliken charges condensed to fragments:
      1     -0.000000
      2      0.000000
 Electronic spatial extent (au):  <R**2>=          49738.5938
 Charge=              0.0000 electrons
 Dipole moment (field-independent basis, Debye):
    X=             -0.1881    Y=              4.9456    Z=             -4.2977  Tot=              6.5548
 Quadrupole moment (field-independent basis, Debye-Ang):
   XX=            -37.2700   YY=             37.2143   ZZ=           -133.7747
   XY=             50.4681   XZ=            -43.5244   YZ=             25.6396
 Traceless Quadrupole moment (field-independent basis, Debye-Ang):
   XX=              7.3402   YY=             81.8244   ZZ=            -89.1646
   XY=             50.4681   XZ=            -43.5244   YZ=             25.6396
 Octapole moment (field-independent basis, Debye-Ang**2):
  XXX=          -1059.3723  YYY=             65.6465  ZZZ=          -2892.9109  XYY=            395.8230
  XXY=            288.6607  XXZ=           -819.9383  XZZ=          -1335.8544  YZZ=           -311.6746
  YYZ=            205.6604  XYZ=            282.0801
 Hexadecapole moment (field-independent basis, Debye-Ang**3):
 XXXX=         -20902.4326 YYYY=          -2452.2641 ZZZZ=         -53224.5892 XXXY=          -1507.7611
 XXXZ=         -15812.8757 YYYX=            937.7556 YYYZ=           -804.6793 ZZZX=         -28913.9480
 ZZZY=         -13271.5811 XXYY=           2634.8268 XXZZ=         -17683.8029 YYZZ=          -2001.8045
 XXYZ=            514.8578 YYXZ=           2445.2092 ZZXY=          -2731.4215
 N-N= 2.800063761219D+02 E-N=-2.087675255915D+03  KE= 6.425349845859D+02
 No NMR shielding tensors so no spin-rotation constants.
 Leave Link  601 at Sun Feb 19 13:23:50 2023, MaxMem=  6710886400 cpu:               2.0 elap:               0.1
 (Enter /data0/home/software/g16/l122.exe)
 CPIOFr:  IOpCl= 0 IRwI=-1 IRwCP=  731 ICalc=  3 LCPTot=       62711 Len1MO=      164280 IndFrg=      719831
 Counterpoise: doing calculation for fragment   2 using the basis set of the fragment.
 Leave Link  122 at Sun Feb 19 13:23:50 2023, MaxMem=  6710886400 cpu:               0.1 elap:               0.0
 (Enter /data0/home/software/g16/l301.exe)
 Basis read from rwf:  (5D, 7F)
 No pseudopotential information found on rwf file.
    39 basis functions,    58 primitive gaussians,    41 cartesian basis functions
     5 alpha electrons        5 beta electrons
       nuclear repulsion energy         9.0583095566 Hartrees.
 IExCor= 4336 DFT=T Ex+Corr=M062X ExCW=0 ScaHFX=  0.540000
 ScaDFX=  1.000000  1.000000  1.000000  1.000000 ScalE2=  1.000000  1.000000
 IRadAn=      5 IRanWt=     -1 IRanGd=            0 ICorTp=0 IEmpDi=131
 NAtoms=   11 NActive=    3 NUniq=    3 SFac= 1.00D+00 NAtFMM=   60 NAOKFM=F Big=F
 Integral buffers will be    131072 words long.
 Raffenetti 2 integral format.
 Two-electron integral symmetry is turned off.
 R6Disp:  Grimme-D3 Dispersion energy=       -0.0000000075 Hartrees.
 Nuclear repulsion after empirical dispersion term =        9.0583095491 Hartrees.
 No density basis found on file   718.
 Leave Link  301 at Sun Feb 19 13:23:50 2023, MaxMem=  6710886400 cpu:               1.2 elap:               0.1
 (Enter /data0/home/software/g16/l302.exe)
 NPDir=0 NMtPBC=     1 NCelOv=     1 NCel=       1 NClECP=     1 NCelD=      1
         NCelK=      1 NCelE2=     1 NClLst=     1 CellRange=     0.0.
 One-electron integrals computed using PRISM.
 NBasis=    39 RedAO= T EigKep=  3.03D-03  NBF=    39
 NBsUse=    39 1.00D-06 EigRej= -1.00D+00 NBFU=    39
 Precomputing XC quadrature grid using
 IXCGrd= 4 IRadAn=           5 IRanWt=          -1 IRanGd=           0 AccXCQ= 0.00D+00.
 Generated NRdTot=       0 NPtTot=           0 NUsed=           0 NTot=          32
 NSgBfM=    41    41    41    41    41 MxSgAt=     3 MxSgA2=     3.
 Leave Link  302 at Sun Feb 19 13:23:50 2023, MaxMem=  6710886400 cpu:               2.3 elap:               0.1
 (Enter /data0/home/software/g16/l303.exe)
 DipDrv:  MaxL=1.
 Leave Link  303 at Sun Feb 19 13:23:50 2023, MaxMem=  6710886400 cpu:               0.4 elap:               0.0
 (Enter /data0/home/software/g16/l401.exe)
 ExpMin= 8.45D-02 ExpMax= 8.59D+03 ExpMxC= 1.30D+03 IAcc=3 IRadAn=         5 AccDes= 0.00D+00
 Harris functional with IExCor= 1009 and IRadAn=       5 diagonalized for initial guess.
 HarFok:  IExCor= 1009 AccDes= 0.00D+00 IRadAn=         5 IDoV= 1 UseB2=F ITyADJ=14
 ICtDFT=  3500011 ScaDFX=  1.000000  1.000000  1.000000  1.000000
 FoFCou: FMM=F IPFlag=           0 FMFlag=      100000 FMFlg1=           0
         NFxFlg=           0 DoJE=T BraDBF=F KetDBF=T FulRan=T
         wScrn=  0.000000 ICntrl=       500 IOpCl=  0 I1Cent=   200000004 NGrid=           0
         NMat0=    1 NMatS0=      1 NMatT0=    0 NMatD0=    1 NMtDS0=    0 NMtDT0=    0
 Symmetry not used in FoFCou.
 Harris En= -76.4154869991933    
 JPrj=0 DoOrth=F DoCkMO=F.
 Leave Link  401 at Sun Feb 19 13:23:50 2023, MaxMem=  6710886400 cpu:               2.8 elap:               0.1
 (Enter /data0/home/software/g16/l502.exe)
 Keep R1 ints in memory in canonical form, NReq=21037096.
 FoFCou: FMM=F IPFlag=           0 FMFlag=           0 FMFlg1=           0
         NFxFlg=           0 DoJE=F BraDBF=F KetDBF=F FulRan=T
         wScrn=  0.000000 ICntrl=       600 IOpCl=  0 I1Cent=           0 NGrid=           0
         NMat0=    1 NMatS0=    780 NMatT0=    0 NMatD0=    1 NMtDS0=    0 NMtDT0=    0
 Symmetry not used in FoFCou.
 Two-electron integral symmetry not used.
 Closed shell SCF:
 Using DIIS extrapolation, IDIIS=  1040.
 NGot=  6710886400 LenX=  6710576746 LenY=  6710574624
 Requested convergence on RMS density matrix=1.00D-08 within 128 cycles.
 Requested convergence on MAX density matrix=1.00D-06.
 Requested convergence on             energy=1.00D-06.
 No special actions if energy rises.
 Integral accuracy reduced to 1.0D-05 until final iterations.

 Cycle   1  Pass 0  IDiag  1:
 E= -76.3461993389968    
 DIIS: error= 6.95D-02 at cycle   1 NSaved=   1.
 NSaved= 1 IEnMin= 1 EnMin= -76.3461993389968     IErMin= 1 ErrMin= 6.95D-02
 ErrMax= 6.95D-02  0.00D+00 EMaxC= 1.00D-01 BMatC= 1.20D-01 BMatP= 1.20D-01
 IDIUse=3 WtCom= 3.05D-01 WtEn= 6.95D-01
 Coeff-Com:  0.100D+01
 Coeff-En:   0.100D+01
 Coeff:      0.100D+01
 Gap=     0.324 Goal=   None    Shift=    0.000
 GapD=    0.324 DampG=1.000 DampE=0.500 DampFc=0.5000 IDamp=-1.
 Damping current iteration by 5.00D-01
 RMSDP=7.99D-03 MaxDP=1.00D-01              OVMax= 1.67D-01

 Cycle   2  Pass 0  IDiag  1:
 E= -76.3772219100064     Delta-E=       -0.031022571010 Rises=F Damp=T
 DIIS: error= 1.10D-02 at cycle   2 NSaved=   2.
 NSaved= 2 IEnMin= 2 EnMin= -76.3772219100064     IErMin= 2 ErrMin= 1.10D-02
 ErrMax= 1.10D-02  0.00D+00 EMaxC= 1.00D-01 BMatC= 4.91D-03 BMatP= 1.20D-01
 IDIUse=3 WtCom= 8.90D-01 WtEn= 1.10D-01
 Coeff-Com:  0.852D-01 0.915D+00
 Coeff-En:   0.192D+00 0.808D+00
 Coeff:      0.969D-01 0.903D+00
 Gap=     0.456 Goal=   None    Shift=    0.000
 RMSDP=9.60D-04 MaxDP=1.43D-02 DE=-3.10D-02 OVMax= 1.00D-01

 Cycle   3  Pass 0  IDiag  1:
 E= -76.4210097154371     Delta-E=       -0.043787805431 Rises=F Damp=F
 DIIS: error= 2.18D-03 at cycle   3 NSaved=   3.
 NSaved= 3 IEnMin= 3 EnMin= -76.4210097154371     IErMin= 3 ErrMin= 2.18D-03
 ErrMax= 2.18D-03  0.00D+00 EMaxC= 1.00D-01 BMatC= 9.31D-05 BMatP= 4.91D-03
 IDIUse=3 WtCom= 9.78D-01 WtEn= 2.18D-02
 Coeff-Com: -0.201D-01 0.402D-01 0.980D+00
 Coeff-En:   0.000D+00 0.000D+00 0.100D+01
 Coeff:     -0.197D-01 0.393D-01 0.980D+00
 Gap=     0.460 Goal=   None    Shift=    0.000
 RMSDP=1.16D-04 MaxDP=9.48D-04 DE=-4.38D-02 OVMax= 3.37D-03

 Cycle   4  Pass 0  IDiag  1:
 E= -76.4210892419214     Delta-E=       -0.000079526484 Rises=F Damp=F
 DIIS: error= 4.21D-04 at cycle   4 NSaved=   4.
 NSaved= 4 IEnMin= 4 EnMin= -76.4210892419214     IErMin= 4 ErrMin= 4.21D-04
 ErrMax= 4.21D-04  0.00D+00 EMaxC= 1.00D-01 BMatC= 3.37D-06 BMatP= 9.31D-05
 IDIUse=3 WtCom= 9.96D-01 WtEn= 4.21D-03
 Coeff-Com: -0.197D-02-0.223D-02 0.163D+00 0.841D+00
 Coeff-En:   0.000D+00 0.000D+00 0.000D+00 0.100D+01
 Coeff:     -0.196D-02-0.222D-02 0.162D+00 0.842D+00
 Gap=     0.461 Goal=   None    Shift=    0.000
 RMSDP=2.25D-05 MaxDP=3.58D-04 DE=-7.95D-05 OVMax= 5.48D-04

 Cycle   5  Pass 0  IDiag  1:
 E= -76.4210913370386     Delta-E=       -0.000002095117 Rises=F Damp=F
 DIIS: error= 9.09D-05 at cycle   5 NSaved=   5.
 NSaved= 5 IEnMin= 5 EnMin= -76.4210913370386     IErMin= 5 ErrMin= 9.09D-05
 ErrMax= 9.09D-05  0.00D+00 EMaxC= 1.00D-01 BMatC= 8.59D-08 BMatP= 3.37D-06
 IDIUse=1 WtCom= 1.00D+00 WtEn= 0.00D+00
 Coeff-Com:  0.121D-02-0.184D-02-0.374D-01-0.656D-01 0.110D+01
 Coeff:      0.121D-02-0.184D-02-0.374D-01-0.656D-01 0.110D+01
 Gap=     0.461 Goal=   None    Shift=    0.000
 RMSDP=9.18D-06 MaxDP=1.03D-04 DE=-2.10D-06 OVMax= 2.09D-04

 Initial convergence to 1.0D-05 achieved.  Increase integral accuracy.
 Cycle   6  Pass 1  IDiag  1:
 E= -76.4210824453817     Delta-E=        0.000008891657 Rises=F Damp=F
 DIIS: error= 1.66D-05 at cycle   1 NSaved=   1.
 NSaved= 1 IEnMin= 1 EnMin= -76.4210824453817     IErMin= 1 ErrMin= 1.66D-05
 ErrMax= 1.66D-05  0.00D+00 EMaxC= 1.00D-01 BMatC= 1.38D-08 BMatP= 1.38D-08
 IDIUse=1 WtCom= 1.00D+00 WtEn= 0.00D+00
 Coeff-Com:  0.100D+01
 Coeff:      0.100D+01
 Gap=     0.461 Goal=   None    Shift=    0.000
 RMSDP=9.18D-06 MaxDP=1.03D-04 DE= 8.89D-06 OVMax= 4.59D-05

 Cycle   7  Pass 1  IDiag  1:
 E= -76.4210824574037     Delta-E=       -0.000000012022 Rises=F Damp=F
 DIIS: error= 1.17D-05 at cycle   2 NSaved=   2.
 NSaved= 2 IEnMin= 2 EnMin= -76.4210824574037     IErMin= 2 ErrMin= 1.17D-05
 ErrMax= 1.17D-05  0.00D+00 EMaxC= 1.00D-01 BMatC= 2.05D-09 BMatP= 1.38D-08
 IDIUse=1 WtCom= 1.00D+00 WtEn= 0.00D+00
 Coeff-Com:  0.141D+00 0.859D+00
 Coeff:      0.141D+00 0.859D+00
 Gap=     0.461 Goal=   None    Shift=    0.000
 RMSDP=9.43D-07 MaxDP=1.42D-05 DE=-1.20D-08 OVMax= 2.35D-05

 Cycle   8  Pass 1  IDiag  1:
 E= -76.4210824580150     Delta-E=       -0.000000000611 Rises=F Damp=F
 DIIS: error= 7.45D-06 at cycle   3 NSaved=   3.
 NSaved= 3 IEnMin= 3 EnMin= -76.4210824580150     IErMin= 3 ErrMin= 7.45D-06
 ErrMax= 7.45D-06  0.00D+00 EMaxC= 1.00D-01 BMatC= 1.47D-09 BMatP= 2.05D-09
 IDIUse=1 WtCom= 1.00D+00 WtEn= 0.00D+00
 Coeff-Com: -0.534D-01 0.466D+00 0.587D+00
 Coeff:     -0.534D-01 0.466D+00 0.587D+00
 Gap=     0.461 Goal=   None    Shift=    0.000
 RMSDP=4.58D-07 MaxDP=5.96D-06 DE=-6.11D-10 OVMax= 1.04D-05

 Cycle   9  Pass 1  IDiag  1:
 E= -76.4210824589930     Delta-E=       -0.000000000978 Rises=F Damp=F
 DIIS: error= 5.50D-07 at cycle   4 NSaved=   4.
 NSaved= 4 IEnMin= 4 EnMin= -76.4210824589930     IErMin= 4 ErrMin= 5.50D-07
 ErrMax= 5.50D-07  0.00D+00 EMaxC= 1.00D-01 BMatC= 4.08D-12 BMatP= 1.47D-09
 IDIUse=1 WtCom= 1.00D+00 WtEn= 0.00D+00
 Coeff-Com: -0.168D-02-0.318D-01-0.169D-01 0.105D+01
 Coeff:     -0.168D-02-0.318D-01-0.169D-01 0.105D+01
 Gap=     0.461 Goal=   None    Shift=    0.000
 RMSDP=8.54D-08 MaxDP=6.11D-07 DE=-9.78D-10 OVMax= 1.51D-06

 Cycle  10  Pass 1  IDiag  1:
 E= -76.4210824590008     Delta-E=       -0.000000000008 Rises=F Damp=F
 DIIS: error= 8.20D-08 at cycle   5 NSaved=   5.
 NSaved= 5 IEnMin= 5 EnMin= -76.4210824590008     IErMin= 5 ErrMin= 8.20D-08
 ErrMax= 8.20D-08  0.00D+00 EMaxC= 1.00D-01 BMatC= 2.73D-13 BMatP= 4.08D-12
 IDIUse=1 WtCom= 1.00D+00 WtEn= 0.00D+00
 Coeff-Com:  0.278D-02-0.310D-01-0.350D-01 0.114D+00 0.950D+00
 Coeff:      0.278D-02-0.310D-01-0.350D-01 0.114D+00 0.950D+00
 Gap=     0.461 Goal=   None    Shift=    0.000
 RMSDP=2.53D-08 MaxDP=1.71D-07 DE=-7.76D-12 OVMax= 4.14D-07

 Cycle  11  Pass 1  IDiag  1:
 E= -76.4210824590015     Delta-E=       -0.000000000001 Rises=F Damp=F
 DIIS: error= 1.58D-08 at cycle   6 NSaved=   6.
 NSaved= 6 IEnMin= 6 EnMin= -76.4210824590015     IErMin= 6 ErrMin= 1.58D-08
 ErrMax= 1.58D-08  0.00D+00 EMaxC= 1.00D-01 BMatC= 5.80D-15 BMatP= 2.73D-13
 IDIUse=1 WtCom= 1.00D+00 WtEn= 0.00D+00
 Coeff-Com:  0.215D-03-0.865D-03-0.105D-02-0.267D-01 0.149D-01 0.101D+01
 Coeff:      0.215D-03-0.865D-03-0.105D-02-0.267D-01 0.149D-01 0.101D+01
 Gap=     0.461 Goal=   None    Shift=    0.000
 RMSDP=4.11D-09 MaxDP=3.03D-08 DE=-7.39D-13 OVMax= 8.40D-08

 SCF Done:  E(RM062X) =  -76.4210824590     A.U. after   11 cycles
            NFock= 11  Conv=0.41D-08     -V/T= 2.0032
 KE= 7.618048851201D+01 PE=-1.989586057096D+02 EE= 3.729872518951D+01
 Leave Link  502 at Sun Feb 19 13:23:51 2023, MaxMem=  6710886400 cpu:               8.6 elap:               0.4
 (Enter /data0/home/software/g16/l601.exe)
 Copying SCF densities to generalized density rwf, IOpCl= 0 IROHF=0.

 **********************************************************************

            Population analysis using the SCF density.

 **********************************************************************

 Alpha  occ. eigenvalues --  -19.62744  -1.13230  -0.60249  -0.47718  -0.39977
 Alpha virt. eigenvalues --    0.06111   0.13247   0.17436   0.17945   0.18901
 Alpha virt. eigenvalues --    0.23457   0.50120   0.53661   0.98133   1.00439
 Alpha virt. eigenvalues --    1.05985   1.17313   1.20113   1.31801   1.34198
 Alpha virt. eigenvalues --    1.70362   1.73910   1.75248   2.06372   2.10034
 Alpha virt. eigenvalues --    2.36224   2.38899   2.54877   2.86822   3.01235
 Alpha virt. eigenvalues --    5.05596   5.48193   5.89381   6.78528   6.80008
 Alpha virt. eigenvalues --    6.87372   6.91604   7.09737  49.95236
          Condensed to atoms (all electrons):
               9         10         11
     9  O    7.921808   0.312807   0.318640
    10  H    0.312807   0.431407  -0.023417
    11  H    0.318640  -0.023417   0.430723
 Mulliken charges:
               1
     1  P    0.000000
     2  O    0.000000
     3  O    0.000000
     4  H    0.000000
     5  O    0.000000
     6  H    0.000000
     7  O    0.000000
     8  H    0.000000
     9  O   -0.553256
    10  H    0.279202
    11  H    0.274053
 Sum of Mulliken charges =  -0.00000
 Mulliken charges with hydrogens summed into heavy atoms:
               1
     1  P    0.000000
     2  O    0.000000
     3  O    0.000000
     5  O    0.000000
     7  O    0.000000
     9  O   -0.000000
         Mulliken charges condensed to fragments:
      1      0.000000
      2     -0.000000
 Electronic spatial extent (au):  <R**2>=          10146.5527
 Charge=             -0.0000 electrons
 Dipole moment (field-independent basis, Debye):
    X=              1.8012    Y=              0.5348    Z=             -1.0334  Tot=              2.1444
 Quadrupole moment (field-independent basis, Debye-Ang):
   XX=             25.7152   YY=              4.4199   ZZ=            -25.9625
   XY=             24.1806   XZ=              8.8117   YZ=             -4.0672
 Traceless Quadrupole moment (field-independent basis, Debye-Ang):
   XX=             24.3243   YY=              3.0291   ZZ=            -27.3534
   XY=             24.1806   XZ=              8.8117   YZ=             -4.0672
 Octapole moment (field-independent basis, Debye-Ang**2):
  XXX=            259.4125  YYY=            -33.0492  ZZZ=           -468.9658  XYY=            248.8292
  XXY=            323.2152  XXZ=            175.8452  XZZ=            -50.5161  YZZ=           -189.7127
  YYZ=            -39.7128  XYZ=            158.2618
 Hexadecapole moment (field-independent basis, Debye-Ang**3):
 XXXX=           2085.5992 YYYY=          -1844.7345 ZZZZ=          -7321.2473 XXXY=           3269.8080
 XXXZ=           1881.2544 YYYX=           1966.5349 YYYZ=          -1055.9354 ZZZX=          -2359.1316
 ZZZY=          -3937.1950 XXYY=           3414.5907 XXZZ=            532.3191 YYZZ=          -1807.6029
 XXYZ=           2497.2960 YYXZ=           1747.1598 ZZXY=            263.6398
 N-N= 9.058309549095D+00 E-N=-1.989586058399D+02  KE= 7.618048851201D+01
 No NMR shielding tensors so no spin-rotation constants.
 Leave Link  601 at Sun Feb 19 13:23:51 2023, MaxMem=  6710886400 cpu:               1.8 elap:               0.1
 (Enter /data0/home/software/g16/l122.exe)
 CPIOFr:  IOpCl= 0 IRwI=-1 IRwCP=  731 ICalc=  4 LCPTot=       62711 Len1MO=      164280 IndFrg=      884111
 Restoring MOs from calculation   1 to rwf.
 CPIOFr:  IOpCl= 0 IRwI=-2 IRwCP=  731 ICalc=  0 LCPTot=       62711 Len1MO=      164280 IndFrg=      226991
 Counterpoise corrected energy =    -720.574091106574
                   BSSE energy =       0.001380802476
              sum of fragments =    -720.561457171193
           complexation energy =      -8.79 kcal/mole (raw)
           complexation energy =      -7.93 kcal/mole (corrected)
 Leave Link  122 at Sun Feb 19 13:23:51 2023, MaxMem=  6710886400 cpu:               0.1 elap:               0.0
 (Enter /data0/home/software/g16/l9999.exe)
 1\1\GINC-LOCALHOST\SP\RM062X\6-311+G(2d,p)\H5O5P1\WUHANYU\19-Feb-2023\
 0\\#p M062X/6-311+G(2d,p) nosymm em=GD3 counterpoise=2\\Title Card Req
 uired\\0,1\P,0,10.095917,7.006538,11.296277\O,0,10.614643,6.208537,12.
 407217\O,0,9.184088,8.176025,11.864852\H,0,9.002549,8.905827,11.143513
 \O,0,11.102335,7.633407,10.254473\H,0,11.702962,8.390108,10.73155\O,0,
 9.163202,6.107958,10.359215\H,0,9.128078,6.527746,9.425385\O,0,8.82682
 5,10.265605,9.971905\H,0,9.568321,10.852727,10.264758\H,0,9.109442,9.9
 88498,9.103083\\Version=ES64L-G16RevA.03\HF=-76.4210825\RMSD=4.113e-09
 \Dipole=0.4929989,2.4981655,-2.2732349\Quadrupole=18.571967,74.9610658
 ,-93.5330328,59.3073883,-31.7427872,19.7958089\PG=C01 [X(H5O5P1)]\\@


 "MATHEMATICS IS THE ART OF GIVING THE SAME NAME
 TO DIFFERENT THINGS."
                    - H. POINCARE
 Job cpu time:       0 days  0 hours 10 minutes 26.9 seconds.
 Elapsed time:       0 days  0 hours  0 minutes 37.6 seconds.
 File lengths (MBytes):  RWF=     27 Int=      0 D2E=      0 Chk=     10 Scr=      1
 Normal termination of Gaussian 16 at Sun Feb 19 13:23:51 2023.
