          36
 G =       -0.457922 Gcorr = 0.220837 a.u. Nimag =   0 Frame:     1 Step:     1 Geom:     1
C          11.88171500     10.49105000      8.66533000
H          11.92689600      9.71336300      7.88115600
H          12.76365100     11.13801600      8.58567400
H          11.95630000      9.93556200      9.63270300
C          10.71698000     12.29886800      7.50358400
H          10.91275300     11.81271600      6.53203500
H           9.78360900     12.88212300      7.40223900
H          11.53411500     13.01045200      7.70374200
C           9.45859300     10.35547900      8.28325200
H           8.52793600     10.90223600      8.04629800
H           9.69864200      9.66318800      7.46209500
H           9.19760300      9.72422000      9.16630700
C          10.40220000     11.96190300      9.94195600
H          11.29030100     12.59248300     10.14996700
H          10.39858100     11.15586100     10.73232900
C           9.11345400     12.78989800     10.04711300
H           8.48491400     12.70713000      9.13545900
H           9.35415100     13.86457900     10.14783900
C           8.27451800     12.32940000     11.24095300
H           7.35204000     12.92983800     11.33398100
H           8.81618300     12.43399400     12.19589800
N          10.59949900     11.27658900      8.59750100
C           7.88084900     10.86145000     11.01003200
O           7.13370900     10.61289800     10.05000800
O           8.39413700     10.00447000     11.75753300
P          10.58649400      7.24354900     10.38701300
O          10.79304000      6.10435600     11.26414100
O          10.70842600      8.69047600     11.05091900
H           9.77747500      9.02826000     11.39861900
O          11.73891600      7.46770300      9.27171400
H          12.29713400      6.61174100      9.24878100
O           9.32983600      7.28668500      9.43621500
H           8.42289500      7.45542800     10.00696000
O           7.07497100      7.95123700     10.65742400
H           7.33850100      8.23446200     11.55493100
H           6.91899900      8.83835900     10.23831000
          36
 G =       -0.458133 Gcorr = 0.220294 a.u. Nimag =   0 Frame:     2 Step:     2 Geom:     2
C          12.02550000     10.52441900      8.85107600
H          12.11039800      9.66604600      8.15838600
H          12.88309800     11.19244300      8.70519000
H          12.11289700     10.08432400      9.87225700
C          10.84479600     12.23328300      7.56062700
H          11.14141900     11.72673700      6.62584300
H           9.88471600     12.74684000      7.36886100
H          11.59622100     13.00591300      7.78912400
C           9.63614100     10.26197200      8.34238600
H           8.66901600     10.75477600      8.11863000
H           9.92085700      9.60896000      7.50579100
H           9.40794000      9.59470400      9.20909700
C          10.40868000     11.96671000      9.98959000
H          11.26544100     12.62658800     10.23547000
H          10.36991200     11.18589600     10.80338400
C           9.09656000     12.76438600      9.98195700
H           8.54027000     12.64886700      9.02778500
H           9.30430100     13.84634900     10.07783700
C           8.18211200     12.30554100     11.11919800
H           7.23764800     12.87841800     11.12648800
H           8.64475600     12.45027300     12.11000500
N          10.71360400     11.24549000      8.68450500
C           7.84803700     10.82142500     10.89913700
O           7.24171600     10.52124700      9.85657200
O           8.26440600     10.00474200     11.74355900
P          10.75743600      7.36996400     10.79230700
O          10.85123700      6.22217300     11.67776100
O          10.73945700      8.81062900     11.47493000
H           9.75195500      9.12328500     11.65408200
O          12.05561900      7.62239800      9.85819700
H          12.65012900      6.79588300      9.95064100
O           9.65631600      7.40383000      9.66135500
H           8.66320800      7.47676000     10.09217500
O           7.20197200      7.87353900     10.52134200
H           7.31607000      8.17616900     11.44368200
H           7.06617700      8.74903400     10.07078500
          36
 G =       -0.457927 Gcorr = 0.220832 a.u. Nimag =   0 Frame:     3 Step:     3 Geom:     3
C          11.96018100     10.51153200      8.76387100
H          12.05174300      9.71067800      8.00755400
H          12.82773500     11.17860900      8.69247200
H          12.01550700      9.98945200      9.75092600
C          10.79031300     12.24950400      7.50478500
H          11.03128900     11.73754300      6.55695000
H           9.84649200     12.80439400      7.35319600
H          11.58188800     12.98860400      7.70811000
C           9.55566400     10.29999900      8.30646400
H           8.61984800     10.81418000      8.02151100
H           9.84052000      9.58893000      7.51632700
H           9.28130200      9.69051100      9.20065300
C          10.40168800     11.98352000      9.94117100
H          11.26609400     12.64355100     10.15750100
H          10.39157500     11.20367000     10.75739100
C           9.08968200     12.78032400      9.97601500
H           8.49444800     12.65099500      9.04757400
H           9.29969700     13.86371700     10.04816400
C           8.22312400     12.33747700     11.15663600
H           7.28294000     12.91586200     11.19894700
H           8.72944400     12.48808900     12.12475300
N          10.66163000     11.26052400      8.62753900
C           7.87490500     10.85278800     10.96317200
O           7.16805300     10.55267900      9.98745600
O           8.38306000     10.03517300     11.75682500
P          10.68674300      7.28857200     10.54899600
O          10.89482400      6.18443600     11.46959700
O          10.74977300      8.75898400     11.16777000
H           9.79942400      9.08376800     11.47344400
O          11.86821000      7.50730000      9.46323200
H          12.45024700      6.66742000      9.48787600
O           9.46072900      7.26638500      9.55831500
H           8.53192200      7.43130100     10.09383400
O           7.15205500      7.91358000     10.68401400
H           7.37973300      8.23502700     11.57844900
H           6.98753400      8.78093700     10.22852200
          36
 G =       -0.457916 Gcorr = 0.220841 a.u. Nimag =   0 Frame:     4 Step:     4 Geom:     4
C          12.01025300     10.46959100      8.92183500
H          12.12503000      9.66709000      8.17042500
H          12.88924700     11.12464700      8.88988900
H          12.01367500      9.94733100      9.91034700
C          10.92240200     12.22215100      7.61052100
H          11.19861700     11.70586500      6.67471800
H           9.99414600     12.78988600      7.41636900
H          11.71421300     12.95042500      7.84891700
C           9.62608900     10.29060200      8.35681000
H           8.71128400     10.81719800      8.02955800
H           9.93655500      9.57430200      7.58114000
H           9.30322200      9.68619700      9.23816800
C          10.42080500     11.96409800     10.02713400
H          11.28341700     12.61281200     10.28160200
H          10.36382600     11.18536200     10.84248000
C           9.11936800     12.77844400     10.00275000
H           8.56519400     12.65699900      9.04820700
H           9.34046700     13.85894700     10.08474400
C           8.19407000     12.34768100     11.14261500
H           7.26080100     12.93864700     11.14226200
H           8.65785500     12.49186600     12.13280700
N          10.72965200     11.23621300      8.72683100
C           7.83525500     10.86766400     10.93312100
O           7.16696700     10.57695100      9.92792400
O           8.29874000     10.04331900     11.74697300
P          10.61641800      7.26418400     10.64605000
O          10.76582100      6.15605000     11.57310100
O          10.67174000      8.73254100     11.27005400
H           9.71229600      9.07240900     11.52748000
O          11.84921200      7.46701500      9.61573600
H          12.41850400      6.61958500      9.66687600
O           9.43693900      7.26106700      9.59985200
H           8.48739600      7.43587900     10.09295300
O           7.08721200      7.93688100     10.62170200
H           7.27782200      8.25282400     11.52645600
H           6.95550500      8.80729900     10.16160600
          36
 G =       -0.457909 Gcorr = 0.221123 a.u. Nimag =   0 Frame:     5 Step:     5 Geom:     5
C          12.02866900     10.54477900      8.84821300
H          12.15395400      9.70838800      8.13567000
H          12.88047300     11.22972100      8.75487500
H          12.08326600     10.07735500      9.85960100
C          10.85991400     12.22922600      7.51920100
H          11.15990200     11.71266300      6.59089400
H           9.90578600     12.74951400      7.31673700
H          11.61576600     12.99809600      7.74654200
C           9.64921900     10.25549300      8.29910200
H           8.71999700     10.73868700      7.94603600
H           9.99253900      9.52623800      7.54995500
H           9.33776600      9.66944900      9.19655600
C          10.37622700     11.98207800      9.94203300
H          11.21896800     12.65605700     10.19732900
H          10.33252900     11.20865600     10.76336400
C           9.05369200     12.76112000      9.89943800
H           8.50602600     12.60754200      8.94550200
H           9.24562400     13.84835700      9.96296500
C           8.13556800     12.32558000     11.04296900
H           7.19108600     12.89852000     11.03483600
H           8.59462500     12.49012000     12.03224700
N          10.71399300     11.25176500      8.65011900
C           7.80344900     10.83703100     10.85061700
O           7.17007000     10.51811800      9.83136600
O           8.25078800     10.03461000     11.69454200
P          10.70237900      7.33780400     10.70239100
O          10.88493600      6.22057500     11.61268500
O          10.67705700      8.79239400     11.35429700
H           9.69424600      9.10627400     11.55060300
O          11.94732400      7.60981200      9.70172200
H          12.55070200      6.78700100      9.74989400
O           9.55086500      7.28966100      9.62576600
H           8.58161300      7.42877000     10.08971900
O           7.14542800      7.88199300     10.56331400
H           7.29384600      8.21427200     11.47041400
H           7.00172700      8.74229300     10.08850000
          36
 G =       -0.457930 Gcorr = 0.221101 a.u. Nimag =   0 Frame:     6 Step:     6 Geom:     6
C          12.15928900     10.48628400      8.97853500
H          12.32458200      9.65184000      8.27189800
H          13.02521300     11.15924800      8.95202900
H          12.13300300     10.01287500      9.98827400
C          11.11518800     12.19489700      7.57853900
H          11.47680900     11.67947900      6.67183300
H          10.18557400     12.72895000      7.30895800
H          11.86179100     12.95239300      7.86653400
C           9.82289000     10.23452300      8.25427400
H           8.92836600     10.73312300      7.83849500
H          10.20977800      9.50545400      7.52654000
H           9.43891800      9.64711300      9.12227900
C          10.45116300     11.94121400      9.95757700
H          11.28223200     12.60135900     10.27872200
H          10.33629000     11.16381100     10.76821100
C           9.14648500     12.73965200      9.82292900
H           8.66765500     12.59817400      8.83085500
H           9.34860000     13.82367000      9.90613900
C           8.14137200     12.31226800     10.89414700
H           7.20799900     12.89847200     10.82025800
H           8.52927000     12.46606300     11.91511400
N          10.87281000     11.21332700      8.68913000
C           7.80372900     10.82938300     10.67011000
O           7.24384200     10.52371200      9.60476100
O           8.17541100     10.01734500     11.54103400
P          10.65473300      7.28929900     10.71150200
O          10.75594000      6.16566200     11.62655800
O          10.60153000      8.74130100     11.36745500
H           9.61137300      9.06736500     11.49475400
O          11.97232700      7.54867200      9.80498800
H          12.56075800      6.71847700      9.89414800
O           9.58366100      7.26122100      9.55411800
H           8.58575600      7.41353900      9.94713900
O           7.12510600      7.88650200     10.31824100
H           7.21198700      8.21262700     11.23533600
H           7.02858900      8.75072300      9.83860100
          36
 G =       -0.458196 Gcorr = 0.220500 a.u. Nimag =   0 Frame:     7 Step:     7 Geom:     7
C          12.15464100     10.60073900      9.12180700
H          12.35127200      9.76000100      8.43057400
H          13.00230100     11.29635000      9.09609900
H          12.12788900     10.14088900     10.13774900
C          11.08568700     12.28109000      7.70350900
H          11.50060800     11.78502400      6.80899600
H          10.14114000     12.77072400      7.40294400
H          11.78601200     13.07204100      8.01645100
C           9.84852200     10.27519000      8.34245500
H           8.90339300     10.74237800      8.00021500
H          10.24798700      9.62723000      7.54980900
H           9.53481000      9.60986000      9.18089400
C          10.37774500     11.99635200     10.06580500
H          11.18063400     12.68025600     10.40846200
H          10.26759300     11.21297200     10.87062800
C           9.05236900     12.75519500      9.90486000
H           8.61370600     12.62457700      8.89310500
H           9.21616900     13.84271200     10.02153900
C           8.02579700     12.26943600     10.92975500
H           7.07093300     12.81514000     10.82609400
H           8.36633800     12.42736900     11.96709000
N          10.85220900     11.28744000      8.80522400
C           7.76113600     10.77639100     10.67828300
O           7.29387900     10.45596000      9.57273600
O           8.09493300      9.97398500     11.57269200
P          10.75062100      7.36761300     10.89649100
O          10.85644100      6.28049800     11.85419000
O          10.59058600      8.83615000     11.49567100
H           9.57924100      9.10279100     11.59361200
O          12.09984900      7.66563100     10.05116900
H          12.72866300      6.87618300     10.21096000
O           9.74619200      7.24544200      9.68646900
H           8.72497700      7.37671800     10.01746300
O           7.22266700      7.80748600     10.28720500
H           7.23536200      8.13520500     11.20777100
H           7.12770800      8.66699400      9.80124700
          36
 G =       -0.457932 Gcorr = 0.221100 a.u. Nimag =   0 Frame:     8 Step:     8 Geom:     8
C          12.09886800     10.50186000      9.06434200
H          12.29186400      9.65442500      8.38056000
H          12.95587200     11.18633200      9.04253200
H          12.05583500     10.05052900     10.08359700
C          11.06388200     12.16390900      7.60289000
H          11.45457800     11.63382000      6.71696300
H          10.13318500     12.67751900      7.29946300
H          11.79217500     12.93896800      7.89103900
C           9.78332400     10.20100300      8.29331000
H           8.89228900     10.67746800      7.84543400
H          10.19685800      9.46080200      7.59185200
H           9.38710000      9.62815200      9.16553400
C          10.34907800     11.95381800      9.97147100
H          11.16346800     12.63266200     10.29631300
H          10.22619200     11.19302200     10.79654400
C           9.03704300     12.73050400      9.78944900
H           8.58306000     12.56038100      8.79020800
H           9.22229100     13.81884200      9.85287200
C           8.01367300     12.31257200     10.84701300
H           7.07462200     12.88434100     10.73962500
H           8.37633900     12.49351600     11.87278400
N          10.80957800     11.20393800      8.72957200
C           7.70053700     10.82083100     10.64777500
O           7.16953900     10.48465100      9.57690400
O           8.06233700     10.03279200     11.54462000
P          10.59750800      7.32351700     10.83428100
O          10.69324700      6.22185400     11.77623600
O          10.50934800      8.78885500     11.45585600
H           9.51217600      9.10365900     11.55337500
O          11.93184100      7.58158000      9.95222300
H          12.52935800      6.76197700     10.07312500
O           9.55384500      7.25427600      9.65380200
H           8.54517300      7.40155600     10.02019800
O           7.06983700      7.86193200     10.34649600
H           7.13132200      8.21104200     11.25736000
H           6.97277800      8.71311300      9.84439400
          36
 G =       -0.457926 Gcorr = 0.221106 a.u. Nimag =   0 Frame:     9 Step:     9 Geom:     9
C          12.05271400     10.47645600      8.90325500
H          12.21288100      9.60606800      8.24015200
H          12.89842100     11.16791200      8.80278300
H          12.07861900     10.06298600      9.93898300
C          10.90915700     12.07328100      7.45000800
H          11.25010400     11.51467000      6.56105100
H           9.95546600     12.56662300      7.18708000
H          11.64487600     12.86527000      7.66371600
C           9.69759800     10.12472900      8.28963600
H           8.77451300     10.57565200      7.88195200
H          10.07556800      9.36369000      7.59050100
H           9.36352500      9.58026000      9.20498900
C          10.34514500     11.94386600      9.86453600
H          11.16992700     12.64208900     10.11308800
H          10.28289700     11.21302100     10.72284000
C           9.01507600     12.70036600      9.73673100
H           8.50222400     12.48922300      8.77447000
H           9.19080000     13.79209300      9.74921900
C           8.06413900     12.31170400     10.87031900
H           7.11295900     12.86907100     10.80028600
H           8.48690200     12.53484300     11.86430000
N          10.73674600     11.15311600      8.62439500
C           7.75856800     10.81025900     10.74600500
O           7.16552500     10.42878200      9.72400000
O           8.18647800     10.06024000     11.64631600
P          10.70350900      7.35085500     10.87740700
O          10.87026500      6.28560500     11.85085800
O          10.63726600      8.83709700     11.44993200
H           9.64433400      9.14588700     11.59837300
O          11.97736200      7.58855800      9.90479900
H          12.58959400      6.77847500     10.01613800
O           9.58916600      7.22862500      9.76792100
H           8.60366700      7.37843900     10.19198900
O           7.14603700      7.83551000     10.59498700
H           7.26046400      8.21777700     11.48704200
H           7.00752800      8.66691200     10.06995700
          36
 G =       -0.457922 Gcorr = 0.221110 a.u. Nimag =   0 Frame:    10 Step:    10 Geom:    10
C          12.16340600     10.44765400      8.99380300
H          12.34400800      9.63377800      8.26719200
H          13.02911400     11.12132100      9.00444800
H          12.11666400      9.94558400      9.98889300
C          11.14690600     12.19461600      7.62117600
H          11.52792900     11.70483000      6.70823000
H          10.22248700     12.73541600      7.34724300
H          11.88647100     12.94421000      7.94566900
C           9.84231200     10.21611400      8.21546800
H           8.95657900     10.72604400      7.79473000
H          10.24454000      9.50679300      7.47654700
H           9.44034800      9.60526700      9.05884300
C          10.43489100     11.87444900      9.97823300
H          11.25891600     12.52530500     10.33451500
H          10.30399900     11.07465300     10.76427700
C           9.13280500     12.67642800      9.83953300
H           8.67489100     12.56372800      8.83400300
H           9.33261500     13.75760200      9.95819300
C           8.10576000     12.21846700     10.87675400
H           7.17372100     12.80648500     10.80015800
H           8.47204900     12.34294500     11.90960400
N          10.88259900     11.18234400      8.69872300
C           7.77397300     10.74259100     10.60316400
O           7.23464700     10.46765500      9.51911600
O           8.13038700      9.90581100     11.45699000
P          10.62667000      7.20211400     10.60206900
O          10.71061600      6.05180900     11.48515500
O          10.55989100      8.63392500     11.29965200
H           9.56720500      8.95726500     11.41433600
O          11.96179600      7.48820400      9.72974100
H          12.54470800      6.65223200      9.79846200
O           9.57848600      7.20827700      9.42353000
H           8.57269200      7.34783500      9.80099600
O           7.10481400      7.81014700     10.15697700
H           7.17424800      8.11116300     11.08417600
H           7.01687500      8.68696000      9.69942300
          36
 G =       -0.457932 Gcorr = 0.221100 a.u. Nimag =   0 Frame:    11 Step:    11 Geom:    11
C          12.02683800     10.61805600      8.80843600
H          12.18458200      9.76281800      8.12537000
H          12.84726300     11.33572100      8.68459200
H          12.10758800     10.19025300      9.83550700
C          10.77784600     12.20070300      7.42827900
H          11.09701000     11.66476900      6.51753400
H           9.80015900     12.66947400      7.21274100
H          11.49884200     13.01082600      7.62323600
C           9.65913300     10.20580100      8.28776000
H           8.70756900     10.63494800      7.92459400
H          10.02959300      9.46532400      7.56293700
H           9.37878000      9.63965300      9.20799200
C          10.31951600     12.02087400      9.86193500
H          11.13357700     12.73946400     10.08671500
H          10.31433000     11.27649200     10.71080000
C           8.96410600     12.73984700      9.80087000
H           8.41787400     12.52758600      8.85740000
H           9.10877300     13.83596600      9.82304300
C           8.07272100     12.30730300     10.96652000
H           7.10404500     12.83787900     10.94464200
H           8.53010100     12.52802400     11.94556700
N          10.68137000     11.25951300      8.59470400
C           7.80495900     10.79965200     10.83110600
O           7.18010400     10.41618100      9.82899900
O           8.29198000     10.04913300     11.70040900
P          10.85120900      7.42594000     10.78709200
O          11.08947000      6.35101000     11.73469100
O          10.76687200      8.90041100     11.38692000
H           9.77232200      9.17895900     11.57862900
O          12.07546300      7.71556000      9.76602200
H          12.71454000      6.92201300      9.83784800
O           9.69493900      7.28836100      9.72326100
H           8.72420200      7.40244400     10.19020800
O           7.27188000      7.81067000     10.65894300
H           7.41265800      8.18313700     11.55142700
H           7.08780200      8.64525100     10.15328400
          36
 G =       -0.460934 Gcorr = 0.221539 a.u. Nimag =   0 Frame:    12 Step:    12 Geom:    12
C          11.83675900     10.10703300      8.15818400
H          12.00364400      9.79350700      7.11748600
H          12.76351200     10.54495700      8.55668400
H          11.63920800      9.17974800      8.74957900
C          10.97121500     12.27488000      7.43851300
H          11.19063000     12.00136800      6.39293600
H          10.10705600     12.96460800      7.42541000
H          11.83596200     12.82930600      7.83882500
C           9.44707500     10.37960800      7.74855800
H           8.53481500     11.00115500      7.90554200
H           9.53775900     10.12352100      6.68693600
H           9.23417300      9.44705900      8.32316600
C          10.50905100     11.44310900      9.73221000
H          11.49639600     11.72792700     10.14795300
H          10.20257700     10.50929900     10.27893500
C           9.46812300     12.54316700      9.98499400
H           8.80798100     12.69746700      9.10532900
H           9.95999600     13.51256700     10.17798200
C           8.58181600     12.15024800     11.17037000
H           7.78354700     12.89315600     11.33871900
H           9.15454000     12.08615000     12.11165500
N          10.67797100     11.06006100      8.26927200
C           7.92261600     10.79371600     10.86945600
O           7.51932000     10.61738900      9.69768400
O           7.89043900      9.94142200     11.76566300
P          10.66918500      7.50017800     11.28649100
O          11.41140600      6.26821200     11.49550400
O           9.58584500      7.78094800     12.39818800
H           9.02500700      8.64049700     12.17644900
O          11.59891700      8.83173900     11.26685800
H          12.31174200      8.73239000     11.97946200
O          10.03407400      7.69981700      9.84943600
H           8.95659900      7.73807500      9.90514100
O           7.39072200      7.97898500      9.81643300
H           7.11543800      7.96568200     10.74673400
H           7.31490800      8.96107200      9.61727800
          36
 G =       -0.463259 Gcorr = 0.219683 a.u. Nimag =   0 Frame:    13 Step:    13 Geom:    13
C          11.74738200     10.01057700      8.01723800
H          11.90358600      9.71443400      6.97021900
H          12.67871500     10.43943100      8.41555100
H          11.55397500      9.07510500      8.59645900
C          10.84158800     12.15590100      7.27901800
H          11.00457200     11.85538600      6.23066400
H           9.97880600     12.84720500      7.29430700
H          11.72711800     12.71779900      7.61875200
C           9.34269500     10.26355500      7.70895300
H           8.43551000     10.88783900      7.88263600
H           9.39073600      9.97327500      6.65336200
H           9.15880600      9.34936800      8.32208200
C          10.48707000     11.38922900      9.61247800
H          11.49020200     11.69181500      9.97316200
H          10.21701700     10.46820300     10.20440800
C           9.44945500     12.48715400      9.88371400
H           8.75087000     12.61617600      9.03014000
H           9.94195200     13.46434000     10.03123700
C           8.61880000     12.11926200     11.11659400
H           7.83718200     12.87310000     11.31326600
H           9.23694100     12.06354500     12.02938600
N          10.59132900     10.96380600      8.15579900
C           7.93044500     10.76641000     10.87362800
O           7.49951300     10.55789600      9.71732000
O           7.89380800      9.94650700     11.80052000
P          10.72585400      7.62899900     11.29658400
O          11.64442300      6.53684200     11.56857800
O           9.64981300      7.86071000     12.42495200
H           9.03757900      8.68835500     12.19955900
O          11.45735100      9.07326700     11.12405500
H          12.13245300      9.18840400     11.86614600
O          10.03411300      7.59806000      9.87364300
H           8.96342300      7.68015500      9.95949500
O           7.38798300      7.92562900      9.90392300
H           7.12783200      7.93009000     10.83795800
H           7.30112200      8.90218200      9.68423100
          36
 G =       -0.460785 Gcorr = 0.221688 a.u. Nimag =   0 Frame:    14 Step:    14 Geom:    14
C          11.57373300     10.08018200      7.99127500
H          11.61789700      9.76811200      6.93781500
H          12.54649900     10.50114000      8.28451800
H          11.42806700      9.15403000      8.59923600
C          10.67000100     12.26503100      7.37787900
H          10.76929000     11.99207100      6.31401700
H           9.82037500     12.96781000      7.46093900
H          11.58184600     12.80488500      7.68210400
C           9.15816500     10.39395100      7.85206500
H           8.27989000     11.03034600      8.11069600
H           9.12556900     10.14012700      6.78654700
H           8.99468900      9.46331400      8.44555700
C          10.45271800     11.43125800      9.70695700
H          11.48521100     11.69615200     10.01125700
H          10.19173400     10.50065800     10.28203800
C           9.46665600     12.54866600     10.07650100
H           8.71587700     12.71872200      9.27600800
H           9.99456800     13.50821400     10.21607900
C           8.71036100     12.16623300     11.35197500
H           7.94922300     12.92234300     11.60975500
H           9.38274200     12.08785700     12.22369900
N          10.45091900     11.05177700      8.23339100
C           7.99758300     10.82287300     11.12259500
O           7.46225900     10.65915000     10.00318800
O           8.05146100      9.96659400     12.01418700
P          10.72330500      7.48637100     11.22907900
O          11.46298700      6.24134100     11.35182500
O           9.77926900      7.78403700     12.45722300
H           9.20933500      8.65161800     12.29896800
O          11.66803900      8.80176800     11.10387900
H          12.45772100      8.68648500     11.72748200
O           9.93204100      7.70055800      9.87391200
H           8.86863700      7.75507700     10.05190400
O           7.30661900      8.02102700     10.14148400
H           7.14053700      8.01750000     11.09785900
H           7.22418900      9.00273900      9.94611800
          36
 G =       -0.460774 Gcorr = 0.221698 a.u. Nimag =   0 Frame:    15 Step:    15 Geom:    15
C          11.64447400      9.96444000      8.00435600
H          11.72587600      9.58905600      6.97403200
H          12.59995200     10.42273100      8.29859400
H          11.49849200      9.07466900      8.66433800
C          10.71377100     12.08382400      7.22444900
H          10.84287800     11.74335700      6.18347400
H           9.84983200     12.77373000      7.24173900
H          11.60833600     12.66028000      7.51236100
C           9.22760200     10.21608800      7.78527900
H           8.33044900     10.84905000      7.97900900
H           9.22796400      9.89126200      6.73869000
H           9.06745200      9.32343200      8.43542100