Title Card Required                                                     
Freq      RB3LYP                                                      6-311G(d,p)         
Number of atoms                            I               15
Info1-9                                    I   N=           9
          24          24        1002           0           0         100
           6          18        -502
Full Title                                 C   N=           2
Title Card Required     
Route                                      C   N=           3
#p opt freq B3LYP/6-311G** em=GD3BJ 
Charge                                     I                0
Multiplicity                               I                1
Number of electrons                        I               62
Number of alpha electrons                  I               31
Number of beta electrons                   I               31
Number of basis functions                  I              198
Number of independent functions            I              198
Number of point charges in /Mol/           I                0
Number of translation vectors              I                0
Atomic numbers                             I   N=          15
           6           6           6           6           6           6
           1           1           1           1           1           6
           1           7           7
Nuclear charges                            R   N=          15
  6.00000000E+00  6.00000000E+00  6.00000000E+00  6.00000000E+00  6.00000000E+00
  6.00000000E+00  1.00000000E+00  1.00000000E+00  1.00000000E+00  1.00000000E+00
  1.00000000E+00  6.00000000E+00  1.00000000E+00  7.00000000E+00  7.00000000E+00
Current cartesian coordinates              R   N=          45
 -4.85603383E-01  1.30461792E+00  9.71207469E-05 -5.03017237E-01 -1.36921542E+00
 -4.26439495E-05  1.78198536E+00 -2.69452881E+00 -1.26016534E-04  4.01034756E+00
 -1.31303654E+00 -1.01802580E-04  3.99194151E+00  1.34715041E+00  8.35789262E-06
  1.74570792E+00  2.70525718E+00  1.36444936E-04  1.77826961E+00 -4.74065736E+00
 -9.13956136E-05  5.80830784E+00 -2.29279715E+00 -1.15412763E-04  5.77267541E+00
  2.35818099E+00 -3.46135379E-06  1.74094489E+00  4.75307001E+00  1.57081297E-04
 -3.72209579E+00  3.74010572E+00 -3.40308170E-04 -4.38253674E+00 -2.40677098E-01
 -2.45659345E-04 -6.42398793E+00 -2.26558500E-01 -3.54184045E-04 -3.01376105E+00
  1.97504862E+00 -4.75477872E-05 -2.97296238E+00 -2.26486999E+00  3.89386880E-04
Number of symbols in /Mol/                 I                0
Force Field                                I                0
Atom Types                                 C   N=          15
                                                            
                                                            
                                                            
Int Atom Types                             I   N=          15
           0           0           0           0           0           0
           0           0           0           0           0           0
           0           0           0
MM charges                                 R   N=          15
  0.00000000E+00  0.00000000E+00  0.00000000E+00  0.00000000E+00  0.00000000E+00
  0.00000000E+00  0.00000000E+00  0.00000000E+00  0.00000000E+00  0.00000000E+00
  0.00000000E+00  0.00000000E+00  0.00000000E+00  0.00000000E+00  0.00000000E+00
Integer atomic weights                     I   N=          15
          12          12          12          12          12          12
           1           1           1           1           1          12
           1          14          14
Real atomic weights                        R   N=          15
  1.20000000E+01  1.20000000E+01  1.20000000E+01  1.20000000E+01  1.20000000E+01
  1.20000000E+01  1.00782504E+00  1.00782504E+00  1.00782504E+00  1.00782504E+00
  1.00782504E+00  1.20000000E+01  1.00782504E+00  1.40030740E+01  1.40030740E+01
Atom fragment info                         I   N=          15
           0           0           0           0           0           0
           0           0           0           0           0           0
           0           0           0
Atom residue num                           I   N=          15
           0           0           0           0           0           0
           0           0           0           0           0           0
           0           0           0
Nuclear spins                              I   N=          15
           0           0           0           0           0           0
           1           1           1           1           1           0
           1           2           2
Nuclear ZEff                               R   N=          15
 -3.60000000E+00 -3.60000000E+00 -3.60000000E+00 -3.60000000E+00 -3.60000000E+00
 -3.60000000E+00 -1.00000000E+00 -1.00000000E+00 -1.00000000E+00 -1.00000000E+00
 -1.00000000E+00 -3.60000000E+00 -1.00000000E+00 -4.55000000E+00 -4.55000000E+00
Nuclear ZNuc                               R   N=          15
  6.00000000E+00  6.00000000E+00  6.00000000E+00  6.00000000E+00  6.00000000E+00
  6.00000000E+00  1.00000000E+00  1.00000000E+00  1.00000000E+00  1.00000000E+00
  1.00000000E+00  6.00000000E+00  1.00000000E+00  7.00000000E+00  7.00000000E+00
Nuclear QMom                               R   N=          15
  0.00000000E+00  0.00000000E+00  0.00000000E+00  0.00000000E+00  0.00000000E+00
  0.00000000E+00  0.00000000E+00  0.00000000E+00  0.00000000E+00  0.00000000E+00
  0.00000000E+00  0.00000000E+00  0.00000000E+00  2.04400000E+00  2.04400000E+00
Nuclear GFac                               R   N=          15
  0.00000000E+00  0.00000000E+00  0.00000000E+00  0.00000000E+00  0.00000000E+00
  0.00000000E+00  2.79284600E+00  2.79284600E+00  2.79284600E+00  2.79284600E+00
  2.79284600E+00  0.00000000E+00  2.79284600E+00  4.03761000E-01  4.03761000E-01
MicOpt                                     I   N=          15
          -1          -1          -1          -1          -1          -1
          -1          -1          -1          -1          -1          -1
          -1          -1          -1
Number of residues                         I                0
Number of secondary structures             I                0
Redundant internal dimensions              I   N=           4
          77          16          25          36
Redundant internal coordinate indices      I   N=         308
           1           2           0           0           1           6
           0           0           1          14           0           0
           2           3           0           0           2          15
           0           0           3           4           0           0
           3           7           0           0           4           5
           0           0           4           8           0           0
           5           6           0           0           5           9
           0           0           6          10           0           0
          11          14           0           0          12          13
           0           0          12          14           0           0
          12          15           0           0           2           1
           6           0           2           1          14           0
           6           1          14           0           1           2
           3           0           1           2          15           0
           3           2          15           0           2           3
           4           0           2           3           7           0
           4           3           7           0           3           4
           5           0           3           4           8           0
           5           4           8           0           4           5
           6           0           4           5           9           0
           6           5           9           0           1           6
           5           0           1           6          10           0
           5           6          10           0          13          12
          14           0          13          12          15           0
          14          12          15           0           1          14
          11           0           1          14          12           0
          11          14          12           0           2          15
          12           0           6           1           2           3
           6           1           2          15          14           1
           2           3          14           1           2          15
           2           1           6           5           2           1
           6          10          14           1           6           5
          14           1           6          10           2           1
          14          11           2           1          14          12
           6           1          14          11           6           1
          14          12           1           2           3           4
           1           2           3           7          15           2
           3           4          15           2           3           7
           1           2          15          12           3           2
          15          12           2           3           4           5
           2           3           4           8           7           3
           4           5           7           3           4           8
           3           4           5           6           3           4
           5           9           8           4           5           6
           8           4           5           9           4           5
           6           1           4           5           6          10
           9           5           6           1           9           5
           6          10          13          12          14           1
          13          12          14          11          15          12
          14           1          15          12          14          11
          13          12          15           2          14          12
          15           2
Redundant internal coordinates             R   N=          77
  2.67389005E+00  2.63449055E+00  2.61554173E+00  2.64153222E+00  2.62732303E+00
  2.62185411E+00  2.04613192E+00  2.66025062E+00  2.04758199E+00  2.62488463E+00
  2.04772950E+00  2.04781837E+00  1.90188452E+00  2.04150002E+00  2.60441690E+00
  2.46662869E+00  2.13786198E+00  1.82350275E+00  2.32182058E+00  2.08987141E+00
  1.92518305E+00  2.26813082E+00  2.06103915E+00  2.09456802E+00  2.12757813E+00
  2.11884317E+00  2.08768528E+00  2.07665686E+00  2.12152136E+00  2.08025403E+00
  2.08140992E+00  2.03723354E+00  2.12902347E+00  2.11692829E+00  2.11725295E+00
  2.18599346E+00  1.97993885E+00  2.21165038E+00  1.86494977E+00  2.20658514E+00
  1.83120342E+00  9.10443877E-06  3.14141357E+00  3.14151554E+00 -2.65296323E-04
  9.68505554E-06  3.14154275E+00 -3.14146877E+00  6.42911355E-05 -3.14137361E+00
  5.54223045E-06  1.19565316E-04  3.14149871E+00 -1.48540587E-05  3.14151272E+00
 -3.14137727E+00  1.50304277E-04  4.26830370E-04 -3.14137898E+00  2.17270990E-06
  3.14156484E+00 -3.14152410E+00  3.85748671E-05  1.73767411E-05 -3.14157737E+00
 -3.14154548E+00  4.50847259E-05 -2.26526568E-05 -3.14155616E+00  3.14157209E+00
  3.85848557E-05  3.14157386E+00 -2.31499999E-04  2.78850961E-04 -3.14152651E+00
  3.14147072E+00 -4.33322398E-04
ZRed-IntVec                                I   N=          77
           0           0           0           0           0           0
           0           0           0           0           0           0
           0           0           0           0           0           0
           0           0           0           0           0           0
           0           0           0           0           0           0
           0           0           0           0           0           0
           0           0           0           0           0           0
           0           0           0           0           0           0
           0           0           0           0           0           0
           0           0           0           0           0           0
           0           0           0           0           0           0
           0           0           0           0           0           0
           0           0           0           0           0
ZRed-FPVec                                 R   N=          77
  0.00000000E+00  0.00000000E+00  0.00000000E+00  0.00000000E+00  0.00000000E+00
  0.00000000E+00  0.00000000E+00  0.00000000E+00  0.00000000E+00  0.00000000E+00
  0.00000000E+00  0.00000000E+00  0.00000000E+00  0.00000000E+00  0.00000000E+00
  0.00000000E+00  0.00000000E+00  0.00000000E+00  0.00000000E+00  0.00000000E+00
  0.00000000E+00  0.00000000E+00  0.00000000E+00  0.00000000E+00  0.00000000E+00
  0.00000000E+00  0.00000000E+00  0.00000000E+00  0.00000000E+00  0.00000000E+00
  0.00000000E+00  0.00000000E+00  0.00000000E+00  0.00000000E+00  0.00000000E+00
  0.00000000E+00  0.00000000E+00  0.00000000E+00  0.00000000E+00  0.00000000E+00
  0.00000000E+00  0.00000000E+00  0.00000000E+00  0.00000000E+00  0.00000000E+00
  0.00000000E+00  0.00000000E+00  0.00000000E+00  0.00000000E+00  0.00000000E+00
  0.00000000E+00  0.00000000E+00  0.00000000E+00  0.00000000E+00  0.00000000E+00
  0.00000000E+00  0.00000000E+00  0.00000000E+00  0.00000000E+00  0.00000000E+00
  0.00000000E+00  0.00000000E+00  0.00000000E+00  0.00000000E+00  0.00000000E+00
  0.00000000E+00  0.00000000E+00  0.00000000E+00  0.00000000E+00  0.00000000E+00
  0.00000000E+00  0.00000000E+00  0.00000000E+00  0.00000000E+00  0.00000000E+00
  0.00000000E+00  0.00000000E+00
ZRed-Constraint1                           R   N=          77
  2.67389005E+00  2.63449055E+00  2.61554173E+00  2.64153222E+00  2.62732303E+00
  2.62185411E+00  2.04613192E+00  2.66025062E+00  2.04758199E+00  2.62488463E+00
  2.04772950E+00  2.04781837E+00  1.90188452E+00  2.04150002E+00  2.60441690E+00
  2.46662869E+00  2.13786198E+00  1.82350275E+00  2.32182058E+00  2.08987141E+00
  1.92518305E+00  2.26813082E+00  2.06103915E+00  2.09456802E+00  2.12757813E+00
  2.11884317E+00  2.08768528E+00  2.07665686E+00  2.12152136E+00  2.08025403E+00
  2.08140992E+00  2.03723354E+00  2.12902347E+00  2.11692829E+00  2.11725295E+00
  2.18599346E+00  1.97993885E+00  2.21165038E+00  1.86494977E+00  2.20658514E+00
  1.83120342E+00  9.10443877E-06  3.14141357E+00  3.14151554E+00 -2.65296323E-04
  9.68504408E-06  3.14154275E+00 -3.14146877E+00  6.42911321E-05 -3.14137361E+00
  5.54223045E-06  1.19565318E-04  3.14149871E+00 -1.48540437E-05  3.14151272E+00
 -3.14137727E+00  1.50304276E-04  4.26830369E-04 -3.14137898E+00  2.17265880E-06
  3.14156484E+00 -3.14152410E+00  3.85748729E-05  1.73767283E-05 -3.14157737E+00
 -3.14154548E+00  4.50847259E-05 -2.26526568E-05 -3.14155616E+00  3.14157209E+00
  3.85848557E-05  3.14157386E+00 -2.31499999E-04  2.78850961E-04 -3.14152651E+00
  3.14147072E+00 -4.33322398E-04
ZRed-Constraint2                           R   N=          77
  2.65887023E+00  2.63491634E+00  2.60869971E+00  2.64092106E+00  2.62066620E+00
  2.61466136E+00  2.04625067E+00  2.65952890E+00  2.04675304E+00  2.61710001E+00
  2.04703941E+00  2.04686454E+00  1.90172334E+00  2.04218771E+00  2.59327832E+00
  2.45434079E+00  2.13897507E+00  1.82397962E+00  2.32023060E+00  2.09221215E+00
  1.92645169E+00  2.26452144E+00  2.05892436E+00  2.09615597E+00  2.12810497E+00
  2.11876962E+00  2.08757281E+00  2.07684287E+00  2.12215765E+00  2.08056102E+00
  2.08046663E+00  2.03533176E+00  2.12861814E+00  2.11923540E+00  2.11529844E+00
  2.18442956E+00  1.98345697E+00  2.21635541E+00  1.86238514E+00  2.20444476E+00
  1.82850441E+00 -2.26577877E-05  3.14129490E+00  3.14141152E+00 -4.56228429E-04
  3.72395730E-05  3.14157059E+00 -3.14134584E+00  1.87504405E-04 -3.14137223E+00
  2.42360507E-04  3.79645385E-05 -3.14153275E+00 -4.26774564E-06  3.14149903E+00
 -3.14126152E+00  2.41773695E-04  4.90191502E-04 -3.14141271E+00  1.48579672E-05
  3.14153208E+00 -3.14148670E+00  3.05244095E-05  7.88072814E-07  3.14148972E+00
 -3.14151689E+00 -2.79589428E-05 -2.62271655E-05 -3.14155992E+00 -3.14151516E+00
  1.36453379E-04  3.14082215E+00 -7.48763409E-04  5.94611303E-05 -3.14151145E+00
 -3.14106143E+00 -3.37142588E-04
SymInf integers                            I   N=          26
           1           1           1           1           1           0
           0           0           0           0           0           0
           0           0           0           0           0           0
           0           0           0           0           0           0
           0           0
RotTr to input orientation                 R   N=          12
 -2.19225519E-02  9.99753501E-01 -3.51276150E-03  9.99759090E-01  2.19186123E-02
 -1.15611364E-03 -1.07883381E-03 -3.53726020E-03 -9.99993162E-01  4.09916992E+00
 -2.61645132E+00  1.38034927E+00
Number of contracted shells                I               69
Number of primitive shells                 I              144
Pure/Cartesian d shells                    I                0
Pure/Cartesian f shells                    I                0
Highest angular momentum                   I                2
Largest degree of contraction              I                6
Shell types                                I   N=          69
           0          -1          -1          -1          -2           0
          -1          -1          -1          -2           0          -1
          -1          -1          -2           0          -1          -1
          -1          -2           0          -1          -1          -1
          -2           0          -1          -1          -1          -2
           0           0           0           1           0           0
           0           1           0           0           0           1
           0           0           0           1           0           0
           0           1           0          -1          -1          -1
          -2           0           0           0           1           0
          -1          -1          -1          -2           0          -1
          -1          -1          -2
Number of primitives per shell             I   N=          69
           6           3           1           1           1           6
           3           1           1           1           6           3
           1           1           1           6           3           1
           1           1           6           3           1           1
           1           6           3           1           1           1
           3           1           1           1           3           1
           1           1           3           1           1           1
           3           1           1           1           3           1
           1           1           6           3           1           1
           1           3           1           1           1           6
           3           1           1           1           6           3
           1           1           1
Shell to atom map                          I   N=          69
           1           1           1           1           1           2
           2           2           2           2           3           3
           3           3           3           4           4           4
           4           4           5           5           5           5
           5           6           6           6           6           6
           7           7           7           7           8           8
           8           8           9           9           9           9
          10          10          10          10          11          11
          11          11          12          12          12          12
          12          13          13          13          13          14
          14          14          14          14          15          15
          15          15          15
Primitive exponents                        R   N=         144
  4.56324000E+03  6.82024000E+02  1.54973000E+02  4.44553000E+01  1.30290000E+01
  1.82773000E+00  2.09642000E+01  4.80331000E+00  1.45933000E+00  4.83456000E-01
  1.45585000E-01  6.26000000E-01  4.56324000E+03  6.82024000E+02  1.54973000E+02
  4.44553000E+01  1.30290000E+01  1.82773000E+00  2.09642000E+01  4.80331000E+00
  1.45933000E+00  4.83456000E-01  1.45585000E-01  6.26000000E-01  4.56324000E+03
  6.82024000E+02  1.54973000E+02  4.44553000E+01  1.30290000E+01  1.82773000E+00
  2.09642000E+01  4.80331000E+00  1.45933000E+00  4.83456000E-01  1.45585000E-01
  6.26000000E-01  4.56324000E+03  6.82024000E+02  1.54973000E+02  4.44553000E+01
  1.30290000E+01  1.82773000E+00  2.09642000E+01  4.80331000E+00  1.45933000E+00
  4.83456000E-01  1.45585000E-01  6.26000000E-01  4.56324000E+03  6.82024000E+02
  1.54973000E+02  4.44553000E+01  1.30290000E+01  1.82773000E+00  2.09642000E+01
  4.80331000E+00  1.45933000E+00  4.83456000E-01  1.45585000E-01  6.26000000E-01
  4.56324000E+03  6.82024000E+02  1.54973000E+02  4.44553000E+01  1.30290000E+01
  1.82773000E+00  2.09642000E+01  4.80331000E+00  1.45933000E+00  4.83456000E-01
  1.45585000E-01  6.26000000E-01  3.38650000E+01  5.09479000E+00  1.15879000E+00
  3.25840000E-01  1.02741000E-01  7.50000000E-01  3.38650000E+01  5.09479000E+00
  1.15879000E+00  3.25840000E-01  1.02741000E-01  7.50000000E-01  3.38650000E+01
  5.09479000E+00  1.15879000E+00  3.25840000E-01  1.02741000E-01  7.50000000E-01
  3.38650000E+01  5.09479000E+00  1.15879000E+00  3.25840000E-01  1.02741000E-01
  7.50000000E-01  3.38650000E+01  5.09479000E+00  1.15879000E+00  3.25840000E-01
  1.02741000E-01  7.50000000E-01  4.56324000E+03  6.82024000E+02  1.54973000E+02
  4.44553000E+01  1.30290000E+01  1.82773000E+00  2.09642000E+01  4.80331000E+00
  1.45933000E+00  4.83456000E-01  1.45585000E-01  6.26000000E-01  3.38650000E+01
  5.09479000E+00  1.15879000E+00  3.25840000E-01  1.02741000E-01  7.50000000E-01
  6.29348000E+03  9.49044000E+02  2.18776000E+02  6.36916000E+01  1.88282000E+01
  2.72023000E+00  3.06331000E+01  7.02614000E+00  2.11205000E+00  6.84009000E-01
  2.00878000E-01  9.13000000E-01  6.29348000E+03  9.49044000E+02  2.18776000E+02
  6.36916000E+01  1.88282000E+01  2.72023000E+00  3.06331000E+01  7.02614000E+00
  2.11205000E+00  6.84009000E-01  2.00878000E-01  9.13000000E-01
Contraction coefficients                   R   N=         144
  1.96665025E-03  1.52306019E-02  7.61269097E-02  2.60801033E-01  6.16462078E-01
  2.21006028E-01  1.14660081E-01  9.19999648E-01 -3.03068213E-03  1.00000000E+00
  1.00000000E+00  1.00000000E+00  1.96665025E-03  1.52306019E-02  7.61269097E-02
  2.60801033E-01  6.16462078E-01  2.21006028E-01  1.14660081E-01  9.19999648E-01
 -3.03068213E-03  1.00000000E+00  1.00000000E+00  1.00000000E+00  1.96665025E-03
  1.52306019E-02  7.61269097E-02  2.60801033E-01  6.16462078E-01  2.21006028E-01
  1.14660081E-01  9.19999648E-01 -3.03068213E-03  1.00000000E+00  1.00000000E+00
  1.00000000E+00  1.96665025E-03  1.52306019E-02  7.61269097E-02  2.60801033E-01
  6.16462078E-01  2.21006028E-01  1.14660081E-01  9.19999648E-01 -3.03068213E-03
  1.00000000E+00  1.00000000E+00  1.00000000E+00  1.96665025E-03  1.52306019E-02
  7.61269097E-02  2.60801033E-01  6.16462078E-01  2.21006028E-01  1.14660081E-01
  9.19999648E-01 -3.03068213E-03  1.00000000E+00  1.00000000E+00  1.00000000E+00
  1.96665025E-03  1.52306019E-02  7.61269097E-02  2.60801033E-01  6.16462078E-01
  2.21006028E-01  1.14660081E-01  9.19999648E-01 -3.03068213E-03  1.00000000E+00
  1.00000000E+00  1.00000000E+00  2.54938145E-02  1.90373109E-01  8.52161486E-01
  1.00000000E+00  1.00000000E+00  1.00000000E+00  2.54938145E-02  1.90373109E-01
  8.52161486E-01  1.00000000E+00  1.00000000E+00  1.00000000E+00  2.54938145E-02
  1.90373109E-01  8.52161486E-01  1.00000000E+00  1.00000000E+00  1.00000000E+00
  2.54938145E-02  1.90373109E-01  8.52161486E-01  1.00000000E+00  1.00000000E+00
  1.00000000E+00  2.54938145E-02  1.90373109E-01  8.52161486E-01  1.00000000E+00
  1.00000000E+00  1.00000000E+00  1.96665025E-03  1.52306019E-02  7.61269097E-02
  2.60801033E-01  6.16462078E-01  2.21006028E-01  1.14660081E-01  9.19999648E-01
 -3.03068213E-03  1.00000000E+00  1.00000000E+00  1.00000000E+00  2.54938145E-02
  1.90373109E-01  8.52161486E-01  1.00000000E+00  1.00000000E+00  1.00000000E+00
  1.96978815E-03  1.49612859E-02  7.35005308E-02  2.48936766E-01  6.02459433E-01
  2.56201759E-01  1.11906080E-01  9.21666655E-01 -2.56919183E-03  1.00000000E+00
  1.00000000E+00  1.00000000E+00  1.96978815E-03  1.49612859E-02  7.35005308E-02
  2.48936766E-01  6.02459433E-01  2.56201759E-01  1.11906080E-01  9.21666655E-01
 -2.56919183E-03  1.00000000E+00  1.00000000E+00  1.00000000E+00
P(S=P) Contraction coefficients            R   N=         144
  0.00000000E+00  0.00000000E+00  0.00000000E+00  0.00000000E+00  0.00000000E+00
  0.00000000E+00  4.02486927E-02  2.37593957E-01  8.15853851E-01  1.00000000E+00
  1.00000000E+00  0.00000000E+00  0.00000000E+00  0.00000000E+00  0.00000000E+00
  0.00000000E+00  0.00000000E+00  0.00000000E+00  4.02486927E-02  2.37593957E-01
  8.15853851E-01  1.00000000E+00  1.00000000E+00  0.00000000E+00  0.00000000E+00
  0.00000000E+00  0.00000000E+00  0.00000000E+00  0.00000000E+00  0.00000000E+00
  4.02486927E-02  2.37593957E-01  8.15853851E-01  1.00000000E+00  1.00000000E+00
  0.00000000E+00  0.00000000E+00  0.00000000E+00  0.00000000E+00  0.00000000E+00
  0.00000000E+00  0.00000000E+00  4.02486927E-02  2.37593957E-01  8.15853851E-01
  1.00000000E+00  1.00000000E+00  0.00000000E+00  0.00000000E+00  0.00000000E+00
  0.00000000E+00  0.00000000E+00  0.00000000E+00  0.00000000E+00  4.02486927E-02
  2.37593957E-01  8.15853851E-01  1.00000000E+00  1.00000000E+00  0.00000000E+00
  0.00000000E+00  0.00000000E+00  0.00000000E+00  0.00000000E+00  0.00000000E+00
  0.00000000E+00  4.02486927E-02  2.37593957E-01  8.15853851E-01  1.00000000E+00
  1.00000000E+00  0.00000000E+00  0.00000000E+00  0.00000000E+00  0.00000000E+00
  0.00000000E+00  0.00000000E+00  0.00000000E+00  0.00000000E+00  0.00000000E+00
  0.00000000E+00  0.00000000E+00  0.00000000E+00  0.00000000E+00  0.00000000E+00
  0.00000000E+00  0.00000000E+00  0.00000000E+00  0.00000000E+00  0.00000000E+00
  0.00000000E+00  0.00000000E+00  0.00000000E+00  0.00000000E+00  0.00000000E+00
  0.00000000E+00  0.00000000E+00  0.00000000E+00  0.00000000E+00  0.00000000E+00
  0.00000000E+00  0.00000000E+00  0.00000000E+00  0.00000000E+00  0.00000000E+00
  0.00000000E+00  0.00000000E+00  0.00000000E+00  4.02486927E-02  2.37593957E-01
  8.15853851E-01  1.00000000E+00  1.00000000E+00  0.00000000E+00  0.00000000E+00
  0.00000000E+00  0.00000000E+00  0.00000000E+00  0.00000000E+00  0.00000000E+00
  0.00000000E+00  0.00000000E+00  0.00000000E+00  0.00000000E+00  0.00000000E+00
  0.00000000E+00  3.83119186E-02  2.37403116E-01  8.17592398E-01  1.00000000E+00
  1.00000000E+00  0.00000000E+00  0.00000000E+00  0.00000000E+00  0.00000000E+00
  0.00000000E+00  0.00000000E+00  0.00000000E+00  3.83119186E-02  2.37403116E-01
  8.17592398E-01  1.00000000E+00  1.00000000E+00  0.00000000E+00
Coordinates of each shell                  R   N=         207
 -4.85603383E-01  1.30461792E+00  9.71207469E-05 -4.85603383E-01  1.30461792E+00
  9.71207469E-05 -4.85603383E-01  1.30461792E+00  9.71207469E-05 -4.85603383E-01
  1.30461792E+00  9.71207469E-05 -4.85603383E-01  1.30461792E+00  9.71207469E-05
 -5.03017237E-01 -1.36921542E+00 -4.26439495E-05 -5.03017237E-01 -1.36921542E+00
 -4.26439495E-05 -5.03017237E-01 -1.36921542E+00 -4.26439495E-05 -5.03017237E-01
 -1.36921542E+00 -4.26439495E-05 -5.03017237E-01 -1.36921542E+00 -4.26439495E-05
  1.78198536E+00 -2.69452881E+00 -1.26016534E-04  1.78198536E+00 -2.69452881E+00
 -1.26016534E-04  1.78198536E+00 -2.69452881E+00 -1.26016534E-04  1.78198536E+00
 -2.69452881E+00 -1.26016534E-04  1.78198536E+00 -2.69452881E+00 -1.26016534E-04
  4.01034756E+00 -1.31303654E+00 -1.01802580E-04  4.01034756E+00 -1.31303654E+00
 -1.01802580E-04  4.01034756E+00 -1.31303654E+00 -1.01802580E-04  4.01034756E+00
 -1.31303654E+00 -1.01802580E-04  4.01034756E+00 -1.31303654E+00 -1.01802580E-04
  3.99194151E+00  1.34715041E+00  8.35789262E-06  3.99194151E+00  1.34715041E+00
  8.35789262E-06  3.99194151E+00  1.34715041E+00  8.35789262E-06  3.99194151E+00
  1.34715041E+00  8.35789262E-06  3.99194151E+00  1.34715041E+00  8.35789262E-06
  1.74570792E+00  2.70525718E+00  1.36444936E-04  1.74570792E+00  2.70525718E+00
  1.36444936E-04  1.74570792E+00  2.70525718E+00  1.36444936E-04  1.74570792E+00
  2.70525718E+00  1.36444936E-04  1.74570792E+00  2.70525718E+00  1.36444936E-04
  1.77826961E+00 -4.74065736E+00 -9.13956136E-05  1.77826961E+00 -4.74065736E+00
 -9.13956136E-05  1.77826961E+00 -4.74065736E+00 -9.13956136E-05  1.77826961E+00
 -4.74065736E+00 -9.13956136E-05  5.80830784E+00 -2.29279715E+00 -1.15412763E-04
  5.80830784E+00 -2.29279715E+00 -1.15412763E-04  5.80830784E+00 -2.29279715E+00
 -1.15412763E-04  5.80830784E+00 -2.29279715E+00 -1.15412763E-04  5.77267541E+00
  2.35818099E+00 -3.46135379E-06  5.77267541E+00  2.35818099E+00 -3.46135379E-06
  5.77267541E+00  2.35818099E+00 -3.46135379E-06  5.77267541E+00  2.35818099E+00
 -3.46135379E-06  1.74094489E+00  4.75307001E+00  1.57081297E-04  1.74094489E+00
  4.75307001E+00  1.57081297E-04  1.74094489E+00  4.75307001E+00  1.57081297E-04
  1.74094489E+00  4.75307001E+00  1.57081297E-04 -3.72209579E+00  3.74010572E+00
 -3.40308170E-04 -3.72209579E+00  3.74010572E+00 -3.40308170E-04 -3.72209579E+00
  3.74010572E+00 -3.40308170E-04 -3.72209579E+00  3.74010572E+00 -3.40308170E-04
 -4.38253674E+00 -2.40677098E-01 -2.45659345E-04 -4.38253674E+00 -2.40677098E-01
 -2.45659345E-04 -4.38253674E+00 -2.40677098E-01 -2.45659345E-04 -4.38253674E+00