 Entering Gaussian System, Link 0=g16
 Initial command:
 /data0/hywu0/study/g16/l1.exe "/data0/hywu0/study/g16/scratch/Gau-2006696.inp" -scrdir="/data0/hywu0/study/g16/scratch/"
 Default is to use a total of  20 processors:
                               20 via shared-memory
                                1 via Linda
 Entering Link 1 = /data0/hywu0/study/g16/l1.exe PID=   2006697.
  
 Copyright (c) 1988,1990,1992,1993,1995,1998,2003,2009,2016,
            Gaussian, Inc.  All Rights Reserved.
  
 This is part of the Gaussian(R) 16 program.  It is based on
 the Gaussian(R) 09 system (copyright 2009, Gaussian, Inc.),
 the Gaussian(R) 03 system (copyright 2003, Gaussian, Inc.),
 the Gaussian(R) 98 system (copyright 1998, Gaussian, Inc.),
 the Gaussian(R) 94 system (copyright 1995, Gaussian, Inc.),
 the Gaussian 92(TM) system (copyright 1992, Gaussian, Inc.),
 the Gaussian 90(TM) system (copyright 1990, Gaussian, Inc.),
 the Gaussian 88(TM) system (copyright 1988, Gaussian, Inc.),
 the Gaussian 86(TM) system (copyright 1986, Carnegie Mellon
 University), and the Gaussian 82(TM) system (copyright 1983,
 Carnegie Mellon University). Gaussian is a federally registered
 trademark of Gaussian, Inc.
  
 This software contains proprietary and confidential information,
 including trade secrets, belonging to Gaussian, Inc.
  
 This software is provided under written license and may be
 used, copied, transmitted, or stored only in accord with that
 written license.
  
 The following legend is applicable only to US Government
 contracts under FAR:
  
                    RESTRICTED RIGHTS LEGEND
  
 Use, reproduction and disclosure by the US Government is
 subject to restrictions as set forth in subparagraphs (a)
 and (c) of the Commercial Computer Software - Restricted
 Rights clause in FAR 52.227-19.
  
 Gaussian, Inc.
 340 Quinnipiac St., Bldg. 40, Wallingford CT 06492
  
  
 ---------------------------------------------------------------
 Warning -- This program may not be used in any manner that
 competes with the business of Gaussian, Inc. or will provide
 assistance to any competitor of Gaussian, Inc.  The licensee
 of this program is prohibited from giving any competitor of
 Gaussian, Inc. access to this program.  By using this program,
 the user acknowledges that Gaussian, Inc. is engaged in the
 business of creating and licensing software in the field of
 computational chemistry and represents and warrants to the
 licensee that it is not a competitor of Gaussian, Inc. and that
 it will not use this program in any manner prohibited above.
 ---------------------------------------------------------------
  

 Cite this work as:
 Gaussian 16, Revision A.03,
 M. J. Frisch, G. W. Trucks, H. B. Schlegel, G. E. Scuseria, 
 M. A. Robb, J. R. Cheeseman, G. Scalmani, V. Barone, 
 G. A. Petersson, H. Nakatsuji, X. Li, M. Caricato, A. V. Marenich, 
 J. Bloino, B. G. Janesko, R. Gomperts, B. Mennucci, H. P. Hratchian, 
 J. V. Ortiz, A. F. Izmaylov, J. L. Sonnenberg, D. Williams-Young, 
 F. Ding, F. Lipparini, F. Egidi, J. Goings, B. Peng, A. Petrone, 
 T. Henderson, D. Ranasinghe, V. G. Zakrzewski, J. Gao, N. Rega, 
 G. Zheng, W. Liang, M. Hada, M. Ehara, K. Toyota, R. Fukuda, 
 J. Hasegawa, M. Ishida, T. Nakajima, Y. Honda, O. Kitao, H. Nakai, 
 T. Vreven, K. Throssell, J. A. Montgomery, Jr., J. E. Peralta, 
 F. Ogliaro, M. J. Bearpark, J. J. Heyd, E. N. Brothers, K. N. Kudin, 
 V. N. Staroverov, T. A. Keith, R. Kobayashi, J. Normand, 
 K. Raghavachari, A. P. Rendell, J. C. Burant, S. S. Iyengar, 
 J. Tomasi, M. Cossi, J. M. Millam, M. Klene, C. Adamo, R. Cammi, 
 J. W. Ochterski, R. L. Martin, K. Morokuma, O. Farkas, 
 J. B. Foresman, and D. J. Fox, Gaussian, Inc., Wallingford CT, 2016.
 
 ******************************************
 Gaussian 16:  ES64L-G16RevA.03 25-Dec-2016
                20-Apr-2022 
 ******************************************
 %chk=BI.chk
 %nprocshared=10
 Will use up to   10 processors via shared memory.
 %mem=40000MB
 -----------------------------------
 #p opt freq B3LYP/6-311G** em=GD3BJ
 -----------------------------------
 1/18=20,19=15,26=3,38=1/1,3;
 2/9=110,12=2,17=6,18=5,40=1/2;
 3/5=4,6=6,7=101,11=2,25=1,30=1,71=1,74=-5,124=41/1,2,3;
 4//1;
 5/5=2,38=5/2;
 6/7=2,8=2,9=2,10=2,28=1/1;
 7//1,2,3,16;
 1/18=20,19=15,26=3/3(2);
 2/9=110/2;
 99//99;
 2/9=110/2;
 3/5=4,6=6,7=101,11=2,25=1,30=1,71=1,74=-5,124=41/1,2,3;
 4/5=5,16=3,69=1/1;
 5/5=2,38=5/2;
 7//1,2,3,16;
 1/18=20,19=15,26=3/3(-5);
 2/9=110/2;
 6/7=2,8=2,9=2,10=2,19=2,28=1/1;
 99/9=1/99;
 Leave Link    1 at Wed Apr 20 09:13:43 2022, MaxMem=  5242880000 cpu:               0.3 elap:               0.0
 (Enter /data0/hywu0/study/g16/l101.exe)
 -------------------
 Title Card Required
 -------------------
 Symbolic Z-matrix:
 Charge =  0 Multiplicity = 1
 C                     2.86216  -1.62621   0.73057 
 C                     1.45572  -1.66631   0.73234 
 C                     0.72535  -0.47484   0.72893 
 C                     1.42809   0.71702   0.72388 
 C                     2.83529   0.73844   0.72217 
 C                     3.57864  -0.43005   0.72546 
 H                    -0.35716  -0.50143   0.73019 
 H                     0.88872   1.65626   0.7211 
 H                     3.34942   1.6919    0.71809 
 H                     4.66162  -0.4104    0.72416 
 H                     4.18635  -3.31042   0.73554 
 C                     2.09299  -3.69657   0.73889 
 H                     2.12408  -4.7768    0.74212 
 N                     3.24589  -2.95226   0.7351 
 N                     1.01007  -2.97954   0.73717 
 
 ITRead=  0  0  0  0  0  0  0  0  0  0  0  0  0  0  0
 MicOpt= -1 -1 -1 -1 -1 -1 -1 -1 -1 -1 -1 -1 -1 -1 -1
 NAtoms=     15 NQM=       15 NQMF=       0 NMMI=      0 NMMIF=      0
                NMic=       0 NMicF=      0.
                    Isotopes and Nuclear Properties:
 (Nuclear quadrupole moments (NQMom) in fm**2, nuclear magnetic moments (NMagM)
  in nuclear magnetons)

  Atom         1           2           3           4           5           6           7           8           9          10
 IAtWgt=          12          12          12          12          12          12           1           1           1           1
 AtmWgt=  12.0000000  12.0000000  12.0000000  12.0000000  12.0000000  12.0000000   1.0078250   1.0078250   1.0078250   1.0078250
 NucSpn=           0           0           0           0           0           0           1           1           1           1
 AtZEff=  -0.0000000  -0.0000000  -0.0000000  -0.0000000  -0.0000000  -0.0000000  -0.0000000  -0.0000000  -0.0000000  -0.0000000
 NQMom=    0.0000000   0.0000000   0.0000000   0.0000000   0.0000000   0.0000000   0.0000000   0.0000000   0.0000000   0.0000000
 NMagM=    0.0000000   0.0000000   0.0000000   0.0000000   0.0000000   0.0000000   2.7928460   2.7928460   2.7928460   2.7928460
 AtZNuc=   6.0000000   6.0000000   6.0000000   6.0000000   6.0000000   6.0000000   1.0000000   1.0000000   1.0000000   1.0000000

  Atom        11          12          13          14          15
 IAtWgt=           1          12           1          14          14
 AtmWgt=   1.0078250  12.0000000   1.0078250  14.0030740  14.0030740
 NucSpn=           1           0           1           2           2
 AtZEff=  -0.0000000  -0.0000000  -0.0000000  -0.0000000  -0.0000000
 NQMom=    0.0000000   0.0000000   0.0000000   2.0440000   2.0440000
 NMagM=    2.7928460   0.0000000   2.7928460   0.4037610   0.4037610
 AtZNuc=   1.0000000   6.0000000   1.0000000   7.0000000   7.0000000
 Leave Link  101 at Wed Apr 20 09:13:43 2022, MaxMem=  5242880000 cpu:               5.4 elap:               0.5
 (Enter /data0/hywu0/study/g16/l103.exe)

 GradGradGradGradGradGradGradGradGradGradGradGradGradGradGradGradGradGrad
 Berny optimization.
 Initialization pass.
                           ----------------------------
                           !    Initial Parameters    !
                           ! (Angstroms and Degrees)  !
 --------------------------                            --------------------------
 ! Name  Definition              Value          Derivative Info.                !
 --------------------------------------------------------------------------------
 ! R1    R(1,2)                  1.407          estimate D2E/DX2                !
 ! R2    R(1,6)                  1.3943         estimate D2E/DX2                !
 ! R3    R(1,14)                 1.3805         estimate D2E/DX2                !
 ! R4    R(2,3)                  1.3975         estimate D2E/DX2                !
 ! R5    R(2,15)                 1.3868         estimate D2E/DX2                !
 ! R6    R(3,4)                  1.3836         estimate D2E/DX2                !
 ! R7    R(3,7)                  1.0828         estimate D2E/DX2                !
 ! R8    R(4,5)                  1.4074         estimate D2E/DX2                !
 ! R9    R(4,8)                  1.0831         estimate D2E/DX2                !
 ! R10   R(5,6)                  1.3849         estimate D2E/DX2                !
 ! R11   R(5,9)                  1.0832         estimate D2E/DX2                !
 ! R12   R(6,10)                 1.0832         estimate D2E/DX2                !
 ! R13   R(11,14)                1.0063         estimate D2E/DX2                !
 ! R14   R(12,13)                1.0807         estimate D2E/DX2                !
 ! R15   R(12,14)                1.3723         estimate D2E/DX2                !
 ! R16   R(12,15)                1.2988         estimate D2E/DX2                !
 ! A1    A(2,1,6)              122.5542         estimate D2E/DX2                !
 ! A2    A(2,1,14)             104.5063         estimate D2E/DX2                !
 ! A3    A(6,1,14)             132.9394         estimate D2E/DX2                !
 ! A4    A(1,2,3)              119.8749         estimate D2E/DX2                !
 ! A5    A(1,2,15)             110.3776         estimate D2E/DX2                !
 ! A6    A(3,2,15)             129.7475         estimate D2E/DX2                !
 ! A7    A(2,3,4)              117.9677         estimate D2E/DX2                !
 ! A8    A(2,3,7)              120.1009         estimate D2E/DX2                !
 ! A9    A(4,3,7)              121.9314         estimate D2E/DX2                !
 ! A10   A(3,4,5)              121.3966         estimate D2E/DX2                !
 ! A11   A(3,4,8)              119.6091         estimate D2E/DX2                !
 ! A12   A(5,4,8)              118.9943         estimate D2E/DX2                !
 ! A13   A(4,5,6)              121.5907         estimate D2E/DX2                !
 ! A14   A(4,5,9)              119.2074         estimate D2E/DX2                !
 ! A15   A(6,5,9)              119.202          estimate D2E/DX2                !
 ! A16   A(1,6,5)              116.6159         estimate D2E/DX2                !
 ! A17   A(1,6,10)             121.9608         estimate D2E/DX2                !
 ! A18   A(5,6,10)             121.4232         estimate D2E/DX2                !
 ! A19   A(13,12,14)           121.1977         estimate D2E/DX2                !
 ! A20   A(13,12,15)           125.1586         estimate D2E/DX2                !
 ! A21   A(14,12,15)           113.6437         estimate D2E/DX2                !
 ! A22   A(1,14,11)            126.9878         estimate D2E/DX2                !
 ! A23   A(1,14,12)            106.7068         estimate D2E/DX2                !
 ! A24   A(11,14,12)           126.3054         estimate D2E/DX2                !
 ! A25   A(2,15,12)            104.7656         estimate D2E/DX2                !
 ! D1    D(6,1,2,3)             -0.0013         estimate D2E/DX2                !
 ! D2    D(6,1,2,15)           179.9829         estimate D2E/DX2                !
 ! D3    D(14,1,2,3)           179.9896         estimate D2E/DX2                !
 ! D4    D(14,1,2,15)           -0.0261         estimate D2E/DX2                !
 ! D5    D(2,1,6,5)              0.0021         estimate D2E/DX2                !
 ! D6    D(2,1,6,10)           179.9987         estimate D2E/DX2                !
 ! D7    D(14,1,6,5)          -179.9859         estimate D2E/DX2                !
 ! D8    D(14,1,6,10)            0.0107         estimate D2E/DX2                !
 ! D9    D(2,1,14,11)         -179.9874         estimate D2E/DX2                !
 ! D10   D(2,1,14,12)            0.0139         estimate D2E/DX2                !
 ! D11   D(6,1,14,11)            0.0022         estimate D2E/DX2                !
 ! D12   D(6,1,14,12)         -179.9966         estimate D2E/DX2                !
 ! D13   D(1,2,3,4)             -0.0002         estimate D2E/DX2                !
 ! D14   D(1,2,3,7)            179.9946         estimate D2E/DX2                !
 ! D15   D(15,2,3,4)          -179.981          estimate D2E/DX2                !
 ! D16   D(15,2,3,7)             0.0139         estimate D2E/DX2                !
 ! D17   D(1,2,15,12)            0.0281         estimate D2E/DX2                !
 ! D18   D(3,2,15,12)         -179.9897         estimate D2E/DX2                !
 ! D19   D(2,3,4,5)              0.0009         estimate D2E/DX2                !
 ! D20   D(2,3,4,8)            179.9965         estimate D2E/DX2                !
 ! D21   D(7,3,4,5)           -179.9939         estimate D2E/DX2                !
 ! D22   D(7,3,4,8)              0.0017         estimate D2E/DX2                !
 ! D23   D(3,4,5,6)              0.0            estimate D2E/DX2                !
 ! D24   D(3,4,5,9)            179.9941         estimate D2E/DX2                !
 ! D25   D(8,4,5,6)           -179.9957         estimate D2E/DX2                !
 ! D26   D(8,4,5,9)             -0.0016         estimate D2E/DX2                !
 ! D27   D(4,5,6,1)             -0.0015         estimate D2E/DX2                !
 ! D28   D(4,5,6,10)          -179.9981         estimate D2E/DX2                !
 ! D29   D(9,5,6,1)           -179.9956         estimate D2E/DX2                !
 ! D30   D(9,5,6,10)             0.0078         estimate D2E/DX2                !
 ! D31   D(13,12,14,1)         179.9559         estimate D2E/DX2                !
 ! D32   D(13,12,14,11)         -0.0429         estimate D2E/DX2                !
 ! D33   D(15,12,14,1)           0.0034         estimate D2E/DX2                !
 ! D34   D(15,12,14,11)       -179.9953         estimate D2E/DX2                !
 ! D35   D(13,12,15,2)        -179.9696         estimate D2E/DX2                !
 ! D36   D(14,12,15,2)          -0.0193         estimate D2E/DX2                !
 --------------------------------------------------------------------------------
 Trust Radius=3.00D-01 FncErr=1.00D-07 GrdErr=1.00D-06 EigMax=2.50D+02 EigMin=1.00D-04
 Number of steps in this run=     87 maximum allowed number of steps=    100.
 GradGradGradGradGradGradGradGradGradGradGradGradGradGradGradGradGradGrad

 Leave Link  103 at Wed Apr 20 09:13:43 2022, MaxMem=  5242880000 cpu:               0.1 elap:               0.0
 (Enter /data0/hywu0/study/g16/l202.exe)
                          Input orientation:                          
 ---------------------------------------------------------------------
 Center     Atomic      Atomic             Coordinates (Angstroms)
 Number     Number       Type             X           Y           Z
 ---------------------------------------------------------------------
      1          6           0        2.862156   -1.626212    0.730574
      2          6           0        1.455715   -1.666308    0.732337
      3          6           0        0.725346   -0.474839    0.728932
      4          6           0        1.428088    0.717021    0.723880
      5          6           0        2.835286    0.738443    0.722170
      6          6           0        3.578644   -0.430053    0.725459
      7          1           0       -0.357156   -0.501428    0.730186
      8          1           0        0.888724    1.656262    0.721097
      9          1           0        3.349422    1.691895    0.718087
     10          1           0        4.661619   -0.410401    0.724162
     11          1           0        4.186354   -3.310415    0.735540
     12          6           0        2.092985   -3.696574    0.738891
     13          1           0        2.124077   -4.776801    0.742123
     14          7           0        3.245895   -2.952261    0.735100
     15          7           0        1.010074   -2.979543    0.737173
 ---------------------------------------------------------------------
                    Distance matrix (angstroms):
                    1          2          3          4          5
     1  C    0.000000
     2  C    1.407014   0.000000
     3  C    2.427266   1.397515   0.000000
     4  C    2.747242   2.383504   1.383619   0.000000
     5  C    2.364823   2.772390   2.433916   1.407362   0.000000
     6  C    1.394338   2.456665   2.853652   2.437349   1.384910
     7  H    3.410148   2.154867   1.082829   2.161424   3.424767
     8  H    3.830034   3.370620   2.137369   1.083095   2.152091
     9  H    3.353717   3.855367   3.403032   2.154516   1.083247
    10  H    2.171705   3.443137   3.936803   3.424442   2.157623
    11  H    2.142444   3.187395   4.474272   4.881435   4.268350
    12  C    2.208640   2.127942   3.500016   4.463422   4.496740
    13  H    3.235909   3.181504   4.523660   5.537763   5.560947
    14  N    1.380464   2.204184   3.534236   4.094897   3.713497
    15  N    2.293852   1.386797   2.520849   3.720148   4.141865
                    6          7          8          9         10
     6  C    0.000000
     7  H    3.936450   0.000000
     8  H    3.404174   2.491571   0.000000
     9  H    2.134306   4.306917   2.460958   0.000000
    10  H    1.083154   5.019604   4.301842   2.478214   0.000000
    11  H    2.943790   5.341715   5.961749   5.071870   2.938722
    12  C    3.588527   4.026441   5.486658   5.533052   4.170975
    13  H    4.583695   4.943225   6.550637   6.583774   5.050237
    14  N    2.544081   4.357589   5.176382   4.645341   2.909544
    15  N    3.619059   2.830269   4.637421   5.224485   4.464800
                   11         12         13         14         15
    11  H    0.000000
    12  C    2.128691   0.000000
    13  H    2.530478   1.080679   0.000000
    14  N    1.006349   1.372304   2.141838   0.000000
    15  N    3.193467   1.298781   2.114513   2.235988   0.000000
 Stoichiometry    C7H6N2
 Framework group  C1[X(C7H6N2)]
 Deg. of freedom    39
 Full point group                 C1      NOp   1
 Largest Abelian subgroup         C1      NOp   1
 Largest concise Abelian subgroup C1      NOp   1
                         Standard orientation:                         
 ---------------------------------------------------------------------
 Center     Atomic      Atomic             Coordinates (Angstroms)
 Number     Number       Type             X           Y           Z
 ---------------------------------------------------------------------
      1          6           0       -0.257540    0.687040    0.000036
      2          6           0       -0.266491   -0.719946   -0.000071
      3          6           0        0.940862   -1.423755   -0.000120
      4          6           0        2.116880   -0.694794   -0.000066
      5          6           0        2.107145    0.712534    0.000054
      6          6           0        0.922472    1.429838    0.000124
      7          1           0        0.938243   -2.506581   -0.000115
      8          1           0        3.067837   -1.213230   -0.000045
      9          1           0        3.048988    1.247656    0.000191
     10          1           0        0.918145    2.512983    0.000186
     11          1           0       -1.970657    1.973622   -0.000361
     12          6           0       -2.310380   -0.127785   -0.000086
     13          1           0       -3.391036   -0.120618    0.000493
     14          7           0       -1.591768    1.041323   -0.000184
     15          7           0       -1.569546   -1.194555    0.000245
 ---------------------------------------------------------------------
 Rotational constants (GHZ):           3.9611854           1.6864483           1.1828555
 Leave Link  202 at Wed Apr 20 09:13:43 2022, MaxMem=  5242880000 cpu:               0.0 elap:               0.0
 (Enter /data0/hywu0/study/g16/l301.exe)
 Standard basis: 6-311G(d,p) (5D, 7F)
 Ernie: Thresh=  0.10000D-02 Tol=  0.10000D-05 Strict=F.
 There are   207 symmetry adapted cartesian basis functions of A   symmetry.
 There are   198 symmetry adapted basis functions of A   symmetry.
   198 basis functions,   336 primitive gaussians,   207 cartesian basis functions
    31 alpha electrons       31 beta electrons
       nuclear repulsion energy       405.2571417373 Hartrees.
 IExCor=  402 DFT=T Ex+Corr=B3LYP ExCW=0 ScaHFX=  0.200000
 ScaDFX=  0.800000  0.720000  1.000000  0.810000 ScalE2=  1.000000  1.000000
 IRadAn=      5 IRanWt=     -1 IRanGd=            0 ICorTp=0 IEmpDi=141
 NAtoms=   15 NActive=   15 NUniq=   15 SFac= 1.00D+00 NAtFMM=   60 NAOKFM=F Big=F
 Integral buffers will be    131072 words long.
 Raffenetti 2 integral format.
 Two-electron integral symmetry is turned on.
 R6Disp:  Grimme-D3(BJ) Dispersion energy=       -0.0275895810 Hartrees.
 Nuclear repulsion after empirical dispersion term =      405.2295521562 Hartrees.
 Leave Link  301 at Wed Apr 20 09:13:43 2022, MaxMem=  5242880000 cpu:               0.4 elap:               0.0
 (Enter /data0/hywu0/study/g16/l302.exe)
 NPDir=0 NMtPBC=     1 NCelOv=     1 NCel=       1 NClECP=     1 NCelD=      1
         NCelK=      1 NCelE2=     1 NClLst=     1 CellRange=     0.0.
 One-electron integrals computed using PRISM.
 One-electron integral symmetry used in STVInt
 NBasis=   198 RedAO= T EigKep=  1.96D-04  NBF=   198
 NBsUse=   198 1.00D-06 EigRej= -1.00D+00 NBFU=   198
 Precomputing XC quadrature grid using
 IXCGrd= 4 IRadAn=           5 IRanWt=          -1 IRanGd=           0 AccXCQ= 0.00D+00.
 Generated NRdTot=       0 NPtTot=           0 NUsed=           0 NTot=          32
 NSgBfM=   207   207   207   207   207 MxSgAt=    15 MxSgA2=    15.
 Leave Link  302 at Wed Apr 20 09:13:44 2022, MaxMem=  5242880000 cpu:               1.3 elap:               0.1
 (Enter /data0/hywu0/study/g16/l303.exe)
 DipDrv:  MaxL=1.
 Leave Link  303 at Wed Apr 20 09:13:44 2022, MaxMem=  5242880000 cpu:               0.3 elap:               0.0
 (Enter /data0/hywu0/study/g16/l401.exe)
 ExpMin= 1.03D-01 ExpMax= 6.29D+03 ExpMxC= 9.49D+02 IAcc=3 IRadAn=         5 AccDes= 0.00D+00
 Harris functional with IExCor=  402 and IRadAn=       5 diagonalized for initial guess.
 HarFok:  IExCor=  402 AccDes= 0.00D+00 IRadAn=         5 IDoV= 1 UseB2=F ITyADJ=14
 ICtDFT=  3500011 ScaDFX=  1.000000  1.000000  1.000000  1.000000
 FoFCou: FMM=F IPFlag=           0 FMFlag=      100000 FMFlg1=           0
         NFxFlg=           0 DoJE=T BraDBF=F KetDBF=T FulRan=T
         wScrn=  0.000000 ICntrl=       500 IOpCl=  0 I1Cent=   200000004 NGrid=           0
         NMat0=    1 NMatS0=      1 NMatT0=    0 NMatD0=    1 NMtDS0=    0 NMtDT0=    0
 Petite list used in FoFCou.
 Harris En= -379.992150235414    
 JPrj=0 DoOrth=F DoCkMO=F.
 Leave Link  401 at Wed Apr 20 09:13:44 2022, MaxMem=  5242880000 cpu:               5.6 elap:               0.6
 (Enter /data0/hywu0/study/g16/l502.exe)
 Integral symmetry usage will be decided dynamically.
 Closed shell SCF:
 Using DIIS extrapolation, IDIIS=  1040.
 NGot=  5242880000 LenX=  5242790116 LenY=  5242746826
 Requested convergence on RMS density matrix=1.00D-08 within 128 cycles.
 Requested convergence on MAX density matrix=1.00D-06.
 Requested convergence on             energy=1.00D-06.
 No special actions if energy rises.
 Fock matrices will be formed incrementally for  20 cycles.
 Integral accuracy reduced to 1.0D-05 until final iterations.

 Cycle   1  Pass 0  IDiag  1:
 FoFJK:  IHMeth= 1 ICntrl=       0 DoSepK=F KAlg= 0 I1Cent=           0 FoldK=F
 IRaf= 950000000 NMat=       1 IRICut=       1 DoRegI=T DoRafI=F ISym2E= 0 IDoP0=0 IntGTp=1.
 FoFCou: FMM=F IPFlag=           0 FMFlag=      100000 FMFlg1=           0
         NFxFlg=           0 DoJE=F BraDBF=F KetDBF=F FulRan=T
         wScrn=  0.000000 ICntrl=         0 IOpCl=  0 I1Cent=           0 NGrid=           0
         NMat0=    1 NMatS0=      1 NMatT0=    0 NMatD0=    1 NMtDS0=    0 NMtDT0=    0
 Symmetry not used in FoFCou.
 E= -379.776226303379    
 DIIS: error= 3.84D-02 at cycle   1 NSaved=   1.
 NSaved= 1 IEnMin= 1 EnMin= -379.776226303379     IErMin= 1 ErrMin= 3.84D-02
 ErrMax= 3.84D-02  0.00D+00 EMaxC= 1.00D-01 BMatC= 2.25D-01 BMatP= 2.25D-01
 IDIUse=3 WtCom= 6.16D-01 WtEn= 3.84D-01
 Coeff-Com:  0.100D+01
 Coeff-En:   0.100D+01
 Coeff:      0.100D+01
 Gap=     0.240 Goal=   None    Shift=    0.000
 GapD=    0.240 DampG=1.000 DampE=0.500 DampFc=0.5000 IDamp=-1.
 Damping current iteration by 5.00D-01
 RMSDP=5.71D-03 MaxDP=2.11D-01              OVMax= 2.40D-01

 Cycle   2  Pass 0  IDiag  1:
 RMSU=  2.85D-03    CP:  9.92D-01
 E= -379.856046030608     Delta-E=       -0.079819727230 Rises=F Damp=T
 DIIS: error= 1.04D-02 at cycle   2 NSaved=   2.
 NSaved= 2 IEnMin= 2 EnMin= -379.856046030608     IErMin= 2 ErrMin= 1.04D-02
 ErrMax= 1.04D-02  0.00D+00 EMaxC= 1.00D-01 BMatC= 2.35D-02 BMatP= 2.25D-01
 IDIUse=3 WtCom= 8.96D-01 WtEn= 1.04D-01
 Coeff-Com:  0.872D-01 0.913D+00
 Coeff-En:   0.215D+00 0.785D+00
 Coeff:      0.100D+00 0.900D+00
 Gap=     0.280 Goal=   None    Shift=    0.000
 RMSDP=1.51D-03 MaxDP=3.48D-02 DE=-7.98D-02 OVMax= 2.65D-01

 Cycle   3  Pass 0  IDiag  1:
 RMSU=  1.20D-03    CP:  9.89D-01  6.82D-01
 E= -379.957264355908     Delta-E=       -0.101218325299 Rises=F Damp=F
 DIIS: error= 1.65D-02 at cycle   3 NSaved=   3.
 NSaved= 3 IEnMin= 3 EnMin= -379.957264355908     IErMin= 2 ErrMin= 1.04D-02
 ErrMax= 1.65D-02  0.00D+00 EMaxC= 1.00D-01 BMatC= 3.19D-02 BMatP= 2.35D-02
 IDIUse=2 WtCom= 0.00D+00 WtEn= 1.00D+00
 Coeff-En:   0.000D+00 0.000D+00 0.100D+01
 Coeff:      0.000D+00 0.000D+00 0.100D+01
 Gap=     0.229 Goal=   None    Shift=    0.000
 RMSDP=2.34D-03 MaxDP=7.66D-02 DE=-1.01D-01 OVMax= 1.84D-01

 Cycle   4  Pass 0  IDiag  1:
 RMSU=  1.22D-03    CP:  9.97D-01  1.21D+00 -1.02D-01
 E= -379.838721014131     Delta-E=        0.118543341776 Rises=F Damp=F
 DIIS: error= 4.31D-02 at cycle   4 NSaved=   4.
 NSaved= 4 IEnMin= 3 EnMin= -379.957264355908     IErMin= 2 ErrMin= 1.04D-02
 ErrMax= 4.31D-02  0.00D+00 EMaxC= 1.00D-01 BMatC= 1.58D-01 BMatP= 2.35D-02
 IDIUse=2 WtCom= 0.00D+00 WtEn= 1.00D+00
 Coeff-En:   0.000D+00 0.000D+00 0.775D+00 0.225D+00
 Coeff:      0.000D+00 0.000D+00 0.775D+00 0.225D+00
 Gap=     0.208 Goal=   None    Shift=    0.000
 RMSDP=1.32D-03 MaxDP=5.30D-02 DE= 1.19D-01 OVMax= 1.16D-01

 Cycle   5  Pass 0  IDiag  1:
 RMSU=  2.06D-04    CP:  9.92D-01  8.80D-01  4.21D-01  4.62D-01
 E= -379.977770610775     Delta-E=       -0.139049596643 Rises=F Damp=F
 DIIS: error= 1.02D-02 at cycle   5 NSaved=   5.
 NSaved= 5 IEnMin= 5 EnMin= -379.977770610775     IErMin= 5 ErrMin= 1.02D-02
 ErrMax= 1.02D-02  0.00D+00 EMaxC= 1.00D-01 BMatC= 1.08D-02 BMatP= 2.35D-02
 IDIUse=3 WtCom= 8.98D-01 WtEn= 1.02D-01
 Coeff-Com:  0.332D-02 0.615D-02 0.305D+00-0.588D-01 0.744D+00
 Coeff-En:   0.000D+00 0.000D+00 0.301D+00 0.000D+00 0.699D+00
 Coeff:      0.298D-02 0.552D-02 0.305D+00-0.528D-01 0.740D+00
 Gap=     0.210 Goal=   None    Shift=    0.000
 RMSDP=4.21D-04 MaxDP=1.12D-02 DE=-1.39D-01 OVMax= 4.56D-02

 Cycle   6  Pass 0  IDiag  1:
 RMSU=  8.00D-05    CP:  9.91D-01  8.01D-01  6.37D-01  2.84D-01  6.88D-01
 E= -379.988004717461     Delta-E=       -0.010234106686 Rises=F Damp=F
 DIIS: error= 1.24D-03 at cycle   6 NSaved=   6.
 NSaved= 6 IEnMin= 6 EnMin= -379.988004717461     IErMin= 6 ErrMin= 1.24D-03
 ErrMax= 1.24D-03  0.00D+00 EMaxC= 1.00D-01 BMatC= 1.00D-04 BMatP= 1.08D-02
 IDIUse=3 WtCom= 9.88D-01 WtEn= 1.24D-02
 Coeff-Com:  0.136D-03 0.245D-02 0.130D+00-0.658D-01 0.483D+00 0.451D+00
 Coeff-En:   0.000D+00 0.000D+00 0.000D+00 0.000D+00 0.000D+00 0.100D+01
 Coeff:      0.135D-03 0.242D-02 0.128D+00-0.650D-01 0.477D+00 0.458D+00
 Gap=     0.210 Goal=   None    Shift=    0.000
 RMSDP=5.01D-05 MaxDP=9.86D-04 DE=-1.02D-02 OVMax= 5.10D-03

 Cycle   7  Pass 0  IDiag  1:
 RMSU=  1.49D-05    CP:  9.91D-01  7.99D-01  6.27D-01  2.89D-01  8.00D-01
                    CP:  5.08D-01
 E= -379.988115282684     Delta-E=       -0.000110565224 Rises=F Damp=F
 DIIS: error= 2.02D-04 at cycle   7 NSaved=   7.
 NSaved= 7 IEnMin= 7 EnMin= -379.988115282684     IErMin= 7 ErrMin= 2.02D-04
 ErrMax= 2.02D-04  0.00D+00 EMaxC= 1.00D-01 BMatC= 2.58D-06 BMatP= 1.00D-04
 IDIUse=3 WtCom= 9.98D-01 WtEn= 2.02D-03
 Coeff-Com:  0.226D-03 0.217D-03 0.521D-01-0.294D-01 0.204D+00 0.221D+00
 Coeff-Com:  0.552D+00
 Coeff-En:   0.000D+00 0.000D+00 0.000D+00 0.000D+00 0.000D+00 0.000D+00
 Coeff-En:   0.100D+01
 Coeff:      0.226D-03 0.217D-03 0.520D-01-0.293D-01 0.203D+00 0.221D+00
 Coeff:      0.553D+00
 Gap=     0.210 Goal=   None    Shift=    0.000
 RMSDP=9.05D-06 MaxDP=2.62D-04 DE=-1.11D-04 OVMax= 7.02D-04

 Initial convergence to 1.0D-05 achieved.  Increase integral accuracy.
 Cycle   8  Pass 1  IDiag  1:
 E= -379.988108418136     Delta-E=        0.000006864548 Rises=F Damp=F
 DIIS: error= 9.70D-05 at cycle   1 NSaved=   1.
 NSaved= 1 IEnMin= 1 EnMin= -379.988108418136     IErMin= 1 ErrMin= 9.70D-05
 ErrMax= 9.70D-05  0.00D+00 EMaxC= 1.00D-01 BMatC= 4.88D-07 BMatP= 4.88D-07
 IDIUse=1 WtCom= 1.00D+00 WtEn= 0.00D+00
 Coeff-Com:  0.100D+01
 Coeff:      0.100D+01
 Gap=     0.210 Goal=   None    Shift=    0.000
 RMSDP=9.05D-06 MaxDP=2.62D-04 DE= 6.86D-06 OVMax= 5.78D-04

 Cycle   9  Pass 1  IDiag  1:
 RMSU=  8.24D-06    CP:  1.00D+00
 E= -379.988107421234     Delta-E=        0.000000996902 Rises=F Damp=F
 DIIS: error= 1.60D-04 at cycle   2 NSaved=   2.
 NSaved= 2 IEnMin= 1 EnMin= -379.988108418136     IErMin= 1 ErrMin= 9.70D-05
 ErrMax= 1.60D-04  0.00D+00 EMaxC= 1.00D-01 BMatC= 1.50D-06 BMatP= 4.88D-07
 IDIUse=3 WtCom= 4.41D-01 WtEn= 5.59D-01
 Coeff-Com:  0.638D+00 0.362D+00
 Coeff-En:   0.713D+00 0.287D+00
 Coeff:      0.680D+00 0.320D+00
 Gap=     0.210 Goal=   None    Shift=    0.000
 RMSDP=4.51D-06 MaxDP=1.31D-04 DE= 9.97D-07 OVMax= 2.98D-04

 Cycle  10  Pass 1  IDiag  1:
 RMSU=  1.37D-06    CP:  1.00D+00  4.80D-01
 E= -379.988108896756     Delta-E=       -0.000001475522 Rises=F Damp=F
 DIIS: error= 1.71D-05 at cycle   3 NSaved=   3.
 NSaved= 3 IEnMin= 3 EnMin= -379.988108896756     IErMin= 3 ErrMin= 1.71D-05
 ErrMax= 1.71D-05  0.00D+00 EMaxC= 1.00D-01 BMatC= 2.30D-08 BMatP= 4.88D-07
 IDIUse=1 WtCom= 1.00D+00 WtEn= 0.00D+00
 Coeff-Com:  0.305D+00 0.108D+00 0.587D+00
 Coeff:      0.305D+00 0.108D+00 0.587D+00
 Gap=     0.210 Goal=   None    Shift=    0.000
 RMSDP=8.73D-07 MaxDP=3.07D-05 DE=-1.48D-06 OVMax= 6.21D-05

 Cycle  11  Pass 1  IDiag  1:
 RMSU=  6.31D-07    CP:  1.00D+00  4.09D-01  1.05D+00
 E= -379.988108917360     Delta-E=       -0.000000020604 Rises=F Damp=F
 DIIS: error= 5.17D-06 at cycle   4 NSaved=   4.
 NSaved= 4 IEnMin= 4 EnMin= -379.988108917360     IErMin= 4 ErrMin= 5.17D-06
 ErrMax= 5.17D-06  0.00D+00 EMaxC= 1.00D-01 BMatC= 2.24D-09 BMatP= 2.30D-08
 IDIUse=1 WtCom= 1.00D+00 WtEn= 0.00D+00
 Coeff-Com:  0.168D-01-0.382D-01 0.409D+00 0.613D+00
 Coeff:      0.168D-01-0.382D-01 0.409D+00 0.613D+00
 Gap=     0.210 Goal=   None    Shift=    0.000
 RMSDP=3.01D-07 MaxDP=1.09D-05 DE=-2.06D-08 OVMax= 1.94D-05

 Cycle  12  Pass 1  IDiag  1:
 RMSU=  1.07D-07    CP:  1.00D+00  4.13D-01  1.10D+00  5.84D-01
 E= -379.988108919553     Delta-E=       -0.000000002193 Rises=F Damp=F
 DIIS: error= 7.93D-07 at cycle   5 NSaved=   5.
 NSaved= 5 IEnMin= 5 EnMin= -379.988108919553     IErMin= 5 ErrMin= 7.93D-07
 ErrMax= 7.93D-07  0.00D+00 EMaxC= 1.00D-01 BMatC= 8.47D-11 BMatP= 2.24D-09
 IDIUse=1 WtCom= 1.00D+00 WtEn= 0.00D+00
 Coeff-Com: -0.909D-03-0.237D-01 0.196D+00 0.331D+00 0.498D+00
 Coeff:     -0.909D-03-0.237D-01 0.196D+00 0.331D+00 0.498D+00
 Gap=     0.210 Goal=   None    Shift=    0.000
 RMSDP=5.80D-08 MaxDP=1.46D-06 DE=-2.19D-09 OVMax= 5.88D-06

 Cycle  13  Pass 1  IDiag  1:
 RMSU=  4.43D-08    CP:  1.00D+00  4.13D-01  1.11D+00  6.07D-01  6.84D-01
 E= -379.988108919634     Delta-E=       -0.000000000081 Rises=F Damp=F
 DIIS: error= 5.28D-07 at cycle   6 NSaved=   6.
 NSaved= 6 IEnMin= 6 EnMin= -379.988108919634     IErMin= 6 ErrMin= 5.28D-07
 ErrMax= 5.28D-07  0.00D+00 EMaxC= 1.00D-01 BMatC= 1.82D-11 BMatP= 8.47D-11
 IDIUse=1 WtCom= 1.00D+00 WtEn= 0.00D+00
 Coeff-Com: -0.500D-02-0.818D-02 0.433D-01 0.916D-01 0.323D+00 0.556D+00
 Coeff:     -0.500D-02-0.818D-02 0.433D-01 0.916D-01 0.323D+00 0.556D+00
 Gap=     0.210 Goal=   None    Shift=    0.000
 RMSDP=2.02D-08 MaxDP=3.64D-07 DE=-8.07D-11 OVMax= 2.32D-06

 Cycle  14  Pass 1  IDiag  1:
 RMSU=  1.22D-08    CP:  1.00D+00  4.13D-01  1.11D+00  6.11D-01  7.91D-01
                    CP:  7.63D-01
 E= -379.988108919652     Delta-E=       -0.000000000018 Rises=F Damp=F
 DIIS: error= 7.37D-08 at cycle   7 NSaved=   7.
 NSaved= 7 IEnMin= 7 EnMin= -379.988108919652     IErMin= 7 ErrMin= 7.37D-08
 ErrMax= 7.37D-08  0.00D+00 EMaxC= 1.00D-01 BMatC= 6.58D-13 BMatP= 1.82D-11
 IDIUse=1 WtCom= 1.00D+00 WtEn= 0.00D+00
 Coeff-Com: -0.198D-02-0.136D-02 0.702D-03 0.737D-02 0.893D-01 0.212D+00
 Coeff-Com:  0.694D+00
 Coeff:     -0.198D-02-0.136D-02 0.702D-03 0.737D-02 0.893D-01 0.212D+00
 Coeff:      0.694D+00
 Gap=     0.210 Goal=   None    Shift=    0.000
 RMSDP=5.56D-09 MaxDP=1.04D-07 DE=-1.82D-11 OVMax= 6.57D-07

 SCF Done:  E(RB3LYP) =  -379.988108920     A.U. after   14 cycles
            NFock= 14  Conv=0.56D-08     -V/T= 2.0038
 KE= 3.785365469902D+02 PE=-1.694355851707D+03 EE= 5.306016436411D+02
 Leave Link  502 at Wed Apr 20 09:13:54 2022, MaxMem=  5242880000 cpu:              92.6 elap:               9.3
 (Enter /data0/hywu0/study/g16/l601.exe)
 Copying SCF densities to generalized density rwf, IOpCl= 0 IROHF=0.

 **********************************************************************

            Population analysis using the SCF density.

 **********************************************************************

 Orbital symmetries:
       Occupied  (A) (A) (A) (A) (A) (A) (A) (A) (A) (A) (A) (A)
                 (A) (A) (A) (A) (A) (A) (A) (A) (A) (A) (A) (A)
                 (A) (A) (A) (A) (A) (A) (A)
       Virtual   (A) (A) (A) (A) (A) (A) (A) (A) (A) (A) (A) (A)
                 (A) (A) (A) (A) (A) (A) (A) (A) (A) (A) (A) (A)
                 (A) (A) (A) (A) (A) (A) (A) (A) (A) (A) (A) (A)
                 (A) (A) (A) (A) (A) (A) (A) (A) (A) (A) (A) (A)
                 (A) (A) (A) (A) (A) (A) (A) (A) (A) (A) (A) (A)
                 (A) (A) (A) (A) (A) (A) (A) (A) (A) (A) (A) (A)
                 (A) (A) (A) (A) (A) (A) (A) (A) (A) (A) (A) (A)
                 (A) (A) (A) (A) (A) (A) (A) (A) (A) (A) (A) (A)
                 (A) (A) (A) (A) (A) (A) (A) (A) (A) (A) (A) (A)
                 (A) (A) (A) (A) (A) (A) (A) (A) (A) (A) (A) (A)
                 (A) (A) (A) (A) (A) (A) (A) (A) (A) (A) (A) (A)
                 (A) (A) (A) (A) (A) (A) (A) (A) (A) (A) (A) (A)
                 (A) (A) (A) (A) (A) (A) (A) (A) (A) (A) (A) (A)
                 (A) (A) (A) (A) (A) (A) (A) (A) (A) (A) (A)
 The electronic state is 1-A.
 Alpha  occ. eigenvalues --  -14.37046 -14.29381 -10.23752 -10.21071 -10.19172
 Alpha  occ. eigenvalues --  -10.17954 -10.17286 -10.17005 -10.16772  -1.02475
 Alpha  occ. eigenvalues --   -0.88557  -0.84892  -0.74829  -0.74144  -0.63763
 Alpha  occ. eigenvalues --   -0.62566  -0.60317  -0.55254  -0.50423  -0.48664
 Alpha  occ. eigenvalues --   -0.44895  -0.44807  -0.43964  -0.41998  -0.37049
 Alpha  occ. eigenvalues --   -0.36057  -0.34782  -0.31224  -0.27702  -0.23613
 Alpha  occ. eigenvalues --   -0.23257
 Alpha virt. eigenvalues --   -0.02286   0.01396   0.02953   0.04673   0.05386
 Alpha virt. eigenvalues --    0.07529   0.08743   0.11035   0.12815   0.16894
 Alpha virt. eigenvalues --    0.19720   0.20392   0.23861   0.25219   0.27567
 Alpha virt. eigenvalues --    0.28210   0.29814   0.32440   0.35965   0.37708
 Alpha virt. eigenvalues --    0.38296   0.39669   0.40147   0.41377   0.42182
 Alpha virt. eigenvalues --    0.43189   0.44584   0.44660   0.47677   0.47775
 Alpha virt. eigenvalues --    0.49879   0.52583   0.53181   0.54211   0.59245
 Alpha virt. eigenvalues --    0.59966   0.60474   0.61355   0.61816   0.62723
 Alpha virt. eigenvalues --    0.64289   0.66999   0.68406   0.68603   0.71771
 Alpha virt. eigenvalues --    0.73521   0.74530   0.74645   0.77849   0.80041
 Alpha virt. eigenvalues --    0.82147   0.85680   0.86143   0.91815   0.96038
 Alpha virt. eigenvalues --    0.96127   0.97054   0.99850   1.00459   1.07128
 Alpha virt. eigenvalues --    1.08245   1.08593   1.12260   1.15031   1.16227
 Alpha virt. eigenvalues --    1.18192   1.21220   1.22158   1.28100   1.33825
 Alpha virt. eigenvalues --    1.35600   1.37281   1.44266   1.45391   1.52216
 Alpha virt. eigenvalues --    1.53146   1.54789   1.55029   1.57647   1.58504
 Alpha virt. eigenvalues --    1.61332   1.63325   1.68612   1.69342   1.70890
 Alpha virt. eigenvalues --    1.74102   1.74591   1.77315   1.82447   1.83037
 Alpha virt. eigenvalues --    1.86510   1.87281   1.89586   1.90190   1.90824
 Alpha virt. eigenvalues --    1.92334   1.95503   1.96751   2.01398   2.02440
 Alpha virt. eigenvalues --    2.06779   2.19108   2.19372   2.24743   2.24773
 Alpha virt. eigenvalues --    2.27345   2.28214   2.30939   2.36963   2.40109
 Alpha virt. eigenvalues --    2.45262   2.47103   2.50871   2.52771   2.57522
 Alpha virt. eigenvalues --    2.58569   2.60131   2.60568   2.61705   2.62543
 Alpha virt. eigenvalues --    2.64695   2.66237   2.67251   2.71481   2.72944
 Alpha virt. eigenvalues --    2.75250   2.75810   2.78595   2.79156   2.85595
 Alpha virt. eigenvalues --    2.85907   2.88438   2.96794   2.98816   3.04195
 Alpha virt. eigenvalues --    3.05343   3.10928   3.26579   3.31970   3.39427
 Alpha virt. eigenvalues --    3.42526   3.47164   3.48468   3.54872   3.64587
 Alpha virt. eigenvalues --    3.64953   3.75760   3.78481   3.84377   3.94129
 Alpha virt. eigenvalues --    4.02712   4.08100   4.12704   4.42965   4.79037
 Alpha virt. eigenvalues --    4.83103   4.95087   5.25150  23.52542  23.90114
 Alpha virt. eigenvalues --   23.91365  23.96564  24.05983  24.11818  24.19401
 Alpha virt. eigenvalues --   35.53204  35.70883
          Condensed to atoms (all electrons):
               1          2          3          4          5          6
     1  C    5.177255   0.297541   0.022217  -0.076752  -0.016693   0.352240
     2  C    0.297541   5.063638   0.448241  -0.026814  -0.057530   0.003770
     3  C    0.022217   0.448241   4.810781   0.520162  -0.045913  -0.048170
     4  C   -0.076752  -0.026814   0.520162   4.900058   0.497573  -0.049246
     5  C   -0.016693  -0.057530  -0.045913   0.497573   4.857689   0.527961
     6  C    0.352240   0.003770  -0.048170  -0.049246   0.527961   4.911261
     7  H    0.015918  -0.058350   0.415877  -0.048753   0.009592  -0.002785
     8  H   -0.001817   0.010562  -0.043493   0.417901  -0.046890   0.009349
     9  H    0.010541  -0.001203   0.008421  -0.043631   0.414539  -0.044088
    10  H   -0.043643   0.006858  -0.000377   0.006872  -0.031937   0.405843
    11  H   -0.034136   0.010612  -0.000622   0.000121  -0.000216   0.002002
    12  C   -0.120368  -0.177480   0.005371  -0.000500  -0.000152   0.006472
    13  H    0.005116   0.004810  -0.000410   0.000019   0.000021  -0.000251
    14  N    0.372065  -0.059573   0.005734   0.000828   0.003297  -0.043875
    15  N   -0.137516   0.552208  -0.045980   0.005828  -0.001546   0.014720
               7          8          9         10         11         12
     1  C    0.015918  -0.001817   0.010541  -0.043643  -0.034136  -0.120368
     2  C   -0.058350   0.010562  -0.001203   0.006858   0.010612  -0.177480
     3  C    0.415877  -0.043493   0.008421  -0.000377  -0.000622   0.005371
     4  C   -0.048753   0.417901  -0.043631   0.006872   0.000121  -0.000500
     5  C    0.009592  -0.046890   0.414539  -0.031937  -0.000216  -0.000152
     6  C   -0.002785   0.009349  -0.044088   0.405843   0.002002   0.006472
     7  H    0.578663  -0.009587  -0.000204   0.000076   0.000008  -0.000377
     8  H   -0.009587   0.580713  -0.008530  -0.000329  -0.000002   0.000036
     9  H   -0.000204  -0.008530   0.580472  -0.008544  -0.000019   0.000021
    10  H    0.000076  -0.000329  -0.008544   0.578950   0.002483  -0.000609
    11  H    0.000008  -0.000002  -0.000019   0.002483   0.460807  -0.025417
    12  C   -0.000377   0.000036   0.000021  -0.000609  -0.025417   4.712961
    13  H   -0.000012  -0.000001  -0.000001  -0.000006  -0.001789   0.414579
    14  N   -0.000076   0.000007  -0.000207  -0.003216   0.350973   0.403153
    15  N    0.003695  -0.000126  -0.000017  -0.000185   0.005930   0.605596
              13         14         15
     1  C    0.005116   0.372065  -0.137516
     2  C    0.004810  -0.059573   0.552208
     3  C   -0.000410   0.005734  -0.045980
     4  C    0.000019   0.000828   0.005828
     5  C    0.000021   0.003297  -0.001546
     6  C   -0.000251  -0.043875   0.014720
     7  H   -0.000012  -0.000076   0.003695
     8  H   -0.000001   0.000007  -0.000126
     9  H   -0.000001  -0.000207  -0.000017
    10  H   -0.000006  -0.003216  -0.000185
    11  H   -0.001789   0.350973   0.005930
    12  C    0.414579   0.403153   0.605596
    13  H    0.530722  -0.040090  -0.022760
    14  N   -0.040090   6.521512  -0.090222
    15  N   -0.022760  -0.090222   6.425065
 Mulliken charges:
               1
     1  C    0.178033
     2  C   -0.017290
     3  C   -0.051838
     4  C   -0.103668
     5  C   -0.109796
     6  C   -0.045202
     7  H    0.096316
     8  H    0.092208
     9  H    0.092448
    10  H    0.087764
    11  H    0.229263
    12  C    0.176712
    13  H    0.110051
    14  N   -0.420310
    15  N   -0.314689
 Sum of Mulliken charges =  -0.00000
 Mulliken charges with hydrogens summed into heavy atoms:
               1
     1  C    0.178033
     2  C   -0.017290
     3  C    0.044477
     4  C   -0.011460
     5  C   -0.017348
     6  C    0.042562
    12  C    0.286763
    14  N   -0.191047
    15  N   -0.314689
 Electronic spatial extent (au):  <R**2>=            970.2794
 Charge=             -0.0000 electrons
 Dipole moment (field-independent basis, Debye):
    X=             -0.8336    Y=              3.3772    Z=             -0.0002  Tot=              3.4786
 Quadrupole moment (field-independent basis, Debye-Ang):
   XX=            -43.4324   YY=            -47.8590   ZZ=            -55.6319
   XY=             -7.4473   XZ=              0.0005   YZ=              0.0002
 Traceless Quadrupole moment (field-independent basis, Debye-Ang):
   XX=              5.5420   YY=              1.1154   ZZ=             -6.6574
   XY=             -7.4473   XZ=              0.0005   YZ=              0.0002
 Octapole moment (field-independent basis, Debye-Ang**2):
  XXX=            -20.1783  YYY=             18.6030  ZZZ=              0.0005  XYY=              1.6102
  XXY=             14.7235  XXZ=              0.0039  XZZ=             -5.1084  YZZ=              0.4309
  YYZ=             -0.0028  XYZ=              0.0014
 Hexadecapole moment (field-independent basis, Debye-Ang**3):
 XXXX=           -739.5006 YYYY=           -366.5058 ZZZZ=            -59.4866 XXXY=            -30.1951
 XXXZ=             -0.0112 YYYX=            -40.5060 YYYZ=             -0.0007 ZZZX=             -0.0005
 ZZZY=             -0.0019 XXYY=           -199.0896 XXZZ=           -167.9678 YYZZ=            -84.0818
 XXYZ=             -0.0017 YYXZ=              0.0078 ZZXY=             -1.7419
 N-N= 4.052295521562D+02 E-N=-1.694355840540D+03  KE= 3.785365469902D+02
 No NMR shielding tensors so no spin-rotation constants.
 Leave Link  601 at Wed Apr 20 09:13:54 2022, MaxMem=  5242880000 cpu:               0.7 elap:               0.1
 (Enter /data0/hywu0/study/g16/l701.exe)
 ... and contract with generalized density number  0.
 Compute integral first derivatives.
 R6Disp: Adding Grimme-D3(BJ) dispersion energy 1st derivatives to the gradient.
 Leave Link  701 at Wed Apr 20 09:13:54 2022, MaxMem=  5242880000 cpu:               0.9 elap:               0.1
 (Enter /data0/hywu0/study/g16/l702.exe)
 L702 exits ... SP integral derivatives will be done elsewhere.
 Leave Link  702 at Wed Apr 20 09:13:54 2022, MaxMem=  5242880000 cpu:               0.2 elap:               0.0
 (Enter /data0/hywu0/study/g16/l703.exe)
 Integral derivatives from FoFJK, PRISM(SPDF).
 Compute integral first derivatives, UseDBF=F ICtDFT=           0.
 Calling FoFJK, ICntrl=      2127 FMM=F ISym2X=0 I1Cent= 0 IOpClX= 0 NMat=1 NMatS=1 NMatT=0.
 FoFJK:  IHMeth= 1 ICntrl=    2127 DoSepK=F KAlg= 0 I1Cent=           0 FoldK=F
 IRaf=         0 NMat=       1 IRICut=       1 DoRegI=T DoRafI=F ISym2E= 0 IDoP0=0 IntGTp=1.
 FoFCou: FMM=F IPFlag=           0 FMFlag=      100000 FMFlg1=         800
         NFxFlg=           0 DoJE=F BraDBF=F KetDBF=F FulRan=T
         wScrn=  0.000000 ICntrl=      2127 IOpCl=  0 I1Cent=           0 NGrid=           0
         NMat0=    1 NMatS0=      1 NMatT0=    0 NMatD0=    1 NMtDS0=    0 NMtDT0=    0
 Symmetry not used in FoFCou.
 Leave Link  703 at Wed Apr 20 09:13:56 2022, MaxMem=  5242880000 cpu:              21.7 elap:               2.2
 (Enter /data0/hywu0/study/g16/l716.exe)
 Dipole        =-3.27971625D-01 1.32870353D+00-9.06362818D-05
 ***** Axes restored to original set *****
 -------------------------------------------------------------------
 Center     Atomic                   Forces (Hartrees/Bohr)
 Number     Number              X              Y              Z
 -------------------------------------------------------------------
      1        6           0.005519477    0.003154757    0.000022928
      2        6          -0.005953407    0.002745266   -0.000049153
      3        6          -0.001290831   -0.001340343   -0.000000641
      4        6           0.000542080    0.002528394   -0.000009497
      5        6          -0.000562837    0.002851025   -0.000018370
      6        6           0.001011334   -0.002352405    0.000018358
      7        1           0.000053122   -0.000114984    0.000001748
      8        1          -0.000086102    0.000350866    0.000001149
      9        1           0.000008650    0.000343619    0.000001457
     10        1           0.000317915    0.000106066   -0.000001543
     11        1           0.000140011    0.000326667   -0.000004947
     12        6           0.002022445   -0.009420035   -0.000031096
     13        1           0.000033809   -0.000064000    0.000024810
     14        7           0.003962993   -0.000758390   -0.000008761
     15        7          -0.005718658    0.001643498    0.000053557
 -------------------------------------------------------------------
 Cartesian Forces:  Max     0.009420035 RMS     0.002373823
 Leave Link  716 at Wed Apr 20 09:13:56 2022, MaxMem=  5242880000 cpu:               0.2 elap:               0.0
 (Enter /data0/hywu0/study/g16/l103.exe)

 GradGradGradGradGradGradGradGradGradGradGradGradGradGradGradGradGradGrad
 Berny optimization.
 FormGI is forming the generalized inverse of G from B-inverse, IUseBI=4.
 Internal  Forces:  Max     0.007641862 RMS     0.001569227
 Search for a local minimum.
 Step number   1 out of a maximum of   87
 All quantities printed in internal units (Hartrees-Bohrs-Radians)
 RMS Force = .15692D-02 SwitMx=.10000D-02 MixMth= 1
 Mixed Optimization -- RFO/linear search
 Second derivative matrix not updated -- first step.
 ITU=  0
     Eigenvalues ---    0.01999   0.02020   0.02027   0.02050   0.02100
     Eigenvalues ---    0.02144   0.02157   0.02219   0.02227   0.02238
     Eigenvalues ---    0.02289   0.02462   0.16000   0.16000   0.16000
     Eigenvalues ---    0.16000   0.16000   0.16000   0.22000   0.22493
     Eigenvalues ---    0.22796   0.24459   0.24813   0.35605   0.35616
     Eigenvalues ---    0.35623   0.35655   0.35912   0.38037   0.42744
     Eigenvalues ---    0.43201   0.44269   0.45920   0.46589   0.47483
     Eigenvalues ---    0.47929   0.48115   0.49220   0.64286
 RFO step:  Lambda=-3.84421532D-04 EMin= 1.99938032D-02
 Linear search not attempted -- first point.
 Iteration  1 RMS(Cart)=  0.00515675 RMS(Int)=  0.00000650
 Iteration  2 RMS(Cart)=  0.00000659 RMS(Int)=  0.00000129
 Iteration  3 RMS(Cart)=  0.00000000 RMS(Int)=  0.00000129
 ITry= 1 IFail=0 DXMaxC= 2.22D-02 DCOld= 1.00D+10 DXMaxT= 3.00D-01 DXLimC= 3.00D+00 Rises=F
 Variable       Old X    -DE/DX   Delta X   Delta X   Delta X     New X
                                 (Linear)    (Quad)   (Total)
    R1        2.65887   0.00600   0.00000   0.01287   0.01287   2.67174
    R2        2.63492   0.00072   0.00000   0.00154   0.00154   2.63646
    R3        2.60870   0.00438   0.00000   0.00858   0.00858   2.61728
    R4        2.64092   0.00113   0.00000   0.00250   0.00250   2.64342
    R5        2.62067   0.00377   0.00000   0.00785   0.00785   2.62852
    R6        2.61466   0.00320   0.00000   0.00660   0.00660   2.62126
    R7        2.04625  -0.00005   0.00000  -0.00014  -0.00014   2.04611
    R8        2.65953   0.00095   0.00000   0.00209   0.00209   2.66162
    R9        2.04675   0.00035   0.00000   0.00097   0.00097   2.04773
   R10        2.61710   0.00349   0.00000   0.00721   0.00721   2.62431
   R11        2.04704   0.00031   0.00000   0.00086   0.00086   2.04790
   R12        2.04686   0.00032   0.00000   0.00090   0.00090   2.04776
   R13        1.90172   0.00001   0.00000   0.00003   0.00003   1.90175
   R14        2.04219   0.00007   0.00000   0.00018   0.00018   2.04237
   R15        2.59328   0.00502   0.00000   0.01032   0.01032   2.60360
   R16        2.45434   0.00764   0.00000   0.01175   0.01175   2.46609
    A1        2.13898  -0.00064   0.00000  -0.00190  -0.00190   2.13708
    A2        1.82398   0.00042   0.00000  -0.00005  -0.00006   1.82392
    A3        2.32023   0.00023   0.00000   0.00195   0.00195   2.32218
    A4        2.09221  -0.00046   0.00000  -0.00145  -0.00145   2.09076
    A5        1.92645  -0.00058   0.00000  -0.00334  -0.00335   1.92310
    A6        2.26452   0.00104   0.00000   0.00480   0.00480   2.26932
    A7        2.05892   0.00049   0.00000   0.00192   0.00192   2.06085
    A8        2.09616  -0.00036   0.00000  -0.00171  -0.00170   2.09445
    A9        2.12810  -0.00012   0.00000  -0.00022  -0.00022   2.12789
   A10        2.11877   0.00002   0.00000  -0.00033  -0.00033   2.11844
   A11        2.08757   0.00009   0.00000   0.00080   0.00080   2.08837
   A12        2.07684  -0.00011   0.00000  -0.00047  -0.00047   2.07637
   A13        2.12216  -0.00000   0.00000  -0.00052  -0.00052   2.12163
   A14        2.08056  -0.00016   0.00000  -0.00073  -0.00073   2.07983
   A15        2.08047   0.00016   0.00000   0.00126   0.00126   2.08172
   A16        2.03533   0.00060   0.00000   0.00227   0.00227   2.03760
   A17        2.12862  -0.00020   0.00000  -0.00050  -0.00049   2.12812
   A18        2.11924  -0.00040   0.00000  -0.00178  -0.00178   2.11746
   A19        2.11530   0.00089   0.00000   0.00308   0.00308   2.11838
   A20        2.18443   0.00095   0.00000   0.00349   0.00349   2.18792
   A21        1.98346  -0.00184   0.00000  -0.00658  -0.00657   1.97688
   A22        2.21636  -0.00079   0.00000  -0.00411  -0.00411   2.21225
   A23        1.86239   0.00090   0.00000   0.00400   0.00400   1.86639
   A24        2.20444  -0.00011   0.00000   0.00010   0.00010   2.20455
   A25        1.82850   0.00110   0.00000   0.00597   0.00598   1.83448
    D1       -0.00002   0.00000   0.00000   0.00004   0.00004   0.00001
    D2        3.14129   0.00001   0.00000   0.00058   0.00058  -3.14131
    D3        3.14141   0.00001   0.00000   0.00032   0.00032  -3.14145
    D4       -0.00046   0.00002   0.00000   0.00086   0.00086   0.00040
    D5        0.00004  -0.00000   0.00000  -0.00009  -0.00009  -0.00005
    D6        3.14157   0.00000   0.00000   0.00008   0.00008  -3.14154
    D7       -3.14135  -0.00001   0.00000  -0.00047  -0.00047   3.14137
    D8        0.00019  -0.00001   0.00000  -0.00030  -0.00030  -0.00011
    D9       -3.14137  -0.00000   0.00000  -0.00019  -0.00019  -3.14156
   D10        0.00024  -0.00001   0.00000  -0.00041  -0.00041  -0.00017
   D11        0.00004   0.00000   0.00000   0.00014   0.00014   0.00017
   D12       -3.14153  -0.00000   0.00000  -0.00008  -0.00008   3.14157
   D13       -0.00000   0.00000   0.00000   0.00003   0.00003   0.00003
   D14        3.14150   0.00000   0.00000   0.00021   0.00021  -3.14147
   D15       -3.14126  -0.00001   0.00000  -0.00063  -0.00063   3.14129
   D16        0.00024  -0.00001   0.00000  -0.00045  -0.00045  -0.00021
   D17        0.00049  -0.00002   0.00000  -0.00098  -0.00098  -0.00049
   D18       -3.14141  -0.00001   0.00000  -0.00036  -0.00036   3.14141
   D19        0.00001  -0.00000   0.00000  -0.00004  -0.00004  -0.00003
   D20        3.14153   0.00000   0.00000   0.00009   0.00009  -3.14156
   D21       -3.14149  -0.00000   0.00000  -0.00023  -0.00023   3.14147
   D22        0.00003  -0.00000   0.00000  -0.00009  -0.00009  -0.00006
   D23        0.00000  -0.00000   0.00000  -0.00002  -0.00001  -0.00001
   D24        3.14149   0.00000   0.00000   0.00008   0.00008   3.14157
   D25       -3.14152  -0.00000   0.00000  -0.00015  -0.00015   3.14152
   D26       -0.00003  -0.00000   0.00000  -0.00006  -0.00006  -0.00008
   D27       -0.00003   0.00000   0.00000   0.00008   0.00008   0.00005
   D28       -3.14156  -0.00000   0.00000  -0.00009  -0.00009   3.14154
   D29       -3.14152  -0.00000   0.00000  -0.00001  -0.00001  -3.14153
   D30        0.00014  -0.00000   0.00000  -0.00018  -0.00018  -0.00004
   D31        3.14082   0.00002   0.00000   0.00084   0.00084  -3.14152
   D32       -0.00075   0.00001   0.00000   0.00063   0.00063  -0.00012
   D33        0.00006  -0.00001   0.00000  -0.00020  -0.00020  -0.00014
   D34       -3.14151  -0.00001   0.00000  -0.00042  -0.00042   3.14126
   D35       -3.14106  -0.00001   0.00000  -0.00037  -0.00037  -3.14143
   D36       -0.00034   0.00002   0.00000   0.00072   0.00072   0.00038
         Item               Value     Threshold  Converged?
 Maximum Force            0.007642     0.000450     NO 
 RMS     Force            0.001569     0.000300     NO 
 Maximum Displacement     0.022189     0.001800     NO 
 RMS     Displacement     0.005157     0.001200     NO 
 Predicted change in Energy=-1.923651D-04
 Lowest energy point so far.  Saving SCF results.
 GradGradGradGradGradGradGradGradGradGradGradGradGradGradGradGradGradGrad

 Leave Link  103 at Wed Apr 20 09:13:56 2022, MaxMem=  5242880000 cpu:               0.1 elap:               0.0
 (Enter /data0/hywu0/study/g16/l202.exe)
                          Input orientation:                          
 ---------------------------------------------------------------------
 Center     Atomic      Atomic             Coordinates (Angstroms)
 Number     Number       Type             X           Y           Z
 ---------------------------------------------------------------------
      1          6           0        2.864405   -1.626467    0.730632
      2          6           0        1.451130   -1.665821    0.732234
      3          6           0        0.722593   -0.471682    0.728742
      4          6           0        1.427336    0.723051    0.723733
      5          6           0        2.835651    0.743763    0.722202
      6          6           0        3.579837   -0.428725    0.725650
      7          1           0       -0.359846   -0.497826    0.730066
      8          1           0        0.888646    1.663272    0.720976
      9          1           0        3.349797    1.697727    0.718227
     10          1           0        4.663272   -0.408265    0.724404
     11          1           0        4.190131   -3.312128    0.735038
     12          6           0        2.093411   -3.708228    0.738765
     13          1           0        2.124725   -4.788543    0.742536
     14          7           0        3.248448   -2.957157    0.734779
     15          7           0        1.007692   -2.984185    0.737727
 ---------------------------------------------------------------------
                    Distance matrix (angstroms):
                    1          2          3          4          5
     1  C    0.000000
     2  C    1.413824   0.000000
     3  C    2.433288   1.398837   0.000000
     4  C    2.754170   2.389006   1.387110   0.000000
     5  C    2.370420   2.779046   2.437697   1.408469   0.000000
     6  C    1.395154   2.462082   2.857569   2.441281   1.388723
     7  H    3.416083   2.154959   1.082755   2.164393   3.428236
     8  H    3.837461   3.376297   2.141417   1.083610   2.153214
     9  H    3.359468   3.862459   3.407147   2.155431   1.083702
    10  H    2.172551   3.449546   3.941192   3.427997   2.160410
    11  H    2.144532   3.195694   4.482409   4.890382   4.276100
    12  C    2.219961   2.141026   3.514893   4.481084   4.513471
    13  H    3.247459   3.194562   4.538882   5.555571   5.577835
    14  N    1.385005   2.213122   3.543665   4.106154   3.723891
    15  N    2.300180   1.390953   2.528643   3.730937   4.152020
                    6          7          8          9         10
     6  C    0.000000
     7  H    3.940291   0.000000
     8  H    3.408663   2.495828   0.000000
     9  H    2.138871   4.310690   2.461394   0.000000
    10  H    1.083629   5.023919   4.305704   2.482027   0.000000
    11  H    2.947297   5.350010   5.971148   5.079871   2.942175
    12  C    3.600663   4.040449   5.504979   5.550070   4.182601
    13  H    4.596265   4.958175   6.569191   6.600992   5.062745
    14  N    2.550072   4.366705   5.188181   4.656016   2.915250
    15  N    3.625804   2.837640   4.649012   5.235087   4.472002
                   11         12         13         14         15
    11  H    0.000000
    12  C    2.133809   0.000000
    13  H    2.538850   1.080775   0.000000
    14  N    1.006365   1.377764   2.148672   0.000000
    15  N    3.199292   1.305000   2.122143   2.240921   0.000000
 Stoichiometry    C7H6N2
 Framework group  C1[X(C7H6N2)]
 Deg. of freedom    39
 Full point group                 C1      NOp   1
 RotChk:  IX=0 Diff= 5.25D-04
 Largest Abelian subgroup         C1      NOp   1
 Largest concise Abelian subgroup C1      NOp   1
                         Standard orientation:                         
 ---------------------------------------------------------------------
 Center     Atomic      Atomic             Coordinates (Angstroms)
 Number     Number       Type             X           Y           Z
 ---------------------------------------------------------------------
      1          6           0       -0.257540    0.689494   -0.000043
      2          6           0       -0.265074   -0.724310    0.000052
      3          6           0        0.945168   -1.425780    0.000092
      4          6           0        2.123743   -0.694320    0.000069
      5          6           0        2.112752    0.714106   -0.000026
      6          6           0        0.923803    1.431709   -0.000116
      7          1           0        0.943394   -2.508534    0.000054
      8          1           0        3.075857   -1.211707    0.000069
      9          1           0        3.054908    1.249598   -0.000016
     10          1           0        0.919872    2.515330   -0.000137
     11          1           0       -1.972623    1.976937    0.000096
     12          6           0       -2.321433   -0.128169    0.000089
     13          1           0       -3.402185   -0.121184    0.000133
     14          7           0       -1.596544    1.043484    0.000127
     15          7           0       -1.573133   -1.197315   -0.000255
 ---------------------------------------------------------------------
 Rotational constants (GHZ):           3.9469004           1.6757175           1.1763008
 Leave Link  202 at Wed Apr 20 09:13:56 2022, MaxMem=  5242880000 cpu:               0.0 elap:               0.0
 (Enter /data0/hywu0/study/g16/l301.exe)
 Standard basis: 6-311G(d,p) (5D, 7F)
 Ernie: Thresh=  0.10000D-02 Tol=  0.10000D-05 Strict=F.
 There are   207 symmetry adapted cartesian basis functions of A   symmetry.
 There are   198 symmetry adapted basis functions of A   symmetry.
   198 basis functions,   336 primitive gaussians,   207 cartesian basis functions
    31 alpha electrons       31 beta electrons
       nuclear repulsion energy       404.1955724713 Hartrees.
 IExCor=  402 DFT=T Ex+Corr=B3LYP ExCW=0 ScaHFX=  0.200000
 ScaDFX=  0.800000  0.720000  1.000000  0.810000 ScalE2=  1.000000  1.000000
 IRadAn=      5 IRanWt=     -1 IRanGd=            0 ICorTp=0 IEmpDi=141
 NAtoms=   15 NActive=   15 NUniq=   15 SFac= 1.00D+00 NAtFMM=   60 NAOKFM=F Big=F
 Integral buffers will be    131072 words long.
 Raffenetti 2 integral format.
 Two-electron integral symmetry is turned on.
 R6Disp:  Grimme-D3(BJ) Dispersion energy=       -0.0276560930 Hartrees.
 Nuclear repulsion after empirical dispersion term =      404.1679163782 Hartrees.
 Leave Link  301 at Wed Apr 20 09:13:56 2022, MaxMem=  5242880000 cpu:               0.4 elap:               0.0
 (Enter /data0/hywu0/study/g16/l302.exe)
 NPDir=0 NMtPBC=     1 NCelOv=     1 NCel=       1 NClECP=     1 NCelD=      1
         NCelK=      1 NCelE2=     1 NClLst=     1 CellRange=     0.0.
 One-electron integrals computed using PRISM.
 One-electron integral symmetry used in STVInt
 NBasis=   198 RedAO= T EigKep=  1.99D-04  NBF=   198
 NBsUse=   198 1.00D-06 EigRej= -1.00D+00 NBFU=   198
 Precomputing XC quadrature grid using
 IXCGrd= 4 IRadAn=           5 IRanWt=          -1 IRanGd=           0 AccXCQ= 0.00D+00.
 Generated NRdTot=       0 NPtTot=           0 NUsed=           0 NTot=          32
 NSgBfM=   207   207   207   207   207 MxSgAt=    15 MxSgA2=    15.
 Leave Link  302 at Wed Apr 20 09:13:56 2022, MaxMem=  5242880000 cpu:               1.3 elap:               0.1
 (Enter /data0/hywu0/study/g16/l303.exe)
 DipDrv:  MaxL=1.
 Leave Link  303 at Wed Apr 20 09:13:56 2022, MaxMem=  5242880000 cpu:               0.2 elap:               0.0
 (Enter /data0/hywu0/study/g16/l401.exe)
 Initial guess from the checkpoint file:  "BI.chk"
 B after Tr=    -0.000000    0.000000   -0.000000
         Rot=    1.000000   -0.000000    0.000000   -0.000190 Ang=  -0.02 deg.
 Guess basis will be translated and rotated to current coordinates.
 JPrj=2 DoOrth=T DoCkMO=T.
 Generating alternative initial guess.
 ExpMin= 1.03D-01 ExpMax= 6.29D+03 ExpMxC= 9.49D+02 IAcc=2 IRadAn=         4 AccDes= 0.00D+00
 Harris functional with IExCor=  402 and IRadAn=       4 diagonalized for initial guess.
 HarFok:  IExCor=  402 AccDes= 0.00D+00 IRadAn=         4 IDoV= 1 UseB2=F ITyADJ=14
 ICtDFT=  3500011 ScaDFX=  1.000000  1.000000  1.000000  1.000000
 FoFCou: FMM=F IPFlag=           0 FMFlag=      100000 FMFlg1=           0
         NFxFlg=           0 DoJE=T BraDBF=F KetDBF=T FulRan=T
         wScrn=  0.000000 ICntrl=       500 IOpCl=  0 I1Cent=   200000004 NGrid=           0
         NMat0=    1 NMatS0=      1 NMatT0=    0 NMatD0=    1 NMtDS0=    0 NMtDT0=    0
 Petite list used in FoFCou.
 Harris En= -379.990342940227    
 Leave Link  401 at Wed Apr 20 09:13:57 2022, MaxMem=  5242880000 cpu:               3.6 elap:               0.4
 (Enter /data0/hywu0/study/g16/l502.exe)
 Integral symmetry usage will be decided dynamically.
 Closed shell SCF:
 Using DIIS extrapolation, IDIIS=  1040.
 NGot=  5242880000 LenX=  5242790116 LenY=  5242746826
 Requested convergence on RMS density matrix=1.00D-08 within 128 cycles.
 Requested convergence on MAX density matrix=1.00D-06.
 Requested convergence on             energy=1.00D-06.
 No special actions if energy rises.
 Fock matrices will be formed incrementally for  20 cycles.
 Integral accuracy reduced to 1.0D-05 until final iterations.

 Cycle   1  Pass 0  IDiag  1:
 FoFJK:  IHMeth= 1 ICntrl=       0 DoSepK=F KAlg= 0 I1Cent=           0 FoldK=F
 IRaf= 950000000 NMat=       1 IRICut=       1 DoRegI=T DoRafI=F ISym2E= 0 IDoP0=0 IntGTp=1.
 FoFCou: FMM=F IPFlag=           0 FMFlag=      100000 FMFlg1=           0
         NFxFlg=           0 DoJE=F BraDBF=F KetDBF=F FulRan=T
         wScrn=  0.000000 ICntrl=         0 IOpCl=  0 I1Cent=           0 NGrid=           0
         NMat0=    1 NMatS0=      1 NMatT0=    0 NMatD0=    1 NMtDS0=    0 NMtDT0=    0
 Symmetry not used in FoFCou.
 E= -379.988234500681    
 DIIS: error= 4.96D-04 at cycle   1 NSaved=   1.
 NSaved= 1 IEnMin= 1 EnMin= -379.988234500681     IErMin= 1 ErrMin= 4.96D-04
 ErrMax= 4.96D-04  0.00D+00 EMaxC= 1.00D-01 BMatC= 6.15D-05 BMatP= 6.15D-05
 IDIUse=3 WtCom= 9.95D-01 WtEn= 4.96D-03
 Coeff-Com:  0.100D+01
 Coeff-En:   0.100D+01
 Coeff:      0.100D+01
 Gap=     0.865 Goal=   None    Shift=    0.000
 RMSDP=5.99D-05 MaxDP=1.24D-03              OVMax= 2.39D-03

 Cycle   2  Pass 0  IDiag  1:
 RMSU=  5.99D-05    CP:  1.00D+00
 E= -379.988283955260     Delta-E=       -0.000049454579 Rises=F Damp=F
 DIIS: error= 2.22D-04 at cycle   2 NSaved=   2.
 NSaved= 2 IEnMin= 2 EnMin= -379.988283955260     IErMin= 2 ErrMin= 2.22D-04
 ErrMax= 2.22D-04  0.00D+00 EMaxC= 1.00D-01 BMatC= 1.14D-05 BMatP= 6.15D-05
 IDIUse=3 WtCom= 9.98D-01 WtEn= 2.22D-03
 Coeff-Com:  0.224D+00 0.776D+00
 Coeff-En:   0.000D+00 0.100D+01
 Coeff:      0.224D+00 0.776D+00
 Gap=     0.208 Goal=   None    Shift=    0.000
 RMSDP=2.92D-05 MaxDP=7.47D-04 DE=-4.95D-05 OVMax= 1.66D-03

 Cycle   3  Pass 0  IDiag  1:
 RMSU=  2.79D-05    CP:  1.00D+00  8.59D-01
 E= -379.988286245143     Delta-E=       -0.000002289883 Rises=F Damp=F
 DIIS: error= 3.14D-04 at cycle   3 NSaved=   3.
 NSaved= 3 IEnMin= 3 EnMin= -379.988286245143     IErMin= 2 ErrMin= 2.22D-04
 ErrMax= 3.14D-04  0.00D+00 EMaxC= 1.00D-01 BMatC= 7.95D-06 BMatP= 1.14D-05
 IDIUse=3 WtCom= 9.97D-01 WtEn= 3.14D-03
 Coeff-Com:  0.787D-02 0.453D+00 0.539D+00
 Coeff-En:   0.000D+00 0.445D+00 0.555D+00
 Coeff:      0.784D-02 0.453D+00 0.539D+00
 Gap=     0.208 Goal=   None    Shift=    0.000
 RMSDP=1.69D-05 MaxDP=2.89D-04 DE=-2.29D-06 OVMax= 1.42D-03

 Cycle   4  Pass 0  IDiag  1:
 RMSU=  7.71D-06    CP:  1.00D+00  9.58D-01  5.05D-01
 E= -379.988293756456     Delta-E=       -0.000007511313 Rises=F Damp=F
 DIIS: error= 1.12D-04 at cycle   4 NSaved=   4.
 NSaved= 4 IEnMin= 4 EnMin= -379.988293756456     IErMin= 4 ErrMin= 1.12D-04
 ErrMax= 1.12D-04  0.00D+00 EMaxC= 1.00D-01 BMatC= 7.32D-07 BMatP= 7.95D-06
 IDIUse=3 WtCom= 9.99D-01 WtEn= 1.12D-03
 Coeff-Com: -0.656D-02 0.222D+00 0.335D+00 0.450D+00
 Coeff-En:   0.000D+00 0.000D+00 0.293D-01 0.971D+00
 Coeff:     -0.655D-02 0.222D+00 0.334D+00 0.451D+00
 Gap=     0.208 Goal=   None    Shift=    0.000
 RMSDP=4.02D-06 MaxDP=9.28D-05 DE=-7.51D-06 OVMax= 3.75D-04

 Initial convergence to 1.0D-05 achieved.  Increase integral accuracy.
 Cycle   5  Pass 1  IDiag  1:
 E= -379.988285752245     Delta-E=        0.000008004211 Rises=F Damp=F
 DIIS: error= 1.44D-05 at cycle   1 NSaved=   1.
 NSaved= 1 IEnMin= 1 EnMin= -379.988285752245     IErMin= 1 ErrMin= 1.44D-05
 ErrMax= 1.44D-05  0.00D+00 EMaxC= 1.00D-01 BMatC= 3.24D-08 BMatP= 3.24D-08
 IDIUse=1 WtCom= 1.00D+00 WtEn= 0.00D+00
 Coeff-Com:  0.100D+01
 Coeff:      0.100D+01
 Gap=     0.208 Goal=   None    Shift=    0.000
 RMSDP=4.02D-06 MaxDP=9.28D-05 DE= 8.00D-06 OVMax= 1.19D-04

 Cycle   6  Pass 1  IDiag  1:
 RMSU=  2.64D-06    CP:  1.00D+00
 E= -379.988285728872     Delta-E=        0.000000023373 Rises=F Damp=F
 DIIS: error= 2.22D-05 at cycle   2 NSaved=   2.
 NSaved= 2 IEnMin= 1 EnMin= -379.988285752245     IErMin= 1 ErrMin= 1.44D-05
 ErrMax= 2.22D-05  0.00D+00 EMaxC= 1.00D-01 BMatC= 5.60D-08 BMatP= 3.24D-08
 IDIUse=1 WtCom= 1.00D+00 WtEn= 0.00D+00
 Coeff-Com:  0.574D+00 0.426D+00
 Coeff:      0.574D+00 0.426D+00
 Gap=     0.208 Goal=   None    Shift=    0.000
 RMSDP=9.67D-07 MaxDP=2.67D-05 DE= 2.34D-08 OVMax= 8.23D-05

 Cycle   7  Pass 1  IDiag  1:
 RMSU=  8.73D-07    CP:  1.00D+00  8.44D-01
 E= -379.988285781846     Delta-E=       -0.000000052974 Rises=F Damp=F
 DIIS: error= 4.72D-06 at cycle   3 NSaved=   3.
 NSaved= 3 IEnMin= 3 EnMin= -379.988285781846     IErMin= 3 ErrMin= 4.72D-06
 ErrMax= 4.72D-06  0.00D+00 EMaxC= 1.00D-01 BMatC= 1.94D-09 BMatP= 3.24D-08
 IDIUse=1 WtCom= 1.00D+00 WtEn= 0.00D+00
 Coeff-Com:  0.141D+00 0.184D+00 0.675D+00
 Coeff:      0.141D+00 0.184D+00 0.675D+00
 Gap=     0.208 Goal=   None    Shift=    0.000
 RMSDP=3.79D-07 MaxDP=7.29D-06 DE=-5.30D-08 OVMax= 3.21D-05

 Cycle   8  Pass 1  IDiag  1:
 RMSU=  3.32D-07    CP:  1.00D+00  8.45D-01  7.94D-01
 E= -379.988285782958     Delta-E=       -0.000000001111 Rises=F Damp=F
 DIIS: error= 2.60D-06 at cycle   4 NSaved=   4.
 NSaved= 4 IEnMin= 4 EnMin= -379.988285782958     IErMin= 4 ErrMin= 2.60D-06
 ErrMax= 2.60D-06  0.00D+00 EMaxC= 1.00D-01 BMatC= 1.03D-09 BMatP= 1.94D-09
 IDIUse=1 WtCom= 1.00D+00 WtEn= 0.00D+00
 Coeff-Com:  0.726D-02 0.595D-01 0.469D+00 0.464D+00
 Coeff:      0.726D-02 0.595D-01 0.469D+00 0.464D+00
 Gap=     0.208 Goal=   None    Shift=    0.000
 RMSDP=1.75D-07 MaxDP=4.31D-06 DE=-1.11D-09 OVMax= 1.27D-05

 Cycle   9  Pass 1  IDiag  1:
 RMSU=  5.58D-08    CP:  1.00D+00  8.57D-01  8.58D-01  5.44D-01
 E= -379.988285784017     Delta-E=       -0.000000001060 Rises=F Damp=F
 DIIS: error= 4.22D-07 at cycle   5 NSaved=   5.
 NSaved= 5 IEnMin= 5 EnMin= -379.988285784017     IErMin= 5 ErrMin= 4.22D-07
 ErrMax= 4.22D-07  0.00D+00 EMaxC= 1.00D-01 BMatC= 3.44D-11 BMatP= 1.03D-09
 IDIUse=1 WtCom= 1.00D+00 WtEn= 0.00D+00
 Coeff-Com: -0.372D-02 0.229D-01 0.226D+00 0.247D+00 0.509D+00
 Coeff:     -0.372D-02 0.229D-01 0.226D+00 0.247D+00 0.509D+00
 Gap=     0.208 Goal=   None    Shift=    0.000
 RMSDP=3.21D-08 MaxDP=9.76D-07 DE=-1.06D-09 OVMax= 2.61D-06

 Cycle  10  Pass 1  IDiag  1:
 RMSU=  2.34D-08    CP:  1.00D+00  8.57D-01  8.58D-01  5.54D-01  6.24D-01
 E= -379.988285784047     Delta-E=       -0.000000000030 Rises=F Damp=F
 DIIS: error= 2.30D-07 at cycle   6 NSaved=   6.
 NSaved= 6 IEnMin= 6 EnMin= -379.988285784047     IErMin= 6 ErrMin= 2.30D-07
 ErrMax= 2.30D-07  0.00D+00 EMaxC= 1.00D-01 BMatC= 4.64D-12 BMatP= 3.44D-11
 IDIUse=1 WtCom= 1.00D+00 WtEn= 0.00D+00
 Coeff-Com: -0.272D-02 0.774D-02 0.859D-01 0.921D-01 0.297D+00 0.520D+00
 Coeff:     -0.272D-02 0.774D-02 0.859D-01 0.921D-01 0.297D+00 0.520D+00
 Gap=     0.208 Goal=   None    Shift=    0.000
 RMSDP=1.25D-08 MaxDP=4.61D-07 DE=-2.99D-11 OVMax= 1.06D-06

 Cycle  11  Pass 1  IDiag  1:
 RMSU=  8.01D-09    CP:  1.00D+00  8.58D-01  8.60D-01  5.46D-01  7.31D-01
                    CP:  7.26D-01
 E= -379.988285784048     Delta-E=       -0.000000000001 Rises=F Damp=F
 DIIS: error= 8.65D-08 at cycle   7 NSaved=   7.
 NSaved= 7 IEnMin= 7 EnMin= -379.988285784048     IErMin= 7 ErrMin= 8.65D-08
 ErrMax= 8.65D-08  0.00D+00 EMaxC= 1.00D-01 BMatC= 6.57D-13 BMatP= 4.64D-12
 IDIUse=1 WtCom= 1.00D+00 WtEn= 0.00D+00
 Coeff-Com: -0.800D-03-0.131D-04 0.471D-02 0.225D-02 0.793D-01 0.312D+00
 Coeff-Com:  0.602D+00
 Coeff:     -0.800D-03-0.131D-04 0.471D-02 0.225D-02 0.793D-01 0.312D+00
 Coeff:      0.602D+00
 Gap=     0.208 Goal=   None    Shift=    0.000
 RMSDP=4.17D-09 MaxDP=1.00D-07 DE=-7.96D-13 OVMax= 4.55D-07

 SCF Done:  E(RB3LYP) =  -379.988285784     A.U. after   11 cycles
            NFock= 11  Conv=0.42D-08     -V/T= 2.0041
 KE= 3.784368600159D+02 PE=-1.692156593582D+03 EE= 5.295635314033D+02
 Leave Link  502 at Wed Apr 20 09:14:05 2022, MaxMem=  5242880000 cpu:              80.0 elap:               8.0
 (Enter /data0/hywu0/study/g16/l701.exe)
 ... and contract with generalized density number  0.
 Compute integral first derivatives.
 R6Disp: Adding Grimme-D3(BJ) dispersion energy 1st derivatives to the gradient.
 Leave Link  701 at Wed Apr 20 09:14:05 2022, MaxMem=  5242880000 cpu:               0.9 elap:               0.1
 (Enter /data0/hywu0/study/g16/l702.exe)
 L702 exits ... SP integral derivatives will be done elsewhere.
 Leave Link  702 at Wed Apr 20 09:14:05 2022, MaxMem=  5242880000 cpu:               0.3 elap:               0.0
 (Enter /data0/hywu0/study/g16/l703.exe)
 Integral derivatives from FoFJK, PRISM(SPDF).
 Compute integral first derivatives, UseDBF=F ICtDFT=           0.
 Calling FoFJK, ICntrl=      2127 FMM=F ISym2X=0 I1Cent= 0 IOpClX= 0 NMat=1 NMatS=1 NMatT=0.
 FoFJK:  IHMeth= 1 ICntrl=    2127 DoSepK=F KAlg= 0 I1Cent=           0 FoldK=F
 IRaf=         0 NMat=       1 IRICut=       1 DoRegI=T DoRafI=F ISym2E= 0 IDoP0=0 IntGTp=1.
 FoFCou: FMM=F IPFlag=           0 FMFlag=      100000 FMFlg1=         800
         NFxFlg=           0 DoJE=F BraDBF=F KetDBF=F FulRan=T
         wScrn=  0.000000 ICntrl=      2127 IOpCl=  0 I1Cent=           0 NGrid=           0
         NMat0=    1 NMatS0=      1 NMatT0=    0 NMatD0=    1 NMtDS0=    0 NMtDT0=    0
 Symmetry not used in FoFCou.
 Leave Link  703 at Wed Apr 20 09:14:07 2022, MaxMem=  5242880000 cpu:              21.5 elap:               2.2
 (Enter /data0/hywu0/study/g16/l716.exe)
 Dipole        =-3.25984741D-01 1.32728721D+00 1.68295009D-04
 ***** Axes restored to original set *****
 -------------------------------------------------------------------
 Center     Atomic                   Forces (Hartrees/Bohr)
 Number     Number              X              Y              Z
 -------------------------------------------------------------------
      1        6           0.001209640    0.000330802   -0.000029165
      2        6          -0.000740940   -0.000581770    0.000055840
      3        6           0.000350849   -0.001017544    0.000012003
      4        6           0.000868565    0.000150333   -0.000001876
      5        6          -0.000820292    0.000235734    0.000001954
      6        6          -0.000225125   -0.001202032   -0.000006305
      7        1          -0.000011972    0.000041587   -0.000002266
      8        1          -0.000038799   -0.000106876   -0.000002067
      9        1           0.000023329   -0.000104531    0.000002379
     10        1           0.000003210    0.000115115    0.000001176
     11        1           0.000137736    0.000183471   -0.000003031
     12        6           0.000011743    0.000950100    0.000034106
     13        1          -0.000079267    0.000337062    0.000001131
     14        7           0.000232710    0.000427199   -0.000000506
     15        7          -0.000921388    0.000241349   -0.000063374
 -------------------------------------------------------------------
 Cartesian Forces:  Max     0.001209640 RMS     0.000444415
 Leave Link  716 at Wed Apr 20 09:14:07 2022, MaxMem=  5242880000 cpu:               0.2 elap:               0.0
 (Enter /data0/hywu0/study/g16/l103.exe)

 GradGradGradGradGradGradGradGradGradGradGradGradGradGradGradGradGradGrad
 Berny optimization.
 Using GEDIIS/GDIIS optimizer.
 FormGI is forming the generalized inverse of G from B-inverse, IUseBI=4.
 Internal  Forces:  Max     0.001140664 RMS     0.000325302
 Search for a local minimum.
 Step number   2 out of a maximum of   87
 All quantities printed in internal units (Hartrees-Bohrs-Radians)
 RMS Force = .32530D-03 SwitMx=.10000D-02 MixMth= 2
 Mixed Optimization -- En-DIIS/RFO-DIIS
 Update second derivatives using D2CorX and points    1    2
 DE= -1.77D-04 DEPred=-1.92D-04 R= 9.19D-01
 TightC=F SS=  1.41D+00  RLast= 2.93D-02 DXNew= 5.0454D-01 8.7875D-02
 Trust test= 9.19D-01 RLast= 2.93D-02 DXMaxT set to 3.00D-01
 ITU=  1  0
 Use linear search instead of GDIIS.
     Eigenvalues ---    0.02000   0.02021   0.02027   0.02050   0.02100
     Eigenvalues ---    0.02144   0.02157   0.02219   0.02227   0.02238
     Eigenvalues ---    0.02289   0.02463   0.15893   0.16000   0.16000
     Eigenvalues ---    0.16000   0.16000   0.16020   0.21998   0.22469
     Eigenvalues ---    0.23517   0.24576   0.25713   0.35597   0.35610
     Eigenvalues ---    0.35631   0.35655   0.35814   0.37293   0.42408
     Eigenvalues ---    0.42765   0.43459   0.44768   0.46588   0.47148
     Eigenvalues ---    0.47540   0.48264   0.54234   0.64967
 RFO step:  Lambda=-1.88965261D-05 EMin= 1.99950695D-02
 Quartic linear search produced a step of -0.07106.
 Iteration  1 RMS(Cart)=  0.00130485 RMS(Int)=  0.00000073
 Iteration  2 RMS(Cart)=  0.00000081 RMS(Int)=  0.00000025
 ITry= 1 IFail=0 DXMaxC= 5.21D-03 DCOld= 1.00D+10 DXMaxT= 3.00D-01 DXLimC= 3.00D+00 Rises=F
 Variable       Old X    -DE/DX   Delta X   Delta X   Delta X     New X
                                 (Linear)    (Quad)   (Total)
    R1        2.67174   0.00071  -0.00091   0.00306   0.00215   2.67389
    R2        2.63646  -0.00103  -0.00011  -0.00186  -0.00197   2.63449
    R3        2.61728  -0.00114  -0.00061  -0.00113  -0.00174   2.61554
    R4        2.64342  -0.00100  -0.00018  -0.00171  -0.00189   2.64153
    R5        2.62852  -0.00082  -0.00056  -0.00064  -0.00120   2.62732
    R6        2.62126   0.00015  -0.00047   0.00106   0.00060   2.62185
    R7        2.04611   0.00001   0.00001   0.00001   0.00002   2.04613
    R8        2.66162  -0.00070  -0.00015  -0.00122  -0.00137   2.66025
    R9        2.04773  -0.00007  -0.00007  -0.00008  -0.00014   2.04758
   R10        2.62431   0.00012  -0.00051   0.00109   0.00058   2.62488
   R11        2.04790  -0.00008  -0.00006  -0.00011  -0.00017   2.04773
   R12        2.04776   0.00001  -0.00006   0.00012   0.00006   2.04782
   R13        1.90175   0.00006  -0.00000   0.00013   0.00013   1.90188
   R14        2.04237  -0.00034  -0.00001  -0.00086  -0.00087   2.04150
   R15        2.60360   0.00019  -0.00073   0.00155   0.00082   2.60442
   R16        2.46609  -0.00001  -0.00084   0.00137   0.00054   2.46663
    A1        2.13708   0.00023   0.00013   0.00065   0.00078   2.13786
    A2        1.82392  -0.00012   0.00000  -0.00042  -0.00042   1.82350
    A3        2.32218  -0.00011  -0.00014  -0.00022  -0.00036   2.32182
    A4        2.09076  -0.00022   0.00010  -0.00099  -0.00089   2.08987
    A5        1.92310   0.00059   0.00024   0.00184   0.00208   1.92518
    A6        2.26932  -0.00037  -0.00034  -0.00085  -0.00119   2.26813
    A7        2.06085   0.00003  -0.00014   0.00033   0.00019   2.06104
    A8        2.09445   0.00003   0.00012  -0.00000   0.00012   2.09457
    A9        2.12789  -0.00006   0.00002  -0.00032  -0.00031   2.12758
   A10        2.11844   0.00011   0.00002   0.00038   0.00040   2.11884
   A11        2.08837  -0.00014  -0.00006  -0.00063  -0.00069   2.08769
   A12        2.07637   0.00003   0.00003   0.00025   0.00029   2.07666
   A13        2.12163  -0.00002   0.00004  -0.00015  -0.00011   2.12152
   A14        2.07983   0.00008   0.00005   0.00037   0.00042   2.08025
   A15        2.08172  -0.00006  -0.00009  -0.00022  -0.00031   2.08141
   A16        2.03760  -0.00012  -0.00016  -0.00021  -0.00037   2.03723
   A17        2.12812   0.00018   0.00004   0.00087   0.00090   2.12902
   A18        2.11746  -0.00006   0.00013  -0.00066  -0.00053   2.11693
   A19        2.11838  -0.00034  -0.00022  -0.00091  -0.00113   2.11725
   A20        2.18792  -0.00049  -0.00025  -0.00168  -0.00193   2.18599
   A21        1.97688   0.00083   0.00047   0.00259   0.00306   1.97994
   A22        2.21225  -0.00003   0.00029  -0.00089  -0.00060   2.21165
   A23        1.86639  -0.00037  -0.00028  -0.00115  -0.00144   1.86495
   A24        2.20455   0.00039  -0.00001   0.00204   0.00204   2.20659
   A25        1.83448  -0.00094  -0.00042  -0.00285  -0.00328   1.83120
    D1        0.00001   0.00000  -0.00000  -0.00000  -0.00000   0.00001
    D2       -3.14131  -0.00001  -0.00004  -0.00042  -0.00046   3.14141
    D3       -3.14145  -0.00000  -0.00002  -0.00019  -0.00022   3.14152
    D4        0.00040  -0.00002  -0.00006  -0.00061  -0.00067  -0.00027
    D5       -0.00005   0.00000   0.00001   0.00006   0.00006   0.00001
    D6       -3.14154  -0.00000  -0.00001  -0.00010  -0.00011   3.14154
[...]
 ! D32   D(13,12,14,11)         -0.0133         -DE/DX =    0.0                 !
 ! D33   D(15,12,14,1)           0.016          -DE/DX =    0.0                 !
 ! D34   D(15,12,14,11)        180.0038         -DE/DX =    0.0                 !
 ! D35   D(13,12,15,2)         179.993          -DE/DX =    0.0                 !
 ! D36   D(14,12,15,2)          -0.0248         -DE/DX =    0.0                 !
 --------------------------------------------------------------------------------
 GradGradGradGradGradGradGradGradGradGradGradGradGradGradGradGradGradGrad

 Leave Link  103 at Wed Apr 20 09:15:44 2022, MaxMem=  5242880000 cpu:               0.1 elap:               0.0
 (Enter /data0/hywu0/study/g16/l9999.exe)

 ----------------------------------------------------------------------

 Electric dipole moment (input orientation):
 (Debye = 10**-18 statcoulomb cm , SI units = C m)
                  (au)            (Debye)         (10**-30 SI)
   Tot        0.136808D+01      0.347732D+01      0.115991D+02
   x          0.133531D+01      0.339401D+01      0.113212D+02
   y         -0.297669D+00     -0.756600D+00     -0.252375D+01
   z         -0.124243D-03     -0.315794D-03     -0.105337D-02

 Dipole polarizability, Alpha (input orientation).
 (esu units = cm**3 , SI units = C**2 m**2 J**-1)
 Alpha(0;0):
               (au)            (10**-24 esu)      (10**-40 SI)
   iso        0.828615D+02      0.122788D+02      0.136620D+02
   aniso      0.728510D+02      0.107954D+02      0.120115D+02
   xx         0.905719D+02      0.134214D+02      0.149333D+02
   yx        -0.219427D+01     -0.325157D+00     -0.361786D+00
   yy         0.120474D+03      0.178525D+02      0.198635D+02
   zx        -0.494751D-01     -0.733146D-02     -0.815735D-02
   zy        -0.291933D+00     -0.432601D-01     -0.481333D-01
   zz         0.375382D+02      0.556258D+01      0.618921D+01

 ----------------------------------------------------------------------

 Dipole orientation:
     6         -1.74427233         -1.47757608          5.95298482
     6         -1.88993439         -2.11694845          3.36075151
     6         -1.46963915         -0.26178829          1.52787803
     6         -0.91786634          2.17030350          2.33694866
     6         -0.78064833          2.77258186          4.92448907
     6         -1.19083621          0.96176577          6.77994328
     1         -1.57890420         -0.74199324         -0.45810288
     1         -0.58376101          3.64472179          0.95598655
     1         -0.34467371          4.69447317          5.48077679
     1         -1.08324859          1.43432149          8.76958548
     1         -2.31051748         -3.97504782          9.09121448
     6         -2.66333115         -5.52789279          5.38351856
     1         -3.10104547         -7.45783148          5.88498155
     7         -2.25172896         -3.71551879          7.20803809
     7         -2.46737421         -4.66473623          3.08116786

 Electric dipole moment (dipole orientation):
 (Debye = 10**-18 statcoulomb cm , SI units = C m)
                  (au)            (Debye)         (10**-30 SI)
   Tot        0.136808D+01      0.347732D+01      0.115991D+02
   x          0.000000D+00      0.000000D+00      0.000000D+00
   y          0.000000D+00      0.000000D+00      0.000000D+00
   z          0.136808D+01      0.347732D+01      0.115991D+02

 Dipole polarizability, Alpha (dipole orientation).
 (esu units = cm**3 , SI units = C**2 m**2 J**-1)
 Alpha(0;0):
               (au)            (10**-24 esu)      (10**-40 SI)
   iso        0.828615D+02      0.122788D+02      0.136620D+02
   aniso      0.728510D+02      0.107954D+02      0.120115D+02
   xx         0.414793D+02      0.614660D+01      0.683901D+01
   yx         0.173829D+02      0.257587D+01      0.286605D+01
   yy         0.114186D+03      0.169206D+02      0.188267D+02
   zx        -0.183371D+01     -0.271728D+00     -0.302338D+00
   zy        -0.813268D+01     -0.120514D+01     -0.134090D+01
   zz         0.929195D+02      0.137693D+02      0.153204D+02

 ----------------------------------------------------------------------
 1\1\GINC-LOCALHOST\Freq\RB3LYP\6-311G(d,p)\C7H6N2\HYWU0\20-Apr-2022\0\
 \#P Geom=AllCheck Guess=TCheck SCRF=Check GenChk RB3LYP/6-311G(d,p) Fr
 eq\\Title Card Required\\0,1\C,2.8650284488,-1.6263414519,0.730502506\
 C,1.4506397458,-1.6665672718,0.7322446577\C,0.7229749834,-0.4730659574
 ,0.728852058\C,1.4280020413,0.7218655124,0.7238518198\C,2.8355866818,0
 .7429826981,0.7222002672\C,3.580150991,-0.429627711,0.7254770759\H,-0.
 3594856799,-0.4987645259,0.7300924436\H,0.8888019796,1.661706536,0.721
 1162483\H,3.3498140022,1.6968010118,0.7182778255\H,4.6636010543,-0.408
 3953822,0.7242221802\H,4.191069123,-3.3103476746,0.7352602066\C,2.0926
 987278,-3.7059244248,0.7388731961\H,2.1238509315,-4.7857836199,0.74271
 67861\N,3.2490486508,-2.9560786151,0.7348684235\N,1.0054473187,-2.9836
 731237,0.7371553052\\Version=ES64L-G16RevA.03\State=1-A\HF=-379.988295
 2\RMSD=1.880e-09\RMSF=2.115e-04\ZeroPoint=0.1180353\Thermal=0.124086\D
 ipole=1.3353062,-0.2976693,-0.0001242\DipoleDeriv=-0.0673497,-0.375326
 5,0.0014491,-0.1489581,0.3931526,-0.0009828,0.0007054,-0.0008426,0.064
 7643,-0.0473262,0.2811458,-0.0009133,-0.025634,0.3296082,-0.0009629,0.
 000155,-0.0012829,0.0313295,0.1401356,-0.0162226,-0.0002124,0.034754,0
 .1161877,-0.000879,-0.0003692,-0.0008217,-0.1155357,-0.0571691,-0.2022
 463,0.0006093,-0.0934475,-0.0489909,-0.0003038,0.0001856,-0.0001999,-0
 .1645774,0.0767238,0.1458068,-0.0007842,0.0085789,-0.0589178,-0.000325
 4,-0.0002987,-0.0004985,-0.1545986,0.0844602,0.0236859,-0.0003495,0.08
 80689,0.0521701,-0.0008334,-0.0005604,-0.0007511,-0.1545704,-0.0694033
 ,0.0091817,0.0001884,-0.0193179,0.0788668,0.0002145,0.0002685,0.000183
 5,0.1336646,0.0220774,0.0797586,-0.0001533,0.0820738,-0.0774752,0.0006
 674,-0.0001529,0.0006781,0.1370619,0.0270825,-0.0776863,0.0003936,-0.0
 792351,-0.0759332,0.0008323,0.00041,0.0008249,0.1355317,-0.1078864,-0.
 0100786,0.0003154,0.0155716,0.0601695,0.0002802,0.0001994,0.0003212,0.
 1448092,0.1892015,-0.048669,0.0003047,-0.0397788,0.1789972,0.0005724,0
 .0002366,0.0006185,0.323555,0.8482728,0.0145918,-0.0008996,0.0898144,0
 .1271567,-0.0004591,-0.0011933,-0.0001755,0.0348747,0.0817193,0.022025
 5,-0.0000261,0.0208626,-0.0315494,0.0006086,-0.0000029,0.0004737,0.140
 8811,-0.5481719,0.1889322,-0.0003607,-0.0889202,-0.4954811,0.0008641,0
 .0007431,0.0005762,-0.2608358,-0.5723666,-0.0348991,0.0004387,0.155567
 3,-0.5479612,0.0007069,-0.0003263,0.000896,-0.2963544\Polar=90.5718976
 ,-2.1942674,120.4743176,-0.0494751,-0.2919333,37.5381721\Quadrupole=1.
 0609695,3.9451788,-5.0061483,-5.6096583,0.0133014,-0.0268583\PG=C01 [X
 (C7H6N2)]\NImag=0\\0.64399860,0.10060810,0.78319799,-0.00090300,-0.002
 38310,0.14482315,-0.25405313,0.02496190,0.00010249,0.64474115,-0.02458
 570,-0.11069899,0.00012199,-0.10941629,0.74299656,0.00027676,0.0000567
 3,-0.08555626,-0.00012619,-0.00190674,0.16553806,-0.02274376,0.0288429
 3,-0.00007205,-0.19652559,0.11775461,-0.00026764,0.75093942,0.05845893
 ,0.03338239,-0.00016680,0.08218184,-0.24434076,0.00054832,0.01212679,0
 .65995709,-0.00017343,-0.00013423,0.00528895,-0.00014235,0.00050926,-0
 .06160234,-0.00071020,-0.00185663,0.13440060,-0.04271406,-0.03429133,0
 .00016445,0.05433498,-0.02637151,0.00004065,-0.18548212,-0.06732868,0.
 00037057,0.64915758,-0.02121925,-0.01437116,0.00005529,0.01409844,-0.0
 6787120,0.00024430,-0.12655189,-0.29056041,0.00095005,-0.02619215,0.72
 730817,0.00011552,0.00007014,-0.00525887,-0.00010195,0.00029000,0.0063
 8992,0.00058391,0.00088933,-0.06048828,-0.00048499,-0.00208061,0.13040
 854,0.05759475,0.02554510,-0.00014729,-0.04186545,0.03483670,-0.000080
 88,-0.02786648,-0.07534105,0.00030655,-0.29781894,0.02993983,0.0001586
 9,0.64864448,-0.01423077,-0.07021784,0.00028320,0.02027862,-0.01473066
 ,0.00000849,-0.02842570,0.02635145,-0.00003754,-0.03375612,-0.12452720
 ,0.00025583,0.02395835,0.72626433,-0.00000683,0.00023913,0.00550404,-0
 .00003154,-0.00000776,-0.00581764,0.00013991,0.00001762,0.00744417,0.0
 0038279,0.00018417,-0.06270728,-0.00066499,-0.00211711,0.13084362,-0.1
 9582744,-0.12406072,0.00059758,-0.01574806,-0.02622946,0.00011601,-0.0
 0005883,0.00473269,-0.00001870,-0.03061160,0.02577205,-0.00004695,-0.1
 8889715,0.13058437,-0.00031172,0.74619916,-0.07800745,-0.25438245,0.00
 079686,-0.05991239,0.03149554,-0.00002020,-0.00322407,-0.05710231,0.00
 019715,0.07194733,0.02768895,-0.00014893,0.07212747,-0.28003082,0.0006
 9567,-0.00314757,0.65013286,0.00043520,0.00084776,-0.05380712,0.000233
 64,-0.00006132,0.00575717,0.00000895,0.00018427,-0.00295364,-0.0002096
 3,-0.00009632,0.00811309,-0.00010862,0.00063290,-0.05794360,-0.0006803
 4,-0.00185985,0.12170267,0.00055159,0.00219313,-0.00000192,-0.01339163
 ,-0.00311275,0.00003074,-0.33882497,-0.00404119,0.00033607,-0.00996856
 ,0.00239084,0.00000574,0.00121858,-0.00278472,0.00001667,0.00051546,0.
 00041245,-0.00000290,0.35928801,0.00160130,-0.00393762,0.00003435,0.02
 831245,0.00656856,-0.00003678,-0.00462742,-0.05896813,0.00008401,-0.02
 746044,0.00497411,0.00002307,-0.00204738,-0.00432993,0.00004470,0.0000
 7404,-0.00114859,0.00000107,0.00507797,0.05415114,0.00000100,0.0000336
 8,0.00630775,-0.00008071,-0.00000134,0.00478212,0.00033701,0.00008078,
 -0.03655257,0.00011244,-0.00000767,0.00320327,0.00001358,0.00004618,0.
 00771904,-0.00000199,-0.00000019,-0.00080543,-0.00037409,-0.00010852,0
 .02493120,-0.00057977,-0.00117564,0.00000417,-0.00129380,-0.00315567,0
 .00002041,0.01148929,-0.01544342,0.00004467,-0.12697690,0.11986581,-0.
 00032115,-0.01146212,0.02876935,-0.00008687,-0.00534319,-0.00138978,0.
 00001688,0.00078180,0.00057890,-0.00000790,0.13229627,-0.00068567,-0.0
 0001450,-0.00000104,-0.00434492,-0.00221304,0.00003818,0.01571948,-0.0
 1962017,0.00006088,0.11979960,-0.26660855,0.00069263,-0.00264058,0.003
 56651,-0.00000367,-0.00055736,0.00163035,0.00001448,-0.00025019,0.0009
 9151,-0.00001949,-0.12836495,0.28265753,0.00000184,-0.00000027,-0.0005
 1744,0.00002516,0.00003683,0.00737527,-0.00006524,0.00009557,0.0025336
 5,-0.00032222,0.00069247,-0.03381757,0.00002515,-0.00003904,0.00169691
 ,0.00001404,0.00001572,0.00548815,-0.00000487,-0.00002032,-0.00460528,
 0.00033530,-0.00077143,0.02482511,-0.00133441,0.00345695,-0.00000333,-
 0.00071066,0.00124129,-0.00000454,-0.00554939,0.00115254,0.00000856,-0
 .01009505,-0.02904484,0.00011599,-0.12074832,-0.11609663,0.00050491,0.
 01087291,0.01622968,-0.00006627,-0.00057994,-0.00132806,0.00000567,0.0
 0094610,0.00041550,-0.00000642,0.12538504,0.00394252,-0.00248271,0.000
 02749,0.00062881,0.00007042,-0.00000387,0.00035362,0.00164299,0.000014
 12,0.00207837,0.00282951,-0.00000475,-0.11554594,-0.27305787,0.0009685
 9,-0.01448713,-0.01912420,0.00009241,0.00015717,0.00000625,0.00000077,
 -0.00039527,0.00076346,-0.00001446,0.12407561,0.28951176,-0.00000507,0
 .00002761,0.00656104,-0.00000238,-0.00000410,-0.00082327,0.00001137,0.
 00001234,0.00581616,0.00000786,0.00003077,0.00216252,0.00050222,0.0009
 6974,-0.03391163,0.00004138,0.00005807,0.00258307,0.00000042,0.0000025
 3,0.00026524,-0.00000355,-0.00001565,-0.00349305,-0.00054855,-0.001068
 33,0.02466610,-0.01206589,0.00288151,0.00000645,0.00198383,-0.00190804
 ,0.00001101,0.00048154,-0.00037231,-0.00000009,0.00113126,0.00340224,-
 0.00000517,-0.01246076,-0.00307108,0.00002692,-0.33423549,-0.00679744,
 0.00035385,-0.00011037,0.00000919,-0.00000134,-0.00072983,-0.00016799,
 0.00000195,0.00086636,0.00021607,-0.00000661,0.35548815,-0.02821276,0.
 00473982,0.00002524,-0.00026015,-0.00378396,0.00003502,-0.00002731,-0.
 00135297,0.00000233,0.00213525,-0.00412237,0.00003771,0.02733213,0.006
 15363,-0.00004329,-0.00787310,-0.05924748,0.00010402,-0.00003120,0.000
 12830,-0.00000490,0.00133573,0.00004755,-0.00000016,-0.00056535,0.0009
 3623,-0.00001837,0.00735548,0.05559999,0.00011544,-0.00000977,0.002999
 70,0.00000598,0.00003782,0.00611485,-0.00000165,0.00000338,-0.00070855
 ,-0.00000133,0.00003558,0.00727116,-0.00007856,-0.00001069,0.00233089,
 0.00035609,0.00010408,-0.03217831,-0.00000113,-0.00000491,-0.00126875,
 -0.00000331,0.00000162,0.00044880,-0.00000394,-0.00001921,-0.00445708,
 -0.00038956,-0.00012447,0.02259118,0.00172571,-0.00001877,-0.00000931,
 0.00001365,-0.00083893,0.00000511,-0.00026055,-0.00035789,0.00000288,0
 .00061051,0.00004350,-0.00000110,-0.00081889,0.00023863,0.00000007,0.0
 0100550,-0.00066614,0.00000052,0.00016702,0.00001976,0.,-0.00000546,-0
 .00001103,0.,0.00001293,-0.00006550,0.00000033,-0.00039890,0.00010218,
 -0.00000009,0.42461268,0.02855291,0.00341646,-0.00006461,0.00149561,-0
 .00864848,0.00003949,0.00168816,0.00155438,-0.00000371,-0.00049240,-0.
 00012277,0.00000011,0.00039307,-0.00033008,-0.00000011,-0.00044711,0.0
 0169373,-0.00000882,0.00021213,-0.00056116,0.00000245,-0.00007160,-0.0
 0000826,0.00000021,-0.00000539,0.00000385,0.00000050,-0.00080208,-0.00
 064442,0.00000329,-0.13899788,0.11007821,-0.00010827,-0.00004205,-0.00
 699103,-0.00000283,0.00003856,0.00281554,-0.00000424,-0.00000098,0.001
 02860,0.00000029,-0.00000051,-0.00023825,-0.00000026,-0.00000006,-0.00
 015690,-0.00000038,-0.00000736,-0.00088364,-0.00000061,0.00000270,0.00
 021829,0.00000028,0.00000011,0.00002043,0.00000018,0.00000051,0.000130
 68,0.00000325,0.00000224,-0.00001079,0.00010600,-0.00023945,0.00856748
 ,0.00654455,-0.05592642,0.00020969,-0.00089510,0.07115257,-0.00024282,
 0.00104690,-0.02168151,0.00007717,0.00733985,0.01082912,-0.00004408,-0
 .00922655,-0.00108672,0.00001498,-0.00421083,0.00343862,-0.00000647,-0
 .00042130,0.00060363,-0.00000221,-0.00003729,-0.00050756,0.00000150,-0
 .00038012,0.00083115,-0.00000314,-0.00104954,-0.00131934,0.00000536,-0
 .01094720,-0.01248009,0.00005267,0.61664300,-0.02168233,-0.09108820,0.
 00040096,0.02766311,-0.10557398,0.00038583,-0.00668098,0.00609104,0.00
 000108,-0.00807507,-0.00492875,0.00002727,0.00650365,-0.00697218,0.000
 02067,0.00720490,0.00686352,-0.00002482,0.00027148,0.00006976,-0.00000
 161,-0.00027677,-0.00054288,-0.00000019,0.00027277,-0.00031327,-0.0000
 0028,-0.00050126,0.00024370,-0.00000220,0.01522026,0.01840853,-0.00011
 755,-0.08427734,0.90407319,0.00007969,0.00043121,0.01247078,-0.0000847
 1,0.00033323,0.00896070,0.00002731,0.00001523,0.00468559,0.00002259,0.
 00000819,0.00048141,-0.00001341,0.00002942,0.00093170,-0.00001927,-0.0
 0002115,0.00200118,-0.00000108,-0.00000194,-0.00036127,0.00000021,-0.0
 0000006,-0.00069027,-0.00000090,-0.00000071,-0.00028406,0.00000238,-0.
 00000131,-0.00052210,-0.00005666,-0.00009031,-0.00902605,-0.00014486,-
 0.00269258,0.14023926,-0.00572082,-0.00014018,0.00000987,-0.00409818,0
 .00327696,-0.00000189,0.00141029,0.00063217,-0.00000256,-0.00013094,0.
 00048077,-0.00000174,-0.00070748,-0.00008281,0.00000088,0.00133782,-0.
 00130657,0.00000523,-0.00002008,-0.00006551,0.00000040,0.00009620,0.00
 013922,-0.00000084,0.00009150,-0.00011555,-0.00000018,0.00002647,0.000
 07131,-0.00000007,0.00025289,0.00033819,-0.00000268,-0.05703407,0.0058
 6101,0.00000235,0.05780162,-0.00192447,0.00159487,0.00000502,0.0024427
 1,0.00051759,0.00002722,-0.00040489,-0.00069361,0.00000713,0.00058418,
 0.00005079,-0.00000253,-0.00048887,0.00017221,-0.00000056,0.00031841,-
 0.00058621,0.00000883,0.00003774,-0.00000245,0.00000082,-0.00002705,-0
 .00005606,-0.00000069,0.00001636,-0.00004900,-0.00000143,-0.00002788,-
 0.00001867,0.00000082,-0.00054191,-0.00058085,-0.00000120,0.00168577,-
 0.34444216,0.00112749,-0.00732746,0.36648666,0.00001549,0.00000021,0.0
 0248769,0.00000188,0.00002342,0.00830651,0.00000159,0.00000679,0.00111
 331,-0.00000371,-0.00000248,-0.00044613,0.00000318,-0.00000205,-0.0001
 4550,-0.00000017,0.00001169,0.00185572,0.00000012,0.00000093,0.0002299
 0,-0.00000024,-0.00000081,-0.00024609,-0.00000063,-0.00000117,-0.00042
 036,0.00000024,0.00000070,0.00020388,0.00000071,-0.00000230,-0.0011015
 0,0.00001824,0.00110960,-0.03097376,-0.00000818,-0.00122939,0.02239942
 ,-0.14398705,0.04226802,-0.00005265,-0.04781994,0.01084398,0.00001646,
 -0.00600156,0.00651313,-0.00001526,-0.00626385,-0.00533070,0.00002439,
 0.00379311,-0.00661962,0.00002493,0.02096061,-0.00989629,0.00001094,-0
 .00055478,0.00131718,-0.00000403,0.00016581,0.00030200,-0.00000137,0.0
 0102540,-0.00132107,0.00000502,0.00160801,0.00165373,-0.00001038,-0.41
 310263,0.12833783,-0.00007778,-0.22011490,-0.08004623,0.00046690,0.004
 01081,0.00200733,-0.00000952,0.90740175,0.04824433,-0.25874419,0.00069
 305,0.05441732,-0.02223129,0.00005771,-0.00191986,-0.00024271,0.000014
 62,0.00831967,-0.00314760,-0.00000229,-0.00943904,0.00875940,-0.000000
 21,0.01200681,-0.04226349,0.00013122,-0.00003183,-0.00032789,-0.000000
 16,0.00013305,0.00028696,-0.00000228,0.00057553,-0.00100110,0.00000803
 ,0.00049321,0.00273470,-0.00002141,0.12857273,-0.12268558,0.00033120,-
 0.07604242,-0.17640029,0.00053073,-0.03049500,-0.01009138,0.00007407,-
 0.12296425,0.62349226,-0.00007647,0.00071309,-0.04950379,-0.00012976,0
 .00010149,0.00903216,0.00001528,0.00000165,0.00212859,-0.00002379,0.00
 001374,-0.00094667,0.00003493,-0.00000461,0.00547649,-0.00006796,0.000
 15307,-0.00189632,0.00000044,-0.00000126,-0.00027848,-0.00000086,-0.00
 000200,-0.00018291,-0.00000167,0.00000983,0.00137559,-0.00000664,-0.00
 002172,-0.00289118,-0.00006792,0.00032678,-0.00065800,0.00045023,0.000
 53513,-0.05350757,0.00010545,0.00003254,0.00014457,-0.00039294,-0.0019
 0170,0.06740925,-0.03138887,-0.01514457,0.00009485,-0.12467207,-0.0434
 8775,0.00020681,0.01794581,0.01876795,-0.00008387,-0.00251219,0.001516
 24,0.00000289,0.00062120,0.00232486,-0.00001012,-0.00595888,0.00019213
 ,0.00000899,0.00134916,-0.00206561,0.00000219,0.00065287,0.00115446,-0
 .00000399,0.00019764,-0.00035284,0.00000086,-0.00053484,-0.00169659,0.
 00000715,-0.00286726,-0.00772134,0.00003437,-0.32725742,0.13854280,-0.
 00028055,0.00268397,0.00365003,-0.00001902,-0.10112078,-0.01187026,0.0
 0016169,0.57286166,-0.05085968,-0.02039387,0.00017213,-0.08254707,-0.2
 0155630,0.00052630,-0.00462348,-0.05609826,0.00019147,0.01910331,0.013
 40848,-0.00004697,-0.01513342,0.00292905,0.00000215,-0.00389080,-0.005
 61940,0.00003418,-0.00050104,0.00238614,-0.00002081,-0.00038268,-0.000
 88041,0.00000804,-0.00039596,0.00026369,-0.00000144,-0.00070962,-0.001
 41405,0.00000606,-0.00269902,-0.00157356,0.00003384,0.16478054,-0.2054
 8802,0.00033257,0.02873346,-0.01230174,0.00001080,0.03293497,0.0018622
 0,0.00004398,-0.08380952,0.48447606,0.00023214,0.00014987,0.01519139,0
 .00033325,0.00048865,-0.07127278,-0.00000432,0.00016914,-0.00213426,-0
 .00005598,-0.00002698,0.00587314,0.00004969,-0.00001465,-0.00126432,0.
 00002241,0.00002536,0.00296702,-0.00000360,-0.00001964,-0.00378505,0.0
 0000196,0.00000627,0.00116430,0.00000095,-0.00000121,-0.00017097,0.000
 00335,0.00000698,0.00007629,0.00001946,0.00003648,0.00628516,-0.000386
 28,0.00035869,-0.07440552,-0.00010605,0.00002593,-0.00340768,0.0000152
 9,0.00008742,0.02429826,-0.00012225,-0.00129230,0.10058503\\-0.0002944
 0,-0.00023111,-0.00001579,0.00035621,-0.00026948,0.00004270,-0.0001313
 9,0.00036533,0.00000674,-0.00043468,-0.00016991,-0.00000027,0.00047018
 ,-0.00018971,0.00000204,0.00011382,0.00049842,-0.00000686,0.00001354,-
 0.00004813,-0.00000101,0.00003593,0.00003094,-0.00000202,-0.00002396,0
 .00003129,0.00000049,0.00001773,-0.00003905,0.00000126,0.00003448,0.00
 000099,-0.00000116,-0.00009493,0.00020480,0.00004571,0.00000236,0.0000
 3324,0.00000108,0.00055106,-0.00003833,-0.00001404,-0.00061592,-0.0001
 7930,-0.00005886\\\@


 TERRY FORSTER, PORTLY ATLANTA BRAVES RELIEVER,
 ANNOUNCING THAT HE WAS GOING TO A FAT FARM:
 "A WAIST IS A TERRIBLE THING TO MIND."
 Job cpu time:       0 days  0 hours 14 minutes 13.4 seconds.
 Elapsed time:       0 days  0 hours  1 minutes 25.9 seconds.
 File lengths (MBytes):  RWF=     68 Int=      0 D2E=      0 Chk=      4 Scr=      1
 Normal termination of Gaussian 16 at Wed Apr 20 09:15:44 2022.
