
    -----------------------------------------------------------------------
          Psi4: An Open-Source Ab Initio Electronic Structure Package
                               Psi4 1.3.2 release

                         Git: Rev {HEAD} ecbda83 


    R. M. Parrish, L. A. Burns, D. G. A. Smith, A. C. Simmonett,
    A. E. DePrince III, E. G. Hohenstein, U. Bozkaya, A. Yu. Sokolov,
    R. Di Remigio, R. M. Richard, J. F. Gonthier, A. M. James,
    H. R. McAlexander, A. Kumar, M. Saitow, X. Wang, B. P. Pritchard,
    P. Verma, H. F. Schaefer III, K. Patkowski, R. A. King, E. F. Valeev,
    F. A. Evangelista, J. M. Turney, T. D. Crawford, and C. D. Sherrill,
    J. Chem. Theory Comput. 13(7) pp 3185--3197 (2017).
    (doi: 10.1021/acs.jctc.7b00174)


                         Additional Contributions by
    P. Kraus, H. Kruse, M. H. Lechner, M. C. Schieber, R. A. Shaw,
    A. Alenaizan, R. Galvelis, Z. L. Glick, S. Lehtola, and J. P. Misiewicz

    -----------------------------------------------------------------------


    Psi4 started on: Wednesday, 01 June 2022 11:50AM

    Process ID: 2625907
    Host:       localhost.localdomain
    PSIDATADIR: /data0/home/wuhanyu/software/psi4_132/share/psi4
    Memory:     500.0 MiB
    Threads:    48
    
  ==> Input File <==

--------------------------------------------------------------------------
memory 180 GB

molecule dimer {
0 1
C      4.36400000   12.69300000   10.94100000
H      4.11600000   12.15500000   10.01400000
H      5.25500000   13.31300000   10.76700000
H      4.63500000   11.91400000   11.70100000
C      2.83500000   14.52400000   10.38400000
H      2.58500000   14.03800000    9.42600000
H      1.95500000   15.11400000   10.69900000
H      3.66200000   15.22900000   10.20300000
C      2.04200000   12.59000000   11.66100000
H      1.20900000   13.08900000   12.19600000
H      1.67100000   12.15900000   10.72300000
H      2.33500000   11.75200000   12.33900000
C      3.62600000   14.22500000   12.70900000
H      4.52500000   14.83600000   12.49400000
H      3.95100000   13.42900000   13.43800000
C      2.52200000   15.09100000   13.33500000
H      1.51300000   14.77800000   12.99000000
H      2.63900000   16.14900000   13.03800000
C      2.54900000   14.96300000   14.85900000
H      1.69700000   15.49200000   15.32000000
H      3.46100000   15.40600000   15.29400000
N      3.20100000   13.51300000   11.43100000
C      2.46300000   13.47600000   15.26200000
O      1.78000000   12.74500000   14.50600000
O      3.11700000   13.11500000   16.24399900
--
0 1
P      4.10900000   10.08200000   14.64900000
O      4.65300000    8.74600000   14.44400000
O      4.30400000   10.64500000   16.10800000
H      3.80800000   11.58500000   16.20400000
O      4.83100000   11.21000000   13.70500000
H      5.81200000   11.23400000   13.92000000
O      2.61400000   10.25400000   14.19400000
H      2.25200000   11.24700000   14.45300000
}

set {
    scf_type DF
    freeze_core True
    basis aug-cc-pVTZ
}

energy('sapt2+(3)dmp2')
--------------------------------------------------------------------------

  Memory set to 167.638 GiB by Python driver.

  //>>>>>>>>>>>>>>>>>>>>>>>>>>>>>>>>>>>//
  //              Dimer HF             //
  //<<<<<<<<<<<<<<<<<<<<<<<<<<<<<<<<<<<//


*** tstart() called on localhost.localdomain
*** at Wed Jun  1 11:50:37 2022

   => Loading Basis Set <=

    Name: AUG-CC-PVTZ
    Role: ORBITAL
    Keyword: BASIS
    atoms 1, 5, 9, 13, 16, 19, 23                          entry C          line   235 file /data0/home/wuhanyu/software/psi4_132/share/psi4/basis/aug-cc-pvtz.gbs 
    atoms 2-4, 6-8, 10-12, 14-15, 17-18, 20-21, 29, 31, 33 entry H          line    36 file /data0/home/wuhanyu/software/psi4_132/share/psi4/basis/aug-cc-pvtz.gbs 
    atoms 22                                               entry N          line   281 file /data0/home/wuhanyu/software/psi4_132/share/psi4/basis/aug-cc-pvtz.gbs 
    atoms 24-25, 27-28, 30, 32                             entry O          line   327 file /data0/home/wuhanyu/software/psi4_132/share/psi4/basis/aug-cc-pvtz.gbs 
    atoms 26                                               entry P          line   820 file /data0/home/wuhanyu/software/psi4_132/share/psi4/basis/aug-cc-pvtz.gbs 


         ---------------------------------------------------------
                                   SCF
               by Justin Turney, Rob Parrish, Andy Simmonett
                          and Daniel G. A. Smith
                              RHF Reference
                       48 Threads, 171661 MiB Core
         ---------------------------------------------------------

  ==> Geometry <==

    Molecular point group: c1
    Full point group: C1

    Geometry (in Angstrom), charge = 0, multiplicity = 1:

       Center              X                  Y                   Z               Mass       
    ------------   -----------------  -----------------  -----------------  -----------------
         C            1.010839236038     0.416887144902    -2.788064468265    12.000000000000
         H            0.762839236038    -0.121112855098    -3.715064468265     1.007825032230
         H            1.901839236038     1.036887144902    -2.962064468265     1.007825032230
         H            1.281839236038    -0.362112855098    -2.028064468265     1.007825032230
         C           -0.518160763962     2.247887144902    -3.345064468265    12.000000000000
         H           -0.768160763962     1.761887144902    -4.303064468265     1.007825032230
         H           -1.398160763962     2.837887144902    -3.030064468265     1.007825032230
         H            0.308839236038     2.952887144902    -3.526064468265     1.007825032230
         C           -1.311160763962     0.313887144902    -2.068064468265    12.000000000000
         H           -2.144160763962     0.812887144902    -1.533064468265     1.007825032230
         H           -1.682160763962    -0.117112855098    -3.006064468265     1.007825032230
         H           -1.018160763962    -0.524112855098    -1.390064468265     1.007825032230
         C            0.272839236038     1.948887144902    -1.020064468265    12.000000000000
         H            1.171839236038     2.559887144902    -1.235064468265     1.007825032230
         H            0.597839236038     1.152887144902    -0.291064468265     1.007825032230
         C           -0.831160763962     2.814887144902    -0.394064468265    12.000000000000
         H           -1.840160763962     2.501887144902    -0.739064468265     1.007825032230
         H           -0.714160763962     3.872887144902    -0.691064468265     1.007825032230
         C           -0.804160763962     2.686887144902     1.129935531735    12.000000000000
         H           -1.656160763962     3.215887144902     1.590935531735     1.007825032230
         H            0.107839236038     3.129887144902     1.564935531735     1.007825032230
         N           -0.152160763962     1.236887144902    -2.298064468265    14.003074004430
         C           -0.890160763962     1.199887144902     1.532935531735    12.000000000000
         O           -1.573160763962     0.468887144902     0.776935531735    15.994914619570
         O           -0.236160763962     0.838887144902     2.514934531735    15.994914619570
         P            0.755839236038    -2.194112855098     0.919935531735    30.973761998420
         O            1.299839236038    -3.530112855098     0.714935531735    15.994914619570
         O            0.950839236038    -1.631112855098     2.378935531735    15.994914619570
         H            0.454839236038    -0.691112855098     2.474935531735     1.007825032230
         O            1.477839236038    -1.066112855098    -0.024064468265    15.994914619570
         H            2.458839236038    -1.042112855098     0.190935531735     1.007825032230
         O           -0.739160763962    -2.022112855098     0.464935531735    15.994914619570
         H           -1.101160763962    -1.029112855098     0.723935531735     1.007825032230

  Running in c1 symmetry.

  Rotational constants: A =      0.02430  B =      0.01270  C =      0.00971 [cm^-1]
  Rotational constants: A =    728.37028  B =    380.85893  C =    291.21361 [MHz]
  Nuclear repulsion = 1351.247043423434661

  Charge       = 0
  Multiplicity = 1
  Electrons    = 130
  Nalpha       = 65
  Nbeta        = 65

  ==> Algorithm <==

  SCF Algorithm Type is DF.
  DIIS enabled.
  MOM disabled.
  Fractional occupation disabled.
  Guess Type is SAD.
  Energy threshold   = 1.00e-08
  Density threshold  = 1.00e-08
  Integral threshold = 0.00e+00

  ==> Primary Basis <==

  Basis Set: AUG-CC-PVTZ
    Blend: AUG-CC-PVTZ
    Number of shells: 374
    Number of basis function: 1108
    Number of Cartesian functions: 1279
    Spherical Harmonics?: true
    Max angular momentum: 3

   => Loading Basis Set <=

    Name: (AUG-CC-PVTZ AUX)
    Role: JKFIT
    Keyword: DF_BASIS_SCF
    atoms 1, 5, 9, 13, 16, 19, 23                          entry C          line   162 file /data0/home/wuhanyu/software/psi4_132/share/psi4/basis/aug-cc-pvtz-jkfit.gbs 
    atoms 2-4, 6-8, 10-12, 14-15, 17-18, 20-21, 29, 31, 33 entry H          line    70 file /data0/home/wuhanyu/software/psi4_132/share/psi4/basis/aug-cc-pvtz-jkfit.gbs 
    atoms 22                                               entry N          line   224 file /data0/home/wuhanyu/software/psi4_132/share/psi4/basis/aug-cc-pvtz-jkfit.gbs 
    atoms 24-25, 27-28, 30, 32                             entry O          line   286 file /data0/home/wuhanyu/software/psi4_132/share/psi4/basis/aug-cc-pvtz-jkfit.gbs 
    atoms 26                                               entry P          line   644 file /data0/home/wuhanyu/software/psi4_132/share/psi4/basis/aug-cc-pvtz-jkfit.gbs 

  ==> Pre-Iterations <==

   -------------------------------------------------------
    Irrep   Nso     Nmo     Nalpha   Nbeta   Ndocc  Nsocc
   -------------------------------------------------------
     A       1108    1108       0       0       0       0
   -------------------------------------------------------
    Total    1108    1108      65      65      65       0
   -------------------------------------------------------

  ==> Integral Setup <==

  ==> DiskDFJK: Density-Fitted J/K Matrices <==

    J tasked:                  Yes
    K tasked:                  Yes
    wK tasked:                  No
    OpenMP threads:             48
    Integrals threads:          48
    Memory [MiB]:           128746
    Algorithm:                Core
    Integral Cache:           SAVE
    Schwarz Cutoff:          1E-12
    Fitting Condition:       1E-10

   => Auxiliary Basis Set <=

  Basis Set: (AUG-CC-PVTZ AUX)
    Blend: AUG-CC-PVTZ-JKFIT
    Number of shells: 714
    Number of basis function: 2430
    Number of Cartesian functions: 3004
    Spherical Harmonics?: true
    Max angular momentum: 4

  Minimum eigenvalue in the overlap matrix is 6.0777314626E-07.
  Using Symmetric Orthogonalization.

  SCF Guess: Superposition of Atomic Densities via on-the-fly atomic UHF.

  ==> Iterations <==

                           Total Energy        Delta E     RMS |[F,P]|

   @DF-RHF iter SAD: -1119.49454429649199   -1.11949e+03   0.00000e+00 
   @DF-RHF iter   1: -1119.76097641947217   -2.66432e-01   1.00659e-03 DIIS
   @DF-RHF iter   2: -1120.19377089404429   -4.32794e-01   5.77562e-04 DIIS
   @DF-RHF iter   3: -1120.32816799882289   -1.34397e-01   8.86947e-05 DIIS
   @DF-RHF iter   4: -1120.33443661467095   -6.26862e-03   3.51646e-05 DIIS
   @DF-RHF iter   5: -1120.33520471030874   -7.68096e-04   8.16244e-06 DIIS
   @DF-RHF iter   6: -1120.33525882333697   -5.41130e-05   2.65774e-06 DIIS
   @DF-RHF iter   7: -1120.33526558115818   -6.75782e-06   7.26314e-07 DIIS
   @DF-RHF iter   8: -1120.33526628090590   -6.99748e-07   2.57632e-07 DIIS
   @DF-RHF iter   9: -1120.33526637886484   -9.79589e-08   1.06962e-07 DIIS
   @DF-RHF iter  10: -1120.33526639549814   -1.66333e-08   3.85560e-08 DIIS
   @DF-RHF iter  11: -1120.33526639830279   -2.80465e-09   1.51918e-08 DIIS
   @DF-RHF iter  12: -1120.33526639867500   -3.72211e-10   5.42413e-09 DIIS
  Energy and wave function converged.


  ==> Post-Iterations <==

    Orbital Energies [Eh]
    ---------------------

    Doubly Occupied:                                                      

       1A    -80.053404     2A    -20.582209     3A    -20.544253  
       4A    -20.544030     5A    -20.506010     6A    -20.501044  
       7A    -20.460660     8A    -15.747527     9A    -11.343672  
      10A    -11.339108    11A    -11.329318    12A    -11.327086  
      13A    -11.311156    14A    -11.270293    15A    -11.242033  
      16A     -7.571148    17A     -5.469594    18A     -5.469094  
      19A     -5.468279    20A     -1.409497    21A     -1.396524  
      22A     -1.374508    23A     -1.332946    24A     -1.316176  
      25A     -1.289454    26A     -1.251437    27A     -1.105969  
      28A     -1.045463    29A     -1.028989    30A     -1.001009  
      31A     -0.910796    32A     -0.853287    33A     -0.790557  
      34A     -0.749280    35A     -0.745633    36A     -0.739613  
      37A     -0.717288    38A     -0.710222    39A     -0.688957  
      40A     -0.679036    41A     -0.644800    42A     -0.640529  
      43A     -0.637642    44A     -0.627346    45A     -0.621249  
      46A     -0.610335    47A     -0.600686    48A     -0.593161  
      49A     -0.589098    50A     -0.582375    51A     -0.572384  
      52A     -0.565506    53A     -0.559118    54A     -0.534632  
      55A     -0.528587    56A     -0.524935    57A     -0.514400  
      58A     -0.503377    59A     -0.501338    60A     -0.476391  
      61A     -0.439250    62A     -0.424633    63A     -0.419659  
      64A     -0.411085    65A     -0.405781  

    Virtual:                                                              

      66A     -0.002330    67A      0.011959    68A      0.014367  
      69A      0.024937    70A      0.033265    71A      0.033983  
      72A      0.041004    73A      0.043696    74A      0.053944  
      75A      0.057591    76A      0.060984    77A      0.066290  
      78A      0.072436    79A      0.076403    80A      0.077608  
      81A      0.081461    82A      0.085386    83A      0.090709  
      84A      0.091673    85A      0.096200    86A      0.101153  
      87A      0.103267    88A      0.109285    89A      0.111435  
      90A      0.115947    91A      0.118809    92A      0.119210  
      93A      0.124596    94A      0.125961    95A      0.128240  
      96A      0.131260    97A      0.134045    98A      0.139049  
      99A      0.144747   100A      0.147738   101A      0.148414  
     102A      0.156212   103A      0.157723   104A      0.166517  
     105A      0.167018   106A      0.168964   107A      0.171579  
     108A      0.177707   109A      0.178882   110A      0.184068  
     111A      0.188668   112A      0.195340   113A      0.198043  
     114A      0.202013   115A      0.209764   116A      0.210343  
     117A      0.215266   118A      0.221723   119A      0.225772  
     120A      0.227663   121A      0.232144   122A      0.232919  
     123A      0.234807   124A      0.239119   125A      0.242405  
     126A      0.245050   127A      0.250787   128A      0.252952  
     129A      0.261917   130A      0.267693   131A      0.268900  
     132A      0.274403   133A      0.275978   134A      0.280213  
     135A      0.284152   136A      0.284968   137A      0.289734  
     138A      0.291498   139A      0.294630   140A      0.299225  
     141A      0.301158   142A      0.302980   143A      0.308645  
     144A      0.310410   145A      0.312360   146A      0.318108  
     147A      0.318889   148A      0.320451   149A      0.324605  
     150A      0.325715   151A      0.328892   152A      0.333296  
     153A      0.337301   154A      0.341154   155A      0.343006  
     156A      0.347457   157A      0.350332   158A      0.353482  
     159A      0.355747   160A      0.358784   161A      0.360992  
     162A      0.363565   163A      0.369070   164A      0.371710  
     165A      0.376521   166A      0.378557   167A      0.383637  
     168A      0.385316   169A      0.388038   170A      0.392328  
     171A      0.394473   172A      0.396313   173A      0.403618  
     174A      0.404756   175A      0.408843   176A      0.409092  
     177A      0.411837   178A      0.419362   179A      0.425291  
     180A      0.428443   181A      0.430026   182A      0.436145  
     183A      0.436296   184A      0.443956   185A      0.444485  
     186A      0.447629   187A      0.449065   188A      0.453781  
     189A      0.454038   190A      0.457408   191A      0.460270  
     192A      0.461847   193A      0.467157   194A      0.470405  
     195A      0.475063   196A      0.475582   197A      0.481547  
     198A      0.484653   199A      0.486444   200A      0.491725  
     201A      0.495104   202A      0.498279   203A      0.499251  
     204A      0.505389   205A      0.509284   206A      0.516226  
     207A      0.520387   208A      0.523112   209A      0.526465  
     210A      0.526718   211A      0.529990   212A      0.534084  
     213A      0.536060   214A      0.540442   215A      0.543973  
     216A      0.545330   217A      0.548725   218A      0.554760  
     219A      0.556898   220A      0.559985   221A      0.563934  
     222A      0.569581   223A      0.572029   224A      0.576633  
     225A      0.577542   226A      0.581120   227A      0.585461  
     228A      0.588848   229A      0.590237   230A      0.596644  
     231A      0.599461   232A      0.603038   233A      0.609390  
     234A      0.613430   235A      0.617842   236A      0.619465  
     237A      0.624378   238A      0.627949   239A      0.632445  
     240A      0.636328   241A      0.638625   242A      0.646587  
     243A      0.650208   244A      0.656563   245A      0.658463  
     246A      0.663865   247A      0.665680   248A      0.671671  
     249A      0.675531   250A      0.676916   251A      0.683409  
     252A      0.690889   253A      0.695960   254A      0.699288  
     255A      0.701930   256A      0.706056   257A      0.713057  
     258A      0.717823   259A      0.719083   260A      0.725493  
     261A      0.734784   262A      0.735508   263A      0.738952  
     264A      0.740697   265A      0.745008   266A      0.748415  
     267A      0.756595   268A      0.763349   269A      0.768961  
     270A      0.770003   271A      0.775247   272A      0.778073  
     273A      0.782575   274A      0.786904   275A      0.791991  
     276A      0.796173   277A      0.803997   278A      0.805173  
     279A      0.808576   280A      0.813285   281A      0.818028  
     282A      0.822285   283A      0.831108   284A      0.832171  
     285A      0.836232   286A      0.841991   287A      0.845737  
     288A      0.852636   289A      0.858553   290A      0.863224  
     291A      0.867578   292A      0.872922   293A      0.877151  
     294A      0.886096   295A      0.889132   296A      0.891447  
     297A      0.897493   298A      0.899423   299A      0.901282  
     300A      0.905287   301A      0.911703   302A      0.916534  
     303A      0.918812   304A      0.922603   305A      0.923236  
     306A      0.924838   307A      0.930251   308A      0.936581  
     309A      0.942727   310A      0.945412   311A      0.947693  
     312A      0.949916   313A      0.954363   314A      0.956766  
     315A      0.961880   316A      0.965514   317A      0.969529  
     318A      0.972705   319A      0.981594   320A      0.986502  
     321A      0.989852   322A      0.996807   323A      0.999572  
     324A      1.000781   325A      1.005068   326A      1.007704  
     327A      1.012971   328A      1.014998   329A      1.018274  
     330A      1.025349   331A      1.028385   332A      1.030758  
     333A      1.035406   334A      1.039618   335A      1.043404  
     336A      1.053147   337A      1.055967   338A      1.057806  
     339A      1.064657   340A      1.069777   341A      1.074830  
     342A      1.076961   343A      1.081795   344A      1.087675  
     345A      1.089726   346A      1.091540   347A      1.099536  
     348A      1.103337   349A      1.106422   350A      1.113223  
     351A      1.118670   352A      1.122927   353A      1.123979  
     354A      1.130226   355A      1.134394   356A      1.136280  
     357A      1.139751   358A      1.148137   359A      1.152654  
     360A      1.154166   361A      1.158080   362A      1.161741  
     363A      1.163977   364A      1.173593   365A      1.176850  
     366A      1.181442   367A      1.185851   368A      1.189608  
     369A      1.191857   370A      1.193860   371A      1.199327  
     372A      1.205035   373A      1.211829   374A      1.214567  
     375A      1.216183   376A      1.222236   377A      1.231330  
     378A      1.238783   379A      1.242237   380A      1.245293  
     381A      1.246485   382A      1.251162   383A      1.259427  
     384A      1.261260   385A      1.269967   386A      1.273843  
     387A      1.280044   388A      1.283055   389A      1.288282  
     390A      1.293197   391A      1.297290   392A      1.301142  
     393A      1.307307   394A      1.314804   395A      1.322605  
     396A      1.325185   397A      1.329814   398A      1.333864  
     399A      1.337183   400A      1.343031   401A      1.346708  
     402A      1.353043   403A      1.355177   404A      1.362152  
     405A      1.367613   406A      1.377134   407A      1.378697  
     408A      1.382609   409A      1.389450   410A      1.391574  
     411A      1.397203   412A      1.406539   413A      1.411987  
     414A      1.417035   415A      1.424467   416A      1.427505  
     417A      1.428719   418A      1.433015   419A      1.435982  
     420A      1.442929   421A      1.450515   422A      1.452905  
     423A      1.457997   424A      1.462156   425A      1.465377  
     426A      1.473678   427A      1.478338   428A      1.484016  
     429A      1.485111   430A      1.494357   431A      1.496603  
     432A      1.499765   433A      1.504155   434A      1.513296  
     435A      1.517500   436A      1.519525   437A      1.522575  
     438A      1.530101   439A      1.531203   440A      1.538832  
     441A      1.540198   442A      1.548371   443A      1.550774  
     444A      1.557619   445A      1.559647   446A      1.566251  
     447A      1.574509   448A      1.576703   449A      1.579805  
     450A      1.581427   451A      1.585579   452A      1.591504  
     453A      1.596850   454A      1.601135   455A      1.604537  
     456A      1.610712   457A      1.613263   458A      1.621587  
     459A      1.631174   460A      1.634525   461A      1.640835  
     462A      1.646312   463A      1.651633   464A      1.653165  
     465A      1.659298   466A      1.663774   467A      1.666442  
     468A      1.672302   469A      1.680497   470A      1.683676  
     471A      1.687816   472A      1.693771   473A      1.698132  
     474A      1.700833   475A      1.706354   476A      1.711717  
     477A      1.714905   478A      1.719460   479A      1.729987  
     480A      1.736440   481A      1.739761   482A      1.749061  
     483A      1.752000   484A      1.755085   485A      1.758043  
     486A      1.760117   487A      1.765521   488A      1.771142  
     489A      1.775198   490A      1.781542   491A      1.784553  
     492A      1.791891   493A      1.798943   494A      1.808213  
     495A      1.815482   496A      1.821464   497A      1.827903  
     498A      1.829935   499A      1.839733   500A      1.843012  
     501A      1.847654   502A      1.852358   503A      1.858317  
     504A      1.862173   505A      1.866609   506A      1.876044  
     507A      1.882035   508A      1.892562   509A      1.895057  
     510A      1.896156   511A      1.903577   512A      1.912382  
     513A      1.915387   514A      1.918012   515A      1.927087  
     516A      1.932541   517A      1.935628   518A      1.940217  
     519A      1.945154   520A      1.949700   521A      1.951412  
     522A      1.966050   523A      1.968786   524A      1.970768  
     525A      1.976695   526A      1.981057   527A      1.983763  
     528A      1.990403   529A      1.995547   530A      2.004961  
     531A      2.010888   532A      2.015707   533A      2.020417  
     534A      2.031788   535A      2.034332   536A      2.040322  
     537A      2.044868   538A      2.053902   539A      2.054976  
     540A      2.057963   541A      2.065356   542A      2.073913  
     543A      2.077447   544A      2.087133   545A      2.090390  
     546A      2.095833   547A      2.098084   548A      2.111202  
     549A      2.115033   550A      2.124751   551A      2.131857  
     552A      2.133226   553A      2.136353   554A      2.146238  
     555A      2.157156   556A      2.165105   557A      2.166961  
     558A      2.171132   559A      2.182298   560A      2.186629  
     561A      2.194017   562A      2.198203   563A      2.201722  
     564A      2.210391   565A      2.213574   566A      2.223155  
     567A      2.235972   568A      2.242418   569A      2.245324  
     570A      2.246694   571A      2.257214   572A      2.263952  
     573A      2.272514   574A      2.276820   575A      2.290026  
     576A      2.294443   577A      2.299213   578A      2.303585  
     579A      2.309292   580A      2.313243   581A      2.322953  
     582A      2.327459   583A      2.346009   584A      2.350189  
     585A      2.351046   586A      2.356121   587A      2.358902  
     588A      2.367820   589A      2.374440   590A      2.376913  
     591A      2.385682   592A      2.394932   593A      2.407998  
     594A      2.415662   595A      2.420398   596A      2.420764  
     597A      2.431360   598A      2.433606   599A      2.440318  
     600A      2.450080   601A      2.452597   602A      2.457098  
     603A      2.461003   604A      2.469285   605A      2.471216  
     606A      2.481568   607A      2.493041   608A      2.498955  
     609A      2.502858   610A      2.505687   611A      2.518131  
     612A      2.525052   613A      2.531522   614A      2.533026  
     615A      2.543373   616A      2.553823   617A      2.556654  
     618A      2.562075   619A      2.570026   620A      2.570987  
     621A      2.585636   622A      2.590105   623A      2.593334  
     624A      2.602217   625A      2.608642   626A      2.616540  
     627A      2.628383   628A      2.636829   629A      2.641177  
     630A      2.654802   631A      2.664144   632A      2.665942  
     633A      2.673356   634A      2.679789   635A      2.689144  
     636A      2.692416   637A      2.708711   638A      2.712310  
     639A      2.714723   640A      2.733953   641A      2.742314  
     642A      2.746349   643A      2.749744   644A      2.758243  
     645A      2.767556   646A      2.769851   647A      2.772771  
     648A      2.783770   649A      2.790900   650A      2.805221  
     651A      2.808103   652A      2.821848   653A      2.836249  
     654A      2.840513   655A      2.848928   656A      2.852988  
     657A      2.862053   658A      2.863134   659A      2.878368  
     660A      2.885032   661A      2.890175   662A      2.917533  
     663A      2.924310   664A      2.930619   665A      2.949625  
     666A      2.960369   667A      2.969198   668A      2.983087  
     669A      2.993014   670A      3.002544   671A      3.027988  
     672A      3.031889   673A      3.040002   674A      3.055330  
     675A      3.058327   676A      3.064251   677A      3.075755  
     678A      3.081994   679A      3.087761   680A      3.103959  
     681A      3.113223   682A      3.130481   683A      3.156780  
     684A      3.159401   685A      3.172465   686A      3.178146  
     687A      3.191437   688A      3.204694   689A      3.221690  
     690A      3.225563   691A      3.244884   692A      3.257436  
     693A      3.271489   694A      3.284113   695A      3.292115  
     696A      3.315628   697A      3.333668   698A      3.351144  
     699A      3.364237   700A      3.378827   701A      3.403551  
     702A      3.426481   703A      3.440303   704A      3.442608  
     705A      3.450056   706A      3.466460   707A      3.481181  
     708A      3.490133   709A      3.513555   710A      3.526734  
     711A      3.528100   712A      3.543111   713A      3.544222  
     714A      3.556172   715A      3.563198   716A      3.573949  
     717A      3.583359   718A      3.586543   719A      3.597161  
     720A      3.603831   721A      3.609429   722A      3.616109  
     723A      3.627239   724A      3.630323   725A      3.640570  
     726A      3.646292   727A      3.658699   728A      3.671073  
     729A      3.679166   730A      3.691373   731A      3.696306  
     732A      3.701417   733A      3.711494   734A      3.718841  
     735A      3.729351   736A      3.734857   737A      3.751824  
     738A      3.754832   739A      3.766496   740A      3.778980  
     741A      3.788302   742A      3.792320   743A      3.801483  
     744A      3.804396   745A      3.811330   746A      3.823855  
     747A      3.832026   748A      3.834695   749A      3.846158  
     750A      3.851872   751A      3.860300   752A      3.867831  
     753A      3.882872   754A      3.886136   755A      3.892144  
     756A      3.897897   757A      3.908134   758A      3.912809  
     759A      3.916681   760A      3.935923   761A      3.938473  
     762A      3.942686   763A      3.944488   764A      3.947658  
     765A      3.953129   766A      3.962595   767A      3.973866  
     768A      3.984415   769A      3.992503   770A      3.999767  
     771A      4.009721   772A      4.020102   773A      4.024608  
     774A      4.029914   775A      4.035945   776A      4.048689  
     777A      4.056936   778A      4.062531   779A      4.064714  
     780A      4.075442   781A      4.088179   782A      4.096061  
     783A      4.098107   784A      4.105956   785A      4.114862  
     786A      4.120273   787A      4.137591   788A      4.141966  
     789A      4.153470   790A      4.156674   791A      4.171065  
     792A      4.182371   793A      4.186805   794A      4.195469  
     795A      4.210471   796A      4.214302   797A      4.225946  
     798A      4.235835   799A      4.238542   800A      4.248175  
     801A      4.254715   802A      4.267672   803A      4.272709  
     804A      4.280576   805A      4.284501   806A      4.297161  
     807A      4.309252   808A      4.311909   809A      4.320381  
     810A      4.328340   811A      4.339284   812A      4.345372  
     813A      4.351844   814A      4.356251   815A      4.364844  
     816A      4.373756   817A      4.380236   818A      4.385371  
     819A      4.392159   820A      4.411792   821A      4.415926  
     822A      4.428267   823A      4.432347   824A      4.442964  
     825A      4.445742   826A      4.453624   827A      4.469692  
     828A      4.471060   829A      4.482409   830A      4.490519  
     831A      4.498637   832A      4.502877   833A      4.522074  
     834A      4.525805   835A      4.536659   836A      4.539345  
     837A      4.552953   838A      4.570195   839A      4.572911  
     840A      4.580364   841A      4.588857   842A      4.598045  
     843A      4.614605   844A      4.620523   845A      4.623862  
     846A      4.636985   847A      4.643263   848A      4.650841  
     849A      4.661039   850A      4.671015   851A      4.682355  
     852A      4.703971   853A      4.706841   854A      4.722591  
     855A      4.723186   856A      4.731570   857A      4.742406  
     858A      4.751044   859A      4.758921   860A      4.761852  
     861A      4.770407   862A      4.789362   863A      4.794604  
     864A      4.805036   865A      4.811125   866A      4.816258  
     867A      4.839825   868A      4.852284   869A      4.858299  
     870A      4.864382   871A      4.877051   872A      4.886082  
     873A      4.895436   874A      4.912754   875A      4.923604  
     876A      4.927640   877A      4.935306   878A      4.941315  
     879A      4.954604   880A      4.966027   881A      4.975487  
     882A      4.979545   883A      4.982100   884A      4.998618  
     885A      5.003281   886A      5.007043   887A      5.020256  
     888A      5.034153   889A      5.051612   890A      5.053054  
     891A      5.059729   892A      5.070224   893A      5.083521  
     894A      5.088379   895A      5.102958   896A      5.111265  
     897A      5.121761   898A      5.137326   899A      5.140306  
     900A      5.146966   901A      5.154751   902A      5.166139  
     903A      5.186208   904A      5.187937   905A      5.193505  
     906A      5.215455   907A      5.223142   908A      5.238399  
     909A      5.246687   910A      5.250822   911A      5.269050  
     912A      5.275047   913A      5.286621   914A      5.292592  
     915A      5.304982   916A      5.310008   917A      5.320069  
     918A      5.324323   919A      5.335042   920A      5.343843  
     921A      5.348810   922A      5.350082   923A      5.362491  
     924A      5.368168   925A      5.382353   926A      5.394722  
     927A      5.410367   928A      5.414605   929A      5.422295  
     930A      5.436115   931A      5.458326   932A      5.464622  
     933A      5.467123   934A      5.467490   935A      5.481437  
     936A      5.490813   937A      5.497861   938A      5.508153  
     939A      5.519160   940A      5.535785   941A      5.552290  
     942A      5.556285   943A      5.571297   944A      5.581980  
     945A      5.592746   946A      5.610720   947A      5.614580  
     948A      5.642279   949A      5.653805   950A      5.663813  
     951A      5.675298   952A      5.688205   953A      5.693775  
     954A      5.705776   955A      5.721462   956A      5.727748  
     957A      5.742273   958A      5.751165   959A      5.757652  
     960A      5.772876   961A      5.786579   962A      5.791095  
     963A      5.815448   964A      5.824011   965A      5.830633  
     966A      5.855334   967A      5.864398   968A      5.873616  
     969A      5.899230   970A      5.946764   971A      5.965190  
     972A      5.981784   973A      5.987622   974A      6.000644  
     975A      6.023804   976A      6.039797   977A      6.057427  
     978A      6.080684   979A      6.093722   980A      6.102648  
     981A      6.132133   982A      6.151936   983A      6.165299  
     984A      6.186529   985A      6.224060   986A      6.228063  
     987A      6.257599   988A      6.268659   989A      6.283277  
     990A      6.320889   991A      6.330366   992A      6.339326  
     993A      6.373871   994A      6.414360   995A      6.432495  
     996A      6.460118   997A      6.480148   998A      6.495777  
     999A      6.556651  1000A      6.574377  1001A      6.598836  
    1002A      6.643304  1003A      6.679324  1004A      6.689143  
    1005A      6.707934  1006A      6.737761  1007A      6.741505  
    1008A      6.776650  1009A      6.792950  1010A      6.813441  
    1011A      6.845440  1012A      6.871865  1013A      6.880494  
    1014A      6.892565  1015A      6.909581  1016A      6.917271  
    1017A      6.931115  1018A      6.934791  1019A      6.942327  
    1020A      6.957479  1021A      6.969303  1022A      6.976059  
    1023A      6.979485  1024A      6.983632  1025A      6.993327  
    1026A      6.996146  1027A      7.001726  1028A      7.014184  
    1029A      7.025817  1030A      7.029299  1031A      7.037042  
    1032A      7.047117  1033A      7.056012  1034A      7.067343  
    1035A      7.069459  1036A      7.082663  1037A      7.091301  
    1038A      7.109374  1039A      7.126925  1040A      7.130817  
    1041A      7.144850  1042A      7.180764  1043A      7.192733  
    1044A      7.204377  1045A      7.227136  1046A      7.242693  
    1047A      7.260845  1048A      7.284621  1049A      7.296616  
    1050A      7.312770  1051A      7.322438  1052A      7.330413  
    1053A      7.370006  1054A      7.383804  1055A      7.387284  
    1056A      7.407112  1057A      7.415719  1058A      7.441884  
    1059A      7.456265  1060A      7.489894  1061A      7.495697  
    1062A      7.532634  1063A      7.551252  1064A      7.567283  
    1065A      7.596030  1066A      7.598723  1067A      7.621600  
    1068A      7.655497  1069A      7.667075  1070A      7.689055  
    1071A      7.715026  1072A      7.724573  1073A      7.753861  
    1074A      7.794685  1075A      7.803827  1076A      7.831852  
    1077A      7.857069  1078A      7.876131  1079A      7.909731  
    1080A      7.919837  1081A      7.966160  1082A      7.977939  
    1083A      7.987584  1084A      8.050423  1085A      8.077831  
    1086A      8.091047  1087A      8.136300  1088A      8.156489  
    1089A      8.205563  1090A      8.341816  1091A      8.510187  
    1092A      8.663555  1093A      8.839211  1094A     11.879506  
    1095A     12.996705  1096A     14.738102  1097A     15.046494  
    1098A     16.060838  1099A     16.369499  1100A     16.997788  
    1101A     18.153925  1102A     18.334594  1103A     18.850535  
    1104A     19.096807  1105A     19.379978  1106A     19.632674  
    1107A     20.156248  1108A     20.703279  

    Final Occupation by Irrep:
              A 
    DOCC [    65 ]

  @DF-RHF Final Energy: -1120.33526639867500

   => Energetics <=

    Nuclear Repulsion Energy =           1351.2470434234346612
    One-Electron Energy =               -4229.6749090898165377
    Two-Electron Energy =                1758.0925992677068734
    Total Energy =                      -1120.3352663986750031

Computation Completed


Properties will be evaluated at   0.000000,   0.000000,   0.000000 [a0]

Properties computed using the SCF density matrix

  Nuclear Dipole Moment: [e a0]
     X:    -3.7604      Y:    22.5583      Z:   -21.3414

  Electronic Dipole Moment: [e a0]
     X:     3.8130      Y:   -17.7746      Z:    16.2739

  Dipole Moment: [e a0]
     X:     0.0526      Y:     4.7836      Z:    -5.0675     Total:     6.9689

  Dipole Moment: [D]
     X:     0.1338      Y:    12.1588      Z:   -12.8804     Total:    17.7132


*** tstop() called on localhost.localdomain at Wed Jun  1 11:51:47 2022
Module time:
	user time   =    2518.88 seconds =      41.98 minutes
	system time =      32.82 seconds =       0.55 minutes
	total time  =         70 seconds =       1.17 minutes
Total time:
	user time   =    2518.88 seconds =      41.98 minutes
	system time =      32.82 seconds =       0.55 minutes
	total time  =         70 seconds =       1.17 minutes

*** tstart() called on localhost.localdomain
*** at Wed Jun  1 11:51:47 2022


  //>>>>>>>>>>>>>>>>>>>>>>>>>>>>>>>>>>>//
  //               DFMP2               //
  //<<<<<<<<<<<<<<<<<<<<<<<<<<<<<<<<<<<//

   => Loading Basis Set <=

    Name: (AUG-CC-PVTZ AUX)
    Role: RIFIT
    Keyword: DF_BASIS_MP2
    atoms 1, 5, 9, 13, 16, 19, 23                          entry C          line   148 file /data0/home/wuhanyu/software/psi4_132/share/psi4/basis/aug-cc-pvtz-ri.gbs 
    atoms 2-4, 6-8, 10-12, 14-15, 17-18, 20-21, 29, 31, 33 entry H          line    30 file /data0/home/wuhanyu/software/psi4_132/share/psi4/basis/aug-cc-pvtz-ri.gbs 
    atoms 22                                               entry N          line   206 file /data0/home/wuhanyu/software/psi4_132/share/psi4/basis/aug-cc-pvtz-ri.gbs 
    atoms 24-25, 27-28, 30, 32                             entry O          line   264 file /data0/home/wuhanyu/software/psi4_132/share/psi4/basis/aug-cc-pvtz-ri.gbs 
    atoms 26                                               entry P          line   590 file /data0/home/wuhanyu/software/psi4_132/share/psi4/basis/aug-cc-pvtz-ri.gbs 

	 --------------------------------------------------------
	                          DF-MP2                         
	      2nd-Order Density-Fitted Moller-Plesset Theory     
	              RMP2 Wavefunction,  48 Threads             
	                                                         
	        Rob Parrish, Justin Turney, Andy Simmonett,      
	           Ed Hohenstein, and C. David Sherrill          
	 --------------------------------------------------------

   => Auxiliary Basis Set <=

  Basis Set: (AUG-CC-PVTZ AUX)
    Blend: AUG-CC-PVTZ-RI
    Number of shells: 681
    Number of basis function: 2459
    Number of Cartesian functions: 3085
    Spherical Harmonics?: true
    Max angular momentum: 4

	 --------------------------------------------------------
	                 NBF =  1108, NAUX =  2459
	 --------------------------------------------------------
	   CLASS    FOCC     OCC    AOCC    AVIR     VIR    FVIR
	   PAIRS      19      65      46    1043    1043       0
	 --------------------------------------------------------

	 Will save fitting metric to file 97.

	-----------------------------------------------------------
	 ==================> DF-MP2 Energies <==================== 
	-----------------------------------------------------------
	 Reference Energy          =   -1120.3352663986750031 [Eh]
	 Singles Energy            =      -0.0000000000000000 [Eh]
	 Same-Spin Energy          =      -0.7728896394024465 [Eh]
	 Opposite-Spin Energy      =      -2.3269936387404462 [Eh]
	 Correlation Energy        =      -3.0998832781428929 [Eh]
	 Total Energy              =   -1123.4351496768179004 [Eh]
	-----------------------------------------------------------
	 ================> DF-SCS-MP2 Energies <================== 
	-----------------------------------------------------------
	 SCS Same-Spin Scale       =       0.3333333333333333 [-]
	 SCS Opposite-Spin Scale   =       1.2000000000000000 [-]
	 SCS Same-Spin Energy      =      -0.2576298798008155 [Eh]
	 SCS Opposite-Spin Energy  =      -2.7923923664885355 [Eh]
	 SCS Correlation Energy    =      -3.0500222462893509 [Eh]
	 SCS Total Energy          =   -1123.3852886449642483 [Eh]
	-----------------------------------------------------------


*** tstop() called on localhost.localdomain at Wed Jun  1 11:52:16 2022
Module time:
	user time   =     748.14 seconds =      12.47 minutes
	system time =      12.15 seconds =       0.20 minutes
	total time  =         29 seconds =       0.48 minutes
Total time:
	user time   =    3267.02 seconds =      54.45 minutes
	system time =      44.97 seconds =       0.75 minutes
	total time  =         99 seconds =       1.65 minutes

  //>>>>>>>>>>>>>>>>>>>>>>>>>>>>>>>>>>>//
  //            Monomer A HF           //
  //<<<<<<<<<<<<<<<<<<<<<<<<<<<<<<<<<<<//


*** tstart() called on localhost.localdomain
*** at Wed Jun  1 11:52:16 2022

   => Loading Basis Set <=

    Name: AUG-CC-PVTZ
    Role: ORBITAL
    Keyword: BASIS
    atoms 1, 5, 9, 13, 16, 19, 23                          entry C          line   235 file /data0/home/wuhanyu/software/psi4_132/share/psi4/basis/aug-cc-pvtz.gbs 
    atoms 2-4, 6-8, 10-12, 14-15, 17-18, 20-21, 29, 31, 33 entry H          line    36 file /data0/home/wuhanyu/software/psi4_132/share/psi4/basis/aug-cc-pvtz.gbs 
    atoms 22                                               entry N          line   281 file /data0/home/wuhanyu/software/psi4_132/share/psi4/basis/aug-cc-pvtz.gbs 
    atoms 24-25, 27-28, 30, 32                             entry O          line   327 file /data0/home/wuhanyu/software/psi4_132/share/psi4/basis/aug-cc-pvtz.gbs 
    atoms 26                                               entry P          line   820 file /data0/home/wuhanyu/software/psi4_132/share/psi4/basis/aug-cc-pvtz.gbs 


         ---------------------------------------------------------
                                   SCF
               by Justin Turney, Rob Parrish, Andy Simmonett
                          and Daniel G. A. Smith
                              RHF Reference
                       48 Threads, 171661 MiB Core
         ---------------------------------------------------------

  ==> Geometry <==

    Molecular point group: c1
    Full point group: C1

    Geometry (in Angstrom), charge = 0, multiplicity = 1:

       Center              X                  Y                   Z               Mass       
    ------------   -----------------  -----------------  -----------------  -----------------
         C            1.010839236038     0.416887144902    -2.788064468265    12.000000000000
         H            0.762839236038    -0.121112855098    -3.715064468265     1.007825032230
         H            1.901839236038     1.036887144902    -2.962064468265     1.007825032230
         H            1.281839236038    -0.362112855098    -2.028064468265     1.007825032230
         C           -0.518160763962     2.247887144902    -3.345064468265    12.000000000000
         H           -0.768160763962     1.761887144902    -4.303064468265     1.007825032230
         H           -1.398160763962     2.837887144902    -3.030064468265     1.007825032230
         H            0.308839236038     2.952887144902    -3.526064468265     1.007825032230
         C           -1.311160763962     0.313887144902    -2.068064468265    12.000000000000
         H           -2.144160763962     0.812887144902    -1.533064468265     1.007825032230
         H           -1.682160763962    -0.117112855098    -3.006064468265     1.007825032230
         H           -1.018160763962    -0.524112855098    -1.390064468265     1.007825032230
         C            0.272839236038     1.948887144902    -1.020064468265    12.000000000000
         H            1.171839236038     2.559887144902    -1.235064468265     1.007825032230
         H            0.597839236038     1.152887144902    -0.291064468265     1.007825032230
         C           -0.831160763962     2.814887144902    -0.394064468265    12.000000000000
         H           -1.840160763962     2.501887144902    -0.739064468265     1.007825032230
         H           -0.714160763962     3.872887144902    -0.691064468265     1.007825032230
         C           -0.804160763962     2.686887144902     1.129935531735    12.000000000000
         H           -1.656160763962     3.215887144902     1.590935531735     1.007825032230
         H            0.107839236038     3.129887144902     1.564935531735     1.007825032230
         N           -0.152160763962     1.236887144902    -2.298064468265    14.003074004430
         C           -0.890160763962     1.199887144902     1.532935531735    12.000000000000
         O           -1.573160763962     0.468887144902     0.776935531735    15.994914619570
         O           -0.236160763962     0.838887144902     2.514934531735    15.994914619570
      Gh(P)           0.755839236038    -2.194112855098     0.919935531735    30.973761998420
      Gh(O)           1.299839236038    -3.530112855098     0.714935531735    15.994914619570
      Gh(O)           0.950839236038    -1.631112855098     2.378935531735    15.994914619570
      Gh(H)           0.454839236038    -0.691112855098     2.474935531735     1.007825032230
      Gh(O)           1.477839236038    -1.066112855098    -0.024064468265    15.994914619570
      Gh(H)           2.458839236038    -1.042112855098     0.190935531735     1.007825032230
      Gh(O)          -0.739160763962    -2.022112855098     0.464935531735    15.994914619570
      Gh(H)          -1.101160763962    -1.029112855098     0.723935531735     1.007825032230

  Running in c1 symmetry.

  Rotational constants: A =      0.02430  B =      0.01270  C =      0.00971 [cm^-1]
  Rotational constants: A =    728.37028  B =    380.85893  C =    291.21361 [MHz]
  Nuclear repulsion =  591.125982816965347

  Charge       = 0
  Multiplicity = 1
  Electrons    = 80
  Nalpha       = 40
  Nbeta        = 40

  ==> Algorithm <==

  SCF Algorithm Type is DF.
  DIIS enabled.
  MOM disabled.
  Fractional occupation disabled.
  Guess Type is SAD.
  Energy threshold   = 1.00e-08
  Density threshold  = 1.00e-08
  Integral threshold = 0.00e+00

  ==> Primary Basis <==

  Basis Set: AUG-CC-PVTZ
    Blend: AUG-CC-PVTZ
    Number of shells: 374
    Number of basis function: 1108
    Number of Cartesian functions: 1279
    Spherical Harmonics?: true
    Max angular momentum: 3

   => Loading Basis Set <=

    Name: (AUG-CC-PVTZ AUX)
    Role: JKFIT
    Keyword: DF_BASIS_SCF
    atoms 1, 5, 9, 13, 16, 19, 23                          entry C          line   162 file /data0/home/wuhanyu/software/psi4_132/share/psi4/basis/aug-cc-pvtz-jkfit.gbs 
    atoms 2-4, 6-8, 10-12, 14-15, 17-18, 20-21, 29, 31, 33 entry H          line    70 file /data0/home/wuhanyu/software/psi4_132/share/psi4/basis/aug-cc-pvtz-jkfit.gbs 
    atoms 22                                               entry N          line   224 file /data0/home/wuhanyu/software/psi4_132/share/psi4/basis/aug-cc-pvtz-jkfit.gbs 
    atoms 24-25, 27-28, 30, 32                             entry O          line   286 file /data0/home/wuhanyu/software/psi4_132/share/psi4/basis/aug-cc-pvtz-jkfit.gbs 
    atoms 26                                               entry P          line   644 file /data0/home/wuhanyu/software/psi4_132/share/psi4/basis/aug-cc-pvtz-jkfit.gbs 

  ==> Pre-Iterations <==

   -------------------------------------------------------
    Irrep   Nso     Nmo     Nalpha   Nbeta   Ndocc  Nsocc
   -------------------------------------------------------
     A       1108    1108       0       0       0       0
   -------------------------------------------------------
    Total    1108    1108      40      40      40       0
   -------------------------------------------------------

  ==> Integral Setup <==

  ==> DiskDFJK: Density-Fitted J/K Matrices <==

    J tasked:                  Yes
    K tasked:                  Yes
    wK tasked:                  No
    OpenMP threads:             48
    Integrals threads:          48
    Memory [MiB]:           128746
    Algorithm:                Core
    Integral Cache:           LOAD
    Schwarz Cutoff:          1E-12
    Fitting Condition:       1E-10

   => Auxiliary Basis Set <=

  Basis Set: (AUG-CC-PVTZ AUX)
    Blend: AUG-CC-PVTZ-JKFIT
    Number of shells: 714
    Number of basis function: 2430
    Number of Cartesian functions: 3004
    Spherical Harmonics?: true
    Max angular momentum: 4

  Minimum eigenvalue in the overlap matrix is 6.0777314626E-07.
  Using Symmetric Orthogonalization.

  SCF Guess: Superposition of Atomic Densities via on-the-fly atomic UHF.

  ==> Iterations <==

                           Total Energy        Delta E     RMS |[F,P]|

   @DF-RHF iter SAD:  -477.57895355848592   -4.77579e+02   0.00000e+00 
   @DF-RHF iter   1:  -477.68958219530509   -1.10629e-01   7.65755e-04 DIIS
   @DF-RHF iter   2:  -478.00057640503337   -3.10994e-01   4.23645e-04 DIIS
   @DF-RHF iter   3:  -478.07849755623852   -7.79212e-02   7.56085e-05 DIIS
   @DF-RHF iter   4:  -478.08343303927541   -4.93548e-03   2.71268e-05 DIIS
   @DF-RHF iter   5:  -478.08396017128314   -5.27132e-04   5.87486e-06 DIIS
   @DF-RHF iter   6:  -478.08399478973564   -3.46185e-05   1.63646e-06 DIIS
   @DF-RHF iter   7:  -478.08399801253876   -3.22280e-06   6.12337e-07 DIIS
   @DF-RHF iter   8:  -478.08399849189499   -4.79356e-07   2.28681e-07 DIIS
   @DF-RHF iter   9:  -478.08399858249868   -9.06037e-08   1.26510e-07 DIIS
   @DF-RHF iter  10:  -478.08399860295759   -2.04589e-08   3.77466e-08 DIIS
   @DF-RHF iter  11:  -478.08399860611280   -3.15521e-09   1.62136e-08 DIIS
   @DF-RHF iter  12:  -478.08399860646540   -3.52600e-10   5.44416e-09 DIIS
  Energy and wave function converged.


  ==> Post-Iterations <==

    Orbital Energies [Eh]
    ---------------------

    Doubly Occupied:                                                      

       1A    -20.421345     2A    -20.417529     3A    -15.741079  
       4A    -11.337133     5A    -11.336913     6A    -11.314261  
       7A    -11.303213     8A    -11.261060     9A    -11.242609  
      10A    -11.196783    11A     -1.368441    12A     -1.309968  
      13A     -1.203431    14A     -1.079712    15A     -1.042199  
      16A     -1.023463    17A     -0.976426    18A     -0.889973  
      19A     -0.826829    20A     -0.738646    21A     -0.733085  
      22A     -0.717985    23A     -0.661005    24A     -0.645976  
      25A     -0.637227    26A     -0.606240    27A     -0.605085  
      28A     -0.594846    29A     -0.584497    30A     -0.577766  
      31A     -0.563126    32A     -0.559780    33A     -0.533780  
      34A     -0.517996    35A     -0.499785    36A     -0.481684  
      37A     -0.454006    38A     -0.342517    39A     -0.329014  
      40A     -0.325422  

    Virtual:                                                              

      41A     -0.000072    42A      0.015769    43A      0.016036  
      44A      0.027859    45A      0.035911    46A      0.037578  
      47A      0.042990    48A      0.045543    49A      0.054520  
      50A      0.062681    51A      0.065770    52A      0.069067  
      53A      0.071312    54A      0.072559    55A      0.077703  
      56A      0.081509    57A      0.082716    58A      0.093750  
      59A      0.095584    60A      0.095787    61A      0.102567  
      62A      0.103180    63A      0.104952    64A      0.109394  
      65A      0.112046    66A      0.112449    67A      0.119797  
      68A      0.121790    69A      0.126127    70A      0.127244  
      71A      0.129780    72A      0.137075    73A      0.142380  
      74A      0.143388    75A      0.149589    76A      0.155307  
      77A      0.156329    78A      0.161785    79A      0.166037  
      80A      0.167314    81A      0.173568    82A      0.174109  
      83A      0.176739    84A      0.180022    85A      0.184297  
      86A      0.188909    87A      0.190126    88A      0.197774  
      89A      0.201158    90A      0.206855    91A      0.215905  
      92A      0.218085    93A      0.219702    94A      0.225606  
      95A      0.226547    96A      0.228230    97A      0.233581  
      98A      0.234497    99A      0.240408   100A      0.241017  
     101A      0.244325   102A      0.248610   103A      0.251708  
     104A      0.253179   105A      0.258054   106A      0.260807  
     107A      0.264231   108A      0.268976   109A      0.273772  
     110A      0.278558   111A      0.280402   112A      0.288677  
     113A      0.290611   114A      0.291243   115A      0.297269  
     116A      0.298517   117A      0.300754   118A      0.306936  
     119A      0.309101   120A      0.314940   121A      0.315922  
     122A      0.321086   123A      0.325124   124A      0.325868  
     125A      0.332045   126A      0.334966   127A      0.338810  
     128A      0.340435   129A      0.342337   130A      0.345225  
     131A      0.346295   132A      0.354638   133A      0.358461  
     134A      0.360057   135A      0.361536   136A      0.366290  
     137A      0.371888   138A      0.374496   139A      0.376893  
     140A      0.384426   141A      0.385465   142A      0.390021  
     143A      0.391202   144A      0.396153   145A      0.399445  
     146A      0.402984   147A      0.404798   148A      0.408628  
     149A      0.410986   150A      0.416097   151A      0.419201  
     152A      0.423322   153A      0.425775   154A      0.429653  
     155A      0.432241   156A      0.436853   157A      0.441209  
     158A      0.443448   159A      0.449374   160A      0.449787  
     161A      0.452874   162A      0.462678   163A      0.463712  
     164A      0.466798   165A      0.471254   166A      0.473678  
     167A      0.474556   168A      0.479678   169A      0.484385  
     170A      0.488470   171A      0.488988   172A      0.489546  
     173A      0.497543   174A      0.499383   175A      0.500671  
     176A      0.505470   177A      0.510149   178A      0.517988  
     179A      0.519843   180A      0.522019   181A      0.523449  
     182A      0.528042   183A      0.533024   184A      0.537479  
     185A      0.540031   186A      0.543307   187A      0.546718  
     188A      0.549589   189A      0.552847   190A      0.555168  
     191A      0.556834   192A      0.559774   193A      0.570178  
     194A      0.570907   195A      0.575374   196A      0.580349  
     197A      0.583447   198A      0.587711   199A      0.590909  
     200A      0.595410   201A      0.598176   202A      0.604185  
     203A      0.609937   204A      0.610955   205A      0.618238  
     206A      0.621217   207A      0.623300   208A      0.625931  
     209A      0.631894   210A      0.633507   211A      0.637514  
     212A      0.643815   213A      0.647424   214A      0.652069  
     215A      0.653443   216A      0.657178   217A      0.663101  
     218A      0.667065   219A      0.674699   220A      0.679720  
     221A      0.681447   222A      0.688533   223A      0.689559  
     224A      0.693550   225A      0.699850   226A      0.704796  
     227A      0.706833   228A      0.708236   229A      0.713288  
     230A      0.718809   231A      0.724125   232A      0.727015  
     233A      0.734125   234A      0.743688   235A      0.749131  
     236A      0.750902   237A      0.757022   238A      0.761105  
     239A      0.766303   240A      0.767016   241A      0.774165  
     242A      0.777479   243A      0.781435   244A      0.787013  
     245A      0.793719   246A      0.798849   247A      0.803344  
     248A      0.808747   249A      0.812890   250A      0.814572  
     251A      0.822855   252A      0.824859   253A      0.828410  
     254A      0.830619   255A      0.835564   256A      0.839785  
     257A      0.846494   258A      0.850498   259A      0.855392  
     260A      0.858548   261A      0.862779   262A      0.872998  
     263A      0.874438   264A      0.880498   265A      0.883744  
     266A      0.889524   267A      0.895160   268A      0.897351  
     269A      0.900803   270A      0.903868   271A      0.911010  
     272A      0.915750   273A      0.918908   274A      0.921522  
     275A      0.924951   276A      0.930139   277A      0.931518  
     278A      0.937148   279A      0.937324   280A      0.943995  
     281A      0.948075   282A      0.950713   283A      0.951749  
     284A      0.957615   285A      0.959790   286A      0.961339  
     287A      0.965456   288A      0.966964   289A      0.974511  
     290A      0.980171   291A      0.983830   292A      0.985851  
     293A      0.991153   294A      0.996781   295A      0.998402  
     296A      1.003617   297A      1.012310   298A      1.015116  
     299A      1.021872   300A      1.024107   301A      1.031401  
     302A      1.031753   303A      1.033697   304A      1.034483  
     305A      1.041810   306A      1.044383   307A      1.048402  
     308A      1.051505   309A      1.055243   310A      1.060258  
     311A      1.066342   312A      1.071062   313A      1.072616  
     314A      1.074924   315A      1.077102   316A      1.084924  
     317A      1.093449   318A      1.100002   319A      1.103395  
     320A      1.112460   321A      1.115021   322A      1.119877  
     323A      1.123516   324A      1.126892   325A      1.131460  
     326A      1.134238   327A      1.139996   328A      1.145718  
     329A      1.150528   330A      1.153678   331A      1.157078  
     332A      1.163558   333A      1.167164   334A      1.173872  
     335A      1.175284   336A      1.181509   337A      1.186049  
     338A      1.188610   339A      1.195143   340A      1.199435  
     341A      1.206684   342A      1.207166   343A      1.212489  
     344A      1.215869   345A      1.221345   346A      1.223509  
     347A      1.225549   348A      1.234576   349A      1.235274  
     350A      1.238332   351A      1.246111   352A      1.248429  
     353A      1.254606   354A      1.258385   355A      1.262799  
     356A      1.269142   357A      1.278348   358A      1.284010  
     359A      1.286880   360A      1.292809   361A      1.303489  
     362A      1.304082   363A      1.310263   364A      1.314248  
     365A      1.320808   366A      1.327675   367A      1.330621  
     368A      1.333666   369A      1.342679   370A      1.347922  
     371A      1.351092   372A      1.354147   373A      1.364129  
     374A      1.367662   375A      1.373734   376A      1.377423  
     377A      1.382033   378A      1.383179   379A      1.387985  
     380A      1.395825   381A      1.402329   382A      1.405558  
     383A      1.414314   384A      1.417311   385A      1.419907  
     386A      1.424985   387A      1.428322   388A      1.433497  
     389A      1.435883   390A      1.439410   391A      1.442773  
     392A      1.458788   393A      1.462587   394A      1.467077  
     395A      1.469044   396A      1.475486   397A      1.479044  
     398A      1.479416   399A      1.482677   400A      1.493277  
     401A      1.496049   402A      1.498015   403A      1.503252  
     404A      1.518007   405A      1.521716   406A      1.523351  
     407A      1.526926   408A      1.533419   409A      1.534484  
     410A      1.540038   411A      1.545635   412A      1.548391  
     413A      1.552042   414A      1.559286   415A      1.563601  
     416A      1.572676   417A      1.576418   418A      1.578630  
     419A      1.586580   420A      1.587232   421A      1.592543  
     422A      1.596143   423A      1.602613   424A      1.606321  
     425A      1.607513   426A      1.611702   427A      1.615368  
     428A      1.620916   429A      1.626949   430A      1.632589  
     431A      1.636785   432A      1.643983   433A      1.652800  
     434A      1.655778   435A      1.657483   436A      1.658812  
     437A      1.666618   438A      1.671626   439A      1.679204  
     440A      1.682216   441A      1.688078   442A      1.690614  
     443A      1.694478   444A      1.701433   445A      1.713515  
     446A      1.714835   447A      1.717793   448A      1.723718  
     449A      1.728842   450A      1.730017   451A      1.738463  
     452A      1.742179   453A      1.751744   454A      1.755082  
     455A      1.757696   456A      1.763370   457A      1.769409  
     458A      1.777828   459A      1.779225   460A      1.786324  
     461A      1.791664   462A      1.795983   463A      1.802139  
     464A      1.805390   465A      1.812697   466A      1.818607  
     467A      1.820115   468A      1.828654   469A      1.832044  
     470A      1.838475   471A      1.844291   472A      1.851989  
     473A      1.863268   474A      1.869279   475A      1.880990  
     476A      1.883970   477A      1.888573   478A      1.895796  
     479A      1.900294   480A      1.904013   481A      1.908465  
     482A      1.911464   483A      1.915583   484A      1.916781  
     485A      1.924978   486A      1.931991   487A      1.942122  
     488A      1.947371   489A      1.952987   490A      1.959640  
     491A      1.965050   492A      1.966888   493A      1.975737  
     494A      1.980497   495A      1.986104   496A      1.991898  
     497A      1.995775   498A      2.002028   499A      2.007024  
     500A      2.012295   501A      2.018693   502A      2.022670  
     503A      2.029210   504A      2.040152   505A      2.046034  
     506A      2.048032   507A      2.060669   508A      2.064555  
     509A      2.074365   510A      2.076300   511A      2.085406  
     512A      2.088511   513A      2.090445   514A      2.093674  
     515A      2.099663   516A      2.107757   517A      2.112770  
     518A      2.125242   519A      2.128204   520A      2.136753  
     521A      2.144541   522A      2.149718   523A      2.153149  
     524A      2.154895   525A      2.168234   526A      2.174852  
     527A      2.181199   528A      2.194650   529A      2.200574  
     530A      2.208510   531A      2.213624   532A      2.225467  
     533A      2.235721   534A      2.237554   535A      2.242029  
     536A      2.253915   537A      2.260865   538A      2.263121  
     539A      2.272087   540A      2.273358   541A      2.285269  
     542A      2.290258   543A      2.298854   544A      2.305146  
     545A      2.308944   546A      2.323761   547A      2.331542  
     548A      2.333263   549A      2.339927   550A      2.348433  
     551A      2.355889   552A      2.362571   553A      2.368892  
     554A      2.379879   555A      2.381041   556A      2.390683  
     557A      2.392856   558A      2.405837   559A      2.418711  
     560A      2.427862   561A      2.441192   562A      2.443086  
     563A      2.446331   564A      2.448298   565A      2.458968  
     566A      2.462405   567A      2.467981   568A      2.475024  
     569A      2.484221   570A      2.492866   571A      2.495438  
     572A      2.497519   573A      2.508664   574A      2.515256  
     575A      2.523457   576A      2.524064   577A      2.540907  
     578A      2.549581   579A      2.558221   580A      2.564805  
     581A      2.570288   582A      2.575123   583A      2.581479  
     584A      2.583780   585A      2.592171   586A      2.616307  
     587A      2.621823   588A      2.624357   589A      2.629912  
     590A      2.640075   591A      2.652874   592A      2.660444  
     593A      2.667180   594A      2.669081   595A      2.677129  
     596A      2.683665   597A      2.692285   598A      2.701125  
     599A      2.712424   600A      2.717270   601A      2.724231  
     602A      2.730699   603A      2.734559   604A      2.741532  
     605A      2.757718   606A      2.764540   607A      2.774620  
     608A      2.779452   609A      2.786902   610A      2.789069  
     611A      2.796444   612A      2.811380   613A      2.817884  
     614A      2.821714   615A      2.833661   616A      2.843624  
     617A      2.861227   618A      2.865270   619A      2.873430  
     620A      2.883844   621A      2.888816   622A      2.895311  
     623A      2.900064   624A      2.912584   625A      2.925224  
     626A      2.928350   627A      2.941216   628A      2.944907  
     629A      2.960744   630A      2.970147   631A      2.979448  
     632A      2.991792   633A      2.993178   634A      3.005422  
     635A      3.014918   636A      3.025208   637A      3.035499  
     638A      3.045175   639A      3.052393   640A      3.056880  
     641A      3.059441   642A      3.060775   643A      3.071918  
     644A      3.087799   645A      3.094069   646A      3.100803  
     647A      3.111738   648A      3.128929   649A      3.135711  
     650A      3.138403   651A      3.169046   652A      3.179782  
     653A      3.190929   654A      3.202291   655A      3.214658  
     656A      3.221810   657A      3.236946   658A      3.240144  
     659A      3.260172   660A      3.269167   661A      3.274809  
     662A      3.282094   663A      3.307546   664A      3.315037  
     665A      3.327682   666A      3.332700   667A      3.346926  
     668A      3.358440   669A      3.375964   670A      3.386662  
     671A      3.397846   672A      3.404044   673A      3.412534  
     674A      3.427770   675A      3.437828   676A      3.463690  
     677A      3.474920   678A      3.488961   679A      3.497049  
     680A      3.516657   681A      3.524345   682A      3.532997  
     683A      3.546616   684A      3.553869   685A      3.563561  
     686A      3.566430   687A      3.574037   688A      3.578314  
     689A      3.585753   690A      3.593464   691A      3.604168  
     692A      3.612326   693A      3.616932   694A      3.625344  
     695A      3.629494   696A      3.642785   697A      3.649308  
     698A      3.662033   699A      3.669895   700A      3.679599  
     701A      3.685729   702A      3.693974   703A      3.700500  
     704A      3.701608   705A      3.711489   706A      3.728549  
     707A      3.739487   708A      3.752618   709A      3.757720  
     710A      3.764233   711A      3.779573   712A      3.782438  
     713A      3.789641   714A      3.798164   715A      3.802843  
     716A      3.808744   717A      3.824664   718A      3.827626  
     719A      3.839805   720A      3.844306   721A      3.845420  
     722A      3.855321   723A      3.862275   724A      3.873845  
     725A      3.875626   726A      3.880704   727A      3.886075  
     728A      3.898582   729A      3.906368   730A      3.916286  
     731A      3.918071   732A      3.923818   733A      3.931021  
     734A      3.941916   735A      3.958203   736A      3.959926  
     737A      3.964750   738A      3.971895   739A      3.975948  
     740A      3.983868   741A      3.988139   742A      3.994143  
     743A      4.006672   744A      4.015285   745A      4.020385  
     746A      4.026902   747A      4.037950   748A      4.041786  
     749A      4.051640   750A      4.061208   751A      4.065027  
     752A      4.074486   753A      4.082842   754A      4.090029  
     755A      4.096515   756A      4.102072   757A      4.110677  
     758A      4.119470   759A      4.123520   760A      4.130623  
     761A      4.142014   762A      4.146437   763A      4.153201  
     764A      4.162510   765A      4.163560   766A      4.180070  
     767A      4.187598   768A      4.193017   769A      4.197237  
     770A      4.208127   771A      4.211134   772A      4.226151  
     773A      4.239271   774A      4.248998   775A      4.249531  
     776A      4.259651   777A      4.265221   778A      4.273959  
     779A      4.276777   780A      4.282292   781A      4.295418  
     782A      4.300481   783A      4.307988   784A      4.308532  
     785A      4.310849   786A      4.322893   787A      4.332491  
     788A      4.352320   789A      4.358393   790A      4.362987  
     791A      4.371087   792A      4.377737   793A      4.380963  
     794A      4.388562   795A      4.393138   796A      4.407194  
     797A      4.418552   798A      4.426079   799A      4.430864  
     800A      4.434347   801A      4.445955   802A      4.460112  
     803A      4.468953   804A      4.478158   805A      4.484757  
     806A      4.489478   807A      4.500788   808A      4.510173  
     809A      4.511516   810A      4.526206   811A      4.528264  
     812A      4.539225   813A      4.541217   814A      4.555483  
     815A      4.557760   816A      4.571494   817A      4.584563  
     818A      4.606938   819A      4.610121   820A      4.622230  
     821A      4.634856   822A      4.637789   823A      4.644542  
     824A      4.652970   825A      4.666956   826A      4.683590  
     827A      4.688212   828A      4.695382   829A      4.705448  
     830A      4.717129   831A      4.724536   832A      4.742492  
     833A      4.747622   834A      4.756235   835A      4.764987  
     836A      4.772703   837A      4.792347   838A      4.796430  
     839A      4.799170   840A      4.809574   841A      4.820091  
     842A      4.830840   843A      4.837490   844A      4.851801  
     845A      4.858922   846A      4.866548   847A      4.877118  
     848A      4.896872   849A      4.903961   850A      4.910258  
     851A      4.921983   852A      4.924620   853A      4.937503  
     854A      4.961122   855A      4.969006   856A      4.972916  
     857A      4.977363   858A      4.990177   859A      4.996829  
     860A      5.014476   861A      5.020551   862A      5.029485  
     863A      5.036725   864A      5.059769   865A      5.066481  
     866A      5.080003   867A      5.090808   868A      5.096449  
     869A      5.105377   870A      5.122488   871A      5.129949  
     872A      5.144345   873A      5.152595   874A      5.165385  
     875A      5.176231   876A      5.183106   877A      5.194733  
     878A      5.203989   879A      5.211882   880A      5.219582  
     881A      5.241166   882A      5.251690   883A      5.264654  
     884A      5.269309   885A      5.277421   886A      5.294068  
     887A      5.299153   888A      5.303342   889A      5.318306  
     890A      5.324829   891A      5.333668   892A      5.342600  
     893A      5.344584   894A      5.350870   895A      5.358545  
     896A      5.368870   897A      5.379311   898A      5.393675  
     899A      5.403649   900A      5.423733   901A      5.441068  
     902A      5.447823   903A      5.467549   904A      5.481188  
     905A      5.492587   906A      5.493785   907A      5.500632  
     908A      5.509768   909A      5.524388   910A      5.530172  
     911A      5.549714   912A      5.562068   913A      5.573494  
     914A      5.577572   915A      5.585762   916A      5.601130  
     917A      5.605406   918A      5.607889   919A      5.614629  
     920A      5.631244   921A      5.641860   922A      5.645989  
     923A      5.667409   924A      5.686211   925A      5.689022  
     926A      5.694416   927A      5.696272   928A      5.704213  
     929A      5.722598   930A      5.734919   931A      5.749036  
     932A      5.758943   933A      5.765281   934A      5.778800  
     935A      5.792455   936A      5.799042   937A      5.816478  
     938A      5.824596   939A      5.839546   940A      5.851596  
     941A      5.865987   942A      5.881817   943A      5.894317  
     944A      5.921267   945A      5.926588   946A      5.961087  
     947A      5.981021   948A      6.001333   949A      6.006080  
     950A      6.046000   951A      6.050563   952A      6.062735  
     953A      6.077862   954A      6.102250   955A      6.119194  
     956A      6.125743   957A      6.162413   958A      6.176475  
     959A      6.187757   960A      6.217389   961A      6.235605  
     962A      6.252964   963A      6.268135   964A      6.284588  
     965A      6.302908   966A      6.331242   967A      6.344439  
     968A      6.361168   969A      6.376005   970A      6.391556  
     971A      6.428574   972A      6.459104   973A      6.474495  
     974A      6.497039   975A      6.517744   976A      6.585342  
     977A      6.596305   978A      6.634955   979A      6.646870  
     980A      6.675240   981A      6.691775   982A      6.723800  
     983A      6.729791   984A      6.790805   985A      6.818036  
     986A      6.843357   987A      6.855676   988A      6.892128  
     989A      6.896756   990A      6.905606   991A      6.963713  
     992A      6.979019   993A      6.979838   994A      7.001417  
     995A      7.028682   996A      7.051854   997A      7.061825  
     998A      7.077580   999A      7.105825  1000A      7.111648  
    1001A      7.143963  1002A      7.149308  1003A      7.223888  
    1004A      7.262980  1005A      7.294452  1006A      7.313556  
    1007A      7.348909  1008A      7.401630  1009A      7.452799  
    1010A      7.482609  1011A      7.532916  1012A      7.568912  
    1013A      7.614912  1014A      7.640211  1015A      7.684861  
    1016A      7.688747  1017A      7.712641  1018A      7.822001  
    1019A      7.826599  1020A      7.833561  1021A      7.862526  
    1022A      7.870691  1023A      7.877816  1024A      7.914685  
    1025A      7.933462  1026A      7.945136  1027A      7.960287  
    1028A      7.964587  1029A      7.993280  1030A      8.000226  
    1031A      8.012744  1032A      8.016397  1033A      8.023374  
    1034A      8.042866  1035A      8.056195  1036A      8.065489  
    1037A      8.111750  1038A      8.128884  1039A      8.135982  
    1040A      8.188693  1041A      8.209908  1042A      8.234365  
    1043A      8.254563  1044A      8.319117  1045A      8.323398  
    1046A      8.409843  1047A      8.481451  1048A      8.496600  
    1049A      8.570281  1050A      8.659412  1051A      8.680554  
    1052A      8.685926  1053A      8.764114  1054A      9.492963  
    1055A      9.839045  1056A      9.858525  1057A      9.889044  
    1058A      9.991778  1059A     10.031928  1060A     10.042922  
    1061A     10.098410  1062A     10.152711  1063A     10.186433  
    1064A     10.243990  1065A     10.275980  1066A     10.343362  
    1067A     10.356667  1068A     10.404750  1069A     10.522886  
    1070A     10.540431  1071A     10.760775  1072A     10.813482  
    1073A     10.925246  1074A     11.063364  1075A     11.734178  
    1076A     11.770111  1077A     11.793142  1078A     11.901399  
    1079A     11.932358  1080A     12.072019  1081A     12.094983  
    1082A     12.309578  1083A     12.512123  1084A     12.721108  
    1085A     12.831866  1086A     13.135958  1087A     13.933184  
    1088A     14.045117  1089A     14.099919  1090A     16.400496  
    1091A     17.072890  1092A     18.196802  1093A     18.342713  
    1094A     18.851127  1095A     19.101422  1096A     19.352250  
    1097A     19.608273  1098A     19.668888  1099A     20.183244  
    1100A     20.771284  1101A     23.463182  1102A     23.622699  
    1103A     24.041617  1104A     60.378976  1105A     63.828503  
    1106A     64.437956  1107A     66.455554  1108A    124.000801  

    Final Occupation by Irrep:
              A 
    DOCC [    40 ]

  @DF-RHF Final Energy:  -478.08399860646540

   => Energetics <=

    Nuclear Repulsion Energy =            591.1259828169653474
    One-Electron Energy =               -1824.4163128399284233
    Two-Electron Energy =                 755.2063314164977328
    Total Energy =                       -478.0839986064654568

Computation Completed


Properties will be evaluated at   0.000000,   0.000000,   0.000000 [a0]

Properties computed using the SCF density matrix

  Nuclear Dipole Moment: [e a0]
     X:   -73.8030      Y:   214.6861      Z:  -107.2612

  Electronic Dipole Moment: [e a0]
     X:    74.8812      Y:  -213.3578      Z:   101.2722

  Dipole Moment: [e a0]
     X:     1.0782      Y:     1.3282      Z:    -5.9890     Total:     6.2285

  Dipole Moment: [D]
     X:     2.7404      Y:     3.3760      Z:   -15.2224     Total:    15.8313


*** tstop() called on localhost.localdomain at Wed Jun  1 11:53:00 2022
Module time:
	user time   =    1603.17 seconds =      26.72 minutes
	system time =      18.64 seconds =       0.31 minutes
	total time  =         44 seconds =       0.73 minutes
Total time:
	user time   =    4870.19 seconds =      81.17 minutes
	system time =      63.61 seconds =       1.06 minutes
	total time  =        143 seconds =       2.38 minutes

*** tstart() called on localhost.localdomain
*** at Wed Jun  1 11:53:00 2022


  //>>>>>>>>>>>>>>>>>>>>>>>>>>>>>>>>>>>//
  //               DFMP2               //
  //<<<<<<<<<<<<<<<<<<<<<<<<<<<<<<<<<<<//

   => Loading Basis Set <=

    Name: (AUG-CC-PVTZ AUX)
    Role: RIFIT
    Keyword: DF_BASIS_MP2
    atoms 1, 5, 9, 13, 16, 19, 23                          entry C          line   148 file /data0/home/wuhanyu/software/psi4_132/share/psi4/basis/aug-cc-pvtz-ri.gbs 
    atoms 2-4, 6-8, 10-12, 14-15, 17-18, 20-21, 29, 31, 33 entry H          line    30 file /data0/home/wuhanyu/software/psi4_132/share/psi4/basis/aug-cc-pvtz-ri.gbs 
    atoms 22                                               entry N          line   206 file /data0/home/wuhanyu/software/psi4_132/share/psi4/basis/aug-cc-pvtz-ri.gbs 
    atoms 24-25, 27-28, 30, 32                             entry O          line   264 file /data0/home/wuhanyu/software/psi4_132/share/psi4/basis/aug-cc-pvtz-ri.gbs 
    atoms 26                                               entry P          line   590 file /data0/home/wuhanyu/software/psi4_132/share/psi4/basis/aug-cc-pvtz-ri.gbs 

	 --------------------------------------------------------
	                          DF-MP2                         
	      2nd-Order Density-Fitted Moller-Plesset Theory     
	              RMP2 Wavefunction,  48 Threads             
	                                                         
[...]
     884A      5.782137   885A      5.790931   886A      5.795361  
     887A      5.810267   888A      5.812241   889A      5.820966  
     890A      5.831804   891A      5.839925   892A      5.855424  
     893A      5.864319   894A      5.882799   895A      5.889193  
     896A      5.904794   897A      5.914674   898A      5.922854  
     899A      5.932542   900A      5.944847   901A      5.959713  
     902A      5.975761   903A      5.979066   904A      5.996877  
     905A      6.005823   906A      6.026311   907A      6.035608  
     908A      6.059356   909A      6.082520   910A      6.116673  
     911A      6.136672   912A      6.145121   913A      6.164944  
     914A      6.174730   915A      6.188668   916A      6.199439  
     917A      6.240545   918A      6.254017   919A      6.273819  
     920A      6.284779   921A      6.295879   922A      6.307971  
     923A      6.321061   924A      6.323031   925A      6.346180  
     926A      6.368641   927A      6.388404   928A      6.413564  
     929A      6.420844   930A      6.435046   931A      6.441113  
     932A      6.479208   933A      6.507477   934A      6.518413  
     935A      6.533203   936A      6.555927   937A      6.599805  
     938A      6.626316   939A      6.645661   940A      6.668366  
     941A      6.707348   942A      6.737064   943A      6.747741  
     944A      6.757618   945A      6.803143   946A      6.818035  
     947A      6.845860   948A      6.849087   949A      6.866765  
     950A      6.890469   951A      6.912489   952A      6.917412  
     953A      6.920070   954A      6.934355   955A      6.943545  
     956A      6.948720   957A      6.966602   958A      6.968213  
     959A      6.982023   960A      6.995674   961A      7.003939  
     962A      7.012863   963A      7.027419   964A      7.064826  
     965A      7.066656   966A      7.078546   967A      7.093211  
     968A      7.102092   969A      7.107542   970A      7.133796  
     971A      7.141413   972A      7.165766   973A      7.184382  
     974A      7.199073   975A      7.228487   976A      7.238198  
     977A      7.244079   978A      7.250675   979A      7.256522  
     980A      7.274300   981A      7.287047   982A      7.293615  
     983A      7.312207   984A      7.319819   985A      7.323459  
     986A      7.331877   987A      7.344669   988A      7.368903  
     989A      7.374800   990A      7.395342   991A      7.397757  
     992A      7.414073   993A      7.435551   994A      7.446837  
     995A      7.481984   996A      7.498936   997A      7.514467  
     998A      7.526994   999A      7.544792  1000A      7.575414  
    1001A      7.588794  1002A      7.617857  1003A      7.630677  
    1004A      7.641757  1005A      7.685033  1006A      7.692775  
    1007A      7.721515  1008A      7.747356  1009A      7.761174  
    1010A      7.806726  1011A      7.811376  1012A      7.830306  
    1013A      7.854063  1014A      7.861286  1015A      7.874782  
    1016A      7.881432  1017A      7.888365  1018A      7.897031  
    1019A      7.900258  1020A      7.912288  1021A      7.917471  
    1022A      7.932583  1023A      7.950067  1024A      7.950651  
    1025A      7.977595  1026A      7.999486  1027A      8.030058  
    1028A      8.066184  1029A      8.078044  1030A      8.110887  
    1031A      8.116203  1032A      8.139804  1033A      8.175478  
    1034A      8.187727  1035A      8.225185  1036A      8.233904  
    1037A      8.273512  1038A      8.307039  1039A      8.315448  
    1040A      8.330067  1041A      8.364623  1042A      8.377997  
    1043A      8.399739  1044A      8.424683  1045A      8.456161  
    1046A      8.491895  1047A      8.530412  1048A      8.559558  
    1049A      8.570855  1050A      8.588858  1051A      8.620191  
    1052A      8.690500  1053A      8.716686  1054A      8.741167  
    1055A      8.781984  1056A      8.797616  1057A      8.832222  
    1058A      8.873083  1059A      8.963093  1060A      9.026194  
    1061A      9.036569  1062A      9.149105  1063A      9.474275  
    1064A      9.727744  1065A      9.902692  1066A     10.012955  
    1067A     10.045162  1068A     10.137639  1069A     10.210736  
    1070A     10.310975  1071A     10.352096  1072A     10.478772  
    1073A     10.538523  1074A     10.555498  1075A     10.634899  
    1076A     10.837826  1077A     10.866195  1078A     10.889874  
    1079A     10.931749  1080A     10.984911  1081A     11.177902  
    1082A     11.743217  1083A     11.755814  1084A     11.790470  
    1085A     11.834575  1086A     12.128556  1087A     12.204604  
    1088A     12.300436  1089A     12.353994  1090A     12.498734  
    1091A     12.965409  1092A     12.970519  1093A     13.533840  
    1094A     14.010560  1095A     14.259069  1096A     14.769677  
    1097A     15.076225  1098A     16.079843  1099A     53.551394  
    1100A     54.498464  1101A     55.129255  1102A     55.361788  
    1103A     55.865931  1104A     56.415359  1105A     57.626434  
    1106A     63.216277  1107A     66.960916  1108A     71.092371  

    Final Occupation by Irrep:
              A 
    DOCC [    25 ]

  @DF-RHF Final Energy:  -642.17788964468821

   => Energetics <=

    Nuclear Repulsion Energy =            279.5568487752240117
    One-Electron Energy =               -1443.9104157541366931
    Two-Electron Energy =                 522.1756773342243605
    Total Energy =                       -642.1778896446882072

Computation Completed


Properties will be evaluated at   0.000000,   0.000000,   0.000000 [a0]

Properties computed using the SCF density matrix

  Nuclear Dipole Moment: [e a0]
     X:    70.0426      Y:  -192.1278      Z:    85.9198

  Electronic Dipole Moment: [e a0]
     X:   -70.5764      Y:   194.4579      Z:   -85.2275

  Dipole Moment: [e a0]
     X:    -0.5337      Y:     2.3302      Z:     0.6922     Total:     2.4887

  Dipole Moment: [D]
     X:    -1.3566      Y:     5.9227      Z:     1.7595     Total:     6.3257


*** tstop() called on localhost.localdomain at Wed Jun  1 11:54:04 2022
Module time:
	user time   =    1505.05 seconds =      25.08 minutes
	system time =      13.70 seconds =       0.23 minutes
	total time  =         41 seconds =       0.68 minutes
Total time:
	user time   =    6936.71 seconds =     115.61 minutes
	system time =      86.04 seconds =       1.43 minutes
	total time  =        207 seconds =       3.45 minutes

*** tstart() called on localhost.localdomain
*** at Wed Jun  1 11:54:04 2022


  //>>>>>>>>>>>>>>>>>>>>>>>>>>>>>>>>>>>//
  //               DFMP2               //
  //<<<<<<<<<<<<<<<<<<<<<<<<<<<<<<<<<<<//

   => Loading Basis Set <=

    Name: (AUG-CC-PVTZ AUX)
    Role: RIFIT
    Keyword: DF_BASIS_MP2
    atoms 1, 5, 9, 13, 16, 19, 23                          entry C          line   148 file /data0/home/wuhanyu/software/psi4_132/share/psi4/basis/aug-cc-pvtz-ri.gbs 
    atoms 2-4, 6-8, 10-12, 14-15, 17-18, 20-21, 29, 31, 33 entry H          line    30 file /data0/home/wuhanyu/software/psi4_132/share/psi4/basis/aug-cc-pvtz-ri.gbs 
    atoms 22                                               entry N          line   206 file /data0/home/wuhanyu/software/psi4_132/share/psi4/basis/aug-cc-pvtz-ri.gbs 
    atoms 24-25, 27-28, 30, 32                             entry O          line   264 file /data0/home/wuhanyu/software/psi4_132/share/psi4/basis/aug-cc-pvtz-ri.gbs 
    atoms 26                                               entry P          line   590 file /data0/home/wuhanyu/software/psi4_132/share/psi4/basis/aug-cc-pvtz-ri.gbs 

	 --------------------------------------------------------
	                          DF-MP2                         
	      2nd-Order Density-Fitted Moller-Plesset Theory     
	              RMP2 Wavefunction,  48 Threads             
	                                                         
	        Rob Parrish, Justin Turney, Andy Simmonett,      
	           Ed Hohenstein, and C. David Sherrill          
	 --------------------------------------------------------

   => Auxiliary Basis Set <=

  Basis Set: (AUG-CC-PVTZ AUX)
    Blend: AUG-CC-PVTZ-RI
    Number of shells: 681
    Number of basis function: 2459
    Number of Cartesian functions: 3085
    Spherical Harmonics?: true
    Max angular momentum: 4

	 --------------------------------------------------------
	                 NBF =  1108, NAUX =  2459
	 --------------------------------------------------------
	   CLASS    FOCC     OCC    AOCC    AVIR     VIR    FVIR
	   PAIRS       9      25      16    1083    1083       0
	 --------------------------------------------------------

	 Will attempt to load fitting metric from file 97.

	-----------------------------------------------------------
	 ==================> DF-MP2 Energies <==================== 
	-----------------------------------------------------------
	 Reference Energy          =    -642.1778896446882072 [Eh]
	 Singles Energy            =      -0.0000000000000000 [Eh]
	 Same-Spin Energy          =      -0.2983437217282031 [Eh]
	 Opposite-Spin Energy      =      -0.8472065867116824 [Eh]
	 Correlation Energy        =      -1.1455503084398855 [Eh]
	 Total Energy              =    -643.3234399531280587 [Eh]
	-----------------------------------------------------------
	 ================> DF-SCS-MP2 Energies <================== 
	-----------------------------------------------------------
	 SCS Same-Spin Scale       =       0.3333333333333333 [-]
	 SCS Opposite-Spin Scale   =       1.2000000000000000 [-]
	 SCS Same-Spin Energy      =      -0.0994479072427344 [Eh]
	 SCS Opposite-Spin Energy  =      -1.0166479040540188 [Eh]
	 SCS Correlation Energy    =      -1.1160958112967532 [Eh]
	 SCS Total Energy          =    -643.2939854559849664 [Eh]
	-----------------------------------------------------------


*** tstop() called on localhost.localdomain at Wed Jun  1 11:54:25 2022
Module time:
	user time   =     506.11 seconds =       8.44 minutes
	system time =      13.53 seconds =       0.23 minutes
	total time  =         21 seconds =       0.35 minutes
Total time:
	user time   =    7442.82 seconds =     124.05 minutes
	system time =      99.57 seconds =       1.66 minutes
	total time  =        228 seconds =       3.80 minutes
  Constructing Basis Sets for SAPT...

   => Loading Basis Set <=

    Name: (AUG-CC-PVTZ AUX)
    Role: RIFIT
    Keyword: DF_BASIS_SAPT
    atoms 1, 5, 9, 13, 16, 19, 23                          entry C          line   148 file /data0/home/wuhanyu/software/psi4_132/share/psi4/basis/aug-cc-pvtz-ri.gbs 
    atoms 2-4, 6-8, 10-12, 14-15, 17-18, 20-21, 29, 31, 33 entry H          line    30 file /data0/home/wuhanyu/software/psi4_132/share/psi4/basis/aug-cc-pvtz-ri.gbs 
    atoms 22                                               entry N          line   206 file /data0/home/wuhanyu/software/psi4_132/share/psi4/basis/aug-cc-pvtz-ri.gbs 
    atoms 24-25, 27-28, 30, 32                             entry O          line   264 file /data0/home/wuhanyu/software/psi4_132/share/psi4/basis/aug-cc-pvtz-ri.gbs 
    atoms 26                                               entry P          line   590 file /data0/home/wuhanyu/software/psi4_132/share/psi4/basis/aug-cc-pvtz-ri.gbs 


  //>>>>>>>>>>>>>>>>>>>>>>>>>>>>>>>>>>>//
  //           SAPT2+(3)DMP2           //
  //<<<<<<<<<<<<<<<<<<<<<<<<<<<<<<<<<<<//


*** tstart() called on localhost.localdomain
*** at Wed Jun  1 11:54:25 2022

      SAPT2+(3)  
    Ed Hohenstein
     6 June 2009

      Orbital Information
  --------------------------
    NSO        =      1108
    NMO        =      1108
    NRI        =      2459
    NOCC A     =        40
    NOCC B     =        25
    FOCC A     =        10
    FOCC B     =         9
    NVIR A     =      1068
    NVIR B     =      1083

    Estimated memory usage: 68112.0 MB

    Natural Orbital Cutoff:   1.000E-06
    Disp(T3) Truncation:            Yes
    CCD (vv|vv) Truncation:         Yes
    MBPT T2 Truncation:             Yes

    Monomer A: 382 virtual orbitals dropped
    Monomer B: 808 virtual orbitals dropped

    Elst10,r            =    -0.108123217964 [Eh]
    Exch10 (S^2)        =     0.086472670527 [Eh]
    Exch10              =     0.088028910097 [Eh]
    Ind20,r (A<-B)      =    -0.036753164985 [Eh]
    Ind20,r (B<-A)      =    -0.020338823266 [Eh]
    Ind20,r             =    -0.057091988251 [Eh]
    Exch-Ind20,r (A<-B) =     0.017358609050 [Eh]
    Exch-Ind20,r (B<-A) =     0.009065176212 [Eh]
    Exch-Ind20,r        =     0.026423785262 [Eh]
    Disp20              =    -0.034108182559 [Eh]
    Disp20 (NO)         =    -0.030487612094 [Eh]
    Exch-Disp20         =     0.006554991713 [Eh]
    Elst12,r            =     0.003776345250 [Eh]
    Exch11              =     0.001161257227 [Eh]
    Exch12              =     0.011990352381 [Eh]
    Ind22               =    -0.008225072464 [Eh]
    Disp21              =     0.003586333356 [Eh]
    Disp22 (SDQ)        =    -0.001323471764 [Eh]

    (i =   1 of  16)       1766 seconds
    (i =   2 of  16)       3480 seconds
    (i =   3 of  16)       5189 seconds
    (i =   4 of  16)       6903 seconds
    (i =   5 of  16)       8624 seconds
    (i =   6 of  16)      10346 seconds
    (i =   7 of  16)      12081 seconds
    (i =   8 of  16)      13782 seconds
    (i =   9 of  16)      15481 seconds
    (i =  10 of  16)      17184 seconds
    (i =  11 of  16)      18888 seconds
    (i =  12 of  16)      20589 seconds
    (i =  13 of  16)      22285 seconds
    (i =  14 of  16)      23996 seconds
    (i =  15 of  16)      25738 seconds
    (i =  16 of  16)      27481 seconds

    Disp220 (T)         =    -0.002960694998 [Eh]

    (i =   1 of  30)        166 seconds
    (i =   2 of  30)        328 seconds
    (i =   3 of  30)        486 seconds
    (i =   4 of  30)        640 seconds
    (i =   5 of  30)        791 seconds
    (i =   6 of  30)        950 seconds
    (i =   7 of  30)       1109 seconds
    (i =   8 of  30)       1267 seconds
    (i =   9 of  30)       1425 seconds
    (i =  10 of  30)       1583 seconds
    (i =  11 of  30)       1739 seconds
    (i =  12 of  30)       1896 seconds
    (i =  13 of  30)       2053 seconds
    (i =  14 of  30)       2210 seconds
    (i =  15 of  30)       2366 seconds
    (i =  16 of  30)       2522 seconds
    (i =  17 of  30)       2679 seconds
    (i =  18 of  30)       2835 seconds
    (i =  19 of  30)       2991 seconds
    (i =  20 of  30)       3147 seconds
    (i =  21 of  30)       3305 seconds
    (i =  22 of  30)       3460 seconds
    (i =  23 of  30)       3616 seconds
    (i =  24 of  30)       3771 seconds
    (i =  25 of  30)       3926 seconds
    (i =  26 of  30)       4080 seconds
    (i =  27 of  30)       4236 seconds
    (i =  28 of  30)       4390 seconds
    (i =  29 of  30)       4545 seconds
    (i =  30 of  30)       4700 seconds

    Disp202 (T)         =    -0.003166228548 [Eh]

    Disp22 (T)          =    -0.006126923546 [Eh]

    Est. Disp220 (T)    =    -0.003312293701 [Eh]
    Est. Disp202 (T)    =    -0.003542235482 [Eh]

    Est. Disp22 (T)     =    -0.006854529183 [Eh]
    Elst13,r            =     0.000242093042 [Eh]
    Disp30              =     0.001178974719 [Eh]

    SAPT Results 
  --------------------------------------------------------------------------------------------------------
    Electrostatics               -104.10477967 [mEh]     -65.32673551 [kcal/mol]    -273.32706137 [kJ/mol]
      Elst10,r                   -108.12321796 [mEh]     -67.84834361 [kcal/mol]    -283.87746965 [kJ/mol]
      Elst12,r                      3.77634525 [mEh]       2.36969242 [kcal/mol]       9.91479309 [kJ/mol]
      Elst13,r                      0.24209304 [mEh]       0.15191568 [kcal/mol]       0.63561519 [kJ/mol]

    Exchange                      101.18051971 [mEh]      63.49173468 [kcal/mol]     265.64941789 [kJ/mol]
      Exch10                       88.02891010 [mEh]      55.23897505 [kcal/mol]     231.11987162 [kJ/mol]
      Exch10(S^2)                  86.47267053 [mEh]      54.26241998 [kcal/mol]     227.03396519 [kJ/mol]
      Exch11(S^2)                   1.16125723 [mEh]       0.72869991 [kcal/mol]       3.04888043 [kJ/mol]
      Exch12(S^2)                  11.99035238 [mEh]       7.52405971 [kcal/mol]      31.48066584 [kJ/mol]

    Induction                     -55.50113813 [mEh]     -34.82748998 [kcal/mol]    -145.71821807 [kJ/mol]
      Ind20,r                     -57.09198825 [mEh]     -35.82576350 [kcal/mol]    -149.89499450 [kJ/mol]
      Ind22                        -8.22507246 [mEh]      -5.16131089 [kcal/mol]     -21.59492478 [kJ/mol]
      Exch-Ind20,r                 26.42378526 [mEh]      16.58117559 [kcal/mol]      69.37563865 [kJ/mol]
      Exch-Ind22                    3.80679593 [mEh]       2.38880051 [kcal/mol]       9.99474134 [kJ/mol]
      delta HF,r (2)              -22.61563667 [mEh]     -14.19152626 [kcal/mol]     -59.37734589 [kJ/mol]
      delta MP2,r (2)               2.20097806 [mEh]       1.38113459 [kcal/mol]       5.77866711 [kJ/mol]

    Dispersion                    -30.96588372 [mEh]     -19.43138540 [kcal/mol]     -81.30091650 [kJ/mol]
      Disp20                      -34.10818256 [mEh]     -21.40320769 [kcal/mol]     -89.55102097 [kJ/mol]
      Disp30                        1.17897472 [mEh]       0.73981781 [kcal/mol]       3.09539770 [kJ/mol]
      Disp21                        3.58633336 [mEh]       2.25045816 [kcal/mol]       9.41591693 [kJ/mol]
      Disp22 (SDQ)                 -1.32347176 [mEh]      -0.83049107 [kcal/mol]      -3.47477464 [kJ/mol]
      Disp22 (T)                   -6.12692355 [mEh]      -3.84470257 [kcal/mol]     -16.08623555 [kJ/mol]
      Est. Disp22 (T)              -6.85452918 [mEh]      -4.30128200 [kcal/mol]     -17.99656389 [kJ/mol]
      Exch-Disp20                   6.55499171 [mEh]       4.11331940 [kcal/mol]      17.21012837 [kJ/mol]

  Total HF                        -73.37814752 [mEh]     -46.04548274 [kcal/mol]    -192.65429978 [kJ/mol]
  Total SAPT0                    -100.93133837 [mEh]     -63.33537103 [kcal/mol]    -264.99519237 [kJ/mol]
  Total SAPT2                     -88.42166004 [mEh]     -55.48542936 [kcal/mol]    -232.15103646 [kJ/mol]
  Total SAPT2+                    -93.01332763 [mEh]     -58.36674428 [kcal/mol]    -244.20645806 [kJ/mol]
  Total SAPT2+(3)                 -91.59225987 [mEh]     -57.47501079 [kcal/mol]    -240.47544516 [kJ/mol]
  Total SAPT2+dMP2                -90.81234957 [mEh]     -56.98560969 [kcal/mol]    -238.42779095 [kJ/mol]
  Total SAPT2+(3)dMP2             -89.39128181 [mEh]     -56.09387621 [kcal/mol]    -234.69677806 [kJ/mol]

  Special recipe for scaled SAPT0 (see Manual):
    Electrostatics sSAPT0        -108.12321796 [mEh]     -67.84834361 [kcal/mol]    -283.87746965 [kJ/mol]
    Exchange sSAPT0                88.02891010 [mEh]      55.23897505 [kcal/mol]     231.11987162 [kJ/mol]
    Induction sSAPT0              -51.83137231 [mEh]     -32.52467716 [kcal/mol]    -136.08324924 [kJ/mol]
    Dispersion sSAPT0             -27.19287489 [mEh]     -17.06378661 [kcal/mol]     -71.39488319 [kJ/mol]
  Total sSAPT0                    -99.11855506 [mEh]     -62.19783233 [kcal/mol]    -260.23573047 [kJ/mol]
  --------------------------------------------------------------------------------------------------------

*** tstop() called on localhost.localdomain at Wed Jun  1 23:23:24 2022
Module time:
	user time   = 1068150.77 seconds =   17802.51 minutes
	system time =    5852.02 seconds =      97.53 minutes
	total time  =      41339 seconds =     688.98 minutes
Total time:
	user time   = 1075598.04 seconds =   17926.63 minutes
	system time =    5951.67 seconds =      99.19 minutes
	total time  =      41567 seconds =     692.78 minutes

    Psi4 stopped on: Wednesday, 01 June 2022 11:23PM
    Psi4 wall time for execution: 11:32:46.44

*** Psi4 exiting successfully. Buy a developer a beer!
