 Entering Gaussian System, Link 0=g16
 Initial command:
 /data0/home/software/g16/l1.exe "/data0/home/software/g16/scratch/Gau-394194.inp" -scrdir="/data0/home/software/g16/scratch/"
 Default is to use a total of  22 processors:
                               22 via shared-memory
                                1 via Linda
 Entering Link 1 = /data0/home/software/g16/l1.exe PID=    394195.
  
 Copyright (c) 1988,1990,1992,1993,1995,1998,2003,2009,2016,
            Gaussian, Inc.  All Rights Reserved.
  
 This is part of the Gaussian(R) 16 program.  It is based on
 the Gaussian(R) 09 system (copyright 2009, Gaussian, Inc.),
 the Gaussian(R) 03 system (copyright 2003, Gaussian, Inc.),
 the Gaussian(R) 98 system (copyright 1998, Gaussian, Inc.),
 the Gaussian(R) 94 system (copyright 1995, Gaussian, Inc.),
 the Gaussian 92(TM) system (copyright 1992, Gaussian, Inc.),
 the Gaussian 90(TM) system (copyright 1990, Gaussian, Inc.),
 the Gaussian 88(TM) system (copyright 1988, Gaussian, Inc.),
 the Gaussian 86(TM) system (copyright 1986, Carnegie Mellon
 University), and the Gaussian 82(TM) system (copyright 1983,
 Carnegie Mellon University). Gaussian is a federally registered
 trademark of Gaussian, Inc.
  
 This software contains proprietary and confidential information,
 including trade secrets, belonging to Gaussian, Inc.
  
 This software is provided under written license and may be
 used, copied, transmitted, or stored only in accord with that
 written license.
  
 The following legend is applicable only to US Government
 contracts under FAR:
  
                    RESTRICTED RIGHTS LEGEND
  
 Use, reproduction and disclosure by the US Government is
 subject to restrictions as set forth in subparagraphs (a)
 and (c) of the Commercial Computer Software - Restricted
 Rights clause in FAR 52.227-19.
  
 Gaussian, Inc.
 340 Quinnipiac St., Bldg. 40, Wallingford CT 06492
  
  
 ---------------------------------------------------------------
 Warning -- This program may not be used in any manner that
 competes with the business of Gaussian, Inc. or will provide
 assistance to any competitor of Gaussian, Inc.  The licensee
 of this program is prohibited from giving any competitor of
 Gaussian, Inc. access to this program.  By using this program,
 the user acknowledges that Gaussian, Inc. is engaged in the
 business of creating and licensing software in the field of
 computational chemistry and represents and warrants to the
 licensee that it is not a competitor of Gaussian, Inc. and that
 it will not use this program in any manner prohibited above.
 ---------------------------------------------------------------
  

 Cite this work as:
 Gaussian 16, Revision A.03,
 M. J. Frisch, G. W. Trucks, H. B. Schlegel, G. E. Scuseria, 
 M. A. Robb, J. R. Cheeseman, G. Scalmani, V. Barone, 
 G. A. Petersson, H. Nakatsuji, X. Li, M. Caricato, A. V. Marenich, 
 J. Bloino, B. G. Janesko, R. Gomperts, B. Mennucci, H. P. Hratchian, 
 J. V. Ortiz, A. F. Izmaylov, J. L. Sonnenberg, D. Williams-Young, 
 F. Ding, F. Lipparini, F. Egidi, J. Goings, B. Peng, A. Petrone, 
 T. Henderson, D. Ranasinghe, V. G. Zakrzewski, J. Gao, N. Rega, 
 G. Zheng, W. Liang, M. Hada, M. Ehara, K. Toyota, R. Fukuda, 
 J. Hasegawa, M. Ishida, T. Nakajima, Y. Honda, O. Kitao, H. Nakai, 
 T. Vreven, K. Throssell, J. A. Montgomery, Jr., J. E. Peralta, 
 F. Ogliaro, M. J. Bearpark, J. J. Heyd, E. N. Brothers, K. N. Kudin, 
 V. N. Staroverov, T. A. Keith, R. Kobayashi, J. Normand, 
 K. Raghavachari, A. P. Rendell, J. C. Burant, S. S. Iyengar, 
 J. Tomasi, M. Cossi, J. M. Millam, M. Klene, C. Adamo, R. Cammi, 
 J. W. Ochterski, R. L. Martin, K. Morokuma, O. Farkas, 
 J. B. Foresman, and D. J. Fox, Gaussian, Inc., Wallingford CT, 2016.
 
 ******************************************
 Gaussian 16:  ES64L-G16RevA.03 25-Dec-2016
                20-Feb-2023 
 ******************************************
 %nproc=24
 Will use up to   24 processors via shared memory.
 %mem=50GB
 ---------------------------------------------------
 #p M062X/6-311+G(2d,p) nosymm em=GD3 counterpoise=3
 ---------------------------------------------------
 1/38=1,62=3,172=1/1;
 2/12=2,15=1,17=6,18=5,40=1/2;
 1/38=1,53=2,62=3,63=1/22;
 3/5=4,6=6,7=112,11=2,25=1,30=1,74=-55,124=31/1,2,3;
 4//1;
 5/5=2,38=5/2;
 6/7=2,8=2,9=2,10=2,28=1/1;
 1/53=2,62=3,63=1/22;
 3/5=7,6=11,7=112,11=2,25=1,30=1,74=-55,82=7,124=31/1,2,3;
 4//1;
 5/5=2,38=5/2;
 6/7=2,8=2,9=2,10=2,28=1/1;
 1/53=2,62=3,63=1/22(-4);
 99/5=1,9=1/99;
 Leave Link    1 at Mon Feb 20 09:38:54 2023, MaxMem=  6710886400 cpu:               0.7 elap:               0.0
 (Enter /data0/home/software/g16/l101.exe)
 -------------------
 Title Card Required
 -------------------
 Symbolic Z-matrix:
 Charge =  0 Multiplicity = 1 in supermolecule
 Charge =  0 Multiplicity = 1 in fragment      1.
 Charge =  0 Multiplicity = 1 in fragment      2.
 Charge =  0 Multiplicity = 1 in fragment      3.
 P                     18.59197   13.52786   5.12532    
 O                     18.34415   12.0928   4.92727    
 O                     18.99607   13.93835   6.60723    
 H                     18.12116   13.93474   7.21121    
 O                     19.85204   13.99244   4.26765    
 H                     19.97061   15.00719   4.42725    
 O                     17.43593   14.51441   4.68619    
 H                     16.60206   14.34462   5.33737    
 O                     16.85168   13.4263   10.79038    
 H                     16.80323   13.64601   9.82243    
 H                     17.20893   14.20179   11.2026    
 O                     15.30982   11.37528   5.11148    
 H                     15.16866   12.27278   5.46157    
 H                     16.17138   11.45138   4.68665    
 
 ITRead=  0  0  0  0  0  0  0  0  0  0  0  0  0  0
 MicOpt= -1 -1 -1 -1 -1 -1 -1 -1 -1 -1 -1 -1 -1 -1
 NAtoms=     14 NQM=       14 NQMF=       0 NMMI=      0 NMMIF=      0
                NMic=       0 NMicF=      0.
                    Isotopes and Nuclear Properties:
 (Nuclear quadrupole moments (NQMom) in fm**2, nuclear magnetic moments (NMagM)
  in nuclear magnetons)

  Atom         1           2           3           4           5           6           7           8           9          10
 IAtWgt=          31          16          16           1          16           1          16           1          16           1
 AtmWgt=  30.9737634  15.9949146  15.9949146   1.0078250  15.9949146   1.0078250  15.9949146   1.0078250  15.9949146   1.0078250
 NucSpn=           1           0           0           1           0           1           0           1           0           1
 AtZEff=  -0.0000000  -0.0000000  -0.0000000  -0.0000000  -0.0000000  -0.0000000  -0.0000000  -0.0000000  -0.0000000  -0.0000000
 NQMom=    0.0000000   0.0000000   0.0000000   0.0000000   0.0000000   0.0000000   0.0000000   0.0000000   0.0000000   0.0000000
 NMagM=    1.1316000   0.0000000   0.0000000   2.7928460   0.0000000   2.7928460   0.0000000   2.7928460   0.0000000   2.7928460
 AtZNuc=  15.0000000   8.0000000   8.0000000   1.0000000   8.0000000   1.0000000   8.0000000   1.0000000   8.0000000   1.0000000

  Atom        11          12          13          14
 IAtWgt=           1          16           1           1
 AtmWgt=   1.0078250  15.9949146   1.0078250   1.0078250
 NucSpn=           1           0           1           1
 AtZEff=  -0.0000000  -0.0000000  -0.0000000  -0.0000000
 NQMom=    0.0000000   0.0000000   0.0000000   0.0000000
 NMagM=    2.7928460   0.0000000   2.7928460   2.7928460
 AtZNuc=   1.0000000   8.0000000   1.0000000   1.0000000
 Leave Link  101 at Mon Feb 20 09:38:54 2023, MaxMem=  6710886400 cpu:               2.0 elap:               0.1
 (Enter /data0/home/software/g16/l202.exe)
                          Input orientation:                          
 ---------------------------------------------------------------------
 Center     Atomic      Atomic             Coordinates (Angstroms)
 Number     Number       Type             X           Y           Z
 ---------------------------------------------------------------------
      1         15           0       18.591969   13.527860    5.125319
      2          8           0       18.344150   12.092802    4.927269
      3          8           0       18.996074   13.938351    6.607229
      4          1           0       18.121157   13.934739    7.211210
      5          8           0       19.852041   13.992442    4.267651
      6          1           0       19.970607   15.007191    4.427250
      7          8           0       17.435933   14.514413    4.686189
      8          1           0       16.602060   14.344620    5.337366
      9          8           0       16.851678   13.426299   10.790383
     10          1           0       16.803231   13.646007    9.822427
     11          1           0       17.208931   14.201785   11.202601
     12          8           0       15.309820   11.375279    5.111479
     13          1           0       15.168660   12.272782    5.461565
     14          1           0       16.171375   11.451377    4.686646
 ---------------------------------------------------------------------
                    Distance matrix (angstroms):
                    1          2          3          4          5
     1  P    0.000000
     2  O    1.469704   0.000000
     3  O    1.589925   2.579403   0.000000
     4  H    2.176731   2.942591   1.063149   0.000000
     5  O    1.593491   2.513456   2.491833   3.415235   0.000000
     6  H    2.139244   3.374766   2.616188   3.510136   1.034043
     7  O    1.581942   2.597533   2.540921   2.679792   2.507031
     8  H    2.161434   2.876411   2.740239   2.446824   3.439578
     9  O    5.927215   6.195304   4.728574   3.831523   7.201995
    10  H    5.027561   5.361851   3.902758   2.939175   6.345928
    11  H    6.268997   6.716869   4.937684   4.103008   7.424513
    12  O    3.925086   3.123449   4.732343   4.343193   5.309742
    13  H    3.661602   3.225151   4.328483   3.813214   5.129982
    14  H    3.219238   2.278218   4.225234   4.042544   4.492201
                    6          7          8          9         10
     6  H    0.000000
     7  O    2.595082   0.000000
     8  H    3.551679   1.071543   0.000000
     9  O    7.260606   6.227883   5.535433   0.000000
    10  H    6.402580   5.247417   4.543600   0.993759   0.000000
    11  H    7.360769   6.527855   5.898277   0.948120   1.542194
    12  O    5.948268   3.815153   3.246212   6.231690   5.438705
    13  H    5.621876   3.281257   2.522414   5.706089   4.855377
    14  H    5.210112   3.313804   2.996628   6.451258   5.620666
                   11         12         13         14
    11  H    0.000000
    12  O    6.978361   0.000000
    13  H    6.390873   0.973652   0.000000
    14  H    7.148352   0.963614   1.510180   0.000000
 Symmetry turned off by external request.
 Stoichiometry    H7O6P
 Framework group  C1[X(H7O6P)]
 Deg. of freedom    36
 Full point group                 C1      NOp   1
 Rotational constants (GHZ):           1.4812397           0.7857293           0.5815768
 Leave Link  202 at Mon Feb 20 09:38:54 2023, MaxMem=  6710886400 cpu:               0.1 elap:               0.0
 (Enter /data0/home/software/g16/l122.exe)
 Counterpoise: doing full-system calculation.
 Leave Link  122 at Mon Feb 20 09:38:54 2023, MaxMem=  6710886400 cpu:               0.0 elap:               0.0
 (Enter /data0/home/software/g16/l301.exe)
 Standard basis: 6-311+G(2d,p) (5D, 7F)
 Ernie: Thresh=  0.10000D-02 Tol=  0.10000D-05 Strict=F.
   239 basis functions,   364 primitive gaussians,   253 cartesian basis functions
    35 alpha electrons       35 beta electrons
       nuclear repulsion energy       419.4294124034 Hartrees.
 IExCor= 4336 DFT=T Ex+Corr=M062X ExCW=0 ScaHFX=  0.540000
 ScaDFX=  1.000000  1.000000  1.000000  1.000000 ScalE2=  1.000000  1.000000
 IRadAn=      5 IRanWt=     -1 IRanGd=            0 ICorTp=0 IEmpDi=131
 NAtoms=   14 NActive=   14 NUniq=   14 SFac= 1.00D+00 NAtFMM=   60 NAOKFM=F Big=F
 Integral buffers will be    131072 words long.
 Raffenetti 2 integral format.
 Two-electron integral symmetry is turned off.
 R6Disp:  Grimme-D3 Dispersion energy=       -0.0003395238 Hartrees.
 Nuclear repulsion after empirical dispersion term =      419.4290728796 Hartrees.
 Leave Link  301 at Mon Feb 20 09:38:54 2023, MaxMem=  6710886400 cpu:               1.1 elap:               0.1
 (Enter /data0/home/software/g16/l302.exe)
 NPDir=0 NMtPBC=     1 NCelOv=     1 NCel=       1 NClECP=     1 NCelD=      1
         NCelK=      1 NCelE2=     1 NClLst=     1 CellRange=     0.0.
 One-electron integrals computed using PRISM.
 NBasis=   239 RedAO= T EigKep=  5.34D-04  NBF=   239
 NBsUse=   239 1.00D-06 EigRej= -1.00D+00 NBFU=   239
 Precomputing XC quadrature grid using
 IXCGrd= 4 IRadAn=           5 IRanWt=          -1 IRanGd=           0 AccXCQ= 0.00D+00.
 Generated NRdTot=       0 NPtTot=           0 NUsed=           0 NTot=          32
 NSgBfM=   252   252   252   252   252 MxSgAt=    14 MxSgA2=    14.
 Leave Link  302 at Mon Feb 20 09:38:54 2023, MaxMem=  6710886400 cpu:               3.8 elap:               0.2
 (Enter /data0/home/software/g16/l303.exe)
 DipDrv:  MaxL=1.
 Leave Link  303 at Mon Feb 20 09:38:54 2023, MaxMem=  6710886400 cpu:               0.6 elap:               0.0
 (Enter /data0/home/software/g16/l401.exe)
 ExpMin= 3.48D-02 ExpMax= 7.75D+04 ExpMxC= 2.65D+03 IAcc=3 IRadAn=         5 AccDes= 0.00D+00
 Harris functional with IExCor= 1009 and IRadAn=       5 diagonalized for initial guess.
 HarFok:  IExCor= 1009 AccDes= 0.00D+00 IRadAn=         5 IDoV= 1 UseB2=F ITyADJ=14
 ICtDFT=  3500011 ScaDFX=  1.000000  1.000000  1.000000  1.000000
 FoFCou: FMM=F IPFlag=           0 FMFlag=      100000 FMFlg1=           0
         NFxFlg=           0 DoJE=T BraDBF=F KetDBF=T FulRan=T
         wScrn=  0.000000 ICntrl=       500 IOpCl=  0 I1Cent=   200000004 NGrid=           0
         NMat0=    1 NMatS0=      1 NMatT0=    0 NMatD0=    1 NMtDS0=    0 NMtDT0=    0
 Symmetry not used in FoFCou.
 Harris En= -796.767391131256    
 JPrj=0 DoOrth=F DoCkMO=F.
 Leave Link  401 at Mon Feb 20 09:38:54 2023, MaxMem=  6710886400 cpu:               9.7 elap:               0.4
 (Enter /data0/home/software/g16/l502.exe)
 Two-electron integral symmetry not used.
 Closed shell SCF:
 Using DIIS extrapolation, IDIIS=  1040.
 NGot=  6710886400 LenX=  6710750439 LenY=  6710685989
 Requested convergence on RMS density matrix=1.00D-08 within 128 cycles.
 Requested convergence on MAX density matrix=1.00D-06.
 Requested convergence on             energy=1.00D-06.
 No special actions if energy rises.
 Fock matrices will be formed incrementally for  20 cycles.

 Cycle   1  Pass 1  IDiag  1:
 FoFJK:  IHMeth= 1 ICntrl=       0 DoSepK=F KAlg= 0 I1Cent=           0 FoldK=F
 IRaf= 860000000 NMat=       1 IRICut=       1 DoRegI=T DoRafI=F ISym2E= 0 IDoP0=0 IntGTp=1.
 FoFCou: FMM=F IPFlag=           0 FMFlag=      100000 FMFlg1=           0
         NFxFlg=           0 DoJE=F BraDBF=F KetDBF=F FulRan=T
         wScrn=  0.000000 ICntrl=         0 IOpCl=  0 I1Cent=           0 NGrid=           0
         NMat0=    1 NMatS0=      1 NMatT0=    0 NMatD0=    1 NMtDS0=    0 NMtDT0=    0
 Symmetry not used in FoFCou.
 E= -796.533643483076    
 DIIS: error= 5.42D-02 at cycle   1 NSaved=   1.
 NSaved= 1 IEnMin= 1 EnMin= -796.533643483076     IErMin= 1 ErrMin= 5.42D-02
 ErrMax= 5.42D-02  0.00D+00 EMaxC= 1.00D-01 BMatC= 7.50D-01 BMatP= 7.50D-01
 IDIUse=3 WtCom= 4.58D-01 WtEn= 5.42D-01
 Coeff-Com:  0.100D+01
 Coeff-En:   0.100D+01
 Coeff:      0.100D+01
 Gap=     0.226 Goal=   None    Shift=    0.000
 GapD=    0.226 DampG=1.000 DampE=0.500 DampFc=0.5000 IDamp=-1.
 Damping current iteration by 5.00D-01
 RMSDP=6.46D-03 MaxDP=2.74D-01              OVMax= 2.28D-01

 Cycle   2  Pass 1  IDiag  1:
 RMSU=  3.23D-03    CP:  1.00D+00
 E= -796.713162818308     Delta-E=       -0.179519335232 Rises=F Damp=T
 DIIS: error= 8.79D-03 at cycle   2 NSaved=   2.
 NSaved= 2 IEnMin= 2 EnMin= -796.713162818308     IErMin= 2 ErrMin= 8.79D-03
 ErrMax= 8.79D-03  0.00D+00 EMaxC= 1.00D-01 BMatC= 3.74D-02 BMatP= 7.50D-01
 IDIUse=3 WtCom= 9.12D-01 WtEn= 8.79D-02
 Coeff-Com:  0.801D-01 0.920D+00
 Coeff-En:   0.205D+00 0.795D+00
 Coeff:      0.911D-01 0.909D+00
 Gap=     0.330 Goal=   None    Shift=    0.000
 RMSDP=1.50D-03 MaxDP=8.52D-02 DE=-1.80D-01 OVMax= 1.71D-01

 Cycle   3  Pass 1  IDiag  1:
 RMSU=  9.70D-04    CP:  9.96D-01  6.45D-01
 E= -796.972745488136     Delta-E=       -0.259582669828 Rises=F Damp=F
 DIIS: error= 6.39D-03 at cycle   3 NSaved=   3.
 NSaved= 3 IEnMin= 3 EnMin= -796.972745488136     IErMin= 3 ErrMin= 6.39D-03
 ErrMax= 6.39D-03  0.00D+00 EMaxC= 1.00D-01 BMatC= 9.42D-03 BMatP= 3.74D-02
 IDIUse=3 WtCom= 9.36D-01 WtEn= 6.39D-02
 Coeff-Com: -0.138D-01 0.273D+00 0.740D+00
 Coeff-En:   0.000D+00 0.000D+00 0.100D+01
 Coeff:     -0.129D-01 0.256D+00 0.757D+00
 Gap=     0.322 Goal=   None    Shift=    0.000
 RMSDP=4.91D-04 MaxDP=1.57D-02 DE=-2.60D-01 OVMax= 3.48D-02

 Cycle   4  Pass 1  IDiag  1:
 RMSU=  4.29D-04    CP:  9.96D-01  7.11D-01  8.90D-01
 E= -796.975796606788     Delta-E=       -0.003051118651 Rises=F Damp=F
 DIIS: error= 5.04D-03 at cycle   4 NSaved=   4.
 NSaved= 4 IEnMin= 4 EnMin= -796.975796606788     IErMin= 4 ErrMin= 5.04D-03
 ErrMax= 5.04D-03  0.00D+00 EMaxC= 1.00D-01 BMatC= 5.40D-03 BMatP= 9.42D-03
 IDIUse=3 WtCom= 9.50D-01 WtEn= 5.04D-02
 Coeff-Com: -0.190D-01 0.414D-01 0.455D+00 0.523D+00
 Coeff-En:   0.000D+00 0.000D+00 0.363D+00 0.637D+00
 Coeff:     -0.181D-01 0.393D-01 0.450D+00 0.528D+00
 Gap=     0.327 Goal=   None    Shift=    0.000
 RMSDP=2.27D-04 MaxDP=7.86D-03 DE=-3.05D-03 OVMax= 1.41D-02

 Cycle   5  Pass 1  IDiag  1:
 RMSU=  6.76D-05    CP:  9.95D-01  6.85D-01  9.81D-01  5.85D-01
 E= -796.979419430858     Delta-E=       -0.003622824070 Rises=F Damp=F
 DIIS: error= 5.59D-04 at cycle   5 NSaved=   5.
 NSaved= 5 IEnMin= 5 EnMin= -796.979419430858     IErMin= 5 ErrMin= 5.59D-04
 ErrMax= 5.59D-04  0.00D+00 EMaxC= 1.00D-01 BMatC= 3.11D-05 BMatP= 5.40D-03
 IDIUse=3 WtCom= 9.94D-01 WtEn= 5.59D-03
 Coeff-Com: -0.295D-02 0.110D-02 0.899D-01 0.137D+00 0.775D+00
 Coeff-En:   0.000D+00 0.000D+00 0.000D+00 0.000D+00 0.100D+01
 Coeff:     -0.294D-02 0.109D-02 0.894D-01 0.136D+00 0.777D+00
 Gap=     0.323 Goal=   None    Shift=    0.000
 RMSDP=2.43D-05 MaxDP=7.09D-04 DE=-3.62D-03 OVMax= 1.08D-03

 Cycle   6  Pass 1  IDiag  1:
 RMSU=  1.82D-05    CP:  9.95D-01  6.82D-01  9.83D-01  6.14D-01  1.06D+00
 E= -796.979437436976     Delta-E=       -0.000018006118 Rises=F Damp=F
 DIIS: error= 1.37D-04 at cycle   6 NSaved=   6.
 NSaved= 6 IEnMin= 6 EnMin= -796.979437436976     IErMin= 6 ErrMin= 1.37D-04
 ErrMax= 1.37D-04  0.00D+00 EMaxC= 1.00D-01 BMatC= 5.23D-06 BMatP= 3.11D-05
 IDIUse=3 WtCom= 9.99D-01 WtEn= 1.37D-03
 Coeff-Com:  0.563D-05-0.209D-02 0.953D-02 0.242D-01 0.330D+00 0.638D+00
 Coeff-En:   0.000D+00 0.000D+00 0.000D+00 0.000D+00 0.000D+00 0.100D+01
 Coeff:      0.562D-05-0.209D-02 0.951D-02 0.242D-01 0.329D+00 0.639D+00
 Gap=     0.323 Goal=   None    Shift=    0.000
 RMSDP=1.11D-05 MaxDP=4.30D-04 DE=-1.80D-05 OVMax= 3.81D-04

 Cycle   7  Pass 1  IDiag  1:
 RMSU=  5.21D-06    CP:  9.95D-01  6.80D-01  9.86D-01  6.16D-01  1.14D+00
                    CP:  8.53D-01
 E= -796.979440918818     Delta-E=       -0.000003481841 Rises=F Damp=F
 DIIS: error= 5.23D-05 at cycle   7 NSaved=   7.
 NSaved= 7 IEnMin= 7 EnMin= -796.979440918818     IErMin= 7 ErrMin= 5.23D-05
 ErrMax= 5.23D-05  0.00D+00 EMaxC= 1.00D-01 BMatC= 4.25D-07 BMatP= 5.23D-06
 IDIUse=1 WtCom= 1.00D+00 WtEn= 0.00D+00
 Coeff-Com:  0.396D-03-0.691D-03-0.106D-01-0.134D-01-0.203D-01 0.203D+00
 Coeff-Com:  0.842D+00
 Coeff:      0.396D-03-0.691D-03-0.106D-01-0.134D-01-0.203D-01 0.203D+00
 Coeff:      0.842D+00
 Gap=     0.323 Goal=   None    Shift=    0.000
 RMSDP=4.64D-06 MaxDP=2.05D-04 DE=-3.48D-06 OVMax= 1.40D-04

 Cycle   8  Pass 1  IDiag  1:
 RMSU=  2.29D-06    CP:  9.95D-01  6.79D-01  9.86D-01  6.18D-01  1.18D+00
                    CP:  9.33D-01  9.06D-01
 E= -796.979441241228     Delta-E=       -0.000000322410 Rises=F Damp=F
 DIIS: error= 8.86D-06 at cycle   8 NSaved=   8.
 NSaved= 8 IEnMin= 8 EnMin= -796.979441241228     IErMin= 8 ErrMin= 8.86D-06
 ErrMax= 8.86D-06  0.00D+00 EMaxC= 1.00D-01 BMatC= 3.36D-08 BMatP= 4.25D-07
 IDIUse=1 WtCom= 1.00D+00 WtEn= 0.00D+00
 Coeff-Com:  0.138D-03-0.169D-03-0.442D-02-0.571D-02-0.168D-01 0.526D-01
 Coeff-Com:  0.324D+00 0.651D+00
 Coeff:      0.138D-03-0.169D-03-0.442D-02-0.571D-02-0.168D-01 0.526D-01
 Coeff:      0.324D+00 0.651D+00
 Gap=     0.323 Goal=   None    Shift=    0.000
 RMSDP=7.37D-07 MaxDP=3.32D-05 DE=-3.22D-07 OVMax= 3.86D-05

 Cycle   9  Pass 1  IDiag  1:
 RMSU=  4.95D-07    CP:  9.95D-01  6.79D-01  9.86D-01  6.18D-01  1.18D+00
                    CP:  9.49D-01  9.75D-01  8.99D-01
 E= -796.979441267615     Delta-E=       -0.000000026387 Rises=F Damp=F
 DIIS: error= 2.52D-06 at cycle   9 NSaved=   9.
 NSaved= 9 IEnMin= 9 EnMin= -796.979441267615     IErMin= 9 ErrMin= 2.52D-06
 ErrMax= 2.52D-06  0.00D+00 EMaxC= 1.00D-01 BMatC= 2.34D-09 BMatP= 3.36D-08
 IDIUse=1 WtCom= 1.00D+00 WtEn= 0.00D+00
 Coeff-Com: -0.166D-05 0.204D-04-0.421D-03-0.452D-03-0.279D-02-0.306D-02
 Coeff-Com:  0.214D-01 0.187D+00 0.799D+00
 Coeff:     -0.166D-05 0.204D-04-0.421D-03-0.452D-03-0.279D-02-0.306D-02
 Coeff:      0.214D-01 0.187D+00 0.799D+00
 Gap=     0.323 Goal=   None    Shift=    0.000
 RMSDP=2.89D-07 MaxDP=9.63D-06 DE=-2.64D-08 OVMax= 1.23D-05

 Cycle  10  Pass 1  IDiag  1:
 RMSU=  1.52D-07    CP:  9.95D-01  6.79D-01  9.86D-01  6.18D-01  1.18D+00
                    CP:  9.50D-01  9.81D-01  9.76D-01  9.74D-01
 E= -796.979441269422     Delta-E=       -0.000000001807 Rises=F Damp=F
 DIIS: error= 1.68D-06 at cycle  10 NSaved=  10.
 NSaved=10 IEnMin=10 EnMin= -796.979441269422     IErMin=10 ErrMin= 1.68D-06
 ErrMax= 1.68D-06  0.00D+00 EMaxC= 1.00D-01 BMatC= 6.12D-10 BMatP= 2.34D-09
 IDIUse=1 WtCom= 1.00D+00 WtEn= 0.00D+00
 Coeff-Com: -0.188D-04 0.334D-04 0.317D-03 0.454D-03 0.227D-03-0.900D-02
 Coeff-Com: -0.304D-01 0.138D-01 0.399D+00 0.626D+00
 Coeff:     -0.188D-04 0.334D-04 0.317D-03 0.454D-03 0.227D-03-0.900D-02
 Coeff:     -0.304D-01 0.138D-01 0.399D+00 0.626D+00
 Gap=     0.323 Goal=   None    Shift=    0.000
 RMSDP=1.20D-07 MaxDP=4.26D-06 DE=-1.81D-09 OVMax= 4.95D-06

 Cycle  11  Pass 1  IDiag  1:
 RMSU=  5.94D-08    CP:  9.95D-01  6.79D-01  9.86D-01  6.18D-01  1.19D+00
                    CP:  9.50D-01  9.85D-01  9.95D-01  1.09D+00  8.68D-01
 E= -796.979441269895     Delta-E=       -0.000000000473 Rises=F Damp=F
 DIIS: error= 1.76D-07 at cycle  11 NSaved=  11.
 NSaved=11 IEnMin=11 EnMin= -796.979441269895     IErMin=11 ErrMin= 1.76D-07
 ErrMax= 1.76D-07  0.00D+00 EMaxC= 1.00D-01 BMatC= 1.09D-11 BMatP= 6.12D-10
 IDIUse=1 WtCom= 1.00D+00 WtEn= 0.00D+00
 Coeff-Com:  0.434D-06-0.865D-06 0.410D-04 0.474D-04 0.239D-03-0.355D-03
 Coeff-Com: -0.436D-02-0.130D-01-0.351D-01 0.596D-01 0.993D+00
 Coeff:      0.434D-06-0.865D-06 0.410D-04 0.474D-04 0.239D-03-0.355D-03
 Coeff:     -0.436D-02-0.130D-01-0.351D-01 0.596D-01 0.993D+00
 Gap=     0.323 Goal=   None    Shift=    0.000
 RMSDP=3.30D-08 MaxDP=8.17D-07 DE=-4.73D-10 OVMax= 2.08D-06

 Cycle  12  Pass 1  IDiag  1:
 RMSU=  1.47D-08    CP:  9.95D-01  6.79D-01  9.86D-01  6.18D-01  1.19D+00
                    CP:  9.50D-01  9.86D-01  1.00D+00  1.11D+00  9.80D-01
                    CP:  1.12D+00
 E= -796.979441269921     Delta-E=       -0.000000000026 Rises=F Damp=F
 DIIS: error= 5.18D-08 at cycle  12 NSaved=  12.
 NSaved=12 IEnMin=12 EnMin= -796.979441269921     IErMin=12 ErrMin= 5.18D-08
 ErrMax= 5.18D-08  0.00D+00 EMaxC= 1.00D-01 BMatC= 8.19D-13 BMatP= 1.09D-11
 IDIUse=1 WtCom= 1.00D+00 WtEn= 0.00D+00
 Coeff-Com:  0.932D-06-0.167D-05-0.239D-05-0.529D-05 0.463D-04 0.309D-03
 Coeff-Com:  0.363D-03-0.311D-02-0.247D-01-0.171D-01 0.222D+00 0.822D+00
 Coeff:      0.932D-06-0.167D-05-0.239D-05-0.529D-05 0.463D-04 0.309D-03
 Coeff:      0.363D-03-0.311D-02-0.247D-01-0.171D-01 0.222D+00 0.822D+00
 Gap=     0.323 Goal=   None    Shift=    0.000
 RMSDP=6.82D-09 MaxDP=1.77D-07 DE=-2.57D-11 OVMax= 3.89D-07

 SCF Done:  E(RM062X) =  -796.979441270     A.U. after   12 cycles
            NFock= 12  Conv=0.68D-08     -V/T= 2.0027
 KE= 7.948699236419D+02 PE=-2.727116706746D+03 EE= 7.158382689551D+02
 Leave Link  502 at Mon Feb 20 09:39:05 2023, MaxMem=  6710886400 cpu:             248.4 elap:              10.4
 (Enter /data0/home/software/g16/l601.exe)
 Copying SCF densities to generalized density rwf, IOpCl= 0 IROHF=0.

 **********************************************************************

            Population analysis using the SCF density.

 **********************************************************************

 Alpha  occ. eigenvalues --  -78.18834 -19.71703 -19.70857 -19.69674 -19.64472
 Alpha  occ. eigenvalues --  -19.61702 -19.60283  -6.99616  -5.11534  -5.11517
 Alpha  occ. eigenvalues --   -5.11277  -1.26465  -1.19235  -1.18374  -1.14975
 Alpha  occ. eigenvalues --   -1.12435  -1.10550  -0.74502  -0.67530  -0.65433
 Alpha  occ. eigenvalues --   -0.62603  -0.60977  -0.59396  -0.55150  -0.53815
 Alpha  occ. eigenvalues --   -0.51733  -0.49020  -0.48288  -0.47641  -0.46969
 Alpha  occ. eigenvalues --   -0.46397  -0.41685  -0.40246  -0.39109  -0.38859
 Alpha virt. eigenvalues --   -0.06549  -0.00622  -0.00048   0.03475   0.05038
 Alpha virt. eigenvalues --    0.06592   0.07985   0.08793   0.10562   0.11224
 Alpha virt. eigenvalues --    0.12543   0.13441   0.15345   0.15863   0.16486
 Alpha virt. eigenvalues --    0.16971   0.17384   0.18274   0.18551   0.19015
 Alpha virt. eigenvalues --    0.19404   0.20045   0.21065   0.21518   0.22573
 Alpha virt. eigenvalues --    0.23190   0.23814   0.24368   0.25622   0.26660
 Alpha virt. eigenvalues --    0.27097   0.27828   0.28408   0.30566   0.31825
 Alpha virt. eigenvalues --    0.33001   0.33551   0.35669   0.36640   0.39759
 Alpha virt. eigenvalues --    0.41902   0.42725   0.44776   0.46960   0.51190
 Alpha virt. eigenvalues --    0.52280   0.54123   0.54229   0.57283   0.59680
 Alpha virt. eigenvalues --    0.63245   0.73073   0.74975   0.75237   0.84131
 Alpha virt. eigenvalues --    0.96053   0.96917   0.97792   0.98557   1.00948
 Alpha virt. eigenvalues --    1.01168   1.02956   1.04186   1.05759   1.06268
 Alpha virt. eigenvalues --    1.08639   1.10906   1.12172   1.13336   1.16831
 Alpha virt. eigenvalues --    1.17514   1.17750   1.18297   1.18649   1.20614
 Alpha virt. eigenvalues --    1.21045   1.23058   1.23696   1.25533   1.26125
 Alpha virt. eigenvalues --    1.31209   1.31283   1.32783   1.33833   1.35538
 Alpha virt. eigenvalues --    1.39810   1.41087   1.44350   1.49014   1.51241
 Alpha virt. eigenvalues --    1.53135   1.54588   1.57868   1.60162   1.62729
 Alpha virt. eigenvalues --    1.65101   1.66217   1.67586   1.68088   1.71149
 Alpha virt. eigenvalues --    1.73239   1.75059   1.75453   1.77023   1.80659
 Alpha virt. eigenvalues --    1.81618   1.83695   1.84688   1.86624   1.89991
 Alpha virt. eigenvalues --    1.95524   1.98086   2.02403   2.04796   2.08221
 Alpha virt. eigenvalues --    2.08462   2.08709   2.09962   2.12000   2.14242
 Alpha virt. eigenvalues --    2.18486   2.20473   2.24107   2.35061   2.35471
 Alpha virt. eigenvalues --    2.41959   2.42263   2.43930   2.44879   2.47832
 Alpha virt. eigenvalues --    2.54011   2.55241   2.60189   2.60746   2.63952
 Alpha virt. eigenvalues --    2.69148   2.73141   2.79887   2.84732   2.86286
 Alpha virt. eigenvalues --    2.89762   2.90887   2.93219   3.01179   3.06377
 Alpha virt. eigenvalues --    4.99689   5.02483   5.04364   5.04635   5.05083
 Alpha virt. eigenvalues --    5.07677   5.10460   5.12521   5.18989   5.23673
 Alpha virt. eigenvalues --    5.33500   5.41497   5.43919   5.45241   5.50246
 Alpha virt. eigenvalues --    5.51940   5.90677   5.92508   6.69908   6.72436
 Alpha virt. eigenvalues --    6.73385   6.75224   6.76404   6.77594   6.78646
 Alpha virt. eigenvalues --    6.78779   6.79883   6.80631   6.81563   6.83603
 Alpha virt. eigenvalues --    6.85237   6.88805   6.89632   6.89985   6.91621
 Alpha virt. eigenvalues --    6.91994   6.93839   6.96454   6.97815   6.99794
 Alpha virt. eigenvalues --    7.08370   7.09538   7.12059   7.23071   7.24301
 Alpha virt. eigenvalues --    7.25827   7.30019   7.38848   7.62956  14.21302
 Alpha virt. eigenvalues --   14.22508  14.32490  49.94009  49.96125  49.97800
 Alpha virt. eigenvalues --   49.98754  49.99349  50.08555 163.84698
          Condensed to atoms (all electrons):
               1          2          3          4          5          6
     1  P   12.595292   0.515199   0.235490   0.013525   0.130032   0.041493
     2  O    0.515199   8.172279  -0.006438  -0.014638  -0.024340  -0.001040
     3  O    0.235490  -0.006438   8.024299   0.239430  -0.014882  -0.011440
     4  H    0.013525  -0.014638   0.239430   0.480221  -0.001550   0.002094
     5  O    0.130032  -0.024340  -0.014882  -0.001550   8.148277   0.219661
     6  H    0.041493  -0.001040  -0.011440   0.002094   0.219661   0.452388
     7  O    0.225902  -0.014251   0.038247  -0.004705   0.011211  -0.012621
     8  H    0.005626  -0.020027  -0.005937  -0.003209   0.001269   0.001887
     9  O    0.000445   0.000039  -0.000855   0.002501  -0.000017   0.000000
    10  H    0.000308   0.000059  -0.001012   0.001219   0.000013  -0.000000
    11  H   -0.000106   0.000002   0.000054  -0.000121   0.000001  -0.000000
    12  O    0.008396  -0.010936  -0.003164  -0.000737   0.000801  -0.000029
    13  H    0.003734   0.002132  -0.001528  -0.000392   0.000519  -0.000008
    14  H   -0.000504   0.021513   0.000071   0.000303   0.000056   0.000013
               7          8          9         10         11         12
     1  P    0.225902   0.005626   0.000445   0.000308  -0.000106   0.008396
     2  O   -0.014251  -0.020027   0.000039   0.000059   0.000002  -0.010936
     3  O    0.038247  -0.005937  -0.000855  -0.001012   0.000054  -0.003164
     4  H   -0.004705  -0.003209   0.002501   0.001219  -0.000121  -0.000737
     5  O    0.011211   0.001269  -0.000017   0.000013   0.000001   0.000801
     6  H   -0.012621   0.001887   0.000000  -0.000000  -0.000000  -0.000029
     7  O    8.049305   0.251613   0.000015  -0.000024   0.000004   0.005031
     8  H    0.251613   0.462999   0.000014  -0.000048  -0.000001   0.000242
     9  O    0.000015   0.000014   7.907081   0.308126   0.328132  -0.000004
    10  H   -0.000024  -0.000048   0.308126   0.449872  -0.026543   0.000012
    11  H    0.000004  -0.000001   0.328132  -0.026543   0.418338   0.000000
    12  O    0.005031   0.000242  -0.000004   0.000012   0.000000   7.924528
    13  H    0.001601   0.001447  -0.000015   0.000037   0.000000   0.287607
    14  H    0.002360  -0.000948   0.000000  -0.000000  -0.000000   0.319485
              13         14
     1  P    0.003734  -0.000504
     2  O    0.002132   0.021513
     3  O   -0.001528   0.000071
     4  H   -0.000392   0.000303
     5  O    0.000519   0.000056
     6  H   -0.000008   0.000013
     7  O    0.001601   0.002360
     8  H    0.001447  -0.000948
     9  O   -0.000015   0.000000
    10  H    0.000037  -0.000000
    11  H    0.000000  -0.000000
    12  O    0.287607   0.319485
    13  H    0.504512  -0.026702
    14  H   -0.026702   0.370215
 Mulliken charges:
               1
     1  P    1.225168
     2  O   -0.619551
     3  O   -0.492335
     4  H    0.286060
     5  O   -0.471051
     6  H    0.307603
     7  O   -0.553687
     8  H    0.305072
     9  O   -0.545462
    10  H    0.267980
    11  H    0.280242
    12  O   -0.531234
    13  H    0.227057
    14  H    0.314137
 Sum of Mulliken charges =  -0.00000
 Mulliken charges with hydrogens summed into heavy atoms:
               1
     1  P    1.225168
     2  O   -0.619551
     3  O   -0.206275
     5  O   -0.163448
     7  O   -0.248615
     9  O    0.002760
    12  O    0.009961
         Mulliken charges condensed to fragments:
      1     -0.012721
      2      0.002760
      3      0.009961
 Electronic spatial extent (au):  <R**2>=         135059.0307
 Charge=             -0.0000 electrons
 Dipole moment (field-independent basis, Debye):
    X=              0.2020    Y=              7.8539    Z=              1.5583  Tot=              8.0096
 Quadrupole moment (field-independent basis, Debye-Ang):
   XX=            -47.6498   YY=            155.2816   ZZ=            -38.6299
   XY=            138.2283   XZ=             29.5758   YZ=             72.5196
 Traceless Quadrupole moment (field-independent basis, Debye-Ang):
   XX=            -70.6504   YY=            132.2810   ZZ=            -61.6305
   XY=            138.2283   XZ=             29.5758   YZ=             72.5196
 Octapole moment (field-independent basis, Debye-Ang**2):
  XXX=          -2736.0361  YYY=           2051.5422  ZZZ=           -870.4372  XYY=           2705.0330
  XXY=           1736.5877  XXZ=            230.4601  XZZ=           -653.3419  YZZ=           -126.3398
  YYZ=           1342.8248  XYZ=           1281.9480
 Hexadecapole moment (field-independent basis, Debye-Ang**3):
 XXXX=        -100311.3956 YYYY=          17887.3851 ZZZZ=         -12602.3763 XXXY=           5479.4780
 XXXZ=          -6907.2386 YYYX=          35338.0700 YYYZ=          18867.3722 ZZZX=         -14779.0628
 ZZZY=          -8297.0261 XXYY=          38103.8957 XXZZ=         -13372.4044 YYZZ=           1446.3413
 XXYZ=          18442.6969 YYXZ=          23461.3076 ZZXY=          -2092.7596
 N-N= 4.194290728796D+02 E-N=-2.727116710036D+03  KE= 7.948699236419D+02
 No NMR shielding tensors so no spin-rotation constants.
 Leave Link  601 at Mon Feb 20 09:39:05 2023, MaxMem=  6710886400 cpu:               1.9 elap:               0.1
 (Enter /data0/home/software/g16/l122.exe)
 CPIOFr:  IOpCl= 0 IRwI=-1 IRwCP=  731 ICalc= -1 LCPTot=       89292 Len1MO=      233639 IndFrg=       89292
 CPIOFr:  IOpCl= 0 IRwI=-1 IRwCP=  731 ICalc=  0 LCPTot=       89292 Len1MO=      233639 IndFrg=      322931
 Counterpoise: doing calculation for fragment   1 using the basis set of the full-system, NewBq=T
 Leave Link  122 at Mon Feb 20 09:39:05 2023, MaxMem=  6710886400 cpu:               0.1 elap:               0.0
 (Enter /data0/home/software/g16/l301.exe)
 Basis read from rwf:  (5D, 7F)
 No pseudopotential information found on rwf file.
   239 basis functions,   364 primitive gaussians,   253 cartesian basis functions
    25 alpha electrons       25 beta electrons
       nuclear repulsion energy       279.7916972354 Hartrees.
 IExCor= 4336 DFT=T Ex+Corr=M062X ExCW=0 ScaHFX=  0.540000
 ScaDFX=  1.000000  1.000000  1.000000  1.000000 ScalE2=  1.000000  1.000000
 IRadAn=      5 IRanWt=     -1 IRanGd=            0 ICorTp=0 IEmpDi=131
 NAtoms=   14 NActive=   14 NUniq=   14 SFac= 1.00D+00 NAtFMM=   60 NAOKFM=F Big=F
 Integral buffers will be    131072 words long.
 Raffenetti 2 integral format.
 Two-electron integral symmetry is turned off.
 R6Disp:  Grimme-D3 Dispersion energy=       -0.0000434341 Hartrees.
 Nuclear repulsion after empirical dispersion term =      279.7916538013 Hartrees.
 No density basis found on file   718.
 Leave Link  301 at Mon Feb 20 09:39:05 2023, MaxMem=  6710886400 cpu:               1.3 elap:               0.1
 (Enter /data0/home/software/g16/l302.exe)
 NPDir=0 NMtPBC=     1 NCelOv=     1 NCel=       1 NClECP=     1 NCelD=      1
         NCelK=      1 NCelE2=     1 NClLst=     1 CellRange=     0.0.
 One-electron integrals computed using PRISM.
 NBasis=   239 RedAO= T EigKep=  5.34D-04  NBF=   239
 NBsUse=   239 1.00D-06 EigRej= -1.00D+00 NBFU=   239
 Precomputing XC quadrature grid using
 IXCGrd= 4 IRadAn=           5 IRanWt=          -1 IRanGd=           0 AccXCQ= 0.00D+00.
 Generated NRdTot=       0 NPtTot=           0 NUsed=           0 NTot=          32
 NSgBfM=   252   252   252   252   252 MxSgAt=    14 MxSgA2=    14.
 Leave Link  302 at Mon Feb 20 09:39:05 2023, MaxMem=  6710886400 cpu:               3.8 elap:               0.2
 (Enter /data0/home/software/g16/l303.exe)
 DipDrv:  MaxL=1.
 Leave Link  303 at Mon Feb 20 09:39:05 2023, MaxMem=  6710886400 cpu:               0.6 elap:               0.0
 (Enter /data0/home/software/g16/l401.exe)
 ExpMin= 3.48D-02 ExpMax= 7.75D+04 ExpMxC= 2.65D+03 IAcc=3 IRadAn=         5 AccDes= 0.00D+00
 Harris functional with IExCor= 1009 and IRadAn=       5 diagonalized for initial guess.
 HarFok:  IExCor= 1009 AccDes= 0.00D+00 IRadAn=         5 IDoV= 1 UseB2=F ITyADJ=14
 ICtDFT=  3500011 ScaDFX=  1.000000  1.000000  1.000000  1.000000
 FoFCou: FMM=F IPFlag=           0 FMFlag=      100000 FMFlg1=           0
         NFxFlg=           0 DoJE=T BraDBF=F KetDBF=T FulRan=T
         wScrn=  0.000000 ICntrl=       500 IOpCl=  0 I1Cent=   200000004 NGrid=           0
         NMat0=    1 NMatS0=      1 NMatT0=    0 NMatD0=    1 NMtDS0=    0 NMtDT0=    0
 Symmetry not used in FoFCou.
 Harris En= -643.937554763328    
 JPrj=0 DoOrth=F DoCkMO=F.
 Leave Link  401 at Mon Feb 20 09:39:06 2023, MaxMem=  6710886400 cpu:               9.5 elap:               0.4
 (Enter /data0/home/software/g16/l502.exe)
 Two-electron integral symmetry not used.
 Closed shell SCF:
 Using DIIS extrapolation, IDIIS=  1040.
 NGot=  6710886400 LenX=  6710750439 LenY=  6710685989
 Requested convergence on RMS density matrix=1.00D-08 within 128 cycles.
 Requested convergence on MAX density matrix=1.00D-06.
 Requested convergence on             energy=1.00D-06.
 No special actions if energy rises.
 Fock matrices will be formed incrementally for  20 cycles.

 Cycle   1  Pass 1  IDiag  1:
 FoFJK:  IHMeth= 1 ICntrl=       0 DoSepK=F KAlg= 0 I1Cent=           0 FoldK=F
 IRaf= 860000000 NMat=       1 IRICut=       1 DoRegI=T DoRafI=F ISym2E= 0 IDoP0=0 IntGTp=1.
 FoFCou: FMM=F IPFlag=           0 FMFlag=      100000 FMFlg1=           0
         NFxFlg=           0 DoJE=F BraDBF=F KetDBF=F FulRan=T
         wScrn=  0.000000 ICntrl=         0 IOpCl=  0 I1Cent=           0 NGrid=           0
         NMat0=    1 NMatS0=      1 NMatT0=    0 NMatD0=    1 NMtDS0=    0 NMtDT0=    0
 Symmetry not used in FoFCou.
 E= -643.840738642899    
 DIIS: error= 4.18D-02 at cycle   1 NSaved=   1.
 NSaved= 1 IEnMin= 1 EnMin= -643.840738642899     IErMin= 1 ErrMin= 4.18D-02
 ErrMax= 4.18D-02  0.00D+00 EMaxC= 1.00D-01 BMatC= 5.11D-01 BMatP= 5.11D-01
 IDIUse=3 WtCom= 5.82D-01 WtEn= 4.18D-01
 Coeff-Com:  0.100D+01
 Coeff-En:   0.100D+01
 Coeff:      0.100D+01
 Gap=     0.229 Goal=   None    Shift=    0.000
 GapD=    0.229 DampG=1.000 DampE=0.500 DampFc=0.5000 IDamp=-1.
 Damping current iteration by 5.00D-01
 RMSDP=5.53D-03 MaxDP=2.18D-01              OVMax= 2.79D-01

 Cycle   2  Pass 1  IDiag  1:
 RMSU=  2.77D-03    CP:  1.01D+00
 E= -643.957011469653     Delta-E=       -0.116272826754 Rises=F Damp=T
 DIIS: error= 8.03D-03 at cycle   2 NSaved=   2.
 NSaved= 2 IEnMin= 2 EnMin= -643.957011469653     IErMin= 2 ErrMin= 8.03D-03
 ErrMax= 8.03D-03  0.00D+00 EMaxC= 1.00D-01 BMatC= 2.85D-02 BMatP= 5.11D-01
 IDIUse=3 WtCom= 9.20D-01 WtEn= 8.03D-02
 Coeff-Com:  0.801D-01 0.920D+00
 Coeff-En:   0.217D+00 0.783D+00
 Coeff:      0.911D-01 0.909D+00
 Gap=     0.333 Goal=   None    Shift=    0.000
 RMSDP=1.36D-03 MaxDP=7.62D-02 DE=-1.16D-01 OVMax= 1.85D-01

 Cycle   3  Pass 1  IDiag  1:
 RMSU=  8.87D-04    CP:  9.97D-01  6.29D-01
 E= -644.128611885757     Delta-E=       -0.171600416104 Rises=F Damp=F
 DIIS: error= 7.03D-03 at cycle   3 NSaved=   3.
 NSaved= 3 IEnMin= 3 EnMin= -644.128611885757     IErMin= 3 ErrMin= 7.03D-03
 ErrMax= 7.03D-03  0.00D+00 EMaxC= 1.00D-01 BMatC= 1.11D-02 BMatP= 2.85D-02
 IDIUse=3 WtCom= 9.30D-01 WtEn= 7.03D-02
 Coeff-Com: -0.137D-01 0.345D+00 0.669D+00
 Coeff-En:   0.000D+00 0.000D+00 0.100D+01
 Coeff:     -0.127D-01 0.321D+00 0.692D+00
 Gap=     0.322 Goal=   None    Shift=    0.000
 RMSDP=4.75D-04 MaxDP=1.57D-02 DE=-1.72D-01 OVMax= 3.66D-02

 Cycle   4  Pass 1  IDiag  1:
 RMSU=  3.98D-04    CP:  9.98D-01  7.12D-01  8.68D-01
 E= -644.133681466136     Delta-E=       -0.005069580379 Rises=F Damp=F
 DIIS: error= 4.31D-03 at cycle   4 NSaved=   4.
 NSaved= 4 IEnMin= 4 EnMin= -644.133681466136     IErMin= 4 ErrMin= 4.31D-03
 ErrMax= 4.31D-03  0.00D+00 EMaxC= 1.00D-01 BMatC= 4.10D-03 BMatP= 1.11D-02
 IDIUse=3 WtCom= 9.57D-01 WtEn= 4.31D-02
 Coeff-Com: -0.221D-01 0.495D-01 0.401D+00 0.571D+00
 Coeff-En:   0.000D+00 0.000D+00 0.270D+00 0.730D+00
 Coeff:     -0.211D-01 0.474D-01 0.396D+00 0.578D+00
 Gap=     0.328 Goal=   None    Shift=    0.000
 RMSDP=1.88D-04 MaxDP=6.38D-03 DE=-5.07D-03 OVMax= 1.17D-02

 Cycle   5  Pass 1  IDiag  1:
 RMSU=  5.68D-05    CP:  9.97D-01  6.90D-01  9.63D-01  6.37D-01
 E= -644.136396518554     Delta-E=       -0.002715052418 Rises=F Damp=F
 DIIS: error= 2.03D-04 at cycle   5 NSaved=   5.
 NSaved= 5 IEnMin= 5 EnMin= -644.136396518554     IErMin= 5 ErrMin= 2.03D-04
 ErrMax= 2.03D-04  0.00D+00 EMaxC= 1.00D-01 BMatC= 1.80D-05 BMatP= 4.10D-03
 IDIUse=3 WtCom= 9.98D-01 WtEn= 2.03D-03
 Coeff-Com: -0.245D-02-0.241D-04 0.557D-01 0.118D+00 0.828D+00
 Coeff-En:   0.000D+00 0.000D+00 0.000D+00 0.000D+00 0.100D+01
 Coeff:     -0.244D-02-0.240D-04 0.556D-01 0.118D+00 0.829D+00
 Gap=     0.327 Goal=   None    Shift=    0.000
 RMSDP=2.05D-05 MaxDP=7.25D-04 DE=-2.72D-03 OVMax= 8.30D-04

 Cycle   6  Pass 1  IDiag  1:
 RMSU=  1.36D-05    CP:  9.97D-01  6.86D-01  9.66D-01  6.64D-01  1.06D+00
 E= -644.136408374956     Delta-E=       -0.000011856401 Rises=F Damp=F
 DIIS: error= 6.64D-05 at cycle   6 NSaved=   6.
 NSaved= 6 IEnMin= 6 EnMin= -644.136408374956     IErMin= 6 ErrMin= 6.64D-05
 ErrMax= 6.64D-05  0.00D+00 EMaxC= 1.00D-01 BMatC= 1.72D-06 BMatP= 1.80D-05
 IDIUse=1 WtCom= 1.00D+00 WtEn= 0.00D+00
 Coeff-Com: -0.232D-04-0.172D-02 0.304D-02 0.155D-01 0.261D+00 0.722D+00
 Coeff:     -0.232D-04-0.172D-02 0.304D-02 0.155D-01 0.261D+00 0.722D+00
 Gap=     0.328 Goal=   None    Shift=    0.000
 RMSDP=7.71D-06 MaxDP=2.34D-04 DE=-1.19D-05 OVMax= 2.99D-04

 Cycle   7  Pass 1  IDiag  1:
 RMSU=  4.34D-06    CP:  9.97D-01  6.85D-01  9.68D-01  6.65D-01  1.15D+00
                    CP:  8.82D-01
 E= -644.136409496429     Delta-E=       -0.000001121473 Rises=F Damp=F
 DIIS: error= 3.82D-05 at cycle   7 NSaved=   7.
 NSaved= 7 IEnMin= 7 EnMin= -644.136409496429     IErMin= 7 ErrMin= 3.82D-05
 ErrMax= 3.82D-05  0.00D+00 EMaxC= 1.00D-01 BMatC= 4.05D-07 BMatP= 1.72D-06
 IDIUse=1 WtCom= 1.00D+00 WtEn= 0.00D+00
 Coeff-Com:  0.415D-03-0.714D-03-0.901D-02-0.146D-01-0.230D-01 0.325D+00
 Coeff-Com:  0.722D+00
 Coeff:      0.415D-03-0.714D-03-0.901D-02-0.146D-01-0.230D-01 0.325D+00
 Coeff:      0.722D+00
 Gap=     0.328 Goal=   None    Shift=    0.000
 RMSDP=3.29D-06 MaxDP=1.03D-04 DE=-1.12D-06 OVMax= 1.35D-04

 Cycle   8  Pass 1  IDiag  1:
 RMSU=  1.98D-06    CP:  9.97D-01  6.84D-01  9.68D-01  6.67D-01  1.17D+00
                    CP:  9.70D-01  8.09D-01
 E= -644.136409777542     Delta-E=       -0.000000281112 Rises=F Damp=F
 DIIS: error= 8.75D-06 at cycle   8 NSaved=   8.
 NSaved= 8 IEnMin= 8 EnMin= -644.136409777542     IErMin= 8 ErrMin= 8.75D-06
 ErrMax= 8.75D-06  0.00D+00 EMaxC= 1.00D-01 BMatC= 2.99D-08 BMatP= 4.05D-07
 IDIUse=1 WtCom= 1.00D+00 WtEn= 0.00D+00
 Coeff-Com:  0.152D-03-0.192D-03-0.374D-02-0.610D-02-0.170D-01 0.914D-01
 Coeff-Com:  0.299D+00 0.637D+00
 Coeff:      0.152D-03-0.192D-03-0.374D-02-0.610D-02-0.170D-01 0.914D-01
 Coeff:      0.299D+00 0.637D+00
 Gap=     0.328 Goal=   None    Shift=    0.000
 RMSDP=6.08D-07 MaxDP=2.71D-05 DE=-2.81D-07 OVMax= 3.59D-05

 Cycle   9  Pass 1  IDiag  1:
 RMSU=  3.90D-07    CP:  9.97D-01  6.84D-01  9.68D-01  6.67D-01  1.17D+00
                    CP:  9.82D-01  8.88D-01  8.82D-01
 E= -644.136409800919     Delta-E=       -0.000000023377 Rises=F Damp=F
 DIIS: error= 1.38D-06 at cycle   9 NSaved=   9.
 NSaved= 9 IEnMin= 9 EnMin= -644.136409800919     IErMin= 9 ErrMin= 1.38D-06
 ErrMax= 1.38D-06  0.00D+00 EMaxC= 1.00D-01 BMatC= 9.57D-10 BMatP= 2.99D-08
 IDIUse=1 WtCom= 1.00D+00 WtEn= 0.00D+00
 Coeff-Com: -0.283D-04 0.555D-04 0.276D-03 0.598D-03-0.772D-03-0.196D-01
 Coeff-Com: -0.294D-01 0.765D-01 0.972D+00
 Coeff:     -0.283D-04 0.555D-04 0.276D-03 0.598D-03-0.772D-03-0.196D-01
 Coeff:     -0.294D-01 0.765D-01 0.972D+00
 Gap=     0.328 Goal=   None    Shift=    0.000
 RMSDP=2.66D-07 MaxDP=9.94D-06 DE=-2.34D-08 OVMax= 1.38D-05

 Cycle  10  Pass 1  IDiag  1:
 RMSU=  1.10D-07    CP:  9.97D-01  6.84D-01  9.68D-01  6.67D-01  1.17D+00
                    CP:  9.81D-01  9.04D-01  9.61D-01  1.13D+00
 E= -644.136409802121     Delta-E=       -0.000000001202 Rises=F Damp=F
 DIIS: error= 2.35D-07 at cycle  10 NSaved=  10.
 NSaved=10 IEnMin=10 EnMin= -644.136409802121     IErMin=10 ErrMin= 2.35D-07
 ErrMax= 2.35D-07  0.00D+00 EMaxC= 1.00D-01 BMatC= 2.42D-11 BMatP= 9.57D-10
 IDIUse=1 WtCom= 1.00D+00 WtEn= 0.00D+00
 Coeff-Com: -0.460D-05 0.782D-05 0.118D-03 0.199D-03 0.466D-03-0.437D-02
 Coeff-Com: -0.130D-01-0.158D-01 0.588D-01 0.974D+00
 Coeff:     -0.460D-05 0.782D-05 0.118D-03 0.199D-03 0.466D-03-0.437D-02
 Coeff:     -0.130D-01-0.158D-01 0.588D-01 0.974D+00
 Gap=     0.328 Goal=   None    Shift=    0.000
 RMSDP=5.30D-08 MaxDP=1.08D-06 DE=-1.20D-09 OVMax= 3.52D-06

 Cycle  11  Pass 1  IDiag  1:
 RMSU=  2.85D-08    CP:  9.97D-01  6.84D-01  9.68D-01  6.67D-01  1.17D+00
                    CP:  9.81D-01  9.06D-01  9.73D-01  1.20D+00  1.15D+00
 E= -644.136409802171     Delta-E=       -0.000000000050 Rises=F Damp=F
 DIIS: error= 3.07D-07 at cycle  11 NSaved=  11.
 NSaved=11 IEnMin=11 EnMin= -644.136409802171     IErMin=10 ErrMin= 2.35D-07
 ErrMax= 3.07D-07  0.00D+00 EMaxC= 1.00D-01 BMatC= 1.39D-11 BMatP= 2.42D-11
 IDIUse=1 WtCom= 1.00D+00 WtEn= 0.00D+00
 Coeff-Com:  0.119D-06-0.649D-06 0.367D-04 0.516D-04 0.283D-03-0.708D-03
 Coeff-Com: -0.412D-02-0.130D-01-0.457D-01 0.493D+00 0.571D+00
 Coeff:      0.119D-06-0.649D-06 0.367D-04 0.516D-04 0.283D-03-0.708D-03
 Coeff:     -0.412D-02-0.130D-01-0.457D-01 0.493D+00 0.571D+00
 Gap=     0.328 Goal=   None    Shift=    0.000
 RMSDP=1.45D-08 MaxDP=5.45D-07 DE=-5.02D-11 OVMax= 7.75D-07

 Cycle  12  Pass 1  IDiag  1:
 RMSU=  1.05D-08    CP:  9.97D-01  6.84D-01  9.68D-01  6.67D-01  1.17D+00
                    CP:  9.81D-01  9.06D-01  9.75D-01  1.20D+00  1.22D+00
                    CP:  8.83D-01
 E= -644.136409802172     Delta-E=       -0.000000000001 Rises=F Damp=F
 DIIS: error= 5.95D-08 at cycle  12 NSaved=  12.
 NSaved=12 IEnMin=12 EnMin= -644.136409802172     IErMin=12 ErrMin= 5.95D-08
 ErrMax= 5.95D-08  0.00D+00 EMaxC= 1.00D-01 BMatC= 7.62D-13 BMatP= 1.39D-11
 IDIUse=1 WtCom= 1.00D+00 WtEn= 0.00D+00
 Coeff-Com:  0.785D-06-0.145D-05-0.637D-05-0.136D-04 0.110D-04 0.446D-03
 Coeff-Com:  0.909D-03-0.110D-02-0.242D-01-0.150D-02 0.179D+00 0.846D+00
 Coeff:      0.785D-06-0.145D-05-0.637D-05-0.136D-04 0.110D-04 0.446D-03
 Coeff:      0.909D-03-0.110D-02-0.242D-01-0.150D-02 0.179D+00 0.846D+00
 Gap=     0.328 Goal=   None    Shift=    0.000
 RMSDP=6.29D-09 MaxDP=1.57D-07 DE=-9.09D-13 OVMax= 4.04D-07

 SCF Done:  E(RM062X) =  -644.136409802     A.U. after   12 cycles
            NFock= 12  Conv=0.63D-08     -V/T= 2.0026
 KE= 6.424872695967D+02 PE=-2.087174107184D+03 EE= 5.207587739835D+02
 Leave Link  502 at Mon Feb 20 09:39:16 2023, MaxMem=  6710886400 cpu:             236.8 elap:               9.9
 (Enter /data0/home/software/g16/l601.exe)
 Copying SCF densities to generalized density rwf, IOpCl= 0 IROHF=0.

 **********************************************************************

            Population analysis using the SCF density.

 **********************************************************************

 Alpha  occ. eigenvalues --  -78.16873 -19.69733 -19.69065 -19.68146 -19.58065
 Alpha  occ. eigenvalues --   -6.97661  -5.09579  -5.09565  -5.09314  -1.24648
 Alpha  occ. eigenvalues --   -1.17380  -1.16767  -1.08326  -0.72701  -0.65673
 Alpha  occ. eigenvalues --   -0.63810  -0.59059  -0.53310  -0.51949  -0.50089
 Alpha  occ. eigenvalues --   -0.46315  -0.45283  -0.45144  -0.37913  -0.36897
 Alpha virt. eigenvalues --   -0.04135   0.00710   0.02250   0.04486   0.06845
 Alpha virt. eigenvalues --    0.07923   0.09320   0.09877   0.11993   0.12788
 Alpha virt. eigenvalues --    0.13935   0.14776   0.16162   0.16513   0.17713
 Alpha virt. eigenvalues --    0.18089   0.18487   0.19424   0.19726   0.20276
 Alpha virt. eigenvalues --    0.20962   0.21787   0.22541   0.24219   0.25874
 Alpha virt. eigenvalues --    0.26152   0.27075   0.27966   0.28497   0.29220
 Alpha virt. eigenvalues --    0.29577   0.30100   0.31497   0.32288   0.34429
 Alpha virt. eigenvalues --    0.35395   0.35882   0.38328   0.38922   0.41076
 Alpha virt. eigenvalues --    0.41698   0.44795   0.47480   0.50782   0.52888
 Alpha virt. eigenvalues --    0.55459   0.57274   0.59758   0.62021   0.73346
 Alpha virt. eigenvalues --    0.75601   0.76586   0.77373   0.77551   0.78496
 Alpha virt. eigenvalues --    0.78901   0.81218   0.83109   0.86300   0.96405
 Alpha virt. eigenvalues --    0.99130   0.99522   1.00063   1.01801   1.05860
 Alpha virt. eigenvalues --    1.06233   1.07600   1.10370   1.13310   1.14642
 Alpha virt. eigenvalues --    1.16349   1.19597   1.20852   1.21311   1.22452
 Alpha virt. eigenvalues --    1.25453   1.27004   1.29583   1.33222   1.34623
 Alpha virt. eigenvalues --    1.42784   1.43739   1.50581   1.52871   1.54292
 Alpha virt. eigenvalues --    1.55104   1.59458   1.60159   1.65430   1.67182
 Alpha virt. eigenvalues --    1.68588   1.70297   1.73064   1.78791   1.80915
 Alpha virt. eigenvalues --    1.81876   1.83344   1.83880   1.84957   1.86120
 Alpha virt. eigenvalues --    1.87700   1.89990   1.92747   1.95871   1.97412
 Alpha virt. eigenvalues --    1.99860   2.04350   2.10084   2.11999   2.13489
 Alpha virt. eigenvalues --    2.16428   2.18171   2.20733   2.22160   2.24161
 Alpha virt. eigenvalues --    2.25904   2.27061   2.36876   2.42341   2.44379
 Alpha virt. eigenvalues --    2.45990   2.48463   2.49694   2.57096   2.58143
 Alpha virt. eigenvalues --    2.58577   2.60291   2.63162   2.64197   2.65679
 Alpha virt. eigenvalues --    2.67412   2.69042   2.70842   2.70947   2.73097
 Alpha virt. eigenvalues --    2.75165   2.76707   2.81617   2.86365   2.88003
 Alpha virt. eigenvalues --    2.90689   2.95813   2.98805   2.99637   3.06668
 Alpha virt. eigenvalues --    3.49763   3.54555   3.57254   3.66026   4.50443
 Alpha virt. eigenvalues --    4.59718   5.01190   5.01686   5.04636   5.06318
 Alpha virt. eigenvalues --    5.06876   5.11865   5.14797   5.21340   5.23960
 Alpha virt. eigenvalues --    5.27032   5.36009   5.43520   5.45974   5.51846
 Alpha virt. eigenvalues --    6.71754   6.74252   6.75460   6.77389   6.79581
 Alpha virt. eigenvalues --    6.80571   6.82679   6.85590   6.91574   6.93592
 Alpha virt. eigenvalues --    6.94065   6.98265   6.99661   7.01598   7.11523
 Alpha virt. eigenvalues --    7.24854   7.26278   7.27724   7.31747   7.40874
 Alpha virt. eigenvalues --    7.64854   9.87196   9.89677   9.97633  10.01657
 Alpha virt. eigenvalues --   10.18301  10.22446  10.26050  10.31374  10.39581
 Alpha virt. eigenvalues --   10.55809  12.92772  13.33782  13.36541  13.75139
 Alpha virt. eigenvalues --   13.78374  14.23248  14.24476  14.27170  14.34467
 Alpha virt. eigenvalues --   17.75441  18.36003  49.98115  50.00038  50.00807
 Alpha virt. eigenvalues --   50.10765 136.94508 139.71698 163.86658
          Condensed to atoms (all electrons):
               1          2          3          4          5          6
     1  P   12.531671   0.547623   0.240445   0.011138   0.155138   0.042956
     2  O    0.547623   8.115561  -0.003351  -0.015434  -0.027434   0.001134
     3  O    0.240445  -0.003351   8.010441   0.249486   0.010254  -0.013386
     4  H    0.011138  -0.015434   0.249486   0.458578  -0.000251   0.002101
     5  O    0.155138  -0.027434   0.010254  -0.000251   8.116740   0.218423
     6  H    0.042956   0.001134  -0.013386   0.002101   0.218423   0.456646
     7  O    0.229320  -0.012763   0.030566  -0.004126   0.008587  -0.013262
     8  H    0.005358  -0.016410  -0.005016  -0.002261  -0.000611   0.001702
     9  O    0.000207  -0.000039  -0.000206   0.000756  -0.000004   0.000001
    10  H   -0.000220   0.000036   0.000171  -0.000583   0.000010  -0.000001
    11  H   -0.000054   0.000002   0.000047  -0.000137   0.000000  -0.000000
    12  O    0.000601   0.001342  -0.000377  -0.000426  -0.000000  -0.000035
    13  H   -0.000724   0.001037  -0.000074  -0.000149   0.000085  -0.000006
    14  H    0.001263   0.003408   0.000513   0.000273  -0.000035   0.000036
               7          8          9         10         11         12
     1  P    0.229320   0.005358   0.000207  -0.000220  -0.000054   0.000601
     2  O   -0.012763  -0.016410  -0.000039   0.000036   0.000002   0.001342
     3  O    0.030566  -0.005016  -0.000206   0.000171   0.000047  -0.000377
     4  H   -0.004126  -0.002261   0.000756  -0.000583  -0.000137  -0.000426
     5  O    0.008587  -0.000611  -0.000004   0.000010   0.000000  -0.000000
     6  H   -0.013262   0.001702   0.000001  -0.000001  -0.000000  -0.000035
     7  O    8.057032   0.254807   0.000001  -0.000032   0.000003  -0.000080
     8  H    0.254807   0.449605   0.000025  -0.000056  -0.000001   0.000313
     9  O    0.000001   0.000025   0.001060  -0.000553  -0.000516   0.000002
    10  H   -0.000032  -0.000056  -0.000553   0.000481   0.000148  -0.000005
    11  H    0.000003  -0.000001  -0.000516   0.000148   0.000363  -0.000000
    12  O   -0.000080   0.000313   0.000002  -0.000005  -0.000000   0.005957
    13  H    0.000998  -0.000747  -0.000004   0.000008   0.000000  -0.001670
    14  H   -0.000654   0.000031   0.000000   0.000000  -0.000000  -0.003924
              13         14
     1  P   -0.000724   0.001263
     2  O    0.001037   0.003408
     3  O   -0.000074   0.000513
     4  H   -0.000149   0.000273
     5  O    0.000085  -0.000035
     6  H   -0.000006   0.000036
     7  O    0.000998  -0.000654
     8  H   -0.000747   0.000031
     9  O   -0.000004   0.000000
    10  H    0.000008   0.000000
    11  H    0.000000  -0.000000
    12  O   -0.001670  -0.003924
    13  H    0.001632   0.000416
    14  H    0.000416   0.003919
 Mulliken charges:
               1
     1  P    1.235276
     2  O   -0.594714
     3  O   -0.519514
     4  H    0.301036
     5  O   -0.480901
     6  H    0.303691
     7  O   -0.550397
     8  H    0.313260
     9  O   -0.000730
    10  H    0.000595
    11  H    0.000147
    12  O   -0.001699
    13  H   -0.000802
    14  H   -0.005246
 Sum of Mulliken charges =  -0.00000
 Mulliken charges with hydrogens summed into heavy atoms:
               1
     1  P    1.235276
     2  O   -0.594714
     3  O   -0.218478
     5  O   -0.177210
     7  O   -0.237137
     9  O    0.000011
    12  O   -0.007747
         Mulliken charges condensed to fragments:
      1      0.007736
      2      0.000011
      3     -0.007747
 Electronic spatial extent (au):  <R**2>=         100217.1563
 Charge=              0.0000 electrons
 Dipole moment (field-independent basis, Debye):
    X=             -2.1404    Y=              4.4555    Z=              2.6810  Tot=              5.6232
 Quadrupole moment (field-independent basis, Debye-Ang):
   XX=           -110.2492   YY=             81.7605   ZZ=             -5.9879
   XY=             54.2070   XZ=             33.6200   YZ=             58.6924
 Traceless Quadrupole moment (field-independent basis, Debye-Ang):
   XX=            -98.7570   YY=             93.2527   ZZ=              5.5043
   XY=             54.2070   XZ=             33.6200   YZ=             58.6924
 Octapole moment (field-independent basis, Debye-Ang**2):
  XXX=          -3944.5491  YYY=            874.1344  ZZZ=           -294.5860  XYY=           1144.1489
  XXY=             64.8626  XXZ=            170.5262  XZZ=           -229.6846  YZZ=             29.7822
  YYZ=            896.6059  XYZ=            868.5318
 Hexadecapole moment (field-independent basis, Debye-Ang**3):
 XXXX=        -119844.6570 YYYY=           1480.5931 ZZZZ=          -3782.5161 XXXY=         -24166.6012
 XXXZ=          -8204.0715 YYYX=          11423.2403 YYYZ=          10806.0971 ZZZX=          -6317.4129
 ZZZY=          -3446.0263 XXYY=           8738.2204 XXZZ=          -7285.1139 YYZZ=            809.9515
 XXYZ=           9960.7356 YYXZ=          13643.7942 ZZXY=          -1090.3828
 N-N= 2.797916538013D+02 E-N=-2.087174111442D+03  KE= 6.424872695968D+02
 No NMR shielding tensors so no spin-rotation constants.
 Leave Link  601 at Mon Feb 20 09:39:16 2023, MaxMem=  6710886400 cpu:               2.2 elap:               0.1
 (Enter /data0/home/software/g16/l122.exe)
 CPIOFr:  IOpCl= 0 IRwI=-1 IRwCP=  731 ICalc=  1 LCPTot=       89292 Len1MO=      233639 IndFrg=      556570
 Counterpoise: doing calculation for fragment   2 using the basis set of the full-system, NewBq=T
 Leave Link  122 at Mon Feb 20 09:39:16 2023, MaxMem=  6710886400 cpu:               0.1 elap:               0.0
 (Enter /data0/home/software/g16/l301.exe)
 Basis read from rwf:  (5D, 7F)
 No pseudopotential information found on rwf file.
   239 basis functions,   364 primitive gaussians,   253 cartesian basis functions
     5 alpha electrons        5 beta electrons
       nuclear repulsion energy         9.0682001657 Hartrees.
 IExCor= 4336 DFT=T Ex+Corr=M062X ExCW=0 ScaHFX=  0.540000
 ScaDFX=  1.000000  1.000000  1.000000  1.000000 ScalE2=  1.000000  1.000000
 IRadAn=      5 IRanWt=     -1 IRanGd=            0 ICorTp=0 IEmpDi=131
 NAtoms=   14 NActive=   14 NUniq=   14 SFac= 1.00D+00 NAtFMM=   60 NAOKFM=F Big=F
 Integral buffers will be    131072 words long.
 Raffenetti 2 integral format.
 Two-electron integral symmetry is turned off.
 R6Disp:  Grimme-D3 Dispersion energy=       -0.0000000084 Hartrees.
 Nuclear repulsion after empirical dispersion term =        9.0682001573 Hartrees.
 No density basis found on file   718.
 Leave Link  301 at Mon Feb 20 09:39:16 2023, MaxMem=  6710886400 cpu:               1.3 elap:               0.1
 (Enter /data0/home/software/g16/l302.exe)
 NPDir=0 NMtPBC=     1 NCelOv=     1 NCel=       1 NClECP=     1 NCelD=      1
         NCelK=      1 NCelE2=     1 NClLst=     1 CellRange=     0.0.
 One-electron integrals computed using PRISM.
 NBasis=   239 RedAO= T EigKep=  5.34D-04  NBF=   239
 NBsUse=   239 1.00D-06 EigRej= -1.00D+00 NBFU=   239
 Precomputing XC quadrature grid using
 IXCGrd= 4 IRadAn=           5 IRanWt=          -1 IRanGd=           0 AccXCQ= 0.00D+00.
 Generated NRdTot=       0 NPtTot=           0 NUsed=           0 NTot=          32
 NSgBfM=   252   252   252   252   252 MxSgAt=    14 MxSgA2=    14.
 Leave Link  302 at Mon Feb 20 09:39:16 2023, MaxMem=  6710886400 cpu:               3.8 elap:               0.2
 (Enter /data0/home/software/g16/l303.exe)
 DipDrv:  MaxL=1.
 Leave Link  303 at Mon Feb 20 09:39:16 2023, MaxMem=  6710886400 cpu:               0.6 elap:               0.0
 (Enter /data0/home/software/g16/l401.exe)
 ExpMin= 3.48D-02 ExpMax= 7.75D+04 ExpMxC= 2.65D+03 IAcc=3 IRadAn=         5 AccDes= 0.00D+00
 Harris functional with IExCor= 1009 and IRadAn=       5 diagonalized for initial guess.
 HarFok:  IExCor= 1009 AccDes= 0.00D+00 IRadAn=         5 IDoV= 1 UseB2=F ITyADJ=14
 ICtDFT=  3500011 ScaDFX=  1.000000  1.000000  1.000000  1.000000
 FoFCou: FMM=F IPFlag=           0 FMFlag=      100000 FMFlg1=           0
         NFxFlg=           0 DoJE=T BraDBF=F KetDBF=T FulRan=T
         wScrn=  0.000000 ICntrl=       500 IOpCl=  0 I1Cent=   200000004 NGrid=           0
         NMat0=    1 NMatS0=      1 NMatT0=    0 NMatD0=    1 NMtDS0=    0 NMtDT0=    0
 Symmetry not used in FoFCou.
 Harris En= -76.4157264549195    
 JPrj=0 DoOrth=F DoCkMO=F.
 Leave Link  401 at Mon Feb 20 09:39:16 2023, MaxMem=  6710886400 cpu:               9.6 elap:               0.4
 (Enter /data0/home/software/g16/l502.exe)
 Two-electron integral symmetry not used.
 Closed shell SCF:
 Using DIIS extrapolation, IDIIS=  1040.
 NGot=  6710886400 LenX=  6710750439 LenY=  6710685989
 Requested convergence on RMS density matrix=1.00D-08 within 128 cycles.
 Requested convergence on MAX density matrix=1.00D-06.
 Requested convergence on             energy=1.00D-06.
 No special actions if energy rises.
 Fock matrices will be formed incrementally for  20 cycles.

 Cycle   1  Pass 1  IDiag  1:
 FoFJK:  IHMeth= 1 ICntrl=       0 DoSepK=F KAlg= 0 I1Cent=           0 FoldK=F
 IRaf= 860000000 NMat=       1 IRICut=       1 DoRegI=T DoRafI=F ISym2E= 0 IDoP0=0 IntGTp=1.
 FoFCou: FMM=F IPFlag=           0 FMFlag=      100000 FMFlg1=           0
         NFxFlg=           0 DoJE=F BraDBF=F KetDBF=F FulRan=T
         wScrn=  0.000000 ICntrl=         0 IOpCl=  0 I1Cent=           0 NGrid=           0
         NMat0=    1 NMatS0=      1 NMatT0=    0 NMatD0=    1 NMtDS0=    0 NMtDT0=    0
 Symmetry not used in FoFCou.
 E= -76.3454139627310    
 DIIS: error= 5.83D-02 at cycle   1 NSaved=   1.
 NSaved= 1 IEnMin= 1 EnMin= -76.3454139627310     IErMin= 1 ErrMin= 5.83D-02
 ErrMax= 5.83D-02  0.00D+00 EMaxC= 1.00D-01 BMatC= 1.21D-01 BMatP= 1.21D-01
 IDIUse=3 WtCom= 4.17D-01 WtEn= 5.83D-01
 Coeff-Com:  0.100D+01
 Coeff-En:   0.100D+01
 Coeff:      0.100D+01
 Gap=     0.293 Goal=   None    Shift=    0.000
 GapD=    0.293 DampG=1.000 DampE=0.500 DampFc=0.5000 IDamp=-1.
 Damping current iteration by 5.00D-01
 RMSDP=1.31D-03 MaxDP=1.01D-01              OVMax= 1.69D-01

 Cycle   2  Pass 1  IDiag  1:
 RMSU=  6.31D-04    CP:  9.64D-01
 E= -76.3766953213393     Delta-E=       -0.031281358608 Rises=F Damp=T
 DIIS: error= 8.83D-03 at cycle   2 NSaved=   2.
 NSaved= 2 IEnMin= 2 EnMin= -76.3766953213393     IErMin= 2 ErrMin= 8.83D-03
 ErrMax= 8.83D-03  0.00D+00 EMaxC= 1.00D-01 BMatC= 4.91D-03 BMatP= 1.21D-01
 IDIUse=3 WtCom= 9.12D-01 WtEn= 8.83D-02
 Coeff-Com:  0.844D-01 0.916D+00
 Coeff-En:   0.191D+00 0.809D+00
 Coeff:      0.938D-01 0.906D+00
 Gap=     0.406 Goal=   None    Shift=    0.000
 RMSDP=1.66D-04 MaxDP=1.43D-02 DE=-3.13D-02 OVMax= 1.01D-01

 Cycle   3  Pass 1  IDiag  1:
 RMSU=  1.17D-04    CP:  9.77D-01  8.43D-01
 E= -76.4208059426618     Delta-E=       -0.044110621323 Rises=F Damp=F
 DIIS: error= 1.80D-03 at cycle   3 NSaved=   3.
 NSaved= 3 IEnMin= 3 EnMin= -76.4208059426618     IErMin= 3 ErrMin= 1.80D-03
 ErrMax= 1.80D-03  0.00D+00 EMaxC= 1.00D-01 BMatC= 1.16D-04 BMatP= 4.91D-03
 IDIUse=3 WtCom= 9.82D-01 WtEn= 1.80D-02
 Coeff-Com: -0.229D-01 0.464D-01 0.976D+00
 Coeff-En:   0.000D+00 0.000D+00 0.100D+01
 Coeff:     -0.225D-01 0.456D-01 0.977D+00
 Gap=     0.409 Goal=   None    Shift=    0.000
 RMSDP=2.17D-05 MaxDP=1.18D-03 DE=-4.41D-02 OVMax= 3.59D-03

 Cycle   4  Pass 1  IDiag  1:
 RMSU=  1.38D-05    CP:  9.76D-01  8.65D-01  1.07D+00
 E= -76.4209018749620     Delta-E=       -0.000095932300 Rises=F Damp=F
 DIIS: error= 3.41D-04 at cycle   4 NSaved=   4.
 NSaved= 4 IEnMin= 4 EnMin= -76.4209018749620     IErMin= 4 ErrMin= 3.41D-04
 ErrMax= 3.41D-04  0.00D+00 EMaxC= 1.00D-01 BMatC= 3.36D-06 BMatP= 1.16D-04
 IDIUse=3 WtCom= 9.97D-01 WtEn= 3.41D-03
 Coeff-Com: -0.261D-02-0.958D-03 0.165D+00 0.839D+00
 Coeff-En:   0.000D+00 0.000D+00 0.000D+00 0.100D+01
 Coeff:     -0.260D-02-0.954D-03 0.164D+00 0.839D+00
 Gap=     0.410 Goal=   None    Shift=    0.000
 RMSDP=3.78D-06 MaxDP=3.47D-04 DE=-9.59D-05 OVMax= 5.38D-04

 Cycle   5  Pass 1  IDiag  1:
 RMSU=  2.86D-06    CP:  9.76D-01  8.64D-01  1.08D+00  1.05D+00
 E= -76.4209039479333     Delta-E=       -0.000002072971 Rises=F Damp=F
 DIIS: error= 7.68D-05 at cycle   5 NSaved=   5.
 NSaved= 5 IEnMin= 5 EnMin= -76.4209039479333     IErMin= 5 ErrMin= 7.68D-05
 ErrMax= 7.68D-05  0.00D+00 EMaxC= 1.00D-01 BMatC= 8.74D-08 BMatP= 3.36D-06
 IDIUse=1 WtCom= 1.00D+00 WtEn= 0.00D+00
 Coeff-Com:  0.132D-02-0.204D-02-0.372D-01-0.721D-01 0.111D+01
 Coeff:      0.132D-02-0.204D-02-0.372D-01-0.721D-01 0.111D+01
 Gap=     0.410 Goal=   None    Shift=    0.000
 RMSDP=1.70D-06 MaxDP=1.04D-04 DE=-2.07D-06 OVMax= 2.12D-04

 Cycle   6  Pass 1  IDiag  1:
 RMSU=  6.02D-07    CP:  9.76D-01  8.63D-01  1.09D+00  1.11D+00  1.30D+00
 E= -76.4209040914514     Delta-E=       -0.000000143518 Rises=F Damp=F
 DIIS: error= 5.53D-06 at cycle   6 NSaved=   6.
 NSaved= 6 IEnMin= 6 EnMin= -76.4209040914514     IErMin= 6 ErrMin= 5.53D-06
 ErrMax= 5.53D-06  0.00D+00 EMaxC= 1.00D-01 BMatC= 1.72D-09 BMatP= 8.74D-08
 IDIUse=1 WtCom= 1.00D+00 WtEn= 0.00D+00
 Coeff-Com: -0.232D-03 0.337D-03 0.288D-02-0.124D-02-0.148D+00 0.115D+01
 Coeff:     -0.232D-03 0.337D-03 0.288D-02-0.124D-02-0.148D+00 0.115D+01
 Gap=     0.410 Goal=   None    Shift=    0.000
 RMSDP=2.74D-07 MaxDP=1.96D-05 DE=-1.44D-07 OVMax= 3.95D-05

 Cycle   7  Pass 1  IDiag  1:
 RMSU=  8.38D-08    CP:  9.76D-01  8.63D-01  1.09D+00  1.12D+00  1.35D+00
                    CP:  1.22D+00
 E= -76.4209040948173     Delta-E=       -0.000000003366 Rises=F Damp=F
 DIIS: error= 9.70D-07 at cycle   7 NSaved=   7.
 NSaved= 7 IEnMin= 7 EnMin= -76.4209040948173     IErMin= 7 ErrMin= 9.70D-07
 ErrMax= 9.70D-07  0.00D+00 EMaxC= 1.00D-01 BMatC= 3.63D-11 BMatP= 1.72D-09
 IDIUse=1 WtCom= 1.00D+00 WtEn= 0.00D+00
 Coeff-Com: -0.211D-04 0.448D-04 0.463D-03 0.144D-02-0.260D-01 0.441D-01
 Coeff-Com:  0.980D+00
 Coeff:     -0.211D-04 0.448D-04 0.463D-03 0.144D-02-0.260D-01 0.441D-01
 Coeff:      0.980D+00
 Gap=     0.410 Goal=   None    Shift=    0.000
 RMSDP=3.71D-08 MaxDP=2.40D-06 DE=-3.37D-09 OVMax= 4.87D-06

 Cycle   8  Pass 1  IDiag  1:
 RMSU=  1.81D-08    CP:  9.76D-01  8.63D-01  1.09D+00  1.12D+00  1.36D+00
                    CP:  1.25D+00  1.14D+00
 E= -76.4209040948783     Delta-E=       -0.000000000061 Rises=F Damp=F
 DIIS: error= 2.43D-07 at cycle   8 NSaved=   8.
 NSaved= 8 IEnMin= 8 EnMin= -76.4209040948783     IErMin= 8 ErrMin= 2.43D-07
 ErrMax= 2.43D-07  0.00D+00 EMaxC= 1.00D-01 BMatC= 2.45D-12 BMatP= 3.63D-11
 IDIUse=1 WtCom= 1.00D+00 WtEn= 0.00D+00
 Coeff-Com:  0.138D-04-0.172D-04-0.142D-03 0.342D-03 0.584D-02-0.617D-01
 Coeff-Com:  0.101D+00 0.955D+00
 Coeff:      0.138D-04-0.172D-04-0.142D-03 0.342D-03 0.584D-02-0.617D-01
 Coeff:      0.101D+00 0.955D+00
 Gap=     0.410 Goal=   None    Shift=    0.000
 RMSDP=7.90D-09 MaxDP=3.51D-07 DE=-6.09D-11 OVMax= 1.08D-06

 SCF Done:  E(RM062X) =  -76.4209040949     A.U. after    8 cycles
            NFock=  8  Conv=0.79D-08     -V/T= 2.0031
 KE= 7.618217361386D+01 PE=-1.989830214110D+02 EE= 3.731174354496D+01
 Leave Link  502 at Mon Feb 20 09:39:23 2023, MaxMem=  6710886400 cpu:             157.8 elap:               6.6
 (Enter /data0/home/software/g16/l601.exe)
 Copying SCF densities to generalized density rwf, IOpCl= 0 IROHF=0.

 **********************************************************************

            Population analysis using the SCF density.

 **********************************************************************

 Alpha  occ. eigenvalues --  -19.62620  -1.13143  -0.60752  -0.47282  -0.39933
 Alpha virt. eigenvalues --    0.01107   0.04155   0.05493   0.05743   0.08474
 Alpha virt. eigenvalues --    0.12194   0.13576   0.14067   0.15322   0.16168
 Alpha virt. eigenvalues --    0.17416   0.17988   0.18595   0.19381   0.20461
 Alpha virt. eigenvalues --    0.20915   0.21049   0.22084   0.22737   0.24166
 Alpha virt. eigenvalues --    0.24261   0.25515   0.27594   0.27831   0.29215
 Alpha virt. eigenvalues --    0.30012   0.31677   0.33346   0.34977   0.35559
 Alpha virt. eigenvalues --    0.37676   0.38244   0.39095   0.39623   0.41186
 Alpha virt. eigenvalues --    0.43584   0.44536   0.44933   0.47858   0.53755
 Alpha virt. eigenvalues --    0.58395   0.64551   0.70688   0.72604   0.73958
 Alpha virt. eigenvalues --    0.74392   0.75685   0.76101   0.76962   0.79174
 Alpha virt. eigenvalues --    0.80745   0.83778   0.85214   0.87192   0.88337
 Alpha virt. eigenvalues --    0.89191   0.90769   0.98213   0.98344   0.98995
 Alpha virt. eigenvalues --    1.00155   1.02447   1.05862   1.06988   1.08816
 Alpha virt. eigenvalues --    1.10344   1.13603   1.15769   1.16240   1.19119
 Alpha virt. eigenvalues --    1.19796   1.21085   1.22999   1.24749   1.30090
 Alpha virt. eigenvalues --    1.33081   1.34068   1.35654   1.38124   1.47346
 Alpha virt. eigenvalues --    1.48462   1.57120   1.69456   1.74764   1.77163
 Alpha virt. eigenvalues --    1.88436   1.89126   1.92006   1.95982   1.97216
 Alpha virt. eigenvalues --    2.00490   2.03370   2.05730   2.07011   2.10121
 Alpha virt. eigenvalues --    2.21849   2.25928   2.28366   2.33105   2.34259
 Alpha virt. eigenvalues --    2.35284   2.37107   2.38125   2.40183   2.42142
 Alpha virt. eigenvalues --    2.44721   2.45514   2.50018   2.55832   2.56116
 Alpha virt. eigenvalues --    2.57247   2.57901   2.59786   2.61793   2.64089
 Alpha virt. eigenvalues --    2.65278   2.66228   2.69077   2.70556   2.71766
 Alpha virt. eigenvalues --    2.73642   2.76316   2.77495   2.78414   2.80385
 Alpha virt. eigenvalues --    2.81715   2.87473   2.88160   2.89591   2.94050
 Alpha virt. eigenvalues --    2.97225   2.99189   3.00460   3.01340   3.02785
 Alpha virt. eigenvalues --    3.04054   3.06771   3.07635   3.09662   3.12060
 Alpha virt. eigenvalues --    3.17656   3.23644   3.26080   3.28825   3.30473
 Alpha virt. eigenvalues --    3.32331   3.36045   3.40674   3.48077   3.51295
 Alpha virt. eigenvalues --    3.66646   3.72966   3.74106   3.80717   3.84529
 Alpha virt. eigenvalues --    4.48632   4.54566   4.60300   4.61412   4.68098
 Alpha virt. eigenvalues --    4.74306   4.76529   4.97617   4.99916   5.06377
 Alpha virt. eigenvalues --    5.09928   5.28491   5.46865   5.92545   6.78158
 Alpha virt. eigenvalues --    6.80410   6.87005   6.91413   7.10137  10.21730
 Alpha virt. eigenvalues --   10.23284  10.25125  10.25788  10.26674  10.28580
 Alpha virt. eigenvalues --   10.29104  10.30835  10.32536  10.33661  10.36942
 Alpha virt. eigenvalues --   10.39677  10.42261  10.43071  10.44843  10.46491
 Alpha virt. eigenvalues --   10.48632  10.53269  10.58088  10.58728  10.60163
 Alpha virt. eigenvalues --   10.61050  10.77427  10.77592  10.83246  10.85577
 Alpha virt. eigenvalues --   10.87962  10.93458  13.40098  13.40660  13.43718
 Alpha virt. eigenvalues --   13.46796  13.47713  13.48919  13.53008  13.59600
 Alpha virt. eigenvalues --   13.68031  13.80410  13.82994  13.89474  13.92204
 Alpha virt. eigenvalues --   13.97926  14.30403  14.42203  18.41715  18.51797
 Alpha virt. eigenvalues --   18.53005  18.54828  18.55557  49.95978  53.47890
 Alpha virt. eigenvalues --   53.49368  53.59792  71.43690 139.74293 139.75893
 Alpha virt. eigenvalues --  139.77972 139.78436 139.78956 485.24416
          Condensed to atoms (all electrons):
               1          2          3          4          5          6
     1  P    0.002965  -0.000497  -0.001210   0.000239  -0.000898  -0.000165
     2  O   -0.000497   0.002233  -0.001402   0.000528  -0.000670  -0.000050
     3  O   -0.001210  -0.001402   0.003089  -0.001716   0.000837   0.000096
     4  H    0.000239   0.000528  -0.001716   0.001398  -0.000230  -0.000015
     5  O   -0.000898  -0.000670   0.000837  -0.000230   0.000799   0.000077
     6  H   -0.000165  -0.000050   0.000096  -0.000015   0.000077   0.000027
     7  O   -0.000402  -0.000002   0.000004   0.000105   0.000043   0.000028
     8  H   -0.000011  -0.000106   0.000142  -0.000076   0.000034   0.000003
     9  O    0.000331   0.000056  -0.000539   0.001287  -0.000007  -0.000000
    10  H    0.000221   0.000005  -0.000478   0.000857  -0.000003   0.000000
    11  H   -0.000045  -0.000000  -0.000008   0.000041   0.000000  -0.000000
    12  O   -0.000023   0.000019  -0.000004   0.000002  -0.000001  -0.000000
    13  H   -0.000031   0.000026  -0.000012   0.000009  -0.000001  -0.000000
    14  H    0.000049  -0.000050   0.000012  -0.000006   0.000003   0.000000
               7          8          9         10         11         12
     1  P   -0.000402  -0.000011   0.000331   0.000221  -0.000045  -0.000023
     2  O   -0.000002  -0.000106   0.000056   0.000005  -0.000000   0.000019
     3  O    0.000004   0.000142  -0.000539  -0.000478  -0.000008  -0.000004
     4  H    0.000105  -0.000076   0.001287   0.000857   0.000041   0.000002
     5  O    0.000043   0.000034  -0.000007  -0.000003   0.000000  -0.000001
     6  H    0.000028   0.000003  -0.000000   0.000000  -0.000000  -0.000000
     7  O    0.000251  -0.000023   0.000012   0.000007   0.000001   0.000004
     8  H   -0.000023   0.000034  -0.000005  -0.000006   0.000000   0.000000
     9  O    0.000012  -0.000005   7.921424   0.318621   0.324996   0.000000
    10  H    0.000007  -0.000006   0.318621   0.414527  -0.025092  -0.000001
    11  H    0.000001   0.000000   0.324996  -0.025092   0.423434   0.000000
    12  O    0.000004   0.000000   0.000000  -0.000001   0.000000   0.000009
    13  H    0.000012  -0.000005   0.000000   0.000000   0.000000   0.000001
    14  H   -0.000011   0.000003  -0.000000   0.000000  -0.000000  -0.000008
              13         14
     1  P   -0.000031   0.000049
     2  O    0.000026  -0.000050
     3  O   -0.000012   0.000012
     4  H    0.000009  -0.000006
     5  O   -0.000001   0.000003
     6  H   -0.000000   0.000000
     7  O    0.000012  -0.000011
     8  H   -0.000005   0.000003
     9  O    0.000000  -0.000000
    10  H    0.000000   0.000000
    11  H    0.000000  -0.000000
    12  O    0.000001  -0.000008
    13  H    0.000010  -0.000008
    14  H   -0.000008   0.000015
 Mulliken charges:
               1
     1  P   -0.000523
     2  O   -0.000090
     3  O    0.001189
     4  H   -0.002423
     5  O    0.000018
     6  H    0.000000
     7  O   -0.000029
     8  H    0.000015
     9  O   -0.566175
    10  H    0.291343
    11  H    0.276674
    12  O    0.000001
    13  H   -0.000001
    14  H    0.000000
 Sum of Mulliken charges =  -0.00000
 Mulliken charges with hydrogens summed into heavy atoms:
               1
     1  P   -0.000523
     2  O   -0.000090
     3  O   -0.001234
     5  O    0.000018
     7  O   -0.000013
     9  O    0.001841
    12  O    0.000001
         Mulliken charges condensed to fragments:
      1     -0.001842
      2      0.001841
      3      0.000001
 Electronic spatial extent (au):  <R**2>=          20812.1674
 Charge=             -0.0000 electrons
 Dipole moment (field-independent basis, Debye):
    X=              0.5535    Y=              1.7841    Z=             -0.9608  Tot=              2.1006
 Quadrupole moment (field-independent basis, Debye-Ang):
   XX=             11.2718   YY=             41.9383   ZZ=            -25.3834
   XY=             38.2397   XZ=             -9.6306   YZ=              6.7485
 Traceless Quadrupole moment (field-independent basis, Debye-Ang):
   XX=              1.9962   YY=             32.6627   ZZ=            -34.6589
   XY=             38.2397   XZ=             -9.6306   YZ=              6.7485
 Octapole moment (field-independent basis, Debye-Ang**2):
  XXX=             97.9989  YYY=            724.0998  ZZZ=           -486.9610  XYY=            826.7862
  XXY=            682.8260  XXZ=           -131.0067  XZZ=           -350.7356  YZZ=           -124.2421
  YYZ=            290.7126  XYZ=            210.0928
 Hexadecapole moment (field-independent basis, Debye-Ang**3):
 XXXX=          -2012.3253 YYYY=          10792.5490 ZZZZ=          -8119.8981 XXXY=          10475.8847
 XXXZ=          -3019.6033 YYYX=          13956.6797 YYYZ=           5731.7131 ZZZX=          -7308.9533
 ZZZY=          -4149.6795 XXYY=          14616.6260 XXZZ=          -5466.3153 YYZZ=            557.3560
 XXYZ=           4097.8001 YYXZ=           6307.5936 ZZXY=           -967.3757
 N-N= 9.068200157329D+00 E-N=-1.989830241483D+02  KE= 7.618217361386D+01
 No NMR shielding tensors so no spin-rotation constants.
 Leave Link  601 at Mon Feb 20 09:39:23 2023, MaxMem=  6710886400 cpu:               2.1 elap:               0.1
 (Enter /data0/home/software/g16/l122.exe)
 CPIOFr:  IOpCl= 0 IRwI=-1 IRwCP=  731 ICalc=  2 LCPTot=       89292 Len1MO=      233639 IndFrg=      790209
 Counterpoise: doing calculation for fragment   3 using the basis set of the full-system, NewBq=T
 Leave Link  122 at Mon Feb 20 09:39:23 2023, MaxMem=  6710886400 cpu:               0.1 elap:               0.0
 (Enter /data0/home/software/g16/l301.exe)
 Basis read from rwf:  (5D, 7F)
 No pseudopotential information found on rwf file.
   239 basis functions,   364 primitive gaussians,   253 cartesian basis functions
     5 alpha electrons        5 beta electrons
       nuclear repulsion energy         9.0916589827 Hartrees.
 IExCor= 4336 DFT=T Ex+Corr=M062X ExCW=0 ScaHFX=  0.540000
 ScaDFX=  1.000000  1.000000  1.000000  1.000000 ScalE2=  1.000000  1.000000
 IRadAn=      5 IRanWt=     -1 IRanGd=            0 ICorTp=0 IEmpDi=131
 NAtoms=   14 NActive=   14 NUniq=   14 SFac= 1.00D+00 NAtFMM=   60 NAOKFM=F Big=F
 Integral buffers will be    131072 words long.
 Raffenetti 2 integral format.
 Two-electron integral symmetry is turned off.
 R6Disp:  Grimme-D3 Dispersion energy=       -0.0000000072 Hartrees.
 Nuclear repulsion after empirical dispersion term =        9.0916589755 Hartrees.
 No density basis found on file   718.
 Leave Link  301 at Mon Feb 20 09:39:23 2023, MaxMem=  6710886400 cpu:               1.3 elap:               0.1
 (Enter /data0/home/software/g16/l302.exe)
 NPDir=0 NMtPBC=     1 NCelOv=     1 NCel=       1 NClECP=     1 NCelD=      1
         NCelK=      1 NCelE2=     1 NClLst=     1 CellRange=     0.0.
 One-electron integrals computed using PRISM.
 NBasis=   239 RedAO= T EigKep=  5.34D-04  NBF=   239
 NBsUse=   239 1.00D-06 EigRej= -1.00D+00 NBFU=   239
 Precomputing XC quadrature grid using
 IXCGrd= 4 IRadAn=           5 IRanWt=          -1 IRanGd=           0 AccXCQ= 0.00D+00.
 Generated NRdTot=       0 NPtTot=           0 NUsed=           0 NTot=          32
 NSgBfM=   252   252   252   252   252 MxSgAt=    14 MxSgA2=    14.
 Leave Link  302 at Mon Feb 20 09:39:23 2023, MaxMem=  6710886400 cpu:               3.8 elap:               0.2
 (Enter /data0/home/software/g16/l303.exe)
 DipDrv:  MaxL=1.
 Leave Link  303 at Mon Feb 20 09:39:24 2023, MaxMem=  6710886400 cpu:               0.6 elap:               0.0
 (Enter /data0/home/software/g16/l401.exe)
 ExpMin= 3.48D-02 ExpMax= 7.75D+04 ExpMxC= 2.65D+03 IAcc=3 IRadAn=         5 AccDes= 0.00D+00
 Harris functional with IExCor= 1009 and IRadAn=       5 diagonalized for initial guess.
 HarFok:  IExCor= 1009 AccDes= 0.00D+00 IRadAn=         5 IDoV= 1 UseB2=F ITyADJ=14
 ICtDFT=  3500011 ScaDFX=  1.000000  1.000000  1.000000  1.000000
 FoFCou: FMM=F IPFlag=           0 FMFlag=      100000 FMFlg1=           0
         NFxFlg=           0 DoJE=T BraDBF=F KetDBF=T FulRan=T
         wScrn=  0.000000 ICntrl=       500 IOpCl=  0 I1Cent=   200000004 NGrid=           0
         NMat0=    1 NMatS0=      1 NMatT0=    0 NMatD0=    1 NMtDS0=    0 NMtDT0=    0
 Symmetry not used in FoFCou.
 Harris En= -76.4165311629521    
 JPrj=0 DoOrth=F DoCkMO=F.
 Leave Link  401 at Mon Feb 20 09:39:24 2023, MaxMem=  6710886400 cpu:               9.1 elap:               0.4
 (Enter /data0/home/software/g16/l502.exe)
 Two-electron integral symmetry not used.
 Closed shell SCF:
 Using DIIS extrapolation, IDIIS=  1040.
 NGot=  6710886400 LenX=  6710750439 LenY=  6710685989
 Requested convergence on RMS density matrix=1.00D-08 within 128 cycles.
 Requested convergence on MAX density matrix=1.00D-06.
 Requested convergence on             energy=1.00D-06.
 No special actions if energy rises.
 Fock matrices will be formed incrementally for  20 cycles.

 Cycle   1  Pass 1  IDiag  1:
 FoFJK:  IHMeth= 1 ICntrl=       0 DoSepK=F KAlg= 0 I1Cent=           0 FoldK=F
 IRaf= 860000000 NMat=       1 IRICut=       1 DoRegI=T DoRafI=F ISym2E= 0 IDoP0=0 IntGTp=1.
 FoFCou: FMM=F IPFlag=           0 FMFlag=      100000 FMFlg1=           0
         NFxFlg=           0 DoJE=F BraDBF=F KetDBF=F FulRan=T
[...]
 KE= 7.618256695390D+01 PE=-1.989835712632D+02 EE= 3.731194848088D+01
 Leave Link  502 at Mon Feb 20 09:39:38 2023, MaxMem=  6710886400 cpu:               8.7 elap:               0.4
 (Enter /data0/home/software/g16/l601.exe)
 Copying SCF densities to generalized density rwf, IOpCl= 0 IROHF=0.

 **********************************************************************

            Population analysis using the SCF density.

 **********************************************************************

 Alpha  occ. eigenvalues --  -19.62616  -1.13142  -0.60751  -0.47279  -0.39930
 Alpha virt. eigenvalues --    0.06167   0.13257   0.17398   0.17957   0.18965
 Alpha virt. eigenvalues --    0.23235   0.50105   0.53926   0.97763   1.00464
 Alpha virt. eigenvalues --    1.06030   1.19168   1.19627   1.32667   1.34048
 Alpha virt. eigenvalues --    1.68724   1.73572   1.75931   2.06178   2.10110
 Alpha virt. eigenvalues --    2.34444   2.42860   2.53985   2.87471   3.01185
 Alpha virt. eigenvalues --    5.05684   5.46243   5.92050   6.78158   6.80405
 Alpha virt. eigenvalues --    6.86895   6.91408   7.09943  49.95661
          Condensed to atoms (all electrons):
               9         10         11
     9  O    7.919411   0.316795   0.324523
    10  H    0.316795   0.423727  -0.024364
    11  H    0.324523  -0.024364   0.422956
 Mulliken charges:
               1
     1  P    0.000000
     2  O    0.000000
     3  O    0.000000
     4  H    0.000000
     5  O    0.000000
     6  H    0.000000
     7  O    0.000000
     8  H    0.000000
     9  O   -0.560729
    10  H    0.283843
    11  H    0.276886
    12  O    0.000000
    13  H    0.000000
    14  H    0.000000
 Sum of Mulliken charges =   0.00000
 Mulliken charges with hydrogens summed into heavy atoms:
               1
     1  P    0.000000
     2  O    0.000000
     3  O    0.000000
     5  O    0.000000
     7  O    0.000000
     9  O    0.000000
    12  O    0.000000
         Mulliken charges condensed to fragments:
      1      0.000000
      2      0.000000
      3      0.000000
 Electronic spatial extent (au):  <R**2>=          20812.1290
 Charge=              0.0000 electrons
 Dipole moment (field-independent basis, Debye):
    X=              0.5580    Y=              1.7851    Z=             -0.9673  Tot=              2.1056
 Quadrupole moment (field-independent basis, Debye-Ang):
   XX=             11.4240   YY=             41.9659   ZZ=            -25.5116
   XY=             38.3190   XZ=             -9.6969   YZ=              6.6700
 Traceless Quadrupole moment (field-independent basis, Debye-Ang):
   XX=              2.1312   YY=             32.6731   ZZ=            -34.8043
   XY=             38.3190   XZ=             -9.6969   YZ=              6.6700
 Octapole moment (field-independent basis, Debye-Ang**2):
  XXX=            101.8695  YYY=            724.6373  ZZZ=           -488.8742  XYY=            828.0903
  XXY=            685.1999  XXZ=           -131.4043  XZZ=           -352.4626  YZZ=           -125.8861
  YYZ=            289.7639  XYZ=            209.3642
 Hexadecapole moment (field-independent basis, Debye-Ang**3):
 XXXX=          -1924.4181 YYYY=          10801.8815 ZZZZ=          -8145.5455 XXXY=          10533.6912
 XXXZ=          -3014.2473 YYYX=          13977.2785 YYYZ=           5720.1664 ZZZX=          -7336.7812
 ZZZY=          -4174.7313 XXYY=          14652.8193 XXZZ=          -5488.4220 YYZZ=            536.0768
 XXYZ=           4095.3466 YYXZ=           6299.7388 ZZXY=           -989.1707
 N-N= 9.068200157329D+00 E-N=-1.989835713323D+02  KE= 7.618256695390D+01
 No NMR shielding tensors so no spin-rotation constants.
 Leave Link  601 at Mon Feb 20 09:39:38 2023, MaxMem=  6710886400 cpu:               1.8 elap:               0.1
 (Enter /data0/home/software/g16/l122.exe)
 CPIOFr:  IOpCl= 0 IRwI=-1 IRwCP=  731 ICalc=  5 LCPTot=       89292 Len1MO=      233639 IndFrg=     1491126
 Counterpoise: doing calculation for fragment   3 using the basis set of the fragment.
 Leave Link  122 at Mon Feb 20 09:39:38 2023, MaxMem=  6710886400 cpu:               0.1 elap:               0.0
 (Enter /data0/home/software/g16/l301.exe)
 Basis read from rwf:  (5D, 7F)
 No pseudopotential information found on rwf file.
    39 basis functions,    58 primitive gaussians,    41 cartesian basis functions
     5 alpha electrons        5 beta electrons
       nuclear repulsion energy         9.0916589827 Hartrees.
 IExCor= 4336 DFT=T Ex+Corr=M062X ExCW=0 ScaHFX=  0.540000
 ScaDFX=  1.000000  1.000000  1.000000  1.000000 ScalE2=  1.000000  1.000000
 IRadAn=      5 IRanWt=     -1 IRanGd=            0 ICorTp=0 IEmpDi=131
 NAtoms=   14 NActive=    3 NUniq=    3 SFac= 1.00D+00 NAtFMM=   60 NAOKFM=F Big=F
 Integral buffers will be    131072 words long.
 Raffenetti 2 integral format.
 Two-electron integral symmetry is turned off.
 R6Disp:  Grimme-D3 Dispersion energy=       -0.0000000072 Hartrees.
 Nuclear repulsion after empirical dispersion term =        9.0916589755 Hartrees.
 No density basis found on file   718.
 Leave Link  301 at Mon Feb 20 09:39:38 2023, MaxMem=  6710886400 cpu:               1.3 elap:               0.1
 (Enter /data0/home/software/g16/l302.exe)
 NPDir=0 NMtPBC=     1 NCelOv=     1 NCel=       1 NClECP=     1 NCelD=      1
         NCelK=      1 NCelE2=     1 NClLst=     1 CellRange=     0.0.
 One-electron integrals computed using PRISM.
 NBasis=    39 RedAO= T EigKep=  2.98D-03  NBF=    39
 NBsUse=    39 1.00D-06 EigRej= -1.00D+00 NBFU=    39
 Precomputing XC quadrature grid using
 IXCGrd= 4 IRadAn=           5 IRanWt=          -1 IRanGd=           0 AccXCQ= 0.00D+00.
 Generated NRdTot=       0 NPtTot=           0 NUsed=           0 NTot=          32
 NSgBfM=    41    41    41    41    41 MxSgAt=     3 MxSgA2=     3.
 Leave Link  302 at Mon Feb 20 09:39:38 2023, MaxMem=  6710886400 cpu:               2.3 elap:               0.1
 (Enter /data0/home/software/g16/l303.exe)
 DipDrv:  MaxL=1.
 Leave Link  303 at Mon Feb 20 09:39:38 2023, MaxMem=  6710886400 cpu:               0.4 elap:               0.0
 (Enter /data0/home/software/g16/l401.exe)
 ExpMin= 8.45D-02 ExpMax= 8.59D+03 ExpMxC= 1.30D+03 IAcc=3 IRadAn=         5 AccDes= 0.00D+00
 Harris functional with IExCor= 1009 and IRadAn=       5 diagonalized for initial guess.
 HarFok:  IExCor= 1009 AccDes= 0.00D+00 IRadAn=         5 IDoV= 1 UseB2=F ITyADJ=14
 ICtDFT=  3500011 ScaDFX=  1.000000  1.000000  1.000000  1.000000
 FoFCou: FMM=F IPFlag=           0 FMFlag=      100000 FMFlg1=           0
         NFxFlg=           0 DoJE=T BraDBF=F KetDBF=T FulRan=T
         wScrn=  0.000000 ICntrl=       500 IOpCl=  0 I1Cent=   200000004 NGrid=           0
         NMat0=    1 NMatS0=      1 NMatT0=    0 NMatD0=    1 NMtDS0=    0 NMtDT0=    0
 Symmetry not used in FoFCou.
 Harris En= -76.4161932878363    
 JPrj=0 DoOrth=F DoCkMO=F.
 Leave Link  401 at Mon Feb 20 09:39:39 2023, MaxMem=  6710886400 cpu:               2.8 elap:               0.1
 (Enter /data0/home/software/g16/l502.exe)
 Keep R1 ints in memory in canonical form, NReq=21037771.
 FoFCou: FMM=F IPFlag=           0 FMFlag=           0 FMFlg1=           0
         NFxFlg=           0 DoJE=F BraDBF=F KetDBF=F FulRan=T
         wScrn=  0.000000 ICntrl=       600 IOpCl=  0 I1Cent=           0 NGrid=           0
         NMat0=    1 NMatS0=    780 NMatT0=    0 NMatD0=    1 NMtDS0=    0 NMtDT0=    0
 Symmetry not used in FoFCou.
 Two-electron integral symmetry not used.
 Closed shell SCF:
 Using DIIS extrapolation, IDIIS=  1040.
 NGot=  6710886400 LenX=  6710576653 LenY=  6710574531
 Requested convergence on RMS density matrix=1.00D-08 within 128 cycles.
 Requested convergence on MAX density matrix=1.00D-06.
 Requested convergence on             energy=1.00D-06.
 No special actions if energy rises.
 Integral accuracy reduced to 1.0D-05 until final iterations.

 Cycle   1  Pass 0  IDiag  1:
 E= -76.3466922899491    
 DIIS: error= 6.98D-02 at cycle   1 NSaved=   1.
 NSaved= 1 IEnMin= 1 EnMin= -76.3466922899491     IErMin= 1 ErrMin= 6.98D-02
 ErrMax= 6.98D-02  0.00D+00 EMaxC= 1.00D-01 BMatC= 1.20D-01 BMatP= 1.20D-01
 IDIUse=3 WtCom= 3.02D-01 WtEn= 6.98D-01
 Coeff-Com:  0.100D+01
 Coeff-En:   0.100D+01
 Coeff:      0.100D+01
 Gap=     0.325 Goal=   None    Shift=    0.000
 GapD=    0.325 DampG=1.000 DampE=0.500 DampFc=0.5000 IDamp=-1.
 Damping current iteration by 5.00D-01
 RMSDP=8.00D-03 MaxDP=1.00D-01              OVMax= 1.67D-01

 Cycle   2  Pass 0  IDiag  1:
 E= -76.3779006690756     Delta-E=       -0.031208379127 Rises=F Damp=T
 DIIS: error= 1.13D-02 at cycle   2 NSaved=   2.
 NSaved= 2 IEnMin= 2 EnMin= -76.3779006690756     IErMin= 2 ErrMin= 1.13D-02
 ErrMax= 1.13D-02  0.00D+00 EMaxC= 1.00D-01 BMatC= 4.84D-03 BMatP= 1.20D-01
 IDIUse=3 WtCom= 8.87D-01 WtEn= 1.13D-01
 Coeff-Com:  0.833D-01 0.917D+00
 Coeff-En:   0.189D+00 0.811D+00
 Coeff:      0.953D-01 0.905D+00
 Gap=     0.457 Goal=   None    Shift=    0.000
 RMSDP=9.51D-04 MaxDP=1.41D-02 DE=-3.12D-02 OVMax= 1.00D-01

 Cycle   3  Pass 0  IDiag  1:
 E= -76.4216417513735     Delta-E=       -0.043741082298 Rises=F Damp=F
 DIIS: error= 2.15D-03 at cycle   3 NSaved=   3.
 NSaved= 3 IEnMin= 3 EnMin= -76.4216417513735     IErMin= 3 ErrMin= 2.15D-03
 ErrMax= 2.15D-03  0.00D+00 EMaxC= 1.00D-01 BMatC= 9.00D-05 BMatP= 4.84D-03
 IDIUse=3 WtCom= 9.78D-01 WtEn= 2.15D-02
 Coeff-Com: -0.199D-01 0.389D-01 0.981D+00
 Coeff-En:   0.000D+00 0.000D+00 0.100D+01
 Coeff:     -0.195D-01 0.381D-01 0.981D+00
 Gap=     0.461 Goal=   None    Shift=    0.000
 RMSDP=1.14D-04 MaxDP=9.82D-04 DE=-4.37D-02 OVMax= 3.31D-03

 Cycle   4  Pass 0  IDiag  1:
 E= -76.4217186575870     Delta-E=       -0.000076906213 Rises=F Damp=F
 DIIS: error= 4.13D-04 at cycle   4 NSaved=   4.
 NSaved= 4 IEnMin= 4 EnMin= -76.4217186575870     IErMin= 4 ErrMin= 4.13D-04
 ErrMax= 4.13D-04  0.00D+00 EMaxC= 1.00D-01 BMatC= 3.24D-06 BMatP= 9.00D-05
 IDIUse=3 WtCom= 9.96D-01 WtEn= 4.13D-03
 Coeff-Com: -0.185D-02-0.231D-02 0.161D+00 0.844D+00
 Coeff-En:   0.000D+00 0.000D+00 0.000D+00 0.100D+01
 Coeff:     -0.185D-02-0.230D-02 0.160D+00 0.844D+00
 Gap=     0.462 Goal=   None    Shift=    0.000
 RMSDP=2.22D-05 MaxDP=3.55D-04 DE=-7.69D-05 OVMax= 5.38D-04

 Cycle   5  Pass 0  IDiag  1:
 E= -76.4217206705182     Delta-E=       -0.000002012931 Rises=F Damp=F
 DIIS: error= 8.83D-05 at cycle   5 NSaved=   5.
 NSaved= 5 IEnMin= 5 EnMin= -76.4217206705182     IErMin= 5 ErrMin= 8.83D-05
 ErrMax= 8.83D-05  0.00D+00 EMaxC= 1.00D-01 BMatC= 8.18D-08 BMatP= 3.24D-06
 IDIUse=1 WtCom= 1.00D+00 WtEn= 0.00D+00
 Coeff-Com:  0.118D-02-0.180D-02-0.369D-01-0.617D-01 0.110D+01
 Coeff:      0.118D-02-0.180D-02-0.369D-01-0.617D-01 0.110D+01
 Gap=     0.462 Goal=   None    Shift=    0.000
 RMSDP=8.97D-06 MaxDP=1.01D-04 DE=-2.01D-06 OVMax= 2.02D-04

 Initial convergence to 1.0D-05 achieved.  Increase integral accuracy.
 Cycle   6  Pass 1  IDiag  1:
 E= -76.4217131788637     Delta-E=        0.000007491654 Rises=F Damp=F
 DIIS: error= 1.47D-05 at cycle   1 NSaved=   1.
 NSaved= 1 IEnMin= 1 EnMin= -76.4217131788637     IErMin= 1 ErrMin= 1.47D-05
 ErrMax= 1.47D-05  0.00D+00 EMaxC= 1.00D-01 BMatC= 9.51D-09 BMatP= 9.51D-09
 IDIUse=1 WtCom= 1.00D+00 WtEn= 0.00D+00
 Coeff-Com:  0.100D+01
 Coeff:      0.100D+01
 Gap=     0.462 Goal=   None    Shift=    0.000
 RMSDP=8.97D-06 MaxDP=1.01D-04 DE= 7.49D-06 OVMax= 4.44D-05

 Cycle   7  Pass 1  IDiag  1:
 E= -76.4217131870764     Delta-E=       -0.000000008213 Rises=F Damp=F
 DIIS: error= 1.36D-05 at cycle   2 NSaved=   2.
 NSaved= 2 IEnMin= 2 EnMin= -76.4217131870764     IErMin= 2 ErrMin= 1.36D-05
 ErrMax= 1.36D-05  0.00D+00 EMaxC= 1.00D-01 BMatC= 2.61D-09 BMatP= 9.51D-09
 IDIUse=1 WtCom= 1.00D+00 WtEn= 0.00D+00
 Coeff-Com:  0.256D+00 0.744D+00
 Coeff:      0.256D+00 0.744D+00
 Gap=     0.462 Goal=   None    Shift=    0.000
 RMSDP=8.74D-07 MaxDP=1.39D-05 DE=-8.21D-09 OVMax= 2.31D-05

 Cycle   8  Pass 1  IDiag  1:
 E= -76.4217131883082     Delta-E=       -0.000000001232 Rises=F Damp=F
 DIIS: error= 5.65D-06 at cycle   3 NSaved=   3.
 NSaved= 3 IEnMin= 3 EnMin= -76.4217131883082     IErMin= 3 ErrMin= 5.65D-06
 ErrMax= 5.65D-06  0.00D+00 EMaxC= 1.00D-01 BMatC= 1.01D-09 BMatP= 2.61D-09
 IDIUse=1 WtCom= 1.00D+00 WtEn= 0.00D+00
 Coeff-Com: -0.624D-01 0.379D+00 0.683D+00
 Coeff:     -0.624D-01 0.379D+00 0.683D+00
 Gap=     0.462 Goal=   None    Shift=    0.000
 RMSDP=3.83D-07 MaxDP=5.82D-06 DE=-1.23D-09 OVMax= 9.23D-06

 Cycle   9  Pass 1  IDiag  1:
 E= -76.4217131890068     Delta-E=       -0.000000000699 Rises=F Damp=F
 DIIS: error= 4.61D-07 at cycle   4 NSaved=   4.
 NSaved= 4 IEnMin= 4 EnMin= -76.4217131890068     IErMin= 4 ErrMin= 4.61D-07
 ErrMax= 4.61D-07  0.00D+00 EMaxC= 1.00D-01 BMatC= 2.72D-12 BMatP= 1.01D-09
 IDIUse=1 WtCom= 1.00D+00 WtEn= 0.00D+00
 Coeff-Com: -0.156D-02-0.276D-01-0.373D-01 0.107D+01
 Coeff:     -0.156D-02-0.276D-01-0.373D-01 0.107D+01
 Gap=     0.462 Goal=   None    Shift=    0.000
 RMSDP=6.29D-08 MaxDP=5.70D-07 DE=-6.99D-10 OVMax= 1.33D-06

 Cycle  10  Pass 1  IDiag  1:
 E= -76.4217131890127     Delta-E=       -0.000000000006 Rises=F Damp=F
 DIIS: error= 7.96D-08 at cycle   5 NSaved=   5.
 NSaved= 5 IEnMin= 5 EnMin= -76.4217131890127     IErMin= 5 ErrMin= 7.96D-08
 ErrMax= 7.96D-08  0.00D+00 EMaxC= 1.00D-01 BMatC= 2.15D-13 BMatP= 2.72D-12
 IDIUse=1 WtCom= 1.00D+00 WtEn= 0.00D+00
 Coeff-Com:  0.353D-02-0.286D-01-0.478D-01 0.152D+00 0.921D+00
 Coeff:      0.353D-02-0.286D-01-0.478D-01 0.152D+00 0.921D+00
 Gap=     0.462 Goal=   None    Shift=    0.000
 RMSDP=1.50D-08 MaxDP=1.21D-07 DE=-5.90D-12 OVMax= 3.34D-07

 Cycle  11  Pass 1  IDiag  1:
 E= -76.4217131890131     Delta-E=       -0.000000000000 Rises=F Damp=F
 DIIS: error= 1.47D-08 at cycle   6 NSaved=   6.
 NSaved= 6 IEnMin= 6 EnMin= -76.4217131890131     IErMin= 6 ErrMin= 1.47D-08
 ErrMax= 1.47D-08  0.00D+00 EMaxC= 1.00D-01 BMatC= 2.89D-15 BMatP= 2.15D-13
 IDIUse=1 WtCom= 1.00D+00 WtEn= 0.00D+00
 Coeff-Com: -0.672D-04 0.132D-02 0.301D-02-0.270D-01-0.458D-01 0.107D+01
 Coeff:     -0.672D-04 0.132D-02 0.301D-02-0.270D-01-0.458D-01 0.107D+01
 Gap=     0.462 Goal=   None    Shift=    0.000
 RMSDP=1.82D-09 MaxDP=1.40D-08 DE=-3.55D-13 OVMax= 4.03D-08

 SCF Done:  E(RM062X) =  -76.4217131890     A.U. after   11 cycles
            NFock= 11  Conv=0.18D-08     -V/T= 2.0030
 KE= 7.619259499413D+01 PE=-1.990300919545D+02 EE= 3.732412479577D+01
 Leave Link  502 at Mon Feb 20 09:39:39 2023, MaxMem=  6710886400 cpu:               8.6 elap:               0.4
 (Enter /data0/home/software/g16/l601.exe)
 Copying SCF densities to generalized density rwf, IOpCl= 0 IROHF=0.

 **********************************************************************

            Population analysis using the SCF density.

 **********************************************************************

 Alpha  occ. eigenvalues --  -19.62701  -1.13393  -0.60362  -0.47815  -0.40013
 Alpha virt. eigenvalues --    0.06206   0.13309   0.17428   0.17939   0.18889
 Alpha virt. eigenvalues --    0.23451   0.50877   0.53418   0.98190   1.00253
 Alpha virt. eigenvalues --    1.05997   1.17105   1.20271   1.31748   1.34024
 Alpha virt. eigenvalues --    1.70854   1.74410   1.75142   2.07265   2.09762
 Alpha virt. eigenvalues --    2.36252   2.39192   2.55115   2.87638   3.01339
 Alpha virt. eigenvalues --    5.05610   5.49274   5.90282   6.78569   6.79949
 Alpha virt. eigenvalues --    6.87320   6.91798   7.09420  49.95478
          Condensed to atoms (all electrons):
              12         13         14
    12  O    7.918560   0.315569   0.317225
    13  H    0.315569   0.431600  -0.023577
    14  H    0.317225  -0.023577   0.431405
 Mulliken charges:
               1
     1  P    0.000000
     2  O    0.000000
     3  O    0.000000
     4  H    0.000000
     5  O    0.000000
     6  H    0.000000
     7  O    0.000000
     8  H    0.000000
     9  O    0.000000
    10  H    0.000000
    11  H    0.000000
    12  O   -0.551354
    13  H    0.276407
    14  H    0.274947
 Sum of Mulliken charges =  -0.00000
 Mulliken charges with hydrogens summed into heavy atoms:
               1
     1  P    0.000000
     2  O    0.000000
     3  O    0.000000
     5  O    0.000000
     7  O    0.000000
     9  O    0.000000
    12  O   -0.000000
         Mulliken charges condensed to fragments:
      1      0.000000
      2      0.000000
      3     -0.000000
 Electronic spatial extent (au):  <R**2>=          14042.2286
 Charge=             -0.0000 electrons
 Dipole moment (field-independent basis, Debye):
    X=              1.2775    Y=              1.7175    Z=             -0.1353  Tot=              2.1448
 Quadrupole moment (field-independent basis, Debye-Ang):
   XX=             33.5147   YY=             33.5474   ZZ=             -8.2522
   XY=             40.5696   XZ=              3.2659   YZ=              8.0559
 Traceless Quadrupole moment (field-independent basis, Debye-Ang):
   XX=             13.9114   YY=             13.9441   ZZ=            -27.8555
   XY=             40.5696   XZ=              3.2659   YZ=              8.0559
 Octapole moment (field-independent basis, Debye-Ang**2):
  XXX=            641.3594  YYY=            478.2661  ZZZ=           -115.9149  XYY=            672.5064
  XXY=            775.6402  XXZ=            102.4903  XZZ=           -105.1797  YZZ=            -40.8321
  YYZ=            173.1325  XYZ=            182.5897
 Hexadecapole moment (field-independent basis, Debye-Ang**3):
 XXXX=          10473.8770 YYYY=           5821.9065 ZZZZ=          -1155.9799 XXXY=          13264.7631
 XXXZ=           1926.4665 YYYX=           9083.7412 YYYZ=           2583.2412 ZZZX=          -1697.9655
 ZZZY=          -1027.9953 XXYY=          11994.7151 XXZZ=          -1441.0249 YYZZ=             -1.7884
 XXYZ=           3368.5600 YYXZ=           3305.1928 ZZXY=           -392.7134
 N-N= 9.091658975548D+00 E-N=-1.990300921488D+02  KE= 7.619259499413D+01
 No NMR shielding tensors so no spin-rotation constants.
 Leave Link  601 at Mon Feb 20 09:39:39 2023, MaxMem=  6710886400 cpu:               1.8 elap:               0.1
 (Enter /data0/home/software/g16/l122.exe)
 CPIOFr:  IOpCl= 0 IRwI=-1 IRwCP=  731 ICalc=  6 LCPTot=       89292 Len1MO=      233639 IndFrg=     1724765
 Restoring MOs from calculation   1 to rwf.
 CPIOFr:  IOpCl= 0 IRwI=-2 IRwCP=  731 ICalc=  0 LCPTot=       89292 Len1MO=      233639 IndFrg=      322931
 Counterpoise corrected energy =    -796.978538295269
                   BSSE energy =       0.000902974652
              sum of fragments =    -796.978670896288
           complexation energy =      -0.48 kcal/mole (raw)
           complexation energy =       0.08 kcal/mole (corrected)
 Leave Link  122 at Mon Feb 20 09:39:39 2023, MaxMem=  6710886400 cpu:               0.2 elap:               0.0
 (Enter /data0/home/software/g16/l9999.exe)
 1\1\GINC-LOCALHOST\SP\RM062X\6-311+G(2d,p)\H7O6P1\WUHANYU\20-Feb-2023\
 0\\#p M062X/6-311+G(2d,p) nosymm em=GD3 counterpoise=3\\Title Card Req
 uired\\0,1\P,0,18.591969,13.52786,5.125319\O,0,18.34415,12.092802,4.92
 7269\O,0,18.996074,13.938351,6.607229\H,0,18.121157,13.934739,7.21121\
 O,0,19.852041,13.992442,4.267651\H,0,19.970607,15.007191,4.42725\O,0,1
 7.435933,14.514413,4.686189\H,0,16.60206,14.34462,5.337366\O,0,16.8516
 78,13.426299,10.790383\H,0,16.803231,13.646007,9.822427\H,0,17.208931,
 14.201785,11.202601\O,0,15.30982,11.375279,5.111479\H,0,15.16866,12.27
 2782,5.461565\H,0,16.171375,11.451377,4.686646\\Version=ES64L-G16RevA.
 03\HF=-76.4217132\RMSD=1.821e-09\Dipole=0.0985784,3.1090606,0.6118781\
 Quadrupole=-52.0441547,98.5654276,-46.5212729,103.7568398,22.1514779,5
 4.0702782\PG=C01 [X(H7O6P1)]\\@


 Other things may change us, but we start and end with family.
 -- Anthony Brandt
 Job cpu time:       0 days  0 hours 17 minutes  5.3 seconds.
 Elapsed time:       0 days  0 hours  0 minutes 45.5 seconds.
 File lengths (MBytes):  RWF=     53 Int=      0 D2E=      0 Chk=     17 Scr=      1
 Normal termination of Gaussian 16 at Mon Feb 20 09:39:39 2023.
