 Entering Gaussian System, Link 0=g16
 Initial command:
 /data0/home/software/g16/l1.exe "/data0/home/software/g16/scratch/Gau-379809.inp" -scrdir="/data0/home/software/g16/scratch/"
 Default is to use a total of  22 processors:
                               22 via shared-memory
                                1 via Linda
 Entering Link 1 = /data0/home/software/g16/l1.exe PID=    379810.
  
 Copyright (c) 1988,1990,1992,1993,1995,1998,2003,2009,2016,
            Gaussian, Inc.  All Rights Reserved.
  
 This is part of the Gaussian(R) 16 program.  It is based on
 the Gaussian(R) 09 system (copyright 2009, Gaussian, Inc.),
 the Gaussian(R) 03 system (copyright 2003, Gaussian, Inc.),
 the Gaussian(R) 98 system (copyright 1998, Gaussian, Inc.),
 the Gaussian(R) 94 system (copyright 1995, Gaussian, Inc.),
 the Gaussian 92(TM) system (copyright 1992, Gaussian, Inc.),
 the Gaussian 90(TM) system (copyright 1990, Gaussian, Inc.),
 the Gaussian 88(TM) system (copyright 1988, Gaussian, Inc.),
 the Gaussian 86(TM) system (copyright 1986, Carnegie Mellon
 University), and the Gaussian 82(TM) system (copyright 1983,
 Carnegie Mellon University). Gaussian is a federally registered
 trademark of Gaussian, Inc.
  
 This software contains proprietary and confidential information,
 including trade secrets, belonging to Gaussian, Inc.
  
 This software is provided under written license and may be
 used, copied, transmitted, or stored only in accord with that
 written license.
  
 The following legend is applicable only to US Government
 contracts under FAR:
  
                    RESTRICTED RIGHTS LEGEND
  
 Use, reproduction and disclosure by the US Government is
 subject to restrictions as set forth in subparagraphs (a)
 and (c) of the Commercial Computer Software - Restricted
 Rights clause in FAR 52.227-19.
  
 Gaussian, Inc.
 340 Quinnipiac St., Bldg. 40, Wallingford CT 06492
  
  
 ---------------------------------------------------------------
 Warning -- This program may not be used in any manner that
 competes with the business of Gaussian, Inc. or will provide
 assistance to any competitor of Gaussian, Inc.  The licensee
 of this program is prohibited from giving any competitor of
 Gaussian, Inc. access to this program.  By using this program,
 the user acknowledges that Gaussian, Inc. is engaged in the
 business of creating and licensing software in the field of
 computational chemistry and represents and warrants to the
 licensee that it is not a competitor of Gaussian, Inc. and that
 it will not use this program in any manner prohibited above.
 ---------------------------------------------------------------
  

 Cite this work as:
 Gaussian 16, Revision A.03,
 M. J. Frisch, G. W. Trucks, H. B. Schlegel, G. E. Scuseria, 
 M. A. Robb, J. R. Cheeseman, G. Scalmani, V. Barone, 
 G. A. Petersson, H. Nakatsuji, X. Li, M. Caricato, A. V. Marenich, 
 J. Bloino, B. G. Janesko, R. Gomperts, B. Mennucci, H. P. Hratchian, 
 J. V. Ortiz, A. F. Izmaylov, J. L. Sonnenberg, D. Williams-Young, 
 F. Ding, F. Lipparini, F. Egidi, J. Goings, B. Peng, A. Petrone, 
 T. Henderson, D. Ranasinghe, V. G. Zakrzewski, J. Gao, N. Rega, 
 G. Zheng, W. Liang, M. Hada, M. Ehara, K. Toyota, R. Fukuda, 
 J. Hasegawa, M. Ishida, T. Nakajima, Y. Honda, O. Kitao, H. Nakai, 
 T. Vreven, K. Throssell, J. A. Montgomery, Jr., J. E. Peralta, 
 F. Ogliaro, M. J. Bearpark, J. J. Heyd, E. N. Brothers, K. N. Kudin, 
 V. N. Staroverov, T. A. Keith, R. Kobayashi, J. Normand, 
 K. Raghavachari, A. P. Rendell, J. C. Burant, S. S. Iyengar, 
 J. Tomasi, M. Cossi, J. M. Millam, M. Klene, C. Adamo, R. Cammi, 
 J. W. Ochterski, R. L. Martin, K. Morokuma, O. Farkas, 
 J. B. Foresman, and D. J. Fox, Gaussian, Inc., Wallingford CT, 2016.
 
 ******************************************
 Gaussian 16:  ES64L-G16RevA.03 25-Dec-2016
                20-Feb-2023 
 ******************************************
 %nproc=24
 Will use up to   24 processors via shared memory.
 %mem=50GB
 ---------------------------------------------------
 #p M062X/6-311+G(2d,p) nosymm em=GD3 counterpoise=4
 ---------------------------------------------------
 1/38=1,62=4,172=1/1;
 2/12=2,15=1,17=6,18=5,40=1/2;
 1/38=1,53=2,62=4,63=1/22;
 3/5=4,6=6,7=112,11=2,25=1,30=1,74=-55,124=31/1,2,3;
 4//1;
 5/5=2,38=5/2;
 6/7=2,8=2,9=2,10=2,28=1/1;
 1/53=2,62=4,63=1/22;
 3/5=7,6=11,7=112,11=2,25=1,30=1,74=-55,82=7,124=31/1,2,3;
 4//1;
 5/5=2,38=5/2;
 6/7=2,8=2,9=2,10=2,28=1/1;
 1/53=2,62=4,63=1/22(-4);
 99/5=1,9=1/99;
 Leave Link    1 at Mon Feb 20 08:34:45 2023, MaxMem=  6710886400 cpu:               0.7 elap:               0.0
 (Enter /data0/home/software/g16/l101.exe)
 -------------------
 Title Card Required
 -------------------
 Symbolic Z-matrix:
 Charge =  0 Multiplicity = 1 in supermolecule
 Charge =  0 Multiplicity = 1 in fragment      1.
 Charge =  0 Multiplicity = 1 in fragment      2.
 Charge =  0 Multiplicity = 1 in fragment      3.
 Charge =  0 Multiplicity = 1 in fragment      4.
 C                     7.41259   10.23684   9.45812    
 C                     7.58711   9.73109   10.74351    
 C                     8.84572   11.5853   10.54813    
 N                     8.18828   11.38864   9.36459    
 H                     6.82973   9.84553   8.63586    
 H                     7.17309   8.84001   11.19589    
 H                     9.56034   12.38271   10.76242    
 C                     8.31234   12.2492   8.20266    
 H                     9.38331   12.45542   7.97308    
 H                     7.89599   11.75542   7.29639    
 H                     7.78721   13.20605   8.36262    
 N                     8.46988   10.58325   11.40422    
 C                     8.94365   10.43245   12.78092    
 H                     8.05666   10.44089   13.45833    
 H                     9.57214   11.3199   13.05412    
 C                     9.75041   9.13973   12.98312    
 H                     9.77793   8.9067    14.06768    
 H                     9.23013   8.27213   12.51699    
 C                     11.17625   9.23569   12.44773    
 H                     11.77066   8.36008   12.78006    
 H                     11.69619   10.13117   12.83779    
 C                     11.15525   9.25409   10.9225    
 O                     11.26061   10.37708   10.36344    
 O                     11.00818   8.17735   10.32426    
 O                     8.4709    6.87605   10.7188    
 H                     9.36843   7.1994    10.56459    
 H                     8.02308   6.96991   9.87181    
 O                     11.31549   12.54495   11.88877    
 H                     12.13007   13.01232   11.75816    
 H                     11.39506   11.72024   11.33771    
 O                     7.17374   7.35374   8.21546    
 H                     7.34132   6.5812    7.67653    
 H                     7.75957   8.03484   7.84225    
 
 ITRead=  0  0  0  0  0  0  0  0  0  0  0  0  0  0  0  0  0  0  0  0
 ITRead=  0  0  0  0  0  0  0  0  0  0  0  0  0
 MicOpt= -1 -1 -1 -1 -1 -1 -1 -1 -1 -1 -1 -1 -1 -1 -1 -1 -1 -1 -1 -1
 MicOpt= -1 -1 -1 -1 -1 -1 -1 -1 -1 -1 -1 -1 -1
 NAtoms=     33 NQM=       33 NQMF=       0 NMMI=      0 NMMIF=      0
                NMic=       0 NMicF=      0.
                    Isotopes and Nuclear Properties:
 (Nuclear quadrupole moments (NQMom) in fm**2, nuclear magnetic moments (NMagM)
  in nuclear magnetons)

  Atom         1           2           3           4           5           6           7           8           9          10
 IAtWgt=          12          12          12          14           1           1           1          12           1           1
 AtmWgt=  12.0000000  12.0000000  12.0000000  14.0030740   1.0078250   1.0078250   1.0078250  12.0000000   1.0078250   1.0078250
 NucSpn=           0           0           0           2           1           1           1           0           1           1
 AtZEff=  -0.0000000  -0.0000000  -0.0000000  -0.0000000  -0.0000000  -0.0000000  -0.0000000  -0.0000000  -0.0000000  -0.0000000
 NQMom=    0.0000000   0.0000000   0.0000000   2.0440000   0.0000000   0.0000000   0.0000000   0.0000000   0.0000000   0.0000000
 NMagM=    0.0000000   0.0000000   0.0000000   0.4037610   2.7928460   2.7928460   2.7928460   0.0000000   2.7928460   2.7928460
 AtZNuc=   6.0000000   6.0000000   6.0000000   7.0000000   1.0000000   1.0000000   1.0000000   6.0000000   1.0000000   1.0000000

  Atom        11          12          13          14          15          16          17          18          19          20
 IAtWgt=           1          14          12           1           1          12           1           1          12           1
 AtmWgt=   1.0078250  14.0030740  12.0000000   1.0078250   1.0078250  12.0000000   1.0078250   1.0078250  12.0000000   1.0078250
 NucSpn=           1           2           0           1           1           0           1           1           0           1
 AtZEff=  -0.0000000  -0.0000000  -0.0000000  -0.0000000  -0.0000000  -0.0000000  -0.0000000  -0.0000000  -0.0000000  -0.0000000
 NQMom=    0.0000000   2.0440000   0.0000000   0.0000000   0.0000000   0.0000000   0.0000000   0.0000000   0.0000000   0.0000000
 NMagM=    2.7928460   0.4037610   0.0000000   2.7928460   2.7928460   0.0000000   2.7928460   2.7928460   0.0000000   2.7928460
 AtZNuc=   1.0000000   7.0000000   6.0000000   1.0000000   1.0000000   6.0000000   1.0000000   1.0000000   6.0000000   1.0000000

  Atom        21          22          23          24          25          26          27          28          29          30
 IAtWgt=           1          12          16          16          16           1           1          16           1           1
 AtmWgt=   1.0078250  12.0000000  15.9949146  15.9949146  15.9949146   1.0078250   1.0078250  15.9949146   1.0078250   1.0078250
 NucSpn=           1           0           0           0           0           1           1           0           1           1
 AtZEff=  -0.0000000  -0.0000000  -0.0000000  -0.0000000  -0.0000000  -0.0000000  -0.0000000  -0.0000000  -0.0000000  -0.0000000
 NQMom=    0.0000000   0.0000000   0.0000000   0.0000000   0.0000000   0.0000000   0.0000000   0.0000000   0.0000000   0.0000000
 NMagM=    2.7928460   0.0000000   0.0000000   0.0000000   0.0000000   2.7928460   2.7928460   0.0000000   2.7928460   2.7928460
 AtZNuc=   1.0000000   6.0000000   8.0000000   8.0000000   8.0000000   1.0000000   1.0000000   8.0000000   1.0000000   1.0000000

  Atom        31          32          33
 IAtWgt=          16           1           1
 AtmWgt=  15.9949146   1.0078250   1.0078250
 NucSpn=           0           1           1
 AtZEff=  -0.0000000  -0.0000000  -0.0000000
 NQMom=    0.0000000   0.0000000   0.0000000
 NMagM=    0.0000000   2.7928460   2.7928460
 AtZNuc=   8.0000000   1.0000000   1.0000000
 Leave Link  101 at Mon Feb 20 08:34:45 2023, MaxMem=  6710886400 cpu:               2.2 elap:               0.1
 (Enter /data0/home/software/g16/l202.exe)
                          Input orientation:                          
 ---------------------------------------------------------------------
 Center     Atomic      Atomic             Coordinates (Angstroms)
 Number     Number       Type             X           Y           Z
 ---------------------------------------------------------------------
      1          6           0        7.412586   10.236837    9.458117
      2          6           0        7.587109    9.731091   10.743511
      3          6           0        8.845724   11.585301   10.548130
      4          7           0        8.188275   11.388639    9.364593
      5          1           0        6.829730    9.845525    8.635859
      6          1           0        7.173088    8.840010   11.195885
      7          1           0        9.560341   12.382714   10.762421
      8          6           0        8.312341   12.249198    8.202663
      9          1           0        9.383305   12.455415    7.973076
     10          1           0        7.895994   11.755416    7.296390
     11          1           0        7.787208   13.206046    8.362616
     12          7           0        8.469876   10.583249   11.404221
     13          6           0        8.943651   10.432451   12.780915
     14          1           0        8.056659   10.440888   13.458326
     15          1           0        9.572141   11.319895   13.054124
     16          6           0        9.750413    9.139725   12.983117
     17          1           0        9.777934    8.906695   14.067683
     18          1           0        9.230129    8.272127   12.516986
     19          6           0       11.176253    9.235686   12.447731
     20          1           0       11.770660    8.360078   12.780059
     21          1           0       11.696188   10.131166   12.837786
     22          6           0       11.155251    9.254090   10.922502
     23          8           0       11.260607   10.377079   10.363444
     24          8           0       11.008179    8.177350   10.324257
     25          8           0        8.470898    6.876046   10.718795
     26          1           0        9.368435    7.199403   10.564588
     27          1           0        8.023076    6.969913    9.871807
     28          8           0       11.315486   12.544952   11.888769
     29          1           0       12.130073   13.012322   11.758161
     30          1           0       11.395056   11.720235   11.337715
     31          8           0        7.173737    7.353745    8.215462
     32          1           0        7.341317    6.581196    7.676528
     33          1           0        7.759569    8.034842    7.842249
 ---------------------------------------------------------------------
                    Distance matrix (angstroms):
                    1          2          3          4          5
     1  C    0.000000
     2  C    1.392291   0.000000
     3  C    2.249526   2.249529   0.000000
     4  N    1.391793   2.238366   1.368092   0.000000
     5  H    1.081182   2.242524   3.278389   2.181261   0.000000
     6  H    2.242392   1.081703   3.279317   3.298446   2.771766
     7  H    3.304368   3.305315   1.092001   2.196514   4.291367
     8  C    2.536793   3.650032   2.495290   1.451219   2.857173
     9  H    3.318308   4.280604   2.770739   2.121892   3.711004
    10  H    2.685671   4.009482   3.391864   2.120711   2.564913
    11  H    3.186952   4.217110   2.919545   2.113713   3.504929
    12  N    2.241692   1.393552   1.370497   2.210890   3.301234
    13  C    3.663797   2.546199   2.514753   3.627140   4.689844
    14  H    4.056863   2.845085   3.225143   4.204070   5.011587
    15  H    4.332200   3.435634   2.622619   3.941123   5.405150
    16  C    4.369750   3.169453   3.567698   4.537797   5.284619
    17  H    5.349042   4.065644   4.520088   5.550326   6.251242
    18  H    4.064508   2.823704   3.873149   4.553646   4.827074
    19  C    4.909713   4.003966   3.815828   4.803016   5.813307
    20  H    5.792265   4.850701   4.892731   5.802678   6.617684
    21  H    5.457341   4.629317   3.934740   5.094091   6.435852
    22  C    4.137361   3.604331   3.302819   3.973201   4.928353
    23  O    3.955572   3.749178   2.706579   3.385289   4.785370
    24  O    4.233199   3.780688   4.042334   4.380090   4.805511
    25  O    3.742225   2.988808   4.727230   4.719877   3.981188
    26  H    3.778310   3.100739   4.416967   4.514694   4.143305
    27  H    3.349124   2.928146   4.736662   4.450808   3.349744
    28  O    5.144715   4.809389   2.969506   4.181862   6.163630
    29  H    5.937020   5.695131   3.779883   4.889099   6.918888
    30  H    4.646873   4.337077   2.672217   3.779763   5.626434
    31  O    3.148565   3.494808   5.113017   4.316267   2.550302
    32  H    4.067290   4.403253   5.962416   5.165115   3.440622
    33  H    2.753218   3.365163   4.594266   3.708001   2.184717
                    6          7          8          9         10
     6  H    0.000000
     7  H    4.293905   0.000000
     8  C    4.677589   2.850911   0.000000
     9  H    5.323787   2.795903   1.114540   0.000000
    10  H    4.922220   3.895757   1.112877   1.777638   0.000000
    11  H    5.240880   3.095309   1.103135   1.806298   1.803607
    12  N    2.182646   2.199794   3.612503   4.013990   4.310173
    13  C    2.860609   2.873700   4.965835   5.234596   5.738278
    14  H    2.908977   3.646869   5.563933   5.992185   6.302639
    15  H    3.918971   2.526188   5.097781   5.209809   6.012541
    16  C    3.150656   3.935047   5.881294   6.019060   6.528367
    17  H    3.877743   4.801543   6.907876   7.063525   7.583358
    18  H    2.509824   4.481569   5.939092   6.178226   6.416217
    19  C    4.212957   3.918575   5.941704   5.796883   6.606471
    20  H    4.886472   5.013778   6.930929   6.751173   7.524093
    21  H    4.982104   3.733423   6.117258   5.866597   6.912795
    22  C    4.012957   3.515345   4.944728   4.699722   5.479788
    23  O    4.445599   2.659447   4.106833   3.682065   4.756811
    24  O    3.988330   4.469151   5.324345   5.144911   5.626387
    25  O    2.401891   5.613571   5.935219   6.284968   5.987622
    26  H    2.812415   5.190634   5.674016   5.860189   5.797107
    27  H    2.443957   5.696911   5.544418   5.962058   5.435988
    28  O    5.600549   2.091773   4.763793   4.367378   5.779813
    29  H    6.503541   2.826911   5.272476   4.709750   6.278108
    30  H    5.112810   2.033721   4.428486   3.988537   5.345744
    31  O    3.330451   6.121553   5.026136   5.564888   4.554235
    32  H    4.185262   6.935735   5.774595   6.226083   5.217732
    33  H    3.498447   5.538427   4.265706   4.711168   3.762877
                   11         12         13         14         15
    11  H    0.000000
    12  N    4.073875   0.000000
    13  C    5.343366   1.463724   0.000000
    14  H    5.803875   2.100086   1.116115   0.000000
    15  H    5.362257   2.116557   1.121249   1.797976   0.000000
    16  C    6.460508   2.493281   1.537170   2.188070   2.188599
    17  H    7.415875   3.408208   2.163269   2.384922   2.625488
    18  H    6.609415   2.675353   2.195160   2.639446   3.113580
    19  C    6.628540   3.198330   2.554950   3.493663   2.699040
    20  H    7.672359   4.210771   3.505240   4.310872   3.697177
    21  H    6.690453   3.559294   2.769561   3.705019   2.443656
    22  C    5.789187   3.034791   3.119841   4.176142   3.364164
    23  O    4.906207   2.985616   3.348958   4.455070   3.313545
    24  O    6.285736   3.660281   3.922107   4.863894   4.403404
    25  O    6.788808   3.770035   4.138097   4.514944   5.139484
    26  H    6.590047   3.600390   3.942733   4.538910   4.818479
    27  H    6.420486   3.950205   4.615142   4.991184   5.607949
    28  O    5.031853   3.490066   3.299119   4.184561   2.428594
    29  H    5.516134   4.407121   4.225523   5.108379   3.329691
    30  H    4.906671   3.139082   3.122595   4.156755   2.535617
    31  O    5.886207   4.719942   5.783977   6.147977   6.700398
    32  H    6.675191   5.584422   6.591996   6.988428   7.506689
    33  H    5.197393   4.436954   5.616138   6.116996   6.421887
                   16         17         18         19         20
    16  C    0.000000
    17  H    1.109659   0.000000
    18  H    1.113867   1.762790   0.000000
    19  C    1.526062   2.165127   2.172704   0.000000
    20  H    2.174967   2.434691   2.555629   1.109257   0.000000
    21  H    2.188634   2.586827   3.104897   1.106508   1.773593
    22  C    2.496554   3.451065   2.685652   1.525485   2.151396
    23  O    3.267173   4.252262   3.631998   2.377845   3.188805
    24  O    3.094782   4.007329   2.824625   2.378543   2.577931
    25  O    3.447978   4.128793   2.399784   3.984478   4.164083
    26  H    3.124106   3.918445   2.231977   3.310722   3.467876
    27  H    4.167976   4.943281   3.185861   4.659575   4.943164
    28  O    3.904180   4.510947   4.795874   3.359028   4.302877
    29  H    4.707473   5.265228   5.608470   3.955788   4.776696
    30  H    3.474368   4.240733   4.238754   2.730017   3.675879
    31  O    5.706095   6.591054   4.855438   6.121596   6.555910
    32  H    6.364723   7.224397   5.464146   6.672138   6.987813
    33  H    5.622522   6.602269   4.906324   5.858858   6.369976
                   21         22         23         24         25
    21  H    0.000000
    22  C    2.174900   0.000000
    23  O    2.524395   1.258869   0.000000
    24  O    3.257082   1.240523   2.214512   0.000000
    25  O    5.048606   3.591983   4.490655   2.878688   0.000000
    26  H    4.379623   2.746371   3.703836   1.924292   0.966391
    27  H    5.681752   4.016459   4.725685   3.251685   0.962676
    28  O    2.621437   3.433529   2.651283   4.649525   6.449575
    29  H    3.107234   3.971513   3.105755   5.166399   7.219676
    30  H    2.205909   2.512326   1.664737   3.705240   5.692094
    31  O    7.037934   5.176083   5.518775   4.452896   2.859633
    32  H    7.629271   5.676866   6.081865   4.796254   3.258570
    33  H    6.696785   4.743963   4.909151   4.090738   3.181716
                   26         27         28         29         30
    26  H    0.000000
    27  H    1.530556   0.000000
    28  O    5.841178   6.781531   0.000000
    29  H    6.545326   7.545625   0.948180   0.000000
    30  H    5.014264   6.007054   0.995063   1.544835   0.000000
    31  O    3.218527   1.900574   7.589196   8.314775   6.828926
    32  H    3.582217   2.331340   8.312844   8.997294   7.499787
    33  H    3.270709   2.307079   7.025665   7.694867   6.246373
                   31         32         33
    31  O    0.000000
    32  H    0.956747   0.000000
    33  H    0.972821   1.521672   0.000000
 Symmetry turned off by external request.
 Stoichiometry    C8H18N2O5
 Framework group  C1[X(C8H18N2O5)]
 Deg. of freedom    93
 Full point group                 C1      NOp   1
 Rotational constants (GHZ):           0.5968820           0.4827763           0.3572548
 Leave Link  202 at Mon Feb 20 08:34:45 2023, MaxMem=  6710886400 cpu:               0.1 elap:               0.0
 (Enter /data0/home/software/g16/l122.exe)
 Counterpoise: doing full-system calculation.
 Leave Link  122 at Mon Feb 20 08:34:45 2023, MaxMem=  6710886400 cpu:               0.1 elap:               0.0
 (Enter /data0/home/software/g16/l301.exe)
 Standard basis: 6-311+G(2d,p) (5D, 7F)
 Ernie: Thresh=  0.10000D-02 Tol=  0.10000D-05 Strict=F.
   513 basis functions,   774 primitive gaussians,   543 cartesian basis functions
    60 alpha electrons       60 beta electrons
       nuclear repulsion energy      1145.8063531063 Hartrees.
 IExCor= 4336 DFT=T Ex+Corr=M062X ExCW=0 ScaHFX=  0.540000
 ScaDFX=  1.000000  1.000000  1.000000  1.000000 ScalE2=  1.000000  1.000000
 IRadAn=      5 IRanWt=     -1 IRanGd=            0 ICorTp=0 IEmpDi=131
 NAtoms=   33 NActive=   33 NUniq=   33 SFac= 1.00D+00 NAtFMM=   60 NAOKFM=F Big=F
 Integral buffers will be    131072 words long.
 Raffenetti 2 integral format.
 Two-electron integral symmetry is turned off.
 R6Disp:  Grimme-D3 Dispersion energy=       -0.0021855588 Hartrees.
 Nuclear repulsion after empirical dispersion term =     1145.8041675474 Hartrees.
 Leave Link  301 at Mon Feb 20 08:34:46 2023, MaxMem=  6710886400 cpu:               1.2 elap:               0.1
 (Enter /data0/home/software/g16/l302.exe)
 NPDir=0 NMtPBC=     1 NCelOv=     1 NCel=       1 NClECP=     1 NCelD=      1
         NCelK=      1 NCelE2=     1 NClLst=     1 CellRange=     0.0.
 One-electron integrals computed using PRISM.
 NBasis=   513 RedAO= T EigKep=  8.56D-06  NBF=   513
 NBsUse=   513 1.00D-06 EigRej= -1.00D+00 NBFU=   513
 Precomputing XC quadrature grid using
 IXCGrd= 4 IRadAn=           5 IRanWt=          -1 IRanGd=           0 AccXCQ= 0.00D+00.
 Generated NRdTot=       0 NPtTot=           0 NUsed=           0 NTot=          32
 NSgBfM=   541   537   537   541   541 MxSgAt=    33 MxSgA2=    33.
 Leave Link  302 at Mon Feb 20 08:34:46 2023, MaxMem=  6710886400 cpu:              12.3 elap:               0.5
 (Enter /data0/home/software/g16/l303.exe)
 DipDrv:  MaxL=1.
 Leave Link  303 at Mon Feb 20 08:34:46 2023, MaxMem=  6710886400 cpu:               1.1 elap:               0.1
 (Enter /data0/home/software/g16/l401.exe)
 ExpMin= 4.38D-02 ExpMax= 8.59D+03 ExpMxC= 1.30D+03 IAcc=3 IRadAn=         5 AccDes= 0.00D+00
 Harris functional with IExCor= 1009 and IRadAn=       5 diagonalized for initial guess.
 HarFok:  IExCor= 1009 AccDes= 0.00D+00 IRadAn=         5 IDoV= 1 UseB2=F ITyADJ=14
 ICtDFT=  3500011 ScaDFX=  1.000000  1.000000  1.000000  1.000000
 FoFCou: FMM=F IPFlag=           0 FMFlag=      100000 FMFlg1=           0
         NFxFlg=           0 DoJE=T BraDBF=F KetDBF=T FulRan=T
         wScrn=  0.000000 ICntrl=       500 IOpCl=  0 I1Cent=   200000004 NGrid=           0
         NMat0=    1 NMatS0=      1 NMatT0=    0 NMatD0=    1 NMtDS0=    0 NMtDT0=    0
 Symmetry not used in FoFCou.
 Harris En= -800.940496812178    
 JPrj=0 DoOrth=F DoCkMO=F.
 Leave Link  401 at Mon Feb 20 08:34:48 2023, MaxMem=  6710886400 cpu:              42.9 elap:               1.8
 (Enter /data0/home/software/g16/l502.exe)
 Two-electron integral symmetry not used.
 Closed shell SCF:
 Using DIIS extrapolation, IDIIS=  1040.
 NGot=  6710886400 LenX=  6710279760 LenY=  6709984368
 Requested convergence on RMS density matrix=1.00D-08 within 128 cycles.
 Requested convergence on MAX density matrix=1.00D-06.
 Requested convergence on             energy=1.00D-06.
 No special actions if energy rises.
 Fock matrices will be formed incrementally for  20 cycles.

 Cycle   1  Pass 1  IDiag  1:
 FoFJK:  IHMeth= 1 ICntrl=       0 DoSepK=F KAlg= 0 I1Cent=           0 FoldK=F
 IRaf= 880000000 NMat=       1 IRICut=       1 DoRegI=T DoRafI=F ISym2E= 0 IDoP0=0 IntGTp=1.
 FoFCou: FMM=F IPFlag=           0 FMFlag=      100000 FMFlg1=           0
         NFxFlg=           0 DoJE=F BraDBF=F KetDBF=F FulRan=T
         wScrn=  0.000000 ICntrl=         0 IOpCl=  0 I1Cent=           0 NGrid=           0
         NMat0=    1 NMatS0=      1 NMatT0=    0 NMatD0=    1 NMtDS0=    0 NMtDT0=    0
 Symmetry not used in FoFCou.
 E= -800.744722208664    
 DIIS: error= 1.93D-02 at cycle   1 NSaved=   1.
 NSaved= 1 IEnMin= 1 EnMin= -800.744722208664     IErMin= 1 ErrMin= 1.93D-02
 ErrMax= 1.93D-02  0.00D+00 EMaxC= 1.00D-01 BMatC= 7.73D-01 BMatP= 7.73D-01
 IDIUse=3 WtCom= 8.07D-01 WtEn= 1.93D-01
 Coeff-Com:  0.100D+01
 Coeff-En:   0.100D+01
 Coeff:      0.100D+01
 Gap=     0.354 Goal=   None    Shift=    0.000
 GapD=    0.354 DampG=1.000 DampE=0.500 DampFc=0.5000 IDamp=-1.
 Damping current iteration by 5.00D-01
 RMSDP=9.97D-03 MaxDP=1.95D+00              OVMax= 1.86D-01

 Cycle   2  Pass 1  IDiag  1:
 RMSU=  4.80D-03    CP:  1.12D+00
 E= -800.979526002931     Delta-E=       -0.234803794267 Rises=F Damp=T
 DIIS: error= 5.53D-03 at cycle   2 NSaved=   2.
 NSaved= 2 IEnMin= 2 EnMin= -800.979526002931     IErMin= 2 ErrMin= 5.53D-03
 ErrMax= 5.53D-03  0.00D+00 EMaxC= 1.00D-01 BMatC= 4.87D-02 BMatP= 7.73D-01
 IDIUse=3 WtCom= 9.45D-01 WtEn= 5.53D-02
 Coeff-Com:  0.315D-02 0.997D+00
 Coeff-En:   0.456D-01 0.954D+00
 Coeff:      0.550D-02 0.994D+00
 Gap=     0.266 Goal=   None    Shift=    0.000
 RMSDP=3.84D-03 MaxDP=6.35D-01 DE=-2.35D-01 OVMax= 1.11D-01

 Cycle   3  Pass 1  IDiag  1:
 RMSU=  2.45D-03    CP:  9.33D-01  5.70D-01
 E= -801.245273737138     Delta-E=       -0.265747734207 Rises=F Damp=F
 DIIS: error= 2.25D-03 at cycle   3 NSaved=   3.
 NSaved= 3 IEnMin= 3 EnMin= -801.245273737138     IErMin= 3 ErrMin= 2.25D-03
 ErrMax= 2.25D-03  0.00D+00 EMaxC= 1.00D-01 BMatC= 1.12D-02 BMatP= 4.87D-02
 IDIUse=3 WtCom= 9.77D-01 WtEn= 2.25D-02
 Coeff-Com: -0.617D-01 0.280D+00 0.782D+00
 Coeff-En:   0.000D+00 0.000D+00 0.100D+01
 Coeff:     -0.603D-01 0.274D+00 0.787D+00
 Gap=     0.264 Goal=   None    Shift=    0.000
 RMSDP=4.29D-04 MaxDP=4.39D-02 DE=-2.66D-01 OVMax= 2.11D-02

 Cycle   4  Pass 1  IDiag  1:
 RMSU=  3.58D-04    CP:  9.41D-01  6.16D-01  9.97D-01
 E= -801.251558579589     Delta-E=       -0.006284842451 Rises=F Damp=F
 DIIS: error= 1.22D-03 at cycle   4 NSaved=   4.
 NSaved= 4 IEnMin= 4 EnMin= -801.251558579589     IErMin= 4 ErrMin= 1.22D-03
 ErrMax= 1.22D-03  0.00D+00 EMaxC= 1.00D-01 BMatC= 2.43D-03 BMatP= 1.12D-02
 IDIUse=3 WtCom= 9.88D-01 WtEn= 1.22D-02
 Coeff-Com: -0.293D-01 0.750D-01 0.387D+00 0.567D+00
 Coeff-En:   0.000D+00 0.000D+00 0.135D+00 0.865D+00
 Coeff:     -0.289D-01 0.741D-01 0.384D+00 0.571D+00
 Gap=     0.259 Goal=   None    Shift=    0.000
 RMSDP=1.55D-04 MaxDP=1.64D-02 DE=-6.28D-03 OVMax= 1.11D-02

 Cycle   5  Pass 1  IDiag  1:
 RMSU=  1.30D-04    CP:  9.39D-01  6.05D-01  1.00D+00  8.30D-01
 E= -801.253512598879     Delta-E=       -0.001954019290 Rises=F Damp=F
 DIIS: error= 4.36D-04 at cycle   5 NSaved=   5.
 NSaved= 5 IEnMin= 5 EnMin= -801.253512598879     IErMin= 5 ErrMin= 4.36D-04
 ErrMax= 4.36D-04  0.00D+00 EMaxC= 1.00D-01 BMatC= 1.97D-04 BMatP= 2.43D-03
 IDIUse=3 WtCom= 9.96D-01 WtEn= 4.36D-03
 Coeff-Com: -0.110D-01 0.213D-01 0.148D+00 0.294D+00 0.548D+00
 Coeff-En:   0.000D+00 0.000D+00 0.000D+00 0.000D+00 0.100D+01
 Coeff:     -0.110D-01 0.212D-01 0.147D+00 0.293D+00 0.550D+00
 Gap=     0.256 Goal=   None    Shift=    0.000
 RMSDP=5.71D-05 MaxDP=6.13D-03 DE=-1.95D-03 OVMax= 3.96D-03

 Cycle   6  Pass 1  IDiag  1:
 RMSU=  4.96D-05    CP:  9.38D-01  6.00D-01  1.01D+00  8.72D-01  9.26D-01
 E= -801.253650674284     Delta-E=       -0.000138075405 Rises=F Damp=F
 DIIS: error= 1.09D-04 at cycle   6 NSaved=   6.
 NSaved= 6 IEnMin= 6 EnMin= -801.253650674284     IErMin= 6 ErrMin= 1.09D-04
 ErrMax= 1.09D-04  0.00D+00 EMaxC= 1.00D-01 BMatC= 1.56D-05 BMatP= 1.97D-04
 IDIUse=3 WtCom= 9.99D-01 WtEn= 1.09D-03
 Coeff-Com: -0.201D-02 0.219D-02 0.273D-01 0.757D-01 0.259D+00 0.638D+00
 Coeff-En:   0.000D+00 0.000D+00 0.000D+00 0.000D+00 0.000D+00 0.100D+01
 Coeff:     -0.201D-02 0.218D-02 0.272D-01 0.756D-01 0.258D+00 0.639D+00
 Gap=     0.257 Goal=   None    Shift=    0.000
 RMSDP=2.18D-05 MaxDP=3.23D-03 DE=-1.38D-04 OVMax= 1.00D-03

 Cycle   7  Pass 1  IDiag  1:
 RMSU=  1.71D-05    CP:  9.39D-01  6.00D-01  1.01D+00  8.94D-01  9.85D-01
                    CP:  1.09D+00
 E= -801.253662621171     Delta-E=       -0.000011946887 Rises=F Damp=F
 DIIS: error= 3.18D-05 at cycle   7 NSaved=   7.
 NSaved= 7 IEnMin= 7 EnMin= -801.253662621171     IErMin= 7 ErrMin= 3.18D-05
 ErrMax= 3.18D-05  0.00D+00 EMaxC= 1.00D-01 BMatC= 1.51D-06 BMatP= 1.56D-05
 IDIUse=1 WtCom= 1.00D+00 WtEn= 0.00D+00
 Coeff-Com:  0.817D-03-0.227D-02-0.979D-02-0.107D-01 0.323D-01 0.256D+00
 Coeff-Com:  0.734D+00
 Coeff:      0.817D-03-0.227D-02-0.979D-02-0.107D-01 0.323D-01 0.256D+00
 Coeff:      0.734D+00
 Gap=     0.257 Goal=   None    Shift=    0.000
 RMSDP=8.15D-06 MaxDP=1.20D-03 DE=-1.19D-05 OVMax= 3.42D-04

 Cycle   8  Pass 1  IDiag  1:
 RMSU=  4.71D-06    CP:  9.39D-01  5.99D-01  1.01D+00  8.98D-01  1.01D+00
                    CP:  1.12D+00  9.27D-01
 E= -801.253663986704     Delta-E=       -0.000001365533 Rises=F Damp=F
 DIIS: error= 1.25D-05 at cycle   8 NSaved=   8.
 NSaved= 8 IEnMin= 8 EnMin= -801.253663986704     IErMin= 8 ErrMin= 1.25D-05
 ErrMax= 1.25D-05  0.00D+00 EMaxC= 1.00D-01 BMatC= 2.18D-07 BMatP= 1.51D-06
 IDIUse=1 WtCom= 1.00D+00 WtEn= 0.00D+00
 Coeff-Com:  0.583D-03-0.119D-02-0.722D-02-0.139D-01-0.163D-01 0.297D-01
 Coeff-Com:  0.319D+00 0.690D+00
 Coeff:      0.583D-03-0.119D-02-0.722D-02-0.139D-01-0.163D-01 0.297D-01
 Coeff:      0.319D+00 0.690D+00
 Gap=     0.257 Goal=   None    Shift=    0.000
 RMSDP=3.85D-06 MaxDP=7.09D-04 DE=-1.37D-06 OVMax= 1.30D-04

 Cycle   9  Pass 1  IDiag  1:
 RMSU=  1.82D-06    CP:  9.39D-01  5.99D-01  1.01D+00  8.99D-01  1.02D+00
                    CP:  1.14D+00  9.55D-01  1.04D+00
 E= -801.253664177895     Delta-E=       -0.000000191191 Rises=F Damp=F
 DIIS: error= 3.62D-06 at cycle   9 NSaved=   9.
 NSaved= 9 IEnMin= 9 EnMin= -801.253664177895     IErMin= 9 ErrMin= 3.62D-06
 ErrMax= 3.62D-06  0.00D+00 EMaxC= 1.00D-01 BMatC= 2.01D-08 BMatP= 2.18D-07
 IDIUse=1 WtCom= 1.00D+00 WtEn= 0.00D+00
 Coeff-Com:  0.136D-03-0.239D-03-0.177D-02-0.427D-02-0.837D-02-0.120D-01
 Coeff-Com:  0.550D-01 0.275D+00 0.697D+00
 Coeff:      0.136D-03-0.239D-03-0.177D-02-0.427D-02-0.837D-02-0.120D-01
 Coeff:      0.550D-01 0.275D+00 0.697D+00
 Gap=     0.257 Goal=   None    Shift=    0.000
 RMSDP=7.51D-07 MaxDP=9.26D-05 DE=-1.91D-07 OVMax= 4.00D-05

 Cycle  10  Pass 1  IDiag  1:
 RMSU=  6.46D-07    CP:  9.39D-01  5.99D-01  1.01D+00  8.99D-01  1.02D+00
                    CP:  1.13D+00  9.62D-01  1.08D+00  1.01D+00
 E= -801.253664196546     Delta-E=       -0.000000018651 Rises=F Damp=F
 DIIS: error= 9.87D-07 at cycle  10 NSaved=  10.
 NSaved=10 IEnMin=10 EnMin= -801.253664196546     IErMin=10 ErrMin= 9.87D-07
 ErrMax= 9.87D-07  0.00D+00 EMaxC= 1.00D-01 BMatC= 1.55D-09 BMatP= 2.01D-08
 IDIUse=1 WtCom= 1.00D+00 WtEn= 0.00D+00
 Coeff-Com: -0.311D-04 0.691D-04 0.320D-03 0.306D-03-0.303D-03-0.753D-02
 Coeff-Com: -0.239D-01-0.323D-02 0.195D+00 0.839D+00
 Coeff:     -0.311D-04 0.691D-04 0.320D-03 0.306D-03-0.303D-03-0.753D-02
 Coeff:     -0.239D-01-0.323D-02 0.195D+00 0.839D+00
 Gap=     0.257 Goal=   None    Shift=    0.000
 RMSDP=4.15D-07 MaxDP=8.61D-05 DE=-1.87D-08 OVMax= 2.42D-05

 Cycle  11  Pass 1  IDiag  1:
 RMSU=  1.51D-07    CP:  9.39D-01  5.99D-01  1.01D+00  8.99D-01  1.02D+00
                    CP:  1.13D+00  9.58D-01  1.11D+00  1.12D+00  1.14D+00
 E= -801.253664198795     Delta-E=       -0.000000002248 Rises=F Damp=F
 DIIS: error= 5.39D-07 at cycle  11 NSaved=  11.
 NSaved=11 IEnMin=11 EnMin= -801.253664198795     IErMin=11 ErrMin= 5.39D-07
 ErrMax= 5.39D-07  0.00D+00 EMaxC= 1.00D-01 BMatC= 3.58D-10 BMatP= 1.55D-09
 IDIUse=1 WtCom= 1.00D+00 WtEn= 0.00D+00
 Coeff-Com: -0.265D-04 0.539D-04 0.303D-03 0.508D-03 0.661D-03-0.247D-02
 Coeff-Com: -0.162D-01-0.271D-01 0.193D-01 0.383D+00 0.643D+00
 Coeff:     -0.265D-04 0.539D-04 0.303D-03 0.508D-03 0.661D-03-0.247D-02
 Coeff:     -0.162D-01-0.271D-01 0.193D-01 0.383D+00 0.643D+00
 Gap=     0.257 Goal=   None    Shift=    0.000
 RMSDP=9.90D-08 MaxDP=1.51D-05 DE=-2.25D-09 OVMax= 5.42D-06

 Cycle  12  Pass 1  IDiag  1:
 RMSU=  5.47D-08    CP:  9.39D-01  5.99D-01  1.01D+00  8.99D-01  1.02D+00
                    CP:  1.13D+00  9.58D-01  1.12D+00  1.14D+00  1.20D+00
                    CP:  1.02D+00
 E= -801.253664199146     Delta-E=       -0.000000000352 Rises=F Damp=F
 DIIS: error= 2.73D-07 at cycle  12 NSaved=  12.
 NSaved=12 IEnMin=12 EnMin= -801.253664199146     IErMin=12 ErrMin= 2.73D-07
 ErrMax= 2.73D-07  0.00D+00 EMaxC= 1.00D-01 BMatC= 6.57D-11 BMatP= 3.58D-10
 IDIUse=1 WtCom= 1.00D+00 WtEn= 0.00D+00
 Coeff-Com: -0.808D-05 0.159D-04 0.104D-03 0.207D-03 0.421D-03-0.365D-04
 Coeff-Com: -0.417D-02-0.124D-01-0.209D-01 0.598D-01 0.324D+00 0.653D+00
 Coeff:     -0.808D-05 0.159D-04 0.104D-03 0.207D-03 0.421D-03-0.365D-04
 Coeff:     -0.417D-02-0.124D-01-0.209D-01 0.598D-01 0.324D+00 0.653D+00
 Gap=     0.257 Goal=   None    Shift=    0.000
 RMSDP=4.29D-08 MaxDP=6.69D-06 DE=-3.52D-10 OVMax= 3.28D-06

 Cycle  13  Pass 1  IDiag  1:
 RMSU=  2.54D-08    CP:  9.39D-01  5.99D-01  1.01D+00  8.99D-01  1.02D+00
                    CP:  1.13D+00  9.57D-01  1.12D+00  1.14D+00  1.22D+00
                    CP:  1.06D+00  9.69D-01
 E= -801.253664199167     Delta-E=       -0.000000000020 Rises=F Damp=F
 DIIS: error= 7.32D-08 at cycle  13 NSaved=  13.
 NSaved=13 IEnMin=13 EnMin= -801.253664199167     IErMin=13 ErrMin= 7.32D-08
 ErrMax= 7.32D-08  0.00D+00 EMaxC= 1.00D-01 BMatC= 6.91D-12 BMatP= 6.57D-11
 IDIUse=1 WtCom= 1.00D+00 WtEn= 0.00D+00
 Coeff-Com:  0.136D-05-0.277D-05-0.687D-05-0.284D-05 0.538D-04 0.311D-03
 Coeff-Com:  0.852D-03-0.496D-03-0.113D-01-0.400D-01 0.201D-01 0.255D+00
 Coeff-Com:  0.775D+00
 Coeff:      0.136D-05-0.277D-05-0.687D-05-0.284D-05 0.538D-04 0.311D-03
 Coeff:      0.852D-03-0.496D-03-0.113D-01-0.400D-01 0.201D-01 0.255D+00
 Coeff:      0.775D+00
 Gap=     0.257 Goal=   None    Shift=    0.000
 RMSDP=1.53D-08 MaxDP=1.73D-06 DE=-2.00D-11 OVMax= 1.39D-06

 Cycle  14  Pass 1  IDiag  1:
 RMSU=  1.04D-08    CP:  9.39D-01  5.99D-01  1.01D+00  8.99D-01  1.02D+00
                    CP:  1.13D+00  9.57D-01  1.12D+00  1.14D+00  1.23D+00
                    CP:  1.09D+00  1.07D+00  1.14D+00
 E= -801.253664199170     Delta-E=       -0.000000000004 Rises=F Damp=F
 DIIS: error= 2.49D-08 at cycle  14 NSaved=  14.
 NSaved=14 IEnMin=14 EnMin= -801.253664199170     IErMin=14 ErrMin= 2.49D-08
 ErrMax= 2.49D-08  0.00D+00 EMaxC= 1.00D-01 BMatC= 9.95D-13 BMatP= 6.91D-12
 IDIUse=1 WtCom= 1.00D+00 WtEn= 0.00D+00
 Coeff-Com:  0.166D-05-0.328D-05-0.155D-04-0.258D-04-0.233D-04 0.148D-03
 Coeff-Com:  0.913D-03 0.124D-02-0.256D-02-0.251D-01-0.315D-01 0.231D-01
 Coeff-Com:  0.328D+00 0.706D+00
 Coeff:      0.166D-05-0.328D-05-0.155D-04-0.258D-04-0.233D-04 0.148D-03
 Coeff:      0.913D-03 0.124D-02-0.256D-02-0.251D-01-0.315D-01 0.231D-01
 Coeff:      0.328D+00 0.706D+00
 Gap=     0.257 Goal=   None    Shift=    0.000
 RMSDP=5.94D-09 MaxDP=8.61D-07 DE=-3.64D-12 OVMax= 4.22D-07

 SCF Done:  E(RM062X) =  -801.253664199     A.U. after   14 cycles
            NFock= 14  Conv=0.59D-08     -V/T= 2.0042
 KE= 7.978908527763D+02 PE=-4.168673893986D+03 EE= 1.423725209463D+03
 Leave Link  502 at Mon Feb 20 08:36:29 2023, MaxMem=  6710886400 cpu:            2423.7 elap:             101.3
 (Enter /data0/home/software/g16/l601.exe)
 Copying SCF densities to generalized density rwf, IOpCl= 0 IROHF=0.

 **********************************************************************

            Population analysis using the SCF density.

 **********************************************************************

 Alpha  occ. eigenvalues --  -19.65817 -19.59081 -19.56667 -19.53652 -19.52779
 Alpha  occ. eigenvalues --  -14.87091 -14.86172 -10.66822 -10.62898 -10.62292
 Alpha  occ. eigenvalues --  -10.61923 -10.60423 -10.59319 -10.54092 -10.51033
 Alpha  occ. eigenvalues --   -1.19464  -1.16843  -1.12746  -1.10284  -1.08334
 Alpha  occ. eigenvalues --   -1.08055  -1.02673  -0.92318  -0.89095  -0.85743
 Alpha  occ. eigenvalues --   -0.80051  -0.74366  -0.71939  -0.69167  -0.65113
 Alpha  occ. eigenvalues --   -0.63975  -0.60173  -0.59835  -0.57936  -0.56907
 Alpha  occ. eigenvalues --   -0.56516  -0.56399  -0.55346  -0.54101  -0.53205
 Alpha  occ. eigenvalues --   -0.51080  -0.50681  -0.50138  -0.49326  -0.48138
 Alpha  occ. eigenvalues --   -0.46585  -0.45178  -0.44568  -0.44234  -0.42470
 Alpha  occ. eigenvalues --   -0.41454  -0.40672  -0.39671  -0.37184  -0.36928
 Alpha  occ. eigenvalues --   -0.35389  -0.32986  -0.28796  -0.28712  -0.27684
 Alpha virt. eigenvalues --   -0.02009  -0.01207   0.00199   0.01457   0.02020
 Alpha virt. eigenvalues --    0.02839   0.03347   0.03930   0.04499   0.05004
 Alpha virt. eigenvalues --    0.05465   0.05498   0.07020   0.07196   0.07568
 Alpha virt. eigenvalues --    0.08619   0.09025   0.10274   0.10388   0.10745
 Alpha virt. eigenvalues --    0.11210   0.11329   0.12131   0.12536   0.12791
 Alpha virt. eigenvalues --    0.13290   0.13936   0.14284   0.14497   0.15541
 Alpha virt. eigenvalues --    0.15776   0.16361   0.16568   0.17249   0.17510
 Alpha virt. eigenvalues --    0.17767   0.18176   0.18308   0.18741   0.19265
 Alpha virt. eigenvalues --    0.19385   0.19933   0.20624   0.20705   0.21262
 Alpha virt. eigenvalues --    0.21586   0.22473   0.22796   0.23182   0.23682
 Alpha virt. eigenvalues --    0.24566   0.24871   0.25148   0.25807   0.26296
 Alpha virt. eigenvalues --    0.26626   0.27013   0.27492   0.27943   0.28473
 Alpha virt. eigenvalues --    0.29072   0.29211   0.29652   0.30757   0.31080
 Alpha virt. eigenvalues --    0.31748   0.32492   0.33057   0.33147   0.33664
 Alpha virt. eigenvalues --    0.34396   0.35048   0.35354   0.36380   0.36846
 Alpha virt. eigenvalues --    0.37143   0.38160   0.38383   0.39267   0.40141
 Alpha virt. eigenvalues --    0.41417   0.42050   0.42125   0.42479   0.42686
 Alpha virt. eigenvalues --    0.42963   0.44448   0.45223   0.46364   0.47200
 Alpha virt. eigenvalues --    0.47910   0.48398   0.49255   0.50322   0.51959
 Alpha virt. eigenvalues --    0.52981   0.53235   0.54171   0.55411   0.55963
 Alpha virt. eigenvalues --    0.56255   0.57856   0.58189   0.59229   0.59641
 Alpha virt. eigenvalues --    0.60320   0.60624   0.61196   0.61725   0.62859
 Alpha virt. eigenvalues --    0.63248   0.63519   0.64298   0.65054   0.65454
 Alpha virt. eigenvalues --    0.66563   0.67022   0.67652   0.67969   0.68356
 Alpha virt. eigenvalues --    0.69514   0.69998   0.71742   0.72115   0.72825
 Alpha virt. eigenvalues --    0.73022   0.73743   0.74776   0.75887   0.77200
 Alpha virt. eigenvalues --    0.77838   0.78661   0.79238   0.80497   0.81143
 Alpha virt. eigenvalues --    0.81731   0.82539   0.83742   0.84148   0.85686
 Alpha virt. eigenvalues --    0.87245   0.88283   0.89282   0.89974   0.91624
 Alpha virt. eigenvalues --    0.92039   0.92974   0.94194   0.95647   0.97490
 Alpha virt. eigenvalues --    0.98747   1.01286   1.01486   1.02875   1.03961
 Alpha virt. eigenvalues --    1.04537   1.05209   1.07089   1.07528   1.09241
 Alpha virt. eigenvalues --    1.10415   1.11374   1.13568   1.13728   1.15396
 Alpha virt. eigenvalues --    1.15555   1.16332   1.17999   1.18524   1.18667
 Alpha virt. eigenvalues --    1.20248   1.20377   1.21356   1.22914   1.23236
 Alpha virt. eigenvalues --    1.23518   1.24165   1.24820   1.25089   1.25393
 Alpha virt. eigenvalues --    1.26050   1.26922   1.27933   1.28567   1.29217
 Alpha virt. eigenvalues --    1.29926   1.30770   1.32085   1.32640   1.33943
 Alpha virt. eigenvalues --    1.35848   1.36280   1.36832   1.37962   1.39178
 Alpha virt. eigenvalues --    1.39423   1.39901   1.40769   1.41444   1.42200
 Alpha virt. eigenvalues --    1.42722   1.43485   1.44341   1.44808   1.45819
 Alpha virt. eigenvalues --    1.46504   1.46935   1.47468   1.48367   1.49763
 Alpha virt. eigenvalues --    1.51080   1.51455   1.52622   1.53418   1.54415
 Alpha virt. eigenvalues --    1.55826   1.57974   1.59462   1.61900   1.63743
 Alpha virt. eigenvalues --    1.65822   1.67115   1.67606   1.70516   1.71805
 Alpha virt. eigenvalues --    1.72799   1.73174   1.75361   1.76419   1.77314
 Alpha virt. eigenvalues --    1.78321   1.79581   1.80040   1.80252   1.82686
 Alpha virt. eigenvalues --    1.83463   1.84225   1.84858   1.86074   1.87647
 Alpha virt. eigenvalues --    1.88700   1.89721   1.90143   1.92000   1.93488
 Alpha virt. eigenvalues --    1.96411   2.00795   2.02219   2.03289   2.03387
 Alpha virt. eigenvalues --    2.04103   2.04350   2.05213   2.07703   2.09639
 Alpha virt. eigenvalues --    2.10058   2.12506   2.13735   2.15499   2.17697
 Alpha virt. eigenvalues --    2.18727   2.19849   2.20829   2.21471   2.23179
 Alpha virt. eigenvalues --    2.24186   2.24948   2.25775   2.27414   2.30065
 Alpha virt. eigenvalues --    2.31556   2.32681   2.33289   2.33759   2.36229
 Alpha virt. eigenvalues --    2.36349   2.37914   2.39546   2.40448   2.41546
 Alpha virt. eigenvalues --    2.42966   2.44259   2.48491   2.49307   2.50636
 Alpha virt. eigenvalues --    2.53876   2.54042   2.55727   2.57597   2.59684
 Alpha virt. eigenvalues --    2.61240   2.64778   2.66025   2.68235   2.70406
 Alpha virt. eigenvalues --    2.70877   2.71313   2.72304   2.73147   2.75159
 Alpha virt. eigenvalues --    2.80077   2.81275   2.83476   2.85357   2.85808
 Alpha virt. eigenvalues --    2.89011   2.89956   2.91268   2.93110   2.94036
 Alpha virt. eigenvalues --    2.97035   2.97535   2.99556   3.00176   3.01221
 Alpha virt. eigenvalues --    3.03271   3.05376   3.05732   3.07025   3.10759
 Alpha virt. eigenvalues --    3.15056   3.16245   3.18801   3.20306   3.22345
 Alpha virt. eigenvalues --    3.23770   3.24806   3.27765   3.28727   3.30171
 Alpha virt. eigenvalues --    3.30980   3.33650   3.33872   3.37988   3.39923
 Alpha virt. eigenvalues --    3.40514   3.42726   3.44583   3.45147   3.46344
 Alpha virt. eigenvalues --    3.46662   3.48964   3.51628   3.53563   3.54243
 Alpha virt. eigenvalues --    3.54960   3.56259   3.58322   3.58644   3.60119
 Alpha virt. eigenvalues --    3.61349   3.62996   3.64066   3.66188   3.66942
 Alpha virt. eigenvalues --    3.68200   3.68903   3.70694   3.72717   3.74609
 Alpha virt. eigenvalues --    3.75781   3.77106   3.77609   3.81532   3.84852
 Alpha virt. eigenvalues --    3.88988   3.91593   3.93860   3.96162   3.98462
 Alpha virt. eigenvalues --    4.00309   4.03258   4.05519   4.07840   4.14102
 Alpha virt. eigenvalues --    4.16840   4.20026   4.20798   4.24648   4.29053
 Alpha virt. eigenvalues --    4.42603   4.44345   4.52891   4.53904   4.96398
 Alpha virt. eigenvalues --    4.99889   5.03890   5.05221   5.08973   5.11368
 Alpha virt. eigenvalues --    5.14561   5.15784   5.19533   5.21195   5.23155
 Alpha virt. eigenvalues --    5.31632   5.38912   5.41131   5.44484   5.45508
 Alpha virt. eigenvalues --    5.47824   5.53420   5.53701   5.57645   5.62252
 Alpha virt. eigenvalues --    5.62736   5.63689   5.84775   5.92344   5.98737
 Alpha virt. eigenvalues --    6.02886   6.07384   6.28364   6.77703   6.78612
 Alpha virt. eigenvalues --    6.82395   6.87024   6.87343   6.89226   6.89676
 Alpha virt. eigenvalues --    6.90209   6.90990   6.92267   6.94733   6.96431
 Alpha virt. eigenvalues --    6.99737   7.00568   7.04304   7.08351   7.10383
 Alpha virt. eigenvalues --    7.13361   7.18743   7.19655   7.24722   7.25023
 Alpha virt. eigenvalues --    7.35005   7.37209   7.46104  23.91811  23.98894
 Alpha virt. eigenvalues --   24.02375  24.04972  24.08132  24.10788  24.17208
 Alpha virt. eigenvalues --   24.27762  35.59592  35.68296  49.98045  50.08352
 Alpha virt. eigenvalues --   50.11116  50.22956  50.24910
          Condensed to atoms (all electrons):
               1          2          3          4          5          6
     1  C    7.407083  -1.435869  -0.317863   0.240738   0.348020  -0.013243
     2  C   -1.435869   8.053044  -0.085612  -0.159360   0.010821   0.340199
     3  C   -0.317863  -0.085612   6.020962   0.214571   0.012223  -0.001023
     4  N    0.240738  -0.159360   0.214571   6.293621  -0.024665   0.020557
     5  H    0.348020   0.010821   0.012223  -0.024665   0.467744  -0.000023
     6  H   -0.013243   0.340199  -0.001023   0.020557  -0.000023   0.441565
     7  H    0.001159   0.014858   0.406838  -0.022440   0.000028  -0.000041
     8  C   -0.104648   0.000008  -0.107510   0.167684  -0.000280   0.000561
     9  H   -0.026202   0.001512   0.024480  -0.042618   0.000076   0.000010
    10  H    0.025598   0.019527  -0.004170  -0.067587   0.002297  -0.000015
    11  H    0.002987  -0.010452  -0.013236  -0.041744   0.000239   0.000026
    12  N    0.117034  -0.054345   0.271771  -0.024738   0.004125  -0.022228
    13  C   -0.134057  -0.313944  -0.085744   0.023033   0.000201   0.015332
    14  H    0.012411  -0.022949   0.001841  -0.003549  -0.000003   0.000616
    15  H   -0.005649  -0.003236   0.026581   0.005553   0.000017   0.000124
    16  C    0.161280  -0.092875  -0.025259  -0.022505   0.000342  -0.002550
    17  H   -0.000019   0.004606  -0.000310  -0.000253  -0.000001  -0.000135
    18  H    0.002255  -0.055502   0.004789   0.004084   0.000038   0.006244
    19  C   -0.144381   0.260203  -0.024394   0.004183  -0.000554  -0.008110
    20  H    0.001864   0.003191   0.001225  -0.000470  -0.000000  -0.000035
    21  H   -0.001193  -0.009320  -0.001798   0.000908   0.000001   0.000041
    22  C    0.065068  -0.240258  -0.044027   0.065009   0.001381   0.014334
    23  O    0.063641  -0.061692   0.039699  -0.025306  -0.000196  -0.000270
    24  O   -0.024868   0.030045  -0.002095  -0.011442   0.000007  -0.000514
    25  O   -0.054834   0.127538  -0.001556  -0.009961  -0.001273  -0.022124
    26  H   -0.002644   0.002809  -0.001373  -0.000819  -0.000005   0.001473
    27  H   -0.064016   0.066101   0.000397   0.002240   0.001522   0.000106
    28  O    0.003585  -0.020219  -0.030255   0.004904   0.000002   0.000091
    29  H    0.001147  -0.000940   0.006530  -0.000492  -0.000000  -0.000000
    30  H    0.000283   0.005905   0.034926  -0.001963   0.000005  -0.000059
    31  O    0.116927  -0.104247  -0.000171  -0.004901   0.004639  -0.001146
    32  H   -0.010470   0.010700  -0.000083   0.000328  -0.000045   0.000202
    33  H   -0.035776   0.031265  -0.000881   0.004238   0.000837   0.000504
               7          8          9         10         11         12
     1  C    0.001159  -0.104648  -0.026202   0.025598   0.002987   0.117034
     2  C    0.014858   0.000008   0.001512   0.019527  -0.010452  -0.054345
     3  C    0.406838  -0.107510   0.024480  -0.004170  -0.013236   0.271771
     4  N   -0.022440   0.167684  -0.042618  -0.067587  -0.041744  -0.024738
     5  H    0.000028  -0.000280   0.000076   0.002297   0.000239   0.004125
     6  H   -0.000041   0.000561   0.000010  -0.000015   0.000026  -0.022228
     7  H    0.398036   0.010851   0.000807  -0.000024  -0.000094  -0.048961
     8  C    0.010851   5.279282   0.421300   0.394308   0.433727  -0.042304
     9  H    0.000807   0.421300   0.455901  -0.017646  -0.030246   0.000945
    10  H   -0.000024   0.394308  -0.017646   0.506268  -0.021023  -0.003319
    11  H   -0.000094   0.433727  -0.030246  -0.021023   0.492553  -0.000120
    12  N   -0.048961  -0.042304   0.000945  -0.003319  -0.000120   6.450371
    13  C   -0.019672  -0.018366  -0.001405   0.000752  -0.000026   0.159293
    14  H    0.000397  -0.000237   0.000005  -0.000002  -0.000010  -0.048299
    15  H    0.002451   0.001520   0.000009   0.000001  -0.000003  -0.060902
    16  C    0.001365  -0.001771   0.000520  -0.000065  -0.000014   0.006111
    17  H   -0.000065   0.000090  -0.000000  -0.000000  -0.000000  -0.003750
    18  H    0.000047  -0.000092   0.000000   0.000001   0.000001   0.011683
    19  C   -0.003903  -0.023839  -0.000935   0.000037   0.000359   0.093389
    20  H   -0.000020  -0.000075   0.000000  -0.000000  -0.000000   0.002107
    21  H    0.000165   0.000031   0.000002  -0.000000  -0.000000   0.007332
    22  C    0.014133   0.048913   0.000346  -0.000386  -0.000608  -0.122672
    23  O   -0.018118  -0.018197   0.000634   0.000154   0.000136   0.086962
    24  O   -0.000619  -0.002802  -0.000094  -0.000007   0.000005   0.023668
    25  O   -0.000038  -0.002164  -0.000002   0.000011  -0.000001   0.000850
    26  H    0.000013   0.000421  -0.000004  -0.000005   0.000000  -0.004425
    27  H    0.000001   0.000216   0.000000  -0.000008   0.000000  -0.001336
    28  O   -0.005518  -0.005602  -0.000449  -0.000016   0.000071   0.021779
    29  H   -0.001456  -0.000749  -0.000009   0.000001   0.000003  -0.000904
    30  H   -0.002443  -0.000268   0.000101   0.000015  -0.000007  -0.008195
    31  O   -0.000007  -0.000339  -0.000006  -0.000070   0.000009  -0.000806
    32  H   -0.000000  -0.000137  -0.000000   0.000007   0.000000   0.000397
    33  H    0.000004   0.000331   0.000018  -0.000108   0.000001   0.000589
              13         14         15         16         17         18
     1  C   -0.134057   0.012411  -0.005649   0.161280  -0.000019   0.002255
     2  C   -0.313944  -0.022949  -0.003236  -0.092875   0.004606  -0.055502
     3  C   -0.085744   0.001841   0.026581  -0.025259  -0.000310   0.004789
     4  N    0.023033  -0.003549   0.005553  -0.022505  -0.000253   0.004084
     5  H    0.000201  -0.000003   0.000017   0.000342  -0.000001   0.000038
     6  H    0.015332   0.000616   0.000124  -0.002550  -0.000135   0.006244
     7  H   -0.019672   0.000397   0.002451   0.001365  -0.000065   0.000047
     8  C   -0.018366  -0.000237   0.001520  -0.001771   0.000090  -0.000092
     9  H   -0.001405   0.000005   0.000009   0.000520  -0.000000   0.000000
    10  H    0.000752  -0.000002   0.000001  -0.000065  -0.000000   0.000001
    11  H   -0.000026  -0.000010  -0.000003  -0.000014  -0.000000   0.000001
    12  N    0.159293  -0.048299  -0.060902   0.006111  -0.003750   0.011683
    13  C    6.377037   0.445007   0.439614  -0.199780  -0.017221  -0.034470
    14  H    0.445007   0.509787  -0.023014  -0.057459  -0.005783  -0.003168
    15  H    0.439614  -0.023014   0.415477  -0.035158  -0.001613   0.003151
    16  C   -0.199780  -0.057459  -0.035158   5.882181   0.429903   0.443302
    17  H   -0.017221  -0.005783  -0.001613   0.429903   0.528024  -0.029755
    18  H   -0.034470  -0.003168   0.003151   0.443302  -0.029755   0.473077
    19  C   -0.048106  -0.002051  -0.037705  -0.427682  -0.070454  -0.035160
    20  H    0.014411  -0.000104   0.000040  -0.020582  -0.006519  -0.004446
    21  H   -0.016560  -0.000252  -0.000239  -0.005745  -0.004328   0.004258
    22  C   -0.094143   0.014175   0.030084   0.241167   0.020703   0.006770
    23  O   -0.019671   0.000068  -0.007870  -0.013644  -0.002794  -0.001276
    24  O    0.019573  -0.000413  -0.000808  -0.035929  -0.001229   0.003525
    25  O    0.012693  -0.000464  -0.000301  -0.031484   0.000413   0.000675
    26  H   -0.003015  -0.000018   0.000016   0.006398   0.000342  -0.001627
    27  H    0.002654   0.000007  -0.000003  -0.002452   0.000006  -0.000721
    28  O   -0.008288   0.000412   0.002576   0.029583   0.000165  -0.000162
    29  H    0.008725  -0.000041   0.000026  -0.009287   0.000003   0.000022
    30  H   -0.016390   0.000007  -0.000640  -0.012566  -0.000109   0.000037
    31  O   -0.006530   0.000008   0.000001   0.005719  -0.000001   0.000076
    32  H    0.000711  -0.000000  -0.000000  -0.000671   0.000000   0.000014
    33  H    0.001916  -0.000004  -0.000001  -0.001179   0.000000   0.000040
              19         20         21         22         23         24
     1  C   -0.144381   0.001864  -0.001193   0.065068   0.063641  -0.024868
     2  C    0.260203   0.003191  -0.009320  -0.240258  -0.061692   0.030045
     3  C   -0.024394   0.001225  -0.001798  -0.044027   0.039699  -0.002095
     4  N    0.004183  -0.000470   0.000908   0.065009  -0.025306  -0.011442
     5  H   -0.000554  -0.000000   0.000001   0.001381  -0.000196   0.000007
     6  H   -0.008110  -0.000035   0.000041   0.014334  -0.000270  -0.000514
     7  H   -0.003903  -0.000020   0.000165   0.014133  -0.018118  -0.000619
     8  C   -0.023839  -0.000075   0.000031   0.048913  -0.018197  -0.002802
     9  H   -0.000935   0.000000   0.000002   0.000346   0.000634  -0.000094
    10  H    0.000037  -0.000000  -0.000000  -0.000386   0.000154  -0.000007
    11  H    0.000359  -0.000000  -0.000000  -0.000608   0.000136   0.000005
    12  N    0.093389   0.002107   0.007332  -0.122672   0.086962   0.023668
    13  C   -0.048106   0.014411  -0.016560  -0.094143  -0.019671   0.019573
    14  H   -0.002051  -0.000104  -0.000252   0.014175   0.000068  -0.000413
    15  H   -0.037705   0.000040  -0.000239   0.030084  -0.007870  -0.000808
    16  C   -0.427682  -0.020582  -0.005745   0.241167  -0.013644  -0.035929
    17  H   -0.070454  -0.006519  -0.004328   0.020703  -0.002794  -0.001229
    18  H   -0.035160  -0.004446   0.004258   0.006770  -0.001276   0.003525
    19  C    7.411295   0.445576   0.441478  -1.558050   0.132464  -0.036265
    20  H    0.445576   0.511292  -0.033036  -0.091537   0.011975  -0.012234
    21  H    0.441478  -0.033036   0.509020  -0.051902  -0.020407   0.007433
    22  C   -1.558050  -0.091537  -0.051902   6.761650   0.008283   0.481183
    23  O    0.132464   0.011975  -0.020407   0.008283   8.510522  -0.091459
    24  O   -0.036265  -0.012234   0.007433   0.481183  -0.091459   8.176550
    25  O    0.069258  -0.000179  -0.000141  -0.091717   0.004401  -0.045138
    26  H   -0.022591   0.000378  -0.000127   0.034120  -0.002892   0.057549
    27  H    0.002682  -0.000017  -0.000004  -0.001885  -0.000235   0.003163
    28  O   -0.045236   0.000635  -0.000442   0.042518  -0.099388   0.002405
    29  H    0.015356  -0.000073   0.000292  -0.010822   0.003400   0.000108
    30  H    0.011685  -0.000219  -0.004215  -0.003822   0.101832  -0.002742
    31  O   -0.003644   0.000001   0.000003   0.003223  -0.000159  -0.002078
    32  H    0.000561  -0.000000  -0.000000  -0.000305   0.000004  -0.000026
    33  H    0.000864  -0.000002  -0.000000  -0.000687  -0.000049   0.000304
              25         26         27         28         29         30
     1  C   -0.054834  -0.002644  -0.064016   0.003585   0.001147   0.000283
     2  C    0.127538   0.002809   0.066101  -0.020219  -0.000940   0.005905
     3  C   -0.001556  -0.001373   0.000397  -0.030255   0.006530   0.034926
     4  N   -0.009961  -0.000819   0.002240   0.004904  -0.000492  -0.001963
     5  H   -0.001273  -0.000005   0.001522   0.000002  -0.000000   0.000005
     6  H   -0.022124   0.001473   0.000106   0.000091  -0.000000  -0.000059
     7  H   -0.000038   0.000013   0.000001  -0.005518  -0.001456  -0.002443
     8  C   -0.002164   0.000421   0.000216  -0.005602  -0.000749  -0.000268
     9  H   -0.000002  -0.000004   0.000000  -0.000449  -0.000009   0.000101
    10  H    0.000011  -0.000005  -0.000008  -0.000016   0.000001   0.000015
    11  H   -0.000001   0.000000   0.000000   0.000071   0.000003  -0.000007
    12  N    0.000850  -0.004425  -0.001336   0.021779  -0.000904  -0.008195
    13  C    0.012693  -0.003015   0.002654  -0.008288   0.008725  -0.016390
    14  H   -0.000464  -0.000018   0.000007   0.000412  -0.000041   0.000007
    15  H   -0.000301   0.000016  -0.000003   0.002576   0.000026  -0.000640
    16  C   -0.031484   0.006398  -0.002452   0.029583  -0.009287  -0.012566
    17  H    0.000413   0.000342   0.000006   0.000165   0.000003  -0.000109
    18  H    0.000675  -0.001627  -0.000721  -0.000162   0.000022   0.000037
    19  C    0.069258  -0.022591   0.002682  -0.045236   0.015356   0.011685
    20  H   -0.000179   0.000378  -0.000017   0.000635  -0.000073  -0.000219
    21  H   -0.000141  -0.000127  -0.000004  -0.000442   0.000292  -0.004215
    22  C   -0.091717   0.034120  -0.001885   0.042518  -0.010822  -0.003822
    23  O    0.004401  -0.002892  -0.000235  -0.099388   0.003400   0.101832
    24  O   -0.045138   0.057549   0.003163   0.002405   0.000108  -0.002742
    25  O    8.037750   0.320159   0.303438  -0.000094   0.000002   0.000153
    26  H    0.320159   0.328857  -0.029406   0.000043  -0.000001  -0.000114
    27  H    0.303438  -0.029406   0.413268   0.000007  -0.000000  -0.000007
    28  O   -0.000094   0.000043   0.000007   8.325137   0.246940   0.215902
    29  H    0.000002  -0.000001  -0.000000   0.246940   0.446518  -0.004274
    30  H    0.000153  -0.000114  -0.000007   0.215902  -0.004274   0.341751
    31  O    0.033983   0.000110  -0.060460   0.000002   0.000000  -0.000001
    32  H   -0.003234  -0.000174  -0.001376   0.000000   0.000000  -0.000000
    33  H   -0.004695   0.000140   0.001485   0.000001  -0.000000  -0.000001
              31         32         33
     1  C    0.116927  -0.010470  -0.035776
     2  C   -0.104247   0.010700   0.031265
     3  C   -0.000171  -0.000083  -0.000881
     4  N   -0.004901   0.000328   0.004238
     5  H    0.004639  -0.000045   0.000837
     6  H   -0.001146   0.000202   0.000504
     7  H   -0.000007  -0.000000   0.000004
     8  C   -0.000339  -0.000137   0.000331
     9  H   -0.000006  -0.000000   0.000018
    10  H   -0.000070   0.000007  -0.000108
    11  H    0.000009   0.000000   0.000001
    12  N   -0.000806   0.000397   0.000589
    13  C   -0.006530   0.000711   0.001916
    14  H    0.000008  -0.000000  -0.000004
    15  H    0.000001  -0.000000  -0.000001
    16  C    0.005719  -0.000671  -0.001179
    17  H   -0.000001   0.000000   0.000000
    18  H    0.000076   0.000014   0.000040
    19  C   -0.003644   0.000561   0.000864
    20  H    0.000001  -0.000000  -0.000002
    21  H    0.000003  -0.000000  -0.000000
    22  C    0.003223  -0.000305  -0.000687
    23  O   -0.000159   0.000004  -0.000049
    24  O   -0.002078  -0.000026   0.000304
    25  O    0.033983  -0.003234  -0.004695
    26  H    0.000110  -0.000174   0.000140
    27  H   -0.060460  -0.001376   0.001485
    28  O    0.000002   0.000000   0.000001
    29  H    0.000000   0.000000  -0.000000
    30  H   -0.000001  -0.000000  -0.000001
    31  O    8.013357   0.299611   0.313802
    32  H    0.299611   0.403974  -0.015538
    33  H    0.313802  -0.015538   0.406975
 Mulliken charges:
               1
     1  C   -0.195348
     2  C   -0.311514
     3  C   -0.319475
     4  N    0.413164
     5  H    0.172480
     6  H    0.229530
     7  H    0.272263
     8  C   -0.429864
     9  H    0.212950
    10  H    0.165474
    11  H    0.187464
    12  N    0.188900
    13  C   -0.483567
    14  H    0.183078
    15  H    0.249898
    16  C   -0.209213
    17  H    0.160083
    18  H    0.202289
    19  C   -0.396333
    20  H    0.176852
    21  H    0.178745
    22  C    0.459762
    23  O   -0.580554
    24  O   -0.534757
    25  O   -0.641925
    26  H    0.316414
    27  H    0.364635
    28  O   -0.681088
    29  H    0.299974
    30  H    0.345432
    31  O   -0.606907
    32  H    0.315549
    33  H    0.295607
 Sum of Mulliken charges =  -0.00000
 Mulliken charges with hydrogens summed into heavy atoms:
               1
     1  C   -0.022868
     2  C   -0.081984
     3  C   -0.047212
     4  N    0.413164
     8  C    0.136024
    12  N    0.188900
    13  C   -0.050591
    16  C    0.153160
    19  C   -0.040736
    22  C    0.459762
    23  O   -0.580554
    24  O   -0.534757
    25  O    0.039124
    28  O   -0.035681
    31  O    0.004249
         Mulliken charges condensed to fragments:
      1     -0.007692
      2      0.039124
      3     -0.035681
      4      0.004249
 Electronic spatial extent (au):  <R**2>=         131065.0121
 Charge=             -0.0000 electrons
 Dipole moment (field-independent basis, Debye):
    X=             -5.9829    Y=              5.7092    Z=             -3.2746  Tot=              8.8946
 Quadrupole moment (field-independent basis, Debye-Ang):
   XX=           -208.5557   YY=             18.5403   ZZ=           -140.4938
   XY=             -4.3108   XZ=            -83.9850   YZ=             27.2419
 Traceless Quadrupole moment (field-independent basis, Debye-Ang):
   XX=            -98.3860   YY=            128.7100   ZZ=            -30.3241
   XY=             -4.3108   XZ=            -83.9850   YZ=             27.2419
 Octapole moment (field-independent basis, Debye-Ang**2):
  XXX=          -4248.1602  YYY=          -1091.2145  ZZZ=          -3437.4061  XYY=           -380.6143
  XXY=          -1514.7456  XXZ=          -2308.7343  XZZ=          -1795.4894  YZZ=           -788.9341
  YYZ=           -208.6734  XYZ=           -268.2393
 Hexadecapole moment (field-independent basis, Debye-Ang**3):
 XXXX=         -70413.9261 YYYY=         -33627.5485 ZZZZ=         -67830.8425 XXXY=         -36392.9591
 XXXZ=         -45371.3151 YYYX=         -15530.9915 YYYZ=         -16913.9124 ZZZX=         -36867.9449
 ZZZY=         -28159.8871 XXYY=         -18243.0121 XXZZ=         -32594.2304 YYZZ=         -14283.4414
 XXYZ=         -17309.1828 YYXZ=          -7085.4811 ZZXY=         -12223.9473
 N-N= 1.145804167547D+03 E-N=-4.168673898283D+03  KE= 7.978908527763D+02
 No NMR shielding tensors so no spin-rotation constants.
 Leave Link  601 at Mon Feb 20 08:36:30 2023, MaxMem=  6710886400 cpu:               3.6 elap:               0.2
 (Enter /data0/home/software/g16/l122.exe)
 CPIOFr:  IOpCl= 0 IRwI=-1 IRwCP=  731 ICalc= -1 LCPTot=      405934 Len1MO=     1063483 IndFrg=      405934
 CPIOFr:  IOpCl= 0 IRwI=-1 IRwCP=  731 ICalc=  0 LCPTot=      405934 Len1MO=     1063483 IndFrg=     1469417
 Counterpoise: doing calculation for fragment   1 using the basis set of the full-system, NewBq=T
 Leave Link  122 at Mon Feb 20 08:36:30 2023, MaxMem=  6710886400 cpu:               0.4 elap:               0.0
 (Enter /data0/home/software/g16/l301.exe)
 Basis read from rwf:  (5D, 7F)
 No pseudopotential information found on rwf file.
   513 basis functions,   774 primitive gaussians,   543 cartesian basis functions
    45 alpha electrons       45 beta electrons
       nuclear repulsion energy       733.7646209080 Hartrees.
 IExCor= 4336 DFT=T Ex+Corr=M062X ExCW=0 ScaHFX=  0.540000
 ScaDFX=  1.000000  1.000000  1.000000  1.000000 ScalE2=  1.000000  1.000000
 IRadAn=      5 IRanWt=     -1 IRanGd=            0 ICorTp=0 IEmpDi=131
 NAtoms=   33 NActive=   33 NUniq=   33 SFac= 1.00D+00 NAtFMM=   60 NAOKFM=F Big=F
 Integral buffers will be    131072 words long.
 Raffenetti 2 integral format.
 Two-electron integral symmetry is turned off.
 R6Disp:  Grimme-D3 Dispersion energy=       -0.0009903311 Hartrees.
 Nuclear repulsion after empirical dispersion term =      733.7636305769 Hartrees.
 No density basis found on file   718.
 Leave Link  301 at Mon Feb 20 08:36:30 2023, MaxMem=  6710886400 cpu:               1.3 elap:               0.1
 (Enter /data0/home/software/g16/l302.exe)
 NPDir=0 NMtPBC=     1 NCelOv=     1 NCel=       1 NClECP=     1 NCelD=      1
         NCelK=      1 NCelE2=     1 NClLst=     1 CellRange=     0.0.
 One-electron integrals computed using PRISM.
 NBasis=   513 RedAO= T EigKep=  8.56D-06  NBF=   513
 NBsUse=   513 1.00D-06 EigRej= -1.00D+00 NBFU=   513
 Precomputing XC quadrature grid using
 IXCGrd= 4 IRadAn=           5 IRanWt=          -1 IRanGd=           0 AccXCQ= 0.00D+00.
 Generated NRdTot=       0 NPtTot=           0 NUsed=           0 NTot=          32
 NSgBfM=   541   537   537   541   541 MxSgAt=    33 MxSgA2=    33.
 Leave Link  302 at Mon Feb 20 08:36:30 2023, MaxMem=  6710886400 cpu:              12.4 elap:               0.5
 (Enter /data0/home/software/g16/l303.exe)
 DipDrv:  MaxL=1.
 Leave Link  303 at Mon Feb 20 08:36:30 2023, MaxMem=  6710886400 cpu:               1.3 elap:               0.1
 (Enter /data0/home/software/g16/l401.exe)
 ExpMin= 4.38D-02 ExpMax= 8.59D+03 ExpMxC= 1.30D+03 IAcc=3 IRadAn=         5 AccDes= 0.00D+00
 Harris functional with IExCor= 1009 and IRadAn=       5 diagonalized for initial guess.
 HarFok:  IExCor= 1009 AccDes= 0.00D+00 IRadAn=         5 IDoV= 1 UseB2=F ITyADJ=14
 ICtDFT=  3500011 ScaDFX=  1.000000  1.000000  1.000000  1.000000
 FoFCou: FMM=F IPFlag=           0 FMFlag=      100000 FMFlg1=           0
         NFxFlg=           0 DoJE=T BraDBF=F KetDBF=T FulRan=T
         wScrn=  0.000000 ICntrl=       500 IOpCl=  0 I1Cent=   200000004 NGrid=           0
         NMat0=    1 NMatS0=      1 NMatT0=    0 NMatD0=    1 NMtDS0=    0 NMtDT0=    0
 Symmetry not used in FoFCou.
 Harris En= -571.692547588302    
 JPrj=0 DoOrth=F DoCkMO=F.
 Leave Link  401 at Mon Feb 20 08:36:32 2023, MaxMem=  6710886400 cpu:              47.8 elap:               2.0
 (Enter /data0/home/software/g16/l502.exe)
 Two-electron integral symmetry not used.
 Closed shell SCF:
 Using DIIS extrapolation, IDIIS=  1040.
 NGot=  6710886400 LenX=  6710279760 LenY=  6709984368
 Requested convergence on RMS density matrix=1.00D-08 within 128 cycles.
 Requested convergence on MAX density matrix=1.00D-06.
 Requested convergence on             energy=1.00D-06.
 No special actions if energy rises.
 Fock matrices will be formed incrementally for  20 cycles.

 Cycle   1  Pass 1  IDiag  1:
 FoFJK:  IHMeth= 1 ICntrl=       0 DoSepK=F KAlg= 0 I1Cent=           0 FoldK=F
 IRaf= 880000000 NMat=       1 IRICut=       1 DoRegI=T DoRafI=F ISym2E= 0 IDoP0=0 IntGTp=1.
 FoFCou: FMM=F IPFlag=           0 FMFlag=      100000 FMFlg1=           0
         NFxFlg=           0 DoJE=F BraDBF=F KetDBF=F FulRan=T
         wScrn=  0.000000 ICntrl=         0 IOpCl=  0 I1Cent=           0 NGrid=           0
         NMat0=    1 NMatS0=      1 NMatT0=    0 NMatD0=    1 NMtDS0=    0 NMtDT0=    0
 Symmetry not used in FoFCou.
 E= -571.581377870182    
 DIIS: error= 1.50D-02 at cycle   1 NSaved=   1.
 NSaved= 1 IEnMin= 1 EnMin= -571.581377870182     IErMin= 1 ErrMin= 1.50D-02
 ErrMax= 1.50D-02  0.00D+00 EMaxC= 1.00D-01 BMatC= 4.66D-01 BMatP= 4.66D-01
 IDIUse=3 WtCom= 8.50D-01 WtEn= 1.50D-01
 Coeff-Com:  0.100D+01
 Coeff-En:   0.100D+01
 Coeff:      0.100D+01
 Gap=     0.361 Goal=   None    Shift=    0.000
 GapD=    0.361 DampG=1.000 DampE=0.500 DampFc=0.5000 IDamp=-1.
 Damping current iteration by 5.00D-01
 RMSDP=1.16D-02 MaxDP=1.41D+00              OVMax= 3.95D-01

 Cycle   2  Pass 1  IDiag  1:
 RMSU=  5.79D-03    CP:  1.03D+00
 E= -571.695413884900     Delta-E=       -0.114036014718 Rises=F Damp=T
 DIIS: error= 5.49D-03 at cycle   2 NSaved=   2.
 NSaved= 2 IEnMin= 2 EnMin= -571.695413884900     IErMin= 2 ErrMin= 5.49D-03
 ErrMax= 5.49D-03  0.00D+00 EMaxC= 1.00D-01 BMatC= 4.91D-02 BMatP= 4.66D-01
 IDIUse=3 WtCom= 9.45D-01 WtEn= 5.49D-02
 Coeff-Com:  0.551D-01 0.945D+00
 Coeff-En:   0.224D+00 0.776D+00
 Coeff:      0.644D-01 0.936D+00
 Gap=     0.216 Goal=   None    Shift=    0.000
 RMSDP=5.91D-03 MaxDP=8.83D-01 DE=-1.14D-01 OVMax= 3.00D-01

 Cycle   3  Pass 1  IDiag  1:
 RMSU=  2.63D-03    CP:  8.64D-01  1.25D-01
 E= -571.895525295205     Delta-E=       -0.200111410305 Rises=F Damp=F
 DIIS: error= 5.24D-03 at cycle   3 NSaved=   3.
 NSaved= 3 IEnMin= 3 EnMin= -571.895525295205     IErMin= 3 ErrMin= 5.24D-03
 ErrMax= 5.24D-03  0.00D+00 EMaxC= 1.00D-01 BMatC= 3.10D-02 BMatP= 4.91D-02
 IDIUse=3 WtCom= 9.48D-01 WtEn= 5.24D-02
 Coeff-Com: -0.823D-01 0.443D+00 0.639D+00
 Coeff-En:   0.000D+00 0.000D+00 0.100D+01
 Coeff:     -0.780D-01 0.420D+00 0.658D+00
 Gap=     0.227 Goal=   None    Shift=    0.000
 RMSDP=6.34D-04 MaxDP=5.01D-02 DE=-2.00D-01 OVMax= 3.83D-02

 Cycle   4  Pass 1  IDiag  1:
 RMSU=  6.09D-04    CP:  8.67D-01  1.40D-01  1.06D+00
 E= -571.918346706903     Delta-E=       -0.022821411698 Rises=F Damp=F
 DIIS: error= 1.62D-03 at cycle   4 NSaved=   4.
 NSaved= 4 IEnMin= 4 EnMin= -571.918346706903     IErMin= 4 ErrMin= 1.62D-03
 ErrMax= 1.62D-03  0.00D+00 EMaxC= 1.00D-01 BMatC= 2.62D-03 BMatP= 3.10D-02
 IDIUse=3 WtCom= 9.84D-01 WtEn= 1.62D-02
 Coeff-Com: -0.508D-01 0.125D+00 0.269D+00 0.657D+00
 Coeff-En:   0.000D+00 0.000D+00 0.000D+00 0.100D+01
 Coeff:     -0.500D-01 0.123D+00 0.264D+00 0.662D+00
 Gap=     0.211 Goal=   None    Shift=    0.000
 RMSDP=2.47D-04 MaxDP=1.67D-02 DE=-2.28D-02 OVMax= 1.33D-02

 Cycle   5  Pass 1  IDiag  1:
 RMSU=  2.33D-04    CP:  8.68D-01  1.38D-01  1.07D+00  1.11D+00
 E= -571.920669045030     Delta-E=       -0.002322338127 Rises=F Damp=F
 DIIS: error= 6.08D-04 at cycle   5 NSaved=   5.
 NSaved= 5 IEnMin= 5 EnMin= -571.920669045030     IErMin= 5 ErrMin= 6.08D-04
 ErrMax= 6.08D-04  0.00D+00 EMaxC= 1.00D-01 BMatC= 3.92D-04 BMatP= 2.62D-03
 IDIUse=3 WtCom= 9.94D-01 WtEn= 6.08D-03
 Coeff-Com: -0.201D-01 0.340D-01 0.659D-01 0.309D+00 0.611D+00
 Coeff-En:   0.000D+00 0.000D+00 0.000D+00 0.000D+00 0.100D+01
 Coeff:     -0.200D-01 0.338D-01 0.655D-01 0.308D+00 0.613D+00
 Gap=     0.211 Goal=   None    Shift=    0.000
 RMSDP=1.14D-04 MaxDP=1.09D-02 DE=-2.32D-03 OVMax= 7.93D-03

 Cycle   6  Pass 1  IDiag  1:
 RMSU=  7.92D-05    CP:  8.71D-01  1.36D-01  1.08D+00  1.22D+00  1.14D+00
 E= -571.920986925168     Delta-E=       -0.000317880138 Rises=F Damp=F
 DIIS: error= 2.34D-04 at cycle   6 NSaved=   6.
 NSaved= 6 IEnMin= 6 EnMin= -571.920986925168     IErMin= 6 ErrMin= 2.34D-04
 ErrMax= 2.34D-04  0.00D+00 EMaxC= 1.00D-01 BMatC= 6.06D-05 BMatP= 3.92D-04
 IDIUse=3 WtCom= 9.98D-01 WtEn= 2.34D-03
 Coeff-Com: -0.199D-02-0.660D-03-0.120D-01 0.430D-01 0.310D+00 0.662D+00
 Coeff-En:   0.000D+00 0.000D+00 0.000D+00 0.000D+00 0.000D+00 0.100D+01
 Coeff:     -0.198D-02-0.658D-03-0.120D-01 0.429D-01 0.309D+00 0.663D+00
 Gap=     0.211 Goal=   None    Shift=    0.000
 RMSDP=6.08D-05 MaxDP=6.18D-03 DE=-3.18D-04 OVMax= 4.38D-03

 Cycle   7  Pass 1  IDiag  1:
 RMSU=  3.08D-05    CP:  8.73D-01  1.35D-01  1.08D+00  1.28D+00  1.27D+00
                    CP:  1.21D+00
 E= -571.921043660756     Delta-E=       -0.000056735588 Rises=F Damp=F
 DIIS: error= 8.32D-05 at cycle   7 NSaved=   7.
 NSaved= 7 IEnMin= 7 EnMin= -571.921043660756     IErMin= 7 ErrMin= 8.32D-05
 ErrMax= 8.32D-05  0.00D+00 EMaxC= 1.00D-01 BMatC= 8.80D-06 BMatP= 6.06D-05
 IDIUse=1 WtCom= 1.00D+00 WtEn= 0.00D+00
 Coeff-Com:  0.321D-02-0.747D-02-0.183D-01-0.377D-01 0.456D-01 0.325D+00
 Coeff-Com:  0.690D+00
 Coeff:      0.321D-02-0.747D-02-0.183D-01-0.377D-01 0.456D-01 0.325D+00
 Coeff:      0.690D+00
 Gap=     0.211 Goal=   None    Shift=    0.000
 RMSDP=2.25D-05 MaxDP=1.69D-03 DE=-5.67D-05 OVMax= 2.39D-03

 Cycle   8  Pass 1  IDiag  1:
 RMSU=  1.15D-05    CP:  8.73D-01  1.34D-01  1.08D+00  1.29D+00  1.33D+00
                    CP:  1.31D+00  1.01D+00
 E= -571.921054525051     Delta-E=       -0.000010864296 Rises=F Damp=F
 DIIS: error= 1.68D-05 at cycle   8 NSaved=   8.
 NSaved= 8 IEnMin= 8 EnMin= -571.921054525051     IErMin= 8 ErrMin= 1.68D-05
 ErrMax= 1.68D-05  0.00D+00 EMaxC= 1.00D-01 BMatC= 5.20D-07 BMatP= 8.80D-06
 IDIUse=1 WtCom= 1.00D+00 WtEn= 0.00D+00
 Coeff-Com:  0.872D-03-0.154D-02-0.180D-02-0.110D-01-0.995D-02 0.235D-01
 Coeff-Com:  0.196D+00 0.804D+00
 Coeff:      0.872D-03-0.154D-02-0.180D-02-0.110D-01-0.995D-02 0.235D-01
 Coeff:      0.196D+00 0.804D+00
 Gap=     0.211 Goal=   None    Shift=    0.000
 RMSDP=6.68D-06 MaxDP=6.39D-04 DE=-1.09D-05 OVMax= 8.07D-04

 Cycle   9  Pass 1  IDiag  1:
 RMSU=  3.87D-06    CP:  8.73D-01  1.34D-01  1.08D+00  1.29D+00  1.33D+00
                    CP:  1.32D+00  1.08D+00  1.28D+00
 E= -571.921055556820     Delta-E=       -0.000001031768 Rises=F Damp=F
 DIIS: error= 5.93D-06 at cycle   9 NSaved=   9.
 NSaved= 9 IEnMin= 9 EnMin= -571.921055556820     IErMin= 9 ErrMin= 5.93D-06
 ErrMax= 5.93D-06  0.00D+00 EMaxC= 1.00D-01 BMatC= 5.16D-08 BMatP= 5.20D-07
 IDIUse=1 WtCom= 1.00D+00 WtEn= 0.00D+00
 Coeff-Com: -0.493D-04 0.165D-03 0.104D-02 0.421D-03-0.616D-02-0.266D-01
 Coeff-Com: -0.192D-01 0.201D+00 0.850D+00
 Coeff:     -0.493D-04 0.165D-03 0.104D-02 0.421D-03-0.616D-02-0.266D-01
 Coeff:     -0.192D-01 0.201D+00 0.850D+00
 Gap=     0.211 Goal=   None    Shift=    0.000
 RMSDP=2.62D-06 MaxDP=1.70D-04 DE=-1.03D-06 OVMax= 3.63D-04

 Cycle  10  Pass 1  IDiag  1:
 RMSU=  1.63D-06    CP:  8.73D-01  1.34D-01  1.08D+00  1.29D+00  1.33D+00
                    CP:  1.33D+00  1.10D+00  1.41D+00  1.23D+00
 E= -571.921055691700     Delta-E=       -0.000000134880 Rises=F Damp=F
 DIIS: error= 4.09D-06 at cycle  10 NSaved=  10.
 NSaved=10 IEnMin=10 EnMin= -571.921055691700     IErMin=10 ErrMin= 4.09D-06
 ErrMax= 4.09D-06  0.00D+00 EMaxC= 1.00D-01 BMatC= 1.78D-08 BMatP= 5.16D-08
 IDIUse=1 WtCom= 1.00D+00 WtEn= 0.00D+00
 Coeff-Com: -0.153D-03 0.280D-03 0.579D-03 0.165D-02-0.916D-03-0.155D-01
 Coeff-Com: -0.359D-01-0.227D-01 0.396D+00 0.676D+00
 Coeff:     -0.153D-03 0.280D-03 0.579D-03 0.165D-02-0.916D-03-0.155D-01
 Coeff:     -0.359D-01-0.227D-01 0.396D+00 0.676D+00
 Gap=     0.211 Goal=   None    Shift=    0.000
 RMSDP=9.67D-07 MaxDP=1.05D-04 DE=-1.35D-07 OVMax= 1.24D-04

 Cycle  11  Pass 1  IDiag  1:
 RMSU=  5.33D-07    CP:  8.73D-01  1.34D-01  1.08D+00  1.29D+00  1.33D+00
                    CP:  1.33D+00  1.11D+00  1.45D+00  1.34D+00  1.16D+00
 E= -571.921055720032     Delta-E=       -0.000000028332 Rises=F Damp=F
 DIIS: error= 1.10D-06 at cycle  11 NSaved=  11.
 NSaved=11 IEnMin=11 EnMin= -571.921055720032     IErMin=11 ErrMin= 1.10D-06
 ErrMax= 1.10D-06  0.00D+00 EMaxC= 1.00D-01 BMatC= 1.63D-09 BMatP= 1.78D-08
 IDIUse=1 WtCom= 1.00D+00 WtEn= 0.00D+00
 Coeff-Com: -0.435D-04 0.893D-04 0.227D-04 0.323D-03 0.172D-03-0.210D-02
 Coeff-Com: -0.808D-02-0.270D-01 0.102D-01 0.198D+00 0.829D+00
 Coeff:     -0.435D-04 0.893D-04 0.227D-04 0.323D-03 0.172D-03-0.210D-02
 Coeff:     -0.808D-02-0.270D-01 0.102D-01 0.198D+00 0.829D+00
 Gap=     0.211 Goal=   None    Shift=    0.000
 RMSDP=3.56D-07 MaxDP=2.20D-05 DE=-2.83D-08 OVMax= 5.13D-05

 Cycle  12  Pass 1  IDiag  1:
 RMSU=  1.78D-07    CP:  8.73D-01  1.34D-01  1.08D+00  1.29D+00  1.33D+00
                    CP:  1.33D+00  1.11D+00  1.46D+00  1.37D+00  1.29D+00
                    CP:  1.17D+00
 E= -571.921055723820     Delta-E=       -0.000000003788 Rises=F Damp=F
 DIIS: error= 3.44D-07 at cycle  12 NSaved=  12.
 NSaved=12 IEnMin=12 EnMin= -571.921055723820     IErMin=12 ErrMin= 3.44D-07
 ErrMax= 3.44D-07  0.00D+00 EMaxC= 1.00D-01 BMatC= 2.07D-10 BMatP= 1.63D-09
 IDIUse=1 WtCom= 1.00D+00 WtEn= 0.00D+00
 Coeff-Com:  0.144D-04-0.220D-04-0.856D-04-0.194D-03 0.139D-03 0.185D-02
 Coeff-Com:  0.360D-02-0.294D-02-0.570D-01-0.627D-01 0.208D+00 0.909D+00
 Coeff:      0.144D-04-0.220D-04-0.856D-04-0.194D-03 0.139D-03 0.185D-02
 Coeff:      0.360D-02-0.294D-02-0.570D-01-0.627D-01 0.208D+00 0.909D+00
 Gap=     0.211 Goal=   None    Shift=    0.000
 RMSDP=1.57D-07 MaxDP=1.20D-05 DE=-3.79D-09 OVMax= 2.20D-05

 Cycle  13  Pass 1  IDiag  1:
 RMSU=  7.88D-08    CP:  8.73D-01  1.34D-01  1.08D+00  1.29D+00  1.33D+00
                    CP:  1.33D+00  1.11D+00  1.46D+00  1.38D+00  1.34D+00
                    CP:  1.27D+00  1.23D+00
 E= -571.921055724328     Delta-E=       -0.000000000508 Rises=F Damp=F
 DIIS: error= 1.67D-07 at cycle  13 NSaved=  13.
 NSaved=13 IEnMin=13 EnMin= -571.921055724328     IErMin=13 ErrMin= 1.67D-07
 ErrMax= 1.67D-07  0.00D+00 EMaxC= 1.00D-01 BMatC= 4.34D-11 BMatP= 2.07D-10
 IDIUse=1 WtCom= 1.00D+00 WtEn= 0.00D+00
 Coeff-Com:  0.716D-05-0.125D-04-0.149D-04-0.631D-04 0.357D-04 0.781D-03
 Coeff-Com:  0.168D-02 0.694D-03-0.188D-01-0.394D-01-0.126D-01 0.344D+00
 Coeff-Com:  0.724D+00
 Coeff:      0.716D-05-0.125D-04-0.149D-04-0.631D-04 0.357D-04 0.781D-03
 Coeff:      0.168D-02 0.694D-03-0.188D-01-0.394D-01-0.126D-01 0.344D+00
 Coeff:      0.724D+00
 Gap=     0.211 Goal=   None    Shift=    0.000
 RMSDP=3.55D-08 MaxDP=2.75D-06 DE=-5.08D-10 OVMax= 5.36D-06

 Cycle  14  Pass 1  IDiag  1:
 RMSU=  2.24D-08    CP:  8.73D-01  1.34D-01  1.08D+00  1.29D+00  1.33D+00
                    CP:  1.33D+00  1.11D+00  1.46D+00  1.38D+00  1.35D+00
                    CP:  1.27D+00  1.32D+00  1.18D+00
 E= -571.921055724416     Delta-E=       -0.000000000088 Rises=F Damp=F
 DIIS: error= 8.88D-08 at cycle  14 NSaved=  14.
 NSaved=14 IEnMin=14 EnMin= -571.921055724416     IErMin=14 ErrMin= 8.88D-08
 ErrMax= 8.88D-08  0.00D+00 EMaxC= 1.00D-01 BMatC= 1.10D-11 BMatP= 4.34D-11
 IDIUse=1 WtCom= 1.00D+00 WtEn= 0.00D+00
 Coeff-Com:  0.562D-06-0.134D-05 0.111D-04 0.136D-04 0.884D-05 0.881D-04
 Coeff-Com:  0.146D-03 0.451D-03 0.133D-02-0.748D-02-0.440D-01 0.953D-02
 Coeff-Com:  0.364D+00 0.676D+00
 Coeff:      0.562D-06-0.134D-05 0.111D-04 0.136D-04 0.884D-05 0.881D-04
 Coeff:      0.146D-03 0.451D-03 0.133D-02-0.748D-02-0.440D-01 0.953D-02
 Coeff:      0.364D+00 0.676D+00
 Gap=     0.211 Goal=   None    Shift=    0.000
 RMSDP=1.81D-08 MaxDP=1.83D-06 DE=-8.78D-11 OVMax= 2.25D-06

 Cycle  15  Pass 1  IDiag  1:
 RMSU=  9.90D-09    CP:  8.73D-01  1.34D-01  1.08D+00  1.29D+00  1.33D+00
                    CP:  1.33D+00  1.11D+00  1.46D+00  1.38D+00  1.35D+00
                    CP:  1.27D+00  1.36D+00  1.27D+00  1.07D+00
 E= -571.921055724434     Delta-E=       -0.000000000018 Rises=F Damp=F
 DIIS: error= 3.54D-08 at cycle  15 NSaved=  15.
 NSaved=15 IEnMin=15 EnMin= -571.921055724434     IErMin=15 ErrMin= 3.54D-08
 ErrMax= 3.54D-08  0.00D+00 EMaxC= 1.00D-01 BMatC= 1.47D-12 BMatP= 1.10D-11
 IDIUse=1 WtCom= 1.00D+00 WtEn= 0.00D+00
 Coeff-Com: -0.777D-06 0.108D-05 0.594D-05 0.149D-04-0.675D-06-0.705D-04
 Coeff-Com: -0.190D-03 0.286D-04 0.324D-02 0.252D-02-0.170D-01-0.529D-01
 Coeff-Com:  0.433D-01 0.311D+00 0.711D+00
 Coeff:     -0.777D-06 0.108D-05 0.594D-05 0.149D-04-0.675D-06-0.705D-04
 Coeff:     -0.190D-03 0.286D-04 0.324D-02 0.252D-02-0.170D-01-0.529D-01
 Coeff:      0.433D-01 0.311D+00 0.711D+00
 Gap=     0.211 Goal=   None    Shift=    0.000
 RMSDP=6.59D-09 MaxDP=6.59D-07 DE=-1.77D-11 OVMax= 1.02D-06

 SCF Done:  E(RM062X) =  -571.921055724     A.U. after   15 cycles
            NFock= 15  Conv=0.66D-08     -V/T= 2.0049
 KE= 5.691049678682D+02 PE=-2.801854517303D+03 EE= 9.270648631334D+02
[...]
    21  H    0.000000
    22  C    0.000000
    23  O    0.000000
    24  O    0.000000
    25  O    0.000000
    26  H    0.000000
    27  H    0.000000
    28  O   -0.561407
    29  H    0.277125
    30  H    0.284282
    31  O    0.000000
    32  H    0.000000
    33  H    0.000000
 Sum of Mulliken charges =  -0.00000
 Mulliken charges with hydrogens summed into heavy atoms:
               1
     1  C    0.000000
     2  C    0.000000
     3  C    0.000000
     4  N    0.000000
     8  C    0.000000
    12  N    0.000000
    13  C    0.000000
    16  C    0.000000
    19  C    0.000000
    22  C    0.000000
    23  O    0.000000
    24  O    0.000000
    25  O    0.000000
    28  O   -0.000000
    31  O    0.000000
         Mulliken charges condensed to fragments:
      1      0.000000
      2      0.000000
      3     -0.000000
      4      0.000000
 Electronic spatial extent (au):  <R**2>=          15248.0868
 Charge=              0.0000 electrons
 Dipole moment (field-independent basis, Debye):
    X=              1.6085    Y=             -0.6145    Z=             -1.2087  Tot=              2.1038
 Quadrupole moment (field-independent basis, Debye-Ang):
   XX=             30.5167   YY=            -20.6227   ZZ=            -35.6376
   XY=             14.1892   XZ=              5.0802   YZ=            -21.3895
 Traceless Quadrupole moment (field-independent basis, Debye-Ang):
   XX=             39.0979   YY=            -12.0415   ZZ=            -27.0564
   XY=             14.1892   XZ=              5.0802   YZ=            -21.3895
 Octapole moment (field-independent basis, Debye-Ang**2):
  XXX=            418.0253  YYY=           -486.3983  ZZZ=           -757.9424  XYY=             44.0645
  XXY=            326.7721  XXZ=            199.8895  XZZ=           -184.9091  YZZ=           -508.5657
  YYZ=           -408.8299  XYZ=              4.7081
 Hexadecapole moment (field-independent basis, Debye-Ang**3):
 XXXX=           4791.7156 YYYY=          -9794.1025 ZZZZ=         -13953.3169 XXXY=           4752.1843
 XXXZ=           3082.3927 YYYX=          -1869.5240 YYYZ=          -7678.3624 ZZZX=          -6039.5358
 ZZZY=         -10094.1758 XXYY=           2729.5682 XXZZ=           -453.0312 YYZZ=          -7901.5244
 XXYZ=           1978.5314 YYXZ=          -1386.3941 ZZXY=          -2880.0903
 N-N= 9.061751859832D+00 E-N=-1.989699129490D+02  KE= 7.618005550632D+01
 No NMR shielding tensors so no spin-rotation constants.
 Leave Link  601 at Mon Feb 20 08:42:33 2023, MaxMem=  6710886400 cpu:               1.8 elap:               0.1
 (Enter /data0/home/software/g16/l122.exe)
 CPIOFr:  IOpCl= 0 IRwI=-1 IRwCP=  731 ICalc=  7 LCPTot=      405934 Len1MO=     1063483 IndFrg=     8913798
 Counterpoise: doing calculation for fragment   4 using the basis set of the fragment.
 Leave Link  122 at Mon Feb 20 08:42:33 2023, MaxMem=  6710886400 cpu:               0.2 elap:               0.0
 (Enter /data0/home/software/g16/l301.exe)
 Basis read from rwf:  (5D, 7F)
 No pseudopotential information found on rwf file.
    39 basis functions,    58 primitive gaussians,    41 cartesian basis functions
     5 alpha electrons        5 beta electrons
       nuclear repulsion energy         9.1242575124 Hartrees.
 IExCor= 4336 DFT=T Ex+Corr=M062X ExCW=0 ScaHFX=  0.540000
 ScaDFX=  1.000000  1.000000  1.000000  1.000000 ScalE2=  1.000000  1.000000
 IRadAn=      5 IRanWt=     -1 IRanGd=            0 ICorTp=0 IEmpDi=131
 NAtoms=   33 NActive=    3 NUniq=    3 SFac= 1.00D+00 NAtFMM=   60 NAOKFM=F Big=F
 Integral buffers will be    131072 words long.
 Raffenetti 2 integral format.
 Two-electron integral symmetry is turned off.
 R6Disp:  Grimme-D3 Dispersion energy=       -0.0000000075 Hartrees.
 Nuclear repulsion after empirical dispersion term =        9.1242575049 Hartrees.
 No density basis found on file   718.
 Leave Link  301 at Mon Feb 20 08:42:33 2023, MaxMem=  6710886400 cpu:               1.3 elap:               0.1
 (Enter /data0/home/software/g16/l302.exe)
 NPDir=0 NMtPBC=     1 NCelOv=     1 NCel=       1 NClECP=     1 NCelD=      1
         NCelK=      1 NCelE2=     1 NClLst=     1 CellRange=     0.0.
 One-electron integrals computed using PRISM.
 NBasis=    39 RedAO= T EigKep=  3.01D-03  NBF=    39
 NBsUse=    39 1.00D-06 EigRej= -1.00D+00 NBFU=    39
 Precomputing XC quadrature grid using
 IXCGrd= 4 IRadAn=           5 IRanWt=          -1 IRanGd=           0 AccXCQ= 0.00D+00.
 Generated NRdTot=       0 NPtTot=           0 NUsed=           0 NTot=          32
 NSgBfM=    41    41    41    41    41 MxSgAt=     3 MxSgA2=     3.
 Leave Link  302 at Mon Feb 20 08:42:33 2023, MaxMem=  6710886400 cpu:               2.3 elap:               0.1
 (Enter /data0/home/software/g16/l303.exe)
 DipDrv:  MaxL=1.
 Leave Link  303 at Mon Feb 20 08:42:33 2023, MaxMem=  6710886400 cpu:               0.4 elap:               0.0
 (Enter /data0/home/software/g16/l401.exe)
 ExpMin= 8.45D-02 ExpMax= 8.59D+03 ExpMxC= 1.30D+03 IAcc=3 IRadAn=         5 AccDes= 0.00D+00
 Harris functional with IExCor= 1009 and IRadAn=       5 diagonalized for initial guess.
 HarFok:  IExCor= 1009 AccDes= 0.00D+00 IRadAn=         5 IDoV= 1 UseB2=F ITyADJ=14
 ICtDFT=  3500011 ScaDFX=  1.000000  1.000000  1.000000  1.000000
 FoFCou: FMM=F IPFlag=           0 FMFlag=      100000 FMFlg1=           0
         NFxFlg=           0 DoJE=T BraDBF=F KetDBF=T FulRan=T
         wScrn=  0.000000 ICntrl=       500 IOpCl=  0 I1Cent=   200000004 NGrid=           0
         NMat0=    1 NMatS0=      1 NMatT0=    0 NMatD0=    1 NMtDS0=    0 NMtDT0=    0
 Symmetry not used in FoFCou.
 Harris En= -76.4167491470890    
 JPrj=0 DoOrth=F DoCkMO=F.
 Leave Link  401 at Mon Feb 20 08:42:33 2023, MaxMem=  6710886400 cpu:               2.9 elap:               0.1
 (Enter /data0/home/software/g16/l502.exe)
 Keep R1 ints in memory in canonical form, NReq=21042882.
 FoFCou: FMM=F IPFlag=           0 FMFlag=           0 FMFlg1=           0
         NFxFlg=           0 DoJE=F BraDBF=F KetDBF=F FulRan=T
         wScrn=  0.000000 ICntrl=       600 IOpCl=  0 I1Cent=           0 NGrid=           0
         NMat0=    1 NMatS0=    780 NMatT0=    0 NMatD0=    1 NMtDS0=    0 NMtDT0=    0
 Symmetry not used in FoFCou.
 Two-electron integral symmetry not used.
 Closed shell SCF:
 Using DIIS extrapolation, IDIIS=  1040.
 NGot=  6710886400 LenX=  6710576064 LenY=  6710573942
 Requested convergence on RMS density matrix=1.00D-08 within 128 cycles.
 Requested convergence on MAX density matrix=1.00D-06.
 Requested convergence on             energy=1.00D-06.
 No special actions if energy rises.
 Integral accuracy reduced to 1.0D-05 until final iterations.

 Cycle   1  Pass 0  IDiag  1:
 E= -76.3462015995642    
 DIIS: error= 7.04D-02 at cycle   1 NSaved=   1.
 NSaved= 1 IEnMin= 1 EnMin= -76.3462015995642     IErMin= 1 ErrMin= 7.04D-02
 ErrMax= 7.04D-02  0.00D+00 EMaxC= 1.00D-01 BMatC= 1.21D-01 BMatP= 1.21D-01
 IDIUse=3 WtCom= 2.96D-01 WtEn= 7.04D-01
 Coeff-Com:  0.100D+01
 Coeff-En:   0.100D+01
 Coeff:      0.100D+01
 Gap=     0.325 Goal=   None    Shift=    0.000
 GapD=    0.325 DampG=1.000 DampE=0.500 DampFc=0.5000 IDamp=-1.
 Damping current iteration by 5.00D-01
 RMSDP=7.92D-03 MaxDP=1.01D-01              OVMax= 1.68D-01

 Cycle   2  Pass 0  IDiag  1:
 E= -76.3777999574491     Delta-E=       -0.031598357885 Rises=F Damp=T
 DIIS: error= 1.15D-02 at cycle   2 NSaved=   2.
 NSaved= 2 IEnMin= 2 EnMin= -76.3777999574491     IErMin= 2 ErrMin= 1.15D-02
 ErrMax= 1.15D-02  0.00D+00 EMaxC= 1.00D-01 BMatC= 4.80D-03 BMatP= 1.21D-01
 IDIUse=3 WtCom= 8.85D-01 WtEn= 1.15D-01
 Coeff-Com:  0.812D-01 0.919D+00
 Coeff-En:   0.186D+00 0.814D+00
 Coeff:      0.932D-01 0.907D+00
 Gap=     0.458 Goal=   None    Shift=    0.000
 RMSDP=9.37D-04 MaxDP=1.39D-02 DE=-3.16D-02 OVMax= 1.00D-01

 Cycle   3  Pass 0  IDiag  1:
 E= -76.4217779438815     Delta-E=       -0.043977986432 Rises=F Damp=F
 DIIS: error= 2.16D-03 at cycle   3 NSaved=   3.
 NSaved= 3 IEnMin= 3 EnMin= -76.4217779438815     IErMin= 3 ErrMin= 2.16D-03
 ErrMax= 2.16D-03  0.00D+00 EMaxC= 1.00D-01 BMatC= 9.03D-05 BMatP= 4.80D-03
 IDIUse=3 WtCom= 9.78D-01 WtEn= 2.16D-02
 Coeff-Com: -0.199D-01 0.392D-01 0.981D+00
 Coeff-En:   0.000D+00 0.000D+00 0.100D+01
 Coeff:     -0.195D-01 0.383D-01 0.981D+00
 Gap=     0.462 Goal=   None    Shift=    0.000
 RMSDP=1.14D-04 MaxDP=1.02D-03 DE=-4.40D-02 OVMax= 3.29D-03

 Cycle   4  Pass 0  IDiag  1:
 E= -76.4218548841873     Delta-E=       -0.000076940306 Rises=F Damp=F
 DIIS: error= 4.09D-04 at cycle   4 NSaved=   4.
 NSaved= 4 IEnMin= 4 EnMin= -76.4218548841873     IErMin= 4 ErrMin= 4.09D-04
 ErrMax= 4.09D-04  0.00D+00 EMaxC= 1.00D-01 BMatC= 3.24D-06 BMatP= 9.03D-05
 IDIUse=3 WtCom= 9.96D-01 WtEn= 4.09D-03
 Coeff-Com: -0.186D-02-0.222D-02 0.162D+00 0.843D+00
 Coeff-En:   0.000D+00 0.000D+00 0.000D+00 0.100D+01
 Coeff:     -0.185D-02-0.221D-02 0.161D+00 0.843D+00
 Gap=     0.463 Goal=   None    Shift=    0.000
 RMSDP=2.20D-05 MaxDP=3.52D-04 DE=-7.69D-05 OVMax= 5.30D-04

 Cycle   5  Pass 0  IDiag  1:
 E= -76.4218568819273     Delta-E=       -0.000001997740 Rises=F Damp=F
 DIIS: error= 8.77D-05 at cycle   5 NSaved=   5.
 NSaved= 5 IEnMin= 5 EnMin= -76.4218568819273     IErMin= 5 ErrMin= 8.77D-05
 ErrMax= 8.77D-05  0.00D+00 EMaxC= 1.00D-01 BMatC= 8.12D-08 BMatP= 3.24D-06
 IDIUse=1 WtCom= 1.00D+00 WtEn= 0.00D+00
 Coeff-Com:  0.117D-02-0.178D-02-0.363D-01-0.636D-01 0.110D+01
 Coeff:      0.117D-02-0.178D-02-0.363D-01-0.636D-01 0.110D+01
 Gap=     0.463 Goal=   None    Shift=    0.000
 RMSDP=8.87D-06 MaxDP=1.02D-04 DE=-2.00D-06 OVMax= 1.99D-04

 Initial convergence to 1.0D-05 achieved.  Increase integral accuracy.
 Cycle   6  Pass 1  IDiag  1:
 E= -76.4218595964223     Delta-E=       -0.000002714495 Rises=F Damp=F
 DIIS: error= 3.12D-05 at cycle   1 NSaved=   1.
 NSaved= 1 IEnMin= 1 EnMin= -76.4218595964223     IErMin= 1 ErrMin= 3.12D-05
 ErrMax= 3.12D-05  0.00D+00 EMaxC= 1.00D-01 BMatC= 1.66D-08 BMatP= 1.66D-08
 IDIUse=1 WtCom= 1.00D+00 WtEn= 0.00D+00
 Coeff-Com:  0.100D+01
 Coeff:      0.100D+01
 Gap=     0.463 Goal=   None    Shift=    0.000
 RMSDP=8.87D-06 MaxDP=1.02D-04 DE=-2.71D-06 OVMax= 3.35D-05

 Cycle   7  Pass 1  IDiag  1:
 E= -76.4218596094444     Delta-E=       -0.000000013022 Rises=F Damp=F
 DIIS: error= 8.18D-06 at cycle   2 NSaved=   2.
 NSaved= 2 IEnMin= 2 EnMin= -76.4218596094444     IErMin= 2 ErrMin= 8.18D-06
 ErrMax= 8.18D-06  0.00D+00 EMaxC= 1.00D-01 BMatC= 9.79D-10 BMatP= 1.66D-08
 IDIUse=1 WtCom= 1.00D+00 WtEn= 0.00D+00
 Coeff-Com:  0.234D-01 0.977D+00
 Coeff:      0.234D-01 0.977D+00
 Gap=     0.463 Goal=   None    Shift=    0.000
 RMSDP=6.90D-07 MaxDP=1.02D-05 DE=-1.30D-08 OVMax= 1.90D-05

 Cycle   8  Pass 1  IDiag  1:
 E= -76.4218596095739     Delta-E=       -0.000000000130 Rises=F Damp=F
 DIIS: error= 6.51D-06 at cycle   3 NSaved=   3.
 NSaved= 3 IEnMin= 3 EnMin= -76.4218596095739     IErMin= 3 ErrMin= 6.51D-06
 ErrMax= 6.51D-06  0.00D+00 EMaxC= 1.00D-01 BMatC= 1.03D-09 BMatP= 9.79D-10
 IDIUse=1 WtCom= 1.00D+00 WtEn= 0.00D+00
 Coeff-Com: -0.483D-01 0.527D+00 0.522D+00
 Coeff:     -0.483D-01 0.527D+00 0.522D+00
 Gap=     0.463 Goal=   None    Shift=    0.000
 RMSDP=3.56D-07 MaxDP=5.13D-06 DE=-1.30D-10 OVMax= 7.72D-06

 Cycle   9  Pass 1  IDiag  1:
 E= -76.4218596102474     Delta-E=       -0.000000000674 Rises=F Damp=F
 DIIS: error= 4.98D-07 at cycle   4 NSaved=   4.
 NSaved= 4 IEnMin= 4 EnMin= -76.4218596102474     IErMin= 4 ErrMin= 4.98D-07
 ErrMax= 4.98D-07  0.00D+00 EMaxC= 1.00D-01 BMatC= 2.62D-12 BMatP= 9.79D-10
 IDIUse=1 WtCom= 1.00D+00 WtEn= 0.00D+00
 Coeff-Com:  0.600D-02-0.100D+00-0.619D-01 0.116D+01
 Coeff:      0.600D-02-0.100D+00-0.619D-01 0.116D+01
 Gap=     0.463 Goal=   None    Shift=    0.000
 RMSDP=7.54D-08 MaxDP=6.24D-07 DE=-6.74D-10 OVMax= 1.77D-06

 Cycle  10  Pass 1  IDiag  1:
 E= -76.4218596102531     Delta-E=       -0.000000000006 Rises=F Damp=F
 DIIS: error= 5.41D-08 at cycle   5 NSaved=   5.
 NSaved= 5 IEnMin= 5 EnMin= -76.4218596102531     IErMin= 5 ErrMin= 5.41D-08
 ErrMax= 5.41D-08  0.00D+00 EMaxC= 1.00D-01 BMatC= 7.92D-14 BMatP= 2.62D-12
 IDIUse=1 WtCom= 1.00D+00 WtEn= 0.00D+00
 Coeff-Com:  0.166D-02-0.201D-01-0.205D-01 0.316D-01 0.101D+01
 Coeff:      0.166D-02-0.201D-01-0.205D-01 0.316D-01 0.101D+01
 Gap=     0.463 Goal=   None    Shift=    0.000
 RMSDP=1.66D-08 MaxDP=1.65D-07 DE=-5.66D-12 OVMax= 3.28D-07

 Cycle  11  Pass 1  IDiag  1:
 E= -76.4218596102530     Delta-E=        0.000000000000 Rises=F Damp=F
 DIIS: error= 9.00D-09 at cycle   6 NSaved=   6.
 NSaved= 6 IEnMin= 5 EnMin= -76.4218596102531     IErMin= 6 ErrMin= 9.00D-09
 ErrMax= 9.00D-09  0.00D+00 EMaxC= 1.00D-01 BMatC= 4.40D-15 BMatP= 7.92D-14
 IDIUse=1 WtCom= 1.00D+00 WtEn= 0.00D+00
 Coeff-Com: -0.170D-03 0.334D-02 0.129D-02-0.534D-01 0.922D-01 0.957D+00
 Coeff:     -0.170D-03 0.334D-02 0.129D-02-0.534D-01 0.922D-01 0.957D+00
 Gap=     0.463 Goal=   None    Shift=    0.000
 RMSDP=3.19D-09 MaxDP=3.54D-08 DE= 5.68D-14 OVMax= 6.67D-08

 SCF Done:  E(RM062X) =  -76.4218596103     A.U. after   11 cycles
            NFock= 11  Conv=0.32D-08     -V/T= 2.0029
 KE= 7.620368105210D+01 PE=-1.991028629700D+02 EE= 3.735306480279D+01
 Leave Link  502 at Mon Feb 20 08:42:34 2023, MaxMem=  6710886400 cpu:               8.6 elap:               0.4
 (Enter /data0/home/software/g16/l601.exe)
 Copying SCF densities to generalized density rwf, IOpCl= 0 IROHF=0.

 **********************************************************************

            Population analysis using the SCF density.

 **********************************************************************

 Alpha  occ. eigenvalues --  -19.62572  -1.13451  -0.60833  -0.47550  -0.40005
 Alpha virt. eigenvalues --    0.06312   0.13360   0.17391   0.17944   0.18934
 Alpha virt. eigenvalues --    0.23282   0.51279   0.53600   0.97894   1.00178
 Alpha virt. eigenvalues --    1.06035   1.18391   1.20010   1.32384   1.33774
 Alpha virt. eigenvalues --    1.69966   1.74267   1.75776   2.07925   2.09467
 Alpha virt. eigenvalues --    2.35782   2.41601   2.54599   2.88680   3.01571
 Alpha virt. eigenvalues --    5.05691   5.48417   5.93207   6.78306   6.80198
 Alpha virt. eigenvalues --    6.87152   6.91514   7.09350  49.96039
          Condensed to atoms (all electrons):
              31         32         33
    31  O    7.913972   0.322189   0.319486
    32  H    0.322189   0.425683  -0.024480
    33  H    0.319486  -0.024480   0.425955
 Mulliken charges:
               1
     1  C    0.000000
     2  C    0.000000
     3  C    0.000000
     4  N    0.000000
     5  H    0.000000
     6  H    0.000000
     7  H    0.000000
     8  C    0.000000
     9  H    0.000000
    10  H    0.000000
    11  H    0.000000
    12  N    0.000000
    13  C    0.000000
    14  H    0.000000
    15  H    0.000000
    16  C    0.000000
    17  H    0.000000
    18  H    0.000000
    19  C    0.000000
    20  H    0.000000
    21  H    0.000000
    22  C    0.000000
    23  O    0.000000
    24  O    0.000000
    25  O    0.000000
    26  H    0.000000
    27  H    0.000000
    28  O    0.000000
    29  H    0.000000
    30  H    0.000000
    31  O   -0.555647
    32  H    0.276607
    33  H    0.279040
 Sum of Mulliken charges =   0.00000
 Mulliken charges with hydrogens summed into heavy atoms:
               1
     1  C    0.000000
     2  C    0.000000
     3  C    0.000000
     4  N    0.000000
     8  C    0.000000
    12  N    0.000000
    13  C    0.000000
    16  C    0.000000
    19  C    0.000000
    22  C    0.000000
    23  O    0.000000
    24  O    0.000000
    25  O    0.000000
    28  O    0.000000
    31  O    0.000000
         Mulliken charges condensed to fragments:
      1      0.000000
      2      0.000000
      3      0.000000
      4      0.000000
 Electronic spatial extent (au):  <R**2>=           6186.9215
 Charge=              0.0000 electrons
 Dipole moment (field-independent basis, Debye):
    X=              1.3411    Y=             -0.1723    Z=             -1.6280  Tot=              2.1163
 Quadrupole moment (field-independent basis, Debye-Ang):
   XX=             12.5077   YY=             -7.2053   ZZ=            -33.3376
   XY=              9.4037   XZ=             -1.4704   YZ=            -12.9180
 Traceless Quadrupole moment (field-independent basis, Debye-Ang):
   XX=             21.8527   YY=              2.1398   ZZ=            -23.9925
   XY=              9.4037   XZ=             -1.4704   YZ=            -12.9180
 Octapole moment (field-independent basis, Debye-Ang**2):
  XXX=             61.5527  YYY=           -131.2029  ZZZ=           -491.2498  XYY=             32.7078
  XXY=             94.7329  XXZ=              7.4657  XZZ=           -162.0137  YZZ=           -249.3079
  YYZ=           -140.9447  XYZ=            -11.3759
 Hexadecapole moment (field-independent basis, Debye-Ang**3):
 XXXX=           -122.7077 YYYY=          -1802.1276 ZZZZ=          -6261.1689 XXXY=            519.3224
 XXXZ=           -218.0190 YYYX=           -271.9666 YYYZ=          -1662.4911 ZZZX=          -2946.0945
 ZZZY=          -3618.6473 XXYY=            480.5837 XXZZ=          -1064.0263 YYZZ=          -2191.3313
 XXYZ=             99.1538 YYXZ=           -364.2434 ZZXY=          -1171.3768
 N-N= 9.124257504866D+00 E-N=-1.991028629341D+02  KE= 7.620368105210D+01
 No NMR shielding tensors so no spin-rotation constants.
 Leave Link  601 at Mon Feb 20 08:42:34 2023, MaxMem=  6710886400 cpu:               1.8 elap:               0.1
 (Enter /data0/home/software/g16/l122.exe)
 CPIOFr:  IOpCl= 0 IRwI=-1 IRwCP=  731 ICalc=  8 LCPTot=      405934 Len1MO=     1063483 IndFrg=     9977281
 Restoring MOs from calculation   1 to rwf.
 CPIOFr:  IOpCl= 0 IRwI=-2 IRwCP=  731 ICalc=  0 LCPTot=      405934 Len1MO=     1063483 IndFrg=     1469417
 Counterpoise corrected energy =    -801.249481315582
                   BSSE energy =       0.004182883588
              sum of fragments =    -801.184991681718
           complexation energy =     -43.09 kcal/mole (raw)
           complexation energy =     -40.47 kcal/mole (corrected)
 Leave Link  122 at Mon Feb 20 08:42:34 2023, MaxMem=  6710886400 cpu:               0.4 elap:               0.0
 (Enter /data0/home/software/g16/l9999.exe)
 1\1\GINC-LOCALHOST\SP\RM062X\6-311+G(2d,p)\C8H18N2O5\WUHANYU\20-Feb-20
 23\0\\#p M062X/6-311+G(2d,p) nosymm em=GD3 counterpoise=4\\Title Card 
 Required\\0,1\C,0,7.412586,10.236837,9.458117\C,0,7.587109,9.731091,10
 .743511\C,0,8.845724,11.585301,10.54813\N,0,8.188275,11.388639,9.36459
 3\H,0,6.82973,9.845525,8.635859\H,0,7.173088,8.84001,11.195885\H,0,9.5
 60341,12.382714,10.762421\C,0,8.312341,12.249198,8.202663\H,0,9.383305
 ,12.455415,7.973076\H,0,7.895994,11.755416,7.29639\H,0,7.787208,13.206
 046,8.362616\N,0,8.469876,10.583249,11.404221\C,0,8.943651,10.432451,1
 2.780915\H,0,8.056659,10.440888,13.458326\H,0,9.572141,11.319895,13.05
 4124\C,0,9.750413,9.139725,12.983117\H,0,9.777934,8.906695,14.067683\H
 ,0,9.230129,8.272127,12.516986\C,0,11.176253,9.235686,12.447731\H,0,11
 .77066,8.360078,12.780059\H,0,11.696188,10.131166,12.837786\C,0,11.155
 251,9.25409,10.922502\O,0,11.260607,10.377079,10.363444\O,0,11.008179,
 8.17735,10.324257\O,0,8.470898,6.876046,10.718795\H,0,9.368435,7.19940
 3,10.564588\H,0,8.023076,6.969913,9.871807\O,0,11.315486,12.544952,11.
 888769\H,0,12.130073,13.012322,11.758161\H,0,11.395056,11.720235,11.33
 7715\O,0,7.173737,7.353745,8.215462\H,0,7.341317,6.581196,7.676528\H,0
 ,7.759569,8.034842,7.842249\\Version=ES64L-G16RevA.03\HF=-76.4218596\R
 MSD=3.192e-09\Dipole=-2.2894443,2.2531922,-1.3795448\Quadrupole=-70.47
 12436,96.1027027,-25.6314591,-1.9810915,-62.6469887,18.9322366\PG=C01 
 [X(C8H18N2O5)]\\@


 THE HURRIEDER I GO, THE BEHINDER I GET.
 Job cpu time:       0 days  3 hours  6 minutes 10.7 seconds.
 Elapsed time:       0 days  0 hours  7 minutes 48.4 seconds.
 File lengths (MBytes):  RWF=    240 Int=      0 D2E=      0 Chk=     92 Scr=      1
 Normal termination of Gaussian 16 at Mon Feb 20 08:42:34 2023.
