 Entering Gaussian System, Link 0=g16
 Initial command:
 /data0/hywu0/study/g16/l1.exe "/data0/hywu0/study/g16/scratch/Gau-872550.inp" -scrdir="/data0/hywu0/study/g16/scratch/"
 Default is to use a total of   8 processors:
                                8 via shared-memory
                                1 via Linda
 Entering Link 1 = /data0/hywu0/study/g16/l1.exe PID=    872551.
  
 Copyright (c) 1988,1990,1992,1993,1995,1998,2003,2009,2016,
            Gaussian, Inc.  All Rights Reserved.
  
 This is part of the Gaussian(R) 16 program.  It is based on
 the Gaussian(R) 09 system (copyright 2009, Gaussian, Inc.),
 the Gaussian(R) 03 system (copyright 2003, Gaussian, Inc.),
 the Gaussian(R) 98 system (copyright 1998, Gaussian, Inc.),
 the Gaussian(R) 94 system (copyright 1995, Gaussian, Inc.),
 the Gaussian 92(TM) system (copyright 1992, Gaussian, Inc.),
 the Gaussian 90(TM) system (copyright 1990, Gaussian, Inc.),
 the Gaussian 88(TM) system (copyright 1988, Gaussian, Inc.),
 the Gaussian 86(TM) system (copyright 1986, Carnegie Mellon
 University), and the Gaussian 82(TM) system (copyright 1983,
 Carnegie Mellon University). Gaussian is a federally registered
 trademark of Gaussian, Inc.
  
 This software contains proprietary and confidential information,
 including trade secrets, belonging to Gaussian, Inc.
  
 This software is provided under written license and may be
 used, copied, transmitted, or stored only in accord with that
 written license.
  
 The following legend is applicable only to US Government
 contracts under FAR:
  
                    RESTRICTED RIGHTS LEGEND
  
 Use, reproduction and disclosure by the US Government is
 subject to restrictions as set forth in subparagraphs (a)
 and (c) of the Commercial Computer Software - Restricted
 Rights clause in FAR 52.227-19.
  
 Gaussian, Inc.
 340 Quinnipiac St., Bldg. 40, Wallingford CT 06492
  
  
 ---------------------------------------------------------------
 Warning -- This program may not be used in any manner that
 competes with the business of Gaussian, Inc. or will provide
 assistance to any competitor of Gaussian, Inc.  The licensee
 of this program is prohibited from giving any competitor of
 Gaussian, Inc. access to this program.  By using this program,
 the user acknowledges that Gaussian, Inc. is engaged in the
 business of creating and licensing software in the field of
 computational chemistry and represents and warrants to the
 licensee that it is not a competitor of Gaussian, Inc. and that
 it will not use this program in any manner prohibited above.
 ---------------------------------------------------------------
  

 Cite this work as:
 Gaussian 16, Revision A.03,
 M. J. Frisch, G. W. Trucks, H. B. Schlegel, G. E. Scuseria, 
 M. A. Robb, J. R. Cheeseman, G. Scalmani, V. Barone, 
 G. A. Petersson, H. Nakatsuji, X. Li, M. Caricato, A. V. Marenich, 
 J. Bloino, B. G. Janesko, R. Gomperts, B. Mennucci, H. P. Hratchian, 
 J. V. Ortiz, A. F. Izmaylov, J. L. Sonnenberg, D. Williams-Young, 
 F. Ding, F. Lipparini, F. Egidi, J. Goings, B. Peng, A. Petrone, 
 T. Henderson, D. Ranasinghe, V. G. Zakrzewski, J. Gao, N. Rega, 
 G. Zheng, W. Liang, M. Hada, M. Ehara, K. Toyota, R. Fukuda, 
 J. Hasegawa, M. Ishida, T. Nakajima, Y. Honda, O. Kitao, H. Nakai, 
 T. Vreven, K. Throssell, J. A. Montgomery, Jr., J. E. Peralta, 
 F. Ogliaro, M. J. Bearpark, J. J. Heyd, E. N. Brothers, K. N. Kudin, 
 V. N. Staroverov, T. A. Keith, R. Kobayashi, J. Normand, 
 K. Raghavachari, A. P. Rendell, J. C. Burant, S. S. Iyengar, 
 J. Tomasi, M. Cossi, J. M. Millam, M. Klene, C. Adamo, R. Cammi, 
 J. W. Ochterski, R. L. Martin, K. Morokuma, O. Farkas, 
 J. B. Foresman, and D. J. Fox, Gaussian, Inc., Wallingford CT, 2016.
 
 ******************************************
 Gaussian 16:  ES64L-G16RevA.03 25-Dec-2016
                10-Jul-2023 
 ******************************************
 %chk=MPySO3.chk
 %nprocshared=16
 Will use up to   16 processors via shared memory.
 %mem=50GB
 ------------------------------------
 #p 6-311+g(2d,p) nosymm em=gd3 m062x
 ------------------------------------
 1/38=1,172=1/1;
 2/12=2,15=1,17=6,18=5,40=1/2;
 3/5=4,6=6,7=112,11=2,25=1,30=1,74=-55,124=31/1,2,3;
 4//1;
 5/5=2,38=5/2;
 6/7=2,8=2,9=2,10=2,28=1/1;
 99/5=1,9=1/99;
 Leave Link    1 at Mon Jul 10 19:06:34 2023, MaxMem=  6710886400 cpu:               0.5 elap:               0.0
 (Enter /data0/hywu0/study/g16/l101.exe)
 -------------------
 Title Card Required
 -------------------
 Symbolic Z-matrix:
 Charge =  0 Multiplicity = 1
 C                     13.80842   5.54305   8.39559 
 C                     14.75194   5.59621   7.37845 
 C                     14.79938   6.70814   6.53243 
 C                     13.83051   7.69855   6.65494 
 C                     12.8395   7.57315   7.64749 
 H                     15.60622   6.80529   5.80426 
 H                     13.80114   4.72558   9.13079 
 H                     15.49997   4.80465   7.29675 
 H                     12.02131   8.30901   7.71815 
 C                     13.84141   8.93353   5.8339 
 H                     14.62127   8.93671   5.06286 
 H                     12.88203   9.13152   5.33979 
 H                     14.04425   9.80732   6.49955 
 N                     12.87626   6.54143   8.5279 
 C                     11.94494   6.46539   9.68023 
 H                     11.07983   5.83393   9.37467 
 H                     12.47462   5.93144   10.51597 
 C                     11.4436   7.81877   10.21905 
 H                     11.10057   8.48501   9.40074 
 H                     10.51779   7.61723   10.80463 
 C                     12.45151   8.5197    11.11841 
 H                     13.16617   7.80386   11.56786 
 H                     11.94234   8.98772   11.98074 
 S                     13.39933   9.83573   10.29037 
 O                     14.56095   10.05292   11.1822 
 O                     12.4578   10.93259   10.10402 
 O                     13.83531   9.21306   8.9793 
 
 ITRead=  0  0  0  0  0  0  0  0  0  0  0  0  0  0  0  0  0  0  0  0
 ITRead=  0  0  0  0  0  0  0
 MicOpt= -1 -1 -1 -1 -1 -1 -1 -1 -1 -1 -1 -1 -1 -1 -1 -1 -1 -1 -1 -1
 MicOpt= -1 -1 -1 -1 -1 -1 -1
 NAtoms=     27 NQM=       27 NQMF=       0 NMMI=      0 NMMIF=      0
                NMic=       0 NMicF=      0.
                    Isotopes and Nuclear Properties:
 (Nuclear quadrupole moments (NQMom) in fm**2, nuclear magnetic moments (NMagM)
  in nuclear magnetons)

  Atom         1           2           3           4           5           6           7           8           9          10
 IAtWgt=          12          12          12          12          12           1           1           1           1          12
 AtmWgt=  12.0000000  12.0000000  12.0000000  12.0000000  12.0000000   1.0078250   1.0078250   1.0078250   1.0078250  12.0000000
 NucSpn=           0           0           0           0           0           1           1           1           1           0
 AtZEff=  -0.0000000  -0.0000000  -0.0000000  -0.0000000  -0.0000000  -0.0000000  -0.0000000  -0.0000000  -0.0000000  -0.0000000
 NQMom=    0.0000000   0.0000000   0.0000000   0.0000000   0.0000000   0.0000000   0.0000000   0.0000000   0.0000000   0.0000000
 NMagM=    0.0000000   0.0000000   0.0000000   0.0000000   0.0000000   2.7928460   2.7928460   2.7928460   2.7928460   0.0000000
 AtZNuc=   6.0000000   6.0000000   6.0000000   6.0000000   6.0000000   1.0000000   1.0000000   1.0000000   1.0000000   6.0000000

  Atom        11          12          13          14          15          16          17          18          19          20
 IAtWgt=           1           1           1          14          12           1           1          12           1           1
 AtmWgt=   1.0078250   1.0078250   1.0078250  14.0030740  12.0000000   1.0078250   1.0078250  12.0000000   1.0078250   1.0078250
 NucSpn=           1           1           1           2           0           1           1           0           1           1
 AtZEff=  -0.0000000  -0.0000000  -0.0000000  -0.0000000  -0.0000000  -0.0000000  -0.0000000  -0.0000000  -0.0000000  -0.0000000
 NQMom=    0.0000000   0.0000000   0.0000000   2.0440000   0.0000000   0.0000000   0.0000000   0.0000000   0.0000000   0.0000000
 NMagM=    2.7928460   2.7928460   2.7928460   0.4037610   0.0000000   2.7928460   2.7928460   0.0000000   2.7928460   2.7928460
 AtZNuc=   1.0000000   1.0000000   1.0000000   7.0000000   6.0000000   1.0000000   1.0000000   6.0000000   1.0000000   1.0000000

  Atom        21          22          23          24          25          26          27
 IAtWgt=          12           1           1          32          16          16          16
 AtmWgt=  12.0000000   1.0078250   1.0078250  31.9720718  15.9949146  15.9949146  15.9949146
 NucSpn=           0           1           1           0           0           0           0
 AtZEff=  -0.0000000  -0.0000000  -0.0000000  -0.0000000  -0.0000000  -0.0000000  -0.0000000
 NQMom=    0.0000000   0.0000000   0.0000000   0.0000000   0.0000000   0.0000000   0.0000000
 NMagM=    0.0000000   2.7928460   2.7928460   0.0000000   0.0000000   0.0000000   0.0000000
 AtZNuc=   6.0000000   1.0000000   1.0000000  16.0000000   8.0000000   8.0000000   8.0000000
 Leave Link  101 at Mon Jul 10 19:06:35 2023, MaxMem=  6710886400 cpu:               2.1 elap:               0.1
 (Enter /data0/hywu0/study/g16/l202.exe)
                          Input orientation:                          
 ---------------------------------------------------------------------
 Center     Atomic      Atomic             Coordinates (Angstroms)
 Number     Number       Type             X           Y           Z
 ---------------------------------------------------------------------
      1          6           0       13.808423    5.543051    8.395590
      2          6           0       14.751938    5.596212    7.378449
      3          6           0       14.799375    6.708136    6.532431
      4          6           0       13.830507    7.698546    6.654939
      5          6           0       12.839499    7.573151    7.647490
      6          1           0       15.606224    6.805293    5.804262
      7          1           0       13.801143    4.725584    9.130792
      8          1           0       15.499966    4.804646    7.296745
      9          1           0       12.021307    8.309011    7.718148
     10          6           0       13.841413    8.933528    5.833897
     11          1           0       14.621265    8.936711    5.062859
     12          1           0       12.882031    9.131521    5.339790
     13          1           0       14.044245    9.807324    6.499550
     14          7           0       12.876263    6.541434    8.527901
     15          6           0       11.944940    6.465392    9.680225
     16          1           0       11.079830    5.833932    9.374675
     17          1           0       12.474618    5.931438   10.515968
     18          6           0       11.443602    7.818771   10.219052
     19          1           0       11.100575    8.485008    9.400738
     20          1           0       10.517792    7.617232   10.804633
     21          6           0       12.451511    8.519699   11.118406
     22          1           0       13.166169    7.803864   11.567857
     23          1           0       11.942338    8.987721   11.980743
     24         16           0       13.399325    9.835729   10.290369
     25          8           0       14.560946   10.052924   11.182197
     26          8           0       12.457796   10.932593   10.104022
     27          8           0       13.835306    9.213058    8.979297
 ---------------------------------------------------------------------
                    Distance matrix (angstroms):
                    1          2          3          4          5
     1  C    0.000000
     2  C    1.388388   0.000000
     3  C    2.410554   1.397988   0.000000
     4  C    2.770652   2.406722   1.390908   0.000000
     5  C    2.370606   2.763710   2.415103   1.408183   0.000000
     6  H    3.397105   2.160960   1.091181   2.162111   3.412017
     7  H    1.099467   2.175479   3.417376   3.869007   3.351654
     8  H    2.148027   1.092153   2.167551   3.402009   3.855610
     9  H    3.362030   3.864068   3.418536   2.185471   1.102688
    10  C    4.249552   3.788453   2.521510   1.483041   2.478624
    11  H    4.825426   4.066690   2.675427   2.166349   3.422616
    12  H    4.803460   4.488997   3.312310   2.163941   2.784925
    13  H    4.672751   4.359674   3.190026   2.125270   2.785805
    14  N    1.372296   2.394335   2.776337   2.399474   1.356803
    15  C    2.444089   3.732678   4.256211   3.772053   2.481809
    16  H    2.913493   4.186383   4.762100   4.294179   3.017364
    17  H    2.534933   3.891348   4.677213   4.457426   3.325135
    18  C    3.754503   4.894270   5.107435   4.291232   2.936288
    19  H    4.122848   5.076145   5.006554   3.951008   2.632341
    20  H    4.575365   5.809583   6.116381   5.310429   3.919160
    21  C    4.256216   5.275037   5.461263   4.743254   3.618528
    22  H    3.948043   4.993949   5.405876   4.958750   3.940713
    23  H    5.310494   6.370031   6.560737   5.795804   4.645749
    24  S    4.710057   5.318115   5.085674   4.239082   3.523844
    25  O    5.354477   5.862359   5.732781   5.154872   4.648312
    26  O    5.812925   6.416292   6.007103   4.923370   4.179246
    27  O    3.716233   4.060111   3.631971   2.774240   2.335516
                    6          7          8          9         10
     6  H    0.000000
     7  H    4.318485   0.000000
     8  H    2.498276   2.501195   0.000000
     9  H    4.333100   4.243151   4.955726   0.000000
    10  C    2.764927   5.345833   4.683843   2.693178   0.000000
    11  H    2.462268   5.912214   4.778737   3.768866   1.096667
    12  H    3.612243   5.884619   5.422647   2.659691   1.097159
    13  H    3.454764   5.727706   5.270809   2.796820   1.117029
    14  N    3.865297   2.125133   3.378756   2.123906   3.729784
    15  C    5.342623   2.602748   4.590998   2.693420   4.947984
    16  H    5.846335   2.948467   4.991475   3.123536   5.456276
    17  H    5.724574   2.265494   4.559143   3.699478   5.727343
    18  C    6.151823   4.038578   5.837715   2.613159   5.120719
    19  H    6.004744   4.636724   6.109541   1.926092   4.520588
    20  H    7.180188   4.684417   6.711034   3.502214   6.122688
    21  C    6.413387   4.490816   6.140015   3.433835   5.479883
    22  H    6.337984   3.977221   5.717020   4.047980   5.883060
    23  H    7.505729   5.453732   7.217664   4.317013   6.433750
    24  S    5.846290   5.255441   6.219829   3.293345   4.568320
    25  O    6.368822   5.759003   6.597190   4.635799   5.511360
    26  O    6.740559   6.424852   7.395089   3.572968   4.913718
    27  O    4.360542   4.490160   5.003616   2.387130   3.157802
                   11         12         13         14         15
    11  H    0.000000
    12  H    1.771885   0.000000
    13  H    1.776232   1.775526   0.000000
    14  N    4.559485   4.107631   4.018013   0.000000
    15  C    5.881344   5.179359   5.068756   1.483575   0.000000
    16  H    6.384415   5.513830   5.730789   2.108259   1.113785
    17  H    6.586058   6.099126   5.798089   2.117976   1.124336
    18  C    6.159031   5.253531   4.955036   2.558144   1.540555
    19  H    5.605041   4.481391   4.339424   2.773516   2.206788
    20  H    7.179658   6.143876   5.980478   3.450107   2.151228
    21  C    6.446036   5.826841   5.052585   3.287045   2.558350
    22  H    6.761335   6.374341   5.520200   3.304407   2.616498
    23  H    7.418650   6.708648   5.927330   4.333434   3.413874
    24  S    5.443182   5.027100   3.845392   3.772568   3.721113
    25  O    6.220600   6.148289   4.717466   4.713174   4.687195
    26  O    5.837591   5.110943   4.095762   4.684181   4.516471
    27  O    4.004071   3.763163   2.558506   2.874212   3.407998
                   16         17         18         19         20
    16  H    0.000000
    17  H    1.804852   0.000000
    18  C    2.187439   2.170986   0.000000
    19  H    2.651285   3.106840   1.109584   0.000000
    20  H    2.353896   2.598922   1.113843   1.750312   0.000000
    21  C    3.483597   2.657548   1.521847   2.185547   2.156889
    22  H    3.611577   2.256256   2.187861   3.070349   2.762470
    23  H    4.181136   3.430707   2.172265   2.760020   2.300175
    24  S    4.715181   4.018640   2.810348   2.810719   3.672796
    25  O    5.760660   4.667255   3.954355   4.195965   4.735213
    26  O    5.331705   5.018121   3.276844   2.885711   3.904624
    27  O    4.378066   3.870641   3.033361   2.861193   4.109065
                   21         22         23         24         25
    21  C    0.000000
    22  H    1.106870   0.000000
    23  H    1.105408   1.752072   0.000000
    24  S    1.820970   2.411392   2.387319   0.000000
    25  O    2.608556   2.674399   2.937591   1.480505   0.000000
    26  O    2.617455   3.526124   2.751419   1.457502   2.521809
    27  O    2.640345   3.022286   3.555669   1.515489   2.466718
                   26         27
    26  O    0.000000
    27  O    2.473730   0.000000
 Symmetry turned off by external request.
 Stoichiometry    C9H13NO3S
 Framework group  C1[X(C9H13NO3S)]
 Deg. of freedom    75
 Full point group                 C1      NOp   1
 Rotational constants (GHZ):           0.9809682           0.4724245           0.3926267
 Leave Link  202 at Mon Jul 10 19:06:35 2023, MaxMem=  6710886400 cpu:               0.0 elap:               0.0
 (Enter /data0/hywu0/study/g16/l301.exe)
 Standard basis: 6-311+G(2d,p) (5D, 7F)
 Ernie: Thresh=  0.10000D-02 Tol=  0.10000D-05 Strict=F.
   464 basis functions,   706 primitive gaussians,   492 cartesian basis functions
    57 alpha electrons       57 beta electrons
       nuclear repulsion energy      1096.3716916875 Hartrees.
 IExCor= 4336 DFT=T Ex+Corr=M062X ExCW=0 ScaHFX=  0.540000
 ScaDFX=  1.000000  1.000000  1.000000  1.000000 ScalE2=  1.000000  1.000000
 IRadAn=      5 IRanWt=     -1 IRanGd=            0 ICorTp=0 IEmpDi=131
 NAtoms=   27 NActive=   27 NUniq=   27 SFac= 1.00D+00 NAtFMM=   60 NAOKFM=F Big=F
 Integral buffers will be    131072 words long.
 Raffenetti 2 integral format.
 Two-electron integral symmetry is turned off.
 R6Disp:  Grimme-D3 Dispersion energy=       -0.0015141229 Hartrees.
 Nuclear repulsion after empirical dispersion term =     1096.3701775646 Hartrees.
 Leave Link  301 at Mon Jul 10 19:06:35 2023, MaxMem=  6710886400 cpu:               0.7 elap:               0.1
 (Enter /data0/hywu0/study/g16/l302.exe)
 NPDir=0 NMtPBC=     1 NCelOv=     1 NCel=       1 NClECP=     1 NCelD=      1
         NCelK=      1 NCelE2=     1 NClLst=     1 CellRange=     0.0.
 One-electron integrals computed using PRISM.
 NBasis=   464 RedAO= T EigKep=  2.32D-06  NBF=   464
 NBsUse=   464 1.00D-06 EigRej= -1.00D+00 NBFU=   464
 Precomputing XC quadrature grid using
 IXCGrd= 4 IRadAn=           5 IRanWt=          -1 IRanGd=           0 AccXCQ= 0.00D+00.
 Generated NRdTot=       0 NPtTot=           0 NUsed=           0 NTot=          32
 NSgBfM=   492   492   492   492   492 MxSgAt=    27 MxSgA2=    27.
 Leave Link  302 at Mon Jul 10 19:06:35 2023, MaxMem=  6710886400 cpu:               5.5 elap:               0.4
 (Enter /data0/hywu0/study/g16/l303.exe)
 DipDrv:  MaxL=1.
 Leave Link  303 at Mon Jul 10 19:06:35 2023, MaxMem=  6710886400 cpu:               0.8 elap:               0.1
 (Enter /data0/hywu0/study/g16/l401.exe)
 ExpMin= 4.05D-02 ExpMax= 9.34D+04 ExpMxC= 3.17D+03 IAcc=3 IRadAn=         5 AccDes= 0.00D+00
 Harris functional with IExCor= 1009 and IRadAn=       5 diagonalized for initial guess.
 HarFok:  IExCor= 1009 AccDes= 0.00D+00 IRadAn=         5 IDoV= 1 UseB2=F ITyADJ=14
 ICtDFT=  3500011 ScaDFX=  1.000000  1.000000  1.000000  1.000000
 FoFCou: FMM=F IPFlag=           0 FMFlag=      100000 FMFlg1=           0
         NFxFlg=           0 DoJE=T BraDBF=F KetDBF=T FulRan=T
         wScrn=  0.000000 ICntrl=       500 IOpCl=  0 I1Cent=   200000004 NGrid=           0
         NMat0=    1 NMatS0=      1 NMatT0=    0 NMatD0=    1 NMtDS0=    0 NMtDT0=    0
 Symmetry not used in FoFCou.
 Harris En= -1028.88346801840    
 JPrj=0 DoOrth=F DoCkMO=F.
 Leave Link  401 at Mon Jul 10 19:06:37 2023, MaxMem=  6710886400 cpu:              29.0 elap:               1.8
 (Enter /data0/hywu0/study/g16/l502.exe)
 Two-electron integral symmetry not used.
 Closed shell SCF:
 Using DIIS extrapolation, IDIIS=  1040.
 NGot=  6710886400 LenX=  6710390931 LenY=  6710148375
 Requested convergence on RMS density matrix=1.00D-08 within 128 cycles.
 Requested convergence on MAX density matrix=1.00D-06.
 Requested convergence on             energy=1.00D-06.
 No special actions if energy rises.
 Fock matrices will be formed incrementally for  20 cycles.

 Cycle   1  Pass 1  IDiag  1:
 FoFJK:  IHMeth= 1 ICntrl=       0 DoSepK=F KAlg= 0 I1Cent=           0 FoldK=F
 IRaf= 900000000 NMat=       1 IRICut=       1 DoRegI=T DoRafI=F ISym2E= 0 IDoP0=0 IntGTp=1.
 FoFCou: FMM=F IPFlag=           0 FMFlag=      100000 FMFlg1=           0
         NFxFlg=           0 DoJE=F BraDBF=F KetDBF=F FulRan=T
         wScrn=  0.000000 ICntrl=         0 IOpCl=  0 I1Cent=           0 NGrid=           0
         NMat0=    1 NMatS0=      1 NMatT0=    0 NMatD0=    1 NMtDS0=    0 NMtDT0=    0
 Symmetry not used in FoFCou.
 E= -1028.73896903657    
 DIIS: error= 2.59D-02 at cycle   1 NSaved=   1.
 NSaved= 1 IEnMin= 1 EnMin= -1028.73896903657     IErMin= 1 ErrMin= 2.59D-02
 ErrMax= 2.59D-02  0.00D+00 EMaxC= 1.00D-01 BMatC= 7.84D-01 BMatP= 7.84D-01
 IDIUse=3 WtCom= 7.41D-01 WtEn= 2.59D-01
 Coeff-Com:  0.100D+01
 Coeff-En:   0.100D+01
 Coeff:      0.100D+01
 Gap=     0.214 Goal=   None    Shift=    0.000
 GapD=    0.214 DampG=1.000 DampE=0.500 DampFc=0.5000 IDamp=-1.
 Damping current iteration by 5.00D-01
 RMSDP=1.99D-02 MaxDP=3.23D+00              OVMax= 2.05D-01

 Cycle   2  Pass 1  IDiag  1:
 RMSU=  8.39D-03    CP:  1.27D+00
 E= -1028.95612366400     Delta-E=       -0.217154627434 Rises=F Damp=T
 DIIS: error= 5.88D-03 at cycle   2 NSaved=   2.
 NSaved= 2 IEnMin= 2 EnMin= -1028.95612366400     IErMin= 2 ErrMin= 5.88D-03
 ErrMax= 5.88D-03  0.00D+00 EMaxC= 1.00D-01 BMatC= 5.91D-02 BMatP= 7.84D-01
 IDIUse=3 WtCom= 9.41D-01 WtEn= 5.88D-02
 Coeff-Com:  0.532D-01 0.947D+00
 Coeff-En:   0.149D+00 0.851D+00
 Coeff:      0.588D-01 0.941D+00
 Gap=     0.230 Goal=   None    Shift=    0.000
 RMSDP=7.29D-03 MaxDP=1.54D+00 DE=-2.17D-01 OVMax= 1.51D-01

 Cycle   3  Pass 1  IDiag  1:
 RMSU=  3.32D-03    CP:  1.02D+00  5.00D-01
 E= -1029.23292485776     Delta-E=       -0.276801193758 Rises=F Damp=F
 DIIS: error= 4.39D-03 at cycle   3 NSaved=   3.
 NSaved= 3 IEnMin= 3 EnMin= -1029.23292485776     IErMin= 3 ErrMin= 4.39D-03
 ErrMax= 4.39D-03  0.00D+00 EMaxC= 1.00D-01 BMatC= 2.78D-02 BMatP= 5.91D-02
 IDIUse=3 WtCom= 9.56D-01 WtEn= 4.39D-02
 Coeff-Com: -0.518D-01 0.389D+00 0.663D+00
 Coeff-En:   0.000D+00 0.000D+00 0.100D+01
 Coeff:     -0.495D-01 0.372D+00 0.678D+00
 Gap=     0.201 Goal=   None    Shift=    0.000
 RMSDP=1.38D-03 MaxDP=1.13D-01 DE=-2.77D-01 OVMax= 4.29D-02

 Cycle   4  Pass 1  IDiag  1:
 RMSU=  8.37D-04    CP:  1.03D+00  6.25D-01  9.44D-01
 E= -1029.25226827165     Delta-E=       -0.019343413890 Rises=F Damp=F
 DIIS: error= 1.87D-03 at cycle   4 NSaved=   4.
 NSaved= 4 IEnMin= 4 EnMin= -1029.25226827165     IErMin= 4 ErrMin= 1.87D-03
 ErrMax= 1.87D-03  0.00D+00 EMaxC= 1.00D-01 BMatC= 4.19D-03 BMatP= 2.78D-02
 IDIUse=3 WtCom= 9.81D-01 WtEn= 1.87D-02
 Coeff-Com: -0.276D-01 0.839D-01 0.331D+00 0.613D+00
 Coeff-En:   0.000D+00 0.000D+00 0.105D+00 0.895D+00
 Coeff:     -0.271D-01 0.823D-01 0.326D+00 0.618D+00
 Gap=     0.208 Goal=   None    Shift=    0.000
 RMSDP=4.05D-04 MaxDP=3.54D-02 DE=-1.93D-02 OVMax= 1.51D-02

 Cycle   5  Pass 1  IDiag  1:
 RMSU=  2.33D-04    CP:  1.02D+00  6.00D-01  9.68D-01  7.85D-01
 E= -1029.25601517658     Delta-E=       -0.003746904933 Rises=F Damp=F
 DIIS: error= 3.71D-04 at cycle   5 NSaved=   5.
 NSaved= 5 IEnMin= 5 EnMin= -1029.25601517658     IErMin= 5 ErrMin= 3.71D-04
 ErrMax= 3.71D-04  0.00D+00 EMaxC= 1.00D-01 BMatC= 2.14D-04 BMatP= 4.19D-03
 IDIUse=3 WtCom= 9.96D-01 WtEn= 3.71D-03
 Coeff-Com: -0.901D-02 0.193D-01 0.111D+00 0.278D+00 0.601D+00
 Coeff-En:   0.000D+00 0.000D+00 0.000D+00 0.000D+00 0.100D+01
 Coeff:     -0.897D-02 0.192D-01 0.111D+00 0.277D+00 0.602D+00
 Gap=     0.208 Goal=   None    Shift=    0.000
 RMSDP=8.21D-05 MaxDP=6.54D-03 DE=-3.75D-03 OVMax= 5.03D-03

 Cycle   6  Pass 1  IDiag  1:
 RMSU=  5.72D-05    CP:  1.02D+00  6.03D-01  9.68D-01  8.09D-01  8.02D-01
 E= -1029.25618609228     Delta-E=       -0.000170915697 Rises=F Damp=F
 DIIS: error= 1.37D-04 at cycle   6 NSaved=   6.
 NSaved= 6 IEnMin= 6 EnMin= -1029.25618609228     IErMin= 6 ErrMin= 1.37D-04
 ErrMax= 1.37D-04  0.00D+00 EMaxC= 1.00D-01 BMatC= 2.77D-05 BMatP= 2.14D-04
 IDIUse=3 WtCom= 9.99D-01 WtEn= 1.37D-03
 Coeff-Com: -0.127D-02-0.130D-03 0.168D-01 0.663D-01 0.303D+00 0.615D+00
 Coeff-En:   0.000D+00 0.000D+00 0.000D+00 0.000D+00 0.673D-02 0.993D+00
 Coeff:     -0.127D-02-0.129D-03 0.168D-01 0.662D-01 0.303D+00 0.616D+00
 Gap=     0.208 Goal=   None    Shift=    0.000
 RMSDP=3.09D-05 MaxDP=3.29D-03 DE=-1.71D-04 OVMax= 1.04D-03

 Cycle   7  Pass 1  IDiag  1:
 RMSU=  2.73D-05    CP:  1.02D+00  6.04D-01  9.69D-01  8.15D-01  8.16D-01
                    CP:  9.79D-01
 E= -1029.25620921802     Delta-E=       -0.000023125739 Rises=F Damp=F
 DIIS: error= 2.88D-05 at cycle   7 NSaved=   7.
 NSaved= 7 IEnMin= 7 EnMin= -1029.25620921802     IErMin= 7 ErrMin= 2.88D-05
 ErrMax= 2.88D-05  0.00D+00 EMaxC= 1.00D-01 BMatC= 1.38D-06 BMatP= 2.77D-05
 IDIUse=1 WtCom= 1.00D+00 WtEn= 0.00D+00
 Coeff-Com:  0.482D-03-0.199D-02-0.562D-02-0.514D-02 0.540D-01 0.206D+00
 Coeff-Com:  0.752D+00
 Coeff:      0.482D-03-0.199D-02-0.562D-02-0.514D-02 0.540D-01 0.206D+00
 Coeff:      0.752D+00
 Gap=     0.208 Goal=   None    Shift=    0.000
 RMSDP=1.29D-05 MaxDP=1.54D-03 DE=-2.31D-05 OVMax= 4.57D-04

 Cycle   8  Pass 1  IDiag  1:
 RMSU=  8.12D-06    CP:  1.02D+00  6.03D-01  9.70D-01  8.16D-01  8.22D-01
                    CP:  1.05D+00  9.31D-01
 E= -1029.25621075970     Delta-E=       -0.000001541677 Rises=F Damp=F
 DIIS: error= 1.47D-05 at cycle   8 NSaved=   8.
 NSaved= 8 IEnMin= 8 EnMin= -1029.25621075970     IErMin= 8 ErrMin= 1.47D-05
 ErrMax= 1.47D-05  0.00D+00 EMaxC= 1.00D-01 BMatC= 2.27D-07 BMatP= 1.38D-06
 IDIUse=1 WtCom= 1.00D+00 WtEn= 0.00D+00
 Coeff-Com:  0.336D-03-0.687D-03-0.458D-02-0.112D-01-0.152D-01-0.495D-02
 Coeff-Com:  0.294D+00 0.743D+00
 Coeff:      0.336D-03-0.687D-03-0.458D-02-0.112D-01-0.152D-01-0.495D-02
 Coeff:      0.294D+00 0.743D+00
 Gap=     0.208 Goal=   None    Shift=    0.000
 RMSDP=3.94D-06 MaxDP=6.40D-04 DE=-1.54D-06 OVMax= 2.49D-04

 Cycle   9  Pass 1  IDiag  1:
 RMSU=  2.85D-06    CP:  1.02D+00  6.03D-01  9.70D-01  8.16D-01  8.25D-01
                    CP:  1.07D+00  1.01D+00  9.91D-01
 E= -1029.25621101004     Delta-E=       -0.000000250341 Rises=F Damp=F
 DIIS: error= 7.52D-06 at cycle   9 NSaved=   9.
 NSaved= 9 IEnMin= 9 EnMin= -1029.25621101004     IErMin= 9 ErrMin= 7.52D-06
 ErrMax= 7.52D-06  0.00D+00 EMaxC= 1.00D-01 BMatC= 4.54D-08 BMatP= 2.27D-07
 IDIUse=1 WtCom= 1.00D+00 WtEn= 0.00D+00
 Coeff-Com:  0.128D-03-0.206D-03-0.196D-02-0.551D-02-0.121D-01-0.215D-01
 Coeff-Com:  0.884D-01 0.387D+00 0.566D+00
 Coeff:      0.128D-03-0.206D-03-0.196D-02-0.551D-02-0.121D-01-0.215D-01
 Coeff:      0.884D-01 0.387D+00 0.566D+00
 Gap=     0.208 Goal=   None    Shift=    0.000
 RMSDP=1.24D-06 MaxDP=8.22D-05 DE=-2.50D-07 OVMax= 6.45D-05

 Cycle  10  Pass 1  IDiag  1:
 RMSU=  1.04D-06    CP:  1.02D+00  6.03D-01  9.70D-01  8.16D-01  8.26D-01
                    CP:  1.08D+00  9.98D-01  1.05D+00  9.99D-01
 E= -1029.25621105264     Delta-E=       -0.000000042601 Rises=F Damp=F
 DIIS: error= 2.46D-06 at cycle  10 NSaved=  10.
 NSaved=10 IEnMin=10 EnMin= -1029.25621105264     IErMin=10 ErrMin= 2.46D-06
 ErrMax= 2.46D-06  0.00D+00 EMaxC= 1.00D-01 BMatC= 4.50D-09 BMatP= 4.54D-08
 IDIUse=1 WtCom= 1.00D+00 WtEn= 0.00D+00
 Coeff-Com: -0.240D-04 0.761D-04 0.179D-03 0.784D-04-0.164D-02-0.840D-02
 Coeff-Com: -0.276D-01-0.446D-02 0.224D+00 0.817D+00
 Coeff:     -0.240D-04 0.761D-04 0.179D-03 0.784D-04-0.164D-02-0.840D-02
 Coeff:     -0.276D-01-0.446D-02 0.224D+00 0.817D+00
 Gap=     0.208 Goal=   None    Shift=    0.000
 RMSDP=8.29D-07 MaxDP=1.42D-04 DE=-4.26D-08 OVMax= 4.87D-05

 Cycle  11  Pass 1  IDiag  1:
 RMSU=  5.24D-07    CP:  1.02D+00  6.03D-01  9.70D-01  8.16D-01  8.25D-01
                    CP:  1.08D+00  1.00D+00  1.08D+00  1.15D+00  9.55D-01
 E= -1029.25621106063     Delta-E=       -0.000000007994 Rises=F Damp=F
 DIIS: error= 6.37D-07 at cycle  11 NSaved=  11.
 NSaved=11 IEnMin=11 EnMin= -1029.25621106063     IErMin=11 ErrMin= 6.37D-07
 ErrMax= 6.37D-07  0.00D+00 EMaxC= 1.00D-01 BMatC= 4.46D-10 BMatP= 4.50D-09
 IDIUse=1 WtCom= 1.00D+00 WtEn= 0.00D+00
 Coeff-Com: -0.208D-04 0.451D-04 0.285D-03 0.658D-03 0.979D-03 0.323D-04
 Coeff-Com: -0.180D-01-0.465D-01-0.524D-02 0.259D+00 0.809D+00
 Coeff:     -0.208D-04 0.451D-04 0.285D-03 0.658D-03 0.979D-03 0.323D-04
 Coeff:     -0.180D-01-0.465D-01-0.524D-02 0.259D+00 0.809D+00
 Gap=     0.208 Goal=   None    Shift=    0.000
 RMSDP=2.54D-07 MaxDP=1.42D-05 DE=-7.99D-09 OVMax= 1.65D-05

 Cycle  12  Pass 1  IDiag  1:
 RMSU=  1.48D-07    CP:  1.02D+00  6.03D-01  9.70D-01  8.16D-01  8.25D-01
                    CP:  1.08D+00  1.00D+00  1.09D+00  1.18D+00  1.05D+00
                    CP:  9.96D-01
 E= -1029.25621106152     Delta-E=       -0.000000000893 Rises=F Damp=F
 DIIS: error= 4.37D-07 at cycle  12 NSaved=  12.
 NSaved=12 IEnMin=12 EnMin= -1029.25621106152     IErMin=12 ErrMin= 4.37D-07
 ErrMax= 4.37D-07  0.00D+00 EMaxC= 1.00D-01 BMatC= 1.03D-10 BMatP= 4.46D-10
 IDIUse=1 WtCom= 1.00D+00 WtEn= 0.00D+00
 Coeff-Com: -0.617D-05 0.113D-04 0.114D-03 0.287D-03 0.605D-03 0.825D-03
 Coeff-Com: -0.568D-02-0.216D-01-0.271D-01 0.196D-01 0.366D+00 0.667D+00
 Coeff:     -0.617D-05 0.113D-04 0.114D-03 0.287D-03 0.605D-03 0.825D-03
 Coeff:     -0.568D-02-0.216D-01-0.271D-01 0.196D-01 0.366D+00 0.667D+00
 Gap=     0.208 Goal=   None    Shift=    0.000
 RMSDP=1.35D-07 MaxDP=2.00D-05 DE=-8.93D-10 OVMax= 7.46D-06

 Cycle  13  Pass 1  IDiag  1:
 RMSU=  7.24D-08    CP:  1.02D+00  6.03D-01  9.70D-01  8.16D-01  8.26D-01
                    CP:  1.08D+00  1.00D+00  1.09D+00  1.19D+00  1.04D+00
                    CP:  1.14D+00  1.06D+00
 E= -1029.25621106171     Delta-E=       -0.000000000188 Rises=F Damp=F
 DIIS: error= 1.51D-07 at cycle  13 NSaved=  13.
 NSaved=13 IEnMin=13 EnMin= -1029.25621106171     IErMin=13 ErrMin= 1.51D-07
 ErrMax= 1.51D-07  0.00D+00 EMaxC= 1.00D-01 BMatC= 1.62D-11 BMatP= 1.03D-10
 IDIUse=1 WtCom= 1.00D+00 WtEn= 0.00D+00
 Coeff-Com:  0.176D-05-0.439D-05-0.507D-05-0.595D-05 0.924D-04 0.360D-03
 Coeff-Com:  0.118D-02 0.293D-03-0.965D-02-0.442D-01 0.151D-01 0.307D+00
 Coeff-Com:  0.730D+00
 Coeff:      0.176D-05-0.439D-05-0.507D-05-0.595D-05 0.924D-04 0.360D-03
 Coeff:      0.118D-02 0.293D-03-0.965D-02-0.442D-01 0.151D-01 0.307D+00
 Coeff:      0.730D+00
 Gap=     0.208 Goal=   None    Shift=    0.000
 RMSDP=3.39D-08 MaxDP=3.34D-06 DE=-1.88D-10 OVMax= 3.01D-06

 Cycle  14  Pass 1  IDiag  1:
 RMSU=  2.16D-08    CP:  1.02D+00  6.03D-01  9.70D-01  8.16D-01  8.26D-01
                    CP:  1.08D+00  1.00D+00  1.09D+00  1.19D+00  1.04D+00
                    CP:  1.17D+00  1.15D+00  1.00D+00
 E= -1029.25621106167     Delta-E=        0.000000000047 Rises=F Damp=F
 DIIS: error= 4.19D-08 at cycle  14 NSaved=  14.
 NSaved=14 IEnMin=13 EnMin= -1029.25621106171     IErMin=14 ErrMin= 4.19D-08
 ErrMax= 4.19D-08  0.00D+00 EMaxC= 1.00D-01 BMatC= 1.82D-12 BMatP= 1.62D-11
 IDIUse=1 WtCom= 1.00D+00 WtEn= 0.00D+00
 Coeff-Com:  0.113D-05-0.250D-05-0.119D-04-0.294D-04-0.267D-04 0.221D-04
 Coeff-Com:  0.911D-03 0.222D-02-0.994D-04-0.169D-01-0.346D-01 0.878D-02
 Coeff-Com:  0.262D+00 0.778D+00
 Coeff:      0.113D-05-0.250D-05-0.119D-04-0.294D-04-0.267D-04 0.221D-04
 Coeff:      0.911D-03 0.222D-02-0.994D-04-0.169D-01-0.346D-01 0.878D-02
 Coeff:      0.262D+00 0.778D+00
 Gap=     0.208 Goal=   None    Shift=    0.000
 RMSDP=2.18D-08 MaxDP=2.98D-06 DE= 4.68D-11 OVMax= 8.56D-07

 Cycle  15  Pass 1  IDiag  1:
 RMSU=  8.31D-09    CP:  1.02D+00  6.03D-01  9.70D-01  8.16D-01  8.26D-01
                    CP:  1.08D+00  1.00D+00  1.09D+00  1.20D+00  1.03D+00
                    CP:  1.18D+00  1.17D+00  1.14D+00  1.05D+00
 E= -1029.25621106177     Delta-E=       -0.000000000103 Rises=F Damp=F
 DIIS: error= 2.80D-08 at cycle  15 NSaved=  15.
 NSaved=15 IEnMin=15 EnMin= -1029.25621106177     IErMin=15 ErrMin= 2.80D-08
 ErrMax= 2.80D-08  0.00D+00 EMaxC= 1.00D-01 BMatC= 3.81D-13 BMatP= 1.82D-12
 IDIUse=1 WtCom= 1.00D+00 WtEn= 0.00D+00
 Coeff-Com:  0.213D-06-0.428D-06-0.435D-05-0.121D-04-0.243D-04-0.479D-04
 Coeff-Com:  0.245D-03 0.959D-03 0.156D-02-0.831D-03-0.184D-01-0.509D-01
 Coeff-Com:  0.172D-01 0.360D+00 0.690D+00
 Coeff:      0.213D-06-0.428D-06-0.435D-05-0.121D-04-0.243D-04-0.479D-04
 Coeff:      0.245D-03 0.959D-03 0.156D-02-0.831D-03-0.184D-01-0.509D-01
 Coeff:      0.172D-01 0.360D+00 0.690D+00
 Gap=     0.208 Goal=   None    Shift=    0.000
 RMSDP=7.10D-09 MaxDP=9.25D-07 DE=-1.03D-10 OVMax= 4.24D-07

 SCF Done:  E(RM062X) =  -1029.25621106     A.U. after   15 cycles
            NFock= 15  Conv=0.71D-08     -V/T= 2.0034
 KE= 1.025804301720D+03 PE=-4.612336025847D+03 EE= 1.460905335501D+03
 Leave Link  502 at Mon Jul 10 19:08:20 2023, MaxMem=  6710886400 cpu:            1645.0 elap:             103.1
 (Enter /data0/hywu0/study/g16/l601.exe)
 Copying SCF densities to generalized density rwf, IOpCl= 0 IROHF=0.

 **********************************************************************

            Population analysis using the SCF density.

 **********************************************************************

 Alpha  occ. eigenvalues --  -90.04070 -19.55244 -19.54999 -19.54009 -14.89405
 Alpha  occ. eigenvalues --  -10.65876 -10.65507 -10.63738 -10.61169 -10.60949
 Alpha  occ. eigenvalues --  -10.60854 -10.57503 -10.55879 -10.54613  -8.37482
 Alpha  occ. eigenvalues --   -6.29762  -6.29741  -6.29695  -1.18141  -1.16754
 Alpha  occ. eigenvalues --   -1.04902  -1.03521  -0.99034  -0.94002  -0.91677
 Alpha  occ. eigenvalues --   -0.84866  -0.83027  -0.77932  -0.74901  -0.71676
 Alpha  occ. eigenvalues --   -0.65829  -0.63834  -0.62539  -0.60371  -0.59246
 Alpha  occ. eigenvalues --   -0.57915  -0.54884  -0.54400  -0.52712  -0.51184
 Alpha  occ. eigenvalues --   -0.49880  -0.49526  -0.48571  -0.47847  -0.47417
 Alpha  occ. eigenvalues --   -0.46182  -0.45613  -0.44074  -0.42978  -0.39990
 Alpha  occ. eigenvalues --   -0.36964  -0.36038  -0.35771  -0.32280  -0.31341
 Alpha  occ. eigenvalues --   -0.30539  -0.28040
 Alpha virt. eigenvalues --   -0.07201  -0.04065  -0.01829  -0.00287  -0.00001
 Alpha virt. eigenvalues --    0.01449   0.02035   0.02471   0.03707   0.04029
 Alpha virt. eigenvalues --    0.04715   0.05093   0.05803   0.06484   0.07055
 Alpha virt. eigenvalues --    0.07245   0.08231   0.09205   0.09508   0.10045
 Alpha virt. eigenvalues --    0.10224   0.10695   0.11125   0.11467   0.11863
 Alpha virt. eigenvalues --    0.12632   0.12803   0.13688   0.14151   0.14855
 Alpha virt. eigenvalues --    0.15021   0.15584   0.16165   0.16405   0.16607
 Alpha virt. eigenvalues --    0.17038   0.17501   0.17934   0.18100   0.18375
 Alpha virt. eigenvalues --    0.18860   0.19504   0.19695   0.19905   0.20292
 Alpha virt. eigenvalues --    0.20382   0.20929   0.21614   0.21775   0.22451
 Alpha virt. eigenvalues --    0.23224   0.23897   0.24138   0.24377   0.25002
 Alpha virt. eigenvalues --    0.25572   0.25763   0.26415   0.26796   0.27402
 Alpha virt. eigenvalues --    0.27879   0.29396   0.29719   0.30112   0.30288
 Alpha virt. eigenvalues --    0.31338   0.31422   0.32420   0.32884   0.33918
 Alpha virt. eigenvalues --    0.34859   0.35290   0.36340   0.36661   0.37667
 Alpha virt. eigenvalues --    0.37949   0.38318   0.38503   0.38994   0.39714
 Alpha virt. eigenvalues --    0.41332   0.41898   0.42586   0.44349   0.44499
 Alpha virt. eigenvalues --    0.45038   0.46037   0.46589   0.47585   0.47994
 Alpha virt. eigenvalues --    0.49034   0.49792   0.50978   0.51182   0.51988
 Alpha virt. eigenvalues --    0.52838   0.53333   0.54259   0.54824   0.54873
 Alpha virt. eigenvalues --    0.55888   0.56951   0.57985   0.58876   0.60505
 Alpha virt. eigenvalues --    0.61267   0.62187   0.62342   0.63412   0.63898
 Alpha virt. eigenvalues --    0.64528   0.65980   0.66603   0.67428   0.68000
 Alpha virt. eigenvalues --    0.68163   0.68746   0.69085   0.69447   0.70840
 Alpha virt. eigenvalues --    0.72220   0.72726   0.73163   0.74456   0.75556
 Alpha virt. eigenvalues --    0.76431   0.76797   0.78183   0.78446   0.79068
 Alpha virt. eigenvalues --    0.80094   0.80245   0.81771   0.82242   0.83540
 Alpha virt. eigenvalues --    0.84214   0.85029   0.85298   0.86141   0.86434
 Alpha virt. eigenvalues --    0.88495   0.89833   0.91050   0.92938   0.93716
 Alpha virt. eigenvalues --    0.94797   0.95894   0.96691   0.98270   0.98447
 Alpha virt. eigenvalues --    0.99656   1.00666   1.02779   1.03230   1.06569
 Alpha virt. eigenvalues --    1.07350   1.07886   1.09159   1.11205   1.11861
 Alpha virt. eigenvalues --    1.15011   1.15578   1.16257   1.17257   1.20508
 Alpha virt. eigenvalues --    1.21457   1.22244   1.22964   1.24275   1.24823
 Alpha virt. eigenvalues --    1.25388   1.28087   1.28803   1.29945   1.30269
 Alpha virt. eigenvalues --    1.31100   1.31465   1.32385   1.33546   1.34351
 Alpha virt. eigenvalues --    1.35304   1.36300   1.37165   1.38622   1.38847
 Alpha virt. eigenvalues --    1.39800   1.40252   1.41262   1.42832   1.43255
 Alpha virt. eigenvalues --    1.44338   1.45693   1.47008   1.48292   1.50153
 Alpha virt. eigenvalues --    1.50953   1.51492   1.52993   1.55386   1.57025
 Alpha virt. eigenvalues --    1.58575   1.60061   1.60624   1.63170   1.64114
 Alpha virt. eigenvalues --    1.64959   1.65750   1.66460   1.67819   1.70115
 Alpha virt. eigenvalues --    1.71236   1.72589   1.74482   1.75625   1.77004
 Alpha virt. eigenvalues --    1.78928   1.80478   1.83299   1.84252   1.84562
 Alpha virt. eigenvalues --    1.86355   1.87104   1.88212   1.90082   1.92294
 Alpha virt. eigenvalues --    1.93678   1.95963   1.96214   1.97870   1.99727
 Alpha virt. eigenvalues --    2.01764   2.03437   2.04338   2.05365   2.08365
 Alpha virt. eigenvalues --    2.12130   2.12856   2.14091   2.16252   2.19208
 Alpha virt. eigenvalues --    2.20307   2.21392   2.22535   2.24287   2.26960
 Alpha virt. eigenvalues --    2.29065   2.31028   2.31861   2.32345   2.34331
 Alpha virt. eigenvalues --    2.34783   2.36322   2.37053   2.38252   2.39063
 Alpha virt. eigenvalues --    2.40145   2.41219   2.43393   2.44593   2.48262
 Alpha virt. eigenvalues --    2.49012   2.51682   2.53442   2.55095   2.62777
 Alpha virt. eigenvalues --    2.67802   2.68778   2.73049   2.73772   2.74277
 Alpha virt. eigenvalues --    2.75292   2.77194   2.77864   2.79067   2.79970
 Alpha virt. eigenvalues --    2.81866   2.84541   2.86636   2.87762   2.88321
 Alpha virt. eigenvalues --    2.89196   2.92084   2.94169   2.95449   2.97225
 Alpha virt. eigenvalues --    2.97631   2.98377   3.02166   3.07569   3.09031
 Alpha virt. eigenvalues --    3.10972   3.12962   3.15274   3.15937   3.18780
 Alpha virt. eigenvalues --    3.18977   3.23362   3.25033   3.26618   3.28385
 Alpha virt. eigenvalues --    3.29947   3.31020   3.32443   3.34161   3.37302
 Alpha virt. eigenvalues --    3.38506   3.40497   3.41109   3.43004   3.45305
 Alpha virt. eigenvalues --    3.46095   3.48535   3.48987   3.49059   3.52059
 Alpha virt. eigenvalues --    3.52533   3.53165   3.54827   3.55638   3.56949
 Alpha virt. eigenvalues --    3.58085   3.59065   3.60124   3.62894   3.63303
 Alpha virt. eigenvalues --    3.66762   3.67001   3.68072   3.68759   3.70980
 Alpha virt. eigenvalues --    3.73163   3.73999   3.77338   3.78115   3.78605
 Alpha virt. eigenvalues --    3.80084   3.83685   3.85117   3.88689   3.90856
 Alpha virt. eigenvalues --    3.94688   3.98179   4.02231   4.03473   4.05562
 Alpha virt. eigenvalues --    4.10239   4.13069   4.15913   4.18512   4.19036
 Alpha virt. eigenvalues --    4.25378   4.30812   4.40716   4.49258   4.50488
 Alpha virt. eigenvalues --    4.62967   4.70447   4.95764   5.00618   5.06380
 Alpha virt. eigenvalues --    5.10243   5.23000   5.24616   5.25856   5.27848
 Alpha virt. eigenvalues --    5.28416   5.31232   5.33069   5.40094   5.44378
 Alpha virt. eigenvalues --    5.54491   5.56142   5.59063   5.74583   6.81111
 Alpha virt. eigenvalues --    6.83530   6.86396   6.87797   6.91457   6.93812
 Alpha virt. eigenvalues --    6.95089   7.00561   7.02995   7.12073   7.21601
 Alpha virt. eigenvalues --    7.24643   7.29580   7.43308   7.44344   8.63262
 Alpha virt. eigenvalues --   17.79771  17.82764  17.83600  23.79797  23.92774
 Alpha virt. eigenvalues --   23.97516  24.00515  24.02273  24.06104  24.09635
 Alpha virt. eigenvalues --   24.10615  24.23198  35.67771  50.09158  50.15168
 Alpha virt. eigenvalues --   50.18854 189.93615
          Condensed to atoms (all electrons):
               1          2          3          4          5          6
     1  C    6.368259  -0.191200   0.426000   0.299508  -1.657212   0.005910
     2  C   -0.191200   5.771573  -0.174359   0.006680   0.516874  -0.000589
     3  C    0.426000  -0.174359   8.060453  -0.571035  -2.004503   0.334448
     4  C    0.299508   0.006680  -0.571035  10.415636  -4.857702   0.002924
     5  C   -1.657212   0.516874  -2.004503  -4.857702  15.146532   0.004287
     6  H    0.005910  -0.000589   0.334448   0.002924   0.004287   0.502015
     7  H    0.411808  -0.004508   0.012833   0.003124  -0.002208  -0.000221
     8  H    0.024519   0.336287  -0.007541   0.000479  -0.020261  -0.003762
     9  H    0.017732  -0.012597   0.052199   0.142397   0.182857  -0.000194
    10  C    0.162822  -0.099400   0.400277  -0.038187  -0.720394  -0.004613
    11  H    0.007062   0.019954   0.029235  -0.189174   0.073356   0.002965
    12  H    0.000402  -0.000273  -0.009250   0.025963  -0.065631   0.000138
    13  H   -0.002521  -0.000893  -0.021108   0.057160  -0.064452   0.000076
    14  N    0.247795  -0.024296  -0.070049   0.119345  -0.031379   0.000492
    15  C   -0.045329   0.037519  -0.104222  -0.217033   0.066663   0.000589
    16  H   -0.010656  -0.006333   0.001299   0.001488  -0.002346  -0.000002
    17  H    0.040610   0.007276   0.004165   0.030374  -0.048206  -0.000005
    18  C   -0.059322  -0.065915   0.039664  -0.077600   0.189414  -0.000058
    19  H   -0.001436  -0.002138   0.001208   0.063225  -0.054020  -0.000001
    20  H    0.005959   0.003288  -0.001635  -0.015707  -0.003317   0.000000
    21  C    0.033445  -0.046387   0.040896   0.203371  -0.196210  -0.000050
    22  H   -0.008001   0.004324  -0.001323  -0.008462   0.016251  -0.000000
    23  H    0.000596  -0.000531  -0.000298   0.001126  -0.003863   0.000000
    24  S    0.017107  -0.011896   0.054141  -0.139874  -0.027030   0.000022
    25  O   -0.003881   0.000590   0.000021  -0.030281   0.032019   0.000002
    26  O   -0.000314   0.000318  -0.002709  -0.008248   0.022074   0.000000
    27  O   -0.020186   0.049863  -0.109924   0.078866   0.010379   0.000099
               7          8          9         10         11         12
     1  C    0.411808   0.024519   0.017732   0.162822   0.007062   0.000402
     2  C   -0.004508   0.336287  -0.012597  -0.099400   0.019954  -0.000273
     3  C    0.012833  -0.007541   0.052199   0.400277   0.029235  -0.009250
     4  C    0.003124   0.000479   0.142397  -0.038187  -0.189174   0.025963
     5  C   -0.002208  -0.020261   0.182857  -0.720394   0.073356  -0.065631
     6  H   -0.000221  -0.003762  -0.000194  -0.004613   0.002965   0.000138
     7  H    0.491323  -0.003492  -0.000223   0.000289  -0.000001  -0.000001
     8  H   -0.003492   0.506849   0.000043   0.001932  -0.000015   0.000005
     9  H   -0.000223   0.000043   0.477239   0.007899  -0.000220   0.002515
    10  C    0.000289   0.001932   0.007899   5.929894   0.421862   0.402952
    11  H   -0.000001  -0.000015  -0.000220   0.421862   0.513319  -0.021259
    12  H   -0.000001   0.000005   0.002515   0.402952  -0.021259   0.503520
    13  H   -0.000002   0.000007   0.000421   0.402638  -0.018482  -0.025976
    14  N   -0.068669   0.008710  -0.041593  -0.013654  -0.001725   0.003333
    15  C   -0.007646   0.003599   0.006797  -0.040697   0.001193   0.000737
    16  H    0.001025   0.000008   0.000933   0.000052  -0.000001  -0.000013
    17  H    0.005612  -0.000010  -0.000067   0.001115  -0.000000  -0.000003
    18  C    0.002536   0.000144  -0.018699   0.005893  -0.000262   0.000125
    19  H    0.000021   0.000001   0.006704   0.005674   0.000001  -0.000013
    20  H   -0.000035  -0.000000  -0.000319  -0.000692   0.000000   0.000002
    21  C   -0.000176   0.000021   0.018372   0.019272   0.000251   0.000073
    22  H   -0.000192   0.000001   0.000006   0.000558  -0.000000  -0.000001
    23  H    0.000007   0.000000  -0.000046   0.000087  -0.000000   0.000000
    24  S    0.000701   0.000083   0.000585  -0.032098   0.000321   0.001275
    25  O   -0.000009   0.000002  -0.000315   0.000370  -0.000002  -0.000002
    26  O    0.000004  -0.000000  -0.001463  -0.007188  -0.000011   0.000059
    27  O    0.000080  -0.000016  -0.025939  -0.007890   0.001085  -0.001944
              13         14         15         16         17         18
     1  C   -0.002521   0.247795  -0.045329  -0.010656   0.040610  -0.059322
     2  C   -0.000893  -0.024296   0.037519  -0.006333   0.007276  -0.065915
     3  C   -0.021108  -0.070049  -0.104222   0.001299   0.004165   0.039664
     4  C    0.057160   0.119345  -0.217033   0.001488   0.030374  -0.077600
     5  C   -0.064452  -0.031379   0.066663  -0.002346  -0.048206   0.189414
     6  H    0.000076   0.000492   0.000589  -0.000002  -0.000005  -0.000058
     7  H   -0.000002  -0.068669  -0.007646   0.001025   0.005612   0.002536
     8  H    0.000007   0.008710   0.003599   0.000008  -0.000010   0.000144
     9  H    0.000421  -0.041593   0.006797   0.000933  -0.000067  -0.018699
    10  C    0.402638  -0.013654  -0.040697   0.000052   0.001115   0.005893
    11  H   -0.018482  -0.001725   0.001193  -0.000001  -0.000000  -0.000262
    12  H   -0.025976   0.003333   0.000737  -0.000013  -0.000003   0.000125
    13  H    0.424262   0.000396  -0.000970   0.000005   0.000001  -0.001823
    14  N    0.000396   6.364606   0.171040  -0.049337  -0.085907  -0.078178
    15  C   -0.000970   0.171040   6.028921   0.443914   0.434407  -0.026979
    16  H    0.000005  -0.049337   0.443914   0.495282  -0.026890  -0.047984
    17  H    0.000001  -0.085907   0.434407  -0.026890   0.504452  -0.035084
    18  C   -0.001823  -0.078178  -0.026979  -0.047984  -0.035084   6.318431
    19  H   -0.000044  -0.020157  -0.079107  -0.000427   0.004978   0.472915
    20  H    0.000003   0.012937   0.023961  -0.008268  -0.002390   0.394946
    21  C    0.000309   0.001395  -0.314450   0.015709  -0.018919  -0.815366
    22  H    0.000009  -0.003534   0.003767   0.000337   0.002971  -0.059374
    23  H   -0.000001   0.001371   0.012072  -0.000277   0.000169  -0.037158
    24  S   -0.000736   0.008360   0.058561  -0.001500   0.003580   0.029280
    25  O    0.000085  -0.009143  -0.005472  -0.000001   0.000338   0.024633
    26  O   -0.000581  -0.000542   0.011407  -0.000072  -0.000058   0.029489
    27  O    0.002645   0.005193  -0.014211  -0.000152  -0.000965  -0.059812
              19         20         21         22         23         24
     1  C   -0.001436   0.005959   0.033445  -0.008001   0.000596   0.017107
     2  C   -0.002138   0.003288  -0.046387   0.004324  -0.000531  -0.011896
     3  C    0.001208  -0.001635   0.040896  -0.001323  -0.000298   0.054141
     4  C    0.063225  -0.015707   0.203371  -0.008462   0.001126  -0.139874
     5  C   -0.054020  -0.003317  -0.196210   0.016251  -0.003863  -0.027030
     6  H   -0.000001   0.000000  -0.000050  -0.000000   0.000000   0.000022
     7  H    0.000021  -0.000035  -0.000176  -0.000192   0.000007   0.000701
     8  H    0.000001  -0.000000   0.000021   0.000001   0.000000   0.000083
     9  H    0.006704  -0.000319   0.018372   0.000006  -0.000046   0.000585
    10  C    0.005674  -0.000692   0.019272   0.000558   0.000087  -0.032098
    11  H    0.000001   0.000000   0.000251  -0.000000  -0.000000   0.000321
    12  H   -0.000013   0.000002   0.000073  -0.000001   0.000000   0.001275
    13  H   -0.000044   0.000003   0.000309   0.000009  -0.000001  -0.000736
    14  N   -0.020157   0.012937   0.001395  -0.003534   0.001371   0.008360
    15  C   -0.079107   0.023961  -0.314450   0.003767   0.012072   0.058561
    16  H   -0.000427  -0.008268   0.015709   0.000337  -0.000277  -0.001500
    17  H    0.004978  -0.002390  -0.018919   0.002971   0.000169   0.003580
    18  C    0.472915   0.394946  -0.815366  -0.059374  -0.037158   0.029280
    19  H    0.485310  -0.030125  -0.024103   0.003089   0.000648  -0.006759
    20  H   -0.030125   0.513314  -0.065237   0.000821  -0.007855   0.009535
    21  C   -0.024103  -0.065237   6.786427   0.475603   0.381216   0.104054
    22  H    0.003089   0.000821   0.475603   0.492299  -0.034401  -0.073090
    23  H    0.000648  -0.007855   0.381216  -0.034401   0.495121  -0.002259
    24  S   -0.006759   0.009535   0.104054  -0.073090  -0.002259  13.905343
    25  O    0.000872  -0.000235  -0.103307   0.009533   0.000331   0.463192
    26  O   -0.001717  -0.001778  -0.043857  -0.008681   0.006932   0.473194
    27  O   -0.000996   0.000633   0.039626   0.005224  -0.005769   0.162229
              25         26         27
     1  C   -0.003881  -0.000314  -0.020186
     2  C    0.000590   0.000318   0.049863
     3  C    0.000021  -0.002709  -0.109924
     4  C   -0.030281  -0.008248   0.078866
     5  C    0.032019   0.022074   0.010379
     6  H    0.000002   0.000000   0.000099
     7  H   -0.000009   0.000004   0.000080
     8  H    0.000002  -0.000000  -0.000016
     9  H   -0.000315  -0.001463  -0.025939
    10  C    0.000370  -0.007188  -0.007890
    11  H   -0.000002  -0.000011   0.001085
    12  H   -0.000002   0.000059  -0.001944
    13  H    0.000085  -0.000581   0.002645
    14  N   -0.009143  -0.000542   0.005193
    15  C   -0.005472   0.011407  -0.014211
    16  H   -0.000001  -0.000072  -0.000152
    17  H    0.000338  -0.000058  -0.000965
    18  C    0.024633   0.029489  -0.059812
    19  H    0.000872  -0.001717  -0.000996
    20  H   -0.000235  -0.001778   0.000633
    21  C   -0.103307  -0.043857   0.039626
    22  H    0.009533  -0.008681   0.005224
    23  H    0.000331   0.006932  -0.005769
    24  S    0.463192   0.473194   0.162229
    25  O    8.258357  -0.100526  -0.024398
    26  O   -0.100526   8.262393  -0.072479
    27  O   -0.024398  -0.072479   8.592288
 Mulliken charges:
               1
     1  C   -0.069477
     2  C   -0.113230
     3  C   -0.378882
     4  C    0.701636
     5  C   -0.501971
     6  H    0.155527
     7  H    0.158020
     8  H    0.152409
     9  H    0.184977
    10  C   -0.798771
    11  H    0.160549
    12  H    0.183267
    13  H    0.249573
    14  N    0.553190
    15  C   -0.449029
    16  H    0.194208
    17  H    0.178456
    18  C   -0.123855
    19  H    0.176398
    20  H    0.172195
    21  C   -0.491974
    22  H    0.182267
    23  H    0.192781
    24  S    1.003679
    25  O   -0.512772
    26  O   -0.555645
    27  O   -0.603528
 Sum of Mulliken charges =  -0.00000
 Mulliken charges with hydrogens summed into heavy atoms:
               1
     1  C    0.088543
     2  C    0.039179
     3  C   -0.223355
     4  C    0.701636
     5  C   -0.316993
    10  C   -0.205382
    14  N    0.553190
    15  C   -0.076366
    18  C    0.224739
    21  C   -0.116926
    24  S    1.003679
    25  O   -0.512772
    26  O   -0.555645
    27  O   -0.603528
 Electronic spatial extent (au):  <R**2>=         135126.8563
 Charge=             -0.0000 electrons
 Dipole moment (field-independent basis, Debye):
    X=             -2.5861    Y=            -12.1806    Z=             -6.2684  Tot=             13.9409
 Quadrupole moment (field-independent basis, Debye-Ang):
   XX=           -155.7325   YY=           -295.7427   ZZ=           -197.3092
   XY=           -187.5801   XZ=           -119.1754   YZ=           -172.9590
 Traceless Quadrupole moment (field-independent basis, Debye-Ang):
   XX=             60.5290   YY=            -79.4813   ZZ=             18.9523
   XY=           -187.5801   XZ=           -119.1754   YZ=           -172.9590
 Octapole moment (field-independent basis, Debye-Ang**2):
  XXX=          -4851.4143  YYY=          -4882.5139  ZZZ=          -3809.8672  XYY=          -4161.5864
  XXY=          -3565.7589  XXZ=          -2854.3303  XZZ=          -3060.9622  YZZ=          -2829.3230
  YYZ=          -3295.5673  XYZ=          -2628.2696
 Hexadecapole moment (field-independent basis, Debye-Ang**3):
 XXXX=        -117802.4644 YYYY=         -69310.2922 ZZZZ=         -61239.7509 XXXY=         -71448.1926
 XXXZ=         -65307.5229 YYYX=         -66796.3872 YYYZ=         -50622.2674 ZZZX=         -55521.8951
 ZZZY=         -43677.2243 XXYY=         -64889.3695 XXZZ=         -54121.7192 YYZZ=         -41804.9034
 XXYZ=         -46088.5633 YYXZ=         -46604.0120 ZZXY=         -41507.3651
 N-N= 1.096370177565D+03 E-N=-4.612336025349D+03  KE= 1.025804301720D+03
 No NMR shielding tensors so no spin-rotation constants.
 Leave Link  601 at Mon Jul 10 19:08:20 2023, MaxMem=  6710886400 cpu:               2.3 elap:               0.2
 (Enter /data0/hywu0/study/g16/l9999.exe)
 1\1\GINC-LOCALHOST\SP\RM062X\6-311+G(2d,p)\C9H13N1O3S1\HYWU0\10-Jul-20
 23\0\\#p 6-311+g(2d,p) nosymm em=gd3 m062x\\Title Card Required\\0,1\C
 ,0,13.808423,5.543051,8.39559\C,0,14.751938,5.596212,7.378449\C,0,14.7
 99375,6.708136,6.532431\C,0,13.830507,7.698546,6.654939\C,0,12.839499,
 7.573151,7.64749\H,0,15.606224,6.805293,5.804262\H,0,13.801143,4.72558
 4,9.130792\H,0,15.499966,4.804646,7.296745\H,0,12.021307,8.309011,7.71
 8148\C,0,13.841413,8.933528,5.833897\H,0,14.621265,8.936711,5.062859\H
 ,0,12.882031,9.131521,5.33979\H,0,14.044245,9.807324,6.49955\N,0,12.87
 6263,6.541434,8.527901\C,0,11.94494,6.465392,9.680225\H,0,11.07983,5.8
 33932,9.374675\H,0,12.474618,5.931438,10.515968\C,0,11.443602,7.818771
 ,10.219052\H,0,11.100575,8.485008,9.400738\H,0,10.517792,7.617232,10.8
 04633\C,0,12.451511,8.519699,11.118406\H,0,13.166169,7.803864,11.56785
 7\H,0,11.942338,8.987721,11.980743\S,0,13.399325,9.835729,10.290369\O,
 0,14.560946,10.052924,11.182197\O,0,12.457796,10.932593,10.104022\O,0,
 13.835306,9.213058,8.979297\\Version=ES64L-G16RevA.03\HF=-1029.2562111
 \RMSD=7.098e-09\Dipole=-1.0174469,-4.7922336,-2.4661949\Quadrupole=45.
 0017959,-59.0923682,14.0905723,-139.4612342,-88.6039778,-128.5908068\P
 G=C01 [X(C9H13N1O3S1)]\\@


 THE ... SCIENTISTS WERE WRONG ... THE MOST PERSISTENT PRINCIPLES 
 OF THE UNIVERSE WERE ACCIDENT AND ERROR.

                          -- FRANK HERBERT IN DUNE
 Job cpu time:       0 days  0 hours 28 minutes  6.6 seconds.
 Elapsed time:       0 days  0 hours  1 minutes 45.9 seconds.
 File lengths (MBytes):  RWF=    114 Int=      0 D2E=      0 Chk=     14 Scr=      1
 Normal termination of Gaussian 16 at Mon Jul 10 19:08:20 2023.
