 Entering Gaussian System, Link 0=g16
 Initial command:
 /data0/hywu0/study/g16/l1.exe "/data0/hywu0/study/g16/scratch/Gau-872373.inp" -scrdir="/data0/hywu0/study/g16/scratch/"
 Default is to use a total of   8 processors:
                                8 via shared-memory
                                1 via Linda
 Entering Link 1 = /data0/hywu0/study/g16/l1.exe PID=    872374.
  
 Copyright (c) 1988,1990,1992,1993,1995,1998,2003,2009,2016,
            Gaussian, Inc.  All Rights Reserved.
  
 This is part of the Gaussian(R) 16 program.  It is based on
 the Gaussian(R) 09 system (copyright 2009, Gaussian, Inc.),
 the Gaussian(R) 03 system (copyright 2003, Gaussian, Inc.),
 the Gaussian(R) 98 system (copyright 1998, Gaussian, Inc.),
 the Gaussian(R) 94 system (copyright 1995, Gaussian, Inc.),
 the Gaussian 92(TM) system (copyright 1992, Gaussian, Inc.),
 the Gaussian 90(TM) system (copyright 1990, Gaussian, Inc.),
 the Gaussian 88(TM) system (copyright 1988, Gaussian, Inc.),
 the Gaussian 86(TM) system (copyright 1986, Carnegie Mellon
 University), and the Gaussian 82(TM) system (copyright 1983,
 Carnegie Mellon University). Gaussian is a federally registered
 trademark of Gaussian, Inc.
  
 This software contains proprietary and confidential information,
 including trade secrets, belonging to Gaussian, Inc.
  
 This software is provided under written license and may be
 used, copied, transmitted, or stored only in accord with that
 written license.
  
 The following legend is applicable only to US Government
 contracts under FAR:
  
                    RESTRICTED RIGHTS LEGEND
  
 Use, reproduction and disclosure by the US Government is
 subject to restrictions as set forth in subparagraphs (a)
 and (c) of the Commercial Computer Software - Restricted
 Rights clause in FAR 52.227-19.
  
 Gaussian, Inc.
 340 Quinnipiac St., Bldg. 40, Wallingford CT 06492
  
  
 ---------------------------------------------------------------
 Warning -- This program may not be used in any manner that
 competes with the business of Gaussian, Inc. or will provide
 assistance to any competitor of Gaussian, Inc.  The licensee
 of this program is prohibited from giving any competitor of
 Gaussian, Inc. access to this program.  By using this program,
 the user acknowledges that Gaussian, Inc. is engaged in the
 business of creating and licensing software in the field of
 computational chemistry and represents and warrants to the
 licensee that it is not a competitor of Gaussian, Inc. and that
 it will not use this program in any manner prohibited above.
 ---------------------------------------------------------------
  

 Cite this work as:
 Gaussian 16, Revision A.03,
 M. J. Frisch, G. W. Trucks, H. B. Schlegel, G. E. Scuseria, 
 M. A. Robb, J. R. Cheeseman, G. Scalmani, V. Barone, 
 G. A. Petersson, H. Nakatsuji, X. Li, M. Caricato, A. V. Marenich, 
 J. Bloino, B. G. Janesko, R. Gomperts, B. Mennucci, H. P. Hratchian, 
 J. V. Ortiz, A. F. Izmaylov, J. L. Sonnenberg, D. Williams-Young, 
 F. Ding, F. Lipparini, F. Egidi, J. Goings, B. Peng, A. Petrone, 
 T. Henderson, D. Ranasinghe, V. G. Zakrzewski, J. Gao, N. Rega, 
 G. Zheng, W. Liang, M. Hada, M. Ehara, K. Toyota, R. Fukuda, 
 J. Hasegawa, M. Ishida, T. Nakajima, Y. Honda, O. Kitao, H. Nakai, 
 T. Vreven, K. Throssell, J. A. Montgomery, Jr., J. E. Peralta, 
 F. Ogliaro, M. J. Bearpark, J. J. Heyd, E. N. Brothers, K. N. Kudin, 
 V. N. Staroverov, T. A. Keith, R. Kobayashi, J. Normand, 
 K. Raghavachari, A. P. Rendell, J. C. Burant, S. S. Iyengar, 
 J. Tomasi, M. Cossi, J. M. Millam, M. Klene, C. Adamo, R. Cammi, 
 J. W. Ochterski, R. L. Martin, K. Morokuma, O. Farkas, 
 J. B. Foresman, and D. J. Fox, Gaussian, Inc., Wallingford CT, 2016.
 
 ******************************************
 Gaussian 16:  ES64L-G16RevA.03 25-Dec-2016
                10-Jul-2023 
 ******************************************
 %chk=PA.chk
 %nprocshared=16
 Will use up to   16 processors via shared memory.
 %mem=50GB
 ------------------------------------
 #p 6-311+g(2d,p) nosymm em=gd3 m062x
 ------------------------------------
 1/38=1,172=1/1;
 2/12=2,15=1,17=6,18=5,40=1/2;
 3/5=4,6=6,7=112,11=2,25=1,30=1,74=-55,124=31/1,2,3;
 4//1;
 5/5=2,38=5/2;
 6/7=2,8=2,9=2,10=2,28=1/1;
 99/5=1,9=1/99;
 Leave Link    1 at Mon Jul 10 19:06:03 2023, MaxMem=  6710886400 cpu:               0.5 elap:               0.0
 (Enter /data0/hywu0/study/g16/l101.exe)
 -------------------
 Title Card Required
 -------------------
 Symbolic Z-matrix:
 Charge =  0 Multiplicity = 1
 P                     16.2133   7.13626   10.24033 
 O                     15.07704   6.25855   10.55886 
 O                     17.54244   6.25867   10.10544 
 H                     18.32619   6.91317   9.96197 
 O                     16.1209   7.85038   8.82733 
 H                     15.23834   8.47342   8.8205 
 O                     16.60926   8.23103   11.30581 
 H                     15.85422   8.99701   11.30874 
 
 ITRead=  0  0  0  0  0  0  0  0
 MicOpt= -1 -1 -1 -1 -1 -1 -1 -1
 NAtoms=      8 NQM=        8 NQMF=       0 NMMI=      0 NMMIF=      0
                NMic=       0 NMicF=      0.
                    Isotopes and Nuclear Properties:
 (Nuclear quadrupole moments (NQMom) in fm**2, nuclear magnetic moments (NMagM)
  in nuclear magnetons)

  Atom         1           2           3           4           5           6           7           8
 IAtWgt=          31          16          16           1          16           1          16           1
 AtmWgt=  30.9737634  15.9949146  15.9949146   1.0078250  15.9949146   1.0078250  15.9949146   1.0078250
 NucSpn=           1           0           0           1           0           1           0           1
 AtZEff=  -0.0000000  -0.0000000  -0.0000000  -0.0000000  -0.0000000  -0.0000000  -0.0000000  -0.0000000
 NQMom=    0.0000000   0.0000000   0.0000000   0.0000000   0.0000000   0.0000000   0.0000000   0.0000000
 NMagM=    1.1316000   0.0000000   0.0000000   2.7928460   0.0000000   2.7928460   0.0000000   2.7928460
 AtZNuc=  15.0000000   8.0000000   8.0000000   1.0000000   8.0000000   1.0000000   8.0000000   1.0000000
 Leave Link  101 at Mon Jul 10 19:06:03 2023, MaxMem=  6710886400 cpu:               2.0 elap:               0.1
 (Enter /data0/hywu0/study/g16/l202.exe)
                          Input orientation:                          
 ---------------------------------------------------------------------
 Center     Atomic      Atomic             Coordinates (Angstroms)
 Number     Number       Type             X           Y           Z
 ---------------------------------------------------------------------
      1         15           0       16.213298    7.136260   10.240330
      2          8           0       15.077040    6.258554   10.558859
      3          8           0       17.542437    6.258674   10.105443
      4          1           0       18.326190    6.913168    9.961972
      5          8           0       16.120896    7.850379    8.827335
      6          1           0       15.238344    8.473423    8.820495
      7          8           0       16.609257    8.231031   11.305814
      8          1           0       15.854218    8.997011   11.308735
 ---------------------------------------------------------------------
                    Distance matrix (angstroms):
                    1          2          3          4          5
     1  P    0.000000
     2  O    1.470684   0.000000
     3  O    1.598425   2.506745   0.000000
     4  H    2.142794   3.367754   1.031123   0.000000
     5  O    1.585894   2.573270   2.487542   2.651243   0.000000
     6  H    2.180475   2.820208   3.444568   3.643097   1.080337
     7  O    1.578152   2.606971   2.490363   2.547652   2.554653
     8  H    2.175505   2.943716   3.434601   3.502402   2.746494
                    6          7          8
     6  H    0.000000
     7  O    2.848678   0.000000
     8  H    2.616254   1.075555   0.000000
 Symmetry turned off by external request.
 Stoichiometry    H3O4P
 Framework group  C1[X(H3O4P)]
 Deg. of freedom    18
 Full point group                 C1      NOp   1
 Rotational constants (GHZ):           4.5436955           4.5066002           4.4335885
 Leave Link  202 at Mon Jul 10 19:06:03 2023, MaxMem=  6710886400 cpu:               0.0 elap:               0.0
 (Enter /data0/hywu0/study/g16/l301.exe)
 Standard basis: 6-311+G(2d,p) (5D, 7F)
 Ernie: Thresh=  0.10000D-02 Tol=  0.10000D-05 Strict=F.
   161 basis functions,   248 primitive gaussians,   171 cartesian basis functions
    25 alpha electrons       25 beta electrons
       nuclear repulsion energy       279.7145687324 Hartrees.
 IExCor= 4336 DFT=T Ex+Corr=M062X ExCW=0 ScaHFX=  0.540000
 ScaDFX=  1.000000  1.000000  1.000000  1.000000 ScalE2=  1.000000  1.000000
 IRadAn=      5 IRanWt=     -1 IRanGd=            0 ICorTp=0 IEmpDi=131
 NAtoms=    8 NActive=    8 NUniq=    8 SFac= 1.00D+00 NAtFMM=   60 NAOKFM=F Big=F
 Integral buffers will be    131072 words long.
 Raffenetti 2 integral format.
 Two-electron integral symmetry is turned off.
 R6Disp:  Grimme-D3 Dispersion energy=       -0.0000450251 Hartrees.
 Nuclear repulsion after empirical dispersion term =      279.7145237073 Hartrees.
 Leave Link  301 at Mon Jul 10 19:06:03 2023, MaxMem=  6710886400 cpu:               0.7 elap:               0.1
 (Enter /data0/hywu0/study/g16/l302.exe)
 NPDir=0 NMtPBC=     1 NCelOv=     1 NCel=       1 NClECP=     1 NCelD=      1
         NCelK=      1 NCelE2=     1 NClLst=     1 CellRange=     0.0.
 One-electron integrals computed using PRISM.
 NBasis=   161 RedAO= T EigKep=  6.22D-04  NBF=   161
 NBsUse=   161 1.00D-06 EigRej= -1.00D+00 NBFU=   161
 Precomputing XC quadrature grid using
 IXCGrd= 4 IRadAn=           5 IRanWt=          -1 IRanGd=           0 AccXCQ= 0.00D+00.
 Generated NRdTot=       0 NPtTot=           0 NUsed=           0 NTot=          32
 NSgBfM=   171   171   171   171   171 MxSgAt=     8 MxSgA2=     8.
 Leave Link  302 at Mon Jul 10 19:06:04 2023, MaxMem=  6710886400 cpu:               2.0 elap:               0.1
 (Enter /data0/hywu0/study/g16/l303.exe)
 DipDrv:  MaxL=1.
 Leave Link  303 at Mon Jul 10 19:06:04 2023, MaxMem=  6710886400 cpu:               0.5 elap:               0.0
 (Enter /data0/hywu0/study/g16/l401.exe)
 ExpMin= 3.48D-02 ExpMax= 7.75D+04 ExpMxC= 2.65D+03 IAcc=3 IRadAn=         5 AccDes= 0.00D+00
 Harris functional with IExCor= 1009 and IRadAn=       5 diagonalized for initial guess.
 HarFok:  IExCor= 1009 AccDes= 0.00D+00 IRadAn=         5 IDoV= 1 UseB2=F ITyADJ=14
 ICtDFT=  3500011 ScaDFX=  1.000000  1.000000  1.000000  1.000000
 FoFCou: FMM=F IPFlag=           0 FMFlag=      100000 FMFlg1=           0
         NFxFlg=           0 DoJE=T BraDBF=F KetDBF=T FulRan=T
         wScrn=  0.000000 ICntrl=       500 IOpCl=  0 I1Cent=   200000004 NGrid=           0
         NMat0=    1 NMatS0=      1 NMatT0=    0 NMatD0=    1 NMtDS0=    0 NMtDT0=    0
 Symmetry not used in FoFCou.
 Harris En= -643.935534392471    
 JPrj=0 DoOrth=F DoCkMO=F.
 Leave Link  401 at Mon Jul 10 19:06:04 2023, MaxMem=  6710886400 cpu:               4.5 elap:               0.3
 (Enter /data0/hywu0/study/g16/l502.exe)
 Keep R1 ints in memory in canonical form, NReq=100986924.
 FoFCou: FMM=F IPFlag=           0 FMFlag=           0 FMFlg1=           0
         NFxFlg=           0 DoJE=F BraDBF=F KetDBF=F FulRan=T
         wScrn=  0.000000 ICntrl=       600 IOpCl=  0 I1Cent=           0 NGrid=           0
         NMat0=    1 NMatS0=  13041 NMatT0=    0 NMatD0=    1 NMtDS0=    0 NMtDT0=    0
 Symmetry not used in FoFCou.
 Two-electron integral symmetry not used.
 Closed shell SCF:
 Using DIIS extrapolation, IDIIS=  1040.
 NGot=  6710886400 LenX=  6625783546 LenY=  6625753864
 Requested convergence on RMS density matrix=1.00D-08 within 128 cycles.
 Requested convergence on MAX density matrix=1.00D-06.
 Requested convergence on             energy=1.00D-06.
 No special actions if energy rises.

 Cycle   1  Pass 1  IDiag  1:
 E= -643.838734047284    
 DIIS: error= 4.86D-02 at cycle   1 NSaved=   1.
 NSaved= 1 IEnMin= 1 EnMin= -643.838734047284     IErMin= 1 ErrMin= 4.86D-02
 ErrMax= 4.86D-02  0.00D+00 EMaxC= 1.00D-01 BMatC= 5.11D-01 BMatP= 5.11D-01
 IDIUse=3 WtCom= 5.14D-01 WtEn= 4.86D-01
 Coeff-Com:  0.100D+01
 Coeff-En:   0.100D+01
 Coeff:      0.100D+01
 Gap=     0.235 Goal=   None    Shift=    0.000
 GapD=    0.235 DampG=1.000 DampE=0.500 DampFc=0.5000 IDamp=-1.
 Damping current iteration by 5.00D-01
 RMSDP=8.07D-03 MaxDP=1.92D-01              OVMax= 2.82D-01

 Cycle   2  Pass 1  IDiag  1:
 E= -643.954647308932     Delta-E=       -0.115913261648 Rises=F Damp=T
 DIIS: error= 8.27D-03 at cycle   2 NSaved=   2.
 NSaved= 2 IEnMin= 2 EnMin= -643.954647308932     IErMin= 2 ErrMin= 8.27D-03
 ErrMax= 8.27D-03  0.00D+00 EMaxC= 1.00D-01 BMatC= 2.85D-02 BMatP= 5.11D-01
 IDIUse=3 WtCom= 9.17D-01 WtEn= 8.27D-02
 Coeff-Com:  0.810D-01 0.919D+00
 Coeff-En:   0.219D+00 0.781D+00
 Coeff:      0.924D-01 0.908D+00
 Gap=     0.336 Goal=   None    Shift=    0.000
 RMSDP=1.98D-03 MaxDP=6.95D-02 DE=-1.16D-01 OVMax= 1.88D-01

 Cycle   3  Pass 1  IDiag  1:
 E= -644.126688741638     Delta-E=       -0.172041432706 Rises=F Damp=F
 DIIS: error= 7.16D-03 at cycle   3 NSaved=   3.
 NSaved= 3 IEnMin= 3 EnMin= -644.126688741638     IErMin= 3 ErrMin= 7.16D-03
 ErrMax= 7.16D-03  0.00D+00 EMaxC= 1.00D-01 BMatC= 1.09D-02 BMatP= 2.85D-02
 IDIUse=3 WtCom= 9.28D-01 WtEn= 7.16D-02
 Coeff-Com: -0.134D-01 0.343D+00 0.671D+00
 Coeff-En:   0.000D+00 0.000D+00 0.100D+01
 Coeff:     -0.125D-01 0.318D+00 0.694D+00
 Gap=     0.325 Goal=   None    Shift=    0.000
 RMSDP=6.93D-04 MaxDP=1.55D-02 DE=-1.72D-01 OVMax= 3.67D-02

 Cycle   4  Pass 1  IDiag  1:
 E= -644.131649187361     Delta-E=       -0.004960445723 Rises=F Damp=F
 DIIS: error= 4.28D-03 at cycle   4 NSaved=   4.
 NSaved= 4 IEnMin= 4 EnMin= -644.131649187361     IErMin= 4 ErrMin= 4.28D-03
 ErrMax= 4.28D-03  0.00D+00 EMaxC= 1.00D-01 BMatC= 4.15D-03 BMatP= 1.09D-02
 IDIUse=3 WtCom= 9.57D-01 WtEn= 4.28D-02
 Coeff-Com: -0.220D-01 0.497D-01 0.404D+00 0.568D+00
 Coeff-En:   0.000D+00 0.000D+00 0.275D+00 0.725D+00
 Coeff:     -0.211D-01 0.476D-01 0.399D+00 0.575D+00
 Gap=     0.331 Goal=   None    Shift=    0.000
 RMSDP=2.74D-04 MaxDP=6.36D-03 DE=-4.96D-03 OVMax= 1.18D-02

 Cycle   5  Pass 1  IDiag  1:
 E= -644.134406106840     Delta-E=       -0.002756919478 Rises=F Damp=F
 DIIS: error= 2.35D-04 at cycle   5 NSaved=   5.
 NSaved= 5 IEnMin= 5 EnMin= -644.134406106840     IErMin= 5 ErrMin= 2.35D-04
 ErrMax= 2.35D-04  0.00D+00 EMaxC= 1.00D-01 BMatC= 1.83D-05 BMatP= 4.15D-03
 IDIUse=3 WtCom= 9.98D-01 WtEn= 2.35D-03
 Coeff-Com: -0.240D-02-0.179D-03 0.558D-01 0.118D+00 0.829D+00
 Coeff-En:   0.000D+00 0.000D+00 0.000D+00 0.000D+00 0.100D+01
 Coeff:     -0.240D-02-0.178D-03 0.556D-01 0.117D+00 0.830D+00
 Gap=     0.330 Goal=   None    Shift=    0.000
 RMSDP=3.09D-05 MaxDP=7.13D-04 DE=-2.76D-03 OVMax= 7.51D-04

 Cycle   6  Pass 1  IDiag  1:
 E= -644.134418208856     Delta-E=       -0.000012102016 Rises=F Damp=F
 DIIS: error= 8.67D-05 at cycle   6 NSaved=   6.
 NSaved= 6 IEnMin= 6 EnMin= -644.134418208856     IErMin= 6 ErrMin= 8.67D-05
 ErrMax= 8.67D-05  0.00D+00 EMaxC= 1.00D-01 BMatC= 1.76D-06 BMatP= 1.83D-05
 IDIUse=1 WtCom= 1.00D+00 WtEn= 0.00D+00
 Coeff-Com: -0.109D-04-0.177D-02 0.305D-02 0.155D-01 0.261D+00 0.722D+00
 Coeff:     -0.109D-04-0.177D-02 0.305D-02 0.155D-01 0.261D+00 0.722D+00
 Gap=     0.330 Goal=   None    Shift=    0.000
 RMSDP=1.13D-05 MaxDP=2.06D-04 DE=-1.21D-05 OVMax= 3.12D-04

 Cycle   7  Pass 1  IDiag  1:
 E= -644.134419350390     Delta-E=       -0.000001141534 Rises=F Damp=F
 DIIS: error= 4.53D-05 at cycle   7 NSaved=   7.
 NSaved= 7 IEnMin= 7 EnMin= -644.134419350390     IErMin= 7 ErrMin= 4.53D-05
 ErrMax= 4.53D-05  0.00D+00 EMaxC= 1.00D-01 BMatC= 4.32D-07 BMatP= 1.76D-06
 IDIUse=1 WtCom= 1.00D+00 WtEn= 0.00D+00
 Coeff-Com:  0.426D-03-0.728D-03-0.927D-02-0.149D-01-0.261D-01 0.331D+00
 Coeff-Com:  0.720D+00
 Coeff:      0.426D-03-0.728D-03-0.927D-02-0.149D-01-0.261D-01 0.331D+00
 Coeff:      0.720D+00
 Gap=     0.330 Goal=   None    Shift=    0.000
 RMSDP=4.96D-06 MaxDP=9.88D-05 DE=-1.14D-06 OVMax= 1.30D-04

 Cycle   8  Pass 1  IDiag  1:
 E= -644.134419654321     Delta-E=       -0.000000303931 Rises=F Damp=F
 DIIS: error= 8.59D-06 at cycle   8 NSaved=   8.
 NSaved= 8 IEnMin= 8 EnMin= -644.134419654321     IErMin= 8 ErrMin= 8.59D-06
 ErrMax= 8.59D-06  0.00D+00 EMaxC= 1.00D-01 BMatC= 2.97D-08 BMatP= 4.32D-07
 IDIUse=1 WtCom= 1.00D+00 WtEn= 0.00D+00
 Coeff-Com:  0.153D-03-0.194D-03-0.378D-02-0.609D-02-0.176D-01 0.932D-01
 Coeff-Com:  0.294D+00 0.641D+00
 Coeff:      0.153D-03-0.194D-03-0.378D-02-0.609D-02-0.176D-01 0.932D-01
 Coeff:      0.294D+00 0.641D+00
 Gap=     0.330 Goal=   None    Shift=    0.000
 RMSDP=8.90D-07 MaxDP=2.81D-05 DE=-3.04D-07 OVMax= 3.50D-05

 Cycle   9  Pass 1  IDiag  1:
 E= -644.134419677775     Delta-E=       -0.000000023454 Rises=F Damp=F
 DIIS: error= 1.68D-06 at cycle   9 NSaved=   9.
 NSaved= 9 IEnMin= 9 EnMin= -644.134419677775     IErMin= 9 ErrMin= 1.68D-06
 ErrMax= 1.68D-06  0.00D+00 EMaxC= 1.00D-01 BMatC= 1.06D-09 BMatP= 2.97D-08
 IDIUse=1 WtCom= 1.00D+00 WtEn= 0.00D+00
 Coeff-Com: -0.286D-04 0.565D-04 0.276D-03 0.601D-03-0.779D-03-0.197D-01
 Coeff-Com: -0.285D-01 0.836D-01 0.964D+00
 Coeff:     -0.286D-04 0.565D-04 0.276D-03 0.601D-03-0.779D-03-0.197D-01
 Coeff:     -0.285D-01 0.836D-01 0.964D+00
 Gap=     0.330 Goal=   None    Shift=    0.000
 RMSDP=4.13D-07 MaxDP=9.99D-06 DE=-2.35D-08 OVMax= 1.47D-05

 Cycle  10  Pass 1  IDiag  1:
 E= -644.134419679106     Delta-E=       -0.000000001331 Rises=F Damp=F
 DIIS: error= 5.51D-07 at cycle  10 NSaved=  10.
 NSaved=10 IEnMin=10 EnMin= -644.134419679106     IErMin=10 ErrMin= 5.51D-07
 ErrMax= 5.51D-07  0.00D+00 EMaxC= 1.00D-01 BMatC= 6.32D-11 BMatP= 1.06D-09
 IDIUse=1 WtCom= 1.00D+00 WtEn= 0.00D+00
 Coeff-Com: -0.101D-04 0.183D-04 0.174D-03 0.315D-03 0.346D-03-0.795D-02
 Coeff-Com: -0.179D-01-0.284D-02 0.224D+00 0.804D+00
 Coeff:     -0.101D-04 0.183D-04 0.174D-03 0.315D-03 0.346D-03-0.795D-02
 Coeff:     -0.179D-01-0.284D-02 0.224D+00 0.804D+00
 Gap=     0.330 Goal=   None    Shift=    0.000
 RMSDP=8.53D-08 MaxDP=1.46D-06 DE=-1.33D-09 OVMax= 3.43D-06

 Cycle  11  Pass 1  IDiag  1:
 E= -644.134419679163     Delta-E=       -0.000000000056 Rises=F Damp=F
 DIIS: error= 4.82D-07 at cycle  11 NSaved=  11.
 NSaved=11 IEnMin=11 EnMin= -644.134419679163     IErMin=11 ErrMin= 4.82D-07
 ErrMax= 4.82D-07  0.00D+00 EMaxC= 1.00D-01 BMatC= 3.37D-11 BMatP= 6.32D-11
 IDIUse=1 WtCom= 1.00D+00 WtEn= 0.00D+00
 Coeff-Com:  0.634D-07-0.601D-06 0.426D-04 0.595D-04 0.316D-03-0.887D-03
 Coeff-Com: -0.478D-02-0.153D-01-0.474D-01 0.449D+00 0.619D+00
 Coeff:      0.634D-07-0.601D-06 0.426D-04 0.595D-04 0.316D-03-0.887D-03
 Coeff:     -0.478D-02-0.153D-01-0.474D-01 0.449D+00 0.619D+00
 Gap=     0.330 Goal=   None    Shift=    0.000
 RMSDP=3.38D-08 MaxDP=8.13D-07 DE=-5.63D-11 OVMax= 1.37D-06

 Cycle  12  Pass 1  IDiag  1:
 E= -644.134419679181     Delta-E=       -0.000000000018 Rises=F Damp=F
 DIIS: error= 3.35D-08 at cycle  12 NSaved=  12.
 NSaved=12 IEnMin=12 EnMin= -644.134419679181     IErMin=12 ErrMin= 3.35D-08
 ErrMax= 3.35D-08  0.00D+00 EMaxC= 1.00D-01 BMatC= 4.42D-13 BMatP= 3.37D-11
 IDIUse=1 WtCom= 1.00D+00 WtEn= 0.00D+00
 Coeff-Com:  0.837D-06-0.154D-05-0.730D-05-0.150D-04 0.830D-05 0.510D-03
 Coeff-Com:  0.102D-02-0.109D-02-0.246D-01-0.848D-02 0.706D-01 0.962D+00
 Coeff:      0.837D-06-0.154D-05-0.730D-05-0.150D-04 0.830D-05 0.510D-03
 Coeff:      0.102D-02-0.109D-02-0.246D-01-0.848D-02 0.706D-01 0.962D+00
 Gap=     0.330 Goal=   None    Shift=    0.000
 RMSDP=1.07D-08 MaxDP=2.30D-07 DE=-1.83D-11 OVMax= 4.90D-07

 Cycle  13  Pass 1  IDiag  1:
 E= -644.134419679194     Delta-E=       -0.000000000013 Rises=F Damp=F
 DIIS: error= 1.04D-08 at cycle  13 NSaved=  13.
 NSaved=13 IEnMin=13 EnMin= -644.134419679194     IErMin=13 ErrMin= 1.04D-08
 ErrMax= 1.04D-08  0.00D+00 EMaxC= 1.00D-01 BMatC= 2.57D-14 BMatP= 4.42D-13
 IDIUse=1 WtCom= 1.00D+00 WtEn= 0.00D+00
 Coeff-Com:  0.259D-07-0.650D-07-0.294D-05-0.372D-05-0.148D-04 0.109D-03
 Coeff-Com:  0.399D-03 0.747D-03 0.614D-03-0.281D-01-0.306D-01 0.120D+00
 Coeff-Com:  0.937D+00
 Coeff:      0.259D-07-0.650D-07-0.294D-05-0.372D-05-0.148D-04 0.109D-03
 Coeff:      0.399D-03 0.747D-03 0.614D-03-0.281D-01-0.306D-01 0.120D+00
 Coeff:      0.937D+00
 Gap=     0.330 Goal=   None    Shift=    0.000
 RMSDP=2.65D-09 MaxDP=6.03D-08 DE=-1.31D-11 OVMax= 1.04D-07

 SCF Done:  E(RM062X) =  -644.134419679     A.U. after   13 cycles
            NFock= 13  Conv=0.26D-08     -V/T= 2.0026
 KE= 6.424684665044D+02 PE=-2.087064010591D+03 EE= 5.207466007005D+02
 Leave Link  502 at Mon Jul 10 19:06:10 2023, MaxMem=  6710886400 cpu:              83.7 elap:               6.4
 (Enter /data0/hywu0/study/g16/l601.exe)
 Copying SCF densities to generalized density rwf, IOpCl= 0 IROHF=0.

 **********************************************************************

            Population analysis using the SCF density.

 **********************************************************************

 Alpha  occ. eigenvalues --  -78.16770 -19.69729 -19.69150 -19.67740 -19.58053
 Alpha  occ. eigenvalues --   -6.97560  -5.09476  -5.09457  -5.09222  -1.24472
 Alpha  occ. eigenvalues --   -1.17324  -1.16384  -1.08250  -0.72568  -0.65480
 Alpha  occ. eigenvalues --   -0.63514  -0.58841  -0.52766  -0.52283  -0.49940
 Alpha  occ. eigenvalues --   -0.46422  -0.45239  -0.44615  -0.37894  -0.36889
 Alpha virt. eigenvalues --   -0.03885   0.01047   0.02479   0.04644   0.07885
 Alpha virt. eigenvalues --    0.09342   0.10689   0.12169   0.15723   0.17000
 Alpha virt. eigenvalues --    0.17772   0.18476   0.19654   0.20139   0.21535
 Alpha virt. eigenvalues --    0.22736   0.24144   0.25544   0.26043   0.27618
 Alpha virt. eigenvalues --    0.28007   0.28882   0.30158   0.32042   0.33876
 Alpha virt. eigenvalues --    0.34907   0.36731   0.38506   0.40435   0.41797
 Alpha virt. eigenvalues --    0.43947   0.45417   0.51618   0.56247   0.57447
 Alpha virt. eigenvalues --    0.73732   0.76252   0.76977   0.85829   0.97429
 Alpha virt. eigenvalues --    1.00071   1.00874   1.05500   1.05906   1.11565
 Alpha virt. eigenvalues --    1.13277   1.14972   1.18496   1.19711   1.20324
 Alpha virt. eigenvalues --    1.22143   1.22589   1.26000   1.26856   1.32679
 Alpha virt. eigenvalues --    1.33235   1.41407   1.43659   1.50480   1.52488
 Alpha virt. eigenvalues --    1.53135   1.54885   1.57799   1.59699   1.63904
 Alpha virt. eigenvalues --    1.65454   1.66669   1.69908   1.73471   1.82460
 Alpha virt. eigenvalues --    1.83453   1.84772   1.86967   1.90449   1.95843
 Alpha virt. eigenvalues --    1.98336   2.04307   2.09673   2.12099   2.13404
 Alpha virt. eigenvalues --    2.16982   2.21959   2.25807   2.37050   2.42297
 Alpha virt. eigenvalues --    2.45878   2.55016   2.61142   2.61734   2.71209
 Alpha virt. eigenvalues --    2.72986   2.79559   2.86282   2.90262   2.94951
 Alpha virt. eigenvalues --    5.00829   5.03987   5.06162   5.06783   5.10815
 Alpha virt. eigenvalues --    5.13329   5.17201   5.23788   5.34855   5.41407
 Alpha virt. eigenvalues --    5.43694   5.52427   6.71642   6.74201   6.74874
 Alpha virt. eigenvalues --    6.77114   6.78206   6.80627   6.82378   6.85471
 Alpha virt. eigenvalues --    6.91874   6.93073   6.95197   6.98675   6.99714
 Alpha virt. eigenvalues --    7.01020   7.10919   7.25016   7.25807   7.27531
 Alpha virt. eigenvalues --    7.31571   7.40333   7.64464  14.23107  14.24354
 Alpha virt. eigenvalues --   14.33973  49.97504  49.98985  50.00832  50.10128
 Alpha virt. eigenvalues --  163.85620
          Condensed to atoms (all electrons):
               1          2          3          4          5          6
     1  P   12.474406   0.541264   0.184122   0.043812   0.243141  -0.001619
     2  O    0.541264   8.165591  -0.038835   0.001968  -0.015612  -0.016462
     3  O    0.184122  -0.038835   8.098238   0.223501   0.009251   0.001121
     4  H    0.043812   0.001968   0.223501   0.452651  -0.011619   0.001468
     5  O    0.243141  -0.015612   0.009251  -0.011619   8.044063   0.257389
     6  H   -0.001619  -0.016462   0.001121   0.001468   0.257389   0.446031
     7  O    0.229305  -0.003425   0.007776  -0.014053   0.039546  -0.005032
     8  H    0.004136  -0.013214   0.001436   0.001550  -0.001223  -0.003874
               7          8
     1  P    0.229305   0.004136
     2  O   -0.003425  -0.013214
     3  O    0.007776   0.001436
     4  H   -0.014053   0.001550
     5  O    0.039546  -0.001223
     6  H   -0.005032  -0.003874
     7  O    8.046209   0.248391
     8  H    0.248391   0.444396
 Mulliken charges:
               1
     1  P    1.281431
     2  O   -0.621274
     3  O   -0.486608
     4  H    0.300722
     5  O   -0.564936
     6  H    0.320979
     7  O   -0.548716
     8  H    0.318403
 Sum of Mulliken charges =  -0.00000
 Mulliken charges with hydrogens summed into heavy atoms:
               1
     1  P    1.281431
     2  O   -0.621274
     3  O   -0.185886
     5  O   -0.243958
     7  O   -0.230313
 Electronic spatial extent (au):  <R**2>=          75672.1814
 Charge=             -0.0000 electrons
 Dipole moment (field-independent basis, Debye):
    X=              0.9525    Y=              5.3733    Z=             -0.8358  Tot=              5.5207
 Quadrupole moment (field-independent basis, Debye-Ang):
   XX=             -1.7565   YY=             43.7921   ZZ=            -54.3023
   XY=             87.8019   XZ=             -2.8184   YZ=             49.6164
 Traceless Quadrupole moment (field-independent basis, Debye-Ang):
   XX=              2.3324   YY=             47.8810   ZZ=            -50.2134
   XY=             87.8019   XZ=             -2.8184   YZ=             49.6164
 Octapole moment (field-independent basis, Debye-Ang**2):
  XXX=           -829.2002  YYY=            127.9589  ZZZ=          -1400.9317  XYY=            659.7933
  XXY=           1208.2824  XXZ=           -210.9888  XZZ=           -768.1584  YZZ=            188.7477
  YYZ=            416.0230  XYZ=            818.4337
 Hexadecapole moment (field-independent basis, Debye-Ang**3):
 XXXX=         -34897.2119 YYYY=          -2054.4796 ZZZZ=         -26967.6238 XXXY=          12476.9391
 XXXZ=         -11527.6043 YYYX=           1227.3425 YYYZ=           1145.4503 ZZZX=         -21615.2788
 ZZZY=          -4010.3142 XXYY=           8260.0702 XXZZ=         -14209.4706 YYZZ=           2010.8794
 XXYZ=          11139.5780 YYXZ=           6282.7142 ZZXY=           3211.3087
 N-N= 2.797145237073D+02 E-N=-2.087064010671D+03  KE= 6.424684665044D+02
 No NMR shielding tensors so no spin-rotation constants.
 Leave Link  601 at Mon Jul 10 19:06:11 2023, MaxMem=  6710886400 cpu:               1.2 elap:               0.1
 (Enter /data0/hywu0/study/g16/l9999.exe)
 1\1\GINC-LOCALHOST\SP\RM062X\6-311+G(2d,p)\H3O4P1\HYWU0\10-Jul-2023\0\
 \#p 6-311+g(2d,p) nosymm em=gd3 m062x\\Title Card Required\\0,1\P,0,16
 .213298,7.13626,10.24033\O,0,15.07704,6.258554,10.558859\O,0,17.542437
 ,6.258674,10.105443\H,0,18.32619,6.913168,9.961972\O,0,16.120896,7.850
 379,8.827335\H,0,15.238344,8.473423,8.820495\O,0,16.609257,8.231031,11
 .305814\H,0,15.854218,8.997011,11.308735\\Version=ES64L-G16RevA.03\HF=
 -644.1344197\RMSD=2.646e-09\Dipole=0.3747608,2.1140332,-0.3288193\Quad
 rupole=1.734083,35.5983708,-37.3324537,65.2785317,-2.0953978,36.888573
 6\PG=C01 [X(H3O4P1)]\\@


 The number of Unix installations has grown to 10,
  with more expected.
                  -- The Unix Programmer's Manual,
                     2nd Edition, June, 1972.
 Job cpu time:       0 days  0 hours  1 minutes 35.7 seconds.
 Elapsed time:       0 days  0 hours  0 minutes  7.3 seconds.
 File lengths (MBytes):  RWF=     15 Int=      0 D2E=      0 Chk=      3 Scr=      1
 Normal termination of Gaussian 16 at Mon Jul 10 19:06:11 2023.
