          28
 G =       -0.560565 Gcorr = 0.138796 a.u. Nimag =   0 Frame:     1 Step:     1 Geom:     1
C          12.17428900     14.66977500      9.55150800
C          12.21947800     13.69120200     10.55341900
C          11.25998800     13.72518200     11.56264500
C          10.29036700     14.72708600     11.54925800
C          10.31419700     15.66789600     10.51324200
N          11.22751800     15.63017900      9.52303500
H          11.28300500     12.98071400     12.36012700
H          12.92060400     14.70594500      8.75101300
H          13.00642100     12.94174800     10.55746600
H           9.53335300     14.78731800     12.32300100
H           9.59325000     16.49185300     10.46657900
P          13.65364500     17.17363300     11.66432100
O          13.79252800     15.79377500     11.17955300
O          12.29959900     17.49615100     12.43326600
H          12.11921400     16.75415900     13.14149600
O          14.83751800     17.51263200     12.67646200
H          14.78211600     18.50988500     12.92255300
O          13.73147600     18.36288000     10.62874100
H          13.07881900     18.16111100      9.81672100
O          13.64078300     13.66964800     13.17884100
H          14.46574800     13.74722700     13.65855400
H          13.73796900     14.29054700     12.42980100
O          11.75745700     15.38611200     14.30299100
H          12.42356200     14.73182500     14.01593100
H          10.91855100     14.99377900     14.07400800
O          12.20996000     17.87976600      8.36009200
H          12.81620900     17.37541900      7.82064300
H          11.53240100     17.21257300      8.64474400
          28
 G =       -0.562082 Gcorr = 0.139402 a.u. Nimag =   0 Frame:     2 Step:     2 Geom:     2
C          10.96511400     15.38722500      9.96886500
C          10.61063800     14.71224900     11.14440300
C          11.51327600     13.80137500     11.68846500
C          12.73846600     13.59315100     11.05602400
C          13.01660300     14.30660000      9.88598700
N          12.14066200     15.17675900      9.34294500
H          11.27424900     13.26982800     12.61147000
H          10.30737000     16.13695300      9.51502000
H           9.66610600     14.92178000     11.64023000
H          13.47006100     12.91032900     11.47850900
H          13.97189300     14.20138600      9.36368400
P          13.23408000     17.58490900     11.73246900
O          14.05323500     16.37344200     11.83322600
O          11.66127800     17.34310700     11.66245800
H          11.36505000     16.72497700     12.44296000
O          13.47625800     18.52021200     13.00225400
H          13.08851800     19.45059000     12.80254000
O          13.46381600     18.57095400     10.52169700
H          13.38829100     18.02620500      9.61012900
O          13.38215900     14.33524500     13.82145500
H          14.00688300     14.54961600     14.51265700
H          13.65358700     14.89872100     13.07174400
O          10.89696500     15.63310700     13.85925600
H          11.70892600     15.09173700     13.90442600
H          10.90009100     16.14992200     14.66214100
O          13.40543700     17.22301500      8.11132800
H          14.22441600     16.72956800      8.13294300
H          12.70659000     16.52706200      8.24073200
          28
 G =       -0.561484 Gcorr = 0.138081 a.u. Nimag =   0 Frame:     3 Step:     3 Geom:     3
C          10.94829600     15.64472700      9.74462500
C          10.21281500     15.10629700     10.81068600
C          10.71263200     13.98383200     11.46642900
C          11.92209000     13.42924400     11.04483400
C          12.59528700     14.02681800      9.97505500
N          12.11205600     15.10581700      9.32773000
H          10.17033600     13.55268900     12.31030700
H          10.61691100     16.54394900      9.21117700
H           9.29045600     15.57894500     11.13449900
H          12.32689900     12.55118500     11.53579400
H          13.55573600     13.64630200      9.61341100
P          13.23019400     17.48858700     11.81224200
O          14.24204800     16.44333400     11.98986700
O          11.72277600     16.97921300     11.75033400
H          11.52835000     16.34002700     12.54761000
O          13.28680000     18.53783800     13.00994800
H          12.72467400     19.35916400     12.74894000
O          13.29622000     18.41271300     10.53101100
H          13.51140800     17.81290800      9.68261200
O          13.74742900     14.05059900     13.59962100
H          13.74325100     13.43443000     12.86669200
H          14.08137300     14.87646500     13.20438000
O          11.23740700     15.14681600     13.90762800
H          12.08828000     14.66361500     13.85361000
H          11.28048600     15.61367000     14.74109500
O          13.88916900     16.88433300      8.28980400
H          14.66108800     16.39001400      8.56479100
H          13.15555100     16.21649100      8.30528100
          28
 G =       -0.562065 Gcorr = 0.139318 a.u. Nimag =   0 Frame:     4 Step:     4 Geom:     4
C          11.24431500     16.03561000      9.45166800
C          10.38280600     15.34268900     10.30771500
C          10.77831100     14.09285600     10.78356400
C          12.01599700     13.57923800     10.40355500
C          12.82170000     14.33717300      9.54359500
N          12.43590700     15.53613600      9.06311200
H          10.13242200     13.53267900     11.46235300
H          10.99522500     17.02982000      9.07023100
H           9.43850000     15.78202900     10.61975100
H          12.36552800     12.62623400     10.78937900
H          13.81709900     13.99568400      9.23886000
P          13.74696400     16.59523800     12.17864700
O          13.71809500     15.14019400     12.00534700
O          12.39172600     17.35465500     11.81762100
H          11.58272300     16.83208300     12.20244800
O          14.05842600     16.95735600     13.69989300
H          14.28212600     17.95816400     13.76115400
O          14.82218400     17.43418900     11.38606000
H          14.58229200     17.41168000     10.34781000
O          11.73052500     13.58799800     13.45909100
H          12.15154500     13.48783100     14.31160900
H          12.42408400     13.98294500     12.89592600
O          10.20012400     15.91021700     13.03906000
H          10.63107000     15.04668600     13.18949900
H          10.06542400     16.27239100     13.91195000
O          14.21638400     17.53148000      8.69144900
H          13.48778000     18.15139400      8.67901800
H          13.78073800     16.65537100      8.50964800
          28
 G =       -0.562737 Gcorr = 0.138452 a.u. Nimag =   0 Frame:     5 Step:     5 Geom:     5
C          11.51998100     15.32196400      9.23759400
C          10.48800200     14.95879400     10.11311300
C          10.78091300     14.09760000     11.16874400
C          12.08637100     13.63496700     11.32954200
C          13.05940800     14.04394200     10.41216000
N          12.77870800     14.85846100      9.37451900
H           9.99966300     13.80153000     11.87073100
H          11.35305700     16.01931700      8.40934200
H           9.49016900     15.36583300      9.98570100
H          12.34783600     12.98722800     12.16332800
H          14.10377300     13.73109200     10.50508100
P          13.02123000     17.62693100     11.57372700
O          13.82277400     16.55772500     12.17947100
O          11.56392800     17.20531000     11.09228000
H          11.07312400     16.70536600     11.86179700
O          12.80804200     18.81981400     12.61038900
H          12.45084500     19.63656400     12.09824600
O          13.57673800     18.36065000     10.28990500
H          14.01635700     17.63531400      9.64511200
O          12.70216200     14.62838800     14.04866500
H          13.11514000     14.91535800     14.86170500
H          13.14211400     15.15853800     13.35884500
O          10.28549000     15.82339600     13.28645000
H          11.05599900     15.30626500     13.59154300
H          10.12390700     16.45711300     13.98268600
O          14.78601500     16.51473300      8.62018100
H          14.06879300     15.83363000      8.51710500
H          15.41947600     16.09420600      9.20205100
          28
 G =       -0.557759 Gcorr = 0.137848 a.u. Nimag =   0 Frame:     6 Step:     7 Geom:     7
C          10.77088000     14.25964700      9.63294100
C           9.86573100     14.18593300     10.69575200
C          10.36126700     13.94979100     11.97939600
C          11.73070500     13.77680000     12.15992100
C          12.56977400     13.83889100     11.03756900
N          12.09742700     14.08558400      9.79825400
H           9.68322400     13.91680300     12.83387000
H          10.44147700     14.46383000      8.60820800
H           8.80152700     14.31024100     10.52553000
H          12.15596200     13.62650800     13.14891200
H          13.65420400     13.69330700     11.12013800
P          13.89841700     17.14473000     11.72736400
O          12.95650400     16.05695200     12.02338800
O          13.27109100     18.51145500     11.22209300
H          12.49580400     18.79265600     11.86416700
O          14.75074900     17.50061200     13.02715700
H          15.51798900     18.12696900     12.75089400
O          15.02122200     16.88102000     10.64481300
H          14.59700700     16.37781600      9.81784500
O          10.16109400     16.61848500     12.70947300
H           9.80060700     16.57644300     11.82183000
H          11.08140500     16.31139900     12.60268200
O          11.13095700     19.19467700     12.99207600
H          10.64387300     18.34960100     12.93820700
H          11.46184000     19.22157100     13.88902300
O          14.16396400     15.33668900      8.49211200
H          14.70380900     14.55159300      8.55294900
H          13.25150900     15.01002200      8.69345100
          28
 G =       -0.562725 Gcorr = 0.138464 a.u. Nimag =   0 Frame:     7 Step:     8 Geom:     8
C          11.35293700     15.26202900      9.39459600
C          10.23375900     15.71143100     10.10790200
C           9.97446200     15.15789600     11.36019800
C          10.83726700     14.18812100     11.86924600
C          11.93247100     13.79319600     11.09445200
N          12.17689600     14.30737600      9.87186100
H           9.11394600     15.49188900     11.94223000
H          11.62132500     15.68371200      8.41975400
H           9.60223100     16.49556500      9.70306200
H          10.67507400     13.76321500     12.85730400
H          12.65449000     13.05447300     11.45524700
P          13.69480700     17.10552000     11.42978600
O          13.78735400     16.00564600     12.39633300
O          12.26141100     17.32538500     10.77371500
H          11.53868400     17.36961000     11.52119100
O          14.07196400     18.49103000     12.12350400
H          14.22386200     19.19299400     11.38781600
O          14.62442300     17.07724900     10.15303200
H          14.65923900     16.08087300      9.77763500
O          11.72036600     15.48586300     14.37917800
H          12.17434900     15.75654700     15.17580700
H          12.41079000     15.51349700     13.69144200
O          10.32615900     17.42895300     12.91976500
H          10.69619100     16.71517400     13.47445600
H          10.47843900     18.23027600     13.41684200
O          14.79251200     14.48902800      9.18827000
H          15.08121900     14.00051900      9.95943900
H          13.83338600     14.24295300      9.09595400
          28
 G =       -0.560530 Gcorr = 0.139348 a.u. Nimag =   0 Frame:     8 Step:     9 Geom:     9
C          11.06380900     15.16264900      9.57175200
C          10.05812100     15.23592800     10.53996900
C          10.23853200     14.55067400     11.74259200
C          11.40196800     13.81219900     11.93750700
C          12.35896900     13.78069900     10.91159500
N          12.18775500     14.43929000      9.74714100
H           9.48250000     14.60327600     12.52895800
H          10.98376400     15.69466000      8.61844100
H           9.15477900     15.80616900     10.35359200
H          11.58621200     13.29397400     12.87470600
H          13.29947400     13.22498800     11.01723400
P          13.97803400     16.75453200     11.92748600
O          13.26003400     15.57217400     12.41978400
O          13.10122200     17.78551200     11.08973100
H          12.16308800     17.88834700     11.52866200
O          14.58936800     17.56978100     13.15041600
H          15.16985700     18.33292700     12.77542300
O          15.22650300     16.53158300     10.98723000
H          14.89331200     16.10661400     10.07169400
O          10.93736700     15.93141000     14.12202100
H          11.29022900     16.31787700     14.92362700
H          11.72795600     15.68497200     13.60318000
O          10.48546900     17.92267200     12.21793300
H          10.55541500     17.28801300     12.95747300
H           9.93076700     17.47883200     11.57802200
O          14.38847600     15.48686400      8.55131500
H          13.84564300     16.19635600      8.20830700
H          13.73138700     14.78705200      8.80422700
          28
 G =       -0.562105 Gcorr = 0.139374 a.u. Nimag =   0 Frame:     9 Step:    10 Geom:    10
C          11.02626000     15.70087600      9.70270300
C          10.15501700     15.84268900     10.79062600
C          10.25116000     14.93671000     11.84447800
C          11.20974000     13.92553000     11.79071600
C          12.04168800     13.85188400     10.66904500
N          11.94228900     14.71366300      9.63632100
H           9.59697300     15.02787800     12.71360100
H          11.01642300     16.40341700      8.86190900
H           9.44305900     16.66348100     10.82704700
H          11.32381800     13.22687000     12.61459400
H          12.82736800     13.09532500     10.58652200
P          13.83115300     17.02962500     11.57148300
O          13.74065500     15.74674900     12.27471200
O          12.46142300     17.57982100     10.97268800
H          11.72865100     17.57587000     11.70846200
O          14.36310400     18.16279200     12.56065000
H          14.63608400     18.98199100     12.00370900
O          14.80266300     17.16153400     10.33458200
H          14.55872200     16.41273900      9.61842100
O          11.67949900     15.35828700     14.31428900
H          12.18381500     15.51321300     15.11154100
H          12.35167500     15.34088400     13.60649300
O          10.47359300     17.56460900     13.06844000
H          10.78825600     16.77965000     13.55734000
H          10.64214900     18.30206300     13.65121400
O          14.33865200     15.17770300      8.46538700
H          14.70934900     14.40879300      8.89691300
H          13.35678400     15.02537000      8.51612400
          28
 G =       -0.562096 Gcorr = 0.139388 a.u. Nimag =   0 Frame:    10 Step:    11 Geom:    11
C          11.02031000     15.65410100      9.75780600
C          10.21947700     15.72989700     10.90500600
C          10.43741600     14.81446900     11.93211900
C          11.44376200     13.85921800     11.79363200
C          12.19936100     13.84994500     10.61703500
N          11.98252200     14.72114800      9.61041400
H           9.84101900     14.85554800     12.84549500
H          10.91388400     16.36798300      8.93335200
H           9.46800800     16.50902700     11.00561900
H          11.65176100     13.15478800     12.59394500
H          13.01757500     13.13975900     10.46664100
P          13.85762300     17.12823400     11.45236500
O          13.90470000     15.83223500     12.13566900
O          12.41352400     17.59461600     10.96860500
H          11.74130000     17.53539600     11.75819700
O          14.38743100     18.28037800     12.42074000
H          14.56934000     19.12187700     11.85976400
O          14.72044300     17.34255500     10.14827800
H          14.48668700     16.57711500      9.44640900
O          12.02066200     15.27202500     14.30308800
H          12.57403300     15.44867700     15.06247000
H          12.63637200     15.30801500     13.54626500
O          10.59572800     17.42276000     13.20428000
H          10.99220800     16.64845200     13.64872700
H          10.76487200     18.15717600     13.79055900
O          14.27208100     15.32944700      8.30979500
H          14.70445500     14.58034700      8.71784400
H          13.30345900     15.12483000      8.40589700
          28
 G =       -0.562061 Gcorr = 0.139322 a.u. Nimag =   0 Frame:    11 Step:    13 Geom:    13
C          11.55338100     14.01602400     10.49622400
C          10.86844000     14.10893400     11.71500900
C          10.07731200     15.23058200     11.95186200
C           9.99717100     16.22694800     10.97936500
C          10.71059800     16.05818100      9.78867000
N          11.46306600     14.96548000      9.54353800
H           9.54082700     15.33898100     12.89642700
H          12.21419800     13.17163100     10.27119600
H          10.97935400     13.33631300     12.46996900
H           9.41675200     17.12924400     11.15560200
H          10.70370600     16.81995000      9.00401400
P          14.00459200     16.42875600     11.52926200
O          13.42591000     15.20880400     12.09925100
O          12.95114900     17.51361400     11.02242600
H          12.18629400     17.61152200     11.71639200
O          14.90253400     17.16828000     12.61962500
H          15.45934600     17.89339600     12.15096100
O          14.97729100     16.30341600     10.29376100
H          14.41811700     15.98767300      9.44340300
O          11.62727900     15.43472300     14.37657100
H          12.24449900     15.49300400     15.10430700
H          12.18688400     15.21630400     13.60638200
O          10.93114500     17.82675500     13.07122300
H          11.06640300     16.99761900     13.56965600
H          11.22335300     18.51785200     13.66138700
O          13.58864900     15.60762500      8.00632400
H          13.15641400     16.43281400      7.78819000
H          12.84534900     15.03559500      8.33902300
          28
 G =       -0.562055 Gcorr = 0.139328 a.u. Nimag =   0 Frame:    12 Step:    14 Geom:    14
C          10.81202900     17.13268000     10.13638900
C          10.09400500     16.78794400     11.28562300
C           9.95130300     15.43740200     11.60283000
C          10.53318500     14.47814200     10.77742400
C          11.23847000     14.90606100      9.64486200
N          11.36174800     16.20885400      9.32112900
H           9.40578100     15.13728300     12.49953600
H          10.97572900     18.17671400      9.85498000
H           9.68177800     17.55701200     11.93421900
H          10.47042200     13.42181400     11.02129600
H          11.74252800     14.19638600      8.97959500
P          14.04399600     15.95824600     11.62273500
O          13.22617500     14.74658500     11.51701800
O          13.23177400     17.31783900     11.81056000
H          12.46899600     17.17878300     12.49969900
O          15.01573400     15.85266100     12.88244000
H          15.71773300     16.60016800     12.82055800
O          15.02859100     16.31657100     10.44353600
H          14.45733600     16.59037000      9.58661900
O          11.40809600     14.08213600     13.69192000
H          11.99531000     13.64883700     14.30956600
H          11.95023400     14.19566300     12.88738000
O          11.21673500     16.88414400     13.84341500
H          11.17798700     15.90813000     13.83705000
H          11.60193900     17.10869600     14.68747100
O          13.63212000     17.16002200      8.21208200
H          13.36619100     18.04048300      8.47543300
H          12.78409100     16.64039600      8.24465500
          28
 G =       -0.557204 Gcorr = 0.137249 a.u. Nimag =   0 Frame:    13 Step:    16 Geom:    16
C           9.80750400     15.82646400     10.30268200
C           9.54926400     14.97143700     11.37721700
C          10.46450600     13.95348300     11.65546100
C          11.58775400     13.80827100     10.84805000
C          11.76187800     14.69315800      9.77191300
N          10.89223400     15.69071400      9.51326100
H          10.30486300     13.28738200     12.50505400
H           9.13311800     16.65008700     10.04728500
H           8.65490600     15.09333200     11.97874200
H          12.33919300     13.04957600     11.05402000
H          12.62065100     14.61324300      9.09133900
P          14.33088500     16.65781600     11.33180500
O          13.29848800     15.62094700     11.45904800
O          14.11581000     17.97480800     12.19503000
H          13.89579300     17.71675700     13.17884600
O          15.75637600     16.07416600     11.72955600
H          16.46516400     16.79660000     11.53440500
O          14.59206100     17.25527900      9.89006600
H          13.66784100     17.52673400      9.45504000
O          11.60558400     15.37054500     13.83360600
H          10.87536000     15.82715100     13.41301700
H          12.23580400     15.22947100     13.10104600
O          13.29227200     17.33106900     14.86571600
H          12.73367900     16.56004600     14.65320500
H          12.70355900     17.95652400     15.27714500
O          12.17021200     17.93855900      8.66868200
H          11.67082900     18.41679400      9.32858000
H          11.68442700     17.07961400      8.58019600
          28
 G =       -0.561476 Gcorr = 0.138089 a.u. Nimag =   0 Frame:    14 Step:    17 Geom:    17
C          10.72195400     16.75545900     10.15069000
C           9.99538700     16.41317000     11.30058500
C           9.98387600     15.08229700     11.71097000
C          10.68914200     14.13327800     10.96932700
C          11.39011200     14.55597100      9.83590700
N          11.39621800     15.83989100      9.42565900
H           9.44079600     14.78889500     12.61156100
H          10.78942900     17.79186700      9.79810700
H           9.48201500     17.17971600     11.87316300
H          10.68866600     13.09027300     11.26607100
H          11.97486800     13.85959800      9.22666800
P          13.90302400     16.91811700     11.80530700
O          14.29800200     15.51640700     11.64044700
O          12.34869500     17.16828200     12.04425400
H          11.99782000     16.54319100     12.79812200
O          14.64658100     17.57042600     13.05442200
H          14.51785900     18.59044200     13.01246000
O          14.20485600     17.94398100     10.64059800
H          13.96684000     17.49141300      9.71085200
O          12.96666100     13.34171300     13.07410500
H          12.54966700     12.95328500     12.30465400
H          13.59183500     13.98690000     12.69625400
O          11.38564700     15.36945500     14.06428700
H          11.87568700     14.57403000     13.76811000
H          11.78016500     15.59315200     14.90616700
O          13.62511200     16.78498200      8.18478500
H          14.09577400     15.95272200      8.22292000
H          12.67332700     16.53110400      8.30356300
          28
 G =       -0.558165 Gcorr = 0.138399 a.u. Nimag =   0 Frame:    15 Step:    18 Geom:    18
C          11.39554000     15.40062500      9.41881200
C          11.45281900     14.10921200      9.96645500
C          10.50629200     13.74628100     10.91902500
C           9.53581600     14.67314100     11.30630800
C           9.56170400     15.94676200     10.73195500
N          10.47134500     16.30412500      9.80301200
H          10.52849400     12.75226600     11.36882900
H          12.10754100     15.73450900      8.65177000
H          12.24422200     13.42697700      9.66637800
H           8.77560300     14.40988700     12.03407100
H           8.83605300     16.71831400     11.00927700
P          14.07902800     16.78551900     11.33775500
O          13.20974600     15.62855100     11.08996200
O          13.81893800     17.57504700     12.69130900
H          13.80169400     16.90283100     13.48928700
O          15.60691300     16.33494800     11.36251800
H          16.19391600     17.17980700     11.33332400
O          14.07434800     17.94702100     10.26509400
H          13.07853000     18.27932700     10.11944900
O          11.99650100     14.11816800     13.29254000
H          11.16582200     14.59621300     13.32484100
H          12.42839800     14.45339400     12.48456100
O          13.72753500     15.66013200     14.80713700
H          13.07861500     15.04772300     14.40894900
H          14.54621300     15.16534100     14.81634300
O          11.47378000     18.83666400      9.82429000
H          10.99539500     18.04319900      9.47168800
H          11.09921600     18.96403800     10.69507000
          28
 G =       -0.562084 Gcorr = 0.139400 a.u. Nimag =   0 Frame:    16 Step:    19 Geom:    19
C          10.60662300     16.73576900     12.50444600
C          10.60965700     15.35259100     12.72799000
C          10.54386700     14.49927700     11.62890700
C          10.48396700     15.04159900     10.34565400
C          10.48498000     16.43307700     10.20725800
N          10.53008500     17.26608100     11.26714700
H          10.55921900     13.41658800     11.76745100
H          10.68872800     17.45232700     13.32936300
H          10.69731800     14.95444100     13.73578700
H          10.46289300     14.39566800      9.47253500
H          10.46524700     16.91147600      9.22379300
P          14.04965700     16.72143500     11.39300800
O          13.48683400     16.06215200     10.21094000
O          13.26010300     16.47602800     12.75438600
H          13.11197600     15.45793300     12.89742000
O          15.53809300     16.20854200     11.65257300
H          15.98994500     16.84108400     12.32463700
O          14.21510900     18.29095600     11.39379300
H          13.27777800     18.74020100     11.16382300
O          12.78760300     13.22379600     10.33357800
H          13.55655200     12.83905700      9.91552200
H          12.89866000     14.18430200     10.19849600
O          12.89165700     13.63605300     13.10506700
H          12.80059700     13.38926200     12.16424600
H          13.71995100     13.25046000     13.38240400
O          11.85852300     19.54762200     10.68746600
H          11.15099200     18.98197100     11.09845400
H          11.79340500     19.35027500      9.75387800
          28
 G =       -0.562086 Gcorr = 0.139297 a.u. Nimag =   0 Frame:    17 Step:    20 Geom:    20
C          11.18429700     15.59892400      9.42526700
C          11.00195600     14.40117200     10.12909300
C          10.40308400     14.45033300     11.38567000
C          10.01271600     15.68315500     11.90792100
C          10.22828800     16.83260400     11.14147300
N          10.78969000     16.79110200      9.91532500
H          10.25822300     13.53639300     11.96492200
H          11.67862900     15.62161800      8.44780700
H          11.34998900     13.45972600      9.71463600
H           9.57788200     15.75228000     12.90203500
H           9.96474300     17.82674300     11.51330400
P          13.94410300     16.56429100     11.51116800
O          13.56445000     15.36497800     10.75919100
O          12.82569000     17.13981600     12.49175800
H          12.37596600     16.36031500     13.00752900
O          15.21144600     16.25507700     12.42797300
H          15.58940700     17.14359600     12.77834600
O          14.38697000     17.85258200     10.71588800
H          13.54095400     18.25281000     10.20612200
O          12.74356000     12.98632200     12.22312800
H          13.58813600     12.59486300     12.44110000
H          12.96893000     13.71263200     11.61013200
O          11.71795300     14.92247900     13.98786600
H          11.99198200     14.17998300     13.41548200
H          12.23550700     14.82213200     14.78365100
O          12.22507900     19.03228000      9.45998700
H          11.63333900     18.26748000      9.22515400
H          11.77705000     19.44434100     10.19808600
