 Entering Gaussian System, Link 0=g16
 Initial command:
 /data0/home/software/g16/l1.exe "/data0/home/software/g16/scratch/Gau-3813261.inp" -scrdir="/data0/home/software/g16/scratch/"
 Default is to use a total of  22 processors:
                               22 via shared-memory
                                1 via Linda
 Entering Link 1 = /data0/home/software/g16/l1.exe PID=   3813262.
  
 Copyright (c) 1988,1990,1992,1993,1995,1998,2003,2009,2016,
            Gaussian, Inc.  All Rights Reserved.
  
 This is part of the Gaussian(R) 16 program.  It is based on
 the Gaussian(R) 09 system (copyright 2009, Gaussian, Inc.),
 the Gaussian(R) 03 system (copyright 2003, Gaussian, Inc.),
 the Gaussian(R) 98 system (copyright 1998, Gaussian, Inc.),
 the Gaussian(R) 94 system (copyright 1995, Gaussian, Inc.),
 the Gaussian 92(TM) system (copyright 1992, Gaussian, Inc.),
 the Gaussian 90(TM) system (copyright 1990, Gaussian, Inc.),
 the Gaussian 88(TM) system (copyright 1988, Gaussian, Inc.),
 the Gaussian 86(TM) system (copyright 1986, Carnegie Mellon
 University), and the Gaussian 82(TM) system (copyright 1983,
 Carnegie Mellon University). Gaussian is a federally registered
 trademark of Gaussian, Inc.
  
 This software contains proprietary and confidential information,
 including trade secrets, belonging to Gaussian, Inc.
  
 This software is provided under written license and may be
 used, copied, transmitted, or stored only in accord with that
 written license.
  
 The following legend is applicable only to US Government
 contracts under FAR:
  
                    RESTRICTED RIGHTS LEGEND
  
 Use, reproduction and disclosure by the US Government is
 subject to restrictions as set forth in subparagraphs (a)
 and (c) of the Commercial Computer Software - Restricted
 Rights clause in FAR 52.227-19.
  
 Gaussian, Inc.
 340 Quinnipiac St., Bldg. 40, Wallingford CT 06492
  
  
 ---------------------------------------------------------------
 Warning -- This program may not be used in any manner that
 competes with the business of Gaussian, Inc. or will provide
 assistance to any competitor of Gaussian, Inc.  The licensee
 of this program is prohibited from giving any competitor of
 Gaussian, Inc. access to this program.  By using this program,
 the user acknowledges that Gaussian, Inc. is engaged in the
 business of creating and licensing software in the field of
 computational chemistry and represents and warrants to the
 licensee that it is not a competitor of Gaussian, Inc. and that
 it will not use this program in any manner prohibited above.
 ---------------------------------------------------------------
  

 Cite this work as:
 Gaussian 16, Revision A.03,
 M. J. Frisch, G. W. Trucks, H. B. Schlegel, G. E. Scuseria, 
 M. A. Robb, J. R. Cheeseman, G. Scalmani, V. Barone, 
 G. A. Petersson, H. Nakatsuji, X. Li, M. Caricato, A. V. Marenich, 
 J. Bloino, B. G. Janesko, R. Gomperts, B. Mennucci, H. P. Hratchian, 
 J. V. Ortiz, A. F. Izmaylov, J. L. Sonnenberg, D. Williams-Young, 
 F. Ding, F. Lipparini, F. Egidi, J. Goings, B. Peng, A. Petrone, 
 T. Henderson, D. Ranasinghe, V. G. Zakrzewski, J. Gao, N. Rega, 
 G. Zheng, W. Liang, M. Hada, M. Ehara, K. Toyota, R. Fukuda, 
 J. Hasegawa, M. Ishida, T. Nakajima, Y. Honda, O. Kitao, H. Nakai, 
 T. Vreven, K. Throssell, J. A. Montgomery, Jr., J. E. Peralta, 
 F. Ogliaro, M. J. Bearpark, J. J. Heyd, E. N. Brothers, K. N. Kudin, 
 V. N. Staroverov, T. A. Keith, R. Kobayashi, J. Normand, 
 K. Raghavachari, A. P. Rendell, J. C. Burant, S. S. Iyengar, 
 J. Tomasi, M. Cossi, J. M. Millam, M. Klene, C. Adamo, R. Cammi, 
 J. W. Ochterski, R. L. Martin, K. Morokuma, O. Farkas, 
 J. B. Foresman, and D. J. Fox, Gaussian, Inc., Wallingford CT, 2016.
 
 ******************************************
 Gaussian 16:  ES64L-G16RevA.03 25-Dec-2016
                17-Dec-2022 
 ******************************************
 %nproc=24
 Will use up to   24 processors via shared memory.
 %mem=10GB
 ---------------------------------------------------
 #p M062X/6-311+G(2d,p) nosymm em=GD3 counterpoise=2
 ---------------------------------------------------
 1/38=1,62=2,172=1/1;
 2/12=2,15=1,17=6,18=5,40=1/2;
 1/38=1,53=2,62=2,63=1/22;
 3/5=4,6=6,7=112,11=2,25=1,30=1,74=-55,124=31/1,2,3;
 4//1;
 5/5=2,38=5/2;
 6/7=2,8=2,9=2,10=2,28=1/1;
 1/53=2,62=2,63=1/22;
 3/5=7,6=11,7=112,11=2,25=1,30=1,74=-55,82=7,124=31/1,2,3;
 4//1;
 5/5=2,38=5/2;
 6/7=2,8=2,9=2,10=2,28=1/1;
 1/53=2,62=2,63=1/22(-4);
 99/5=1,9=1/99;
 Leave Link    1 at Sat Dec 17 22:11:50 2022, MaxMem=  1342177280 cpu:               0.7 elap:               0.0
 (Enter /data0/home/software/g16/l101.exe)
 -------------------
 Title Card Required
 -------------------
 Symbolic Z-matrix:
 Charge =  0 Multiplicity = 1 in supermolecule
 Charge =  0 Multiplicity = 1 in fragment      1.
 Charge =  0 Multiplicity = 1 in fragment      2.
 C                     6.0143    15.45363   10.0561    
 C                     6.76949   16.56374   10.56765    
 C                     6.4526    17.86869   10.18178    
 C                     5.39162   18.03881   9.30828    
 C                     4.64625   16.9448   8.8214     
 C                     4.94309   15.63985   9.18085    
 H                     7.03446   18.70792   10.55892    
 H                     5.11636   19.04235   8.98432    
 H                     3.81404   17.14043   8.14444    
 H                     4.3648    14.80116   8.80822    
 H                     6.3767    13.37158   10.36462    
 C                     7.66333   14.74186   11.41061    
 H                     8.31104   14.05352   11.9396    
 N                     6.58527   14.30912   10.62398    
 N                     7.77784   16.07467   11.40873    
 P                     10.12369   15.56418   9.01041    
 O                     9.13369   14.48775   8.96129    
 O                     10.4705   16.19938   10.42551    
 H                     9.57447   16.50131   10.88683    
 O                     11.55795   15.07823   8.52411    
 H                     12.20014   15.88508   8.59026    
 O                     9.82628   16.85405   8.12199    
 H                     8.96927   16.69657   7.56107    
 
 ITRead=  0  0  0  0  0  0  0  0  0  0  0  0  0  0  0  0  0  0  0  0
 ITRead=  0  0  0
 MicOpt= -1 -1 -1 -1 -1 -1 -1 -1 -1 -1 -1 -1 -1 -1 -1 -1 -1 -1 -1 -1
 MicOpt= -1 -1 -1
 NAtoms=     23 NQM=       23 NQMF=       0 NMMI=      0 NMMIF=      0
                NMic=       0 NMicF=      0.
                    Isotopes and Nuclear Properties:
 (Nuclear quadrupole moments (NQMom) in fm**2, nuclear magnetic moments (NMagM)
  in nuclear magnetons)

  Atom         1           2           3           4           5           6           7           8           9          10
 IAtWgt=          12          12          12          12          12          12           1           1           1           1
 AtmWgt=  12.0000000  12.0000000  12.0000000  12.0000000  12.0000000  12.0000000   1.0078250   1.0078250   1.0078250   1.0078250
 NucSpn=           0           0           0           0           0           0           1           1           1           1
 AtZEff=  -0.0000000  -0.0000000  -0.0000000  -0.0000000  -0.0000000  -0.0000000  -0.0000000  -0.0000000  -0.0000000  -0.0000000
 NQMom=    0.0000000   0.0000000   0.0000000   0.0000000   0.0000000   0.0000000   0.0000000   0.0000000   0.0000000   0.0000000
 NMagM=    0.0000000   0.0000000   0.0000000   0.0000000   0.0000000   0.0000000   2.7928460   2.7928460   2.7928460   2.7928460
 AtZNuc=   6.0000000   6.0000000   6.0000000   6.0000000   6.0000000   6.0000000   1.0000000   1.0000000   1.0000000   1.0000000

  Atom        11          12          13          14          15          16          17          18          19          20
 IAtWgt=           1          12           1          14          14          31          16          16           1          16
 AtmWgt=   1.0078250  12.0000000   1.0078250  14.0030740  14.0030740  30.9737634  15.9949146  15.9949146   1.0078250  15.9949146
 NucSpn=           1           0           1           2           2           1           0           0           1           0
 AtZEff=  -0.0000000  -0.0000000  -0.0000000  -0.0000000  -0.0000000  -0.0000000  -0.0000000  -0.0000000  -0.0000000  -0.0000000
 NQMom=    0.0000000   0.0000000   0.0000000   2.0440000   2.0440000   0.0000000   0.0000000   0.0000000   0.0000000   0.0000000
 NMagM=    2.7928460   0.0000000   2.7928460   0.4037610   0.4037610   1.1316000   0.0000000   0.0000000   2.7928460   0.0000000
 AtZNuc=   1.0000000   6.0000000   1.0000000   7.0000000   7.0000000  15.0000000   8.0000000   8.0000000   1.0000000   8.0000000

  Atom        21          22          23
 IAtWgt=           1          16           1
 AtmWgt=   1.0078250  15.9949146   1.0078250
 NucSpn=           1           0           1
 AtZEff=  -0.0000000  -0.0000000  -0.0000000
 NQMom=    0.0000000   0.0000000   0.0000000
 NMagM=    2.7928460   0.0000000   2.7928460
 AtZNuc=   1.0000000   8.0000000   1.0000000
 Leave Link  101 at Sat Dec 17 22:11:50 2022, MaxMem=  1342177280 cpu:               2.1 elap:               0.1
 (Enter /data0/home/software/g16/l202.exe)
                          Input orientation:                          
 ---------------------------------------------------------------------
 Center     Atomic      Atomic             Coordinates (Angstroms)
 Number     Number       Type             X           Y           Z
 ---------------------------------------------------------------------
      1          6           0        6.014304   15.453632   10.056102
      2          6           0        6.769488   16.563738   10.567654
      3          6           0        6.452596   17.868695   10.181783
      4          6           0        5.391618   18.038807    9.308282
      5          6           0        4.646254   16.944797    8.821396
      6          6           0        4.943093   15.639853    9.180851
      7          1           0        7.034465   18.707921   10.558920
      8          1           0        5.116360   19.042345    8.984315
      9          1           0        3.814044   17.140429    8.144441
     10          1           0        4.364800   14.801158    8.808218
     11          1           0        6.376698   13.371582   10.364622
     12          6           0        7.663334   14.741858   11.410615
     13          1           0        8.311038   14.053522   11.939598
     14          7           0        6.585271   14.309117   10.623981
     15          7           0        7.777840   16.074670   11.408732
     16         15           0       10.123695   15.564175    9.010408
     17          8           0        9.133691   14.487755    8.961291
     18          8           0       10.470498   16.199385   10.425511
     19          1           0        9.574465   16.501311   10.886828
     20          8           0       11.557953   15.078230    8.524108
     21          1           0       12.200137   15.885076    8.590262
     22          8           0        9.826282   16.854048    8.121991
     23          1           0        8.969274   16.696568    7.561070
 ---------------------------------------------------------------------
                    Distance matrix (angstroms):
                    1          2          3          4          5
     1  C    0.000000
     2  C    1.436775   0.000000
     3  C    2.457728   1.397222   0.000000
     4  C    2.762264   2.379154   1.384780   0.000000
     5  C    2.370576   2.775382   2.442767   1.410490   0.000000
     6  C    1.395792   2.472348   2.871968   2.443848   1.385713
     7  H    3.447311   2.160511   1.088625   2.170427   3.439644
     8  H    3.851479   3.373913   2.144041   1.089867   2.155748
     9  H    3.367622   3.865124   3.412197   2.156467   1.090465
    10  H    2.168825   3.461911   3.956685   3.433190   2.162077
    11  H    2.135754   3.222633   4.501468   4.885614   4.259560
    12  C    2.249584   2.197451   3.571138   4.522209   4.545302
    13  H    3.283725   3.249583   4.593394   5.597261   5.613671
    14  N    1.399430   2.262835   3.589392   4.131157   3.735761
    15  N    2.307673   1.401204   2.545624   3.736814   4.154306
    16  P    4.241791   3.830776   4.489978   5.348372   5.651920
    17  O    3.444141   3.532643   4.484264   5.170443   5.117980
    18  O    4.533241   3.721617   4.357698   5.516040   6.086924
    19  H    3.802957   2.823768   3.480358   4.727781   5.361898
    20  O    5.763677   5.414075   6.049732   6.885030   7.165475
    21  H    6.371763   5.819159   6.285055   7.177050   7.631355
    22  O    4.498125   3.925498   4.080932   4.741011   5.227819
    23  H    4.062256   3.727767   3.817812   4.201664   4.509827
                    6          7          8          9         10
     6  C    0.000000
     7  H    3.960549   0.000000
     8  H    3.412565   2.504066   0.000000
     9  H    2.144907   4.319474   2.453304   0.000000
    10  H    1.084752   5.045282   4.310861   2.493215   0.000000
    11  H    2.932847   5.380234   5.970867   5.069577   2.917844
    12  C    3.630145   4.104938   5.555915   5.589103   4.201942
    13  H    4.633593   5.019894   6.620273   6.644935   5.092867
    14  N    2.559342   4.422158   5.220120   4.673772   2.910256
    15  N    3.631571   2.865100   4.665658   5.244341   4.475863
    16  P    5.183957   4.671656   6.096864   6.560958   5.812740
    17  O    4.351626   4.976843   6.073201   6.000214   4.781629
    18  O    5.693370   4.256392   6.231072   7.099100   6.469175
    19  H    5.010197   3.380570   5.472761   6.411833   5.861037
    20  O    6.671065   6.146305   7.577606   8.022776   7.204092
    21  H    7.285164   6.207112   7.765534   8.491244   7.912957
    22  O    5.142080   4.143635   5.264562   6.019097   5.874781
    23  H    4.466595   4.095868   4.730036   5.207085   5.133141
                   11         12         13         14         15
    11  H    0.000000
    12  C    2.151090   0.000000
    13  H    2.585974   1.083120   0.000000
    14  N    0.994858   1.402953   2.185051   0.000000
    15  N    3.218703   1.337723   2.156654   2.270514   0.000000
    16  P    4.547675   3.534201   3.761376   4.086469   3.393464
    17  O    3.288798   2.868049   3.120197   3.048097   3.216613
    18  O    4.975879   3.312851   3.400067   4.325216   2.869265
    19  H    4.504844   2.649990   2.948939   3.716192   1.918924
    20  O    5.757217   4.859334   4.822661   5.452391   4.858313
    21  H    6.586232   5.462959   5.449563   6.176276   5.247517
    22  O    5.390417   4.467073   4.971221   4.820869   3.950470
    23  H    5.063288   4.510584   5.156595   4.556843   4.075632
                   16         17         18         19         20
    16  P    0.000000
    17  O    1.463284   0.000000
    18  O    1.589428   2.619288   0.000000
    19  H    2.168140   2.820706   1.052068   0.000000
    20  O    1.590511   2.533147   2.460667   3.397327   0.000000
    21  H    2.142688   3.390171   2.541374   3.542332   1.033333
    22  O    1.594212   2.604506   2.479879   2.798599   2.512750
    23  H    2.171539   2.620402   3.271985   3.386008   3.201206
                   21         22         23
    21  H    0.000000
    22  O    2.606410   0.000000
    23  H    3.486579   1.036289   0.000000
 Symmetry turned off by external request.
 Stoichiometry    C7H9N2O4P
 Framework group  C1[X(C7H9N2O4P)]
 Deg. of freedom    63
 Full point group                 C1      NOp   1
 Rotational constants (GHZ):           1.1377660           0.4060103           0.3711648
 Leave Link  202 at Sat Dec 17 22:11:50 2022, MaxMem=  1342177280 cpu:               0.1 elap:               0.0
 (Enter /data0/home/software/g16/l122.exe)
 Counterpoise: doing full-system calculation.
 Leave Link  122 at Sat Dec 17 22:11:50 2022, MaxMem=  1342177280 cpu:               0.0 elap:               0.0
 (Enter /data0/home/software/g16/l301.exe)
 Standard basis: 6-311+G(2d,p) (5D, 7F)
 Ernie: Thresh=  0.10000D-02 Tol=  0.10000D-05 Strict=F.
   440 basis functions,   674 primitive gaussians,   468 cartesian basis functions
    56 alpha electrons       56 beta electrons
       nuclear repulsion energy      1051.3365245196 Hartrees.
 IExCor= 4336 DFT=T Ex+Corr=M062X ExCW=0 ScaHFX=  0.540000
 ScaDFX=  1.000000  1.000000  1.000000  1.000000 ScalE2=  1.000000  1.000000
 IRadAn=      5 IRanWt=     -1 IRanGd=            0 ICorTp=0 IEmpDi=131
 NAtoms=   23 NActive=   23 NUniq=   23 SFac= 1.00D+00 NAtFMM=   60 NAOKFM=F Big=F
 Integral buffers will be    131072 words long.
 Raffenetti 2 integral format.
 Two-electron integral symmetry is turned off.
 R6Disp:  Grimme-D3 Dispersion energy=       -0.0010966639 Hartrees.
 Nuclear repulsion after empirical dispersion term =     1051.3354278557 Hartrees.
 Leave Link  301 at Sat Dec 17 22:11:50 2022, MaxMem=  1342177280 cpu:               1.1 elap:               0.1
 (Enter /data0/home/software/g16/l302.exe)
 NPDir=0 NMtPBC=     1 NCelOv=     1 NCel=       1 NClECP=     1 NCelD=      1
         NCelK=      1 NCelE2=     1 NClLst=     1 CellRange=     0.0.
 One-electron integrals computed using PRISM.
 NBasis=   440 RedAO= T EigKep=  1.13D-06  NBF=   440
 NBsUse=   440 1.00D-06 EigRej= -1.00D+00 NBFU=   440
 Precomputing XC quadrature grid using
 IXCGrd= 4 IRadAn=           5 IRanWt=          -1 IRanGd=           0 AccXCQ= 0.00D+00.
 Generated NRdTot=       0 NPtTot=           0 NUsed=           0 NTot=          32
 NSgBfM=   467   467   467   467   467 MxSgAt=    23 MxSgA2=    23.
 Leave Link  302 at Sat Dec 17 22:11:50 2022, MaxMem=  1342177280 cpu:               8.1 elap:               0.4
 (Enter /data0/home/software/g16/l303.exe)
 DipDrv:  MaxL=1.
 Leave Link  303 at Sat Dec 17 22:11:51 2022, MaxMem=  1342177280 cpu:               1.0 elap:               0.1
 (Enter /data0/home/software/g16/l401.exe)
 ExpMin= 3.48D-02 ExpMax= 7.75D+04 ExpMxC= 2.65D+03 IAcc=3 IRadAn=         5 AccDes= 0.00D+00
 Harris functional with IExCor= 1009 and IRadAn=       5 diagonalized for initial guess.
 HarFok:  IExCor= 1009 AccDes= 0.00D+00 IRadAn=         5 IDoV= 1 UseB2=F ITyADJ=14
 ICtDFT=  3500011 ScaDFX=  1.000000  1.000000  1.000000  1.000000
 FoFCou: FMM=F IPFlag=           0 FMFlag=      100000 FMFlg1=           0
         NFxFlg=           0 DoJE=T BraDBF=F KetDBF=T FulRan=T
         wScrn=  0.000000 ICntrl=       500 IOpCl=  0 I1Cent=   200000004 NGrid=           0
         NMat0=    1 NMatS0=      1 NMatT0=    0 NMatD0=    1 NMtDS0=    0 NMtDT0=    0
 Symmetry not used in FoFCou.
 Harris En= -1023.55984981934    
 JPrj=0 DoOrth=F DoCkMO=F.
 Leave Link  401 at Sat Dec 17 22:11:52 2022, MaxMem=  1342177280 cpu:              30.8 elap:               1.3
 (Enter /data0/home/software/g16/l502.exe)
 Two-electron integral symmetry not used.
 Closed shell SCF:
 Using DIIS extrapolation, IDIIS=  1040.
 NGot=  1342177280 LenX=  1341724775 LenY=  1341505283
 Requested convergence on RMS density matrix=1.00D-08 within 128 cycles.
 Requested convergence on MAX density matrix=1.00D-06.
 Requested convergence on             energy=1.00D-06.
 No special actions if energy rises.
 Fock matrices will be formed incrementally for  20 cycles.

 Cycle   1  Pass 1  IDiag  1:
 FoFJK:  IHMeth= 1 ICntrl=       0 DoSepK=F KAlg= 0 I1Cent=           0 FoldK=F
 IRaf= 880000000 NMat=       1 IRICut=       1 DoRegI=T DoRafI=F ISym2E= 0 IDoP0=0 IntGTp=1.
 FoFCou: FMM=F IPFlag=           0 FMFlag=      100000 FMFlg1=           0
         NFxFlg=           0 DoJE=F BraDBF=F KetDBF=F FulRan=T
         wScrn=  0.000000 ICntrl=         0 IOpCl=  0 I1Cent=           0 NGrid=           0
         NMat0=    1 NMatS0=      1 NMatT0=    0 NMatD0=    1 NMtDS0=    0 NMtDT0=    0
 Symmetry not used in FoFCou.
 E= -1023.52974956171    
 DIIS: error= 2.57D-02 at cycle   1 NSaved=   1.
 NSaved= 1 IEnMin= 1 EnMin= -1023.52974956171     IErMin= 1 ErrMin= 2.57D-02
 ErrMax= 2.57D-02  0.00D+00 EMaxC= 1.00D-01 BMatC= 7.37D-01 BMatP= 7.37D-01
 IDIUse=3 WtCom= 7.43D-01 WtEn= 2.57D-01
 Coeff-Com:  0.100D+01
 Coeff-En:   0.100D+01
 Coeff:      0.100D+01
 Gap=     0.306 Goal=   None    Shift=    0.000
 GapD=    0.306 DampG=1.000 DampE=0.500 DampFc=0.5000 IDamp=-1.
 Damping current iteration by 5.00D-01
 RMSDP=1.76D-02 MaxDP=2.66D+00              OVMax= 2.27D-01

 Cycle   2  Pass 1  IDiag  1:
 RMSU=  7.13D-03    CP:  1.16D+00
 E= -1023.74049862896     Delta-E=       -0.210749067250 Rises=F Damp=T
 DIIS: error= 6.14D-03 at cycle   2 NSaved=   2.
 NSaved= 2 IEnMin= 2 EnMin= -1023.74049862896     IErMin= 2 ErrMin= 6.14D-03
 ErrMax= 6.14D-03  0.00D+00 EMaxC= 1.00D-01 BMatC= 4.77D-02 BMatP= 7.37D-01
 IDIUse=3 WtCom= 9.39D-01 WtEn= 6.14D-02
 Coeff-Com:  0.634D-02 0.994D+00
 Coeff-En:   0.801D-01 0.920D+00
 Coeff:      0.109D-01 0.989D+00
 Gap=     0.297 Goal=   None    Shift=    0.000
 RMSDP=5.33D-03 MaxDP=8.64D-01 DE=-2.11D-01 OVMax= 1.32D-01

 Cycle   3  Pass 1  IDiag  1:
 RMSU=  3.84D-03    CP:  1.05D+00  8.92D-01
 E= -1023.98310964031     Delta-E=       -0.242611011354 Rises=F Damp=F
 DIIS: error= 5.34D-03 at cycle   3 NSaved=   3.
 NSaved= 3 IEnMin= 3 EnMin= -1023.98310964031     IErMin= 3 ErrMin= 5.34D-03
 ErrMax= 5.34D-03  0.00D+00 EMaxC= 1.00D-01 BMatC= 1.72D-02 BMatP= 4.77D-02
 IDIUse=3 WtCom= 9.47D-01 WtEn= 5.34D-02
 Coeff-Com: -0.624D-01 0.351D+00 0.711D+00
 Coeff-En:   0.000D+00 0.000D+00 0.100D+01
 Coeff:     -0.590D-01 0.332D+00 0.727D+00
 Gap=     0.288 Goal=   None    Shift=    0.000
 RMSDP=2.50D-03 MaxDP=4.41D-01 DE=-2.43D-01 OVMax= 3.75D-02

 Cycle   4  Pass 1  IDiag  1:
 RMSU=  1.56D-03    CP:  9.98D-01  7.28D-01  9.79D-01
 E= -1023.99293573384     Delta-E=       -0.009826093535 Rises=F Damp=F
 DIIS: error= 1.94D-03 at cycle   4 NSaved=   4.
 NSaved= 4 IEnMin= 4 EnMin= -1023.99293573384     IErMin= 4 ErrMin= 1.94D-03
 ErrMax= 1.94D-03  0.00D+00 EMaxC= 1.00D-01 BMatC= 4.34D-03 BMatP= 1.72D-02
 IDIUse=3 WtCom= 9.81D-01 WtEn= 1.94D-02
 Coeff-Com: -0.325D-01 0.899D-01 0.388D+00 0.555D+00
 Coeff-En:   0.000D+00 0.000D+00 0.165D+00 0.835D+00
 Coeff:     -0.319D-01 0.882D-01 0.383D+00 0.560D+00
 Gap=     0.280 Goal=   None    Shift=    0.000
 RMSDP=8.96D-04 MaxDP=1.20D-01 DE=-9.83D-03 OVMax= 1.23D-02

 Cycle   5  Pass 1  IDiag  1:
 RMSU=  3.39D-04    CP:  1.01D+00  7.93D-01  9.46D-01  6.14D-01
 E= -1023.99596976637     Delta-E=       -0.003034032526 Rises=F Damp=F
 DIIS: error= 3.28D-04 at cycle   5 NSaved=   5.
 NSaved= 5 IEnMin= 5 EnMin= -1023.99596976637     IErMin= 5 ErrMin= 3.28D-04
 ErrMax= 3.28D-04  0.00D+00 EMaxC= 1.00D-01 BMatC= 1.28D-04 BMatP= 4.34D-03
 IDIUse=3 WtCom= 9.97D-01 WtEn= 3.28D-03
 Coeff-Com: -0.949D-02 0.180D-01 0.118D+00 0.233D+00 0.640D+00
 Coeff-En:   0.000D+00 0.000D+00 0.000D+00 0.000D+00 0.100D+01
 Coeff:     -0.946D-02 0.179D-01 0.118D+00 0.233D+00 0.641D+00
 Gap=     0.280 Goal=   None    Shift=    0.000
 RMSDP=1.80D-04 MaxDP=2.14D-02 DE=-3.03D-03 OVMax= 1.88D-03

 Cycle   6  Pass 1  IDiag  1:
 RMSU=  1.38D-04    CP:  1.00D+00  7.95D-01  9.62D-01  6.03D-01  9.22D-01
 E= -1023.99606053377     Delta-E=       -0.000090767401 Rises=F Damp=F
 DIIS: error= 1.15D-04 at cycle   6 NSaved=   6.
 NSaved= 6 IEnMin= 6 EnMin= -1023.99606053377     IErMin= 6 ErrMin= 1.15D-04
 ErrMax= 1.15D-04  0.00D+00 EMaxC= 1.00D-01 BMatC= 8.67D-06 BMatP= 1.28D-04
 IDIUse=3 WtCom= 9.99D-01 WtEn= 1.15D-03
 Coeff-Com: -0.139D-02 0.103D-02 0.190D-01 0.500D-01 0.255D+00 0.676D+00
 Coeff-En:   0.000D+00 0.000D+00 0.000D+00 0.000D+00 0.000D+00 0.100D+01
 Coeff:     -0.139D-02 0.103D-02 0.190D-01 0.500D-01 0.255D+00 0.677D+00
 Gap=     0.280 Goal=   None    Shift=    0.000
 RMSDP=5.50D-05 MaxDP=7.11D-03 DE=-9.08D-05 OVMax= 1.28D-03

 Cycle   7  Pass 1  IDiag  1:
 RMSU=  2.86D-05    CP:  1.00D+00  7.92D-01  9.56D-01  6.10D-01  9.74D-01
                    CP:  8.16D-01
 E= -1023.99606855177     Delta-E=       -0.000008017999 Rises=F Damp=F
 DIIS: error= 4.47D-05 at cycle   7 NSaved=   7.
 NSaved= 7 IEnMin= 7 EnMin= -1023.99606855177     IErMin= 7 ErrMin= 4.47D-05
 ErrMax= 4.47D-05  0.00D+00 EMaxC= 1.00D-01 BMatC= 6.92D-07 BMatP= 8.67D-06
 IDIUse=1 WtCom= 1.00D+00 WtEn= 0.00D+00
 Coeff-Com:  0.454D-03-0.141D-02-0.504D-02-0.695D-02 0.198D-01 0.206D+00
 Coeff-Com:  0.787D+00
 Coeff:      0.454D-03-0.141D-02-0.504D-02-0.695D-02 0.198D-01 0.206D+00
 Coeff:      0.787D+00
 Gap=     0.281 Goal=   None    Shift=    0.000
 RMSDP=2.23D-05 MaxDP=1.93D-03 DE=-8.02D-06 OVMax= 4.76D-04

 Cycle   8  Pass 1  IDiag  1:
 RMSU=  7.43D-06    CP:  1.00D+00  7.92D-01  9.56D-01  6.04D-01  9.97D-01
                    CP:  8.98D-01  1.06D+00
 E= -1023.99606929260     Delta-E=       -0.000000740828 Rises=F Damp=F
 DIIS: error= 2.38D-05 at cycle   8 NSaved=   8.
 NSaved= 8 IEnMin= 8 EnMin= -1023.99606929260     IErMin= 8 ErrMin= 2.38D-05
 ErrMax= 2.38D-05  0.00D+00 EMaxC= 1.00D-01 BMatC= 2.28D-07 BMatP= 6.92D-07
 IDIUse=1 WtCom= 1.00D+00 WtEn= 0.00D+00
 Coeff-Com:  0.466D-03-0.906D-03-0.569D-02-0.118D-01-0.291D-01 0.107D-02
 Coeff-Com:  0.413D+00 0.633D+00
 Coeff:      0.466D-03-0.906D-03-0.569D-02-0.118D-01-0.291D-01 0.107D-02
 Coeff:      0.413D+00 0.633D+00
 Gap=     0.281 Goal=   None    Shift=    0.000
 RMSDP=9.22D-06 MaxDP=1.25D-03 DE=-7.41D-07 OVMax= 3.16D-04

 Cycle   9  Pass 1  IDiag  1:
 RMSU=  3.01D-06    CP:  1.00D+00  7.92D-01  9.56D-01  6.04D-01  1.01D+00
                    CP:  9.05D-01  1.15D+00  9.26D-01
 E= -1023.99606957604     Delta-E=       -0.000000283446 Rises=F Damp=F
 DIIS: error= 7.14D-06 at cycle   9 NSaved=   9.
 NSaved= 9 IEnMin= 9 EnMin= -1023.99606957604     IErMin= 9 ErrMin= 7.14D-06
 ErrMax= 7.14D-06  0.00D+00 EMaxC= 1.00D-01 BMatC= 9.38D-09 BMatP= 2.28D-07
 IDIUse=1 WtCom= 1.00D+00 WtEn= 0.00D+00
 Coeff-Com:  0.588D-04-0.917D-04-0.773D-03-0.194D-02-0.718D-02-0.131D-01
 Coeff-Com:  0.197D-01 0.151D+00 0.853D+00
 Coeff:      0.588D-04-0.917D-04-0.773D-03-0.194D-02-0.718D-02-0.131D-01
 Coeff:      0.197D-01 0.151D+00 0.853D+00
 Gap=     0.281 Goal=   None    Shift=    0.000
 RMSDP=3.14D-06 MaxDP=4.77D-04 DE=-2.83D-07 OVMax= 7.39D-05

 Cycle  10  Pass 1  IDiag  1:
 RMSU=  1.61D-06    CP:  1.00D+00  7.92D-01  9.56D-01  6.03D-01  1.01D+00
                    CP:  9.05D-01  1.19D+00  1.03D+00  1.23D+00
 E= -1023.99606959077     Delta-E=       -0.000000014726 Rises=F Damp=F
 DIIS: error= 2.40D-06 at cycle  10 NSaved=  10.
 NSaved=10 IEnMin=10 EnMin= -1023.99606959077     IErMin=10 ErrMin= 2.40D-06
 ErrMax= 2.40D-06  0.00D+00 EMaxC= 1.00D-01 BMatC= 3.89D-09 BMatP= 9.38D-09
 IDIUse=1 WtCom= 1.00D+00 WtEn= 0.00D+00
 Coeff-Com: -0.434D-04 0.979D-04 0.521D-03 0.853D-03 0.866D-03-0.644D-02
 Coeff-Com: -0.569D-01-0.131D-01 0.462D+00 0.612D+00
 Coeff:     -0.434D-04 0.979D-04 0.521D-03 0.853D-03 0.866D-03-0.644D-02
 Coeff:     -0.569D-01-0.131D-01 0.462D+00 0.612D+00
 Gap=     0.281 Goal=   None    Shift=    0.000
 RMSDP=1.03D-06 MaxDP=1.79D-04 DE=-1.47D-08 OVMax= 3.87D-05

 Cycle  11  Pass 1  IDiag  1:
 RMSU=  4.12D-07    CP:  1.00D+00  7.92D-01  9.56D-01  6.03D-01  1.01D+00
                    CP:  9.07D-01  1.19D+00  1.07D+00  1.31D+00  7.14D-01
 E= -1023.99606959585     Delta-E=       -0.000000005076 Rises=F Damp=F
 DIIS: error= 1.13D-06 at cycle  11 NSaved=  11.
 NSaved=11 IEnMin=11 EnMin= -1023.99606959585     IErMin=11 ErrMin= 1.13D-06
 ErrMax= 1.13D-06  0.00D+00 EMaxC= 1.00D-01 BMatC= 3.41D-10 BMatP= 3.89D-09
 IDIUse=1 WtCom= 1.00D+00 WtEn= 0.00D+00
 Coeff-Com: -0.214D-04 0.436D-04 0.292D-03 0.557D-03 0.114D-02-0.875D-03
 Coeff-Com: -0.255D-01-0.262D-01 0.223D-01 0.223D+00 0.805D+00
 Coeff:     -0.214D-04 0.436D-04 0.292D-03 0.557D-03 0.114D-02-0.875D-03
 Coeff:     -0.255D-01-0.262D-01 0.223D-01 0.223D+00 0.805D+00
 Gap=     0.281 Goal=   None    Shift=    0.000
 RMSDP=4.77D-07 MaxDP=8.00D-05 DE=-5.08D-09 OVMax= 1.66D-05

 Cycle  12  Pass 1  IDiag  1:
 RMSU=  1.31D-07    CP:  1.00D+00  7.92D-01  9.56D-01  6.03D-01  1.01D+00
                    CP:  9.07D-01  1.19D+00  1.09D+00  1.35D+00  8.50D-01
                    CP:  1.04D+00
 E= -1023.99606959646     Delta-E=       -0.000000000614 Rises=F Damp=F
 DIIS: error= 4.48D-07 at cycle  12 NSaved=  12.
 NSaved=12 IEnMin=12 EnMin= -1023.99606959646     IErMin=12 ErrMin= 4.48D-07
 ErrMax= 4.48D-07  0.00D+00 EMaxC= 1.00D-01 BMatC= 5.95D-11 BMatP= 3.41D-10
 IDIUse=1 WtCom= 1.00D+00 WtEn= 0.00D+00
 Coeff-Com: -0.384D-05 0.696D-05 0.716D-04 0.151D-03 0.429D-03 0.476D-03
 Coeff-Com: -0.464D-02-0.975D-02-0.438D-01 0.281D-01 0.370D+00 0.659D+00
 Coeff:     -0.384D-05 0.696D-05 0.716D-04 0.151D-03 0.429D-03 0.476D-03
 Coeff:     -0.464D-02-0.975D-02-0.438D-01 0.281D-01 0.370D+00 0.659D+00
 Gap=     0.281 Goal=   None    Shift=    0.000
 RMSDP=1.18D-07 MaxDP=1.33D-05 DE=-6.14D-10 OVMax= 5.93D-06

 Cycle  13  Pass 1  IDiag  1:
 RMSU=  5.46D-08    CP:  1.00D+00  7.92D-01  9.56D-01  6.03D-01  1.01D+00
                    CP:  9.07D-01  1.19D+00  1.09D+00  1.36D+00  8.62D-01
                    CP:  1.17D+00  1.07D+00
 E= -1023.99606959655     Delta-E=       -0.000000000090 Rises=F Damp=F
 DIIS: error= 1.49D-07 at cycle  13 NSaved=  13.
 NSaved=13 IEnMin=13 EnMin= -1023.99606959655     IErMin=13 ErrMin= 1.49D-07
 ErrMax= 1.49D-07  0.00D+00 EMaxC= 1.00D-01 BMatC= 1.27D-11 BMatP= 5.95D-11
 IDIUse=1 WtCom= 1.00D+00 WtEn= 0.00D+00
 Coeff-Com:  0.307D-05-0.649D-05-0.297D-04-0.511D-04-0.410D-04 0.501D-03
 Coeff-Com:  0.365D-02 0.107D-02-0.281D-01-0.407D-01 0.434D-02 0.336D+00
 Coeff-Com:  0.724D+00
 Coeff:      0.307D-05-0.649D-05-0.297D-04-0.511D-04-0.410D-04 0.501D-03
 Coeff:      0.365D-02 0.107D-02-0.281D-01-0.407D-01 0.434D-02 0.336D+00
 Coeff:      0.724D+00
 Gap=     0.281 Goal=   None    Shift=    0.000
 RMSDP=6.43D-08 MaxDP=7.22D-06 DE=-9.00D-11 OVMax= 2.94D-06

 Cycle  14  Pass 1  IDiag  1:
 RMSU=  2.76D-08    CP:  1.00D+00  7.92D-01  9.56D-01  6.03D-01  1.01D+00
                    CP:  9.07D-01  1.19D+00  1.09D+00  1.36D+00  8.82D-01
                    CP:  1.20D+00  1.23D+00  1.10D+00
 E= -1023.99606959659     Delta-E=       -0.000000000045 Rises=F Damp=F
 DIIS: error= 6.36D-08 at cycle  14 NSaved=  14.
 NSaved=14 IEnMin=14 EnMin= -1023.99606959659     IErMin=14 ErrMin= 6.36D-08
 ErrMax= 6.36D-08  0.00D+00 EMaxC= 1.00D-01 BMatC= 5.60D-13 BMatP= 1.27D-11
 IDIUse=1 WtCom= 1.00D+00 WtEn= 0.00D+00
 Coeff-Com:  0.770D-06-0.157D-05-0.114D-04-0.231D-04-0.589D-04 0.139D-04
 Coeff-Com:  0.923D-03 0.121D-02 0.210D-02-0.107D-01-0.401D-01-0.231D-01
 Coeff-Com:  0.121D+00 0.949D+00
 Coeff:      0.770D-06-0.157D-05-0.114D-04-0.231D-04-0.589D-04 0.139D-04
 Coeff:      0.923D-03 0.121D-02 0.210D-02-0.107D-01-0.401D-01-0.231D-01
 Coeff:      0.121D+00 0.949D+00
 Gap=     0.281 Goal=   None    Shift=    0.000
 RMSDP=1.31D-08 MaxDP=1.09D-06 DE=-4.46D-11 OVMax= 1.02D-06

 Cycle  15  Pass 1  IDiag  1:
 RMSU=  7.50D-09    CP:  1.00D+00  7.92D-01  9.56D-01  6.03D-01  1.01D+00
                    CP:  9.07D-01  1.19D+00  1.09D+00  1.36D+00  8.82D-01
                    CP:  1.21D+00  1.26D+00  1.19D+00  1.10D+00
 E= -1023.99606959659     Delta-E=        0.000000000009 Rises=F Damp=F
 DIIS: error= 1.73D-08 at cycle  15 NSaved=  15.
 NSaved=15 IEnMin=14 EnMin= -1023.99606959659     IErMin=15 ErrMin= 1.73D-08
 ErrMax= 1.73D-08  0.00D+00 EMaxC= 1.00D-01 BMatC= 8.38D-14 BMatP= 5.60D-13
 IDIUse=1 WtCom= 1.00D+00 WtEn= 0.00D+00
 Coeff-Com: -0.146D-06 0.283D-06 0.733D-07-0.218D-06-0.837D-05-0.300D-04
 Coeff-Com: -0.129D-03 0.195D-03 0.339D-02 0.756D-03-0.941D-02-0.452D-01
 Coeff-Com: -0.520D-01 0.283D+00 0.820D+00
 Coeff:     -0.146D-06 0.283D-06 0.733D-07-0.218D-06-0.837D-05-0.300D-04
 Coeff:     -0.129D-03 0.195D-03 0.339D-02 0.756D-03-0.941D-02-0.452D-01
 Coeff:     -0.520D-01 0.283D+00 0.820D+00
 Gap=     0.281 Goal=   None    Shift=    0.000
 RMSDP=4.87D-09 MaxDP=3.65D-07 DE= 8.64D-12 OVMax= 2.76D-07

 SCF Done:  E(RM062X) =  -1023.99606960     A.U. after   15 cycles
            NFock= 15  Conv=0.49D-08     -V/T= 2.0034
 KE= 1.020510739444D+03 PE=-4.513484320677D+03 EE= 1.417642083781D+03
 Leave Link  502 at Sat Dec 17 22:12:54 2022, MaxMem=  1342177280 cpu:            1497.9 elap:              62.6
 (Enter /data0/home/software/g16/l601.exe)
 Copying SCF densities to generalized density rwf, IOpCl= 0 IROHF=0.

 **********************************************************************

            Population analysis using the SCF density.

 **********************************************************************

 Alpha  occ. eigenvalues --  -78.15208 -19.66601 -19.66062 -19.64457 -19.58148
 Alpha  occ. eigenvalues --  -14.81611 -14.75953 -10.63619 -10.59664 -10.58230
 Alpha  occ. eigenvalues --  -10.55983 -10.55480 -10.55374 -10.55019  -6.95956
 Alpha  occ. eigenvalues --   -5.07862  -5.07818  -5.07694  -1.22133  -1.14954
 Alpha  occ. eigenvalues --   -1.13632  -1.12909  -1.08486  -0.99395  -0.95969
 Alpha  occ. eigenvalues --   -0.85343  -0.84237  -0.72703  -0.71891  -0.70774
 Alpha  occ. eigenvalues --   -0.69008  -0.63478  -0.63444  -0.61219  -0.58226
 Alpha  occ. eigenvalues --   -0.56821  -0.55447  -0.53292  -0.52389  -0.52021
 Alpha  occ. eigenvalues --   -0.51549  -0.49672  -0.49186  -0.46890  -0.45652
 Alpha  occ. eigenvalues --   -0.44411  -0.44013  -0.43207  -0.42061  -0.40763
 Alpha  occ. eigenvalues --   -0.38517  -0.37948  -0.37370  -0.36542  -0.29549
 Alpha  occ. eigenvalues --   -0.28989
 Alpha virt. eigenvalues --   -0.00938  -0.00364   0.00829   0.01313   0.02578
 Alpha virt. eigenvalues --    0.02604   0.02831   0.03504   0.04129   0.04887
 Alpha virt. eigenvalues --    0.05220   0.06020   0.06427   0.06733   0.08324
 Alpha virt. eigenvalues --    0.08574   0.09231   0.10399   0.11082   0.11593
 Alpha virt. eigenvalues --    0.11665   0.12648   0.12961   0.13695   0.14051
 Alpha virt. eigenvalues --    0.15269   0.15625   0.15999   0.16420   0.16535
 Alpha virt. eigenvalues --    0.17831   0.18109   0.18479   0.18662   0.18923
 Alpha virt. eigenvalues --    0.19437   0.19968   0.20252   0.20664   0.21083
 Alpha virt. eigenvalues --    0.21224   0.21714   0.21900   0.22640   0.23354
 Alpha virt. eigenvalues --    0.23513   0.23919   0.24277   0.24436   0.25184
 Alpha virt. eigenvalues --    0.25871   0.26054   0.26298   0.26959   0.27098
 Alpha virt. eigenvalues --    0.27641   0.27863   0.28566   0.29174   0.29713
 Alpha virt. eigenvalues --    0.30389   0.30558   0.31370   0.32178   0.32545
 Alpha virt. eigenvalues --    0.33126   0.33646   0.34844   0.35190   0.35932
 Alpha virt. eigenvalues --    0.36187   0.37511   0.38667   0.38787   0.39840
 Alpha virt. eigenvalues --    0.40824   0.41580   0.43762   0.44364   0.44682
 Alpha virt. eigenvalues --    0.45537   0.46019   0.47907   0.49432   0.49956
 Alpha virt. eigenvalues --    0.51054   0.52950   0.53935   0.54570   0.55183
 Alpha virt. eigenvalues --    0.55715   0.56136   0.57398   0.57589   0.58813
 Alpha virt. eigenvalues --    0.59441   0.60205   0.61637   0.63189   0.63532
 Alpha virt. eigenvalues --    0.64499   0.66009   0.66805   0.67586   0.68807
 Alpha virt. eigenvalues --    0.69157   0.70101   0.70840   0.72170   0.72772
 Alpha virt. eigenvalues --    0.73726   0.74692   0.75488   0.76609   0.77313
 Alpha virt. eigenvalues --    0.77922   0.79875   0.80743   0.81032   0.82818
 Alpha virt. eigenvalues --    0.83057   0.83881   0.84448   0.84926   0.85540
 Alpha virt. eigenvalues --    0.85695   0.86003   0.87450   0.88648   0.89296
 Alpha virt. eigenvalues --    0.90317   0.91185   0.92736   0.94131   0.95148
 Alpha virt. eigenvalues --    0.96454   0.99191   1.00578   1.01946   1.02107
 Alpha virt. eigenvalues --    1.02919   1.06626   1.07067   1.07738   1.09050
 Alpha virt. eigenvalues --    1.10472   1.12053   1.13356   1.16372   1.16431
 Alpha virt. eigenvalues --    1.17119   1.17877   1.18301   1.19542   1.21063
 Alpha virt. eigenvalues --    1.22138   1.22723   1.24385   1.24424   1.25803
 Alpha virt. eigenvalues --    1.26598   1.27701   1.30018   1.31203   1.32462
 Alpha virt. eigenvalues --    1.33196   1.34282   1.34849   1.35676   1.36647
 Alpha virt. eigenvalues --    1.37518   1.37902   1.39380   1.40671   1.42300
 Alpha virt. eigenvalues --    1.43039   1.45501   1.46341   1.46683   1.47579
 Alpha virt. eigenvalues --    1.48106   1.50494   1.52434   1.53860   1.55592
 Alpha virt. eigenvalues --    1.57572   1.58390   1.59423   1.60852   1.61765
 Alpha virt. eigenvalues --    1.62809   1.63932   1.64826   1.65471   1.67317
 Alpha virt. eigenvalues --    1.67997   1.69253   1.69320   1.73080   1.73872
 Alpha virt. eigenvalues --    1.74685   1.76851   1.78387   1.79884   1.82540
 Alpha virt. eigenvalues --    1.83889   1.84902   1.85426   1.87835   1.89261
 Alpha virt. eigenvalues --    1.89648   1.92654   1.92783   1.94420   1.96298
 Alpha virt. eigenvalues --    1.98497   1.99860   2.00805   2.03535   2.04803
 Alpha virt. eigenvalues --    2.07285   2.09323   2.11243   2.11706   2.12756
 Alpha virt. eigenvalues --    2.15177   2.18208   2.18826   2.21377   2.26139
 Alpha virt. eigenvalues --    2.29669   2.30737   2.32285   2.34605   2.36289
 Alpha virt. eigenvalues --    2.41257   2.44237   2.49973   2.51471   2.54645
 Alpha virt. eigenvalues --    2.60198   2.61668   2.63120   2.64150   2.66409
 Alpha virt. eigenvalues --    2.68482   2.69732   2.71167   2.74096   2.75201
 Alpha virt. eigenvalues --    2.76848   2.78100   2.80350   2.81558   2.83361
 Alpha virt. eigenvalues --    2.85491   2.86158   2.88839   2.90201   2.91177
 Alpha virt. eigenvalues --    2.94307   2.95479   2.96661   2.98169   2.99966
 Alpha virt. eigenvalues --    3.01378   3.08356   3.09680   3.13267   3.16130
 Alpha virt. eigenvalues --    3.16270   3.18923   3.22513   3.28403   3.28832
 Alpha virt. eigenvalues --    3.29763   3.30216   3.33588   3.35865   3.37728
 Alpha virt. eigenvalues --    3.38411   3.40266   3.42688   3.43337   3.45916
 Alpha virt. eigenvalues --    3.47981   3.50022   3.50558   3.52792   3.55261
 Alpha virt. eigenvalues --    3.58043   3.58704   3.59149   3.60057   3.61347
 Alpha virt. eigenvalues --    3.64725   3.68396   3.71995   3.72291   3.74749
 Alpha virt. eigenvalues --    3.76440   3.78431   3.80518   3.86891   3.91418
 Alpha virt. eigenvalues --    3.93764   3.95042   3.95369   3.98799   4.00683
 Alpha virt. eigenvalues --    4.02857   4.04205   4.09403   4.15073   4.26216
 Alpha virt. eigenvalues --    4.43514   4.57809   4.66085   4.71347   4.74453
 Alpha virt. eigenvalues --    4.91484   4.99507   5.02629   5.03537   5.05556
 Alpha virt. eigenvalues --    5.08196   5.10872   5.11518   5.13637   5.16809
 Alpha virt. eigenvalues --    5.17766   5.18913   5.21625   5.23713   5.27089
 Alpha virt. eigenvalues --    5.29334   5.30833   5.35057   5.40586   5.42305
 Alpha virt. eigenvalues --    5.43521   5.53638   5.54728   5.56319   5.61778
 Alpha virt. eigenvalues --    5.64945   6.73501   6.77119   6.79757   6.81507
 Alpha virt. eigenvalues --    6.81860   6.83278   6.86013   6.90777   6.91699
 Alpha virt. eigenvalues --    6.95313   6.98187   6.99267   7.03968   7.10957
 Alpha virt. eigenvalues --    7.15081   7.24823   7.28454   7.32241   7.35368
 Alpha virt. eigenvalues --    7.43844   7.69302  14.26381  14.28845  14.40214
 Alpha virt. eigenvalues --   23.78441  24.02077  24.07105  24.11601  24.13079
 Alpha virt. eigenvalues --   24.23503  24.27670  35.75862  35.80883  50.03388
 Alpha virt. eigenvalues --   50.04745  50.06749  50.13445 163.93944
          Condensed to atoms (all electrons):
               1          2          3          4          5          6
     1  C   17.460416  -8.389215  -3.838084  -0.698923   0.419355  -0.787649
     2  C   -8.389215  17.810070  -1.352310   0.178782  -1.522699  -0.422696
     3  C   -3.838084  -1.352310  13.105204   0.064702   0.798098  -1.412880
     4  C   -0.698923   0.178782   0.064702   5.506508   0.402578   0.401326
     5  C    0.419355  -1.522699   0.798098   0.402578   5.452846   0.246939
     6  C   -0.787649  -0.422696  -1.412880   0.401326   0.246939   8.613353
     7  H    0.040690  -0.043935   0.391701  -0.037399   0.014586  -0.022742
     8  H   -0.007089   0.040932  -0.060525   0.391696  -0.040269   0.017970
     9  H    0.046386  -0.001510   0.011157  -0.036020   0.389537  -0.066891
    10  H   -0.020336  -0.015114  -0.012191   0.015453   0.016266   0.355691
    11  H   -0.115130   0.159147   0.019701  -0.000609  -0.010647  -0.077374
    12  C   -0.336649  -0.266399  -0.356916   0.022202  -0.032714  -0.110648
    13  H   -0.025057   0.062230   0.029307  -0.000198   0.001124  -0.005751
    14  N   -0.016590   0.265225   0.105349   0.008147  -0.008157  -0.176924
    15  N    1.932066  -1.088185  -1.111530  -0.067809   0.043958   0.070056
    16  P   -0.002989   0.057814   0.014179  -0.008887   0.008556  -0.010866
    17  O    0.129255  -0.102019  -0.052148  -0.002265   0.004559   0.033520
    18  O   -0.108154   0.034137   0.117882   0.002852   0.002894  -0.018013
    19  H    0.072700   0.037660  -0.123649  -0.002361  -0.002731   0.007813
    20  O   -0.001885  -0.007654   0.010524  -0.000304   0.000505  -0.001437
    21  H   -0.003005   0.002260   0.000863  -0.000073  -0.000008  -0.000225
    22  O   -0.058103   0.025437   0.046885  -0.006041  -0.002926   0.014649
    23  H    0.001561  -0.001704  -0.014404   0.002290  -0.001845   0.011696
               7          8          9         10         11         12
     1  C    0.040690  -0.007089   0.046386  -0.020336  -0.115130  -0.336649
     2  C   -0.043935   0.040932  -0.001510  -0.015114   0.159147  -0.266399
     3  C    0.391701  -0.060525   0.011157  -0.012191   0.019701  -0.356916
     4  C   -0.037399   0.391696  -0.036020   0.015453  -0.000609   0.022202
     5  C    0.014586  -0.040269   0.389537   0.016266  -0.010647  -0.032714
     6  C   -0.022742   0.017970  -0.066891   0.355691  -0.077374  -0.110648
     7  H    0.511699  -0.004606  -0.000246   0.000078   0.000014   0.002044
     8  H   -0.004606   0.539351  -0.004928  -0.000278  -0.000001   0.000523
     9  H   -0.000246  -0.004928   0.539889  -0.004655  -0.000012   0.000419
    10  H    0.000078  -0.000278  -0.004655   0.532184   0.002079   0.004536
    11  H    0.000014  -0.000001  -0.000012   0.002079   0.394509  -0.008760
    12  C    0.002044   0.000523   0.000419   0.004536  -0.008760   5.793746
    13  H   -0.000023  -0.000000  -0.000000  -0.000008  -0.001895   0.370102
    14  N   -0.001641   0.000474  -0.000506  -0.002561   0.371433   0.423318
    15  N    0.008606  -0.000453   0.000376  -0.000162  -0.011846   0.420416
    16  P   -0.000476   0.000030   0.000013  -0.000023   0.000641  -0.053913
    17  O    0.000073   0.000005   0.000002   0.000035  -0.003267   0.039851
    18  O   -0.000571   0.000005  -0.000000  -0.000006   0.000228  -0.020386
    19  H    0.001136  -0.000007   0.000000   0.000006  -0.000068  -0.003077
    20  O   -0.000029   0.000000  -0.000000  -0.000000   0.000058  -0.003613
    21  H   -0.000001  -0.000000  -0.000000   0.000000   0.000003   0.002348
    22  O   -0.000554  -0.000001   0.000003  -0.000002  -0.000101   0.013648
    23  H    0.000018  -0.000016  -0.000001   0.000003   0.000017   0.007307
              13         14         15         16         17         18
     1  C   -0.025057  -0.016590   1.932066  -0.002989   0.129255  -0.108154
     2  C    0.062230   0.265225  -1.088185   0.057814  -0.102019   0.034137
     3  C    0.029307   0.105349  -1.111530   0.014179  -0.052148   0.117882
     4  C   -0.000198   0.008147  -0.067809  -0.008887  -0.002265   0.002852
     5  C    0.001124  -0.008157   0.043958   0.008556   0.004559   0.002894
     6  C   -0.005751  -0.176924   0.070056  -0.010866   0.033520  -0.018013
     7  H   -0.000023  -0.001641   0.008606  -0.000476   0.000073  -0.000571
     8  H   -0.000000   0.000474  -0.000453   0.000030   0.000005   0.000005
     9  H   -0.000000  -0.000506   0.000376   0.000013   0.000002  -0.000000
    10  H   -0.000008  -0.002561  -0.000162  -0.000023   0.000035  -0.000006
    11  H   -0.001895   0.371433  -0.011846   0.000641  -0.003267   0.000228
    12  C    0.370102   0.423318   0.420416  -0.053913   0.039851  -0.020386
    13  H    0.488582  -0.032950  -0.055879   0.000906  -0.003865   0.001183
    14  N   -0.032950   6.457428  -0.119860  -0.005791  -0.028655   0.004470
    15  N   -0.055879  -0.119860   7.381921   0.000047  -0.026459  -0.038092
    16  P    0.000906  -0.005791   0.000047  12.531040   0.482117   0.298721
    17  O   -0.003865  -0.028655  -0.026459   0.482117   8.223431  -0.044300
    18  O    0.001183   0.004470  -0.038092   0.298721  -0.044300   8.096470
    19  H   -0.001377   0.002306   0.057877   0.009583  -0.013510   0.239823
    20  O   -0.000041  -0.000163   0.001007   0.227163   0.022460  -0.012290
    21  H   -0.000007  -0.000069  -0.000193   0.015825  -0.008578  -0.007775
    22  O   -0.000248   0.000224  -0.000018   0.261331  -0.044962   0.020081
    23  H   -0.000032  -0.000293  -0.001699  -0.001906  -0.014193   0.001002
              19         20         21         22         23
     1  C    0.072700  -0.001885  -0.003005  -0.058103   0.001561
     2  C    0.037660  -0.007654   0.002260   0.025437  -0.001704
     3  C   -0.123649   0.010524   0.000863   0.046885  -0.014404
     4  C   -0.002361  -0.000304  -0.000073  -0.006041   0.002290
     5  C   -0.002731   0.000505  -0.000008  -0.002926  -0.001845
     6  C    0.007813  -0.001437  -0.000225   0.014649   0.011696
     7  H    0.001136  -0.000029  -0.000001  -0.000554   0.000018
     8  H   -0.000007   0.000000  -0.000000  -0.000001  -0.000016
     9  H    0.000000  -0.000000  -0.000000   0.000003  -0.000001
    10  H    0.000006  -0.000000   0.000000  -0.000002   0.000003
    11  H   -0.000068   0.000058   0.000003  -0.000101   0.000017
    12  C   -0.003077  -0.003613   0.002348   0.013648   0.007307
    13  H   -0.001377  -0.000041  -0.000007  -0.000248  -0.000032
    14  N    0.002306  -0.000163  -0.000069   0.000224  -0.000293
    15  N    0.057877   0.001007  -0.000193  -0.000018  -0.001699
    16  P    0.009583   0.227163   0.015825   0.261331  -0.001906
    17  O   -0.013510   0.022460  -0.008578  -0.044962  -0.014193
    18  O    0.239823  -0.012290  -0.007775   0.020081   0.001002
    19  H    0.349352  -0.003034   0.002219  -0.013405   0.001098
    20  O   -0.003034   7.976824   0.236491  -0.006864   0.000619
    21  H    0.002219   0.236491   0.454239  -0.006289   0.001692
    22  O   -0.013405  -0.006864  -0.006289   8.000452   0.283135
    23  H    0.001098   0.000619   0.001692   0.283135   0.394238
 Mulliken charges:
               1
     1  C    0.306430
     2  C    0.539745
     3  C   -0.380914
     4  C   -0.135649
     5  C   -0.179804
     6  C   -0.658916
     7  H    0.141578
     8  H    0.127187
     9  H    0.126991
    10  H    0.129007
    11  H    0.281879
    12  C    0.092617
    13  H    0.173896
    14  N   -0.244215
    15  N   -0.394147
    16  P    1.176884
    17  O   -0.591088
    18  O   -0.570160
    19  H    0.381646
    20  O   -0.438337
    21  H    0.310283
    22  O   -0.526330
    23  H    0.331418
 Sum of Mulliken charges =  -0.00000
 Mulliken charges with hydrogens summed into heavy atoms:
               1
     1  C    0.306430
     2  C    0.539745
     3  C   -0.239336
     4  C   -0.008462
     5  C   -0.052813
     6  C   -0.529909
    12  C    0.266513
    14  N    0.037664
    15  N   -0.394147
    16  P    1.176884
    17  O   -0.591088
    18  O   -0.188514
    20  O   -0.128054
    22  O   -0.194912
         Mulliken charges condensed to fragments:
      1     -0.074316
      2      0.074316
 Electronic spatial extent (au):  <R**2>=         167617.4401
 Charge=             -0.0000 electrons
 Dipole moment (field-independent basis, Debye):
    X=             -2.2660    Y=              0.0023    Z=             -0.7241  Tot=              2.3789
 Quadrupole moment (field-independent basis, Debye-Ang):
   XX=           -118.2299   YY=            -81.4773   ZZ=           -101.9159
   XY=            -28.0039   XZ=            -24.5513   YZ=            -19.5756
 Traceless Quadrupole moment (field-independent basis, Debye-Ang):
   XX=            -17.6889   YY=             19.0637   ZZ=             -1.3749
   XY=            -28.0039   XZ=            -24.5513   YZ=            -19.5756
 Octapole moment (field-independent basis, Debye-Ang**2):
  XXX=          -2342.3927  YYY=          -3912.1584  ZZZ=          -2769.3745  XYY=           -987.6208
  XXY=          -1749.5875  XXZ=          -1167.7222  XZZ=           -952.3808  YZZ=          -1787.3322
  YYZ=          -1213.8781  XYZ=           -379.5408
 Hexadecapole moment (field-independent basis, Debye-Ang**3):
 XXXX=         -36575.5869 YYYY=        -125883.2481 ZZZZ=         -53206.9290 XXXY=         -35358.2477
 XXXZ=         -22952.3738 YYYX=         -34938.5145 YYYZ=         -46177.9082 ZZZX=         -22774.8276
 ZZZY=         -46593.0184 XXYY=         -31808.0815 XXZZ=         -17490.0003 YYZZ=         -38655.9930
 XXYZ=         -17880.5079 YYXZ=         -12157.8894 ZZXY=         -15696.3052
 N-N= 1.051335427856D+03 E-N=-4.513484319625D+03  KE= 1.020510739444D+03
 No NMR shielding tensors so no spin-rotation constants.
 Leave Link  601 at Sat Dec 17 22:12:55 2022, MaxMem=  1342177280 cpu:               3.0 elap:               0.2
 (Enter /data0/home/software/g16/l122.exe)
 CPIOFr:  IOpCl= 0 IRwI=-1 IRwCP=  731 ICalc= -1 LCPTot=      297221 Len1MO=      783136 IndFrg=      297221
 CPIOFr:  IOpCl= 0 IRwI=-1 IRwCP=  731 ICalc=  0 LCPTot=      297221 Len1MO=      783136 IndFrg=     1080357
 Counterpoise: doing calculation for fragment   1 using the basis set of the full-system, NewBq=T
 Leave Link  122 at Sat Dec 17 22:12:55 2022, MaxMem=  1342177280 cpu:               0.3 elap:               0.0
 (Enter /data0/home/software/g16/l301.exe)
 Basis read from rwf:  (5D, 7F)
 No pseudopotential information found on rwf file.
   440 basis functions,   674 primitive gaussians,   468 cartesian basis functions
    31 alpha electrons       31 beta electrons
       nuclear repulsion energy       401.4527627218 Hartrees.
 IExCor= 4336 DFT=T Ex+Corr=M062X ExCW=0 ScaHFX=  0.540000
 ScaDFX=  1.000000  1.000000  1.000000  1.000000 ScalE2=  1.000000  1.000000
 IRadAn=      5 IRanWt=     -1 IRanGd=            0 ICorTp=0 IEmpDi=131
 NAtoms=   23 NActive=   23 NUniq=   23 SFac= 1.00D+00 NAtFMM=   60 NAOKFM=F Big=F
 Integral buffers will be    131072 words long.
 Raffenetti 2 integral format.
 Two-electron integral symmetry is turned off.
 R6Disp:  Grimme-D3 Dispersion energy=       -0.0002903344 Hartrees.
 Nuclear repulsion after empirical dispersion term =      401.4524723874 Hartrees.
 No density basis found on file   718.
 Leave Link  301 at Sat Dec 17 22:12:55 2022, MaxMem=  1342177280 cpu:               1.3 elap:               0.1
 (Enter /data0/home/software/g16/l302.exe)
 NPDir=0 NMtPBC=     1 NCelOv=     1 NCel=       1 NClECP=     1 NCelD=      1
         NCelK=      1 NCelE2=     1 NClLst=     1 CellRange=     0.0.
 One-electron integrals computed using PRISM.
 NBasis=   440 RedAO= T EigKep=  1.13D-06  NBF=   440
 NBsUse=   440 1.00D-06 EigRej= -1.00D+00 NBFU=   440
 Precomputing XC quadrature grid using
 IXCGrd= 4 IRadAn=           5 IRanWt=          -1 IRanGd=           0 AccXCQ= 0.00D+00.
 Generated NRdTot=       0 NPtTot=           0 NUsed=           0 NTot=          32
 NSgBfM=   467   467   467   467   467 MxSgAt=    23 MxSgA2=    23.
 Leave Link  302 at Sat Dec 17 22:12:55 2022, MaxMem=  1342177280 cpu:               8.1 elap:               0.4
 (Enter /data0/home/software/g16/l303.exe)
 DipDrv:  MaxL=1.
 Leave Link  303 at Sat Dec 17 22:12:55 2022, MaxMem=  1342177280 cpu:               1.0 elap:               0.1
 (Enter /data0/home/software/g16/l401.exe)
 ExpMin= 3.48D-02 ExpMax= 7.75D+04 ExpMxC= 2.65D+03 IAcc=3 IRadAn=         5 AccDes= 0.00D+00
 Harris functional with IExCor= 1009 and IRadAn=       5 diagonalized for initial guess.
 HarFok:  IExCor= 1009 AccDes= 0.00D+00 IRadAn=         5 IDoV= 1 UseB2=F ITyADJ=14
 ICtDFT=  3500011 ScaDFX=  1.000000  1.000000  1.000000  1.000000
 FoFCou: FMM=F IPFlag=           0 FMFlag=      100000 FMFlg1=           0
         NFxFlg=           0 DoJE=T BraDBF=F KetDBF=T FulRan=T
         wScrn=  0.000000 ICntrl=       500 IOpCl=  0 I1Cent=   200000004 NGrid=           0
         NMat0=    1 NMatS0=      1 NMatT0=    0 NMatD0=    1 NMtDS0=    0 NMtDT0=    0
 Symmetry not used in FoFCou.
 Harris En= -379.613370276268    
 JPrj=0 DoOrth=F DoCkMO=F.
 Leave Link  401 at Sat Dec 17 22:12:56 2022, MaxMem=  1342177280 cpu:              30.1 elap:               1.3
 (Enter /data0/home/software/g16/l502.exe)
 Two-electron integral symmetry not used.
 Closed shell SCF:
 Using DIIS extrapolation, IDIIS=  1040.
 NGot=  1342177280 LenX=  1341724775 LenY=  1341505283
 Requested convergence on RMS density matrix=1.00D-08 within 128 cycles.
 Requested convergence on MAX density matrix=1.00D-06.
 Requested convergence on             energy=1.00D-06.
 No special actions if energy rises.
 Fock matrices will be formed incrementally for  20 cycles.

 Cycle   1  Pass 1  IDiag  1:
 FoFJK:  IHMeth= 1 ICntrl=       0 DoSepK=F KAlg= 0 I1Cent=           0 FoldK=F
 IRaf= 880000000 NMat=       1 IRICut=       1 DoRegI=T DoRafI=F ISym2E= 0 IDoP0=0 IntGTp=1.
 FoFCou: FMM=F IPFlag=           0 FMFlag=      100000 FMFlg1=           0
         NFxFlg=           0 DoJE=F BraDBF=F KetDBF=F FulRan=T
         wScrn=  0.000000 ICntrl=         0 IOpCl=  0 I1Cent=           0 NGrid=           0
         NMat0=    1 NMatS0=      1 NMatT0=    0 NMatD0=    1 NMtDS0=    0 NMtDT0=    0
 Symmetry not used in FoFCou.
 E= -379.612562074465    
 DIIS: error= 1.56D-02 at cycle   1 NSaved=   1.
 NSaved= 1 IEnMin= 1 EnMin= -379.612562074465     IErMin= 1 ErrMin= 1.56D-02
 ErrMax= 1.56D-02  0.00D+00 EMaxC= 1.00D-01 BMatC= 2.48D-01 BMatP= 2.48D-01
 IDIUse=3 WtCom= 8.44D-01 WtEn= 1.56D-01
 Coeff-Com:  0.100D+01
 Coeff-En:   0.100D+01
 Coeff:      0.100D+01
 Gap=     0.307 Goal=   None    Shift=    0.000
 GapD=    0.307 DampG=1.000 DampE=0.500 DampFc=0.5000 IDamp=-1.
 Damping current iteration by 5.00D-01
 RMSDP=1.08D-02 MaxDP=2.13D+00              OVMax= 2.13D-01

 Cycle   2  Pass 1  IDiag  1:
 RMSU=  5.29D-03    CP:  1.06D+00
 E= -379.708970777192     Delta-E=       -0.096408702727 Rises=F Damp=T
 DIIS: error= 5.26D-03 at cycle   2 NSaved=   2.
 NSaved= 2 IEnMin= 2 EnMin= -379.708970777192     IErMin= 2 ErrMin= 5.26D-03
 ErrMax= 5.26D-03  0.00D+00 EMaxC= 1.00D-01 BMatC= 2.62D-02 BMatP= 2.48D-01
 IDIUse=3 WtCom= 9.47D-01 WtEn= 5.26D-02
 Coeff-Com: -0.945D-01 0.109D+01
 Coeff-En:   0.000D+00 0.100D+01
 Coeff:     -0.895D-01 0.109D+01
 Gap=     0.302 Goal=   None    Shift=    0.000
 RMSDP=3.75D-03 MaxDP=4.64D-01 DE=-9.64D-02 OVMax= 1.74D-01

 Cycle   3  Pass 1  IDiag  1:
 RMSU=  2.84D-03    CP:  9.18D-01  1.04D+00
 E= -379.800334935861     Delta-E=       -0.091364158669 Rises=F Damp=F
 DIIS: error= 5.14D-03 at cycle   3 NSaved=   3.
 NSaved= 3 IEnMin= 3 EnMin= -379.800334935861     IErMin= 3 ErrMin= 5.14D-03
 ErrMax= 5.14D-03  0.00D+00 EMaxC= 1.00D-01 BMatC= 1.75D-02 BMatP= 2.62D-02
 IDIUse=3 WtCom= 9.49D-01 WtEn= 5.14D-02
 Coeff-Com: -0.139D+00 0.538D+00 0.600D+00
 Coeff-En:   0.000D+00 0.000D+00 0.100D+01
 Coeff:     -0.132D+00 0.511D+00 0.621D+00
 Gap=     0.280 Goal=   None    Shift=    0.000
 RMSDP=1.05D-03 MaxDP=1.67D-01 DE=-9.14D-02 OVMax= 5.99D-02

 Cycle   4  Pass 1  IDiag  1:
 RMSU=  9.27D-04    CP:  8.92D-01  1.05D+00  9.41D-01
 E= -379.815088677038     Delta-E=       -0.014753741178 Rises=F Damp=F
 DIIS: error= 1.82D-03 at cycle   4 NSaved=   4.
 NSaved= 4 IEnMin= 4 EnMin= -379.815088677038     IErMin= 4 ErrMin= 1.82D-03
 ErrMax= 1.82D-03  0.00D+00 EMaxC= 1.00D-01 BMatC= 2.41D-03 BMatP= 1.75D-02
 IDIUse=3 WtCom= 9.82D-01 WtEn= 1.82D-02
 Coeff-Com: -0.585D-01 0.150D+00 0.328D+00 0.580D+00
 Coeff-En:   0.000D+00 0.000D+00 0.637D-01 0.936D+00
 Coeff:     -0.574D-01 0.147D+00 0.324D+00 0.587D+00
 Gap=     0.278 Goal=   None    Shift=    0.000
 RMSDP=4.70D-04 MaxDP=5.45D-02 DE=-1.48D-02 OVMax= 1.30D-02

 Cycle   5  Pass 1  IDiag  1:
 RMSU=  2.69D-04    CP:  8.90D-01  1.02D+00  9.26D-01  6.35D-01
 E= -379.817143988707     Delta-E=       -0.002055311669 Rises=F Damp=F
 DIIS: error= 4.24D-04 at cycle   5 NSaved=   5.
 NSaved= 5 IEnMin= 5 EnMin= -379.817143988707     IErMin= 5 ErrMin= 4.24D-04
 ErrMax= 4.24D-04  0.00D+00 EMaxC= 1.00D-01 BMatC= 9.63D-05 BMatP= 2.41D-03
 IDIUse=3 WtCom= 9.96D-01 WtEn= 4.24D-03
 Coeff-Com: -0.200D-01 0.426D-01 0.118D+00 0.266D+00 0.594D+00
 Coeff-En:   0.000D+00 0.000D+00 0.000D+00 0.000D+00 0.100D+01
 Coeff:     -0.199D-01 0.424D-01 0.117D+00 0.265D+00 0.596D+00
 Gap=     0.278 Goal=   None    Shift=    0.000
 RMSDP=7.87D-05 MaxDP=1.05D-02 DE=-2.06D-03 OVMax= 3.96D-03

 Cycle   6  Pass 1  IDiag  1:
 RMSU=  7.40D-05    CP:  8.90D-01  1.02D+00  9.22D-01  6.49D-01  9.82D-01
 E= -379.817232483070     Delta-E=       -0.000088494363 Rises=F Damp=F
 DIIS: error= 1.60D-04 at cycle   6 NSaved=   6.
 NSaved= 6 IEnMin= 6 EnMin= -379.817232483070     IErMin= 6 ErrMin= 1.60D-04
 ErrMax= 1.60D-04  0.00D+00 EMaxC= 1.00D-01 BMatC= 1.13D-05 BMatP= 9.63D-05
 IDIUse=3 WtCom= 9.98D-01 WtEn= 1.60D-03
 Coeff-Com: -0.276D-02 0.340D-02 0.187D-01 0.542D-01 0.285D+00 0.641D+00
 Coeff-En:   0.000D+00 0.000D+00 0.000D+00 0.000D+00 0.224D-01 0.978D+00
 Coeff:     -0.276D-02 0.339D-02 0.187D-01 0.542D-01 0.285D+00 0.642D+00
 Gap=     0.278 Goal=   None    Shift=    0.000
 RMSDP=4.36D-05 MaxDP=5.82D-03 DE=-8.85D-05 OVMax= 1.45D-03

 Cycle   7  Pass 1  IDiag  1:
 RMSU=  2.73D-05    CP:  8.90D-01  1.02D+00  9.24D-01  6.55D-01  9.77D-01
                    CP:  9.70D-01
 E= -379.817244883741     Delta-E=       -0.000012400671 Rises=F Damp=F
 DIIS: error= 4.09D-05 at cycle   7 NSaved=   7.
 NSaved= 7 IEnMin= 7 EnMin= -379.817244883741     IErMin= 7 ErrMin= 4.09D-05
 ErrMax= 4.09D-05  0.00D+00 EMaxC= 1.00D-01 BMatC= 4.09D-07 BMatP= 1.13D-05
 IDIUse=1 WtCom= 1.00D+00 WtEn= 0.00D+00
 Coeff-Com:  0.142D-02-0.351D-02-0.628D-02-0.158D-01-0.106D-02 0.102D+00
 Coeff-Com:  0.923D+00
 Coeff:      0.142D-02-0.351D-02-0.628D-02-0.158D-01-0.106D-02 0.102D+00
 Coeff:      0.923D+00
 Gap=     0.278 Goal=   None    Shift=    0.000
 RMSDP=1.69D-05 MaxDP=2.20D-03 DE=-1.24D-05 OVMax= 4.59D-04

 Cycle   8  Pass 1  IDiag  1:
 RMSU=  4.53D-06    CP:  8.90D-01  1.01D+00  9.24D-01  6.51D-01  1.00D+00
                    CP:  1.06D+00  1.17D+00
 E= -379.817245524979     Delta-E=       -0.000000641238 Rises=F Damp=F
 DIIS: error= 1.70D-05 at cycle   8 NSaved=   8.
 NSaved= 8 IEnMin= 8 EnMin= -379.817245524979     IErMin= 8 ErrMin= 1.70D-05
 ErrMax= 1.70D-05  0.00D+00 EMaxC= 1.00D-01 BMatC= 1.81D-07 BMatP= 4.09D-07
 IDIUse=1 WtCom= 1.00D+00 WtEn= 0.00D+00
 Coeff-Com:  0.107D-02-0.222D-02-0.517D-02-0.149D-01-0.330D-01-0.216D-01
 Coeff-Com:  0.495D+00 0.581D+00
 Coeff:      0.107D-02-0.222D-02-0.517D-02-0.149D-01-0.330D-01-0.216D-01
 Coeff:      0.495D+00 0.581D+00
 Gap=     0.278 Goal=   None    Shift=    0.000
 RMSDP=4.02D-06 MaxDP=3.57D-04 DE=-6.41D-07 OVMax= 2.18D-04

 Cycle   9  Pass 1  IDiag  1:
 RMSU=  2.75D-06    CP:  8.90D-01  1.01D+00  9.24D-01  6.50D-01  1.01D+00
                    CP:  1.08D+00  1.20D+00  1.05D+00
 E= -379.817245748700     Delta-E=       -0.000000223721 Rises=F Damp=F
 DIIS: error= 8.26D-06 at cycle   9 NSaved=   9.
 NSaved= 9 IEnMin= 9 EnMin= -379.817245748700     IErMin= 9 ErrMin= 8.26D-06
 ErrMax= 8.26D-06  0.00D+00 EMaxC= 1.00D-01 BMatC= 8.26D-09 BMatP= 1.81D-07
 IDIUse=1 WtCom= 1.00D+00 WtEn= 0.00D+00
 Coeff-Com: -0.543D-04 0.168D-03 0.420D-03 0.355D-03-0.262D-02-0.148D-01
 Coeff-Com: -0.667D-01 0.100D+00 0.983D+00
 Coeff:     -0.543D-04 0.168D-03 0.420D-03 0.355D-03-0.262D-02-0.148D-01
 Coeff:     -0.667D-01 0.100D+00 0.983D+00
 Gap=     0.278 Goal=   None    Shift=    0.000
 RMSDP=1.80D-06 MaxDP=1.56D-04 DE=-2.24D-07 OVMax= 9.23D-05

 Cycle  10  Pass 1  IDiag  1:
 RMSU=  6.68D-07    CP:  8.90D-01  1.01D+00  9.24D-01  6.49D-01  1.01D+00
                    CP:  1.09D+00  1.20D+00  1.22D+00  1.20D+00
 E= -379.817245769909     Delta-E=       -0.000000021209 Rises=F Damp=F
 DIIS: error= 2.25D-06 at cycle  10 NSaved=  10.
 NSaved=10 IEnMin=10 EnMin= -379.817245769909     IErMin=10 ErrMin= 2.25D-06
 ErrMax= 2.25D-06  0.00D+00 EMaxC= 1.00D-01 BMatC= 9.46D-10 BMatP= 8.26D-09
 IDIUse=1 WtCom= 1.00D+00 WtEn= 0.00D+00
 Coeff-Com: -0.100D-03 0.224D-03 0.586D-03 0.129D-02 0.167D-02-0.255D-02
 Coeff-Com: -0.621D-01-0.226D-01 0.282D+00 0.802D+00
 Coeff:     -0.100D-03 0.224D-03 0.586D-03 0.129D-02 0.167D-02-0.255D-02
 Coeff:     -0.621D-01-0.226D-01 0.282D+00 0.802D+00
 Gap=     0.278 Goal=   None    Shift=    0.000
 RMSDP=4.53D-07 MaxDP=6.05D-05 DE=-2.12D-08 OVMax= 3.51D-05

 Cycle  11  Pass 1  IDiag  1:
 RMSU=  1.78D-07    CP:  8.90D-01  1.01D+00  9.24D-01  6.49D-01  1.01D+00
                    CP:  1.09D+00  1.20D+00  1.25D+00  1.27D+00  1.04D+00
 E= -379.817245771974     Delta-E=       -0.000000002065 Rises=F Damp=F
 DIIS: error= 1.01D-06 at cycle  11 NSaved=  11.
 NSaved=11 IEnMin=11 EnMin= -379.817245771974     IErMin=11 ErrMin= 1.01D-06
 ErrMax= 1.01D-06  0.00D+00 EMaxC= 1.00D-01 BMatC= 2.60D-10 BMatP= 9.46D-10
 IDIUse=1 WtCom= 1.00D+00 WtEn= 0.00D+00
 Coeff-Com: -0.329D-04 0.696D-04 0.201D-03 0.507D-03 0.987D-03 0.901D-03
 Coeff-Com: -0.192D-01-0.272D-01-0.123D-01 0.384D+00 0.672D+00
 Coeff:     -0.329D-04 0.696D-04 0.201D-03 0.507D-03 0.987D-03 0.901D-03
 Coeff:     -0.192D-01-0.272D-01-0.123D-01 0.384D+00 0.672D+00
 Gap=     0.278 Goal=   None    Shift=    0.000
 RMSDP=1.55D-07 MaxDP=1.28D-05 DE=-2.06D-09 OVMax= 1.45D-05

 Cycle  12  Pass 1  IDiag  1:
 RMSU=  9.19D-08    CP:  8.90D-01  1.01D+00  9.24D-01  6.49D-01  1.01D+00
                    CP:  1.09D+00  1.20D+00  1.26D+00  1.29D+00  1.10D+00
                    CP:  1.05D+00
 E= -379.817245772390     Delta-E=       -0.000000000416 Rises=F Damp=F
 DIIS: error= 2.69D-07 at cycle  12 NSaved=  12.
 NSaved=12 IEnMin=12 EnMin= -379.817245772390     IErMin=12 ErrMin= 2.69D-07
 ErrMax= 2.69D-07  0.00D+00 EMaxC= 1.00D-01 BMatC= 1.47D-11 BMatP= 2.60D-10
 IDIUse=1 WtCom= 1.00D+00 WtEn= 0.00D+00
 Coeff-Com:  0.838D-05-0.190D-04-0.459D-04-0.800D-04-0.751D-04 0.699D-03
 Coeff-Com:  0.557D-02-0.425D-02-0.456D-01-0.300D-01 0.135D+00 0.939D+00
 Coeff:      0.838D-05-0.190D-04-0.459D-04-0.800D-04-0.751D-04 0.699D-03
 Coeff:      0.557D-02-0.425D-02-0.456D-01-0.300D-01 0.135D+00 0.939D+00
 Gap=     0.278 Goal=   None    Shift=    0.000
 RMSDP=9.29D-08 MaxDP=1.03D-05 DE=-4.16D-10 OVMax= 6.18D-06

 Cycle  13  Pass 1  IDiag  1:
 RMSU=  4.58D-08    CP:  8.90D-01  1.01D+00  9.24D-01  6.49D-01  1.01D+00
                    CP:  1.09D+00  1.20D+00  1.26D+00  1.28D+00  1.13D+00
                    CP:  1.14D+00  1.34D+00
 E= -379.817245772444     Delta-E=       -0.000000000054 Rises=F Damp=F
 DIIS: error= 1.16D-07 at cycle  13 NSaved=  13.
 NSaved=13 IEnMin=13 EnMin= -379.817245772444     IErMin=13 ErrMin= 1.16D-07
 ErrMax= 1.16D-07  0.00D+00 EMaxC= 1.00D-01 BMatC= 3.12D-12 BMatP= 1.47D-11
 IDIUse=1 WtCom= 1.00D+00 WtEn= 0.00D+00
 Coeff-Com:  0.549D-05-0.122D-04-0.332D-04-0.667D-04-0.116D-03 0.218D-03
 Coeff-Com:  0.363D-02 0.489D-03-0.138D-01-0.396D-01-0.210D-01 0.335D+00
 Coeff-Com:  0.735D+00
 Coeff:      0.549D-05-0.122D-04-0.332D-04-0.667D-04-0.116D-03 0.218D-03
 Coeff:      0.363D-02 0.489D-03-0.138D-01-0.396D-01-0.210D-01 0.335D+00
 Coeff:      0.735D+00
 Gap=     0.278 Goal=   None    Shift=    0.000
 RMSDP=1.83D-08 MaxDP=2.13D-06 DE=-5.35D-11 OVMax= 1.87D-06

 Cycle  14  Pass 1  IDiag  1:
 RMSU=  9.27D-09    CP:  8.90D-01  1.01D+00  9.24D-01  6.49D-01  1.01D+00
                    CP:  1.09D+00  1.20D+00  1.26D+00  1.28D+00  1.13D+00
                    CP:  1.16D+00  1.44D+00  1.12D+00
 E= -379.817245772436     Delta-E=        0.000000000008 Rises=F Damp=F
 DIIS: error= 4.14D-08 at cycle  14 NSaved=  14.
 NSaved=14 IEnMin=13 EnMin= -379.817245772444     IErMin=14 ErrMin= 4.14D-08
 ErrMax= 4.14D-08  0.00D+00 EMaxC= 1.00D-01 BMatC= 7.68D-13 BMatP= 3.12D-12
 IDIUse=1 WtCom= 1.00D+00 WtEn= 0.00D+00
 Coeff-Com:  0.286D-06-0.671D-06-0.391D-05-0.737D-05-0.358D-04-0.476D-04
 Coeff-Com:  0.209D-03 0.966D-03 0.505D-02-0.854D-02-0.486D-01-0.810D-01
 Coeff-Com:  0.338D+00 0.794D+00
 Coeff:      0.286D-06-0.671D-06-0.391D-05-0.737D-05-0.358D-04-0.476D-04
 Coeff:      0.209D-03 0.966D-03 0.505D-02-0.854D-02-0.486D-01-0.810D-01
 Coeff:      0.338D+00 0.794D+00
 Gap=     0.278 Goal=   None    Shift=    0.000
 RMSDP=1.20D-08 MaxDP=1.02D-06 DE= 7.62D-12 OVMax= 7.92D-07

 Cycle  15  Pass 1  IDiag  1:
 RMSU=  5.24D-09    CP:  8.90D-01  1.01D+00  9.24D-01  6.49D-01  1.01D+00
                    CP:  1.09D+00  1.20D+00  1.26D+00  1.28D+00  1.14D+00
                    CP:  1.16D+00  1.50D+00  1.25D+00  1.12D+00
 E= -379.817245772457     Delta-E=       -0.000000000021 Rises=F Damp=F
 DIIS: error= 6.63D-09 at cycle  15 NSaved=  15.
 NSaved=15 IEnMin=15 EnMin= -379.817245772457     IErMin=15 ErrMin= 6.63D-09
 ErrMax= 6.63D-09  0.00D+00 EMaxC= 1.00D-01 BMatC= 4.04D-14 BMatP= 7.68D-13
 IDIUse=1 WtCom= 1.00D+00 WtEn= 0.00D+00
 Coeff-Com: -0.242D-06 0.505D-06 0.436D-06 0.146D-05-0.844D-05-0.281D-04
 Coeff-Com: -0.129D-03 0.267D-03 0.269D-02-0.309D-03-0.177D-01-0.478D-01
 Coeff-Com:  0.859D-01 0.290D+00 0.687D+00
 Coeff:     -0.242D-06 0.505D-06 0.436D-06 0.146D-05-0.844D-05-0.281D-04
 Coeff:     -0.129D-03 0.267D-03 0.269D-02-0.309D-03-0.177D-01-0.478D-01
 Coeff:      0.859D-01 0.290D+00 0.687D+00
 Gap=     0.278 Goal=   None    Shift=    0.000
 RMSDP=1.62D-09 MaxDP=1.34D-07 DE=-2.07D-11 OVMax= 1.30D-07

 SCF Done:  E(RM062X) =  -379.817245772     A.U. after   15 cycles
            NFock= 15  Conv=0.16D-08     -V/T= 2.0049
 KE= 3.779623519041D+02 PE=-1.685637274202D+03 EE= 5.264052041385D+02
 Leave Link  502 at Sat Dec 17 22:13:58 2022, MaxMem=  1342177280 cpu:            1461.4 elap:              61.1
 (Enter /data0/home/software/g16/l601.exe)
 Copying SCF densities to generalized density rwf, IOpCl= 0 IROHF=0.

 **********************************************************************

            Population analysis using the SCF density.

 **********************************************************************

 Alpha  occ. eigenvalues --  -14.81077 -14.74341 -10.62276 -10.58829 -10.57060
 Alpha  occ. eigenvalues --  -10.55271 -10.54607 -10.54494 -10.54144  -1.12129
 Alpha  occ. eigenvalues --   -0.98216  -0.95071  -0.84506  -0.83313  -0.71906
 Alpha  occ. eigenvalues --   -0.70958  -0.68070  -0.62704  -0.57336  -0.55950
 Alpha  occ. eigenvalues --   -0.51857  -0.51283  -0.50686  -0.48622  -0.43147
 Alpha  occ. eigenvalues --   -0.42218  -0.41436  -0.37337  -0.34526  -0.28707
 Alpha  occ. eigenvalues --   -0.28116
 Alpha virt. eigenvalues --   -0.00287  -0.00010   0.01628   0.02198   0.03210
 Alpha virt. eigenvalues --    0.03619   0.03684   0.04383   0.05076   0.05715
 Alpha virt. eigenvalues --    0.06161   0.06618   0.07222   0.07455   0.08971
 Alpha virt. eigenvalues --    0.09420   0.10086   0.10749   0.11505   0.12106
 Alpha virt. eigenvalues --    0.13188   0.13359   0.14191   0.14538   0.15349
 Alpha virt. eigenvalues --    0.15950   0.16492   0.16920   0.17683   0.18323
 Alpha virt. eigenvalues --    0.18842   0.18855   0.19282   0.19729   0.20560
 Alpha virt. eigenvalues --    0.20772   0.20900   0.21524   0.22099   0.22745
 Alpha virt. eigenvalues --    0.23269   0.23605   0.24128   0.24542   0.24666
 Alpha virt. eigenvalues --    0.25127   0.25432   0.25848   0.26340   0.26719
 Alpha virt. eigenvalues --    0.27431   0.28093   0.28748   0.29023   0.29370
 Alpha virt. eigenvalues --    0.29518   0.30681   0.30873   0.32184   0.32667
 Alpha virt. eigenvalues --    0.33200   0.33516   0.35019   0.35352   0.36613
 Alpha virt. eigenvalues --    0.36665   0.37546   0.37773   0.37878   0.38487
 Alpha virt. eigenvalues --    0.39505   0.40444   0.41535   0.43347   0.44215
 Alpha virt. eigenvalues --    0.44893   0.45981   0.46480   0.49044   0.50202
 Alpha virt. eigenvalues --    0.50328   0.52237   0.54301   0.54714   0.55312
 Alpha virt. eigenvalues --    0.56381   0.56880   0.59247   0.59471   0.60113
 Alpha virt. eigenvalues --    0.61341   0.62637   0.64163   0.65871   0.66911
 Alpha virt. eigenvalues --    0.67272   0.68220   0.68872   0.69356   0.70283
 Alpha virt. eigenvalues --    0.70976   0.71357   0.73181   0.73204   0.73762
 Alpha virt. eigenvalues --    0.74650   0.74809   0.75434   0.76070   0.77003
 Alpha virt. eigenvalues --    0.77226   0.78517   0.78700   0.80037   0.81191
 Alpha virt. eigenvalues --    0.81744   0.83509   0.83580   0.84430   0.84912
 Alpha virt. eigenvalues --    0.85407   0.86079   0.86247   0.86901   0.87058
 Alpha virt. eigenvalues --    0.87390   0.87900   0.89649   0.90379   0.91422
 Alpha virt. eigenvalues --    0.91907   0.93549   0.94658   0.95226   0.96098
 Alpha virt. eigenvalues --    0.96501   0.97598   0.99750   1.00705   1.02167
 Alpha virt. eigenvalues --    1.02590   1.02703   1.04313   1.08042   1.09325
 Alpha virt. eigenvalues --    1.10427   1.11681   1.12863   1.14702   1.15631
 Alpha virt. eigenvalues --    1.17290   1.18344   1.19550   1.20081   1.21451
 Alpha virt. eigenvalues --    1.22700   1.23352   1.25426   1.27214   1.28774
 Alpha virt. eigenvalues --    1.29449   1.30824   1.32290   1.34377   1.35254
 Alpha virt. eigenvalues --    1.36208   1.37228   1.37728   1.38492   1.40591
 Alpha virt. eigenvalues --    1.43765   1.43945   1.45274   1.46145   1.47041
 Alpha virt. eigenvalues --    1.47919   1.49604   1.52784   1.53532   1.56468
 Alpha virt. eigenvalues --    1.58185   1.59111   1.60398   1.62993   1.64610
 Alpha virt. eigenvalues --    1.65832   1.67065   1.69632   1.71340   1.74695
 Alpha virt. eigenvalues --    1.75857   1.79662   1.84784   1.87095   1.90169
 Alpha virt. eigenvalues --    1.92598   1.93974   1.95802   1.97058   1.99376
 Alpha virt. eigenvalues --    1.99683   2.00315   2.04101   2.05924   2.08168
 Alpha virt. eigenvalues --    2.10932   2.13265   2.14977   2.16735   2.19351
 Alpha virt. eigenvalues --    2.20835   2.25890   2.28971   2.30751   2.32605
 Alpha virt. eigenvalues --    2.35948   2.37303   2.39979   2.40681   2.44466
 Alpha virt. eigenvalues --    2.46523   2.48443   2.49715   2.50337   2.53405
 Alpha virt. eigenvalues --    2.56206   2.58898   2.61208   2.63095   2.64013
 Alpha virt. eigenvalues --    2.65065   2.66020   2.67503   2.69084   2.70034
 Alpha virt. eigenvalues --    2.71143   2.72065   2.75103   2.75379   2.77472
 Alpha virt. eigenvalues --    2.77560   2.78729   2.79121   2.80852   2.81132
 Alpha virt. eigenvalues --    2.82677   2.84522   2.87964   2.89291   2.90661
 Alpha virt. eigenvalues --    2.91535   2.92222   2.93455   2.95526   2.96159
 Alpha virt. eigenvalues --    2.96965   2.99788   2.99821   3.01846   3.05500
 Alpha virt. eigenvalues --    3.08024   3.08628   3.09747   3.10941   3.11656
 Alpha virt. eigenvalues --    3.14030   3.15511   3.17137   3.17305   3.18912
 Alpha virt. eigenvalues --    3.21138   3.22474   3.23438   3.26122   3.29024
 Alpha virt. eigenvalues --    3.29699   3.29784   3.30848   3.32125   3.32570
 Alpha virt. eigenvalues --    3.34662   3.36949   3.38936   3.39253   3.39896
 Alpha virt. eigenvalues --    3.42084   3.43984   3.44918   3.45097   3.48190
 Alpha virt. eigenvalues --    3.49167   3.51389   3.52147   3.53402   3.56511
 Alpha virt. eigenvalues --    3.58867   3.59618   3.60044   3.60811   3.61633
 Alpha virt. eigenvalues --    3.66249   3.68969   3.69502   3.72605   3.73302
 Alpha virt. eigenvalues --    3.75084   3.77060   3.78851   3.79676   3.81554
 Alpha virt. eigenvalues --    3.83008   3.87880   3.92791   3.94709   3.96072
 Alpha virt. eigenvalues --    3.96411   3.99838   4.01601   4.03522   4.05346
 Alpha virt. eigenvalues --    4.10342   4.16967   4.27337   4.42922   4.43700
 Alpha virt. eigenvalues --    4.45240   4.46034   4.55930   4.58752   4.61664
 Alpha virt. eigenvalues --    4.67938   4.72783   4.74174   4.75419   4.86334
 Alpha virt. eigenvalues --    4.91301   4.93072   4.94072   5.01518   5.03849
 Alpha virt. eigenvalues --    5.06792   5.10703   5.17404   5.22360   5.26360
 Alpha virt. eigenvalues --    5.31865   5.33813   5.42886   5.47502   5.57238
 Alpha virt. eigenvalues --    5.65955   9.76170   9.79946   9.83232   9.87345
 Alpha virt. eigenvalues --    9.93384   9.94285  10.03530  10.07549  10.11484
 Alpha virt. eigenvalues --   10.14412  10.16166  10.23835  10.26038  10.29279
 Alpha virt. eigenvalues --   10.32365  10.33442  10.39187  10.43035  10.48459
 Alpha virt. eigenvalues --   10.53289  10.61678  10.68577  10.82180  12.73829
 Alpha virt. eigenvalues --   12.87112  13.04864  13.14415  13.17101  13.28635
 Alpha virt. eigenvalues --   13.33762  13.43255  13.44764  13.59271  13.75414
 Alpha virt. eigenvalues --   13.89625  14.00677  17.56082  17.95290  18.30236
 Alpha virt. eigenvalues --   18.50746  23.79368  24.03209  24.08049  24.12498
 Alpha virt. eigenvalues --   24.14029  24.24464  24.28572  35.76828  35.82117
 Alpha virt. eigenvalues --   51.83800  51.86949  51.99265  69.23554 131.68125
 Alpha virt. eigenvalues --  135.23218 139.01552 139.66501 473.25128
          Condensed to atoms (all electrons):
               1          2          3          4          5          6
     1  C   10.507811  -3.259647  -1.595230  -0.423790   0.009643  -0.345203
     2  C   -3.259647  10.895473  -1.418728   0.228190  -0.837519  -0.193902
     3  C   -1.595230  -1.418728   9.980070   0.223619   0.532653  -0.584404
     4  C   -0.423790   0.228190   0.223619   5.089164   0.483143   0.207562
     5  C    0.009643  -0.837519   0.532653   0.483143   5.132416   0.504086
     6  C   -0.345203  -0.193902  -0.584404   0.207562   0.504086   7.012513
     7  H    0.018297  -0.029132   0.398181  -0.036243   0.014990  -0.018243
     8  H   -0.007112   0.044540  -0.061592   0.388893  -0.042445   0.019611
     9  H    0.049740  -0.000925   0.012186  -0.035503   0.385813  -0.069497
    10  H   -0.017161  -0.022458  -0.013460   0.015167   0.022650   0.354056
    11  H   -0.103015   0.120303   0.015279  -0.000390  -0.008400  -0.043841
    12  C   -0.405224  -0.107640  -0.119517   0.029895  -0.014895  -0.095435
    13  H   -0.027351   0.047268   0.031449  -0.000588   0.001504  -0.003326
    14  N    0.446049  -0.122969  -0.072291   0.007872  -0.000984  -0.171928
    15  N    0.819061   0.111188  -0.957558  -0.027452  -0.006215   0.043685
    16  P   -0.023346   0.009035  -0.003672   0.005355  -0.000429   0.002147
    17  O    0.028155  -0.020619  -0.000703  -0.001198   0.001192   0.003284
    18  O    0.008689   0.007792  -0.001524  -0.002158  -0.000229  -0.000150
    19  H   -0.005060  -0.009202   0.004089   0.002237   0.000232   0.000917
    20  O   -0.000045  -0.004002  -0.001166   0.000304   0.000009  -0.000418
    21  H   -0.000068   0.000163  -0.000041   0.000005  -0.000005   0.000022
    22  O    0.006762  -0.009163  -0.004950   0.000536   0.000538   0.000366
    23  H    0.000647  -0.002714   0.004188  -0.000103   0.000422  -0.001134
               7          8          9         10         11         12
     1  C    0.018297  -0.007112   0.049740  -0.017161  -0.103015  -0.405224
     2  C   -0.029132   0.044540  -0.000925  -0.022458   0.120303  -0.107640
     3  C    0.398181  -0.061592   0.012186  -0.013460   0.015279  -0.119517
     4  C   -0.036243   0.388893  -0.035503   0.015167  -0.000390   0.029895
     5  C    0.014990  -0.042445   0.385813   0.022650  -0.008400  -0.014895
     6  C   -0.018243   0.019611  -0.069497   0.354056  -0.043841  -0.095435
     7  H    0.512963  -0.004727  -0.000253   0.000081   0.000017   0.000438
     8  H   -0.004727   0.543318  -0.004943  -0.000294  -0.000001   0.000619
     9  H   -0.000253  -0.004943   0.543850  -0.004701  -0.000011   0.000450
    10  H    0.000081  -0.000294  -0.004701   0.537862   0.001914   0.003693
    11  H    0.000017  -0.000001  -0.000011   0.001914   0.399894  -0.020029
    12  C    0.000438   0.000619   0.000450   0.003693  -0.020029   5.398228
    13  H   -0.000032  -0.000000  -0.000001  -0.000014  -0.001193   0.416600
    14  N   -0.000942   0.000425  -0.000528  -0.002214   0.378802   0.419488
    15  N    0.005784  -0.000374   0.000358   0.000239  -0.009505   0.440259
    16  P   -0.000506  -0.000015  -0.000002   0.000055   0.000725   0.010846
    17  O   -0.000030   0.000001   0.000002  -0.000009  -0.001267  -0.013427
    18  O    0.000141   0.000002   0.000000   0.000001  -0.000058  -0.015132
    19  H   -0.000227  -0.000001  -0.000000  -0.000001   0.000059   0.009356
    20  O    0.000002  -0.000000  -0.000000   0.000000   0.000008   0.004683
    21  H    0.000000  -0.000000  -0.000000  -0.000000   0.000000   0.000005
    22  O   -0.000045   0.000001   0.000003  -0.000005   0.000004   0.006125
    23  H    0.000038   0.000002  -0.000002   0.000002   0.000002  -0.000571
              13         14         15         16         17         18
     1  C   -0.027351   0.446049   0.819061  -0.023346   0.028155   0.008689
     2  C    0.047268  -0.122969   0.111188   0.009035  -0.020619   0.007792
     3  C    0.031449  -0.072291  -0.957558  -0.003672  -0.000703  -0.001524
     4  C   -0.000588   0.007872  -0.027452   0.005355  -0.001198  -0.002158
     5  C    0.001504  -0.000984  -0.006215  -0.000429   0.001192  -0.000229
     6  C   -0.003326  -0.171928   0.043685   0.002147   0.003284  -0.000150
     7  H   -0.000032  -0.000942   0.005784  -0.000506  -0.000030   0.000141
     8  H   -0.000000   0.000425  -0.000374  -0.000015   0.000001   0.000002
     9  H   -0.000001  -0.000528   0.000358  -0.000002   0.000002   0.000000
    10  H   -0.000014  -0.002214   0.000239   0.000055  -0.000009   0.000001
    11  H   -0.001193   0.378802  -0.009505   0.000725  -0.001267  -0.000058
    12  C    0.416600   0.419488   0.440259   0.010846  -0.013427  -0.015132
    13  H    0.500228  -0.053998  -0.064157  -0.000163  -0.000224  -0.000095
    14  N   -0.053998   6.483722  -0.004776   0.010161  -0.027335  -0.003827
    15  N   -0.064157  -0.004776   6.922400  -0.013363   0.015994   0.009163
    16  P   -0.000163   0.010161  -0.013363   0.018972  -0.005712  -0.003446
    17  O   -0.000224  -0.027335   0.015994  -0.005712   0.010518   0.001690
    18  O   -0.000095  -0.003827   0.009163  -0.003446   0.001690   0.006266
    19  H   -0.000013   0.004166  -0.012377   0.002993  -0.001362  -0.004253
    20  O   -0.000140   0.001267  -0.000785  -0.007752  -0.000872  -0.001926
    21  H    0.000001  -0.000014   0.000014   0.000328  -0.000056   0.000025
    22  O    0.000084  -0.001530   0.004644  -0.001945   0.001571  -0.001304
    23  H   -0.000007   0.000352  -0.000326   0.000258  -0.000409   0.000112
              19         20         21         22         23
     1  C   -0.005060  -0.000045  -0.000068   0.006762   0.000647
     2  C   -0.009202  -0.004002   0.000163  -0.009163  -0.002714
     3  C    0.004089  -0.001166  -0.000041  -0.004950   0.004188
     4  C    0.002237   0.000304   0.000005   0.000536  -0.000103
     5  C    0.000232   0.000009  -0.000005   0.000538   0.000422
     6  C    0.000917  -0.000418   0.000022   0.000366  -0.001134
     7  H   -0.000227   0.000002   0.000000  -0.000045   0.000038
     8  H   -0.000001  -0.000000  -0.000000   0.000001   0.000002
     9  H   -0.000000  -0.000000  -0.000000   0.000003  -0.000002
    10  H   -0.000001   0.000000  -0.000000  -0.000005   0.000002
    11  H    0.000059   0.000008   0.000000   0.000004   0.000002
    12  C    0.009356   0.004683   0.000005   0.006125  -0.000571
    13  H   -0.000013  -0.000140   0.000001   0.000084  -0.000007
    14  N    0.004166   0.001267  -0.000014  -0.001530   0.000352
    15  N   -0.012377  -0.000785   0.000014   0.004644  -0.000326
    16  P    0.002993  -0.007752   0.000328  -0.001945   0.000258
    17  O   -0.001362  -0.000872  -0.000056   0.001571  -0.000409
    18  O   -0.004253  -0.001926   0.000025  -0.001304   0.000112
[...]
 No density basis found on file   718.
 Leave Link  301 at Sat Dec 17 22:15:12 2022, MaxMem=  1342177280 cpu:               1.3 elap:               0.1
 (Enter /data0/home/software/g16/l302.exe)
 NPDir=0 NMtPBC=     1 NCelOv=     1 NCel=       1 NClECP=     1 NCelD=      1
         NCelK=      1 NCelE2=     1 NClLst=     1 CellRange=     0.0.
 One-electron integrals computed using PRISM.
 NBasis=   161 RedAO= T EigKep=  4.47D-04  NBF=   161
 NBsUse=   161 1.00D-06 EigRej= -1.00D+00 NBFU=   161
 Precomputing XC quadrature grid using
 IXCGrd= 4 IRadAn=           5 IRanWt=          -1 IRanGd=           0 AccXCQ= 0.00D+00.
 Generated NRdTot=       0 NPtTot=           0 NUsed=           0 NTot=          32
 NSgBfM=   171   171   171   171   171 MxSgAt=     8 MxSgA2=     8.
 Leave Link  302 at Sat Dec 17 22:15:12 2022, MaxMem=  1342177280 cpu:               2.9 elap:               0.1
 (Enter /data0/home/software/g16/l303.exe)
 DipDrv:  MaxL=1.
 Leave Link  303 at Sat Dec 17 22:15:12 2022, MaxMem=  1342177280 cpu:               0.5 elap:               0.0
 (Enter /data0/home/software/g16/l401.exe)
 ExpMin= 3.48D-02 ExpMax= 7.75D+04 ExpMxC= 2.65D+03 IAcc=3 IRadAn=         5 AccDes= 0.00D+00
 Harris functional with IExCor= 1009 and IRadAn=       5 diagonalized for initial guess.
 HarFok:  IExCor= 1009 AccDes= 0.00D+00 IRadAn=         5 IDoV= 1 UseB2=F ITyADJ=14
 ICtDFT=  3500011 ScaDFX=  1.000000  1.000000  1.000000  1.000000
 FoFCou: FMM=F IPFlag=           0 FMFlag=      100000 FMFlg1=           0
         NFxFlg=           0 DoJE=T BraDBF=F KetDBF=T FulRan=T
         wScrn=  0.000000 ICntrl=       500 IOpCl=  0 I1Cent=   200000004 NGrid=           0
         NMat0=    1 NMatS0=      1 NMatT0=    0 NMatD0=    1 NMtDS0=    0 NMtDT0=    0
 Symmetry not used in FoFCou.
 Harris En= -643.942844342383    
 JPrj=0 DoOrth=F DoCkMO=F.
 Leave Link  401 at Sat Dec 17 22:15:12 2022, MaxMem=  1342177280 cpu:               5.9 elap:               0.3
 (Enter /data0/home/software/g16/l502.exe)
 Keep R1 ints in memory in canonical form, NReq=108963383.
 FoFCou: FMM=F IPFlag=           0 FMFlag=           0 FMFlg1=           0
         NFxFlg=           0 DoJE=F BraDBF=F KetDBF=F FulRan=T
         wScrn=  0.000000 ICntrl=       600 IOpCl=  0 I1Cent=           0 NGrid=           0
         NMat0=    1 NMatS0=  13041 NMatT0=    0 NMatD0=    1 NMtDS0=    0 NMtDT0=    0
 Symmetry not used in FoFCou.
 Two-electron integral symmetry not used.
 Closed shell SCF:
 Using DIIS extrapolation, IDIIS=  1040.
 NGot=  1342177280 LenX=  1257072593 LenY=  1257042911
 Requested convergence on RMS density matrix=1.00D-08 within 128 cycles.
 Requested convergence on MAX density matrix=1.00D-06.
 Requested convergence on             energy=1.00D-06.
 No special actions if energy rises.

 Cycle   1  Pass 1  IDiag  1:
 E= -643.870084128304    
 DIIS: error= 4.03D-02 at cycle   1 NSaved=   1.
 NSaved= 1 IEnMin= 1 EnMin= -643.870084128304     IErMin= 1 ErrMin= 4.03D-02
 ErrMax= 4.03D-02  0.00D+00 EMaxC= 1.00D-01 BMatC= 5.03D-01 BMatP= 5.03D-01
 IDIUse=3 WtCom= 5.97D-01 WtEn= 4.03D-01
 Coeff-Com:  0.100D+01
 Coeff-En:   0.100D+01
 Coeff:      0.100D+01
 Gap=     0.321 Goal=   None    Shift=    0.000
 GapD=    0.321 DampG=1.000 DampE=0.500 DampFc=0.5000 IDamp=-1.
 Damping current iteration by 5.00D-01
 RMSDP=6.60D-03 MaxDP=1.43D-01              OVMax= 2.46D-01

 Cycle   2  Pass 1  IDiag  1:
 E= -643.986660421874     Delta-E=       -0.116576293570 Rises=F Damp=T
 DIIS: error= 1.03D-02 at cycle   2 NSaved=   2.
 NSaved= 2 IEnMin= 2 EnMin= -643.986660421874     IErMin= 2 ErrMin= 1.03D-02
 ErrMax= 1.03D-02  0.00D+00 EMaxC= 1.00D-01 BMatC= 2.57D-02 BMatP= 5.03D-01
 IDIUse=3 WtCom= 8.97D-01 WtEn= 1.03D-01
 Coeff-Com:  0.646D-01 0.935D+00
 Coeff-En:   0.190D+00 0.810D+00
 Coeff:      0.776D-01 0.922D+00
 Gap=     0.370 Goal=   None    Shift=    0.000
 RMSDP=1.48D-03 MaxDP=4.36D-02 DE=-1.17D-01 OVMax= 1.44D-01

 Cycle   3  Pass 1  IDiag  1:
 E= -644.146836672803     Delta-E=       -0.160176250929 Rises=F Damp=F
 DIIS: error= 5.71D-03 at cycle   3 NSaved=   3.
 NSaved= 3 IEnMin= 3 EnMin= -644.146836672803     IErMin= 3 ErrMin= 5.71D-03
 ErrMax= 5.71D-03  0.00D+00 EMaxC= 1.00D-01 BMatC= 8.90D-03 BMatP= 2.57D-02
 IDIUse=3 WtCom= 9.43D-01 WtEn= 5.71D-02
 Coeff-Com: -0.168D-01 0.325D+00 0.692D+00
 Coeff-En:   0.000D+00 0.000D+00 0.100D+01
 Coeff:     -0.158D-01 0.306D+00 0.709D+00
 Gap=     0.359 Goal=   None    Shift=    0.000
 RMSDP=6.24D-04 MaxDP=1.44D-02 DE=-1.60D-01 OVMax= 3.32D-02

 Cycle   4  Pass 1  IDiag  1:
 E= -644.150579410595     Delta-E=       -0.003742737792 Rises=F Damp=F
 DIIS: error= 3.19D-03 at cycle   4 NSaved=   4.
 NSaved= 4 IEnMin= 4 EnMin= -644.150579410595     IErMin= 4 ErrMin= 3.19D-03
 ErrMax= 3.19D-03  0.00D+00 EMaxC= 1.00D-01 BMatC= 3.76D-03 BMatP= 8.90D-03
 IDIUse=3 WtCom= 9.68D-01 WtEn= 3.19D-02
 Coeff-Com: -0.202D-01 0.473D-01 0.415D+00 0.558D+00
 Coeff-En:   0.000D+00 0.000D+00 0.300D+00 0.700D+00
 Coeff:     -0.195D-01 0.458D-01 0.411D+00 0.563D+00
 Gap=     0.366 Goal=   None    Shift=    0.000
 RMSDP=2.51D-04 MaxDP=6.15D-03 DE=-3.74D-03 OVMax= 1.14D-02

 Cycle   5  Pass 1  IDiag  1:
 E= -644.153076535001     Delta-E=       -0.002497124407 Rises=F Damp=F
 DIIS: error= 2.15D-04 at cycle   5 NSaved=   5.
 NSaved= 5 IEnMin= 5 EnMin= -644.153076535001     IErMin= 5 ErrMin= 2.15D-04
 ErrMax= 2.15D-04  0.00D+00 EMaxC= 1.00D-01 BMatC= 1.41D-05 BMatP= 3.76D-03
 IDIUse=3 WtCom= 9.98D-01 WtEn= 2.15D-03
 Coeff-Com: -0.236D-02 0.612D-03 0.647D-01 0.119D+00 0.818D+00
 Coeff-En:   0.000D+00 0.000D+00 0.000D+00 0.000D+00 0.100D+01
 Coeff:     -0.236D-02 0.611D-03 0.646D-01 0.119D+00 0.818D+00
 Gap=     0.365 Goal=   None    Shift=    0.000
 RMSDP=2.33D-05 MaxDP=8.91D-04 DE=-2.50D-03 OVMax= 7.37D-04

 Cycle   6  Pass 1  IDiag  1:
 E= -644.153086232053     Delta-E=       -0.000009697052 Rises=F Damp=F
 DIIS: error= 6.34D-05 at cycle   6 NSaved=   6.
 NSaved= 6 IEnMin= 6 EnMin= -644.153086232053     IErMin= 6 ErrMin= 6.34D-05
 ErrMax= 6.34D-05  0.00D+00 EMaxC= 1.00D-01 BMatC= 9.44D-07 BMatP= 1.41D-05
 IDIUse=1 WtCom= 1.00D+00 WtEn= 0.00D+00
 Coeff-Com:  0.321D-04-0.138D-02 0.254D-02 0.105D-01 0.206D+00 0.783D+00
 Coeff:      0.321D-04-0.138D-02 0.254D-02 0.105D-01 0.206D+00 0.783D+00
 Gap=     0.365 Goal=   None    Shift=    0.000
 RMSDP=8.48D-06 MaxDP=2.31D-04 DE=-9.70D-06 OVMax= 1.99D-04

 Cycle   7  Pass 1  IDiag  1:
 E= -644.153086953584     Delta-E=       -0.000000721530 Rises=F Damp=F
 DIIS: error= 2.33D-05 at cycle   7 NSaved=   7.
 NSaved= 7 IEnMin= 7 EnMin= -644.153086953584     IErMin= 7 ErrMin= 2.33D-05
 ErrMax= 2.33D-05  0.00D+00 EMaxC= 1.00D-01 BMatC= 1.32D-07 BMatP= 9.44D-07
 IDIUse=1 WtCom= 1.00D+00 WtEn= 0.00D+00
 Coeff-Com:  0.316D-03-0.534D-03-0.788D-02-0.120D-01-0.244D-01 0.253D+00
 Coeff-Com:  0.792D+00
 Coeff:      0.316D-03-0.534D-03-0.788D-02-0.120D-01-0.244D-01 0.253D+00
 Coeff:      0.792D+00
 Gap=     0.365 Goal=   None    Shift=    0.000
 RMSDP=2.59D-06 MaxDP=5.13D-05 DE=-7.22D-07 OVMax= 7.90D-05

 Cycle   8  Pass 1  IDiag  1:
 E= -644.153087043512     Delta-E=       -0.000000089928 Rises=F Damp=F
 DIIS: error= 1.11D-05 at cycle   8 NSaved=   8.
 NSaved= 8 IEnMin= 8 EnMin= -644.153087043512     IErMin= 8 ErrMin= 1.11D-05
 ErrMax= 1.11D-05  0.00D+00 EMaxC= 1.00D-01 BMatC= 2.79D-08 BMatP= 1.32D-07
 IDIUse=1 WtCom= 1.00D+00 WtEn= 0.00D+00
 Coeff-Com:  0.141D-03-0.186D-03-0.391D-02-0.602D-02-0.186D-01 0.851D-01
 Coeff-Com:  0.400D+00 0.544D+00
 Coeff:      0.141D-03-0.186D-03-0.391D-02-0.602D-02-0.186D-01 0.851D-01
 Coeff:      0.400D+00 0.544D+00
 Gap=     0.365 Goal=   None    Shift=    0.000
 RMSDP=6.99D-07 MaxDP=1.99D-05 DE=-8.99D-08 OVMax= 2.79D-05

 Cycle   9  Pass 1  IDiag  1:
 E= -644.153087062548     Delta-E=       -0.000000019036 Rises=F Damp=F
 DIIS: error= 1.53D-06 at cycle   9 NSaved=   9.
 NSaved= 9 IEnMin= 9 EnMin= -644.153087062548     IErMin= 9 ErrMin= 1.53D-06
 ErrMax= 1.53D-06  0.00D+00 EMaxC= 1.00D-01 BMatC= 6.87D-10 BMatP= 2.79D-08
 IDIUse=1 WtCom= 1.00D+00 WtEn= 0.00D+00
 Coeff-Com: -0.215D-04 0.418D-04 0.232D-03 0.461D-03-0.470D-03-0.174D-01
 Coeff-Com: -0.271D-01 0.910D-01 0.953D+00
 Coeff:     -0.215D-04 0.418D-04 0.232D-03 0.461D-03-0.470D-03-0.174D-01
 Coeff:     -0.271D-01 0.910D-01 0.953D+00
 Gap=     0.365 Goal=   None    Shift=    0.000
 RMSDP=2.68D-07 MaxDP=6.48D-06 DE=-1.90D-08 OVMax= 7.33D-06

 Cycle  10  Pass 1  IDiag  1:
 E= -644.153087063287     Delta-E=       -0.000000000739 Rises=F Damp=F
 DIIS: error= 1.78D-07 at cycle  10 NSaved=  10.
 NSaved=10 IEnMin=10 EnMin= -644.153087063287     IErMin=10 ErrMin= 1.78D-07
 ErrMax= 1.78D-07  0.00D+00 EMaxC= 1.00D-01 BMatC= 1.03D-11 BMatP= 6.87D-10
 IDIUse=1 WtCom= 1.00D+00 WtEn= 0.00D+00
 Coeff-Com: -0.333D-05 0.527D-05 0.108D-03 0.163D-03 0.486D-03-0.354D-02
 Coeff-Com: -0.143D-01-0.128D-01 0.344D-01 0.995D+00
 Coeff:     -0.333D-05 0.527D-05 0.108D-03 0.163D-03 0.486D-03-0.354D-02
 Coeff:     -0.143D-01-0.128D-01 0.344D-01 0.995D+00
 Gap=     0.365 Goal=   None    Shift=    0.000
 RMSDP=5.01D-08 MaxDP=7.79D-07 DE=-7.39D-10 OVMax= 1.51D-06

 Cycle  11  Pass 1  IDiag  1:
 E= -644.153087063306     Delta-E=       -0.000000000019 Rises=F Damp=F
 DIIS: error= 7.08D-08 at cycle  11 NSaved=  11.
 NSaved=11 IEnMin=11 EnMin= -644.153087063306     IErMin=11 ErrMin= 7.08D-08
 ErrMax= 7.08D-08  0.00D+00 EMaxC= 1.00D-01 BMatC= 1.84D-12 BMatP= 1.03D-11
 IDIUse=1 WtCom= 1.00D+00 WtEn= 0.00D+00
 Coeff-Com:  0.519D-06-0.110D-05 0.161D-04 0.176D-04 0.144D-03-0.999D-04
 Coeff-Com: -0.215D-02-0.772D-02-0.421D-01 0.282D+00 0.770D+00
 Coeff:      0.519D-06-0.110D-05 0.161D-04 0.176D-04 0.144D-03-0.999D-04
 Coeff:     -0.215D-02-0.772D-02-0.421D-01 0.282D+00 0.770D+00
 Gap=     0.365 Goal=   None    Shift=    0.000
 RMSDP=1.07D-08 MaxDP=3.12D-07 DE=-1.86D-11 OVMax= 4.64D-07

 Cycle  12  Pass 1  IDiag  1:
 E= -644.153087063303     Delta-E=        0.000000000003 Rises=F Damp=F
 DIIS: error= 4.24D-08 at cycle  12 NSaved=  12.
 NSaved=12 IEnMin=11 EnMin= -644.153087063306     IErMin=12 ErrMin= 4.24D-08
 ErrMax= 4.24D-08  0.00D+00 EMaxC= 1.00D-01 BMatC= 5.86D-13 BMatP= 1.84D-12
 IDIUse=1 WtCom= 1.00D+00 WtEn= 0.00D+00
 Coeff-Com:  0.653D-06-0.119D-05-0.474D-05-0.102D-04 0.116D-04 0.376D-03
 Coeff-Com:  0.846D-03-0.188D-02-0.241D-01 0.742D-02 0.393D+00 0.625D+00
 Coeff:      0.653D-06-0.119D-05-0.474D-05-0.102D-04 0.116D-04 0.376D-03
 Coeff:      0.846D-03-0.188D-02-0.241D-01 0.742D-02 0.393D+00 0.625D+00
 Gap=     0.365 Goal=   None    Shift=    0.000
 RMSDP=4.75D-09 MaxDP=9.15D-08 DE= 2.96D-12 OVMax= 1.56D-07

 SCF Done:  E(RM062X) =  -644.153087063     A.U. after   12 cycles
            NFock= 12  Conv=0.47D-08     -V/T= 2.0025
 KE= 6.425392534299D+02 PE=-2.087760542569D+03 EE= 5.210460651015D+02
 Leave Link  502 at Sat Dec 17 22:15:18 2022, MaxMem=  1342177280 cpu:             100.4 elap:               5.4
 (Enter /data0/home/software/g16/l601.exe)
 Copying SCF densities to generalized density rwf, IOpCl= 0 IROHF=0.

 **********************************************************************

            Population analysis using the SCF density.

 **********************************************************************

 Alpha  occ. eigenvalues --  -78.16892 -19.68423 -19.68266 -19.67581 -19.59303
 Alpha  occ. eigenvalues --   -6.97667  -5.09558  -5.09544  -5.09389  -1.24187
 Alpha  occ. eigenvalues --   -1.16765  -1.16273  -1.09616  -0.72897  -0.65019
 Alpha  occ. eigenvalues --   -0.63819  -0.57273  -0.54407  -0.51135  -0.48945
 Alpha  occ. eigenvalues --   -0.47415  -0.46088  -0.42813  -0.39087  -0.38478
 Alpha virt. eigenvalues --   -0.01985   0.01486   0.01971   0.04666   0.09341
 Alpha virt. eigenvalues --    0.10461   0.11251   0.13900   0.15545   0.16996
 Alpha virt. eigenvalues --    0.17668   0.18696   0.19123   0.20149   0.21389
 Alpha virt. eigenvalues --    0.21781   0.23873   0.24852   0.25667   0.27649
 Alpha virt. eigenvalues --    0.28423   0.29183   0.30479   0.30942   0.32109
 Alpha virt. eigenvalues --    0.34612   0.36258   0.37366   0.41414   0.43452
 Alpha virt. eigenvalues --    0.45179   0.48212   0.51936   0.56394   0.56867
 Alpha virt. eigenvalues --    0.74644   0.76173   0.76763   0.85997   0.96461
 Alpha virt. eigenvalues --    1.00497   1.01440   1.05842   1.08360   1.11568
 Alpha virt. eigenvalues --    1.12698   1.14298   1.17757   1.18910   1.20992
 Alpha virt. eigenvalues --    1.21898   1.24159   1.25877   1.28370   1.32836
 Alpha virt. eigenvalues --    1.38204   1.40472   1.44312   1.46852   1.48679
 Alpha virt. eigenvalues --    1.52113   1.57523   1.58477   1.63029   1.64902
 Alpha virt. eigenvalues --    1.65519   1.70334   1.72685   1.76218   1.81678
 Alpha virt. eigenvalues --    1.83770   1.84007   1.85373   1.91655   1.95892
 Alpha virt. eigenvalues --    2.02931   2.04267   2.06058   2.10878   2.13358
 Alpha virt. eigenvalues --    2.21897   2.23945   2.26593   2.35837   2.44425
 Alpha virt. eigenvalues --    2.50141   2.57044   2.60534   2.62733   2.70519
 Alpha virt. eigenvalues --    2.74489   2.82133   2.84961   2.89585   2.94775
 Alpha virt. eigenvalues --    5.02103   5.05616   5.07280   5.07911   5.09427
 Alpha virt. eigenvalues --    5.11514   5.19296   5.21661   5.35008   5.48129
 Alpha virt. eigenvalues --    5.51048   5.52114   6.70584   6.74091   6.76266
 Alpha virt. eigenvalues --    6.77621   6.78033   6.80403   6.82711   6.87458
 Alpha virt. eigenvalues --    6.88519   6.92973   6.94472   6.96090   7.00274
 Alpha virt. eigenvalues --    7.07300   7.10221   7.21652   7.25430   7.27549
 Alpha virt. eigenvalues --    7.31913   7.39384   7.64172  14.22159  14.23608
 Alpha virt. eigenvalues --   14.35960  49.98970  49.99759  50.01299  50.09198
 Alpha virt. eigenvalues --  163.85420
          Condensed to atoms (all electrons):
              16         17         18         19         20         21
    16  P   12.450194   0.565890   0.238659  -0.005063   0.188245   0.038155
    17  O    0.565890   8.112985  -0.019040  -0.013120  -0.007621   0.001819
    18  O    0.238659  -0.019040   8.075729   0.270642  -0.018230  -0.013134
    19  H   -0.005063  -0.013120   0.270642   0.426503   0.000553   0.001364
    20  O    0.188245  -0.007621  -0.018230   0.000553   8.088605   0.235132
    21  H    0.038155   0.001819  -0.013134   0.001364   0.235132   0.438388
    22  O    0.314256  -0.039942   0.004514  -0.007795   0.000233  -0.011458
    23  H   -0.002311  -0.005251   0.001076   0.000324  -0.001008   0.000918
              22         23
    16  P    0.314256  -0.002311
    17  O   -0.039942  -0.005251
    18  O    0.004514   0.001076
    19  H   -0.007795   0.000324
    20  O    0.000233  -0.001008
    21  H   -0.011458   0.000918
    22  O    8.027202   0.281002
    23  H    0.281002   0.382777
 Mulliken charges:
               1
     1  C    0.000000
     2  C    0.000000
     3  C    0.000000
     4  C    0.000000
     5  C    0.000000
     6  C    0.000000
     7  H    0.000000
     8  H    0.000000
     9  H    0.000000
    10  H    0.000000
    11  H    0.000000
    12  C    0.000000
    13  H    0.000000
    14  N    0.000000
    15  N    0.000000
    16  P    1.211976
    17  O   -0.595719
    18  O   -0.540217
    19  H    0.326593
    20  O   -0.485909
    21  H    0.308817
    22  O   -0.568012
    23  H    0.342472
 Sum of Mulliken charges =  -0.00000
 Mulliken charges with hydrogens summed into heavy atoms:
               1
     1  C    0.000000
     2  C    0.000000
     3  C    0.000000
     4  C    0.000000
     5  C    0.000000
     6  C    0.000000
    12  C    0.000000
    14  N    0.000000
    15  N    0.000000
    16  P    1.211976
    17  O   -0.595719
    18  O   -0.213623
    20  O   -0.177092
    22  O   -0.225540
         Mulliken charges condensed to fragments:
      1      0.000000
      2     -0.000000
 Electronic spatial extent (au):  <R**2>=          77263.2195
 Charge=             -0.0000 electrons
 Dipole moment (field-independent basis, Debye):
    X=              0.0285    Y=              3.7209    Z=              0.0712  Tot=              3.7217
 Quadrupole moment (field-independent basis, Debye-Ang):
   XX=            -30.8678   YY=             76.0363   ZZ=            -30.1199
   XY=             35.0224   XZ=              0.3141   YZ=             34.7046
 Traceless Quadrupole moment (field-independent basis, Debye-Ang):
   XX=            -35.8840   YY=             71.0201   ZZ=            -35.1361
   XY=             35.0224   XZ=              0.3141   YZ=             34.7046
 Octapole moment (field-independent basis, Debye-Ang**2):
  XXX=           -944.2312  YYY=            837.4720  ZZZ=           -829.3386  XYY=            677.5147
  XXY=           -152.2633  XXZ=           -288.4191  XZZ=           -328.9846  YZZ=           -162.1922
  YYZ=            706.8475  XYZ=            315.9923
 Hexadecapole moment (field-independent basis, Debye-Ang**3):
 XXXX=         -19269.1877 YYYY=          -2431.2301 ZZZZ=         -15141.7109 XXXY=         -11499.6176
 XXXZ=          -8766.1924 YYYX=           6193.9105 YYYZ=           7975.0322 ZZZX=          -8931.0066
 ZZZY=         -10077.6045 XXYY=          -1453.2458 XXZZ=          -6246.7048 YYZZ=           -987.4565
 XXYZ=          -1555.3747 YYXZ=           6127.6800 ZZXY=          -2300.3590
 N-N= 2.800221369745D+02 E-N=-2.087760543884D+03  KE= 6.425392534299D+02
 No NMR shielding tensors so no spin-rotation constants.
 Leave Link  601 at Sat Dec 17 22:15:18 2022, MaxMem=  1342177280 cpu:               2.0 elap:               0.1
 (Enter /data0/home/software/g16/l122.exe)
 CPIOFr:  IOpCl= 0 IRwI=-1 IRwCP=  731 ICalc=  4 LCPTot=      297221 Len1MO=      783136 IndFrg=     4212901
 Restoring MOs from calculation   1 to rwf.
 CPIOFr:  IOpCl= 0 IRwI=-2 IRwCP=  731 ICalc=  0 LCPTot=      297221 Len1MO=      783136 IndFrg=     1080357
 Counterpoise corrected energy =   -1023.994384334192
                   BSSE energy =       0.001685262393
              sum of fragments =   -1023.969933429851
           complexation energy =     -16.40 kcal/mole (raw)
           complexation energy =     -15.34 kcal/mole (corrected)
 Leave Link  122 at Sat Dec 17 22:15:18 2022, MaxMem=  1342177280 cpu:               0.3 elap:               0.0
 (Enter /data0/home/software/g16/l9999.exe)
 1\1\GINC-LOCALHOST\SP\RM062X\6-311+G(2d,p)\C7H9N2O4P1\WUHANYU\17-Dec-2
 022\0\\#p M062X/6-311+G(2d,p) nosymm em=GD3 counterpoise=2\\Title Card
  Required\\0,1\C,0,6.014304,15.453632,10.056102\C,0,6.769488,16.563738
 ,10.567654\C,0,6.452596,17.868695,10.181783\C,0,5.391618,18.038807,9.3
 08282\C,0,4.646254,16.944797,8.821396\C,0,4.943093,15.639853,9.180851\
 H,0,7.034465,18.707921,10.55892\H,0,5.11636,19.042345,8.984315\H,0,3.8
 14044,17.140429,8.144441\H,0,4.3648,14.801158,8.808218\H,0,6.376698,13
 .371582,10.364622\C,0,7.663334,14.741858,11.410615\H,0,8.311038,14.053
 522,11.939598\N,0,6.585271,14.309117,10.623981\N,0,7.77784,16.07467,11
 .408732\P,0,10.123695,15.564175,9.010408\O,0,9.133691,14.487755,8.9612
 91\O,0,10.470498,16.199385,10.425511\H,0,9.574465,16.501311,10.886828\
 O,0,11.557953,15.07823,8.524108\H,0,12.200137,15.885076,8.590262\O,0,9
 .826282,16.854048,8.121991\H,0,8.969274,16.696568,7.56107\\Version=ES6
 4L-G16RevA.03\HF=-644.1530871\RMSD=4.745e-09\Dipole=-0.9134522,-0.0029
 489,-0.283039\Quadrupole=-13.5862974,14.2377844,-0.6514869,-21.5228351
 ,-18.6038236,-14.5816224\PG=C01 [X(C7H9N2O4P1)]\\@


 WE HAVE LEARNED THAT NOTHING IS SIMPLE AND
 RATIONAL EXCEPT WHAT WE OURSELVES HAVE INVENTED;
 THAT GOD THINKS IN TERMS NEITHER OF EUCLID OR RIEMANN; THAT SCIENCE HAS "EXPLAINED" NOTHING;
 THAT THE MORE WE KNOW THE MORE FANTASTIC THE WORLD BECOMES
 AND THE PROFOUNDER THE SURROUNDING DARKNESS.
   --  ALDOUS HUXLEY
 Job cpu time:       0 days  1 hours 22 minutes  9.9 seconds.
 Elapsed time:       0 days  0 hours  3 minutes 28.1 seconds.
 File lengths (MBytes):  RWF=    149 Int=      0 D2E=      0 Chk=     44 Scr=      1
 Normal termination of Gaussian 16 at Sat Dec 17 22:15:18 2022.
