 Entering Gaussian System, Link 0=g16
 Initial command:
 /data0/home/software/g16/l1.exe "/data0/home/software/g16/scratch/Gau-333384.inp" -scrdir="/data0/home/software/g16/scratch/"
 Default is to use a total of  22 processors:
                               22 via shared-memory
                                1 via Linda
 Entering Link 1 = /data0/home/software/g16/l1.exe PID=    333385.
  
 Copyright (c) 1988,1990,1992,1993,1995,1998,2003,2009,2016,
            Gaussian, Inc.  All Rights Reserved.
  
 This is part of the Gaussian(R) 16 program.  It is based on
 the Gaussian(R) 09 system (copyright 2009, Gaussian, Inc.),
 the Gaussian(R) 03 system (copyright 2003, Gaussian, Inc.),
 the Gaussian(R) 98 system (copyright 1998, Gaussian, Inc.),
 the Gaussian(R) 94 system (copyright 1995, Gaussian, Inc.),
 the Gaussian 92(TM) system (copyright 1992, Gaussian, Inc.),
 the Gaussian 90(TM) system (copyright 1990, Gaussian, Inc.),
 the Gaussian 88(TM) system (copyright 1988, Gaussian, Inc.),
 the Gaussian 86(TM) system (copyright 1986, Carnegie Mellon
 University), and the Gaussian 82(TM) system (copyright 1983,
 Carnegie Mellon University). Gaussian is a federally registered
 trademark of Gaussian, Inc.
  
 This software contains proprietary and confidential information,
 including trade secrets, belonging to Gaussian, Inc.
  
 This software is provided under written license and may be
 used, copied, transmitted, or stored only in accord with that
 written license.
  
 The following legend is applicable only to US Government
 contracts under FAR:
  
                    RESTRICTED RIGHTS LEGEND
  
 Use, reproduction and disclosure by the US Government is
 subject to restrictions as set forth in subparagraphs (a)
 and (c) of the Commercial Computer Software - Restricted
 Rights clause in FAR 52.227-19.
  
 Gaussian, Inc.
 340 Quinnipiac St., Bldg. 40, Wallingford CT 06492
  
  
 ---------------------------------------------------------------
 Warning -- This program may not be used in any manner that
 competes with the business of Gaussian, Inc. or will provide
 assistance to any competitor of Gaussian, Inc.  The licensee
 of this program is prohibited from giving any competitor of
 Gaussian, Inc. access to this program.  By using this program,
 the user acknowledges that Gaussian, Inc. is engaged in the
 business of creating and licensing software in the field of
 computational chemistry and represents and warrants to the
 licensee that it is not a competitor of Gaussian, Inc. and that
 it will not use this program in any manner prohibited above.
 ---------------------------------------------------------------
  

 Cite this work as:
 Gaussian 16, Revision A.03,
 M. J. Frisch, G. W. Trucks, H. B. Schlegel, G. E. Scuseria, 
 M. A. Robb, J. R. Cheeseman, G. Scalmani, V. Barone, 
 G. A. Petersson, H. Nakatsuji, X. Li, M. Caricato, A. V. Marenich, 
 J. Bloino, B. G. Janesko, R. Gomperts, B. Mennucci, H. P. Hratchian, 
 J. V. Ortiz, A. F. Izmaylov, J. L. Sonnenberg, D. Williams-Young, 
 F. Ding, F. Lipparini, F. Egidi, J. Goings, B. Peng, A. Petrone, 
 T. Henderson, D. Ranasinghe, V. G. Zakrzewski, J. Gao, N. Rega, 
 G. Zheng, W. Liang, M. Hada, M. Ehara, K. Toyota, R. Fukuda, 
 J. Hasegawa, M. Ishida, T. Nakajima, Y. Honda, O. Kitao, H. Nakai, 
 T. Vreven, K. Throssell, J. A. Montgomery, Jr., J. E. Peralta, 
 F. Ogliaro, M. J. Bearpark, J. J. Heyd, E. N. Brothers, K. N. Kudin, 
 V. N. Staroverov, T. A. Keith, R. Kobayashi, J. Normand, 
 K. Raghavachari, A. P. Rendell, J. C. Burant, S. S. Iyengar, 
 J. Tomasi, M. Cossi, J. M. Millam, M. Klene, C. Adamo, R. Cammi, 
 J. W. Ochterski, R. L. Martin, K. Morokuma, O. Farkas, 
 J. B. Foresman, and D. J. Fox, Gaussian, Inc., Wallingford CT, 2016.
 
 ******************************************
 Gaussian 16:  ES64L-G16RevA.03 25-Dec-2016
                19-Feb-2023 
 ******************************************
 %nproc=24
 Will use up to   24 processors via shared memory.
 %mem=50GB
 ---------------------------------------------------
 #p M062X/6-311+G(2d,p) nosymm em=GD3 counterpoise=4
 ---------------------------------------------------
 1/38=1,62=4,172=1/1;
 2/12=2,15=1,17=6,18=5,40=1/2;
 1/38=1,53=2,62=4,63=1/22;
 3/5=4,6=6,7=112,11=2,25=1,30=1,74=-55,124=31/1,2,3;
 4//1;
 5/5=2,38=5/2;
 6/7=2,8=2,9=2,10=2,28=1/1;
 1/53=2,62=4,63=1/22;
 3/5=7,6=11,7=112,11=2,25=1,30=1,74=-55,82=7,124=31/1,2,3;
 4//1;
 5/5=2,38=5/2;
 6/7=2,8=2,9=2,10=2,28=1/1;
 1/53=2,62=4,63=1/22(-4);
 99/5=1,9=1/99;
 Leave Link    1 at Sun Feb 19 22:58:05 2023, MaxMem=  6710886400 cpu:               0.7 elap:               0.0
 (Enter /data0/home/software/g16/l101.exe)
 -------------------
 Title Card Required
 -------------------
 Symbolic Z-matrix:
 Charge =  0 Multiplicity = 1 in supermolecule
 Charge =  0 Multiplicity = 1 in fragment      1.
 Charge =  0 Multiplicity = 1 in fragment      2.
 Charge =  0 Multiplicity = 1 in fragment      3.
 Charge =  0 Multiplicity = 1 in fragment      4.
 P                     13.08898   9.15169   11.10202    
 O                     12.0048   9.7361    11.90201    
 O                     14.18371   10.11746   10.49699    
 H                     13.74663   11.04157   10.21664    
 O                     13.96959   8.16574   12.00014    
 H                     14.7522   7.83394   11.41669    
 O                     12.66277   8.1896    9.91911    
 H                     11.85132   8.61747   9.38862    
 O                     13.07294   12.52299   9.70175    
 H                     12.60329   12.27329   8.88301    
 H                     12.36782   12.70439   10.34206    
 O                     7.36596   12.8399   9.36318    
 H                     7.50583   13.75408   9.57914    
 H                     8.26697   12.43447   9.36214    
 O                     10.8406   12.49929   11.63299    
 H                     11.27029   11.69498   11.9359    
 H                     10.35307   12.20358   10.84025    
 
 ITRead=  0  0  0  0  0  0  0  0  0  0  0  0  0  0  0  0  0
 MicOpt= -1 -1 -1 -1 -1 -1 -1 -1 -1 -1 -1 -1 -1 -1 -1 -1 -1
 NAtoms=     17 NQM=       17 NQMF=       0 NMMI=      0 NMMIF=      0
                NMic=       0 NMicF=      0.
                    Isotopes and Nuclear Properties:
 (Nuclear quadrupole moments (NQMom) in fm**2, nuclear magnetic moments (NMagM)
  in nuclear magnetons)

  Atom         1           2           3           4           5           6           7           8           9          10
 IAtWgt=          31          16          16           1          16           1          16           1          16           1
 AtmWgt=  30.9737634  15.9949146  15.9949146   1.0078250  15.9949146   1.0078250  15.9949146   1.0078250  15.9949146   1.0078250
 NucSpn=           1           0           0           1           0           1           0           1           0           1
 AtZEff=  -0.0000000  -0.0000000  -0.0000000  -0.0000000  -0.0000000  -0.0000000  -0.0000000  -0.0000000  -0.0000000  -0.0000000
 NQMom=    0.0000000   0.0000000   0.0000000   0.0000000   0.0000000   0.0000000   0.0000000   0.0000000   0.0000000   0.0000000
 NMagM=    1.1316000   0.0000000   0.0000000   2.7928460   0.0000000   2.7928460   0.0000000   2.7928460   0.0000000   2.7928460
 AtZNuc=  15.0000000   8.0000000   8.0000000   1.0000000   8.0000000   1.0000000   8.0000000   1.0000000   8.0000000   1.0000000

  Atom        11          12          13          14          15          16          17
 IAtWgt=           1          16           1           1          16           1           1
 AtmWgt=   1.0078250  15.9949146   1.0078250   1.0078250  15.9949146   1.0078250   1.0078250
 NucSpn=           1           0           1           1           0           1           1
 AtZEff=  -0.0000000  -0.0000000  -0.0000000  -0.0000000  -0.0000000  -0.0000000  -0.0000000
 NQMom=    0.0000000   0.0000000   0.0000000   0.0000000   0.0000000   0.0000000   0.0000000
 NMagM=    2.7928460   0.0000000   2.7928460   2.7928460   0.0000000   2.7928460   2.7928460
 AtZNuc=   1.0000000   8.0000000   1.0000000   1.0000000   8.0000000   1.0000000   1.0000000
 Leave Link  101 at Sun Feb 19 22:58:05 2023, MaxMem=  6710886400 cpu:               2.0 elap:               0.1
 (Enter /data0/home/software/g16/l202.exe)
                          Input orientation:                          
 ---------------------------------------------------------------------
 Center     Atomic      Atomic             Coordinates (Angstroms)
 Number     Number       Type             X           Y           Z
 ---------------------------------------------------------------------
      1         15           0       13.088985    9.151688   11.102024
      2          8           0       12.004801    9.736103   11.902005
      3          8           0       14.183714   10.117464   10.496994
      4          1           0       13.746632   11.041569   10.216637
      5          8           0       13.969591    8.165743   12.000145
      6          1           0       14.752200    7.833945   11.416693
      7          8           0       12.662765    8.189602    9.919108
      8          1           0       11.851319    8.617474    9.388622
      9          8           0       13.072938   12.522995    9.701750
     10          1           0       12.603292   12.273286    8.883009
     11          1           0       12.367824   12.704391   10.342057
     12          8           0        7.365961   12.839897    9.363178
     13          1           0        7.505833   13.754080    9.579144
     14          1           0        8.266965   12.434474    9.362144
     15          8           0       10.840604   12.499290   11.632993
     16          1           0       11.270291   11.694976   11.935899
     17          1           0       10.353070   12.203576   10.840249
 ---------------------------------------------------------------------
                    Distance matrix (angstroms):
                    1          2          3          4          5
     1  P    0.000000
     2  O    1.468661   0.000000
     3  O    1.580258   2.620526   0.000000
     4  H    2.188164   2.752941   1.060005   0.000000
     5  O    1.598179   2.517153   2.472757   3.391310   0.000000
     6  H    2.145168   3.376675   2.526555   3.569335   1.031011
     7  O    1.583213   2.599320   2.522675   3.065454   2.457454
     8  H    2.180126   2.755355   2.986390   3.186543   3.392814
     9  O    3.650580   3.707938   2.766372   1.706926   5.007220
    10  H    3.860609   3.988712   3.122539   2.145441   5.334343
    11  H    3.703960   3.372826   3.164436   2.163751   5.090603
    12  O    7.027053   6.131722   7.428253   6.683961   8.509362
    13  H    7.394103   6.463786   7.659081   6.834595   8.880930
    14  H    6.087343   5.263413   6.454792   5.718137   7.596121
    15  O    4.067381   3.010469   4.259105   3.546268   5.357704
    16  H    3.235940   2.092328   3.612067   3.084650   4.443628
    17  H    4.107040   3.153405   4.375331   3.640799   5.543345
                    6          7          8          9         10
     6  H    0.000000
     7  O    2.595186   0.000000
     8  H    3.625203   1.059686   0.000000
     9  O    5.267650   4.358186   4.104083   0.000000
    10  H    5.544827   4.213492   3.766440   0.976350   0.000000
    11  H    5.528231   4.544139   4.228322   0.969579   1.539519
    12  O    9.156037   7.070391   6.160190   5.725788   5.289730
    13  H    9.535954   7.594270   6.730845   5.702917   5.353638
    14  H    8.212449   6.136139   5.236199   4.818770   4.365694
    15  O    6.092029   4.983080   4.596438   2.951877   3.274226
    16  H    5.225019   4.277158   4.036983   2.987737   3.381046
    17  H    6.227223   4.721777   4.148747   2.965787   2.983144
                   11         12         13         14         15
    11  H    0.000000
    12  O    5.098549   0.000000
    13  H    5.032180   0.949703   0.000000
    14  H    4.224941   0.988017   1.538756   0.000000
    15  O    2.010220   4.164279   4.112602   3.432867   0.000000
    16  H    2.182620   4.813889   4.895441   4.023809   0.960887
    17  H    2.135005   3.392560   3.478679   2.567088   0.976514
                   16         17
    16  H    0.000000
    17  H    1.516713   0.000000
 Symmetry turned off by external request.
 Stoichiometry    H9O7P
 Framework group  C1[X(H9O7P)]
 Deg. of freedom    45
 Full point group                 C1      NOp   1
 Rotational constants (GHZ):           1.7340650           0.4835888           0.4467852
 Leave Link  202 at Sun Feb 19 22:58:06 2023, MaxMem=  6710886400 cpu:               0.1 elap:               0.0
 (Enter /data0/home/software/g16/l122.exe)
 Counterpoise: doing full-system calculation.
 Leave Link  122 at Sun Feb 19 22:58:06 2023, MaxMem=  6710886400 cpu:               0.0 elap:               0.0
 (Enter /data0/home/software/g16/l301.exe)
 Standard basis: 6-311+G(2d,p) (5D, 7F)
 Ernie: Thresh=  0.10000D-02 Tol=  0.10000D-05 Strict=F.
   278 basis functions,   422 primitive gaussians,   294 cartesian basis functions
    40 alpha electrons       40 beta electrons
       nuclear repulsion energy       522.3334635133 Hartrees.
 IExCor= 4336 DFT=T Ex+Corr=M062X ExCW=0 ScaHFX=  0.540000
 ScaDFX=  1.000000  1.000000  1.000000  1.000000 ScalE2=  1.000000  1.000000
 IRadAn=      5 IRanWt=     -1 IRanGd=            0 ICorTp=0 IEmpDi=131
 NAtoms=   17 NActive=   17 NUniq=   17 SFac= 1.00D+00 NAtFMM=   60 NAOKFM=F Big=F
 Integral buffers will be    131072 words long.
 Raffenetti 2 integral format.
 Two-electron integral symmetry is turned off.
 R6Disp:  Grimme-D3 Dispersion energy=       -0.0005356262 Hartrees.
 Nuclear repulsion after empirical dispersion term =      522.3329278871 Hartrees.
 Leave Link  301 at Sun Feb 19 22:58:06 2023, MaxMem=  6710886400 cpu:               1.1 elap:               0.1
 (Enter /data0/home/software/g16/l302.exe)
 NPDir=0 NMtPBC=     1 NCelOv=     1 NCel=       1 NClECP=     1 NCelD=      1
         NCelK=      1 NCelE2=     1 NClLst=     1 CellRange=     0.0.
 One-electron integrals computed using PRISM.
 NBasis=   278 RedAO= T EigKep=  3.14D-04  NBF=   278
 NBsUse=   278 1.00D-06 EigRej= -1.00D+00 NBFU=   278
 Precomputing XC quadrature grid using
 IXCGrd= 4 IRadAn=           5 IRanWt=          -1 IRanGd=           0 AccXCQ= 0.00D+00.
 Generated NRdTot=       0 NPtTot=           0 NUsed=           0 NTot=          32
 NSgBfM=   292   292   292   292   292 MxSgAt=    17 MxSgA2=    17.
 Leave Link  302 at Sun Feb 19 22:58:06 2023, MaxMem=  6710886400 cpu:               4.4 elap:               0.2
 (Enter /data0/home/software/g16/l303.exe)
 DipDrv:  MaxL=1.
 Leave Link  303 at Sun Feb 19 22:58:06 2023, MaxMem=  6710886400 cpu:               0.6 elap:               0.0
 (Enter /data0/home/software/g16/l401.exe)
 ExpMin= 3.48D-02 ExpMax= 7.75D+04 ExpMxC= 2.65D+03 IAcc=3 IRadAn=         5 AccDes= 0.00D+00
 Harris functional with IExCor= 1009 and IRadAn=       5 diagonalized for initial guess.
 HarFok:  IExCor= 1009 AccDes= 0.00D+00 IRadAn=         5 IDoV= 1 UseB2=F ITyADJ=14
 ICtDFT=  3500011 ScaDFX=  1.000000  1.000000  1.000000  1.000000
 FoFCou: FMM=F IPFlag=           0 FMFlag=      100000 FMFlg1=           0
         NFxFlg=           0 DoJE=T BraDBF=F KetDBF=T FulRan=T
         wScrn=  0.000000 ICntrl=       500 IOpCl=  0 I1Cent=   200000004 NGrid=           0
         NMat0=    1 NMatS0=      1 NMatT0=    0 NMatD0=    1 NMtDS0=    0 NMtDT0=    0
 Symmetry not used in FoFCou.
 Harris En= -873.194504128370    
 JPrj=0 DoOrth=F DoCkMO=F.
 Leave Link  401 at Sun Feb 19 22:58:06 2023, MaxMem=  6710886400 cpu:              13.0 elap:               0.6
 (Enter /data0/home/software/g16/l502.exe)
 Two-electron integral symmetry not used.
 Closed shell SCF:
 Using DIIS extrapolation, IDIIS=  1040.
 NGot=  6710886400 LenX=  6710704303 LenY=  6710617426
 Requested convergence on RMS density matrix=1.00D-08 within 128 cycles.
 Requested convergence on MAX density matrix=1.00D-06.
 Requested convergence on             energy=1.00D-06.
 No special actions if energy rises.
 Fock matrices will be formed incrementally for  20 cycles.

 Cycle   1  Pass 1  IDiag  1:
 FoFJK:  IHMeth= 1 ICntrl=       0 DoSepK=F KAlg= 0 I1Cent=           0 FoldK=F
 IRaf= 850000000 NMat=       1 IRICut=       1 DoRegI=T DoRafI=F ISym2E= 0 IDoP0=0 IntGTp=1.
 FoFCou: FMM=F IPFlag=           0 FMFlag=      100000 FMFlg1=           0
         NFxFlg=           0 DoJE=F BraDBF=F KetDBF=F FulRan=T
         wScrn=  0.000000 ICntrl=         0 IOpCl=  0 I1Cent=           0 NGrid=           0
         NMat0=    1 NMatS0=      1 NMatT0=    0 NMatD0=    1 NMtDS0=    0 NMtDT0=    0
 Symmetry not used in FoFCou.
 E= -872.967972867410    
 DIIS: error= 5.77D-02 at cycle   1 NSaved=   1.
 NSaved= 1 IEnMin= 1 EnMin= -872.967972867410     IErMin= 1 ErrMin= 5.77D-02
 ErrMax= 5.77D-02  0.00D+00 EMaxC= 1.00D-01 BMatC= 8.27D-01 BMatP= 8.27D-01
 IDIUse=3 WtCom= 4.23D-01 WtEn= 5.77D-01
 Coeff-Com:  0.100D+01
 Coeff-En:   0.100D+01
 Coeff:      0.100D+01
 Gap=     0.280 Goal=   None    Shift=    0.000
 GapD=    0.280 DampG=1.000 DampE=0.500 DampFc=0.5000 IDamp=-1.
 Damping current iteration by 5.00D-01
 RMSDP=6.39D-03 MaxDP=4.61D-01              OVMax= 2.30D-01

 Cycle   2  Pass 1  IDiag  1:
 RMSU=  3.19D-03    CP:  1.02D+00
 E= -873.172003822417     Delta-E=       -0.204030955007 Rises=F Damp=T
 DIIS: error= 9.15D-03 at cycle   2 NSaved=   2.
 NSaved= 2 IEnMin= 2 EnMin= -873.172003822417     IErMin= 2 ErrMin= 9.15D-03
 ErrMax= 9.15D-03  0.00D+00 EMaxC= 1.00D-01 BMatC= 3.65D-02 BMatP= 8.27D-01
 IDIUse=3 WtCom= 9.08D-01 WtEn= 9.15D-02
 Coeff-Com:  0.577D-01 0.942D+00
 Coeff-En:   0.167D+00 0.833D+00
 Coeff:      0.677D-01 0.932D+00
 Gap=     0.356 Goal=   None    Shift=    0.000
 RMSDP=1.13D-03 MaxDP=6.18D-02 DE=-2.04D-01 OVMax= 1.31D-01

 Cycle   3  Pass 1  IDiag  1:
 RMSU=  8.43D-04    CP:  1.01D+00  7.66D-01
 E= -873.440835082816     Delta-E=       -0.268831260399 Rises=F Damp=F
 DIIS: error= 4.10D-03 at cycle   3 NSaved=   3.
 NSaved= 3 IEnMin= 3 EnMin= -873.440835082816     IErMin= 3 ErrMin= 4.10D-03
 ErrMax= 4.10D-03  0.00D+00 EMaxC= 1.00D-01 BMatC= 7.35D-03 BMatP= 3.65D-02
 IDIUse=3 WtCom= 9.59D-01 WtEn= 4.10D-02
 Coeff-Com: -0.216D-01 0.235D+00 0.787D+00
 Coeff-En:   0.000D+00 0.000D+00 0.100D+01
 Coeff:     -0.207D-01 0.225D+00 0.796D+00
 Gap=     0.358 Goal=   None    Shift=    0.000
 RMSDP=3.81D-04 MaxDP=1.44D-02 DE=-2.69D-01 OVMax= 3.32D-02

 Cycle   4  Pass 1  IDiag  1:
 RMSU=  3.67D-04    CP:  1.01D+00  7.76D-01  8.88D-01
 E= -873.442791279961     Delta-E=       -0.001956197145 Rises=F Damp=F
 DIIS: error= 3.41D-03 at cycle   4 NSaved=   4.
 NSaved= 4 IEnMin= 4 EnMin= -873.442791279961     IErMin= 4 ErrMin= 3.41D-03
 ErrMax= 3.41D-03  0.00D+00 EMaxC= 1.00D-01 BMatC= 4.80D-03 BMatP= 7.35D-03
 IDIUse=3 WtCom= 9.66D-01 WtEn= 3.41D-02
 Coeff-Com: -0.188D-01 0.410D-01 0.476D+00 0.502D+00
 Coeff-En:   0.000D+00 0.000D+00 0.392D+00 0.608D+00
 Coeff:     -0.182D-01 0.396D-01 0.473D+00 0.505D+00
 Gap=     0.354 Goal=   None    Shift=    0.000
 RMSDP=1.86D-04 MaxDP=7.50D-03 DE=-1.96D-03 OVMax= 1.43D-02

 Cycle   5  Pass 1  IDiag  1:
 RMSU=  5.63D-05    CP:  1.01D+00  7.77D-01  9.74D-01  5.59D-01
 E= -873.446007239070     Delta-E=       -0.003215959109 Rises=F Damp=F
 DIIS: error= 6.26D-04 at cycle   5 NSaved=   5.
 NSaved= 5 IEnMin= 5 EnMin= -873.446007239070     IErMin= 5 ErrMin= 6.26D-04
 ErrMax= 6.26D-04  0.00D+00 EMaxC= 1.00D-01 BMatC= 2.99D-05 BMatP= 4.80D-03
 IDIUse=3 WtCom= 9.94D-01 WtEn= 6.26D-03
 Coeff-Com: -0.350D-02 0.326D-02 0.108D+00 0.143D+00 0.750D+00
 Coeff-En:   0.000D+00 0.000D+00 0.000D+00 0.000D+00 0.100D+01
 Coeff:     -0.348D-02 0.324D-02 0.107D+00 0.142D+00 0.752D+00
 Gap=     0.351 Goal=   None    Shift=    0.000
 RMSDP=2.41D-05 MaxDP=1.41D-03 DE=-3.22D-03 OVMax= 1.12D-03

 Cycle   6  Pass 1  IDiag  1:
 RMSU=  1.70D-05    CP:  1.01D+00  7.73D-01  9.77D-01  5.88D-01  1.02D+00
 E= -873.446025261648     Delta-E=       -0.000018022578 Rises=F Damp=F
 DIIS: error= 2.20D-04 at cycle   6 NSaved=   6.
 NSaved= 6 IEnMin= 6 EnMin= -873.446025261648     IErMin= 6 ErrMin= 2.20D-04
 ErrMax= 2.20D-04  0.00D+00 EMaxC= 1.00D-01 BMatC= 4.80D-06 BMatP= 2.99D-05
 IDIUse=3 WtCom= 9.98D-01 WtEn= 2.20D-03
 Coeff-Com: -0.165D-03-0.133D-02 0.133D-01 0.252D-01 0.316D+00 0.647D+00
 Coeff-En:   0.000D+00 0.000D+00 0.000D+00 0.000D+00 0.000D+00 0.100D+01
 Coeff:     -0.165D-03-0.133D-02 0.133D-01 0.251D-01 0.315D+00 0.648D+00
 Gap=     0.352 Goal=   None    Shift=    0.000
 RMSDP=9.26D-06 MaxDP=5.57D-04 DE=-1.80D-05 OVMax= 4.10D-04

 Cycle   7  Pass 1  IDiag  1:
 RMSU=  4.79D-06    CP:  1.01D+00  7.71D-01  9.78D-01  5.90D-01  1.10D+00
                    CP:  8.75D-01
 E= -873.446028485440     Delta-E=       -0.000003223792 Rises=F Damp=F
 DIIS: error= 7.80D-05 at cycle   7 NSaved=   7.
 NSaved= 7 IEnMin= 7 EnMin= -873.446028485440     IErMin= 7 ErrMin= 7.80D-05
 ErrMax= 7.80D-05  0.00D+00 EMaxC= 1.00D-01 BMatC= 3.67D-07 BMatP= 4.80D-06
 IDIUse=1 WtCom= 1.00D+00 WtEn= 0.00D+00
 Coeff-Com:  0.397D-03-0.745D-03-0.112D-01-0.130D-01-0.166D-01 0.191D+00
 Coeff-Com:  0.851D+00
 Coeff:      0.397D-03-0.745D-03-0.112D-01-0.130D-01-0.166D-01 0.191D+00
 Coeff:      0.851D+00
 Gap=     0.352 Goal=   None    Shift=    0.000
 RMSDP=4.11D-06 MaxDP=2.44D-04 DE=-3.22D-06 OVMax= 1.45D-04

 Cycle   8  Pass 1  IDiag  1:
 RMSU=  2.00D-06    CP:  1.01D+00  7.71D-01  9.78D-01  5.92D-01  1.14D+00
                    CP:  9.39D-01  9.30D-01
 E= -873.446028771460     Delta-E=       -0.000000286019 Rises=F Damp=F
 DIIS: error= 9.78D-06 at cycle   8 NSaved=   8.
 NSaved= 8 IEnMin= 8 EnMin= -873.446028771460     IErMin= 8 ErrMin= 9.78D-06
 ErrMax= 9.78D-06  0.00D+00 EMaxC= 1.00D-01 BMatC= 3.95D-08 BMatP= 3.67D-07
 IDIUse=1 WtCom= 1.00D+00 WtEn= 0.00D+00
 Coeff-Com:  0.151D-03-0.193D-03-0.503D-02-0.614D-02-0.201D-01 0.376D-01
 Coeff-Com:  0.330D+00 0.664D+00
 Coeff:      0.151D-03-0.193D-03-0.503D-02-0.614D-02-0.201D-01 0.376D-01
 Coeff:      0.330D+00 0.664D+00
 Gap=     0.352 Goal=   None    Shift=    0.000
 RMSDP=8.01D-07 MaxDP=5.22D-05 DE=-2.86D-07 OVMax= 3.38D-05

 Cycle   9  Pass 1  IDiag  1:
 RMSU=  4.31D-07    CP:  1.01D+00  7.70D-01  9.78D-01  5.93D-01  1.14D+00
                    CP:  9.58D-01  1.02D+00  9.20D-01
 E= -873.446028803666     Delta-E=       -0.000000032206 Rises=F Damp=F
 DIIS: error= 1.75D-06 at cycle   9 NSaved=   9.
 NSaved= 9 IEnMin= 9 EnMin= -873.446028803666     IErMin= 9 ErrMin= 1.75D-06
 ErrMax= 1.75D-06  0.00D+00 EMaxC= 1.00D-01 BMatC= 1.35D-09 BMatP= 3.95D-08
 IDIUse=1 WtCom= 1.00D+00 WtEn= 0.00D+00
 Coeff-Com: -0.187D-04 0.409D-04 0.156D-03 0.198D-03-0.159D-02-0.107D-01
 Coeff-Com: -0.221D-01 0.773D-01 0.957D+00
 Coeff:     -0.187D-04 0.409D-04 0.156D-03 0.198D-03-0.159D-02-0.107D-01
 Coeff:     -0.221D-01 0.773D-01 0.957D+00
 Gap=     0.352 Goal=   None    Shift=    0.000
 RMSDP=2.72D-07 MaxDP=1.32D-05 DE=-3.22D-08 OVMax= 1.25D-05

 Cycle  10  Pass 1  IDiag  1:
 RMSU=  1.26D-07    CP:  1.01D+00  7.70D-01  9.78D-01  5.93D-01  1.14D+00
                    CP:  9.58D-01  1.03D+00  1.01D+00  1.08D+00
 E= -873.446028805047     Delta-E=       -0.000000001382 Rises=F Damp=F
 DIIS: error= 1.68D-06 at cycle  10 NSaved=  10.
 NSaved=10 IEnMin=10 EnMin= -873.446028805047     IErMin=10 ErrMin= 1.68D-06
 ErrMax= 1.68D-06  0.00D+00 EMaxC= 1.00D-01 BMatC= 5.76D-10 BMatP= 1.35D-09
 IDIUse=1 WtCom= 1.00D+00 WtEn= 0.00D+00
 Coeff-Com: -0.218D-04 0.366D-04 0.489D-03 0.590D-03 0.648D-03-0.893D-02
 Coeff-Com: -0.392D-01-0.167D-01 0.491D+00 0.572D+00
 Coeff:     -0.218D-04 0.366D-04 0.489D-03 0.590D-03 0.648D-03-0.893D-02
 Coeff:     -0.392D-01-0.167D-01 0.491D+00 0.572D+00
 Gap=     0.352 Goal=   None    Shift=    0.000
 RMSDP=7.86D-08 MaxDP=3.14D-06 DE=-1.38D-09 OVMax= 4.17D-06

 Cycle  11  Pass 1  IDiag  1:
 RMSU=  5.61D-08    CP:  1.01D+00  7.70D-01  9.78D-01  5.93D-01  1.14D+00
                    CP:  9.58D-01  1.04D+00  1.02D+00  1.17D+00  8.26D-01
 E= -873.446028805455     Delta-E=       -0.000000000408 Rises=F Damp=F
 DIIS: error= 2.78D-07 at cycle  11 NSaved=  11.
 NSaved=11 IEnMin=11 EnMin= -873.446028805455     IErMin=11 ErrMin= 2.78D-07
 ErrMax= 2.78D-07  0.00D+00 EMaxC= 1.00D-01 BMatC= 1.89D-11 BMatP= 5.76D-10
 IDIUse=1 WtCom= 1.00D+00 WtEn= 0.00D+00
 Coeff-Com: -0.548D-07-0.849D-07 0.581D-04 0.600D-04 0.271D-03-0.256D-03
 Coeff-Com: -0.472D-02-0.136D-01-0.274D-01 0.119D+00 0.927D+00
 Coeff:     -0.548D-07-0.849D-07 0.581D-04 0.600D-04 0.271D-03-0.256D-03
 Coeff:     -0.472D-02-0.136D-01-0.274D-01 0.119D+00 0.927D+00
 Gap=     0.352 Goal=   None    Shift=    0.000
 RMSDP=2.27D-08 MaxDP=6.89D-07 DE=-4.08D-10 OVMax= 1.78D-06

 Cycle  12  Pass 1  IDiag  1:
 RMSU=  1.29D-08    CP:  1.01D+00  7.70D-01  9.78D-01  5.93D-01  1.14D+00
                    CP:  9.58D-01  1.04D+00  1.02D+00  1.19D+00  9.28D-01
                    CP:  1.02D+00
 E= -873.446028805477     Delta-E=       -0.000000000022 Rises=F Damp=F
 DIIS: error= 3.83D-08 at cycle  12 NSaved=  12.
 NSaved=12 IEnMin=12 EnMin= -873.446028805477     IErMin=12 ErrMin= 3.83D-08
 ErrMax= 3.83D-08  0.00D+00 EMaxC= 1.00D-01 BMatC= 9.63D-13 BMatP= 1.89D-11
 IDIUse=1 WtCom= 1.00D+00 WtEn= 0.00D+00
 Coeff-Com:  0.110D-05-0.190D-05-0.594D-05-0.102D-04 0.482D-04 0.391D-03
 Coeff-Com:  0.784D-03-0.240D-02-0.318D-01-0.496D-03 0.233D+00 0.800D+00
 Coeff:      0.110D-05-0.190D-05-0.594D-05-0.102D-04 0.482D-04 0.391D-03
 Coeff:      0.784D-03-0.240D-02-0.318D-01-0.496D-03 0.233D+00 0.800D+00
 Gap=     0.352 Goal=   None    Shift=    0.000
 RMSDP=6.65D-09 MaxDP=4.09D-07 DE=-2.16D-11 OVMax= 2.95D-07

 SCF Done:  E(RM062X) =  -873.446028805     A.U. after   12 cycles
            NFock= 12  Conv=0.66D-08     -V/T= 2.0027
 KE= 8.711174572932D+02 PE=-3.114064200758D+03 EE= 8.471677867717D+02
 Leave Link  502 at Sun Feb 19 22:58:22 2023, MaxMem=  6710886400 cpu:             371.0 elap:              15.5
 (Enter /data0/home/software/g16/l601.exe)
 Copying SCF densities to generalized density rwf, IOpCl= 0 IROHF=0.

 **********************************************************************

            Population analysis using the SCF density.

 **********************************************************************

 Alpha  occ. eigenvalues --  -78.17164 -19.68942 -19.67814 -19.67072 -19.66253
 Alpha  occ. eigenvalues --  -19.64793 -19.64053 -19.60524  -6.97911  -5.09820
 Alpha  occ. eigenvalues --   -5.09769  -5.09658  -1.23950  -1.18673  -1.16491
 Alpha  occ. eigenvalues --   -1.15558  -1.15136  -1.14659  -1.10585  -0.72649
 Alpha  occ. eigenvalues --   -0.65596  -0.64304  -0.64020  -0.62722  -0.62222
 Alpha  occ. eigenvalues --   -0.58263  -0.53853  -0.52484  -0.51729  -0.50353
 Alpha  occ. eigenvalues --   -0.49278  -0.48697  -0.46757  -0.46468  -0.44845
 Alpha  occ. eigenvalues --   -0.42415  -0.42130  -0.41322  -0.40360  -0.39177
 Alpha virt. eigenvalues --   -0.04005   0.00046   0.01968   0.03029   0.04466
 Alpha virt. eigenvalues --    0.07021   0.08677   0.09463   0.10168   0.10787
 Alpha virt. eigenvalues --    0.11917   0.13732   0.13981   0.14821   0.16222
 Alpha virt. eigenvalues --    0.16497   0.17004   0.17526   0.17885   0.18025
 Alpha virt. eigenvalues --    0.19219   0.19621   0.19815   0.20339   0.20710
 Alpha virt. eigenvalues --    0.21639   0.22464   0.23538   0.24572   0.25023
 Alpha virt. eigenvalues --    0.25295   0.26072   0.27126   0.27779   0.28132
 Alpha virt. eigenvalues --    0.29018   0.29471   0.30883   0.32238   0.32407
 Alpha virt. eigenvalues --    0.35424   0.36555   0.37812   0.38404   0.41402
 Alpha virt. eigenvalues --    0.42606   0.45280   0.46603   0.48581   0.49454
 Alpha virt. eigenvalues --    0.51443   0.52182   0.54704   0.55034   0.56352
 Alpha virt. eigenvalues --    0.60030   0.60976   0.65642   0.66782   0.75179
 Alpha virt. eigenvalues --    0.77446   0.78707   0.86110   0.95107   0.96726
 Alpha virt. eigenvalues --    0.97531   0.98618   0.99854   1.01184   1.01490
 Alpha virt. eigenvalues --    1.02818   1.05122   1.05593   1.06019   1.07108
 Alpha virt. eigenvalues --    1.07817   1.09699   1.11123   1.12273   1.14671
 Alpha virt. eigenvalues --    1.16600   1.17669   1.18243   1.18286   1.19628
 Alpha virt. eigenvalues --    1.19945   1.21261   1.22749   1.23403   1.26524
 Alpha virt. eigenvalues --    1.27207   1.29128   1.30467   1.31230   1.31956
 Alpha virt. eigenvalues --    1.34087   1.35544   1.36327   1.37216   1.40491
 Alpha virt. eigenvalues --    1.44084   1.45490   1.47545   1.48795   1.53912
 Alpha virt. eigenvalues --    1.55969   1.57047   1.60847   1.63167   1.64278
 Alpha virt. eigenvalues --    1.65263   1.66986   1.68395   1.69615   1.70316
 Alpha virt. eigenvalues --    1.72631   1.73357   1.74928   1.75678   1.78521
 Alpha virt. eigenvalues --    1.80506   1.83218   1.84952   1.87083   1.89925
 Alpha virt. eigenvalues --    1.91024   1.93427   1.94839   1.98579   2.03115
 Alpha virt. eigenvalues --    2.05596   2.06153   2.06788   2.08844   2.09454
 Alpha virt. eigenvalues --    2.11720   2.14409   2.15731   2.16731   2.21386
 Alpha virt. eigenvalues --    2.25366   2.28449   2.31359   2.36145   2.38356
 Alpha virt. eigenvalues --    2.40177   2.42217   2.44079   2.45381   2.49396
 Alpha virt. eigenvalues --    2.52802   2.53863   2.57485   2.58606   2.60276
 Alpha virt. eigenvalues --    2.61449   2.63879   2.67243   2.74419   2.76397
 Alpha virt. eigenvalues --    2.82123   2.87077   2.87533   2.87827   2.94913
 Alpha virt. eigenvalues --    2.98051   3.00913   3.01594   3.09516   3.10099
 Alpha virt. eigenvalues --    5.02410   5.04946   5.07090   5.07979   5.08373
 Alpha virt. eigenvalues --    5.10592   5.12394   5.13811   5.14206   5.20812
 Alpha virt. eigenvalues --    5.25859   5.35866   5.45621   5.46596   5.48215
 Alpha virt. eigenvalues --    5.51846   5.53586   5.59544   5.88204   5.91246
 Alpha virt. eigenvalues --    5.92054   6.72805   6.73903   6.74623   6.75597
 Alpha virt. eigenvalues --    6.76122   6.76863   6.77616   6.78372   6.79001
 Alpha virt. eigenvalues --    6.79213   6.79546   6.80161   6.84478   6.85639
 Alpha virt. eigenvalues --    6.86252   6.86955   6.87905   6.90038   6.91184
 Alpha virt. eigenvalues --    6.92637   6.93226   6.97190   6.97397   6.99259
 Alpha virt. eigenvalues --    7.03340   7.07179   7.08655   7.09593   7.11457
 Alpha virt. eigenvalues --    7.13751   7.24795   7.25461   7.28422   7.33366
 Alpha virt. eigenvalues --    7.40371   7.65369  14.23111  14.25186  14.35321
 Alpha virt. eigenvalues --   49.94695  49.96588  49.98406  49.99995  50.01082
 Alpha virt. eigenvalues --   50.04656  50.08751 163.87577
          Condensed to atoms (all electrons):
               1          2          3          4          5          6
     1  P   12.522315   0.500891   0.290711   0.025775   0.179825   0.028317
     2  O    0.500891   8.230707  -0.047217  -0.009919  -0.030564  -0.004495
     3  O    0.290711  -0.047217   8.176546   0.185285  -0.005688  -0.009740
     4  H    0.025775  -0.009919   0.185285   0.386879   0.006323   0.000684
     5  O    0.179825  -0.030564  -0.005688   0.006323   8.135179   0.234638
     6  H    0.028317  -0.004495  -0.009740   0.000684   0.234638   0.445604
     7  O    0.274891  -0.022170   0.007051   0.007667  -0.021960  -0.007215
     8  H    0.009342  -0.011197  -0.010569   0.000099   0.005396   0.001191
     9  O   -0.014466   0.020355   0.076837  -0.135383   0.000039  -0.000030
    10  H    0.003633  -0.004849  -0.012317   0.020932   0.000105   0.000011
    11  H    0.013534  -0.011575  -0.025937   0.049776   0.000151   0.000014
    12  O    0.000149  -0.000077  -0.000013   0.000016   0.000000   0.000000
    13  H   -0.000016   0.000003   0.000000  -0.000001  -0.000000  -0.000000
    14  H    0.000026   0.000002   0.000010  -0.000012  -0.000000  -0.000000
    15  O   -0.023330   0.035745   0.018181  -0.026631  -0.000260  -0.000063
    16  H    0.011593   0.017857  -0.009948   0.010359  -0.000057   0.000040
    17  H   -0.002323  -0.002475  -0.001194   0.001279  -0.000043   0.000005
               7          8          9         10         11         12
     1  P    0.274891   0.009342  -0.014466   0.003633   0.013534   0.000149
     2  O   -0.022170  -0.011197   0.020355  -0.004849  -0.011575  -0.000077
     3  O    0.007051  -0.010569   0.076837  -0.012317  -0.025937  -0.000013
     4  H    0.007667   0.000099  -0.135383   0.020932   0.049776   0.000016
     5  O   -0.021960   0.005396   0.000039   0.000105   0.000151   0.000000
     6  H   -0.007215   0.001191  -0.000030   0.000011   0.000014   0.000000
     7  O    8.012838   0.257950  -0.015302   0.002124   0.001790   0.000004
     8  H    0.257950   0.429477  -0.000662   0.000126   0.000115   0.000001
     9  O   -0.015302  -0.000662   8.313572   0.249623   0.155180  -0.000459
    10  H    0.002124   0.000126   0.249623   0.439226   0.007462   0.000130
    11  H    0.001790   0.000115   0.155180   0.007462   0.421442   0.000407
    12  O    0.000004   0.000001  -0.000459   0.000130   0.000407   7.899021
    13  H   -0.000000  -0.000000   0.000053  -0.000012  -0.000034   0.330486
    14  H   -0.000009  -0.000004   0.000343  -0.000151  -0.000280   0.312608
    15  O   -0.003987  -0.000630   0.114647  -0.024086  -0.020864  -0.004774
    16  H    0.002461   0.000554  -0.039570   0.004219   0.028062   0.001103
    17  H    0.000719   0.000091  -0.011597   0.002218   0.004069   0.007019
              13         14         15         16         17
     1  P   -0.000016   0.000026  -0.023330   0.011593  -0.002323
     2  O    0.000003   0.000002   0.035745   0.017857  -0.002475
     3  O    0.000000   0.000010   0.018181  -0.009948  -0.001194
     4  H   -0.000001  -0.000012  -0.026631   0.010359   0.001279
     5  O   -0.000000  -0.000000  -0.000260  -0.000057  -0.000043
     6  H   -0.000000  -0.000000  -0.000063   0.000040   0.000005
     7  O   -0.000000  -0.000009  -0.003987   0.002461   0.000719
     8  H   -0.000000  -0.000004  -0.000630   0.000554   0.000091
     9  O    0.000053   0.000343   0.114647  -0.039570  -0.011597
    10  H   -0.000012  -0.000151  -0.024086   0.004219   0.002218
    11  H   -0.000034  -0.000280  -0.020864   0.028062   0.004069
    12  O    0.330486   0.312608  -0.004774   0.001103   0.007019
    13  H    0.414656  -0.027337  -0.000483   0.000024   0.000801
    14  H   -0.027337   0.443878  -0.001579   0.000038   0.003850
    15  O   -0.000483  -0.001579   7.901999   0.295173   0.315485
    16  H    0.000024   0.000038   0.295173   0.341392  -0.027594
    17  H    0.000801   0.003850   0.315485  -0.027594   0.472216
 Mulliken charges:
               1
     1  P    1.179131
     2  O   -0.661022
     3  O   -0.631997
     4  H    0.476873
     5  O   -0.503084
     6  H    0.311040
     7  O   -0.496852
     8  H    0.318719
     9  O   -0.713181
    10  H    0.311606
    11  H    0.376689
    12  O   -0.545622
    13  H    0.281861
    14  H    0.268618
    15  O   -0.574544
    16  H    0.364293
    17  H    0.237472
 Sum of Mulliken charges =  -0.00000
 Mulliken charges with hydrogens summed into heavy atoms:
               1
     1  P    1.179131
     2  O   -0.661022
     3  O   -0.155124
     5  O   -0.192044
     7  O   -0.178133
     9  O   -0.024886
    12  O    0.004856
    15  O    0.027221
         Mulliken charges condensed to fragments:
      1     -0.007192
      2     -0.024886
      3      0.004856
      4      0.027221
 Electronic spatial extent (au):  <R**2>=         108568.3614
 Charge=             -0.0000 electrons
 Dipole moment (field-independent basis, Debye):
    X=              0.9637    Y=              0.2989    Z=             -4.7630  Tot=              4.8687
 Quadrupole moment (field-independent basis, Debye-Ang):
   XX=            -46.7564   YY=            -48.0649   ZZ=           -160.6212
   XY=              8.6134   XZ=            -46.4200   YZ=            -47.0758
 Traceless Quadrupole moment (field-independent basis, Debye-Ang):
   XX=             38.3911   YY=             37.0826   ZZ=            -75.4737
   XY=              8.6134   XZ=            -46.4200   YZ=            -47.0758
 Octapole moment (field-independent basis, Debye-Ang**2):
  XXX=          -2025.4489  YYY=          -1577.5231  ZZZ=          -3542.5845  XYY=           -599.7084
  XXY=           -594.2346  XXZ=          -1151.2389  XZZ=          -1810.0907  YZZ=          -1647.0874
  YYZ=          -1062.8959  XYZ=           -506.8946
 Hexadecapole moment (field-independent basis, Debye-Ang**3):
 XXXX=         -52099.2488 YYYY=         -34155.3679 ZZZZ=         -64975.3191 XXXY=         -23398.9688
 XXXZ=         -29100.9735 YYYX=         -19965.4922 YYYZ=         -22958.1522 ZZZX=         -41411.2422
 ZZZY=         -36434.8242 XXYY=         -15982.4452 XXZZ=         -28160.8664 YYZZ=         -23759.2822
 XXYZ=         -13162.8829 YYXZ=         -12965.0353 ZZXY=         -18941.0152
 N-N= 5.223329278871D+02 E-N=-3.114064201379D+03  KE= 8.711174572933D+02
 No NMR shielding tensors so no spin-rotation constants.
 Leave Link  601 at Sun Feb 19 22:58:22 2023, MaxMem=  6710886400 cpu:               2.2 elap:               0.1
 (Enter /data0/home/software/g16/l122.exe)
 CPIOFr:  IOpCl= 0 IRwI=-1 IRwCP=  731 ICalc= -1 LCPTot=      120517 Len1MO=      315166 IndFrg=      120517
 CPIOFr:  IOpCl= 0 IRwI=-1 IRwCP=  731 ICalc=  0 LCPTot=      120517 Len1MO=      315166 IndFrg=      435683
 Counterpoise: doing calculation for fragment   1 using the basis set of the full-system, NewBq=T
 Leave Link  122 at Sun Feb 19 22:58:22 2023, MaxMem=  6710886400 cpu:               0.2 elap:               0.0
 (Enter /data0/home/software/g16/l301.exe)
 Basis read from rwf:  (5D, 7F)
 No pseudopotential information found on rwf file.
   278 basis functions,   422 primitive gaussians,   294 cartesian basis functions
    25 alpha electrons       25 beta electrons
       nuclear repulsion energy       280.0281415732 Hartrees.
 IExCor= 4336 DFT=T Ex+Corr=M062X ExCW=0 ScaHFX=  0.540000
 ScaDFX=  1.000000  1.000000  1.000000  1.000000 ScalE2=  1.000000  1.000000
 IRadAn=      5 IRanWt=     -1 IRanGd=            0 ICorTp=0 IEmpDi=131
 NAtoms=   17 NActive=   17 NUniq=   17 SFac= 1.00D+00 NAtFMM=   60 NAOKFM=F Big=F
 Integral buffers will be    131072 words long.
 Raffenetti 2 integral format.
 Two-electron integral symmetry is turned off.
 R6Disp:  Grimme-D3 Dispersion energy=       -0.0000472054 Hartrees.
 Nuclear repulsion after empirical dispersion term =      280.0280943677 Hartrees.
 No density basis found on file   718.
 Leave Link  301 at Sun Feb 19 22:58:22 2023, MaxMem=  6710886400 cpu:               1.3 elap:               0.1
 (Enter /data0/home/software/g16/l302.exe)
 NPDir=0 NMtPBC=     1 NCelOv=     1 NCel=       1 NClECP=     1 NCelD=      1
         NCelK=      1 NCelE2=     1 NClLst=     1 CellRange=     0.0.
 One-electron integrals computed using PRISM.
 NBasis=   278 RedAO= T EigKep=  3.14D-04  NBF=   278
 NBsUse=   278 1.00D-06 EigRej= -1.00D+00 NBFU=   278
 Precomputing XC quadrature grid using
 IXCGrd= 4 IRadAn=           5 IRanWt=          -1 IRanGd=           0 AccXCQ= 0.00D+00.
 Generated NRdTot=       0 NPtTot=           0 NUsed=           0 NTot=          32
 NSgBfM=   292   292   292   292   292 MxSgAt=    17 MxSgA2=    17.
 Leave Link  302 at Sun Feb 19 22:58:22 2023, MaxMem=  6710886400 cpu:               4.4 elap:               0.2
 (Enter /data0/home/software/g16/l303.exe)
 DipDrv:  MaxL=1.
 Leave Link  303 at Sun Feb 19 22:58:22 2023, MaxMem=  6710886400 cpu:               0.6 elap:               0.0
 (Enter /data0/home/software/g16/l401.exe)
 ExpMin= 3.48D-02 ExpMax= 7.75D+04 ExpMxC= 2.65D+03 IAcc=3 IRadAn=         5 AccDes= 0.00D+00
 Harris functional with IExCor= 1009 and IRadAn=       5 diagonalized for initial guess.
 HarFok:  IExCor= 1009 AccDes= 0.00D+00 IRadAn=         5 IDoV= 1 UseB2=F ITyADJ=14
 ICtDFT=  3500011 ScaDFX=  1.000000  1.000000  1.000000  1.000000
 FoFCou: FMM=F IPFlag=           0 FMFlag=      100000 FMFlg1=           0
         NFxFlg=           0 DoJE=T BraDBF=F KetDBF=T FulRan=T
         wScrn=  0.000000 ICntrl=       500 IOpCl=  0 I1Cent=   200000004 NGrid=           0
         NMat0=    1 NMatS0=      1 NMatT0=    0 NMatD0=    1 NMtDS0=    0 NMtDT0=    0
 Symmetry not used in FoFCou.
 Harris En= -643.940440156858    
 JPrj=0 DoOrth=F DoCkMO=F.
 Leave Link  401 at Sun Feb 19 22:58:23 2023, MaxMem=  6710886400 cpu:              12.0 elap:               0.5
 (Enter /data0/home/software/g16/l502.exe)
 Two-electron integral symmetry not used.
 Closed shell SCF:
 Using DIIS extrapolation, IDIIS=  1040.
 NGot=  6710886400 LenX=  6710704303 LenY=  6710617426
 Requested convergence on RMS density matrix=1.00D-08 within 128 cycles.
 Requested convergence on MAX density matrix=1.00D-06.
 Requested convergence on             energy=1.00D-06.
 No special actions if energy rises.
 Fock matrices will be formed incrementally for  20 cycles.

 Cycle   1  Pass 1  IDiag  1:
 FoFJK:  IHMeth= 1 ICntrl=       0 DoSepK=F KAlg= 0 I1Cent=           0 FoldK=F
 IRaf= 850000000 NMat=       1 IRICut=       1 DoRegI=T DoRafI=F ISym2E= 0 IDoP0=0 IntGTp=1.
 FoFCou: FMM=F IPFlag=           0 FMFlag=      100000 FMFlg1=           0
         NFxFlg=           0 DoJE=F BraDBF=F KetDBF=F FulRan=T
         wScrn=  0.000000 ICntrl=         0 IOpCl=  0 I1Cent=           0 NGrid=           0
         NMat0=    1 NMatS0=      1 NMatT0=    0 NMatD0=    1 NMtDS0=    0 NMtDT0=    0
 Symmetry not used in FoFCou.
 E= -643.857651486130    
 DIIS: error= 3.20D-02 at cycle   1 NSaved=   1.
 NSaved= 1 IEnMin= 1 EnMin= -643.857651486130     IErMin= 1 ErrMin= 3.20D-02
 ErrMax= 3.20D-02  0.00D+00 EMaxC= 1.00D-01 BMatC= 5.06D-01 BMatP= 5.06D-01
 IDIUse=3 WtCom= 6.80D-01 WtEn= 3.20D-01
 Coeff-Com:  0.100D+01
 Coeff-En:   0.100D+01
 Coeff:      0.100D+01
 Gap=     0.294 Goal=   None    Shift=    0.000
 GapD=    0.294 DampG=1.000 DampE=0.500 DampFc=0.5000 IDamp=-1.
 Damping current iteration by 5.00D-01
 RMSDP=4.10D-03 MaxDP=1.60D-01              OVMax= 2.64D-01

 Cycle   2  Pass 1  IDiag  1:
 RMSU=  2.05D-03    CP:  1.00D+00
 E= -643.973898285293     Delta-E=       -0.116246799164 Rises=F Damp=T
 DIIS: error= 6.82D-03 at cycle   2 NSaved=   2.
 NSaved= 2 IEnMin= 2 EnMin= -643.973898285293     IErMin= 2 ErrMin= 6.82D-03
 ErrMax= 6.82D-03  0.00D+00 EMaxC= 1.00D-01 BMatC= 2.70D-02 BMatP= 5.06D-01
 IDIUse=3 WtCom= 9.32D-01 WtEn= 6.82D-02
 Coeff-Com:  0.718D-01 0.928D+00
 Coeff-En:   0.203D+00 0.797D+00
 Coeff:      0.808D-01 0.919D+00
 Gap=     0.358 Goal=   None    Shift=    0.000
 RMSDP=9.75D-04 MaxDP=5.19D-02 DE=-1.16D-01 OVMax= 1.75D-01

 Cycle   3  Pass 1  IDiag  1:
 RMSU=  7.28D-04    CP:  9.91D-01  6.87D-01
 E= -644.138768940637     Delta-E=       -0.164870655344 Rises=F Damp=F
 DIIS: error= 3.95D-03 at cycle   3 NSaved=   3.
 NSaved= 3 IEnMin= 3 EnMin= -644.138768940637     IErMin= 3 ErrMin= 3.95D-03
 ErrMax= 3.95D-03  0.00D+00 EMaxC= 1.00D-01 BMatC= 1.03D-02 BMatP= 2.70D-02
 IDIUse=3 WtCom= 9.60D-01 WtEn= 3.95D-02
 Coeff-Com: -0.176D-01 0.340D+00 0.678D+00
 Coeff-En:   0.000D+00 0.000D+00 0.100D+01
 Coeff:     -0.169D-01 0.326D+00 0.691D+00
 Gap=     0.350 Goal=   None    Shift=    0.000
 RMSDP=3.85D-04 MaxDP=1.50D-02 DE=-1.65D-01 OVMax= 3.50D-02

 Cycle   4  Pass 1  IDiag  1:
 RMSU=  3.23D-04    CP:  9.91D-01  7.76D-01  8.63D-01
 E= -644.143514777577     Delta-E=       -0.004745836939 Rises=F Damp=F
 DIIS: error= 3.28D-03 at cycle   4 NSaved=   4.
 NSaved= 4 IEnMin= 4 EnMin= -644.143514777577     IErMin= 4 ErrMin= 3.28D-03
 ErrMax= 3.28D-03  0.00D+00 EMaxC= 1.00D-01 BMatC= 3.74D-03 BMatP= 1.03D-02
 IDIUse=3 WtCom= 9.67D-01 WtEn= 3.28D-02
 Coeff-Com: -0.233D-01 0.529D-01 0.401D+00 0.570D+00
 Coeff-En:   0.000D+00 0.000D+00 0.265D+00 0.735D+00
 Coeff:     -0.225D-01 0.512D-01 0.396D+00 0.575D+00
 Gap=     0.352 Goal=   None    Shift=    0.000
 RMSDP=1.52D-04 MaxDP=5.94D-03 DE=-4.75D-03 OVMax= 1.10D-02

 Cycle   5  Pass 1  IDiag  1:
 RMSU=  4.56D-05    CP:  9.91D-01  7.55D-01  9.57D-01  6.28D-01
 E= -644.145994978232     Delta-E=       -0.002480200656 Rises=F Damp=F
 DIIS: error= 1.82D-04 at cycle   5 NSaved=   5.
 NSaved= 5 IEnMin= 5 EnMin= -644.145994978232     IErMin= 5 ErrMin= 1.82D-04
 ErrMax= 1.82D-04  0.00D+00 EMaxC= 1.00D-01 BMatC= 1.57D-05 BMatP= 3.74D-03
 IDIUse=3 WtCom= 9.98D-01 WtEn= 1.82D-03
 Coeff-Com: -0.274D-02 0.102D-02 0.574D-01 0.119D+00 0.826D+00
 Coeff-En:   0.000D+00 0.000D+00 0.000D+00 0.000D+00 0.100D+01
 Coeff:     -0.274D-02 0.102D-02 0.573D-01 0.118D+00 0.826D+00
 Gap=     0.351 Goal=   None    Shift=    0.000
 RMSDP=1.63D-05 MaxDP=7.77D-04 DE=-2.48D-03 OVMax= 7.68D-04

 Cycle   6  Pass 1  IDiag  1:
 RMSU=  1.13D-05    CP:  9.91D-01  7.52D-01  9.61D-01  6.54D-01  1.05D+00
 E= -644.146005607974     Delta-E=       -0.000010629742 Rises=F Damp=F
 DIIS: error= 5.24D-05 at cycle   6 NSaved=   6.
 NSaved= 6 IEnMin= 6 EnMin= -644.146005607974     IErMin= 6 ErrMin= 5.24D-05
 ErrMax= 5.24D-05  0.00D+00 EMaxC= 1.00D-01 BMatC= 1.14D-06 BMatP= 1.57D-05
 IDIUse=1 WtCom= 1.00D+00 WtEn= 0.00D+00
 Coeff-Com:  0.212D-04-0.144D-02 0.146D-02 0.106D-01 0.213D+00 0.776D+00
 Coeff:      0.212D-04-0.144D-02 0.146D-02 0.106D-01 0.213D+00 0.776D+00
 Gap=     0.351 Goal=   None    Shift=    0.000
 RMSDP=5.97D-06 MaxDP=2.10D-04 DE=-1.06D-05 OVMax= 2.61D-04

 Cycle   7  Pass 1  IDiag  1:
 RMSU=  3.36D-06    CP:  9.91D-01  7.51D-01  9.63D-01  6.55D-01  1.14D+00
                    CP:  9.34D-01
 E= -644.146006400534     Delta-E=       -0.000000792559 Rises=F Damp=F
 DIIS: error= 2.22D-05 at cycle   7 NSaved=   7.
 NSaved= 7 IEnMin= 7 EnMin= -644.146006400534     IErMin= 7 ErrMin= 2.22D-05
 ErrMax= 2.22D-05  0.00D+00 EMaxC= 1.00D-01 BMatC= 2.69D-07 BMatP= 1.14D-06
 IDIUse=1 WtCom= 1.00D+00 WtEn= 0.00D+00
 Coeff-Com:  0.425D-03-0.744D-03-0.850D-02-0.138D-01-0.263D-01 0.324D+00
 Coeff-Com:  0.725D+00
 Coeff:      0.425D-03-0.744D-03-0.850D-02-0.138D-01-0.263D-01 0.324D+00
 Coeff:      0.725D+00
 Gap=     0.351 Goal=   None    Shift=    0.000
 RMSDP=2.26D-06 MaxDP=8.19D-05 DE=-7.93D-07 OVMax= 1.03D-04

 Cycle   8  Pass 1  IDiag  1:
 RMSU=  1.54D-06    CP:  9.91D-01  7.50D-01  9.63D-01  6.56D-01  1.16D+00
                    CP:  1.01D+00  8.65D-01
 E= -644.146006581880     Delta-E=       -0.000000181346 Rises=F Damp=F
 DIIS: error= 7.56D-06 at cycle   8 NSaved=   8.
 NSaved= 8 IEnMin= 8 EnMin= -644.146006581880     IErMin= 8 ErrMin= 7.56D-06
 ErrMax= 7.56D-06  0.00D+00 EMaxC= 1.00D-01 BMatC= 3.32D-08 BMatP= 2.69D-07
 IDIUse=1 WtCom= 1.00D+00 WtEn= 0.00D+00
 Coeff-Com:  0.175D-03-0.246D-03-0.381D-02-0.625D-02-0.187D-01 0.100D+00
 Coeff-Com:  0.340D+00 0.589D+00
 Coeff:      0.175D-03-0.246D-03-0.381D-02-0.625D-02-0.187D-01 0.100D+00
 Coeff:      0.340D+00 0.589D+00
 Gap=     0.351 Goal=   None    Shift=    0.000
 RMSDP=5.23D-07 MaxDP=2.26D-05 DE=-1.81D-07 OVMax= 3.65D-05

 Cycle   9  Pass 1  IDiag  1:
 RMSU=  3.17D-07    CP:  9.91D-01  7.50D-01  9.63D-01  6.56D-01  1.16D+00
                    CP:  1.02D+00  9.48D-01  8.36D-01
 E= -644.146006605883     Delta-E=       -0.000000024003 Rises=F Damp=F
 DIIS: error= 9.39D-07 at cycle   9 NSaved=   9.
 NSaved= 9 IEnMin= 9 EnMin= -644.146006605883     IErMin= 9 ErrMin= 9.39D-07
 ErrMax= 9.39D-07  0.00D+00 EMaxC= 1.00D-01 BMatC= 7.65D-10 BMatP= 3.32D-08
 IDIUse=1 WtCom= 1.00D+00 WtEn= 0.00D+00
 Coeff-Com: -0.268D-04 0.503D-04 0.277D-03 0.580D-03-0.396D-03-0.199D-01
 Coeff-Com: -0.269D-01 0.734D-01 0.973D+00
 Coeff:     -0.268D-04 0.503D-04 0.277D-03 0.580D-03-0.396D-03-0.199D-01
 Coeff:     -0.269D-01 0.734D-01 0.973D+00
 Gap=     0.351 Goal=   None    Shift=    0.000
 RMSDP=2.05D-07 MaxDP=7.90D-06 DE=-2.40D-08 OVMax= 1.01D-05

 Cycle  10  Pass 1  IDiag  1:
 RMSU=  8.02D-08    CP:  9.91D-01  7.50D-01  9.63D-01  6.56D-01  1.17D+00
                    CP:  1.02D+00  9.73D-01  9.13D-01  1.14D+00
 E= -644.146006606815     Delta-E=       -0.000000000932 Rises=F Damp=F
 DIIS: error= 1.92D-07 at cycle  10 NSaved=  10.
 NSaved=10 IEnMin=10 EnMin= -644.146006606815     IErMin=10 ErrMin= 1.92D-07
 ErrMax= 1.92D-07  0.00D+00 EMaxC= 1.00D-01 BMatC= 1.73D-11 BMatP= 7.65D-10
 IDIUse=1 WtCom= 1.00D+00 WtEn= 0.00D+00
 Coeff-Com: -0.510D-05 0.857D-05 0.116D-03 0.193D-03 0.448D-03-0.468D-02
 Coeff-Com: -0.138D-01-0.135D-01 0.595D-01 0.972D+00
 Coeff:     -0.510D-05 0.857D-05 0.116D-03 0.193D-03 0.448D-03-0.468D-02
 Coeff:     -0.138D-01-0.135D-01 0.595D-01 0.972D+00
 Gap=     0.351 Goal=   None    Shift=    0.000
 RMSDP=3.97D-08 MaxDP=1.01D-06 DE=-9.32D-10 OVMax= 2.41D-06

 Cycle  11  Pass 1  IDiag  1:
 RMSU=  2.20D-08    CP:  9.91D-01  7.50D-01  9.63D-01  6.56D-01  1.17D+00
                    CP:  1.02D+00  9.76D-01  9.27D-01  1.20D+00  1.13D+00
 E= -644.146006606855     Delta-E=       -0.000000000040 Rises=F Damp=F
 DIIS: error= 2.06D-07 at cycle  11 NSaved=  11.
 NSaved=11 IEnMin=11 EnMin= -644.146006606855     IErMin=10 ErrMin= 1.92D-07
 ErrMax= 2.06D-07  0.00D+00 EMaxC= 1.00D-01 BMatC= 7.58D-12 BMatP= 1.73D-11
 IDIUse=1 WtCom= 1.00D+00 WtEn= 0.00D+00
 Coeff-Com: -0.325D-06 0.310D-06 0.345D-04 0.496D-04 0.226D-03-0.851D-03
 Coeff-Com: -0.439D-02-0.104D-01-0.376D-01 0.449D+00 0.604D+00
 Coeff:     -0.325D-06 0.310D-06 0.345D-04 0.496D-04 0.226D-03-0.851D-03
 Coeff:     -0.439D-02-0.104D-01-0.376D-01 0.449D+00 0.604D+00
 Gap=     0.351 Goal=   None    Shift=    0.000
 RMSDP=9.57D-09 MaxDP=4.42D-07 DE=-4.00D-11 OVMax= 5.21D-07

 SCF Done:  E(RM062X) =  -644.146006607     A.U. after   11 cycles
            NFock= 11  Conv=0.96D-08     -V/T= 2.0025
 KE= 6.425093697279D+02 PE=-2.087796277029D+03 EE= 5.211128063263D+02
 Leave Link  502 at Sun Feb 19 22:58:36 2023, MaxMem=  6710886400 cpu:             300.9 elap:              12.6
 (Enter /data0/home/software/g16/l601.exe)
 Copying SCF densities to generalized density rwf, IOpCl= 0 IROHF=0.

 **********************************************************************

            Population analysis using the SCF density.

 **********************************************************************

 Alpha  occ. eigenvalues --  -78.16753 -19.68930 -19.68434 -19.67157 -19.58923
 Alpha  occ. eigenvalues --   -6.97533  -5.09434  -5.09402  -5.09250  -1.24185
 Alpha  occ. eigenvalues --   -1.17048  -1.15864  -1.09040  -0.72885  -0.64790
 Alpha  occ. eigenvalues --   -0.63738  -0.58065  -0.53201  -0.51473  -0.49320
 Alpha  occ. eigenvalues --   -0.46778  -0.46020  -0.42803  -0.38756  -0.37859
 Alpha virt. eigenvalues --   -0.02723   0.01185   0.01505   0.04441   0.06763
 Alpha virt. eigenvalues --    0.07193   0.09660   0.10260   0.10648   0.11905
 Alpha virt. eigenvalues --    0.12276   0.14136   0.14969   0.15961   0.17132
 Alpha virt. eigenvalues --    0.17823   0.18313   0.18701   0.19858   0.20213
 Alpha virt. eigenvalues --    0.20624   0.20882   0.21344   0.22445   0.23799
 Alpha virt. eigenvalues --    0.24869   0.25031   0.26492   0.26983   0.28286
 Alpha virt. eigenvalues --    0.28642   0.29027   0.29349   0.30343   0.31545
 Alpha virt. eigenvalues --    0.31888   0.33143   0.33557   0.34581   0.36474
 Alpha virt. eigenvalues --    0.37248   0.38174   0.40167   0.40684   0.43005
 Alpha virt. eigenvalues --    0.44112   0.46791   0.47905   0.48636   0.50188
 Alpha virt. eigenvalues --    0.55610   0.57676   0.59318   0.63589   0.65533
 Alpha virt. eigenvalues --    0.70567   0.72286   0.74244   0.75818   0.77477
 Alpha virt. eigenvalues --    0.78460   0.79137   0.80801   0.81248   0.81728
 Alpha virt. eigenvalues --    0.84653   0.86826   0.87995   0.88352   0.94408
 Alpha virt. eigenvalues --    0.97900   0.99275   1.01348   1.03281   1.05584
 Alpha virt. eigenvalues --    1.05964   1.07215   1.11267   1.11913   1.12862
 Alpha virt. eigenvalues --    1.13850   1.16473   1.17165   1.20538   1.21254
 Alpha virt. eigenvalues --    1.23963   1.26011   1.27357   1.29062   1.34482
 Alpha virt. eigenvalues --    1.36278   1.38462   1.43692   1.45857   1.47872
 Alpha virt. eigenvalues --    1.53349   1.54916   1.55973   1.59060   1.64095
 Alpha virt. eigenvalues --    1.65661   1.66651   1.69092   1.70542   1.73916
 Alpha virt. eigenvalues --    1.76475   1.78060   1.80120   1.82183   1.83407
 Alpha virt. eigenvalues --    1.85714   1.86056   1.88299   1.89213   1.90162
 Alpha virt. eigenvalues --    1.90875   1.93841   1.95341   1.97647   1.99472
 Alpha virt. eigenvalues --    2.02635   2.07037   2.10125   2.11806   2.13473
 Alpha virt. eigenvalues --    2.17848   2.19767   2.20561   2.22402   2.24598
 Alpha virt. eigenvalues --    2.26536   2.28525   2.31595   2.35909   2.38404
 Alpha virt. eigenvalues --    2.40598   2.44628   2.45291   2.48631   2.51775
 Alpha virt. eigenvalues --    2.52257   2.54834   2.57244   2.58142   2.59739
 Alpha virt. eigenvalues --    2.59933   2.61296   2.62065   2.63551   2.65288
 Alpha virt. eigenvalues --    2.69052   2.70794   2.71482   2.73662   2.74216
 Alpha virt. eigenvalues --    2.74815   2.76718   2.78831   2.79354   2.82668
 Alpha virt. eigenvalues --    2.83953   2.88866   2.93159   2.96997   2.97672
 Alpha virt. eigenvalues --    3.01305   3.01479   3.08446   3.10753   3.14871
 Alpha virt. eigenvalues --    3.49333   3.57274   3.59939   3.60173   3.69716
 Alpha virt. eigenvalues --    3.74207   4.50011   4.55315   4.65634   5.01929
 Alpha virt. eigenvalues --    5.04754   5.06480   5.07284   5.07887   5.09254
 Alpha virt. eigenvalues --    5.12516   5.14661   5.21791   5.27514   5.28033
 Alpha virt. eigenvalues --    5.39403   5.47251   5.53666   5.60536   6.72254
 Alpha virt. eigenvalues --    6.75027   6.75801   6.76709   6.79655   6.80775
 Alpha virt. eigenvalues --    6.83768   6.87086   6.92065   6.93104   6.97511
 Alpha virt. eigenvalues --    6.98624   6.99945   7.06512   7.12324   7.25137
 Alpha virt. eigenvalues --    7.25386   7.27934   7.32294   7.41690   7.65514
 Alpha virt. eigenvalues --    9.75979   9.77187   9.85757   9.87697   9.90525
 Alpha virt. eigenvalues --    9.94270   9.98174  10.00889  10.10707  10.17809
 Alpha virt. eigenvalues --   10.25532  10.29175  10.34407  10.42901  10.59017
 Alpha virt. eigenvalues --   12.86244  13.00350  13.20058  13.34482  13.39909
 Alpha virt. eigenvalues --   13.64195  13.78711  13.82804  14.23508  14.25584
 Alpha virt. eigenvalues --   14.31290  14.35758  17.64300  17.81691  18.39890
 Alpha virt. eigenvalues --   50.00419  50.00785  50.01890  50.10214 135.77122
 Alpha virt. eigenvalues --  137.50312 139.75548 163.87986
          Condensed to atoms (all electrons):
               1          2          3          4          5          6
     1  P   12.517102   0.551866   0.260269   0.004452   0.183495   0.035477
     2  O    0.551866   8.100613  -0.037892   0.004489  -0.035468  -0.000860
     3  O    0.260269  -0.037892   8.064215   0.274985   0.012812  -0.012507
     4  H    0.004452   0.004489   0.274985   0.293137   0.004680   0.000783
     5  O    0.183495  -0.035468   0.012812   0.004680   8.105638   0.229583
     6  H    0.035477  -0.000860  -0.012507   0.000783   0.229583   0.451685
     7  O    0.277670  -0.014854   0.012507  -0.003112  -0.005419  -0.010730
     8  H    0.005583  -0.009936  -0.009580   0.000355   0.005147   0.001170
     9  O   -0.002209   0.002942   0.030994   0.003409  -0.000195  -0.000033
    10  H   -0.001642  -0.001044  -0.003737  -0.000131  -0.000019   0.000010
    11  H    0.000733  -0.001970  -0.003646   0.003972   0.000079   0.000022
    12  O    0.000015   0.000007  -0.000002   0.000001  -0.000000   0.000000
    13  H   -0.000002   0.000000   0.000000  -0.000000  -0.000000  -0.000000
    14  H   -0.000022  -0.000017   0.000005  -0.000004   0.000000  -0.000000
    15  O    0.000588   0.012911  -0.000129  -0.001858   0.000295  -0.000079
    16  H    0.000874  -0.000689  -0.001047   0.001260  -0.000403   0.000074
    17  H   -0.000584  -0.002123  -0.000443   0.000227  -0.000025   0.000004
               7          8          9         10         11         12
     1  P    0.277670   0.005583  -0.002209  -0.001642   0.000733   0.000015
     2  O   -0.014854  -0.009936   0.002942  -0.001044  -0.001970   0.000007
     3  O    0.012507  -0.009580   0.030994  -0.003737  -0.003646  -0.000002
     4  H   -0.003112   0.000355   0.003409  -0.000131   0.003972   0.000001
     5  O   -0.005419   0.005147  -0.000195  -0.000019   0.000079  -0.000000
     6  H   -0.010730   0.001170  -0.000033   0.000010   0.000022   0.000000
     7  O    7.995383   0.264975  -0.001958   0.000391  -0.000005   0.000000
     8  H    0.264975   0.413154  -0.001118   0.000223   0.000139   0.000002
     9  O   -0.001958  -0.001118   0.034538  -0.009806  -0.011213  -0.000013
    10  H    0.000391   0.000223  -0.009806   0.005139   0.002200  -0.000001
    11  H   -0.000005   0.000139  -0.011213   0.002200   0.006852   0.000008
    12  O    0.000000   0.000002  -0.000013  -0.000001   0.000008   0.000219
    13  H   -0.000000  -0.000000   0.000001  -0.000000  -0.000002  -0.000038
    14  H   -0.000001  -0.000005   0.000033  -0.000001  -0.000016  -0.000208
    15  O   -0.000895  -0.000421   0.004512  -0.001070  -0.004129  -0.000080
    16  H    0.001226   0.000378  -0.001631   0.000377   0.001585   0.000006
    17  H    0.000150   0.000054  -0.001490   0.000319   0.001116   0.000089
              13         14         15         16         17
     1  P   -0.000002  -0.000022   0.000588   0.000874  -0.000584
     2  O    0.000000  -0.000017   0.012911  -0.000689  -0.002123
     3  O    0.000000   0.000005  -0.000129  -0.001047  -0.000443
     4  H   -0.000000  -0.000004  -0.001858   0.001260   0.000227
     5  O   -0.000000   0.000000   0.000295  -0.000403  -0.000025
     6  H   -0.000000  -0.000000  -0.000079   0.000074   0.000004
     7  O   -0.000000  -0.000001  -0.000895   0.001226   0.000150
     8  H   -0.000000  -0.000005  -0.000421   0.000378   0.000054
     9  O    0.000001   0.000033   0.004512  -0.001631  -0.001490
    10  H   -0.000000  -0.000001  -0.001070   0.000377   0.000319
    11  H   -0.000002  -0.000016  -0.004129   0.001585   0.001116
    12  O   -0.000038  -0.000208  -0.000080   0.000006   0.000089
    13  H    0.000023   0.000017   0.000021  -0.000005  -0.000014
    14  H    0.000017   0.000236   0.000083   0.000003  -0.000118
    15  O    0.000021   0.000083   0.017600  -0.011345  -0.004347
    16  H   -0.000005   0.000003  -0.011345   0.010391   0.001692
    17  H   -0.000014  -0.000118  -0.004347   0.001692   0.002064
 Mulliken charges:
               1
     1  P    1.166337
     2  O   -0.567976
     3  O   -0.586803
     4  H    0.413355
     5  O   -0.500201
     6  H    0.305401
     7  O   -0.515330
     8  H    0.329882
     9  O   -0.046763
    10  H    0.008791
    11  H    0.004274
    12  O   -0.000006
    13  H   -0.000001
    14  H    0.000014
    15  O   -0.011659
    16  H   -0.002746
    17  H    0.003431
 Sum of Mulliken charges =  -0.00000
 Mulliken charges with hydrogens summed into heavy atoms:
               1
     1  P    1.166337
     2  O   -0.567976
     3  O   -0.173449
     5  O   -0.194800
     7  O   -0.185448
     9  O   -0.033699
    12  O    0.000008
    15  O   -0.010974
         Mulliken charges condensed to fragments:
      1      0.044664
      2     -0.033699
      3      0.000008
      4     -0.010974
 Electronic spatial extent (au):  <R**2>=          67993.2898
 Charge=             -0.0000 electrons
 Dipole moment (field-independent basis, Debye):
    X=              1.3708    Y=              0.6943    Z=             -4.1124  Tot=              4.3901
 Quadrupole moment (field-independent basis, Debye-Ang):
   XX=              1.3720   YY=            -19.3955   ZZ=           -127.1203
   XY=             21.1177   XZ=            -33.6248   YZ=            -32.9985
 Traceless Quadrupole moment (field-independent basis, Debye-Ang):
   XX=             49.7533   YY=             28.9858   ZZ=            -78.7391
   XY=             21.1177   XZ=            -33.6248   YZ=            -32.9985
 Octapole moment (field-independent basis, Debye-Ang**2):
  XXX=           -654.5922  YYY=           -688.8185  ZZZ=          -2717.5175  XYY=           -143.6791
  XXY=            109.3814  XXZ=           -564.2065  XZZ=          -1393.9956  YZZ=          -1140.4827
  YYZ=           -620.0733  XYZ=           -252.1377
 Hexadecapole moment (field-independent basis, Debye-Ang**3):
 XXXX=         -23538.0244 YYYY=         -13473.2956 ZZZZ=         -49326.2343 XXXY=          -5046.6898
 XXXZ=         -14123.8803 YYYX=          -7960.1841 YYYZ=         -11699.5986 ZZZX=         -32160.9909
 ZZZY=         -24873.7026 XXYY=          -3533.2713 XXZZ=         -19133.8022 YYZZ=         -14327.4062
 XXYZ=          -4597.9601 YYXZ=          -6466.1201 ZZXY=         -12501.4754
 N-N= 2.800280943677D+02 E-N=-2.087796276943D+03  KE= 6.425093697279D+02
 No NMR shielding tensors so no spin-rotation constants.
 Leave Link  601 at Sun Feb 19 22:58:36 2023, MaxMem=  6710886400 cpu:               2.3 elap:               0.1
 (Enter /data0/home/software/g16/l122.exe)
 CPIOFr:  IOpCl= 0 IRwI=-1 IRwCP=  731 ICalc=  1 LCPTot=      120517 Len1MO=      315166 IndFrg=      750849
 Counterpoise: doing calculation for fragment   2 using the basis set of the full-system, NewBq=T
 Leave Link  122 at Sun Feb 19 22:58:36 2023, MaxMem=  6710886400 cpu:               0.1 elap:               0.0
 (Enter /data0/home/software/g16/l301.exe)
 Basis read from rwf:  (5D, 7F)
 No pseudopotential information found on rwf file.
   278 basis functions,   422 primitive gaussians,   294 cartesian basis functions
     5 alpha electrons        5 beta electrons
       nuclear repulsion energy         9.0459369112 Hartrees.
 IExCor= 4336 DFT=T Ex+Corr=M062X ExCW=0 ScaHFX=  0.540000
 ScaDFX=  1.000000  1.000000  1.000000  1.000000 ScalE2=  1.000000  1.000000
 IRadAn=      5 IRanWt=     -1 IRanGd=            0 ICorTp=0 IEmpDi=131
 NAtoms=   17 NActive=   17 NUniq=   17 SFac= 1.00D+00 NAtFMM=   60 NAOKFM=F Big=F
 Integral buffers will be    131072 words long.
 Raffenetti 2 integral format.
 Two-electron integral symmetry is turned off.
 R6Disp:  Grimme-D3 Dispersion energy=       -0.0000000083 Hartrees.
 Nuclear repulsion after empirical dispersion term =        9.0459369029 Hartrees.
 No density basis found on file   718.
 Leave Link  301 at Sun Feb 19 22:58:36 2023, MaxMem=  6710886400 cpu:               1.3 elap:               0.1
 (Enter /data0/home/software/g16/l302.exe)
 NPDir=0 NMtPBC=     1 NCelOv=     1 NCel=       1 NClECP=     1 NCelD=      1
         NCelK=      1 NCelE2=     1 NClLst=     1 CellRange=     0.0.
 One-electron integrals computed using PRISM.
 NBasis=   278 RedAO= T EigKep=  3.14D-04  NBF=   278
 NBsUse=   278 1.00D-06 EigRej= -1.00D+00 NBFU=   278
 Precomputing XC quadrature grid using
 IXCGrd= 4 IRadAn=           5 IRanWt=          -1 IRanGd=           0 AccXCQ= 0.00D+00.
 Generated NRdTot=       0 NPtTot=           0 NUsed=           0 NTot=          32
 NSgBfM=   292   292   292   292   292 MxSgAt=    17 MxSgA2=    17.
 Leave Link  302 at Sun Feb 19 22:58:36 2023, MaxMem=  6710886400 cpu:               4.4 elap:               0.2
 (Enter /data0/home/software/g16/l303.exe)
 DipDrv:  MaxL=1.
 Leave Link  303 at Sun Feb 19 22:58:36 2023, MaxMem=  6710886400 cpu:               0.7 elap:               0.0
 (Enter /data0/home/software/g16/l401.exe)
 ExpMin= 3.48D-02 ExpMax= 7.75D+04 ExpMxC= 2.65D+03 IAcc=3 IRadAn=         5 AccDes= 0.00D+00
 Harris functional with IExCor= 1009 and IRadAn=       5 diagonalized for initial guess.
 HarFok:  IExCor= 1009 AccDes= 0.00D+00 IRadAn=         5 IDoV= 1 UseB2=F ITyADJ=14
 ICtDFT=  3500011 ScaDFX=  1.000000  1.000000  1.000000  1.000000
 FoFCou: FMM=F IPFlag=           0 FMFlag=      100000 FMFlg1=           0
         NFxFlg=           0 DoJE=T BraDBF=F KetDBF=T FulRan=T
         wScrn=  0.000000 ICntrl=       500 IOpCl=  0 I1Cent=   200000004 NGrid=           0
         NMat0=    1 NMatS0=      1 NMatT0=    0 NMatD0=    1 NMtDS0=    0 NMtDT0=    0
 Symmetry not used in FoFCou.
 Harris En= -76.4170121925968    
 JPrj=0 DoOrth=F DoCkMO=F.
 Leave Link  401 at Sun Feb 19 22:58:37 2023, MaxMem=  6710886400 cpu:              12.4 elap:               0.5
 (Enter /data0/home/software/g16/l502.exe)
 Two-electron integral symmetry not used.
 Closed shell SCF:
 Using DIIS extrapolation, IDIIS=  1040.
 NGot=  6710886400 LenX=  6710704303 LenY=  6710617426
 Requested convergence on RMS density matrix=1.00D-08 within 128 cycles.
 Requested convergence on MAX density matrix=1.00D-06.
 Requested convergence on             energy=1.00D-06.
 No special actions if energy rises.
 Fock matrices will be formed incrementally for  20 cycles.

 Cycle   1  Pass 1  IDiag  1:
 FoFJK:  IHMeth= 1 ICntrl=       0 DoSepK=F KAlg= 0 I1Cent=           0 FoldK=F
 IRaf= 850000000 NMat=       1 IRICut=       1 DoRegI=T DoRafI=F ISym2E= 0 IDoP0=0 IntGTp=1.
 FoFCou: FMM=F IPFlag=           0 FMFlag=      100000 FMFlg1=           0
         NFxFlg=           0 DoJE=F BraDBF=F KetDBF=F FulRan=T
         wScrn=  0.000000 ICntrl=         0 IOpCl=  0 I1Cent=           0 NGrid=           0
         NMat0=    1 NMatS0=      1 NMatT0=    0 NMatD0=    1 NMtDS0=    0 NMtDT0=    0
 Symmetry not used in FoFCou.
 E= -76.3483075297807    
 DIIS: error= 2.46D-02 at cycle   1 NSaved=   1.
 NSaved= 1 IEnMin= 1 EnMin= -76.3483075297807     IErMin= 1 ErrMin= 2.46D-02
 ErrMax= 2.46D-02  0.00D+00 EMaxC= 1.00D-01 BMatC= 1.19D-01 BMatP= 1.19D-01
 IDIUse=3 WtCom= 7.54D-01 WtEn= 2.46D-01
 Coeff-Com:  0.100D+01
 Coeff-En:   0.100D+01
 Coeff:      0.100D+01
 Gap=     0.273 Goal=   None    Shift=    0.000
 GapD=    0.273 DampG=1.000 DampE=0.500 DampFc=0.5000 IDamp=-1.
 Damping current iteration by 5.00D-01
 RMSDP=2.74D-03 MaxDP=1.88D-01              OVMax= 1.72D-01

 Cycle   2  Pass 1  IDiag  1:
 RMSU=  1.37D-03    CP:  1.02D+00
 E= -76.3788496206960     Delta-E=       -0.030542090915 Rises=F Damp=T
 DIIS: error= 5.60D-03 at cycle   2 NSaved=   2.
 NSaved= 2 IEnMin= 2 EnMin= -76.3788496206960     IErMin= 2 ErrMin= 5.60D-03
 ErrMax= 5.60D-03  0.00D+00 EMaxC= 1.00D-01 BMatC= 5.08D-03 BMatP= 1.19D-01
 IDIUse=3 WtCom= 9.44D-01 WtEn= 5.60D-02
 Coeff-Com:  0.893D-01 0.911D+00
 Coeff-En:   0.200D+00 0.800D+00
 Coeff:      0.955D-01 0.905D+00
 Gap=     0.398 Goal=   None    Shift=    0.000
 RMSDP=4.11D-04 MaxDP=3.27D-02 DE=-3.05D-02 OVMax= 1.04D-01

 Cycle   3  Pass 1  IDiag  1:
 RMSU=  2.57D-04    CP:  1.02D+00  7.66D-01
 E= -76.4228765811545     Delta-E=       -0.044026960459 Rises=F Damp=F
 DIIS: error= 8.34D-04 at cycle   3 NSaved=   3.
 NSaved= 3 IEnMin= 3 EnMin= -76.4228765811545     IErMin= 3 ErrMin= 8.34D-04
 ErrMax= 8.34D-04  0.00D+00 EMaxC= 1.00D-01 BMatC= 1.50D-04 BMatP= 5.08D-03
 IDIUse=3 WtCom= 9.92D-01 WtEn= 8.34D-03
 Coeff-Com: -0.274D-01 0.511D-01 0.976D+00
 Coeff-En:   0.000D+00 0.000D+00 0.100D+01
 Coeff:     -0.272D-01 0.506D-01 0.977D+00
 Gap=     0.400 Goal=   None    Shift=    0.000
 RMSDP=3.29D-05 MaxDP=1.31D-03 DE=-4.40D-02 OVMax= 3.90D-03

 Cycle   4  Pass 1  IDiag  1:
 RMSU=  2.77D-05    CP:  1.02D+00  7.63D-01  1.05D+00
 E= -76.4229964476899     Delta-E=       -0.000119866535 Rises=F Damp=F
 DIIS: error= 1.19D-04 at cycle   4 NSaved=   4.
 NSaved= 4 IEnMin= 4 EnMin= -76.4229964476899     IErMin= 4 ErrMin= 1.19D-04
 ErrMax= 1.19D-04  0.00D+00 EMaxC= 1.00D-01 BMatC= 2.73D-06 BMatP= 1.50D-04
 IDIUse=3 WtCom= 9.99D-01 WtEn= 1.19D-03
 Coeff-Com: -0.309D-02 0.493D-03 0.148D+00 0.855D+00
 Coeff-En:   0.000D+00 0.000D+00 0.000D+00 0.100D+01
 Coeff:     -0.309D-02 0.493D-03 0.148D+00 0.855D+00
 Gap=     0.401 Goal=   None    Shift=    0.000
 RMSDP=7.92D-06 MaxDP=5.71D-04 DE=-1.20D-04 OVMax= 5.23D-04

 Cycle   5  Pass 1  IDiag  1:
 RMSU=  3.86D-06    CP:  1.02D+00  7.59D-01  1.06D+00  1.08D+00
 E= -76.4229982057145     Delta-E=       -0.000001758025 Rises=F Damp=F
 DIIS: error= 2.38D-05 at cycle   5 NSaved=   5.
 NSaved= 5 IEnMin= 5 EnMin= -76.4229982057145     IErMin= 5 ErrMin= 2.38D-05
 ErrMax= 2.38D-05  0.00D+00 EMaxC= 1.00D-01 BMatC= 7.54D-08 BMatP= 2.73D-06
 IDIUse=1 WtCom= 1.00D+00 WtEn= 0.00D+00
 Coeff-Com:  0.144D-02-0.224D-02-0.368D-01-0.530D-01 0.109D+01
 Coeff:      0.144D-02-0.224D-02-0.368D-01-0.530D-01 0.109D+01
 Gap=     0.401 Goal=   None    Shift=    0.000
 RMSDP=6.71D-06 MaxDP=5.28D-04 DE=-1.76D-06 OVMax= 2.18D-04

 Cycle   6  Pass 1  IDiag  1:
 RMSU=  1.04D-06    CP:  1.02D+00  7.54D-01  1.06D+00  1.17D+00  1.34D+00
 E= -76.4229983428480     Delta-E=       -0.000000137134 Rises=F Damp=F
 DIIS: error= 3.41D-06 at cycle   6 NSaved=   6.
 NSaved= 6 IEnMin= 6 EnMin= -76.4229983428480     IErMin= 6 ErrMin= 3.41D-06
 ErrMax= 3.41D-06  0.00D+00 EMaxC= 1.00D-01 BMatC= 1.86D-09 BMatP= 7.54D-08
 IDIUse=1 WtCom= 1.00D+00 WtEn= 0.00D+00
 Coeff-Com: -0.275D-03 0.394D-03 0.371D-02-0.651D-02-0.160D+00 0.116D+01
 Coeff:     -0.275D-03 0.394D-03 0.371D-02-0.651D-02-0.160D+00 0.116D+01
 Gap=     0.401 Goal=   None    Shift=    0.000
 RMSDP=9.03D-07 MaxDP=7.25D-05 DE=-1.37D-07 OVMax= 4.00D-05

 Cycle   7  Pass 1  IDiag  1:
 RMSU=  1.26D-07    CP:  1.02D+00  7.54D-01  1.06D+00  1.18D+00  1.41D+00
                    CP:  1.22D+00
 E= -76.4229983466240     Delta-E=       -0.000000003776 Rises=F Damp=F
 DIIS: error= 3.41D-07 at cycle   7 NSaved=   7.
 NSaved= 7 IEnMin= 7 EnMin= -76.4229983466240     IErMin= 7 ErrMin= 3.41D-07
 ErrMax= 3.41D-07  0.00D+00 EMaxC= 1.00D-01 BMatC= 2.23D-11 BMatP= 1.86D-09
 IDIUse=1 WtCom= 1.00D+00 WtEn= 0.00D+00
 Coeff-Com:  0.296D-04-0.240D-04-0.309D-03 0.205D-02 0.309D-02-0.148D+00
 Coeff-Com:  0.114D+01
 Coeff:      0.296D-04-0.240D-04-0.309D-03 0.205D-02 0.309D-02-0.148D+00
 Coeff:      0.114D+01
 Gap=     0.401 Goal=   None    Shift=    0.000
 RMSDP=1.22D-07 MaxDP=1.04D-05 DE=-3.78D-09 OVMax= 5.27D-06

 Cycle   8  Pass 1  IDiag  1:
 RMSU=  1.65D-08    CP:  1.02D+00  7.54D-01  1.06D+00  1.18D+00  1.42D+00
                    CP:  1.24D+00  1.18D+00
 E= -76.4229983466776     Delta-E=       -0.000000000054 Rises=F Damp=F
 DIIS: error= 7.03D-08 at cycle   8 NSaved=   8.
 NSaved= 8 IEnMin= 8 EnMin= -76.4229983466776     IErMin= 8 ErrMin= 7.03D-08
 ErrMax= 7.03D-08  0.00D+00 EMaxC= 1.00D-01 BMatC= 7.34D-13 BMatP= 2.23D-11
 IDIUse=1 WtCom= 1.00D+00 WtEn= 0.00D+00
 Coeff-Com:  0.785D-05-0.110D-04-0.703D-04 0.362D-03 0.327D-02-0.330D-01
 Coeff-Com:  0.759D-01 0.954D+00
 Coeff:      0.785D-05-0.110D-04-0.703D-04 0.362D-03 0.327D-02-0.330D-01
 Coeff:      0.759D-01 0.954D+00
 Gap=     0.401 Goal=   None    Shift=    0.000
 RMSDP=4.59D-09 MaxDP=2.05D-07 DE=-5.36D-11 OVMax= 4.87D-07

 SCF Done:  E(RM062X) =  -76.4229983467     A.U. after    8 cycles
            NFock=  8  Conv=0.46D-08     -V/T= 2.0034
 KE= 7.616298846328D+01 PE=-1.989242172955D+02 EE= 3.729229358268D+01
 Leave Link  502 at Sun Feb 19 22:58:46 2023, MaxMem=  6710886400 cpu:             221.8 elap:               9.3
 (Enter /data0/home/software/g16/l601.exe)
 Copying SCF densities to generalized density rwf, IOpCl= 0 IROHF=0.

 **********************************************************************

            Population analysis using the SCF density.

 **********************************************************************

 Alpha  occ. eigenvalues --  -19.62768  -1.13034  -0.60550  -0.47419  -0.39971
 Alpha virt. eigenvalues --    0.00128   0.03727   0.04576   0.05227   0.08004
 Alpha virt. eigenvalues --    0.09318   0.10281   0.12844   0.13596   0.14707
 Alpha virt. eigenvalues --    0.15540   0.16079   0.17588   0.18003   0.18522
 Alpha virt. eigenvalues --    0.19093   0.19790   0.20342   0.20806   0.22011
 Alpha virt. eigenvalues --    0.22565   0.23069   0.24522   0.25490   0.26826
 Alpha virt. eigenvalues --    0.27822   0.28830   0.29536   0.29616   0.30606
 Alpha virt. eigenvalues --    0.32245   0.32636   0.34469   0.35976   0.36894
 Alpha virt. eigenvalues --    0.37166   0.38143   0.39724   0.40805   0.41012
 Alpha virt. eigenvalues --    0.41327   0.43640   0.47763   0.48847   0.51678
 Alpha virt. eigenvalues --    0.54761   0.57261   0.61342   0.67350   0.70188
 Alpha virt. eigenvalues --    0.70646   0.71899   0.72650   0.74631   0.75142
 Alpha virt. eigenvalues --    0.75742   0.76363   0.79220   0.80007   0.80884
 Alpha virt. eigenvalues --    0.80961   0.82811   0.83517   0.84820   0.86913
 Alpha virt. eigenvalues --    0.88466   0.90033   0.92333   0.97216   0.98890
 Alpha virt. eigenvalues --    1.01238   1.01711   1.02741   1.05790   1.07556
 Alpha virt. eigenvalues --    1.09576   1.10760   1.11774   1.12710   1.14246
 Alpha virt. eigenvalues --    1.15352   1.16195   1.18550   1.22929   1.26182
 Alpha virt. eigenvalues --    1.26933   1.28528   1.29929   1.32261   1.45969
 Alpha virt. eigenvalues --    1.47005   1.47436   1.52595   1.67521   1.70651
 Alpha virt. eigenvalues --    1.75169   1.78680   1.80262   1.83100   1.84937
 Alpha virt. eigenvalues --    1.88081   1.89085   1.89485   1.94408   1.96154
 Alpha virt. eigenvalues --    1.98486   2.01641   2.05743   2.09701   2.11347
 Alpha virt. eigenvalues --    2.15860   2.19920   2.21594   2.21803   2.23970
 Alpha virt. eigenvalues --    2.28533   2.28834   2.30360   2.32071   2.35612
 Alpha virt. eigenvalues --    2.38048   2.40597   2.42719   2.46311   2.47524
 Alpha virt. eigenvalues --    2.50767   2.51718   2.52372   2.52994   2.55115
 Alpha virt. eigenvalues --    2.56741   2.57276   2.58726   2.59692   2.61427
 Alpha virt. eigenvalues --    2.64177   2.64727   2.66227   2.67066   2.68553
 Alpha virt. eigenvalues --    2.69811   2.70222   2.73117   2.73180   2.75157
 Alpha virt. eigenvalues --    2.75766   2.76565   2.77919   2.79914   2.83219
 Alpha virt. eigenvalues --    2.85095   2.86706   2.88412   2.90212   2.94174
 Alpha virt. eigenvalues --    2.94754   2.96231   2.99197   3.00413   3.00834
 Alpha virt. eigenvalues --    3.03944   3.05930   3.07097   3.08616   3.09508
 Alpha virt. eigenvalues --    3.13994   3.15827   3.18932   3.19400   3.23873
 Alpha virt. eigenvalues --    3.26858   3.33082   3.34808   3.45092   3.48880
 Alpha virt. eigenvalues --    3.53314   3.58760   3.65923   3.71095   3.74440
 Alpha virt. eigenvalues --    3.79545   3.83068   4.44344   4.46517   4.48475
 Alpha virt. eigenvalues --    4.52766   4.55816   4.63875   4.65484   4.76669
 Alpha virt. eigenvalues --    4.90308   4.92909   4.96638   5.07325   5.18161
 Alpha virt. eigenvalues --    5.26562   5.54564   5.93492   6.82691   6.83315
 Alpha virt. eigenvalues --    6.91950   7.06004   7.13560   9.75273   9.83297
 Alpha virt. eigenvalues --    9.83605   9.85624   9.86491   9.93158   9.93897
 Alpha virt. eigenvalues --    9.95991   9.99789  10.01834  10.11815  10.14524
 Alpha virt. eigenvalues --   10.16597  10.22754  10.24506  10.24531  10.26992
 Alpha virt. eigenvalues --   10.28201  10.31271  10.33375  10.33617  10.37576
 Alpha virt. eigenvalues --   10.40154  10.41341  10.41951  10.44860  10.49231
 Alpha virt. eigenvalues --   10.57525  10.58036  10.63265  10.70363  10.77796
 Alpha virt. eigenvalues --   10.85770  12.82338  12.94103  12.94610  13.19046
 Alpha virt. eigenvalues --   13.26288  13.27439  13.28276  13.39071  13.41587
 Alpha virt. eigenvalues --   13.44897  13.47705  13.58610  13.64067  13.73507
 Alpha virt. eigenvalues --   13.77917  13.88585  13.95026  14.10538  14.30522
 Alpha virt. eigenvalues --   17.69792  17.71836  18.16084  18.39262  18.48687
 Alpha virt. eigenvalues --   18.53403  50.02205  52.45780  52.52384  52.60842
 Alpha virt. eigenvalues --   70.09782 135.43033 136.08896 138.67617 139.66676
 Alpha virt. eigenvalues --  139.74666 139.75903 481.68363
          Condensed to atoms (all electrons):
               1          2          3          4          5          6
     1  P    0.020920  -0.003407  -0.009528   0.010792  -0.009851   0.000051
     2  O   -0.003407   0.004183   0.000215  -0.001675  -0.001352  -0.000011
     3  O   -0.009528   0.000215   0.058821  -0.073886   0.001825   0.000352
     4  H    0.010792  -0.001675  -0.073886   0.109842   0.001007  -0.000233
     5  O   -0.009851  -0.001352   0.001825   0.001007   0.012232  -0.000171
     6  H    0.000051  -0.000011   0.000352  -0.000233  -0.000171   0.000060
     7  O   -0.002205   0.000973  -0.006954   0.004896  -0.002862  -0.000093
     8  H   -0.000069  -0.000008   0.000469  -0.000441  -0.000124   0.000007
     9  O   -0.006449   0.002360   0.092370  -0.170101   0.000095   0.000086
    10  H    0.001097   0.000045  -0.005573   0.011025   0.000054  -0.000003
    11  H    0.001524   0.000025  -0.011910   0.025150   0.000132  -0.000007
    12  O   -0.000009   0.000006  -0.000000   0.000000  -0.000000  -0.000000
    13  H   -0.000001   0.000000   0.000000  -0.000000  -0.000000   0.000000
    14  H    0.000022  -0.000014   0.000001  -0.000000   0.000000   0.000000
    15  O   -0.002961   0.001852   0.003484  -0.006133  -0.000167   0.000002
    16  H    0.002326  -0.001971  -0.001449   0.002438   0.000275  -0.000002
    17  H    0.000085   0.000059  -0.000554   0.000950  -0.000008  -0.000000
               7          8          9         10         11         12
     1  P   -0.002205  -0.000069  -0.006449   0.001097   0.001524  -0.000009
     2  O    0.000973  -0.000008   0.002360   0.000045   0.000025   0.000006
     3  O   -0.006954   0.000469   0.092370  -0.005573  -0.011910  -0.000000
     4  H    0.004896  -0.000441  -0.170101   0.011025   0.025150   0.000000
     5  O   -0.002862  -0.000124   0.000095   0.000054   0.000132  -0.000000
     6  H   -0.000093   0.000007   0.000086  -0.000003  -0.000007  -0.000000
     7  O    0.007000  -0.000175  -0.006390   0.000486   0.000493   0.000002
     8  H   -0.000175   0.000119   0.000638  -0.000126  -0.000072   0.000000
     9  O   -0.006390   0.000638   8.048065   0.329662   0.306677   0.000063
    10  H    0.000486  -0.000126   0.329662   0.416855  -0.024424   0.000009
    11  H    0.000493  -0.000072   0.306677  -0.024424   0.372946  -0.000004
    12  O    0.000002   0.000000   0.000063   0.000009  -0.000004   0.000102
    13  H    0.000000   0.000000   0.000008  -0.000000  -0.000003   0.000011
    14  H   -0.000004  -0.000000  -0.000154  -0.000027   0.000017  -0.000134
    15  O   -0.000244   0.000047   0.038917  -0.003197   0.000537   0.000016
    16  H   -0.000046  -0.000025  -0.012039   0.000728  -0.000013  -0.000012
    17  H    0.000124  -0.000012  -0.006727   0.001384   0.001326   0.000029
              13         14         15         16         17
     1  P   -0.000001   0.000022  -0.002961   0.002326   0.000085
     2  O    0.000000  -0.000014   0.001852  -0.001971   0.000059
     3  O    0.000000   0.000001   0.003484  -0.001449  -0.000554
     4  H   -0.000000  -0.000000  -0.006133   0.002438   0.000950
     5  O   -0.000000   0.000000  -0.000167   0.000275  -0.000008
     6  H    0.000000   0.000000   0.000002  -0.000002  -0.000000
     7  O    0.000000  -0.000004  -0.000244  -0.000046   0.000124
     8  H    0.000000  -0.000000   0.000047  -0.000025  -0.000012
     9  O    0.000008  -0.000154   0.038917  -0.012039  -0.006727
    10  H   -0.000000  -0.000027  -0.003197   0.000728   0.001384
    11  H   -0.000003   0.000017   0.000537  -0.000013   0.001326
    12  O    0.000011  -0.000134   0.000016  -0.000012   0.000029
    13  H    0.000005  -0.000019   0.000003  -0.000001   0.000002
    14  H   -0.000019   0.000195  -0.000031   0.000027  -0.000066
    15  O    0.000003  -0.000031   0.015234  -0.006585  -0.003821
    16  H   -0.000001   0.000027  -0.006585   0.004079   0.001082
    17  H    0.000002  -0.000066  -0.003821   0.001082   0.001743
 Mulliken charges:
               1
     1  P   -0.002336
     2  O   -0.001280
     3  O   -0.047681
     4  H    0.086371
     5  O   -0.001085
     6  H   -0.000037
     7  O    0.004999
     8  H   -0.000227
     9  O   -0.617078
    10  H    0.272005
    11  H    0.327607
    12  O   -0.000077
    13  H   -0.000006
    14  H    0.000187
    15  O   -0.036953
    16  H    0.011188
    17  H    0.004403
 Sum of Mulliken charges =  -0.00000
[...]

            Population analysis using the SCF density.

 **********************************************************************

 Alpha  occ. eigenvalues --  -19.62587  -1.13222  -0.60839  -0.47308  -0.39947
 Alpha virt. eigenvalues --    0.06223   0.13289   0.17391   0.17954   0.18962
 Alpha virt. eigenvalues --    0.23221   0.50490   0.53824   0.97767   1.00370
 Alpha virt. eigenvalues --    1.06039   1.19158   1.19682   1.32686   1.33950
 Alpha virt. eigenvalues --    1.68912   1.73748   1.75964   2.06651   2.09958
 Alpha virt. eigenvalues --    2.34579   2.43032   2.54064   2.87951   3.01217
 Alpha virt. eigenvalues --    5.05695   5.46689   5.92691   6.78159   6.80396
 Alpha virt. eigenvalues --    6.86886   6.91456   7.09792  49.95810
          Condensed to atoms (all electrons):
              12         13         14
    12  O    7.917439   0.324570   0.318072
    13  H    0.324570   0.422826  -0.024507
    14  H    0.318072  -0.024507   0.423464
 Mulliken charges:
               1
     1  P    0.000000
     2  O    0.000000
     3  O    0.000000
     4  H    0.000000
     5  O    0.000000
     6  H    0.000000
     7  O    0.000000
     8  H    0.000000
     9  O    0.000000
    10  H    0.000000
    11  H    0.000000
    12  O   -0.560081
    13  H    0.277111
    14  H    0.282971
    15  O    0.000000
    16  H    0.000000
    17  H    0.000000
 Sum of Mulliken charges =  -0.00000
 Mulliken charges with hydrogens summed into heavy atoms:
               1
     1  P    0.000000
     2  O    0.000000
     3  O    0.000000
     5  O    0.000000
     7  O    0.000000
     9  O    0.000000
    12  O   -0.000000
    15  O    0.000000
         Mulliken charges condensed to fragments:
      1      0.000000
      2      0.000000
      3     -0.000000
      4      0.000000
 Electronic spatial extent (au):  <R**2>=          11048.1675
 Charge=              0.0000 electrons
 Dipole moment (field-independent basis, Debye):
    X=              1.8480    Y=              0.9281    Z=              0.3871  Tot=              2.1039
 Quadrupole moment (field-independent basis, Debye-Ang):
   XX=             21.7200   YY=             18.9666   ZZ=             -0.3667
   XY=             29.8395   XZ=             20.2148   YZ=             14.2260
 Traceless Quadrupole moment (field-independent basis, Debye-Ang):
   XX=              8.2800   YY=              5.5266   ZZ=            -13.8066
   XY=             29.8395   XZ=             20.2148   YZ=             14.2260
 Octapole moment (field-independent basis, Debye-Ang**2):
  XXX=            179.2506  YYY=            272.3589  ZZZ=           -112.3608  XYY=            425.8207
  XXY=            317.6967  XXZ=            225.1676  XZZ=            159.9819  YZZ=             87.1338
  YYZ=            256.2008  XYZ=            320.9950
 Hexadecapole moment (field-independent basis, Debye-Ang**3):
 XXXX=           1158.2606 YYYY=           3079.6833 ZZZZ=          -2751.5899 XXXY=           2534.8571
 XXXZ=           1840.8625 YYYX=           5562.3527 YYYZ=           3660.2319 ZZZX=            692.2708
 ZZZY=           -535.3962 XXYY=           4312.2674 XXZZ=           1889.8855 YYZZ=           1874.0227
 XXYZ=           3286.0534 YYXZ=           4577.4925 ZZXY=           2668.1351
 N-N= 9.086284491817D+00 E-N=-1.990225343781D+02  KE= 7.618903544070D+01
 No NMR shielding tensors so no spin-rotation constants.
 Leave Link  601 at Sun Feb 19 22:59:15 2023, MaxMem=  6710886400 cpu:               1.8 elap:               0.1
 (Enter /data0/home/software/g16/l122.exe)
 CPIOFr:  IOpCl= 0 IRwI=-1 IRwCP=  731 ICalc=  7 LCPTot=      120517 Len1MO=      315166 IndFrg=     2641845
 Counterpoise: doing calculation for fragment   4 using the basis set of the fragment.
 Leave Link  122 at Sun Feb 19 22:59:15 2023, MaxMem=  6710886400 cpu:               0.1 elap:               0.0
 (Enter /data0/home/software/g16/l301.exe)
 Basis read from rwf:  (5D, 7F)
 No pseudopotential information found on rwf file.
    39 basis functions,    58 primitive gaussians,    41 cartesian basis functions
     5 alpha electrons        5 beta electrons
       nuclear repulsion energy         9.0898723578 Hartrees.
 IExCor= 4336 DFT=T Ex+Corr=M062X ExCW=0 ScaHFX=  0.540000
 ScaDFX=  1.000000  1.000000  1.000000  1.000000 ScalE2=  1.000000  1.000000
 IRadAn=      5 IRanWt=     -1 IRanGd=            0 ICorTp=0 IEmpDi=131
 NAtoms=   17 NActive=    3 NUniq=    3 SFac= 1.00D+00 NAtFMM=   60 NAOKFM=F Big=F
 Integral buffers will be    131072 words long.
 Raffenetti 2 integral format.
 Two-electron integral symmetry is turned off.
 R6Disp:  Grimme-D3 Dispersion energy=       -0.0000000074 Hartrees.
 Nuclear repulsion after empirical dispersion term =        9.0898723504 Hartrees.
 No density basis found on file   718.
 Leave Link  301 at Sun Feb 19 22:59:15 2023, MaxMem=  6710886400 cpu:               1.2 elap:               0.1
 (Enter /data0/home/software/g16/l302.exe)
 NPDir=0 NMtPBC=     1 NCelOv=     1 NCel=       1 NClECP=     1 NCelD=      1
         NCelK=      1 NCelE2=     1 NClLst=     1 CellRange=     0.0.
 One-electron integrals computed using PRISM.
 NBasis=    39 RedAO= T EigKep=  3.01D-03  NBF=    39
 NBsUse=    39 1.00D-06 EigRej= -1.00D+00 NBFU=    39
 Precomputing XC quadrature grid using
 IXCGrd= 4 IRadAn=           5 IRanWt=          -1 IRanGd=           0 AccXCQ= 0.00D+00.
 Generated NRdTot=       0 NPtTot=           0 NUsed=           0 NTot=          32
 NSgBfM=    41    41    41    41    41 MxSgAt=     3 MxSgA2=     3.
 Leave Link  302 at Sun Feb 19 22:59:15 2023, MaxMem=  6710886400 cpu:               2.3 elap:               0.1
 (Enter /data0/home/software/g16/l303.exe)
 DipDrv:  MaxL=1.
 Leave Link  303 at Sun Feb 19 22:59:15 2023, MaxMem=  6710886400 cpu:               0.4 elap:               0.0
 (Enter /data0/home/software/g16/l401.exe)
 ExpMin= 8.45D-02 ExpMax= 8.59D+03 ExpMxC= 1.30D+03 IAcc=3 IRadAn=         5 AccDes= 0.00D+00
 Harris functional with IExCor= 1009 and IRadAn=       5 diagonalized for initial guess.
 HarFok:  IExCor= 1009 AccDes= 0.00D+00 IRadAn=         5 IDoV= 1 UseB2=F ITyADJ=14
 ICtDFT=  3500011 ScaDFX=  1.000000  1.000000  1.000000  1.000000
 FoFCou: FMM=F IPFlag=           0 FMFlag=      100000 FMFlg1=           0
         NFxFlg=           0 DoJE=T BraDBF=F KetDBF=T FulRan=T
         wScrn=  0.000000 ICntrl=       500 IOpCl=  0 I1Cent=   200000004 NGrid=           0
         NMat0=    1 NMatS0=      1 NMatT0=    0 NMatD0=    1 NMtDS0=    0 NMtDT0=    0
 Symmetry not used in FoFCou.
 Harris En= -76.4162525822385    
 JPrj=0 DoOrth=F DoCkMO=F.
 Leave Link  401 at Sun Feb 19 22:59:15 2023, MaxMem=  6710886400 cpu:               2.7 elap:               0.1
 (Enter /data0/home/software/g16/l502.exe)
 Keep R1 ints in memory in canonical form, NReq=21038482.
 FoFCou: FMM=F IPFlag=           0 FMFlag=           0 FMFlg1=           0
         NFxFlg=           0 DoJE=F BraDBF=F KetDBF=F FulRan=T
         wScrn=  0.000000 ICntrl=       600 IOpCl=  0 I1Cent=           0 NGrid=           0
         NMat0=    1 NMatS0=    780 NMatT0=    0 NMatD0=    1 NMtDS0=    0 NMtDT0=    0
 Symmetry not used in FoFCou.
 Two-electron integral symmetry not used.
 Closed shell SCF:
 Using DIIS extrapolation, IDIIS=  1040.
 NGot=  6710886400 LenX=  6710576560 LenY=  6710574438
 Requested convergence on RMS density matrix=1.00D-08 within 128 cycles.
 Requested convergence on MAX density matrix=1.00D-06.
 Requested convergence on             energy=1.00D-06.
 No special actions if energy rises.
 Integral accuracy reduced to 1.0D-05 until final iterations.

 Cycle   1  Pass 0  IDiag  1:
 E= -76.3466045586819    
 DIIS: error= 6.99D-02 at cycle   1 NSaved=   1.
 NSaved= 1 IEnMin= 1 EnMin= -76.3466045586819     IErMin= 1 ErrMin= 6.99D-02
 ErrMax= 6.99D-02  0.00D+00 EMaxC= 1.00D-01 BMatC= 1.20D-01 BMatP= 1.20D-01
 IDIUse=3 WtCom= 3.01D-01 WtEn= 6.99D-01
 Coeff-Com:  0.100D+01
 Coeff-En:   0.100D+01
 Coeff:      0.100D+01
 Gap=     0.325 Goal=   None    Shift=    0.000
 GapD=    0.325 DampG=1.000 DampE=0.500 DampFc=0.5000 IDamp=-1.
 Damping current iteration by 5.00D-01
 RMSDP=7.96D-03 MaxDP=1.01D-01              OVMax= 1.68D-01

 Cycle   2  Pass 0  IDiag  1:
 E= -76.3778512567933     Delta-E=       -0.031246698111 Rises=F Damp=T
 DIIS: error= 1.13D-02 at cycle   2 NSaved=   2.
 NSaved= 2 IEnMin= 2 EnMin= -76.3778512567933     IErMin= 2 ErrMin= 1.13D-02
 ErrMax= 1.13D-02  0.00D+00 EMaxC= 1.00D-01 BMatC= 4.85D-03 BMatP= 1.20D-01
 IDIUse=3 WtCom= 8.87D-01 WtEn= 1.13D-01
 Coeff-Com:  0.832D-01 0.917D+00
 Coeff-En:   0.189D+00 0.811D+00
 Coeff:      0.951D-01 0.905D+00
 Gap=     0.457 Goal=   None    Shift=    0.000
 RMSDP=9.49D-04 MaxDP=1.41D-02 DE=-3.12D-02 OVMax= 1.00D-01

 Cycle   3  Pass 0  IDiag  1:
 E= -76.4216392707153     Delta-E=       -0.043788013922 Rises=F Damp=F
 DIIS: error= 2.16D-03 at cycle   3 NSaved=   3.
 NSaved= 3 IEnMin= 3 EnMin= -76.4216392707153     IErMin= 3 ErrMin= 2.16D-03
 ErrMax= 2.16D-03  0.00D+00 EMaxC= 1.00D-01 BMatC= 9.07D-05 BMatP= 4.85D-03
 IDIUse=3 WtCom= 9.78D-01 WtEn= 2.16D-02
 Coeff-Com: -0.199D-01 0.394D-01 0.981D+00
 Coeff-En:   0.000D+00 0.000D+00 0.100D+01
 Coeff:     -0.195D-01 0.385D-01 0.981D+00
 Gap=     0.461 Goal=   None    Shift=    0.000
 RMSDP=1.14D-04 MaxDP=9.48D-04 DE=-4.38D-02 OVMax= 3.32D-03

 Cycle   4  Pass 0  IDiag  1:
 E= -76.4217167203444     Delta-E=       -0.000077449629 Rises=F Damp=F
 DIIS: error= 4.14D-04 at cycle   4 NSaved=   4.
 NSaved= 4 IEnMin= 4 EnMin= -76.4217167203444     IErMin= 4 ErrMin= 4.14D-04
 ErrMax= 4.14D-04  0.00D+00 EMaxC= 1.00D-01 BMatC= 3.28D-06 BMatP= 9.07D-05
 IDIUse=3 WtCom= 9.96D-01 WtEn= 4.14D-03
 Coeff-Com: -0.189D-02-0.225D-02 0.162D+00 0.842D+00
 Coeff-En:   0.000D+00 0.000D+00 0.000D+00 0.100D+01
 Coeff:     -0.188D-02-0.225D-02 0.161D+00 0.843D+00
 Gap=     0.462 Goal=   None    Shift=    0.000
 RMSDP=2.22D-05 MaxDP=3.55D-04 DE=-7.74D-05 OVMax= 5.38D-04

 Cycle   5  Pass 0  IDiag  1:
 E= -76.4217187494658     Delta-E=       -0.000002029121 Rises=F Damp=F
 DIIS: error= 8.89D-05 at cycle   5 NSaved=   5.
 NSaved= 5 IEnMin= 5 EnMin= -76.4217187494658     IErMin= 5 ErrMin= 8.89D-05
 ErrMax= 8.89D-05  0.00D+00 EMaxC= 1.00D-01 BMatC= 8.25D-08 BMatP= 3.28D-06
 IDIUse=1 WtCom= 1.00D+00 WtEn= 0.00D+00
 Coeff-Com:  0.118D-02-0.180D-02-0.368D-01-0.640D-01 0.110D+01
 Coeff:      0.118D-02-0.180D-02-0.368D-01-0.640D-01 0.110D+01
 Gap=     0.462 Goal=   None    Shift=    0.000
 RMSDP=8.99D-06 MaxDP=1.02D-04 DE=-2.03D-06 OVMax= 2.03D-04

 Initial convergence to 1.0D-05 achieved.  Increase integral accuracy.
 Cycle   6  Pass 1  IDiag  1:
 E= -76.4217075773934     Delta-E=        0.000011172072 Rises=F Damp=F
 DIIS: error= 3.51D-05 at cycle   1 NSaved=   1.
 NSaved= 1 IEnMin= 1 EnMin= -76.4217075773934     IErMin= 1 ErrMin= 3.51D-05
 ErrMax= 3.51D-05  0.00D+00 EMaxC= 1.00D-01 BMatC= 1.98D-08 BMatP= 1.98D-08
 IDIUse=1 WtCom= 1.00D+00 WtEn= 0.00D+00
 Coeff-Com:  0.100D+01
 Coeff:      0.100D+01
 Gap=     0.462 Goal=   None    Shift=    0.000
 RMSDP=8.99D-06 MaxDP=1.02D-04 DE= 1.12D-05 OVMax= 5.29D-05

 Cycle   7  Pass 1  IDiag  1:
 E= -76.4217075942133     Delta-E=       -0.000000016820 Rises=F Damp=F
 DIIS: error= 1.00D-05 at cycle   2 NSaved=   2.
 NSaved= 2 IEnMin= 2 EnMin= -76.4217075942133     IErMin= 2 ErrMin= 1.00D-05
 ErrMax= 1.00D-05  0.00D+00 EMaxC= 1.00D-01 BMatC= 1.60D-09 BMatP= 1.98D-08
 IDIUse=1 WtCom= 1.00D+00 WtEn= 0.00D+00
 Coeff-Com:  0.384D-01 0.962D+00
 Coeff:      0.384D-01 0.962D+00
 Gap=     0.462 Goal=   None    Shift=    0.000
 RMSDP=8.98D-07 MaxDP=1.54D-05 DE=-1.68D-08 OVMax= 2.34D-05

 Cycle   8  Pass 1  IDiag  1:
 E= -76.4217075944802     Delta-E=       -0.000000000267 Rises=F Damp=F
 DIIS: error= 8.09D-06 at cycle   3 NSaved=   3.
 NSaved= 3 IEnMin= 3 EnMin= -76.4217075944802     IErMin= 3 ErrMin= 8.09D-06
 ErrMax= 8.09D-06  0.00D+00 EMaxC= 1.00D-01 BMatC= 1.65D-09 BMatP= 1.60D-09
 IDIUse=1 WtCom= 1.00D+00 WtEn= 0.00D+00
 Coeff-Com: -0.509D-01 0.527D+00 0.524D+00
 Coeff:     -0.509D-01 0.527D+00 0.524D+00
 Gap=     0.462 Goal=   None    Shift=    0.000
 RMSDP=4.46D-07 MaxDP=5.77D-06 DE=-2.67D-10 OVMax= 1.06D-05

 Cycle   9  Pass 1  IDiag  1:
 E= -76.4217075955687     Delta-E=       -0.000000001088 Rises=F Damp=F
 DIIS: error= 5.86D-07 at cycle   4 NSaved=   4.
 NSaved= 4 IEnMin= 4 EnMin= -76.4217075955687     IErMin= 4 ErrMin= 5.86D-07
 ErrMax= 5.86D-07  0.00D+00 EMaxC= 1.00D-01 BMatC= 4.70D-12 BMatP= 1.60D-09
 IDIUse=1 WtCom= 1.00D+00 WtEn= 0.00D+00
 Coeff-Com:  0.298D-03-0.448D-01-0.234D-01 0.107D+01
 Coeff:      0.298D-03-0.448D-01-0.234D-01 0.107D+01
 Gap=     0.462 Goal=   None    Shift=    0.000
 RMSDP=8.98D-08 MaxDP=7.30D-07 DE=-1.09D-09 OVMax= 1.85D-06

 Cycle  10  Pass 1  IDiag  1:
 E= -76.4217075955793     Delta-E=       -0.000000000011 Rises=F Damp=F
 DIIS: error= 1.22D-07 at cycle   5 NSaved=   5.
 NSaved= 5 IEnMin= 5 EnMin= -76.4217075955793     IErMin= 5 ErrMin= 1.22D-07
 ErrMax= 1.22D-07  0.00D+00 EMaxC= 1.00D-01 BMatC= 3.33D-13 BMatP= 4.70D-12
 IDIUse=1 WtCom= 1.00D+00 WtEn= 0.00D+00
 Coeff-Com:  0.336D-02-0.403D-01-0.344D-01 0.995D-01 0.972D+00
 Coeff:      0.336D-02-0.403D-01-0.344D-01 0.995D-01 0.972D+00
 Gap=     0.462 Goal=   None    Shift=    0.000
 RMSDP=2.44D-08 MaxDP=1.87D-07 DE=-1.05D-11 OVMax= 5.17D-07

 Cycle  11  Pass 1  IDiag  1:
 E= -76.4217075955798     Delta-E=       -0.000000000001 Rises=F Damp=F
 DIIS: error= 1.86D-08 at cycle   6 NSaved=   6.
 NSaved= 6 IEnMin= 6 EnMin= -76.4217075955798     IErMin= 6 ErrMin= 1.86D-08
 ErrMax= 1.86D-08  0.00D+00 EMaxC= 1.00D-01 BMatC= 5.47D-15 BMatP= 3.33D-13
 IDIUse=1 WtCom= 1.00D+00 WtEn= 0.00D+00
 Coeff-Com: -0.162D-03 0.265D-02 0.303D-02-0.297D-01-0.712D-01 0.110D+01
 Coeff:     -0.162D-03 0.265D-02 0.303D-02-0.297D-01-0.712D-01 0.110D+01
 Gap=     0.462 Goal=   None    Shift=    0.000
 RMSDP=4.08D-09 MaxDP=3.51D-08 DE=-5.12D-13 OVMax= 8.20D-08

 SCF Done:  E(RM062X) =  -76.4217075956     A.U. after   11 cycles
            NFock= 11  Conv=0.41D-08     -V/T= 2.0030
 KE= 7.619149095485D+01 PE=-1.990272528097D+02 EE= 3.732418190886D+01
 Leave Link  502 at Sun Feb 19 22:59:16 2023, MaxMem=  6710886400 cpu:               8.6 elap:               0.4
 (Enter /data0/home/software/g16/l601.exe)
 Copying SCF densities to generalized density rwf, IOpCl= 0 IROHF=0.

 **********************************************************************

            Population analysis using the SCF density.

 **********************************************************************

 Alpha  occ. eigenvalues --  -19.62676  -1.13350  -0.60470  -0.47700  -0.39997
 Alpha virt. eigenvalues --    0.06214   0.13304   0.17420   0.17943   0.18903
 Alpha virt. eigenvalues --    0.23400   0.50882   0.53411   0.98107   1.00261
 Alpha virt. eigenvalues --    1.06008   1.17577   1.20133   1.31958   1.34007
 Alpha virt. eigenvalues --    1.70428   1.74271   1.75304   2.07369   2.09563
 Alpha virt. eigenvalues --    2.36316   2.39638   2.54857   2.87779   3.01222
 Alpha virt. eigenvalues --    5.05626   5.48722   5.90803   6.78477   6.80051
 Alpha virt. eigenvalues --    6.87330   6.91614   7.09519  49.95529
          Condensed to atoms (all electrons):
              15         16         17
    15  O    7.918189   0.318885   0.316291
    16  H    0.318885   0.429402  -0.023820
    17  H    0.316291  -0.023820   0.429699
 Mulliken charges:
               1
     1  P    0.000000
     2  O    0.000000
     3  O    0.000000
     4  H    0.000000
     5  O    0.000000
     6  H    0.000000
     7  O    0.000000
     8  H    0.000000
     9  O    0.000000
    10  H    0.000000
    11  H    0.000000
    12  O    0.000000
    13  H    0.000000
    14  H    0.000000
    15  O   -0.553364
    16  H    0.275533
    17  H    0.277831
 Sum of Mulliken charges =  -0.00000
 Mulliken charges with hydrogens summed into heavy atoms:
               1
     1  P    0.000000
     2  O    0.000000
     3  O    0.000000
     5  O    0.000000
     7  O    0.000000
     9  O    0.000000
    12  O    0.000000
    15  O   -0.000000
         Mulliken charges condensed to fragments:
      1      0.000000
      2      0.000000
      3      0.000000
      4     -0.000000
 Electronic spatial extent (au):  <R**2>=          14537.8593
 Charge=             -0.0000 electrons
 Dipole moment (field-independent basis, Debye):
    X=             -0.0967    Y=             -1.9522    Z=             -0.8609  Tot=              2.1358
 Quadrupole moment (field-independent basis, Debye-Ang):
   XX=             -8.6238   YY=            -54.5639   ZZ=            -25.7365
   XY=            -22.9661   XZ=             -8.9781   YZ=            -33.5683
 Traceless Quadrupole moment (field-independent basis, Debye-Ang):
   XX=             21.0176   YY=            -24.9225   ZZ=              3.9050
   XY=            -22.9661   XZ=             -8.9781   YZ=            -33.5683
 Octapole moment (field-independent basis, Debye-Ang**2):
  XXX=           -246.3590  YYY=          -1130.7186  ZZZ=           -548.9503  XYY=           -620.9736
  XXY=           -350.0757  XXZ=           -169.4684  XZZ=           -258.1753  YZZ=           -588.1900
  YYZ=           -771.2048  XYZ=           -366.8344
 Hexadecapole moment (field-independent basis, Debye-Ang**3):
 XXXX=          -5101.9357 YYYY=         -20640.5579 ZZZZ=         -10074.9250 XXXY=          -5775.0377
 XXXZ=          -3442.6064 YYYX=         -12706.6162 YYYZ=         -14862.8506 ZZZX=          -5520.0461
 ZZZY=          -9975.8272 XXYY=          -8072.4362 XXZZ=          -3459.6987 YYZZ=         -11453.9234
 XXYZ=          -4957.9020 YYXZ=          -8482.9150 ZZXY=          -6206.8166
 N-N= 9.089872350431D+00 E-N=-1.990272531267D+02  KE= 7.619149095485D+01
 No NMR shielding tensors so no spin-rotation constants.
 Leave Link  601 at Sun Feb 19 22:59:16 2023, MaxMem=  6710886400 cpu:               1.7 elap:               0.1
 (Enter /data0/home/software/g16/l122.exe)
 CPIOFr:  IOpCl= 0 IRwI=-1 IRwCP=  731 ICalc=  8 LCPTot=      120517 Len1MO=      315166 IndFrg=     2957011
 Restoring MOs from calculation   1 to rwf.
 CPIOFr:  IOpCl= 0 IRwI=-2 IRwCP=  731 ICalc=  0 LCPTot=      120517 Len1MO=      315166 IndFrg=      435683
 Counterpoise corrected energy =    -873.443010117339
                   BSSE energy =       0.003018688137
              sum of fragments =    -873.409993386862
           complexation energy =     -22.61 kcal/mole (raw)
           complexation energy =     -20.72 kcal/mole (corrected)
 Leave Link  122 at Sun Feb 19 22:59:16 2023, MaxMem=  6710886400 cpu:               0.2 elap:               0.0
 (Enter /data0/home/software/g16/l9999.exe)
 1\1\GINC-LOCALHOST\SP\RM062X\6-311+G(2d,p)\H9O7P1\WUHANYU\19-Feb-2023\
 0\\#p M062X/6-311+G(2d,p) nosymm em=GD3 counterpoise=4\\Title Card Req
 uired\\0,1\P,0,13.088985,9.151688,11.102024\O,0,12.004801,9.736103,11.
 902005\O,0,14.183714,10.117464,10.496994\H,0,13.746632,11.041569,10.21
 6637\O,0,13.969591,8.165743,12.000145\H,0,14.7522,7.833945,11.416693\O
 ,0,12.662765,8.189602,9.919108\H,0,11.851319,8.617474,9.388622\O,0,13.
 072938,12.522995,9.70175\H,0,12.603292,12.273286,8.883009\H,0,12.36782
 4,12.704391,10.342057\O,0,7.365961,12.839897,9.363178\H,0,7.505833,13.
 75408,9.579144\H,0,8.266965,12.434474,9.362144\O,0,10.840604,12.49929,
 11.632993\H,0,11.270291,11.694976,11.935899\H,0,10.35307,12.203576,10.
 840249\\Version=ES64L-G16RevA.03\HF=-76.4217076\RMSD=4.081e-09\Dipole=
 0.3367057,0.0911102,-1.8929707\Quadrupole=27.7765941,27.7408759,-55.51
 747,4.9018342,-35.7885626,-36.0246667\PG=C01 [X(H9O7P1)]\\@


 FAULTILY FAULTLESS, ICILY REGULAR, SPLENDIDLY NULL...
           MAUDE BY TENNYSON
 Job cpu time:       0 days  0 hours 26 minutes 55.7 seconds.
 Elapsed time:       0 days  0 hours  1 minutes 10.1 seconds.
 File lengths (MBytes):  RWF=     75 Int=      0 D2E=      0 Chk=     28 Scr=      1
 Normal termination of Gaussian 16 at Sun Feb 19 22:59:16 2023.
