          38
 G =       -0.497589 Gcorr = 0.216958 a.u. Nimag =   0 Frame:     1 Step:     1 Geom:     1
C          10.18092100     11.73498900      8.17044300
C          11.30841200     11.37849800      7.41147600
C          11.63603700     10.04657100      7.24011400
C          10.80501800      9.05611600      7.79355300
C           9.68743800      9.44438500      8.52442200
H          12.53943200      9.75682500      6.70159400
H           9.92124400     12.79760200      8.32520700
H          11.94119200     12.17762800      7.01943700
H           9.03291900      8.70010800      9.00324100
C          11.14750000      7.61891200      7.65881800
H          12.03922400      7.38747400      8.27966400
H          10.35763500      6.94629400      8.02430500
H          11.38241800      7.33229600      6.62628400
N           9.39843100     10.77115000      8.71756500
C           8.23325100     11.09915800      9.57544100
H           7.33731700     11.15728000      8.91485000
H           8.07018300     10.24453300     10.28738000
C           8.35732600     12.39335800     10.39834900
H           8.69383500     13.24889600      9.77217200
H           7.32773000     12.68796600     10.70545300
C           9.21600200     12.24289300     11.64573600
H           9.11448500     11.23080700     12.08513100
H           8.86333900     12.93016900     12.43816600
S          10.97325600     12.59563000     11.37902000
O          11.65286900     12.05744800     12.57052100
O          11.02963100     14.05248200     11.15071600
O          11.33457700     11.83110100     10.13072000
P          11.33909200      8.70724500     11.52590300
O           9.88468800      8.79829300     11.35905200
O          11.79062400      7.17539000     11.57023100
H          12.79338900      7.15866000     11.81010600
O          12.18690000      9.27250100     10.30742200
H          11.94671900     10.30748200     10.17994000
O          11.96900200      9.29722300     12.85070300
H          11.90227500     10.35996000     12.82214900
O           9.99497900     15.13162800      8.87583200
H          10.40821500     14.79196500      9.70981400
H          10.34251400     16.00910300      8.78908900
          38
 G =       -0.499763 Gcorr = 0.214968 a.u. Nimag =   0 Frame:     2 Step:     2 Geom:     2
C          10.20725800     11.77630400      8.15774800
C          11.34570800     11.47109300      7.39245400
C          11.72414900     10.15489500      7.20644800
C          10.93386400      9.12756100      7.75258400
C           9.80066100      9.46480600      8.48412100
H          12.63637200      9.90585400      6.66273500
H           9.91394200     12.83131300      8.33010300
H          11.94539500     12.29831200      7.00714700
H           9.17482300      8.69081700      8.95438500
C          11.33492600      7.70635400      7.60956200
H          12.22146600      7.50328000      8.24785900
H          10.56438600      6.99946600      7.95068900
H          11.60321500      7.44056700      6.57973200
N           9.45921800     10.77738700      8.68897100
C           8.27944700     11.04964600      9.54618500
H           7.38632200     11.09574800      8.88081600
H           8.13766000     10.17456100     10.23761000
C           8.35794700     12.32773000     10.39926300
H           8.66479300     13.20818600      9.79327300
H           7.31852000     12.57814600     10.71228600
C           9.22096800     12.17962900     11.64389600
H           9.13574400     11.16175800     12.07343100
H           8.85799300     12.85340600     12.44329800
S          10.97117900     12.56401800     11.37813400
O          11.65799300     12.05195000     12.57586000
O          10.99774300     14.02064900     11.13013200
O          11.35297600     11.79958800     10.13669400
P          11.39655200      8.68030500     11.53003600
O           9.94272700      8.74916500     11.35094900
O          11.87215700      7.15631500     11.58268400
H          12.87392400      7.15654900     11.82772800
O          12.24769400      9.25832700     10.32026200
H          11.98971800     10.28854800     10.18744100
O          12.00497700      9.28137400     12.86102800
H          11.92950400     10.34118600     12.82971700
O          10.07534400     14.90689900      8.74329000
H          10.44622900     14.65778800      9.63228200
H          10.49652500     15.73054100      8.53918100
          38
 G =       -0.498032 Gcorr = 0.214541 a.u. Nimag =   0 Frame:     3 Step:     3 Geom:     3
C           9.97746500     11.74953700      8.16678300
C          11.11728200     11.49661000      7.38953400
C          11.54792200     10.19652000      7.19231400
C          10.80484800      9.13618000      7.73780400
C           9.67254700      9.42430400      8.49585900
H          12.46428600      9.98929600      6.63700900
H           9.63752000     12.78852200      8.34040300
H          11.67347400     12.35409500      6.99126700
H           9.08358000      8.62203400      8.96622000
C          11.24837700      7.73126100      7.56413500
H          11.47008500      7.48183500      6.51878900
H          12.17480700      7.55428500      8.15102200
H          10.52301000      6.99471500      7.94005400
N           9.28982500     10.72053300      8.72134100
C           8.11426100     10.94757000      9.59681700
H           7.20705900     10.93477500      8.94952300
H           8.02991600     10.07773100     10.30417800
C           8.14592100     12.24375200     10.42776000
H           8.46901800     13.11558100      9.81923100
H           7.09430700     12.48478800     10.70389800
C           8.97326000     12.12471200     11.70014500
H           8.97391000     11.08725500     12.08990300
H           8.52368100     12.72813400     12.51108100
S          10.68642700     12.67827800     11.50571500
O          11.40082600     12.10488500     12.65968200
O          10.62574400     14.13483800     11.36553800
O          11.14406600     12.06371300     10.19198000
P          11.49362400      8.85880000     11.38521200
O          10.03452900      8.80242000     11.23885600
O          12.10730400      7.38529500     11.30775900
H          13.10932300      7.45866100     11.54004600
O          12.25034000      9.59568800     10.19866600
H          11.90272500     10.60572000     10.14787300
O          12.07916000      9.41753800     12.74142800
H          11.86867100     10.46333200     12.79807300
O          11.27851100     14.34907700      8.54544100
H          11.09607500     14.98603400      9.24911900
H          11.50633400     13.55171200      9.05955500
          38
 G =       -0.499734 Gcorr = 0.214998 a.u. Nimag =   0 Frame:     4 Step:     4 Geom:     4
C          10.12404400     11.74430900      8.19013100
C          11.23841500     11.46395400      7.38115100
C          11.63471600     10.15601200      7.17510200
C          10.88557400      9.11157500      7.74617700
C           9.77447400      9.42419800      8.52130600
H          12.53028900      9.92671300      6.59618600
H           9.81755700     12.79283600      8.37835600
H          11.80721700     12.30400300      6.97723100
H           9.18204100      8.63652400      9.01171300
C          11.30816200      7.69888800      7.58227300
H          11.54359200      7.44209000      6.54220400
H          12.22121000      7.51058400      8.18685200
H          10.56422900      6.97606000      7.94815300
N           9.41573600     10.72913700      8.74451900
C           8.26403700     10.97514800      9.64664400
H           7.34576400     11.00598000      9.01549500
H           8.16539000     10.09513500     10.33928800
C           8.34971600     12.25165900     10.50137200
H           8.61679500     13.13988200      9.88798100
H           7.31806600     12.48092300     10.85385800
C           9.26117300     12.11614800     11.71249100
H           9.21075600     11.09565100     12.14132100
H           8.91582800     12.78087200     12.52709700
S          10.99290800     12.53372800     11.38339200
O          11.73341200     12.02962100     12.55216900
O          10.98334000     13.99157400     11.14151800
O          11.34205900     11.78140900     10.12503000
P          11.49495600      8.65763500     11.50295800
O          10.03415000      8.70043700     11.38213600
O          11.99994700      7.14249400     11.53132800
H          13.01103600      7.16054000     11.73350700
O          12.28595500      9.25440600     10.26188000
H          12.00648000     10.28095200     10.14499900
O          12.14583800      9.26605700     12.81026700
H          12.04601800     10.32399400     12.78803600
O           9.95588700     14.86857600      8.79379100
H          10.36233700     14.62398400      9.66831400
H          10.36091000     15.69632900      8.57379400
          38
 G =       -0.495404 Gcorr = 0.202700 a.u. Nimag =   0 Frame:     5 Step:     5 Geom:     5
C           9.82191700     11.89621500      7.74651100
C          10.88803500     11.72418500      6.86227900
C          11.57222300     10.50650400      6.81040500
C          11.17013200      9.45084700      7.64220100
C          10.07368000      9.65151000      8.50369000
H          12.42987500     10.38720600      6.14480500
H           9.31568900     12.87843600      7.84590500
H          11.19764900     12.56738000      6.23803000
H           9.74153800      8.84965700      9.21371400
C          11.89610000      8.15774400      7.69486400
H          11.22501100      7.28834900      7.74703800
H          12.57806600      8.00119100      6.85091400
H          12.51481900      8.11543900      8.62355300
N           9.43384300     10.85924400      8.56091900
C           8.33096300     11.03480400      9.55846200
H           7.36328000     11.05655500      9.00917100
H           8.31250300     10.12217200     10.22896900
C           8.48615700     12.29055500     10.42949100
H           8.85771100     13.16269500      9.83212000
H           7.46851100     12.59802900     10.75883300
C           9.35369600     12.06780800     11.65768600
H           9.15342700     11.05962900     12.09062800
H           9.03643300     12.75414000     12.47102100
S          11.08672300     12.27881800     11.34845000
O          11.75483000     11.81300000     12.59864900
O          11.29915500     13.68340100     10.95689300
O          11.45080300     11.33450200     10.22430500
P          11.12138400      8.53120800     11.71522500
O           9.75236400      8.69765700     11.15483200
O          11.49820900      6.97538900     12.06733400
H          12.24225400      6.84993600     12.71954800
O          12.29879200      8.96725600     10.68525900
H          12.25574200     10.00097500     10.34804000
O          11.44850700      9.26884900     13.11087100
H          11.74077000     10.31141800     13.09477100
O          10.05813700     14.51009600      8.80752600
H          10.82156800     14.25668900      9.41177300
H           9.85952400     15.41052900      9.03532900
          38
 G =       -0.495757 Gcorr = 0.217313 a.u. Nimag =   0 Frame:     6 Step:     6 Geom:     6
C          10.30797400     11.72758900      8.26781400
C          11.54940000     11.43912500      7.69024900
C          11.90779700     10.12569900      7.42743700
C          10.99462800      9.09717400      7.70356300
C           9.78486000      9.41728100      8.32034800
H          12.89545400      9.88677600      7.02892400
H           9.99472200     12.77240400      8.44624000
H          12.23813500     12.27030100      7.48713300
H           9.07430700      8.63186900      8.61488900
C          11.33191400      7.67987800      7.42259000
H          12.03993500      7.29808400      8.18956000
H          10.46343200      7.00849100      7.46353700
H          11.81346700      7.54454700      6.44540600
N           9.46869400     10.71785300      8.61352700
C           8.18424700     10.96474700      9.31490100
H           7.38723600     11.02972900      8.53848300
H           7.95983800     10.06645600      9.95110300
C           8.14016500     12.21525100     10.21337000
H           8.61959500     13.08794900      9.72104600
H           7.07283700     12.51767700     10.30853400
C           8.71173400     11.97630200     11.60498300
H           8.74375600     10.89757900     11.85507400
H           8.05774000     12.42385000     12.37570700
S          10.37316400     12.66658400     11.84086600
O          10.94090100     11.89542200     12.96657100
O          10.20059600     14.10276700     12.01392100
O          11.08787100     12.34588600     10.53664600
P          11.54831300      9.00895600     11.19458500
O          10.13425700      8.87609300     10.81617100
O          12.29727400      7.61673600     10.94665600
H          13.24828100      7.70745700     11.33285600
O          12.38689200      9.99924600     10.28007200
H          11.96542500     10.98150500     10.36461100
O          11.87960900      9.34272900     12.69859700
H          11.54022500     10.34582100     12.90091700
O          11.86294400     14.29930700      8.78398800
H          11.89091000     15.10824600      9.28563300
H          11.69148600     13.60665800      9.46350500
          38
 G =       -0.499741 Gcorr = 0.214991 a.u. Nimag =   0 Frame:     7 Step:     7 Geom:     7
C          10.43663800     11.83378900      8.17771200
C          11.66078100     11.55947300      7.54458100
C          12.05942800     10.25159300      7.34203500
C          11.20803400      9.20360300      7.73550200
C           9.99293000      9.51161800      8.33714100
H          13.03178000     10.02414800      6.90320600
H          10.12444100     12.88083600      8.36497900
H          12.30352200     12.40074700      7.27719500
H           9.31404100      8.71922300      8.68814000
C          11.62381000      7.78861000      7.57417000
H          12.01861500      7.57150300      6.57409300
H          12.42363700      7.54936700      8.30743400
H          10.81672900      7.07071100      7.78156200
N           9.62855300     10.81453600      8.56235500
C           8.35159600     11.05164900      9.27928100
H           7.54792600     11.13566600      8.51142800
H           8.12500700     10.14467100      9.90377100
C           8.32364800     12.28595300     10.19744900
H           8.70359000     13.19303800      9.67843900
H           7.25342100     12.52739700     10.39093400
C           9.02514100     12.07181200     11.53086000
H           8.88567800     11.03517300     11.89656900
H           8.56663000     12.70924900     12.31069900
S          10.79543700     12.45536600     11.50354200
O          11.32732000     11.87975600     12.75026800
O          10.85467900     13.92222500     11.33368400
O          11.32750400     11.74995800     10.28272700
P          11.19287900      8.56522800     11.51631900
O           9.77195800      8.65365800     11.16487200
O          11.65598000      7.03690100     11.55280400
H          12.62034500      7.01789600     11.91761700
O          12.18578900      9.19355900     10.44784500
H          11.94980500     10.23124600     10.33657400
O          11.63637100      9.09760000     12.93849200
H          11.56342200     10.15808900     12.95082200
O          10.23505700     14.93088300      8.89757700
H          10.68686700     15.75585500      8.78420600
H          10.49102800     14.63742500      9.81313100
          38
 G =       -0.499744 Gcorr = 0.214988 a.u. Nimag =   0 Frame:     8 Step:     8 Geom:     8
C          10.37302200     11.93116200      8.18608600
C          11.60768800     11.74994300      7.53993800
C          12.08134300     10.47505500      7.29360400
C          11.29523100      9.36660400      7.65616900
C          10.06754600      9.58294600      8.27193000
H          13.06281300     10.31943400      6.84388300
H          10.00082400     12.95148700      8.40803500
H          12.19839000     12.63582700      7.29778200
H           9.43832800      8.74111700      8.59961700
C          11.79268500      7.98454100      7.44743600
H          12.19332700      7.82323300      6.43917800
H          12.60972500      7.76969000      8.16918200
H          11.03061300      7.21389600      7.63496400
N           9.62846500     10.85427100      8.54056200
C           8.34373400     10.99256600      9.26926900
H           7.53225600     11.05336300      8.50742800
H           8.17449100     10.05433500      9.86512600
C           8.24799100     12.19309600     10.22681400
H           8.57058400     13.13723000      9.73583500
H           7.16640800     12.36424800     10.43193700
C           8.96835600     11.97844200     11.54997100
H           8.89263200     10.92413400     11.88249200
H           8.47718100     12.56211800     12.35175400
S          10.71257800     12.46721200     11.52876400
O          11.28416100     11.88492700     12.75467200
O          10.68403500     13.93969400     11.40581100
O          11.27887700     11.83393900     10.28402400
P          11.34045100      8.60928700     11.41431800
O           9.91487200      8.62477900     11.07094400
O          11.89308700      7.11070800     11.39909500
H          12.85977500      7.13719700     11.75733000
O          12.28891100      9.32995800     10.36394200
H          11.99004800     10.35457700     10.28647300
O          11.75920500      9.12056500     12.85166800
H          11.62353200     10.17385100     12.89870000
O           9.99238200     14.98637400      9.00612500
H          10.26983000     14.67863500      9.91074500
H          10.39463900     15.83958100      8.91841300
          38
 G =       -0.499886 Gcorr = 0.216143 a.u. Nimag =   0 Frame:     9 Step:     9 Geom:     9
C           9.50047000     11.99822600      7.61259200
C          10.61407800     12.13995500      6.79779900
C          11.63078000     11.18005400      6.82788600
C          11.50343500     10.07474900      7.66226500
C          10.35725300      9.96044700      8.47285100
H          12.52726600     11.31578100      6.22146500
H           8.70901800     12.76236600      7.64214900
H          10.70714000     13.03808700      6.18228400
H          10.22731000      9.10460200      9.16153000
C          12.57410500      9.05836200      7.79505800
H          13.33526300      9.40955400      8.52584300
H          12.21765400      8.09790600      8.20534000
H          13.09384000      8.84755600      6.85414800
N           9.39171900     10.91473300      8.44157400
C           8.27032900     10.83953100      9.40636700
H           7.31510700     10.81656700      8.83712600
H           8.33706300      9.87487700      9.97790100
C           8.27776600     12.01850600     10.39956900
H           8.53006100     12.97490100      9.88616100
H           7.23697300     12.16585800     10.76187300
C           9.19087700     11.79135600     11.59393900
H           9.08329700     10.76280800     11.99218300
H           8.89186400     12.44791000     12.43369100
S          10.94253800     12.12194400     11.26601500
O          11.62109000     11.80172200     12.53238400
O          10.97272800     13.52310000     10.79516800
O          11.33789800     11.16807800     10.16997800
P          11.38029100      8.28106900     11.94681700
O           9.94887300      8.34021200     11.64428400
O          11.84241300      6.78248300     12.23186900
H          12.84042400      6.81476300     12.49196200
O          12.31860800      8.72234900     10.74084800
H          12.06654800      9.72617400     10.47979500
O          11.89929300      9.05260600     13.23005700
H          11.85227500     10.09358900     13.05114600
O          10.01637900     14.40060100      8.42134000
H          10.14894500     15.33994500      8.46720000
H          10.43904700     14.06669800      9.25956000
          38
 G =       -0.495770 Gcorr = 0.217300 a.u. Nimag =   0 Frame:    10 Step:    10 Geom:    10
C          10.32647300     11.70089300      8.28580500
C          11.58950500     11.46658300      7.73101000
C          12.00282600     10.17093000      7.46074300
C          11.12403900      9.10534300      7.70625700
C           9.89072800      9.37197300      8.30145900
H          13.00670000      9.97435700      7.08000500
H           9.97011000     12.73088000      8.46945300
H          12.25014800     12.32562500      7.55190700
H           9.20480900      8.55676000      8.57244600
C          11.52052700      7.70529100      7.41623800
H          12.22643600      7.34098700      8.19353400
H          10.67739400      7.00128700      7.43093200
H          12.02707800      7.60019500      6.44798900
N           9.51935600     10.65604000      8.60254100
C           8.21228700     10.84599800      9.27934200
H           7.42965700     10.89103700      8.48701700
H           8.00852800      9.93200500      9.89993000
C           8.10257900     12.08246900     10.19152600
H           8.55789600     12.97889500      9.71937000
H           7.02275300     12.34280000     10.26856000
C           8.65514400     11.84793500     11.59150900
H           8.72367700     10.76817500     11.82945400
H           7.96921500     12.26036000     12.35402600
S          10.28361000     12.59847600     11.86923300
O          10.85751300     11.83678200     12.99811200
O          10.05239300     14.02497700     12.05370600
O          11.03663200     12.32027700     10.57676000
P          11.60984100      8.99544000     11.20734400
O          10.20983000      8.81389500     10.79817400
O          12.41595000      7.63552100     10.95996700
H          13.35493800      7.75771500     11.36644700
O          12.42860900     10.02745400     10.32145000
H          11.96836500     10.99201000     10.40803400
O          11.89751300      9.32374300     12.72156600
H          11.51654700     10.31072300     12.92772000
O          11.77112900     14.32355900      8.86375900
H          11.61277400     13.61611100      9.53118100
H          11.75651500     15.12651700      9.37550800
          38
 G =       -0.495766 Gcorr = 0.217305 a.u. Nimag =   0 Frame:    11 Step:    11 Geom:    11
C          10.41468700     11.79378000      8.30359000
C          11.68927400     11.52327900      7.79353400
C          12.05610400     10.22148100      7.48790200
C          11.12085400      9.18884100      7.65199400
C           9.87556600      9.48864700      8.20505300
H          13.06605500      9.99383600      7.14215500
H          10.09663400     12.83114100      8.51412600
H          12.39474200     12.35721000      7.67798600
H           9.14281400      8.69596600      8.41305600
C          11.46705800      7.78439700      7.32158100
H          10.59358700      7.12011700      7.27151100
H          12.01073400      7.69405700      6.37217400
H          12.12096500      7.35757800      8.11245100
N           9.54875400     10.77570500      8.54276700
C           8.22291900     10.99909900      9.17115700
H           7.47856600     11.11093300      8.34913600
H           7.95186400     10.07195100      9.74473500
C           8.12821700     12.20279700     10.12770700
H           8.64336900     13.09493600      9.71233400
H           7.05870200     12.50957000     10.16960000
C           8.60750200     11.88861700     11.53907100
H           8.61718900     10.79838800     11.73526500
H           7.90772300     12.30243400     12.28813400
S          10.25411700     12.55128500     11.91597300
O          10.74322800     11.71947100     13.03547300
O          10.07881700     13.97844500     12.15016400
O          11.05002900     12.29013500     10.64603400
P          11.44646500      8.91977600     11.16287400
O          10.05916100      8.81937300     10.68774500
O          12.20132400      7.53473600     10.89392200
H          13.12576800      7.59710200     11.34479900
O          12.34870300      9.94647400     10.35513700
H          11.92865100     10.92688800     10.46129300
O          11.68161400      9.17527900     12.69987900
H          11.33606700     10.17040600     12.93003200
O          11.94707700     14.32283500      9.04857800
H          11.72832900     13.59808300      9.67928700
H          11.94679100     15.10497300      9.59181300
          38
 G =       -0.498002 Gcorr = 0.214572 a.u. Nimag =   0 Frame:    12 Step:    12 Geom:    12
C          10.10969900     11.90178000      8.21386000
C          11.29104500     11.69403400      7.48691700
C          11.70219500     10.40795900      7.18409700
C          10.90026000      9.32109600      7.57081300
C           9.72796100      9.56565000      8.28196900
H          12.64733900     10.23015800      6.66822100
H           9.78488500     12.92764200      8.47297300
H          11.89250200     12.56985600      7.21412500
H           9.09045900      8.73828500      8.62963100
C          11.32086600      7.92801200      7.28268100
H          12.20064500      7.66436000      7.90760400
H          10.55418300      7.17982200      7.53251400
H          11.60722500      7.77876700      6.23396900
N           9.36245800     10.84345100      8.61503100
C           8.13745300     11.01662900      9.43305100
H           7.27503800     11.09740500      8.73176500
H           7.98548100     10.08238800     10.04010600
C           8.14511300     12.21999800     10.39385000
H           8.52797100     13.13901000      9.90033000
H           7.08349500     12.46363900     10.62634200
C           8.88335600     11.94720900     11.69692500
H           8.83099300     10.87652500     11.97822200
H           8.39733600     12.48094000     12.53526500
S          10.61960900     12.46082700     11.66842100
O          11.24057600     11.75196800     12.80096400
O          10.60645200     13.92540100     11.67376200
O          11.14705500     11.96599000     10.33069300
P          11.33395300      8.64824900     11.20947800
O           9.88652600      8.65460300     10.96770300
O          11.91246300      7.17065900     11.02075400
H          12.89748300      7.18659200     11.32561600
O          12.18531700      9.47498200     10.15350900
H          11.86857300     10.49601300     10.18531200
O          11.84495800      9.04942600     12.64913800
H          11.65648600     10.08992000     12.79972900
O          11.45530100     14.40399400      8.94364900
H          11.62843400     13.54981500      9.38186400
H          11.23887400     14.96695900      9.69916700
          38
 G =       -0.495751 Gcorr = 0.217006 a.u. Nimag =   0 Frame:    13 Step:    13 Geom:    13
C          10.13661800     11.64753600      8.28740200
C          11.29758900     11.30750800      7.58441400
C          11.58496200      9.97814100      7.31453300
C          10.67839100      8.98565500      7.71604400
C           9.55590300      9.35714100      8.45673500
H          12.51396400      9.69923300      6.81422500
H           9.87845100     12.70811500      8.47322300
H          11.98253000     12.11311600      7.28825600
H           8.86180200      8.60112400      8.85023400
C          10.93980700      7.55235400      7.43520300
H          11.32980600      7.38273300      6.42314300
H          11.69836400      7.15794800      8.14543000
H          10.05485600      6.91451900      7.56352500
N           9.31193600     10.67340700      8.74925800
C           8.12112600     10.97698300      9.58150700
H           7.24487800     11.04855900      8.89636500
H           7.94355100     10.10173800     10.26270200
C           8.21332100     12.24979500     10.44439500
H           8.66536900     13.09272200      9.87901500
H           7.17285200     12.59217400     10.64346100
C           8.92269000     12.02480500     11.77370100
H           8.96235500     10.95036800     12.04041400
H           8.36053100     12.49843200     12.59921100
S          10.61149300     12.68700800     11.82124000
O          11.28226000     11.92206800     12.89325800
O          10.48250600     14.12857300     11.98670600
O          11.17764500     12.33260600     10.45407800
P          11.64073200      8.99673000     11.11499100
O          10.19085200      8.88457900     10.90060900
O          12.33180200      7.58568000     10.81149400
H          13.32268800      7.66500700     11.08244100
O          12.38803600      9.95435200     10.09308300
H          11.99936600     10.94743400     10.20855800
O          12.14512200      9.34939600     12.56564800
H          11.84543600     10.36108500     12.78709600
O          11.58811900     14.20343800      8.52349600
H          11.57418700     13.55255300      9.26620400
H          11.67811800     15.04539800      8.95872000
          38
 G =       -0.499896 Gcorr = 0.216133 a.u. Nimag =   0 Frame:    14 Step:    14 Geom:    14
C           9.19466100     12.09339100      7.87249600
C          10.16325200     12.08803400      6.87969600
C          11.04228900     11.00626400      6.76438800
C          10.92065000      9.93012900      7.63673800
C           9.92256400      9.96668400      8.63005000
H          11.83318200     11.02383700      6.01337200
H           8.52154600     12.95239800      8.01421700
H          10.26261900     12.96408000      6.23408300
H           9.80462800      9.13721600      9.35235900
C          11.86286300      8.78610000      7.61589700
H          11.46228000      7.87999900      8.10195900
H          12.18882000      8.50828500      6.60769400
H          12.77269100      9.03976900      8.20303800
N           9.09282400     11.03627600      8.73584800
C           8.15043700     11.10934100      9.87627100
H           7.11744000     11.20614900      9.47570300
H           8.19155000     10.14658600     10.45347000
C           8.47364600     12.28215800     10.82304600
H           8.75460600     13.19566100     10.24993400
H           7.53579600     12.56408900     11.34942400
C           9.53881700     11.94502800     11.85446200
H           9.37081200     10.94100200     12.29226600
H           9.47098900     12.63903100     12.71432900
S          11.23766600     12.04536100     11.23074900