 Entering Gaussian System, Link 0=g16
 Initial command:
 /data0/hywu0/study/g16/l1.exe "/data0/hywu0/study/g16/scratch/Gau-2806853.inp" -scrdir="/data0/hywu0/study/g16/scratch/"
 Default is to use a total of  16 processors:
                               16 via shared-memory
                                1 via Linda
 Entering Link 1 = /data0/hywu0/study/g16/l1.exe PID=   2806854.
  
 Copyright (c) 1988,1990,1992,1993,1995,1998,2003,2009,2016,
            Gaussian, Inc.  All Rights Reserved.
  
 This is part of the Gaussian(R) 16 program.  It is based on
 the Gaussian(R) 09 system (copyright 2009, Gaussian, Inc.),
 the Gaussian(R) 03 system (copyright 2003, Gaussian, Inc.),
 the Gaussian(R) 98 system (copyright 1998, Gaussian, Inc.),
 the Gaussian(R) 94 system (copyright 1995, Gaussian, Inc.),
 the Gaussian 92(TM) system (copyright 1992, Gaussian, Inc.),
 the Gaussian 90(TM) system (copyright 1990, Gaussian, Inc.),
 the Gaussian 88(TM) system (copyright 1988, Gaussian, Inc.),
 the Gaussian 86(TM) system (copyright 1986, Carnegie Mellon
 University), and the Gaussian 82(TM) system (copyright 1983,
 Carnegie Mellon University). Gaussian is a federally registered
 trademark of Gaussian, Inc.
  
 This software contains proprietary and confidential information,
 including trade secrets, belonging to Gaussian, Inc.
  
 This software is provided under written license and may be
 used, copied, transmitted, or stored only in accord with that
 written license.
  
 The following legend is applicable only to US Government
 contracts under FAR:
  
                    RESTRICTED RIGHTS LEGEND
  
 Use, reproduction and disclosure by the US Government is
 subject to restrictions as set forth in subparagraphs (a)
 and (c) of the Commercial Computer Software - Restricted
 Rights clause in FAR 52.227-19.
  
 Gaussian, Inc.
 340 Quinnipiac St., Bldg. 40, Wallingford CT 06492
  
  
 ---------------------------------------------------------------
 Warning -- This program may not be used in any manner that
 competes with the business of Gaussian, Inc. or will provide
 assistance to any competitor of Gaussian, Inc.  The licensee
 of this program is prohibited from giving any competitor of
 Gaussian, Inc. access to this program.  By using this program,
 the user acknowledges that Gaussian, Inc. is engaged in the
 business of creating and licensing software in the field of
 computational chemistry and represents and warrants to the
 licensee that it is not a competitor of Gaussian, Inc. and that
 it will not use this program in any manner prohibited above.
 ---------------------------------------------------------------
  

 Cite this work as:
 Gaussian 16, Revision A.03,
 M. J. Frisch, G. W. Trucks, H. B. Schlegel, G. E. Scuseria, 
 M. A. Robb, J. R. Cheeseman, G. Scalmani, V. Barone, 
 G. A. Petersson, H. Nakatsuji, X. Li, M. Caricato, A. V. Marenich, 
 J. Bloino, B. G. Janesko, R. Gomperts, B. Mennucci, H. P. Hratchian, 
 J. V. Ortiz, A. F. Izmaylov, J. L. Sonnenberg, D. Williams-Young, 
 F. Ding, F. Lipparini, F. Egidi, J. Goings, B. Peng, A. Petrone, 
 T. Henderson, D. Ranasinghe, V. G. Zakrzewski, J. Gao, N. Rega, 
 G. Zheng, W. Liang, M. Hada, M. Ehara, K. Toyota, R. Fukuda, 
 J. Hasegawa, M. Ishida, T. Nakajima, Y. Honda, O. Kitao, H. Nakai, 
 T. Vreven, K. Throssell, J. A. Montgomery, Jr., J. E. Peralta, 
 F. Ogliaro, M. J. Bearpark, J. J. Heyd, E. N. Brothers, K. N. Kudin, 
 V. N. Staroverov, T. A. Keith, R. Kobayashi, J. Normand, 
 K. Raghavachari, A. P. Rendell, J. C. Burant, S. S. Iyengar, 
 J. Tomasi, M. Cossi, J. M. Millam, M. Klene, C. Adamo, R. Cammi, 
 J. W. Ochterski, R. L. Martin, K. Morokuma, O. Farkas, 
 J. B. Foresman, and D. J. Fox, Gaussian, Inc., Wallingford CT, 2016.
 
 ******************************************
 Gaussian 16:  ES64L-G16RevA.03 25-Dec-2016
                26-Apr-2022 
 ******************************************
 %chk=BI_PA_H2O_2.chk
 %nproc=16
 Will use up to   16 processors via shared memory.
 %mem=40000MB
 ---------------------------------------------------
 #p M062X/6-311+G(2d,p) nosymm em=GD3 counterpoise=4
 ---------------------------------------------------
 1/38=1,62=4,172=1/1;
 2/12=2,15=1,17=6,18=5,40=1/2;
 1/38=1,53=2,62=4,63=1/22;
 3/5=4,6=6,7=112,11=2,25=1,30=1,74=-55,124=31/1,2,3;
 4//1;
 5/5=2,38=5/2;
 6/7=2,8=2,9=2,10=2,28=1/1;
 1/53=2,62=4,63=1/22;
 3/5=7,6=11,7=112,11=2,25=1,30=1,74=-55,82=7,124=31/1,2,3;
 4//1;
 5/5=2,38=5/2;
 6/7=2,8=2,9=2,10=2,28=1/1;
 1/53=2,62=4,63=1/22(-4);
 99/5=1,9=1/99;
 Leave Link    1 at Tue Apr 26 17:34:34 2022, MaxMem=  5242880000 cpu:               0.6 elap:               0.0
 (Enter /data0/hywu0/study/g16/l101.exe)
 -------------------
 Title Card Required
 -------------------
 Symbolic Z-matrix:
 Charge =  0 Multiplicity = 1 in supermolecule
 Charge =  0 Multiplicity = 1 in fragment      1.
 Charge =  0 Multiplicity = 1 in fragment      2.
 Charge =  0 Multiplicity = 1 in fragment      3.
 Charge =  0 Multiplicity = 1 in fragment      4.
 C                     6.63533   14.60377   11.17031    
 C                     6.12067   15.45263   10.1324    
 C                     5.17017   14.96601   9.23012    
 C                     4.75611   13.65426   9.3819     
 C                     5.26141   12.82867   10.40878    
 C                     6.20208   13.2843   11.31725    
 H                     4.7825    15.61077   8.44368    
 H                     4.0157    13.23927   8.69817    
 H                     4.89432   11.80414   10.48294    
 H                     6.586     12.64705   12.10783    
 H                     8.14556   15.05992   12.6127    
 C                     7.59743   16.63715   11.24939    
 H                     8.26211   17.42959   11.57457    
 N                     7.56119   15.38174   11.87457    
 N                     6.73857   16.70551   10.22659    
 P                     9.54794   16.89918   8.24962    
 O                     9.6077    16.01979   9.42286    
 O                     8.09883   17.38428   7.81141    
 H                     7.4687    17.40694   8.65348    
 O                     10.39019   18.22559   8.50029    
 H                     10.37003   18.78139   7.63218    
 O                     10.14559   16.37055   6.87947    
 H                     9.67948   15.45716   6.64839    
 O                     8.82986   13.8878   6.34496    
 H                     8.83685   13.48119   7.233      
 H                     7.90812   14.06744   6.1682     
 O                     8.70397   13.15834   9.05054    
 H                     7.81421   13.2298   9.40208    
 H                     9.12939   13.99577   9.29235    
 
 ITRead=  0  0  0  0  0  0  0  0  0  0  0  0  0  0  0  0  0  0  0  0
 ITRead=  0  0  0  0  0  0  0  0  0
 MicOpt= -1 -1 -1 -1 -1 -1 -1 -1 -1 -1 -1 -1 -1 -1 -1 -1 -1 -1 -1 -1
 MicOpt= -1 -1 -1 -1 -1 -1 -1 -1 -1
 NAtoms=     29 NQM=       29 NQMF=       0 NMMI=      0 NMMIF=      0
                NMic=       0 NMicF=      0.
                    Isotopes and Nuclear Properties:
 (Nuclear quadrupole moments (NQMom) in fm**2, nuclear magnetic moments (NMagM)
  in nuclear magnetons)

  Atom         1           2           3           4           5           6           7           8           9          10
 IAtWgt=          12          12          12          12          12          12           1           1           1           1
 AtmWgt=  12.0000000  12.0000000  12.0000000  12.0000000  12.0000000  12.0000000   1.0078250   1.0078250   1.0078250   1.0078250
 NucSpn=           0           0           0           0           0           0           1           1           1           1
 AtZEff=  -0.0000000  -0.0000000  -0.0000000  -0.0000000  -0.0000000  -0.0000000  -0.0000000  -0.0000000  -0.0000000  -0.0000000
 NQMom=    0.0000000   0.0000000   0.0000000   0.0000000   0.0000000   0.0000000   0.0000000   0.0000000   0.0000000   0.0000000
 NMagM=    0.0000000   0.0000000   0.0000000   0.0000000   0.0000000   0.0000000   2.7928460   2.7928460   2.7928460   2.7928460
 AtZNuc=   6.0000000   6.0000000   6.0000000   6.0000000   6.0000000   6.0000000   1.0000000   1.0000000   1.0000000   1.0000000

  Atom        11          12          13          14          15          16          17          18          19          20
 IAtWgt=           1          12           1          14          14          31          16          16           1          16
 AtmWgt=   1.0078250  12.0000000   1.0078250  14.0030740  14.0030740  30.9737634  15.9949146  15.9949146   1.0078250  15.9949146
 NucSpn=           1           0           1           2           2           1           0           0           1           0
 AtZEff=  -0.0000000  -0.0000000  -0.0000000  -0.0000000  -0.0000000  -0.0000000  -0.0000000  -0.0000000  -0.0000000  -0.0000000
 NQMom=    0.0000000   0.0000000   0.0000000   2.0440000   2.0440000   0.0000000   0.0000000   0.0000000   0.0000000   0.0000000
 NMagM=    2.7928460   0.0000000   2.7928460   0.4037610   0.4037610   1.1316000   0.0000000   0.0000000   2.7928460   0.0000000
 AtZNuc=   1.0000000   6.0000000   1.0000000   7.0000000   7.0000000  15.0000000   8.0000000   8.0000000   1.0000000   8.0000000

  Atom        21          22          23          24          25          26          27          28          29
 IAtWgt=           1          16           1          16           1           1          16           1           1
 AtmWgt=   1.0078250  15.9949146   1.0078250  15.9949146   1.0078250   1.0078250  15.9949146   1.0078250   1.0078250
 NucSpn=           1           0           1           0           1           1           0           1           1
 AtZEff=  -0.0000000  -0.0000000  -0.0000000  -0.0000000  -0.0000000  -0.0000000  -0.0000000  -0.0000000  -0.0000000
 NQMom=    0.0000000   0.0000000   0.0000000   0.0000000   0.0000000   0.0000000   0.0000000   0.0000000   0.0000000
 NMagM=    2.7928460   0.0000000   2.7928460   0.0000000   2.7928460   2.7928460   0.0000000   2.7928460   2.7928460
 AtZNuc=   1.0000000   8.0000000   1.0000000   8.0000000   1.0000000   1.0000000   8.0000000   1.0000000   1.0000000
 Leave Link  101 at Tue Apr 26 17:34:34 2022, MaxMem=  5242880000 cpu:               2.7 elap:               0.2
 (Enter /data0/hywu0/study/g16/l202.exe)
                          Input orientation:                          
 ---------------------------------------------------------------------
 Center     Atomic      Atomic             Coordinates (Angstroms)
 Number     Number       Type             X           Y           Z
 ---------------------------------------------------------------------
      1          6           0        6.635329   14.603765   11.170309
      2          6           0        6.120670   15.452629   10.132403
      3          6           0        5.170173   14.966014    9.230123
      4          6           0        4.756111   13.654264    9.381903
      5          6           0        5.261407   12.828667   10.408784
      6          6           0        6.202080   13.284302   11.317248
      7          1           0        4.782497   15.610770    8.443678
      8          1           0        4.015704   13.239272    8.698169
      9          1           0        4.894323   11.804143   10.482939
     10          1           0        6.585999   12.647051   12.107827
     11          1           0        8.145565   15.059925   12.612696
     12          6           0        7.597426   16.637153   11.249394
     13          1           0        8.262109   17.429595   11.574569
     14          7           0        7.561187   15.381739   11.874571
     15          7           0        6.738567   16.705510   10.226588
     16         15           0        9.547939   16.899181    8.249616
     17          8           0        9.607698   16.019786    9.422860
     18          8           0        8.098830   17.384281    7.811414
     19          1           0        7.468700   17.406937    8.653482
     20          8           0       10.390186   18.225593    8.500291
     21          1           0       10.370026   18.781395    7.632182
     22          8           0       10.145594   16.370554    6.879466
     23          1           0        9.679480   15.457157    6.648388
     24          8           0        8.829859   13.887798    6.344960
     25          1           0        8.836853   13.481191    7.232997
     26          1           0        7.908120   14.067438    6.168199
     27          8           0        8.703970   13.158344    9.050538
     28          1           0        7.814211   13.229797    9.402076
     29          1           0        9.129393   13.995769    9.292346
 ---------------------------------------------------------------------
                    Distance matrix (angstroms):
                    1          2          3          4          5
     1  C    0.000000
     2  C    1.436208   0.000000
     3  C    2.458094   1.397980   0.000000
     4  C    2.762500   2.378947   1.383898   0.000000
     5  C    2.370349   2.774869   2.442502   1.411176   0.000000
     6  C    1.396524   2.472272   2.872121   2.444025   1.384838
     7  H    3.446964   2.160442   1.088347   2.169995   3.439636
     8  H    3.851721   3.374442   2.144158   1.089914   2.155592
     9  H    3.367709   3.865004   3.412194   2.157390   1.090825
    10  H    2.170277   3.462672   3.957693   3.434185   2.162007
    11  H    2.137610   3.225875   4.505949   4.888998   4.260764
    12  C    2.250900   2.198084   3.572355   4.523076   4.546227
    13  H    3.285598   3.251768   4.596273   5.599369   5.615319
    14  N    1.399443   2.261695   3.589273   4.131103   3.735732
    15  N    2.306209   1.400135   2.545319   3.735469   4.152723
    16  P    4.720453   4.169361   4.885014   5.896878   6.293286
    17  O    3.727421   3.603399   4.564998   5.397710   5.481380
    18  O    4.599487   3.609901   4.054354   5.249117   5.962459
    19  H    3.858328   2.797090   3.402036   4.687354   5.377154
    20  O    5.860511   5.346203   6.197261   7.308700   7.685931
    21  H    6.627133   5.948850   6.644473   7.801605   8.321206
    22  O    5.818491   5.255873   5.679184   6.533525   6.989730
    23  H    5.517509   4.980312   5.219236   5.912875   6.369373
    24  O    5.349071   4.912548   4.783306   5.086549   5.510923
    25  H    4.648581   4.435175   4.431451   4.615215   4.826513
    26  H    5.189292   4.563841   4.204661   4.520372   5.149971
    27  O    3.295747   3.620444   3.973367   3.992660   3.715476
    28  H    2.530652   2.888328   3.167800   3.087484   2.773297
    29  H    3.180685   3.446818   4.076846   4.387510   4.191644
                    6          7          8          9         10
     6  C    0.000000
     7  H    3.960439   0.000000
     8  H    3.412014   2.505342   0.000000
     9  H    2.144101   4.319896   2.452951   0.000000
    10  H    1.085586   5.046012   4.310790   2.492493   0.000000
    11  H    2.933966   5.384642   5.974450   5.070163   2.917036
    12  C    3.632245   4.104793   5.557254   5.590367   4.204855
    13  H    4.636096   5.021783   6.623023   6.646755   5.095727
    14  N    2.560668   4.420928   5.220167   4.674184   2.912717
    15  N    3.630705   2.864164   4.665282   5.243124   4.475872
    16  P    5.802800   4.940354   6.648440   7.252812   6.460611
    17  O    4.761283   4.940512   6.287037   6.411811   5.264509
    18  O    5.718248   3.813550   5.885521   6.967342   6.571847
    19  H    5.069132   3.238197   5.412450   6.431612   5.947115
    20  O    7.063415   6.187623   8.095466   8.681614   7.655474
    21  H    7.821094   6.475482   8.498757   9.316232   8.484128
    22  O    6.691051   5.637982   7.119562   7.836643   7.339683
    23  H    6.213844   5.217960   6.418643   7.137648   6.875449
    24  O    5.656242   4.873847   5.397617   6.078892   6.307535
    25  H    4.864350   4.736946   5.044674   5.377560   5.433792
    26  H    5.480564   4.162835   4.715666   5.729089   6.248575
    27  O    3.378357   4.664828   4.702186   4.289411   3.754229
    28  H    2.503961   3.972260   3.863189   3.424398   3.028066
    29  H    3.629817   4.714231   5.203379   4.914932   4.026764
                   11         12         13         14         15
    11  H    0.000000
    12  C    2.155620   0.000000
    13  H    2.589715   1.084208   0.000000
    14  N    0.994932   1.402934   2.185179   0.000000
    15  N    3.221972   1.337327   2.159290   2.268242   0.000000
    16  P    4.938217   3.587733   3.604166   4.403421   3.440712
    17  O    3.637887   2.785420   2.903106   3.256716   3.057468
    18  O    5.334522   3.553774   3.766968   4.561631   2.853789
    19  H    4.652095   2.710700   3.027005   3.805968   1.870764
    20  O    5.654348   4.228501   3.822762   5.241804   4.315678
    21  H    6.603263   5.036795   4.670449   6.119240   4.922168
    22  O    6.211907   5.065620   5.168469   5.710340   4.787824
    23  H    6.171196   5.186193   5.492423   5.639667   4.796965
    24  O    6.413007   5.755981   6.341567   5.866684   5.232594
    25  H    5.649021   5.256208   5.896564   5.175289   4.874487
    26  H    6.524795   5.702500   6.376382   5.866040   4.979739
    27  O    4.076370   4.261633   4.980919   3.771551   4.222356
    28  H    3.710424   3.881965   4.749594   3.287569   3.730605
    29  H    3.622854   3.626826   4.213299   3.323864   3.732500
                   16         17         18         19         20
    16  P    0.000000
    17  O    1.467450   0.000000
    18  O    1.589736   2.595243   0.000000
    19  H    2.178109   2.662976   1.051977   0.000000
    20  O    1.591096   2.515751   2.536271   3.037885   0.000000
    21  H    2.144710   3.378484   2.672524   3.368958   1.030988
    22  O    1.585544   2.623209   2.466863   3.374461   2.475494
    23  H    2.158858   2.831854   2.750435   3.565052   3.405714
    24  O    3.634801   3.824118   3.861384   4.423389   5.088864
    25  H    3.636181   3.440082   4.014144   4.393302   5.150556
    26  H    3.878153   4.158491   3.706477   4.185926   5.374901
    27  O    3.917604   3.023772   4.445241   4.442307   5.368716
    28  H    4.218810   3.316786   4.457684   4.257731   5.692701
    29  H    3.113241   2.083856   3.838910   3.847352   4.484235
                   21         22         23         24         25
    21  H    0.000000
    22  O    2.535568   0.000000
    23  H    3.534864   1.051168   0.000000
    24  O    5.289267   2.860233   1.810197   0.000000
    25  H    5.531919   3.191584   2.226259   0.976723   0.000000
    26  H    5.515942   3.288850   2.302090   0.955572   1.529714
    27  O    6.033753   4.136439   3.465038   2.805014   1.850768
    28  H    6.362779   4.654381   4.002894   3.287927   2.411203
    29  H    5.215125   3.534722   3.070629   2.964534   2.142729
                   26         27         28         29
    26  H    0.000000
    27  O    3.125333   0.000000
    28  H    3.341919   0.959352   0.000000
    29  H    3.355136   0.969916   1.525928   0.000000
 Symmetry turned off by external request.
 Stoichiometry    C7H13N2O6P
 Framework group  C1[X(C7H13N2O6P)]
 Deg. of freedom    81
 Full point group                 C1      NOp   1
 Rotational constants (GHZ):           0.6944596           0.3171147           0.2710015
 Leave Link  202 at Tue Apr 26 17:34:34 2022, MaxMem=  5242880000 cpu:               0.0 elap:               0.0
 (Enter /data0/hywu0/study/g16/l122.exe)
 Counterpoise: doing full-system calculation.
 Leave Link  122 at Tue Apr 26 17:34:34 2022, MaxMem=  5242880000 cpu:               0.0 elap:               0.0
 (Enter /data0/hywu0/study/g16/l301.exe)
 Standard basis: 6-311+G(2d,p) (5D, 7F)
 Ernie: Thresh=  0.10000D-02 Tol=  0.10000D-05 Strict=F.
   518 basis functions,   790 primitive gaussians,   550 cartesian basis functions
    66 alpha electrons       66 beta electrons
       nuclear repulsion energy      1354.3861276767 Hartrees.
 IExCor= 4336 DFT=T Ex+Corr=M062X ExCW=0 ScaHFX=  0.540000
 ScaDFX=  1.000000  1.000000  1.000000  1.000000 ScalE2=  1.000000  1.000000
 IRadAn=      5 IRanWt=     -1 IRanGd=            0 ICorTp=0 IEmpDi=131
 NAtoms=   29 NActive=   29 NUniq=   29 SFac= 1.00D+00 NAtFMM=   60 NAOKFM=F Big=F
 Integral buffers will be    131072 words long.
 Raffenetti 2 integral format.
 Two-electron integral symmetry is turned off.
 R6Disp:  Grimme-D3 Dispersion energy=       -0.0019325821 Hartrees.
 Nuclear repulsion after empirical dispersion term =     1354.3841950945 Hartrees.
 Leave Link  301 at Tue Apr 26 17:34:34 2022, MaxMem=  5242880000 cpu:               0.7 elap:               0.0
 (Enter /data0/hywu0/study/g16/l302.exe)
 NPDir=0 NMtPBC=     1 NCelOv=     1 NCel=       1 NClECP=     1 NCelD=      1
         NCelK=      1 NCelE2=     1 NClLst=     1 CellRange=     0.0.
 One-electron integrals computed using PRISM.
 NBasis=   518 RedAO= T EigKep=  1.08D-06  NBF=   518
 NBsUse=   518 1.00D-06 EigRej= -1.00D+00 NBFU=   518
 Precomputing XC quadrature grid using
 IXCGrd= 4 IRadAn=           5 IRanWt=          -1 IRanGd=           0 AccXCQ= 0.00D+00.
 Generated NRdTot=       0 NPtTot=           0 NUsed=           0 NTot=          32
 NSgBfM=   549   549   549   549   549 MxSgAt=    29 MxSgA2=    29.
 Leave Link  302 at Tue Apr 26 17:34:34 2022, MaxMem=  5242880000 cpu:               8.2 elap:               0.5
 (Enter /data0/hywu0/study/g16/l303.exe)
 DipDrv:  MaxL=1.
 Leave Link  303 at Tue Apr 26 17:34:34 2022, MaxMem=  5242880000 cpu:               1.2 elap:               0.1
 (Enter /data0/hywu0/study/g16/l401.exe)
 ExpMin= 3.48D-02 ExpMax= 7.75D+04 ExpMxC= 2.65D+03 IAcc=3 IRadAn=         5 AccDes= 0.00D+00
 Harris functional with IExCor= 1009 and IRadAn=       5 diagonalized for initial guess.
 HarFok:  IExCor= 1009 AccDes= 0.00D+00 IRadAn=         5 IDoV= 1 UseB2=F ITyADJ=14
 ICtDFT=  3500011 ScaDFX=  1.000000  1.000000  1.000000  1.000000
 FoFCou: FMM=F IPFlag=           0 FMFlag=      100000 FMFlg1=           0
         NFxFlg=           0 DoJE=T BraDBF=F KetDBF=T FulRan=T
         wScrn=  0.000000 ICntrl=       500 IOpCl=  0 I1Cent=   200000004 NGrid=           0
         NMat0=    1 NMatS0=      1 NMatT0=    0 NMatD0=    1 NMtDS0=    0 NMtDT0=    0
 Symmetry not used in FoFCou.
 Harris En= -1176.40112686320    
 JPrj=0 DoOrth=F DoCkMO=F.
 Leave Link  401 at Tue Apr 26 17:34:37 2022, MaxMem=  5242880000 cpu:              40.5 elap:               2.5
 (Enter /data0/hywu0/study/g16/l502.exe)
 Two-electron integral symmetry not used.
 Closed shell SCF:
 Using DIIS extrapolation, IDIIS=  1040.
 NGot=  5242880000 LenX=  5242262379 LenY=  5241959329
 Requested convergence on RMS density matrix=1.00D-08 within 128 cycles.
 Requested convergence on MAX density matrix=1.00D-06.
 Requested convergence on             energy=1.00D-06.
 No special actions if energy rises.
 Fock matrices will be formed incrementally for  20 cycles.

 Cycle   1  Pass 1  IDiag  1:
 FoFJK:  IHMeth= 1 ICntrl=       0 DoSepK=F KAlg= 0 I1Cent=           0 FoldK=F
 IRaf= 860000000 NMat=       1 IRICut=       1 DoRegI=T DoRafI=F ISym2E= 0 IDoP0=0 IntGTp=1.
 FoFCou: FMM=F IPFlag=           0 FMFlag=      100000 FMFlg1=           0
         NFxFlg=           0 DoJE=F BraDBF=F KetDBF=F FulRan=T
         wScrn=  0.000000 ICntrl=         0 IOpCl=  0 I1Cent=           0 NGrid=           0
         NMat0=    1 NMatS0=      1 NMatT0=    0 NMatD0=    1 NMtDS0=    0 NMtDT0=    0
 Symmetry not used in FoFCou.
 E= -1176.31513387929    
 DIIS: error= 2.67D-02 at cycle   1 NSaved=   1.
 NSaved= 1 IEnMin= 1 EnMin= -1176.31513387929     IErMin= 1 ErrMin= 2.67D-02
 ErrMax= 2.67D-02  0.00D+00 EMaxC= 1.00D-01 BMatC= 9.29D-01 BMatP= 9.29D-01
 IDIUse=3 WtCom= 7.33D-01 WtEn= 2.67D-01
 Coeff-Com:  0.100D+01
 Coeff-En:   0.100D+01
 Coeff:      0.100D+01
 Gap=     0.307 Goal=   None    Shift=    0.000
 GapD=    0.307 DampG=1.000 DampE=0.500 DampFc=0.5000 IDamp=-1.
 Damping current iteration by 5.00D-01
 RMSDP=3.18D-02 MaxDP=5.86D+00              OVMax= 1.94D-01

 Cycle   2  Pass 1  IDiag  1:
 RMSU=  1.13D-02    CP:  1.40D+00
 E= -1176.57728233537     Delta-E=       -0.262148456084 Rises=F Damp=T
 DIIS: error= 7.58D-03 at cycle   2 NSaved=   2.
 NSaved= 2 IEnMin= 2 EnMin= -1176.57728233537     IErMin= 2 ErrMin= 7.58D-03
 ErrMax= 7.58D-03  0.00D+00 EMaxC= 1.00D-01 BMatC= 5.34D-02 BMatP= 9.29D-01
 IDIUse=3 WtCom= 9.24D-01 WtEn= 7.58D-02
 Coeff-Com:  0.403D-02 0.996D+00
 Coeff-En:   0.720D-01 0.928D+00
 Coeff:      0.918D-02 0.991D+00
 Gap=     0.307 Goal=   None    Shift=    0.000
 RMSDP=8.67D-03 MaxDP=1.36D+00 DE=-2.62D-01 OVMax= 1.30D-01

 Cycle   3  Pass 1  IDiag  1:
 RMSU=  3.44D-03    CP:  1.15D+00  6.66D-01
 E= -1176.87562242856     Delta-E=       -0.298340093187 Rises=F Damp=F
 DIIS: error= 3.08D-03 at cycle   3 NSaved=   3.
 NSaved= 3 IEnMin= 3 EnMin= -1176.87562242856     IErMin= 3 ErrMin= 3.08D-03
 ErrMax= 3.08D-03  0.00D+00 EMaxC= 1.00D-01 BMatC= 1.43D-02 BMatP= 5.34D-02
 IDIUse=3 WtCom= 9.69D-01 WtEn= 3.08D-02
 Coeff-Com: -0.555D-01 0.300D+00 0.756D+00
 Coeff-En:   0.000D+00 0.000D+00 0.100D+01
 Coeff:     -0.538D-01 0.290D+00 0.763D+00
 Gap=     0.282 Goal=   None    Shift=    0.000
 RMSDP=1.50D-03 MaxDP=2.91D-01 DE=-2.98D-01 OVMax= 3.52D-02

 Cycle   4  Pass 1  IDiag  1:
 RMSU=  1.24D-03    CP:  1.12D+00  6.53D-01  9.89D-01
 E= -1176.88346214865     Delta-E=       -0.007839720091 Rises=F Damp=F
 DIIS: error= 1.54D-03 at cycle   4 NSaved=   4.
 NSaved= 4 IEnMin= 4 EnMin= -1176.88346214865     IErMin= 4 ErrMin= 1.54D-03
 ErrMax= 1.54D-03  0.00D+00 EMaxC= 1.00D-01 BMatC= 4.24D-03 BMatP= 1.43D-02
 IDIUse=3 WtCom= 9.85D-01 WtEn= 1.54D-02
 Coeff-Com: -0.294D-01 0.795D-01 0.408D+00 0.541D+00
 Coeff-En:   0.000D+00 0.000D+00 0.200D+00 0.800D+00
 Coeff:     -0.290D-01 0.783D-01 0.405D+00 0.545D+00
 Gap=     0.282 Goal=   None    Shift=    0.000
 RMSDP=5.46D-04 MaxDP=7.28D-02 DE=-7.84D-03 OVMax= 1.16D-02

 Cycle   5  Pass 1  IDiag  1:
 RMSU=  3.59D-04    CP:  1.13D+00  6.77D-01  9.89D-01  8.17D-01
 E= -1176.88658569290     Delta-E=       -0.003123544249 Rises=F Damp=F
 DIIS: error= 3.14D-04 at cycle   5 NSaved=   5.
 NSaved= 5 IEnMin= 5 EnMin= -1176.88658569290     IErMin= 5 ErrMin= 3.14D-04
 ErrMax= 3.14D-04  0.00D+00 EMaxC= 1.00D-01 BMatC= 1.38D-04 BMatP= 4.24D-03
 IDIUse=3 WtCom= 9.97D-01 WtEn= 3.14D-03
 Coeff-Com: -0.883D-02 0.167D-01 0.129D+00 0.234D+00 0.629D+00
 Coeff-En:   0.000D+00 0.000D+00 0.000D+00 0.000D+00 0.100D+01
 Coeff:     -0.880D-02 0.167D-01 0.129D+00 0.233D+00 0.631D+00
 Gap=     0.281 Goal=   None    Shift=    0.000
 RMSDP=1.59D-04 MaxDP=2.53D-02 DE=-3.12D-03 OVMax= 2.72D-03

 Cycle   6  Pass 1  IDiag  1:
 RMSU=  9.70D-05    CP:  1.12D+00  6.72D-01  9.85D-01  7.78D-01  8.21D-01
 E= -1176.88669083342     Delta-E=       -0.000105140527 Rises=F Damp=F
 DIIS: error= 1.24D-04 at cycle   6 NSaved=   6.
 NSaved= 6 IEnMin= 6 EnMin= -1176.88669083342     IErMin= 6 ErrMin= 1.24D-04
 ErrMax= 1.24D-04  0.00D+00 EMaxC= 1.00D-01 BMatC= 1.13D-05 BMatP= 1.38D-04
 IDIUse=3 WtCom= 9.99D-01 WtEn= 1.24D-03
 Coeff-Com: -0.159D-02 0.151D-02 0.256D-01 0.573D-01 0.272D+00 0.645D+00
 Coeff-En:   0.000D+00 0.000D+00 0.000D+00 0.000D+00 0.000D+00 0.100D+01
 Coeff:     -0.159D-02 0.151D-02 0.255D-01 0.572D-01 0.272D+00 0.645D+00
 Gap=     0.282 Goal=   None    Shift=    0.000
 RMSDP=6.42D-05 MaxDP=1.54D-02 DE=-1.05D-04 OVMax= 1.17D-03

 Cycle   7  Pass 1  IDiag  1:
 RMSU=  2.89D-05    CP:  1.12D+00  6.70D-01  9.87D-01  8.11D-01  8.90D-01
                    CP:  7.83D-01
 E= -1176.88670064508     Delta-E=       -0.000009811657 Rises=F Damp=F
 DIIS: error= 4.06D-05 at cycle   7 NSaved=   7.
 NSaved= 7 IEnMin= 7 EnMin= -1176.88670064508     IErMin= 7 ErrMin= 4.06D-05
 ErrMax= 4.06D-05  0.00D+00 EMaxC= 1.00D-01 BMatC= 1.32D-06 BMatP= 1.13D-05
 IDIUse=1 WtCom= 1.00D+00 WtEn= 0.00D+00
 Coeff-Com:  0.261D-03-0.109D-02-0.261D-02-0.114D-02 0.526D-01 0.270D+00
 Coeff-Com:  0.682D+00
 Coeff:      0.261D-03-0.109D-02-0.261D-02-0.114D-02 0.526D-01 0.270D+00
 Coeff:      0.682D+00
 Gap=     0.282 Goal=   None    Shift=    0.000
 RMSDP=1.65D-05 MaxDP=2.78D-03 DE=-9.81D-06 OVMax= 5.06D-04

 Cycle   8  Pass 1  IDiag  1:
 RMSU=  8.21D-06    CP:  1.12D+00  6.70D-01  9.87D-01  8.06D-01  8.88D-01
                    CP:  8.63D-01  9.72D-01
 E= -1176.88670191197     Delta-E=       -0.000001266893 Rises=F Damp=F
 DIIS: error= 2.56D-05 at cycle   8 NSaved=   8.
 NSaved= 8 IEnMin= 8 EnMin= -1176.88670191197     IErMin= 8 ErrMin= 2.56D-05
 ErrMax= 2.56D-05  0.00D+00 EMaxC= 1.00D-01 BMatC= 3.56D-07 BMatP= 1.32D-06
 IDIUse=1 WtCom= 1.00D+00 WtEn= 0.00D+00
 Coeff-Com:  0.483D-03-0.936D-03-0.697D-02-0.134D-01-0.299D-01-0.427D-02
 Coeff-Com:  0.368D+00 0.687D+00
 Coeff:      0.483D-03-0.936D-03-0.697D-02-0.134D-01-0.299D-01-0.427D-02
 Coeff:      0.368D+00 0.687D+00
 Gap=     0.282 Goal=   None    Shift=    0.000
 RMSDP=1.17D-05 MaxDP=2.75D-03 DE=-1.27D-06 OVMax= 2.55D-04

 Cycle   9  Pass 1  IDiag  1:
 RMSU=  3.08D-06    CP:  1.12D+00  6.69D-01  9.87D-01  8.08D-01  8.99D-01
                    CP:  8.77D-01  1.07D+00  8.66D-01
 E= -1176.88670230520     Delta-E=       -0.000000393231 Rises=F Damp=F
 DIIS: error= 4.83D-06 at cycle   9 NSaved=   9.
 NSaved= 9 IEnMin= 9 EnMin= -1176.88670230520     IErMin= 9 ErrMin= 4.83D-06
 ErrMax= 4.83D-06  0.00D+00 EMaxC= 1.00D-01 BMatC= 1.38D-08 BMatP= 3.56D-07
 IDIUse=1 WtCom= 1.00D+00 WtEn= 0.00D+00
 Coeff-Com:  0.126D-03-0.218D-03-0.192D-02-0.405D-02-0.110D-01-0.155D-01
 Coeff-Com:  0.793D-01 0.211D+00 0.742D+00
 Coeff:      0.126D-03-0.218D-03-0.192D-02-0.405D-02-0.110D-01-0.155D-01
 Coeff:      0.793D-01 0.211D+00 0.742D+00
 Gap=     0.282 Goal=   None    Shift=    0.000
 RMSDP=1.99D-06 MaxDP=2.91D-04 DE=-3.93D-07 OVMax= 1.06D-04

 Cycle  10  Pass 1  IDiag  1:
 RMSU=  1.01D-06    CP:  1.12D+00  6.70D-01  9.87D-01  8.08D-01  9.00D-01
                    CP:  8.77D-01  1.08D+00  8.91D-01  1.02D+00
 E= -1176.88670232375     Delta-E=       -0.000000018544 Rises=F Damp=F
 DIIS: error= 4.94D-06 at cycle  10 NSaved=  10.
 NSaved=10 IEnMin=10 EnMin= -1176.88670232375     IErMin= 9 ErrMin= 4.83D-06
 ErrMax= 4.94D-06  0.00D+00 EMaxC= 1.00D-01 BMatC= 6.13D-09 BMatP= 1.38D-08
 IDIUse=1 WtCom= 1.00D+00 WtEn= 0.00D+00
 Coeff-Com: -0.401D-04 0.881D-04 0.521D-03 0.726D-03 0.518D-03-0.834D-02
 Coeff-Com: -0.393D-01-0.466D-01 0.405D+00 0.687D+00
 Coeff:     -0.401D-04 0.881D-04 0.521D-03 0.726D-03 0.518D-03-0.834D-02
 Coeff:     -0.393D-01-0.466D-01 0.405D+00 0.687D+00
 Gap=     0.282 Goal=   None    Shift=    0.000
 RMSDP=9.43D-07 MaxDP=1.22D-04 DE=-1.85D-08 OVMax= 4.69D-05

 Cycle  11  Pass 1  IDiag  1:
 RMSU=  3.89D-07    CP:  1.12D+00  6.69D-01  9.87D-01  8.08D-01  9.00D-01
                    CP:  8.79D-01  1.09D+00  9.20D-01  1.16D+00  7.61D-01
 E= -1176.88670233211     Delta-E=       -0.000000008367 Rises=F Damp=F
 DIIS: error= 8.11D-07 at cycle  11 NSaved=  11.
 NSaved=11 IEnMin=11 EnMin= -1176.88670233211     IErMin=11 ErrMin= 8.11D-07
 ErrMax= 8.11D-07  0.00D+00 EMaxC= 1.00D-01 BMatC= 2.60D-10 BMatP= 6.13D-09
 IDIUse=1 WtCom= 1.00D+00 WtEn= 0.00D+00
 Coeff-Com: -0.222D-04 0.447D-04 0.344D-03 0.580D-03 0.115D-02-0.136D-02
 Coeff-Com: -0.195D-01-0.365D-01 0.562D-01 0.191D+00 0.808D+00
 Coeff:     -0.222D-04 0.447D-04 0.344D-03 0.580D-03 0.115D-02-0.136D-02
 Coeff:     -0.195D-01-0.365D-01 0.562D-01 0.191D+00 0.808D+00
 Gap=     0.282 Goal=   None    Shift=    0.000
 RMSDP=1.93D-07 MaxDP=1.54D-05 DE=-8.37D-09 OVMax= 1.96D-05

 Cycle  12  Pass 1  IDiag  1:
 RMSU=  1.19D-07    CP:  1.12D+00  6.69D-01  9.87D-01  8.08D-01  9.00D-01
                    CP:  8.79D-01  1.09D+00  9.29D-01  1.19D+00  7.98D-01
                    CP:  1.05D+00
 E= -1176.88670233262     Delta-E=       -0.000000000509 Rises=F Damp=F
 DIIS: error= 6.36D-07 at cycle  12 NSaved=  12.
 NSaved=12 IEnMin=12 EnMin= -1176.88670233262     IErMin=12 ErrMin= 6.36D-07
 ErrMax= 6.36D-07  0.00D+00 EMaxC= 1.00D-01 BMatC= 6.77D-11 BMatP= 2.60D-10
 IDIUse=1 WtCom= 1.00D+00 WtEn= 0.00D+00
 Coeff-Com: -0.369D-05 0.657D-05 0.837D-04 0.160D-03 0.437D-03 0.496D-03
 Coeff-Com: -0.342D-02-0.105D-01-0.293D-01-0.158D-01 0.340D+00 0.717D+00
 Coeff:     -0.369D-05 0.657D-05 0.837D-04 0.160D-03 0.437D-03 0.496D-03
 Coeff:     -0.342D-02-0.105D-01-0.293D-01-0.158D-01 0.340D+00 0.717D+00
 Gap=     0.282 Goal=   None    Shift=    0.000
 RMSDP=1.27D-07 MaxDP=2.66D-05 DE=-5.09D-10 OVMax= 8.15D-06

 Cycle  13  Pass 1  IDiag  1:
 RMSU=  5.66D-08    CP:  1.12D+00  6.69D-01  9.87D-01  8.08D-01  9.00D-01
                    CP:  8.79D-01  1.09D+00  9.28D-01  1.19D+00  7.96D-01
                    CP:  1.19D+00  1.10D+00
 E= -1176.88670233280     Delta-E=       -0.000000000174 Rises=F Damp=F
 DIIS: error= 1.53D-07 at cycle  13 NSaved=  13.
 NSaved=13 IEnMin=13 EnMin= -1176.88670233280     IErMin=13 ErrMin= 1.53D-07
 ErrMax= 1.53D-07  0.00D+00 EMaxC= 1.00D-01 BMatC= 1.25D-11 BMatP= 6.77D-11
 IDIUse=1 WtCom= 1.00D+00 WtEn= 0.00D+00
 Coeff-Com:  0.315D-05-0.639D-05-0.332D-04-0.498D-04-0.364D-04 0.579D-03
 Coeff-Com:  0.274D-02 0.316D-02-0.231D-01-0.474D-01-0.142D-01 0.329D+00
 Coeff-Com:  0.749D+00
 Coeff:      0.315D-05-0.639D-05-0.332D-04-0.498D-04-0.364D-04 0.579D-03
 Coeff:      0.274D-02 0.316D-02-0.231D-01-0.474D-01-0.142D-01 0.329D+00
 Coeff:      0.749D+00
 Gap=     0.282 Goal=   None    Shift=    0.000
 RMSDP=6.72D-08 MaxDP=9.58D-06 DE=-1.74D-10 OVMax= 3.37D-06

 Cycle  14  Pass 1  IDiag  1:
 RMSU=  2.81D-08    CP:  1.12D+00  6.69D-01  9.87D-01  8.08D-01  9.00D-01
                    CP:  8.79D-01  1.09D+00  9.28D-01  1.19D+00  7.91D-01
                    CP:  1.26D+00  1.26D+00  1.18D+00
 E= -1176.88670233279     Delta-E=        0.000000000008 Rises=F Damp=F
 DIIS: error= 6.42D-08 at cycle  14 NSaved=  14.
 NSaved=14 IEnMin=13 EnMin= -1176.88670233280     IErMin=14 ErrMin= 6.42D-08
 ErrMax= 6.42D-08  0.00D+00 EMaxC= 1.00D-01 BMatC= 8.24D-13 BMatP= 1.25D-11
 IDIUse=1 WtCom= 1.00D+00 WtEn= 0.00D+00
 Coeff-Com:  0.111D-05-0.224D-05-0.173D-04-0.295D-04-0.664D-04 0.800D-04
 Coeff-Com:  0.954D-03 0.198D-02-0.158D-02-0.988D-02-0.466D-01 0.330D-02
 Coeff-Com:  0.194D+00 0.858D+00
 Coeff:      0.111D-05-0.224D-05-0.173D-04-0.295D-04-0.664D-04 0.800D-04
 Coeff:      0.954D-03 0.198D-02-0.158D-02-0.988D-02-0.466D-01 0.330D-02
 Coeff:      0.194D+00 0.858D+00
 Gap=     0.282 Goal=   None    Shift=    0.000
 RMSDP=1.84D-08 MaxDP=3.12D-06 DE= 8.19D-12 OVMax= 1.15D-06

 Cycle  15  Pass 1  IDiag  1:
 RMSU=  7.12D-09    CP:  1.12D+00  6.69D-01  9.87D-01  8.08D-01  9.00D-01
                    CP:  8.79D-01  1.09D+00  9.28D-01  1.19D+00  7.89D-01
                    CP:  1.27D+00  1.29D+00  1.30D+00  1.14D+00
 E= -1176.88670233275     Delta-E=        0.000000000044 Rises=F Damp=F
 DIIS: error= 2.01D-08 at cycle  15 NSaved=  15.
 NSaved=15 IEnMin=13 EnMin= -1176.88670233280     IErMin=15 ErrMin= 2.01D-08
 ErrMax= 2.01D-08  0.00D+00 EMaxC= 1.00D-01 BMatC= 1.79D-13 BMatP= 8.24D-13
 IDIUse=1 WtCom= 1.00D+00 WtEn= 0.00D+00
 Coeff-Com: -0.402D-07 0.498D-07-0.198D-05-0.372D-05-0.176D-04-0.271D-04
 Coeff-Com: -0.158D-04 0.336D-03 0.239D-02 0.227D-02-0.153D-01-0.421D-01
 Coeff-Com: -0.331D-01 0.342D+00 0.744D+00
 Coeff:     -0.402D-07 0.498D-07-0.198D-05-0.372D-05-0.176D-04-0.271D-04
 Coeff:     -0.158D-04 0.336D-03 0.239D-02 0.227D-02-0.153D-01-0.421D-01
 Coeff:     -0.331D-01 0.342D+00 0.744D+00
 Gap=     0.282 Goal=   None    Shift=    0.000
 RMSDP=8.52D-09 MaxDP=1.27D-06 DE= 4.41D-11 OVMax= 3.41D-07

 Cycle  16  Pass 1  IDiag  1:
 RMSU=  2.73D-09    CP:  1.12D+00  6.69D-01  9.87D-01  8.08D-01  9.00D-01
                    CP:  8.79D-01  1.09D+00  9.28D-01  1.19D+00  7.88D-01
                    CP:  1.28D+00  1.30D+00  1.32D+00  1.22D+00  9.45D-01
 E= -1176.88670233283     Delta-E=       -0.000000000083 Rises=F Damp=F
 DIIS: error= 5.57D-09 at cycle  16 NSaved=  16.
 NSaved=16 IEnMin=16 EnMin= -1176.88670233283     IErMin=16 ErrMin= 5.57D-09
 ErrMax= 5.57D-09  0.00D+00 EMaxC= 1.00D-01 BMatC= 2.68D-14 BMatP= 1.79D-13
 IDIUse=1 WtCom= 1.00D+00 WtEn= 0.00D+00
 Coeff-Com: -0.144D-06 0.273D-06 0.938D-06 0.163D-05-0.664D-06-0.181D-04
 Coeff-Com: -0.121D-03-0.687D-04 0.116D-02 0.202D-02-0.967D-03-0.185D-01
 Coeff-Com: -0.401D-01 0.556D-01 0.333D+00 0.668D+00
 Coeff:     -0.144D-06 0.273D-06 0.938D-06 0.163D-05-0.664D-06-0.181D-04
 Coeff:     -0.121D-03-0.687D-04 0.116D-02 0.202D-02-0.967D-03-0.185D-01
 Coeff:     -0.401D-01 0.556D-01 0.333D+00 0.668D+00
 Gap=     0.282 Goal=   None    Shift=    0.000
 RMSDP=2.60D-09 MaxDP=3.85D-07 DE=-8.28D-11 OVMax= 9.98D-08

 SCF Done:  E(RM062X) =  -1176.88670233     A.U. after   16 cycles
            NFock= 16  Conv=0.26D-08     -V/T= 2.0034
 KE= 1.172946705473D+03 PE=-5.480672594202D+03 EE= 1.776454991302D+03
 Leave Link  502 at Tue Apr 26 17:37:18 2022, MaxMem=  5242880000 cpu:            2562.2 elap:             160.7
 (Enter /data0/hywu0/study/g16/l601.exe)
 Copying SCF densities to generalized density rwf, IOpCl= 0 IROHF=0.

 **********************************************************************

            Population analysis using the SCF density.

 **********************************************************************

 Alpha  occ. eigenvalues --  -78.15093 -19.66016 -19.64349 -19.64198 -19.62943
 Alpha  occ. eigenvalues --  -19.62229 -19.58673 -14.82949 -14.77023 -10.64798
 Alpha  occ. eigenvalues --  -10.60994 -10.59536 -10.57320 -10.56716 -10.56635
 Alpha  occ. eigenvalues --  -10.56265  -6.95813  -5.07726  -5.07674  -5.07564
 Alpha  occ. eigenvalues --   -1.21582  -1.14589  -1.14328  -1.13952  -1.13100
 Alpha  occ. eigenvalues --   -1.12690  -1.08890  -1.00596  -0.97346  -0.86674
 Alpha  occ. eigenvalues --   -0.85506  -0.73913  -0.73170  -0.70418  -0.69909
 Alpha  occ. eigenvalues --   -0.64739  -0.63201  -0.61969  -0.60830  -0.60339
 Alpha  occ. eigenvalues --   -0.59430  -0.57992  -0.54637  -0.54386  -0.53462
 Alpha  occ. eigenvalues --   -0.52949  -0.52434  -0.50768  -0.50266  -0.48416
 Alpha  occ. eigenvalues --   -0.47523  -0.46580  -0.45518  -0.45211  -0.44388
 Alpha  occ. eigenvalues --   -0.43761  -0.43345  -0.41108  -0.40789  -0.39930
 Alpha  occ. eigenvalues --   -0.39381  -0.38252  -0.38086  -0.37183  -0.30907
 Alpha  occ. eigenvalues --   -0.30209
 Alpha virt. eigenvalues --   -0.02043  -0.00475   0.00555   0.00714   0.01545
 Alpha virt. eigenvalues --    0.02056   0.02654   0.03324   0.03600   0.04285
 Alpha virt. eigenvalues --    0.04523   0.05611   0.05800   0.06482   0.07321
 Alpha virt. eigenvalues --    0.07475   0.08460   0.09713   0.09833   0.10764
 Alpha virt. eigenvalues --    0.11473   0.12026   0.12290   0.12572   0.13194
 Alpha virt. eigenvalues --    0.14122   0.14621   0.15000   0.15388   0.15818
 Alpha virt. eigenvalues --    0.16183   0.16404   0.16906   0.17415   0.17656
 Alpha virt. eigenvalues --    0.17784   0.18079   0.18794   0.19406   0.19457
 Alpha virt. eigenvalues --    0.19745   0.20279   0.20430   0.20702   0.21282
 Alpha virt. eigenvalues --    0.21849   0.22323   0.22517   0.22769   0.22975
 Alpha virt. eigenvalues --    0.23467   0.23998   0.24214   0.24479   0.24699
 Alpha virt. eigenvalues --    0.25064   0.25379   0.25980   0.26111   0.26233
 Alpha virt. eigenvalues --    0.26848   0.27198   0.27587   0.28292   0.28477
 Alpha virt. eigenvalues --    0.28804   0.29795   0.30327   0.30428   0.30912
 Alpha virt. eigenvalues --    0.31639   0.31873   0.32402   0.33052   0.33707
 Alpha virt. eigenvalues --    0.34242   0.34962   0.35089   0.36018   0.36508
 Alpha virt. eigenvalues --    0.36713   0.37357   0.38490   0.39230   0.39992
 Alpha virt. eigenvalues --    0.40160   0.41831   0.43343   0.44139   0.44207
 Alpha virt. eigenvalues --    0.44637   0.45440   0.47061   0.47990   0.48957
 Alpha virt. eigenvalues --    0.50271   0.51372   0.52822   0.52993   0.53785
 Alpha virt. eigenvalues --    0.54189   0.54982   0.55714   0.56241   0.57005
 Alpha virt. eigenvalues --    0.57672   0.58237   0.59592   0.60772   0.61833
 Alpha virt. eigenvalues --    0.63454   0.64236   0.64813   0.65209   0.65542
 Alpha virt. eigenvalues --    0.65923   0.66448   0.66630   0.67959   0.68276
 Alpha virt. eigenvalues --    0.68800   0.69109   0.70463   0.71376   0.72252
 Alpha virt. eigenvalues --    0.72777   0.74299   0.74722   0.75192   0.76398
 Alpha virt. eigenvalues --    0.78278   0.79743   0.80269   0.81538   0.82100
 Alpha virt. eigenvalues --    0.82305   0.82961   0.83443   0.84288   0.84783
 Alpha virt. eigenvalues --    0.85236   0.85602   0.86611   0.87614   0.88143
 Alpha virt. eigenvalues --    0.88281   0.89623   0.90892   0.92156   0.92535
 Alpha virt. eigenvalues --    0.93471   0.95006   0.97518   0.98446   1.00656
 Alpha virt. eigenvalues --    1.01518   1.03060   1.03278   1.04557   1.05180
 Alpha virt. eigenvalues --    1.06233   1.07326   1.08315   1.08807   1.11343
 Alpha virt. eigenvalues --    1.11554   1.12010   1.13152   1.13901   1.15072
 Alpha virt. eigenvalues --    1.16117   1.17171   1.17746   1.19012   1.20214
 Alpha virt. eigenvalues --    1.20736   1.21571   1.22146   1.23015   1.23937
 Alpha virt. eigenvalues --    1.24392   1.25157   1.25722   1.26311   1.27655
 Alpha virt. eigenvalues --    1.28005   1.30595   1.30986   1.31215   1.32284
 Alpha virt. eigenvalues --    1.32469   1.32765   1.34804   1.35062   1.35548
 Alpha virt. eigenvalues --    1.36704   1.37597   1.38941   1.39340   1.40566
 Alpha virt. eigenvalues --    1.40970   1.42229   1.43789   1.44233   1.44897
 Alpha virt. eigenvalues --    1.45923   1.47047   1.48757   1.49604   1.50532
 Alpha virt. eigenvalues --    1.51452   1.52923   1.53469   1.54631   1.56595
 Alpha virt. eigenvalues --    1.57704   1.58034   1.59765   1.61299   1.62150
 Alpha virt. eigenvalues --    1.62940   1.63917   1.65066   1.66727   1.67213
 Alpha virt. eigenvalues --    1.67617   1.68788   1.71305   1.71470   1.73387
 Alpha virt. eigenvalues --    1.73994   1.75216   1.76475   1.77092   1.78236
 Alpha virt. eigenvalues --    1.81247   1.82401   1.83278   1.85359   1.86302
 Alpha virt. eigenvalues --    1.87590   1.87828   1.89027   1.90256   1.91841
 Alpha virt. eigenvalues --    1.93611   1.94799   1.96536   1.97175   1.98171
 Alpha virt. eigenvalues --    1.98508   2.00326   2.01765   2.03947   2.06014
 Alpha virt. eigenvalues --    2.06893   2.08060   2.08570   2.10189   2.12089
 Alpha virt. eigenvalues --    2.13344   2.14207   2.15521   2.18006   2.18678
 Alpha virt. eigenvalues --    2.19370   2.20989   2.21615   2.25964   2.28681
 Alpha virt. eigenvalues --    2.30645   2.31665   2.34817   2.35805   2.36842
 Alpha virt. eigenvalues --    2.42314   2.43268   2.46506   2.47388   2.49840
 Alpha virt. eigenvalues --    2.52975   2.56889   2.59557   2.61806   2.62929
 Alpha virt. eigenvalues --    2.63233   2.63978   2.64825   2.66386   2.67477
 Alpha virt. eigenvalues --    2.69648   2.70519   2.71924   2.72996   2.76498
 Alpha virt. eigenvalues --    2.77996   2.78637   2.78898   2.81115   2.82647
 Alpha virt. eigenvalues --    2.83662   2.85511   2.86991   2.88343   2.89880
 Alpha virt. eigenvalues --    2.92034   2.95071   2.95784   2.96239   2.98414
 Alpha virt. eigenvalues --    2.98688   2.99501   3.01167   3.05494   3.07192
 Alpha virt. eigenvalues --    3.10039   3.12588   3.12898   3.14695   3.15620
 Alpha virt. eigenvalues --    3.17511   3.22104   3.22762   3.28153   3.28620
 Alpha virt. eigenvalues --    3.29078   3.30893   3.34885   3.35946   3.37579
 Alpha virt. eigenvalues --    3.37850   3.39317   3.41774   3.42321   3.44676
 Alpha virt. eigenvalues --    3.47331   3.49132   3.49428   3.52584   3.54876
 Alpha virt. eigenvalues --    3.57570   3.57987   3.59143   3.60044   3.62356
 Alpha virt. eigenvalues --    3.63635   3.67320   3.71439   3.73098   3.73785
 Alpha virt. eigenvalues --    3.76654   3.78776   3.80854   3.86514   3.91474
 Alpha virt. eigenvalues --    3.93078   3.94171   3.94632   3.98304   3.99991
 Alpha virt. eigenvalues --    4.02910   4.03551   4.08785   4.13660   4.24765
 Alpha virt. eigenvalues --    4.42310   4.56624   4.65185   4.70267   4.73518
 Alpha virt. eigenvalues --    4.90484   4.98368   5.01676   5.03288   5.06151
 Alpha virt. eigenvalues --    5.08363   5.10876   5.11467   5.12808   5.14444
 Alpha virt. eigenvalues --    5.17442   5.18041   5.21408   5.21898   5.22775
 Alpha virt. eigenvalues --    5.24330   5.27805   5.29987   5.31690   5.33430
 Alpha virt. eigenvalues --    5.40901   5.42630   5.45099   5.54687   5.55214
 Alpha virt. eigenvalues --    5.57430   5.60909   5.63067   5.63601   5.66974
 Alpha virt. eigenvalues --    5.95704   5.99191   6.75225   6.77045   6.78987
 Alpha virt. eigenvalues --    6.79933   6.80364   6.81603   6.82584   6.83511
 Alpha virt. eigenvalues --    6.84723   6.85305   6.86663   6.89648   6.92280
 Alpha virt. eigenvalues --    6.92947   6.93450   6.94842   6.98640   6.99280
 Alpha virt. eigenvalues --    7.01115   7.01703   7.06958   7.09002   7.15467
 Alpha virt. eigenvalues --    7.16273   7.17411   7.25230   7.30179   7.34685
 Alpha virt. eigenvalues --    7.37744   7.44688   7.69731  14.26584  14.29299
 Alpha virt. eigenvalues --   14.42096  23.78852  24.01346  24.05889  24.10447
 Alpha virt. eigenvalues --   24.11879  24.22757  24.26661  35.74549  35.79856
 Alpha virt. eigenvalues --   50.02282  50.04303  50.05580  50.07509  50.08060
 Alpha virt. eigenvalues --   50.12957 163.93970
          Condensed to atoms (all electrons):
               1          2          3          4          5          6
     1  C   16.796149  -8.798887   1.647439  -2.174473   0.940150  -3.273016
     2  C   -8.798887  20.782324  -7.906540   2.220560  -1.941684   1.384524
     3  C    1.647439  -7.906540  16.482653  -1.741471   1.608067  -2.889202
     4  C   -2.174473   2.220560  -1.741471   6.446126  -0.181743   1.252616
     5  C    0.940150  -1.941684   1.608067  -0.181743   5.799758  -0.462683
     6  C   -3.273016   1.384524  -2.889202   1.252616  -0.462683  10.601804
     7  H    0.006207  -0.008037   0.379762  -0.025963   0.009781  -0.013943
     8  H   -0.002733   0.033810  -0.055319   0.389559  -0.033609   0.013899
     9  H    0.042403   0.000613   0.009516  -0.034939   0.391429  -0.061491
    10  H   -0.042947  -0.009288  -0.017527   0.018993   0.016035   0.374862
    11  H   -0.106020   0.133135   0.012170   0.001041  -0.008352  -0.068574
    12  C   -0.445170  -0.041091  -0.429418  -0.011847   0.038002  -0.257500
    13  H   -0.018605   0.049424   0.026341   0.000226   0.000668  -0.001480
    14  N   -0.084996   0.414896  -0.281141   0.074251  -0.031983  -0.003037
    15  N    1.402969  -0.916265  -0.386792  -0.152493   0.052163  -0.036121
    16  P   -0.077430   0.073980  -0.012375   0.014715  -0.005464   0.002179
    17  O   -0.069774   0.087667  -0.068693   0.013747  -0.006887   0.067018
    18  O   -0.010556  -0.155240   0.182922  -0.011759   0.005858  -0.013052
    19  H   -0.005753   0.125821  -0.138714   0.009580  -0.004150   0.008320
    20  O    0.000668  -0.009531   0.007592   0.000425   0.000178   0.001095
    21  H   -0.002301   0.001194   0.001717  -0.000075   0.000036  -0.000459
    22  O   -0.014705   0.002304   0.014469  -0.001437   0.001084  -0.006998
    23  H   -0.002885   0.018464  -0.018303   0.003630  -0.002118   0.003600
    24  O    0.036837  -0.100802   0.105043  -0.037871   0.021613  -0.029399
    25  H   -0.011011   0.020291  -0.028627   0.013756  -0.013195   0.019351
    26  H   -0.004686   0.015609  -0.013071   0.005162  -0.004302   0.002930
    27  O   -0.119814   0.231839  -0.090169   0.025895   0.024574  -0.050677
    28  H    0.003193  -0.003773  -0.006880   0.007082  -0.014736   0.021227
    29  H    0.079220  -0.077856   0.021743  -0.001502  -0.011760   0.015822
               7          8          9         10         11         12
     1  C    0.006207  -0.002733   0.042403  -0.042947  -0.106020  -0.445170
     2  C   -0.008037   0.033810   0.000613  -0.009288   0.133135  -0.041091
     3  C    0.379762  -0.055319   0.009516  -0.017527   0.012170  -0.429418
     4  C   -0.025963   0.389559  -0.034939   0.018993   0.001041  -0.011847
     5  C    0.009781  -0.033609   0.391429   0.016035  -0.008352   0.038002
     6  C   -0.013943   0.013899  -0.061491   0.374862  -0.068574  -0.257500
     7  H    0.506245  -0.004676  -0.000219   0.000069   0.000015   0.001329
     8  H   -0.004676   0.532112  -0.005002  -0.000243  -0.000002   0.000676
     9  H   -0.000219  -0.005002   0.529704  -0.004844  -0.000010   0.000410
    10  H    0.000069  -0.000243  -0.004844   0.520527   0.001733   0.006709
    11  H    0.000015  -0.000002  -0.000010   0.001733   0.383060  -0.012279
    12  C    0.001329   0.000676   0.000410   0.006709  -0.012279   5.821156
    13  H   -0.000018  -0.000000  -0.000000  -0.000010  -0.001825   0.377583
    14  N   -0.000005   0.000399  -0.000455   0.001120   0.383819   0.445839
    15  N    0.002088  -0.000384   0.000277   0.000041  -0.007669   0.399337
    16  P    0.000139  -0.000030  -0.000000   0.000046   0.001001  -0.036228
    17  O    0.000014   0.000000   0.000002  -0.000005  -0.001452   0.035744
    18  O   -0.002028  -0.000005   0.000000  -0.000010   0.000224   0.020399
    19  H    0.001631  -0.000002   0.000000   0.000008  -0.000021  -0.003683
    20  O   -0.000019   0.000000  -0.000000  -0.000000  -0.000111  -0.016893
    21  H   -0.000001  -0.000000  -0.000000   0.000000   0.000002   0.000881
    22  O   -0.000024   0.000001   0.000000   0.000000   0.000008   0.005749
    23  H    0.000064  -0.000001   0.000000  -0.000000   0.000002  -0.000823
    24  O   -0.000627   0.000051  -0.000002   0.000006  -0.000004   0.002084
    25  H    0.000140  -0.000029  -0.000001  -0.000009   0.000001  -0.002208
    26  H    0.000139  -0.000031   0.000002  -0.000001   0.000000  -0.000466
    27  O   -0.000209   0.000104   0.000118  -0.000351  -0.000080   0.033212
    28  H    0.000140  -0.000045  -0.000175  -0.000372  -0.000055  -0.014344
    29  H    0.000033  -0.000015  -0.000011  -0.000164  -0.000867  -0.025687
              13         14         15         16         17         18
     1  C   -0.018605  -0.084996   1.402969  -0.077430  -0.069774  -0.010556
     2  C    0.049424   0.414896  -0.916265   0.073980   0.087667  -0.155240
     3  C    0.026341  -0.281141  -0.386792  -0.012375  -0.068693   0.182922
     4  C    0.000226   0.074251  -0.152493   0.014715   0.013747  -0.011759
     5  C    0.000668  -0.031983   0.052163  -0.005464  -0.006887   0.005858
     6  C   -0.001480  -0.003037  -0.036121   0.002179   0.067018  -0.013052
     7  H   -0.000018  -0.000005   0.002088   0.000139   0.000014  -0.002028
     8  H   -0.000000   0.000399  -0.000384  -0.000030   0.000000  -0.000005
     9  H   -0.000000  -0.000455   0.000277  -0.000000   0.000002   0.000000
    10  H   -0.000010   0.001120   0.000041   0.000046  -0.000005  -0.000010
    11  H   -0.001825   0.383819  -0.007669   0.001001  -0.001452   0.000224
    12  C    0.377583   0.445839   0.399337  -0.036228   0.035744   0.020399
    13  H    0.477823  -0.034518  -0.049676   0.003046  -0.008244   0.000548
    14  N   -0.034518   6.499179  -0.121371   0.019763  -0.013408  -0.009059
    15  N   -0.049676  -0.121371   7.156243  -0.007101  -0.031847  -0.028264
    16  P    0.003046   0.019763  -0.007101  12.636460   0.435120   0.342704
    17  O   -0.008244  -0.013408  -0.031847   0.435120   8.274596  -0.035051
    18  O    0.000548  -0.009059  -0.028264   0.342704  -0.035051   8.053399
    19  H   -0.000762   0.011893   0.041388   0.011745  -0.023466   0.247147
    20  O    0.001049   0.000013   0.006893   0.178211   0.012008  -0.023198
    21  H   -0.000015   0.000033   0.000654   0.025979  -0.005861  -0.007915
    22  O   -0.000040   0.002312  -0.008407   0.242010  -0.031754   0.013982
    23  H   -0.000012   0.000062  -0.000962  -0.001232   0.009783  -0.006663
    24  O    0.000003  -0.000087   0.002882   0.043172  -0.019779  -0.008671
    25  H    0.000003  -0.000084  -0.000368   0.006362   0.003271  -0.000405
    26  H   -0.000000   0.000039  -0.001131  -0.005988   0.000955   0.001198
    27  O   -0.000156   0.001614  -0.027957  -0.014582   0.003059  -0.005718
    28  H    0.000049  -0.005256  -0.001981   0.001946  -0.003921   0.000234
    29  H    0.000114  -0.001496   0.015192   0.017679   0.032448  -0.000237
              19         20         21         22         23         24
     1  C   -0.005753   0.000668  -0.002301  -0.014705  -0.002885   0.036837
     2  C    0.125821  -0.009531   0.001194   0.002304   0.018464  -0.100802
     3  C   -0.138714   0.007592   0.001717   0.014469  -0.018303   0.105043
     4  C    0.009580   0.000425  -0.000075  -0.001437   0.003630  -0.037871
     5  C   -0.004150   0.000178   0.000036   0.001084  -0.002118   0.021613
     6  C    0.008320   0.001095  -0.000459  -0.006998   0.003600  -0.029399
     7  H    0.001631  -0.000019  -0.000001  -0.000024   0.000064  -0.000627
     8  H   -0.000002   0.000000  -0.000000   0.000001  -0.000001   0.000051
     9  H    0.000000  -0.000000  -0.000000   0.000000   0.000000  -0.000002
    10  H    0.000008  -0.000000   0.000000   0.000000  -0.000000   0.000006
    11  H   -0.000021  -0.000111   0.000002   0.000008   0.000002  -0.000004
    12  C   -0.003683  -0.016893   0.000881   0.005749  -0.000823   0.002084
    13  H   -0.000762   0.001049  -0.000015  -0.000040  -0.000012   0.000003
    14  N    0.011893   0.000013   0.000033   0.002312   0.000062  -0.000087
    15  N    0.041388   0.006893   0.000654  -0.008407  -0.000962   0.002882
    16  P    0.011745   0.178211   0.025979   0.242010  -0.001232   0.043172
    17  O   -0.023466   0.012008  -0.005861  -0.031754   0.009783  -0.019779
    18  O    0.247147  -0.023198  -0.007915   0.013982  -0.006663  -0.008671
    19  H    0.340400  -0.001463  -0.001157   0.008089  -0.000423   0.001281
    20  O   -0.001463   8.085286   0.228273  -0.033929  -0.003024   0.005690
    21  H   -0.001157   0.228273   0.453176  -0.007439   0.000345   0.000149
    22  O    0.008089  -0.033929  -0.007439   8.137383   0.253779   0.024767
    23  H   -0.000423  -0.003024   0.000345   0.253779   0.321644  -0.036561
    24  O    0.001281   0.005690   0.000149   0.024767  -0.036561   7.976991
    25  H   -0.000154  -0.000136  -0.000024  -0.013383   0.019496   0.299276
    26  H   -0.000191  -0.000286  -0.000009  -0.003998   0.006330   0.332007
    27  O    0.002296  -0.000730   0.000009   0.006540  -0.005021   0.035261
    28  H    0.000000   0.000088   0.000002  -0.000608   0.000517  -0.011482
    29  H   -0.000865   0.002055  -0.000042  -0.006171   0.003524  -0.019838
              25         26         27         28         29
     1  C   -0.011011  -0.004686  -0.119814   0.003193   0.079220
     2  C    0.020291   0.015609   0.231839  -0.003773  -0.077856
     3  C   -0.028627  -0.013071  -0.090169  -0.006880   0.021743
     4  C    0.013756   0.005162   0.025895   0.007082  -0.001502
     5  C   -0.013195  -0.004302   0.024574  -0.014736  -0.011760
     6  C    0.019351   0.002930  -0.050677   0.021227   0.015822
     7  H    0.000140   0.000139  -0.000209   0.000140   0.000033
     8  H   -0.000029  -0.000031   0.000104  -0.000045  -0.000015
     9  H   -0.000001   0.000002   0.000118  -0.000175  -0.000011
    10  H   -0.000009  -0.000001  -0.000351  -0.000372  -0.000164
    11  H    0.000001   0.000000  -0.000080  -0.000055  -0.000867
    12  C   -0.002208  -0.000466   0.033212  -0.014344  -0.025687
    13  H    0.000003  -0.000000  -0.000156   0.000049   0.000114
    14  N   -0.000084   0.000039   0.001614  -0.005256  -0.001496
    15  N   -0.000368  -0.001131  -0.027957  -0.001981   0.015192
    16  P    0.006362  -0.005988  -0.014582   0.001946   0.017679
    17  O    0.003271   0.000955   0.003059  -0.003921   0.032448
    18  O   -0.000405   0.001198  -0.005718   0.000234  -0.000237
    19  H   -0.000154  -0.000191   0.002296   0.000000  -0.000865
    20  O   -0.000136  -0.000286  -0.000730   0.000088   0.002055
    21  H   -0.000024  -0.000009   0.000009   0.000002  -0.000042
    22  O   -0.013383  -0.003998   0.006540  -0.000608  -0.006171
    23  H    0.019496   0.006330  -0.005021   0.000517   0.003524
    24  O    0.299276   0.332007   0.035261  -0.011482  -0.019838
    25  H    0.321714  -0.020505  -0.003064   0.004582   0.016061
    26  H   -0.020505   0.412237   0.000965  -0.001109   0.000087
    27  O   -0.003064   0.000965   7.984128   0.308875   0.249188
    28  H    0.004582  -0.001109   0.308875   0.379489  -0.011219
    29  H    0.016061   0.000087   0.249188  -0.011219   0.398091
 Mulliken charges:
               1
     1  C    0.310526
     2  C    0.372542
     3  C   -0.415189
     4  C   -0.121791
     5  C   -0.186732
     6  C   -0.601617
     7  H    0.147974
     8  H    0.131515
     9  H    0.132675
    10  H    0.135621
    11  H    0.291108
    12  C    0.108528
    13  H    0.178487
    14  N   -0.268334
    15  N   -0.301338
    16  P    1.104173
    17  O   -0.655291
    18  O   -0.550782
    19  H    0.371202
    20  O   -0.440208
    21  H    0.312848
    22  O   -0.583585
    23  H    0.436787
    24  O   -0.621989
    25  H    0.368901
    26  H    0.278115
    27  O   -0.589149
    28  H    0.348531
    29  H    0.306473
 Sum of Mulliken charges =  -0.00000
 Mulliken charges with hydrogens summed into heavy atoms:
               1
     1  C    0.310526
     2  C    0.372542
     3  C   -0.267215
     4  C    0.009724
     5  C   -0.054057
     6  C   -0.465996
    12  C    0.287014
    14  N    0.022774
    15  N   -0.301338
    16  P    1.104173
    17  O   -0.655291
    18  O   -0.179580
    20  O   -0.127360
    22  O   -0.146798
    24  O    0.025027
    27  O    0.065854
         Mulliken charges condensed to fragments:
      1     -0.086025
      2     -0.004856
      3      0.025027
      4      0.065854
 Electronic spatial extent (au):  <R**2>=         186052.2407
 Charge=             -0.0000 electrons
 Dipole moment (field-independent basis, Debye):
    X=             -3.3535    Y=             -0.0858    Z=              3.3588  Tot=              4.7471
 Quadrupole moment (field-independent basis, Debye-Ang):
   XX=           -160.7019   YY=           -100.1680   ZZ=            -28.7194
   XY=            -42.2370   XZ=              3.4801   YZ=             44.7245
 Traceless Quadrupole moment (field-independent basis, Debye-Ang):
   XX=            -64.1721   YY=             -3.6382   ZZ=             67.8104
   XY=            -42.2370   XZ=              3.4801   YZ=             44.7245
 Octapole moment (field-independent basis, Debye-Ang**2):
  XXX=          -3152.5798  YYY=          -4542.3930  ZZZ=          -1621.9753  XYY=          -1266.2606
  XXY=          -2332.5478  XXZ=          -1176.0855  XZZ=           -351.3876  YZZ=           -560.5281
  YYZ=           -324.8019  XYZ=             78.6082
 Hexadecapole moment (field-independent basis, Debye-Ang**3):
 XXXX=         -48188.8738 YYYY=        -140166.5879 ZZZZ=         -36158.6037 XXXY=         -47474.1259
 XXXZ=         -26075.1313 YYYX=         -40860.9100 YYYZ=         -34261.7582 ZZZX=         -12435.5693
 ZZZY=         -26395.2608 XXYY=         -40242.6848 XXZZ=         -14089.0750 YYZZ=         -19377.5305
 XXYZ=         -17354.4484 YYXZ=          -5363.6495 ZZXY=          -5840.7313
 N-N= 1.354384195095D+03 E-N=-5.480672593031D+03  KE= 1.172946705473D+03
 No NMR shielding tensors so no spin-rotation constants.
 Leave Link  601 at Tue Apr 26 17:37:18 2022, MaxMem=  5242880000 cpu:               2.7 elap:               0.2
 (Enter /data0/hywu0/study/g16/l122.exe)
 CPIOFr:  IOpCl= 0 IRwI=-1 IRwCP=  731 ICalc= -1 LCPTot=      411835 Len1MO=     1083782 IndFrg=      411835
 CPIOFr:  IOpCl= 0 IRwI=-1 IRwCP=  731 ICalc=  0 LCPTot=      411835 Len1MO=     1083782 IndFrg=     1495617
 Counterpoise: doing calculation for fragment   1 using the basis set of the full-system, NewBq=T
 Leave Link  122 at Tue Apr 26 17:37:18 2022, MaxMem=  5242880000 cpu:               0.3 elap:               0.0
 (Enter /data0/hywu0/study/g16/l301.exe)
 Basis read from rwf:  (5D, 7F)
 No pseudopotential information found on rwf file.
   518 basis functions,   790 primitive gaussians,   550 cartesian basis functions
    31 alpha electrons       31 beta electrons
       nuclear repulsion energy       401.4620850755 Hartrees.
 IExCor= 4336 DFT=T Ex+Corr=M062X ExCW=0 ScaHFX=  0.540000
 ScaDFX=  1.000000  1.000000  1.000000  1.000000 ScalE2=  1.000000  1.000000
 IRadAn=      5 IRanWt=     -1 IRanGd=            0 ICorTp=0 IEmpDi=131
 NAtoms=   29 NActive=   29 NUniq=   29 SFac= 1.00D+00 NAtFMM=   60 NAOKFM=F Big=F
 Integral buffers will be    131072 words long.
 Raffenetti 2 integral format.
 Two-electron integral symmetry is turned off.
 R6Disp:  Grimme-D3 Dispersion energy=       -0.0002903656 Hartrees.
 Nuclear repulsion after empirical dispersion term =      401.4617947099 Hartrees.
 No density basis found on file   718.
 Leave Link  301 at Tue Apr 26 17:37:18 2022, MaxMem=  5242880000 cpu:               0.9 elap:               0.1
 (Enter /data0/hywu0/study/g16/l302.exe)
 NPDir=0 NMtPBC=     1 NCelOv=     1 NCel=       1 NClECP=     1 NCelD=      1
         NCelK=      1 NCelE2=     1 NClLst=     1 CellRange=     0.0.
 One-electron integrals computed using PRISM.
 NBasis=   518 RedAO= T EigKep=  1.08D-06  NBF=   518
 NBsUse=   518 1.00D-06 EigRej= -1.00D+00 NBFU=   518
 Precomputing XC quadrature grid using
 IXCGrd= 4 IRadAn=           5 IRanWt=          -1 IRanGd=           0 AccXCQ= 0.00D+00.
 Generated NRdTot=       0 NPtTot=           0 NUsed=           0 NTot=          32
 NSgBfM=   549   549   549   549   549 MxSgAt=    29 MxSgA2=    29.
 Leave Link  302 at Tue Apr 26 17:37:19 2022, MaxMem=  5242880000 cpu:               9.6 elap:               0.6
 (Enter /data0/hywu0/study/g16/l303.exe)
 DipDrv:  MaxL=1.
 Leave Link  303 at Tue Apr 26 17:37:19 2022, MaxMem=  5242880000 cpu:               1.2 elap:               0.1
 (Enter /data0/hywu0/study/g16/l401.exe)
 ExpMin= 3.48D-02 ExpMax= 7.75D+04 ExpMxC= 2.65D+03 IAcc=3 IRadAn=         5 AccDes= 0.00D+00
 Harris functional with IExCor= 1009 and IRadAn=       5 diagonalized for initial guess.
 HarFok:  IExCor= 1009 AccDes= 0.00D+00 IRadAn=         5 IDoV= 1 UseB2=F ITyADJ=14
 ICtDFT=  3500011 ScaDFX=  1.000000  1.000000  1.000000  1.000000
 FoFCou: FMM=F IPFlag=           0 FMFlag=      100000 FMFlg1=           0
         NFxFlg=           0 DoJE=T BraDBF=F KetDBF=T FulRan=T
         wScrn=  0.000000 ICntrl=       500 IOpCl=  0 I1Cent=   200000004 NGrid=           0
         NMat0=    1 NMatS0=      1 NMatT0=    0 NMatD0=    1 NMtDS0=    0 NMtDT0=    0
 Symmetry not used in FoFCou.
 Harris En= -379.613840769355    
 JPrj=0 DoOrth=F DoCkMO=F.
 Leave Link  401 at Tue Apr 26 17:37:21 2022, MaxMem=  5242880000 cpu:              37.9 elap:               2.4
 (Enter /data0/hywu0/study/g16/l502.exe)
 Two-electron integral symmetry not used.
 Closed shell SCF:
 Using DIIS extrapolation, IDIIS=  1040.
 NGot=  5242880000 LenX=  5242262379 LenY=  5241959329
 Requested convergence on RMS density matrix=1.00D-08 within 128 cycles.
 Requested convergence on MAX density matrix=1.00D-06.
 Requested convergence on             energy=1.00D-06.
 No special actions if energy rises.
 Fock matrices will be formed incrementally for  20 cycles.

 Cycle   1  Pass 1  IDiag  1:
 FoFJK:  IHMeth= 1 ICntrl=       0 DoSepK=F KAlg= 0 I1Cent=           0 FoldK=F
 IRaf= 860000000 NMat=       1 IRICut=       1 DoRegI=T DoRafI=F ISym2E= 0 IDoP0=0 IntGTp=1.
 FoFCou: FMM=F IPFlag=           0 FMFlag=      100000 FMFlg1=           0
         NFxFlg=           0 DoJE=F BraDBF=F KetDBF=F FulRan=T
         wScrn=  0.000000 ICntrl=         0 IOpCl=  0 I1Cent=           0 NGrid=           0
         NMat0=    1 NMatS0=      1 NMatT0=    0 NMatD0=    1 NMtDS0=    0 NMtDT0=    0
 Symmetry not used in FoFCou.
 E= -379.612576868954    
 DIIS: error= 1.51D-02 at cycle   1 NSaved=   1.
 NSaved= 1 IEnMin= 1 EnMin= -379.612576868954     IErMin= 1 ErrMin= 1.51D-02
 ErrMax= 1.51D-02  0.00D+00 EMaxC= 1.00D-01 BMatC= 2.48D-01 BMatP= 2.48D-01
 IDIUse=3 WtCom= 8.49D-01 WtEn= 1.51D-01
 Coeff-Com:  0.100D+01
 Coeff-En:   0.100D+01
 Coeff:      0.100D+01
 Gap=     0.308 Goal=   None    Shift=    0.000
 GapD=    0.308 DampG=1.000 DampE=0.500 DampFc=0.5000 IDamp=-1.
 Damping current iteration by 5.00D-01
 RMSDP=1.14D-02 MaxDP=3.04D+00              OVMax= 2.13D-01

 Cycle   2  Pass 1  IDiag  1:
 RMSU=  5.28D-03    CP:  1.14D+00
 E= -379.709006137637     Delta-E=       -0.096429268683 Rises=F Damp=T
 DIIS: error= 4.78D-03 at cycle   2 NSaved=   2.
 NSaved= 2 IEnMin= 2 EnMin= -379.709006137637     IErMin= 2 ErrMin= 4.78D-03
 ErrMax= 4.78D-03  0.00D+00 EMaxC= 1.00D-01 BMatC= 2.62D-02 BMatP= 2.48D-01
 IDIUse=3 WtCom= 9.52D-01 WtEn= 4.78D-02
 Coeff-Com: -0.934D-01 0.109D+01
 Coeff-En:   0.000D+00 0.100D+01
 Coeff:     -0.889D-01 0.109D+01
 Gap=     0.302 Goal=   None    Shift=    0.000
 RMSDP=4.87D-03 MaxDP=8.81D-01 DE=-9.64D-02 OVMax= 1.74D-01

 Cycle   3  Pass 1  IDiag  1:
 RMSU=  3.34D-03    CP:  9.26D-01  7.33D-01
 E= -379.800551666304     Delta-E=       -0.091545528666 Rises=F Damp=F
 DIIS: error= 5.45D-03 at cycle   3 NSaved=   3.
 NSaved= 3 IEnMin= 3 EnMin= -379.800551666304     IErMin= 2 ErrMin= 4.78D-03
 ErrMax= 5.45D-03  0.00D+00 EMaxC= 1.00D-01 BMatC= 1.76D-02 BMatP= 2.62D-02
 IDIUse=3 WtCom= 9.45D-01 WtEn= 5.45D-02
 Coeff-Com: -0.139D+00 0.538D+00 0.600D+00
 Coeff-En:   0.000D+00 0.000D+00 0.100D+01
 Coeff:     -0.131D+00 0.509D+00 0.622D+00
 Gap=     0.280 Goal=   None    Shift=    0.000
 RMSDP=8.60D-04 MaxDP=1.45D-01 DE=-9.15D-02 OVMax= 6.01D-02

 Cycle   4  Pass 1  IDiag  1:
 RMSU=  7.30D-04    CP:  8.98D-01  7.49D-01  9.59D-01
 E= -379.815371951455     Delta-E=       -0.014820285151 Rises=F Damp=F
 DIIS: error= 1.82D-03 at cycle   4 NSaved=   4.
 NSaved= 4 IEnMin= 4 EnMin= -379.815371951455     IErMin= 4 ErrMin= 1.82D-03
 ErrMax= 1.82D-03  0.00D+00 EMaxC= 1.00D-01 BMatC= 2.45D-03 BMatP= 1.76D-02
 IDIUse=3 WtCom= 9.82D-01 WtEn= 1.82D-02
 Coeff-Com: -0.583D-01 0.150D+00 0.329D+00 0.579D+00
 Coeff-En:   0.000D+00 0.000D+00 0.663D-01 0.934D+00
 Coeff:     -0.572D-01 0.147D+00 0.325D+00 0.586D+00
 Gap=     0.278 Goal=   None    Shift=    0.000
 RMSDP=3.67D-04 MaxDP=6.12D-02 DE=-1.48D-02 OVMax= 1.32D-02

 Cycle   5  Pass 1  IDiag  1:
 RMSU=  2.28D-04    CP:  9.00D-01  7.22D-01  9.31D-01  6.87D-01
 E= -379.817462648541     Delta-E=       -0.002090697086 Rises=F Damp=F
 DIIS: error= 4.06D-04 at cycle   5 NSaved=   5.
 NSaved= 5 IEnMin= 5 EnMin= -379.817462648541     IErMin= 5 ErrMin= 4.06D-04
 ErrMax= 4.06D-04  0.00D+00 EMaxC= 1.00D-01 BMatC= 9.59D-05 BMatP= 2.45D-03
 IDIUse=3 WtCom= 9.96D-01 WtEn= 4.06D-03
 Coeff-Com: -0.199D-01 0.423D-01 0.118D+00 0.265D+00 0.595D+00
 Coeff-En:   0.000D+00 0.000D+00 0.000D+00 0.000D+00 0.100D+01
 Coeff:     -0.198D-01 0.422D-01 0.117D+00 0.264D+00 0.596D+00
 Gap=     0.278 Goal=   None    Shift=    0.000
 RMSDP=6.73D-05 MaxDP=7.26D-03 DE=-2.09D-03 OVMax= 3.97D-03

 Cycle   6  Pass 1  IDiag  1:
 RMSU=  6.36D-05    CP:  9.01D-01  7.24D-01  9.30D-01  7.04D-01  9.38D-01
 E= -379.817550736631     Delta-E=       -0.000088088090 Rises=F Damp=F
 DIIS: error= 1.50D-04 at cycle   6 NSaved=   6.
 NSaved= 6 IEnMin= 6 EnMin= -379.817550736631     IErMin= 6 ErrMin= 1.50D-04
 ErrMax= 1.50D-04  0.00D+00 EMaxC= 1.00D-01 BMatC= 1.13D-05 BMatP= 9.59D-05
 IDIUse=3 WtCom= 9.99D-01 WtEn= 1.50D-03
 Coeff-Com: -0.273D-02 0.335D-02 0.188D-01 0.541D-01 0.286D+00 0.641D+00
 Coeff-En:   0.000D+00 0.000D+00 0.000D+00 0.000D+00 0.242D-01 0.976D+00
 Coeff:     -0.273D-02 0.334D-02 0.187D-01 0.540D-01 0.286D+00 0.641D+00
 Gap=     0.278 Goal=   None    Shift=    0.000
 RMSDP=4.80D-05 MaxDP=1.00D-02 DE=-8.81D-05 OVMax= 1.45D-03

 Cycle   7  Pass 1  IDiag  1:
 RMSU=  2.48D-05    CP:  9.00D-01  7.16D-01  9.33D-01  7.06D-01  9.53D-01
                    CP:  9.96D-01
 E= -379.817563231922     Delta-E=       -0.000012495291 Rises=F Damp=F
 DIIS: error= 4.30D-05 at cycle   7 NSaved=   7.
 NSaved= 7 IEnMin= 7 EnMin= -379.817563231922     IErMin= 7 ErrMin= 4.30D-05
 ErrMax= 4.30D-05  0.00D+00 EMaxC= 1.00D-01 BMatC= 4.06D-07 BMatP= 1.13D-05
 IDIUse=1 WtCom= 1.00D+00 WtEn= 0.00D+00
 Coeff-Com:  0.143D-02-0.352D-02-0.639D-02-0.160D-01-0.217D-02 0.997D-01
 Coeff-Com:  0.927D+00
 Coeff:      0.143D-02-0.352D-02-0.639D-02-0.160D-01-0.217D-02 0.997D-01
 Coeff:      0.927D+00
 Gap=     0.278 Goal=   None    Shift=    0.000
 RMSDP=1.68D-05 MaxDP=3.64D-03 DE=-1.25D-05 OVMax= 4.64D-04

 Cycle   8  Pass 1  IDiag  1:
 RMSU=  4.14D-06    CP:  9.00D-01  7.14D-01  9.33D-01  7.04D-01  9.76D-01
                    CP:  1.09D+00  1.18D+00
 E= -379.817563878584     Delta-E=       -0.000000646662 Rises=F Damp=F
 DIIS: error= 1.71D-05 at cycle   8 NSaved=   8.
 NSaved= 8 IEnMin= 8 EnMin= -379.817563878584     IErMin= 8 ErrMin= 1.71D-05
 ErrMax= 1.71D-05  0.00D+00 EMaxC= 1.00D-01 BMatC= 1.78D-07 BMatP= 4.06D-07
 IDIUse=1 WtCom= 1.00D+00 WtEn= 0.00D+00
 Coeff-Com:  0.106D-02-0.220D-02-0.517D-02-0.148D-01-0.329D-01-0.211D-01
 Coeff-Com:  0.495D+00 0.580D+00
 Coeff:      0.106D-02-0.220D-02-0.517D-02-0.148D-01-0.329D-01-0.211D-01
 Coeff:      0.495D+00 0.580D+00
 Gap=     0.279 Goal=   None    Shift=    0.000
 RMSDP=3.63D-06 MaxDP=4.37D-04 DE=-6.47D-07 OVMax= 2.17D-04

 Cycle   9  Pass 1  IDiag  1:
 RMSU=  2.43D-06    CP:  9.00D-01  7.14D-01  9.33D-01  7.04D-01  9.76D-01
                    CP:  1.10D+00  1.21D+00  1.13D+00
 E= -379.817564098329     Delta-E=       -0.000000219744 Rises=F Damp=F
 DIIS: error= 8.25D-06 at cycle   9 NSaved=   9.
 NSaved= 9 IEnMin= 9 EnMin= -379.817564098329     IErMin= 9 ErrMin= 8.25D-06
 ErrMax= 8.25D-06  0.00D+00 EMaxC= 1.00D-01 BMatC= 8.46D-09 BMatP= 1.78D-07
 IDIUse=1 WtCom= 1.00D+00 WtEn= 0.00D+00
 Coeff-Com: -0.545D-04 0.169D-03 0.420D-03 0.352D-03-0.271D-02-0.149D-01
 Coeff-Com: -0.672D-01 0.104D+00 0.980D+00
 Coeff:     -0.545D-04 0.169D-03 0.420D-03 0.352D-03-0.271D-02-0.149D-01
 Coeff:     -0.672D-01 0.104D+00 0.980D+00
 Gap=     0.279 Goal=   None    Shift=    0.000
 RMSDP=1.30D-06 MaxDP=1.20D-04 DE=-2.20D-07 OVMax= 9.37D-05

 Cycle  10  Pass 1  IDiag  1:
 RMSU=  6.15D-07    CP:  9.00D-01  7.14D-01  9.33D-01  7.03D-01  9.76D-01
                    CP:  1.11D+00  1.21D+00  1.30D+00  1.19D+00
 E= -379.817564120001     Delta-E=       -0.000000021672 Rises=F Damp=F
 DIIS: error= 2.36D-06 at cycle  10 NSaved=  10.
 NSaved=10 IEnMin=10 EnMin= -379.817564120001     IErMin=10 ErrMin= 2.36D-06
 ErrMax= 2.36D-06  0.00D+00 EMaxC= 1.00D-01 BMatC= 9.68D-10 BMatP= 8.46D-09
 IDIUse=1 WtCom= 1.00D+00 WtEn= 0.00D+00
 Coeff-Com: -0.999D-04 0.224D-03 0.590D-03 0.128D-02 0.164D-02-0.264D-02
 Coeff-Com: -0.625D-01-0.216D-01 0.284D+00 0.799D+00
 Coeff:     -0.999D-04 0.224D-03 0.590D-03 0.128D-02 0.164D-02-0.264D-02
 Coeff:     -0.625D-01-0.216D-01 0.284D+00 0.799D+00
 Gap=     0.279 Goal=   None    Shift=    0.000
 RMSDP=4.57D-07 MaxDP=4.44D-05 DE=-2.17D-08 OVMax= 3.54D-05

 Cycle  11  Pass 1  IDiag  1:
 RMSU=  1.62D-07    CP:  9.00D-01  7.14D-01  9.33D-01  7.03D-01  9.76D-01
                    CP:  1.11D+00  1.21D+00  1.35D+00  1.27D+00  1.02D+00
 E= -379.817564122126     Delta-E=       -0.000000002125 Rises=F Damp=F
 DIIS: error= 1.04D-06 at cycle  11 NSaved=  11.
 NSaved=11 IEnMin=11 EnMin= -379.817564122126     IErMin=11 ErrMin= 1.04D-06
 ErrMax= 1.04D-06  0.00D+00 EMaxC= 1.00D-01 BMatC= 2.67D-10 BMatP= 9.68D-10
 IDIUse=1 WtCom= 1.00D+00 WtEn= 0.00D+00
 Coeff-Com: -0.328D-04 0.692D-04 0.202D-03 0.507D-03 0.985D-03 0.894D-03
 Coeff-Com: -0.193D-01-0.275D-01-0.121D-01 0.384D+00 0.673D+00
 Coeff:     -0.328D-04 0.692D-04 0.202D-03 0.507D-03 0.985D-03 0.894D-03
 Coeff:     -0.193D-01-0.275D-01-0.121D-01 0.384D+00 0.673D+00
 Gap=     0.279 Goal=   None    Shift=    0.000
 RMSDP=1.25D-07 MaxDP=1.15D-05 DE=-2.13D-09 OVMax= 1.46D-05

 Cycle  12  Pass 1  IDiag  1:
 RMSU=  8.78D-08    CP:  9.00D-01  7.14D-01  9.33D-01  7.03D-01  9.76D-01
                    CP:  1.11D+00  1.21D+00  1.36D+00  1.29D+00  1.08D+00
                    CP:  1.06D+00
 E= -379.817564122550     Delta-E=       -0.000000000424 Rises=F Damp=F
 DIIS: error= 2.71D-07 at cycle  12 NSaved=  12.
 NSaved=12 IEnMin=12 EnMin= -379.817564122550     IErMin=12 ErrMin= 2.71D-07
 ErrMax= 2.71D-07  0.00D+00 EMaxC= 1.00D-01 BMatC= 1.49D-11 BMatP= 2.67D-10
 IDIUse=1 WtCom= 1.00D+00 WtEn= 0.00D+00
 Coeff-Com:  0.841D-05-0.191D-04-0.463D-04-0.799D-04-0.737D-04 0.707D-03
 Coeff-Com:  0.561D-02-0.449D-02-0.455D-01-0.297D-01 0.134D+00 0.940D+00
 Coeff:      0.841D-05-0.191D-04-0.463D-04-0.799D-04-0.737D-04 0.707D-03
 Coeff:      0.561D-02-0.449D-02-0.455D-01-0.297D-01 0.134D+00 0.940D+00
 Gap=     0.279 Goal=   None    Shift=    0.000
 RMSDP=9.22D-08 MaxDP=1.26D-05 DE=-4.24D-10 OVMax= 6.19D-06

 Cycle  13  Pass 1  IDiag  1:
 RMSU=  4.23D-08    CP:  9.00D-01  7.14D-01  9.33D-01  7.03D-01  9.76D-01
                    CP:  1.11D+00  1.21D+00  1.36D+00  1.29D+00  1.11D+00
                    CP:  1.12D+00  1.40D+00
 E= -379.817564122614     Delta-E=       -0.000000000064 Rises=F Damp=F
 DIIS: error= 1.16D-07 at cycle  13 NSaved=  13.
 NSaved=13 IEnMin=13 EnMin= -379.817564122614     IErMin=13 ErrMin= 1.16D-07
 ErrMax= 1.16D-07  0.00D+00 EMaxC= 1.00D-01 BMatC= 3.14D-12 BMatP= 1.49D-11
 IDIUse=1 WtCom= 1.00D+00 WtEn= 0.00D+00
 Coeff-Com:  0.545D-05-0.121D-04-0.332D-04-0.660D-04-0.114D-03 0.221D-03
 Coeff-Com:  0.363D-02 0.415D-03-0.137D-01-0.391D-01-0.212D-01 0.334D+00
 Coeff-Com:  0.736D+00
 Coeff:      0.545D-05-0.121D-04-0.332D-04-0.660D-04-0.114D-03 0.221D-03
 Coeff:      0.363D-02 0.415D-03-0.137D-01-0.391D-01-0.212D-01 0.334D+00
 Coeff:      0.736D+00
 Gap=     0.279 Goal=   None    Shift=    0.000
 RMSDP=1.90D-08 MaxDP=2.53D-06 DE=-6.40D-11 OVMax= 1.86D-06

 Cycle  14  Pass 1  IDiag  1:
 RMSU=  8.43D-09    CP:  9.00D-01  7.14D-01  9.33D-01  7.03D-01  9.76D-01
                    CP:  1.11D+00  1.21D+00  1.35D+00  1.29D+00  1.12D+00
                    CP:  1.13D+00  1.51D+00  1.14D+00
 E= -379.817564122608     Delta-E=        0.000000000005 Rises=F Damp=F
 DIIS: error= 4.03D-08 at cycle  14 NSaved=  14.
 NSaved=14 IEnMin=13 EnMin= -379.817564122614     IErMin=14 ErrMin= 4.03D-08
 ErrMax= 4.03D-08  0.00D+00 EMaxC= 1.00D-01 BMatC= 7.78D-13 BMatP= 3.14D-12
 IDIUse=1 WtCom= 1.00D+00 WtEn= 0.00D+00
 Coeff-Com:  0.276D-06-0.656D-06-0.393D-05-0.731D-05-0.359D-04-0.480D-04
 Coeff-Com:  0.212D-03 0.982D-03 0.504D-02-0.852D-02-0.482D-01-0.810D-01
 Coeff-Com:  0.340D+00 0.791D+00
 Coeff:      0.276D-06-0.656D-06-0.393D-05-0.731D-05-0.359D-04-0.480D-04
 Coeff:      0.212D-03 0.982D-03 0.504D-02-0.852D-02-0.482D-01-0.810D-01
 Coeff:      0.340D+00 0.791D+00
 Gap=     0.279 Goal=   None    Shift=    0.000
 RMSDP=1.26D-08 MaxDP=1.63D-06 DE= 5.46D-12 OVMax= 7.90D-07

 Cycle  15  Pass 1  IDiag  1:
 RMSU=  4.70D-09    CP:  9.00D-01  7.14D-01  9.33D-01  7.03D-01  9.76D-01
                    CP:  1.11D+00  1.21D+00  1.35D+00  1.29D+00  1.12D+00
                    CP:  1.13D+00  1.58D+00  1.27D+00  1.17D+00
 E= -379.817564122589     Delta-E=        0.000000000019 Rises=F Damp=F
 DIIS: error= 7.94D-09 at cycle  15 NSaved=  15.
 NSaved=15 IEnMin=13 EnMin= -379.817564122614     IErMin=15 ErrMin= 7.94D-09
 ErrMax= 7.94D-09  0.00D+00 EMaxC= 1.00D-01 BMatC= 4.05D-14 BMatP= 7.78D-13
 IDIUse=1 WtCom= 1.00D+00 WtEn= 0.00D+00
 Coeff-Com: -0.241D-06 0.501D-06 0.421D-06 0.143D-05-0.857D-05-0.283D-04
 Coeff-Com: -0.127D-03 0.274D-03 0.267D-02-0.336D-03-0.174D-01-0.475D-01
 Coeff-Com:  0.859D-01 0.288D+00 0.688D+00
 Coeff:     -0.241D-06 0.501D-06 0.421D-06 0.143D-05-0.857D-05-0.283D-04
 Coeff:     -0.127D-03 0.274D-03 0.267D-02-0.336D-03-0.174D-01-0.475D-01
 Coeff:      0.859D-01 0.288D+00 0.688D+00
 Gap=     0.279 Goal=   None    Shift=    0.000
 RMSDP=1.51D-09 MaxDP=2.21D-07 DE= 1.89D-11 OVMax= 1.30D-07

 SCF Done:  E(RM062X) =  -379.817564123     A.U. after   15 cycles
            NFock= 15  Conv=0.15D-08     -V/T= 2.0049
 KE= 3.779586369349D+02 PE=-1.685657138399D+03 EE= 5.264191426313D+02
 Leave Link  502 at Tue Apr 26 17:39:43 2022, MaxMem=  5242880000 cpu:            2259.1 elap:             141.7
 (Enter /data0/hywu0/study/g16/l601.exe)
 Copying SCF densities to generalized density rwf, IOpCl= 0 IROHF=0.

 **********************************************************************

            Population analysis using the SCF density.

 **********************************************************************

 Alpha  occ. eigenvalues --  -14.81093 -14.74302 -10.62282 -10.58825 -10.57040
 Alpha  occ. eigenvalues --  -10.55273 -10.54598 -10.54488 -10.54134  -1.12125
 Alpha  occ. eigenvalues --   -0.98203  -0.95066  -0.84502  -0.83306  -0.71890
 Alpha  occ. eigenvalues --   -0.70985  -0.68059  -0.62700  -0.57324  -0.55955
 Alpha  occ. eigenvalues --   -0.51740  -0.51314  -0.50748  -0.48640  -0.43148
 Alpha  occ. eigenvalues --   -0.42186  -0.41444  -0.37319  -0.34487  -0.28693
 Alpha  occ. eigenvalues --   -0.28107
 Alpha virt. eigenvalues --   -0.00256  -0.00053   0.01584   0.02127   0.03218
 Alpha virt. eigenvalues --    0.03559   0.03656   0.04213   0.04985   0.05530
 Alpha virt. eigenvalues --    0.06004   0.06526   0.07163   0.07385   0.08572
 Alpha virt. eigenvalues --    0.09143   0.09558   0.10047   0.10806   0.11897
 Alpha virt. eigenvalues --    0.12508   0.12745   0.13117   0.13792   0.14544
 Alpha virt. eigenvalues --    0.15703   0.15743   0.16152   0.16845   0.17338
 Alpha virt. eigenvalues --    0.17535   0.18070   0.18154   0.18963   0.19499
 Alpha virt. eigenvalues --    0.19902   0.19961   0.20405   0.20836   0.21034
 Alpha virt. eigenvalues --    0.21751   0.22403   0.22737   0.23160   0.23359
 Alpha virt. eigenvalues --    0.24168   0.24296   0.24885   0.25102   0.25492
 Alpha virt. eigenvalues --    0.25589   0.26045   0.26352   0.26598   0.26970
 Alpha virt. eigenvalues --    0.27300   0.27574   0.28256   0.29315   0.29718
 Alpha virt. eigenvalues --    0.29997   0.30601   0.31246   0.31642   0.32436
 Alpha virt. eigenvalues --    0.33457   0.33603   0.34088   0.34635   0.35343
 Alpha virt. eigenvalues --    0.35686   0.36450   0.37090   0.37577   0.38475
 Alpha virt. eigenvalues --    0.39288   0.39669   0.40057   0.40330   0.40441
 Alpha virt. eigenvalues --    0.41777   0.42614   0.43333   0.44597   0.44933
 Alpha virt. eigenvalues --    0.46303   0.46968   0.47064   0.48701   0.49891
 Alpha virt. eigenvalues --    0.50596   0.52270   0.52974   0.53655   0.55267
 Alpha virt. eigenvalues --    0.55592   0.56303   0.56691   0.57981   0.59588
 Alpha virt. eigenvalues --    0.60758   0.61866   0.63255   0.65110   0.65232
 Alpha virt. eigenvalues --    0.66674   0.66948   0.67349   0.67819   0.68574
 Alpha virt. eigenvalues --    0.70150   0.70569   0.71565   0.72087   0.72401
 Alpha virt. eigenvalues --    0.73250   0.73919   0.74393   0.75012   0.75874
 Alpha virt. eigenvalues --    0.76089   0.76648   0.76980   0.77672   0.78033
 Alpha virt. eigenvalues --    0.78509   0.79894   0.80843   0.82280   0.82748
 Alpha virt. eigenvalues --    0.82988   0.83959   0.84336   0.84891   0.85164
 Alpha virt. eigenvalues --    0.85452   0.86137   0.86432   0.87476   0.87886
 Alpha virt. eigenvalues --    0.88849   0.89156   0.89446   0.90304   0.91110
 Alpha virt. eigenvalues --    0.92120   0.92671   0.93927   0.94450   0.95091
 Alpha virt. eigenvalues --    0.95431   0.95825   0.96394   0.97075   0.99066
 Alpha virt. eigenvalues --    0.99971   1.00358   1.02179   1.02483   1.03398
 Alpha virt. eigenvalues --    1.03852   1.04507   1.06099   1.07320   1.08483
 Alpha virt. eigenvalues --    1.09630   1.10227   1.11840   1.13171   1.14058
 Alpha virt. eigenvalues --    1.16012   1.16711   1.17318   1.18811   1.20511
 Alpha virt. eigenvalues --    1.21936   1.23009   1.23381   1.23863   1.25169
 Alpha virt. eigenvalues --    1.25521   1.27508   1.29389   1.31014   1.31696
 Alpha virt. eigenvalues --    1.32702   1.34119   1.35624   1.36077   1.36630
[...]
    11  H    0.000000
    12  C    0.000000
    13  H    0.000000
    14  N    0.000000
    15  N    0.000000
    16  P    0.000000
    17  O    0.000000
    18  O    0.000000
    19  H    0.000000
    20  O    0.000000
    21  H    0.000000
    22  O    0.000000
    23  H    0.000000
    24  O   -0.557854
    25  H    0.280538
    26  H    0.277316
    27  O    0.000000
    28  H    0.000000
    29  H    0.000000
 Sum of Mulliken charges =  -0.00000
 Mulliken charges with hydrogens summed into heavy atoms:
               1
     1  C    0.000000
     2  C    0.000000
     3  C    0.000000
     4  C    0.000000
     5  C    0.000000
     6  C    0.000000
    12  C    0.000000
    14  N    0.000000
    15  N    0.000000
    16  P    0.000000
    17  O    0.000000
    18  O    0.000000
    20  O    0.000000
    22  O    0.000000
    24  O   -0.000000
    27  O    0.000000
         Mulliken charges condensed to fragments:
      1      0.000000
      2      0.000000
      3     -0.000000
      4      0.000000
 Electronic spatial extent (au):  <R**2>=          11099.4304
 Charge=             -0.0000 electrons
 Dipole moment (field-independent basis, Debye):
    X=             -1.6414    Y=             -0.4005    Z=              1.2616  Tot=              2.1086
 Quadrupole moment (field-independent basis, Debye-Ang):
   XX=            -34.3518   YY=            -18.3029   ZZ=             10.5612
   XY=            -26.8452   XZ=              1.2917   YZ=             13.8711
 Traceless Quadrupole moment (field-independent basis, Debye-Ang):
   XX=            -20.3206   YY=             -4.2717   ZZ=             24.5923
   XY=            -26.8452   XZ=              1.2917   YZ=             13.8711
 Octapole moment (field-independent basis, Debye-Ang**2):
  XXX=           -526.4772  YYY=           -530.6208  ZZZ=             49.1324  XYY=           -492.1153
  XXY=           -516.9475  XXZ=           -110.2289  XZZ=             34.7151  YZZ=            115.9435
  YYZ=             96.3856  XYZ=            -17.4907
 Hexadecapole moment (field-independent basis, Debye-Ang**3):
 XXXX=          -7051.2949 YYYY=         -12594.7684 ZZZZ=            -21.5787 XXXY=          -7696.6688
 XXXZ=          -2355.8726 YYYX=          -9365.0657 YYYZ=           -629.8470 ZZZX=             89.7285
 ZZZY=            435.3376 XXYY=          -8289.3273 XXZZ=           -437.0149 YYZZ=            891.8672
 XXYZ=          -1869.3361 YYXZ=          -1135.2007 ZZXY=            190.7532
 N-N= 9.110484096243D+00 E-N=-1.990740930695D+02  KE= 7.619801952932D+01
 No NMR shielding tensors so no spin-rotation constants.
 Leave Link  601 at Tue Apr 26 17:45:11 2022, MaxMem=  5242880000 cpu:               1.1 elap:               0.1
 (Enter /data0/hywu0/study/g16/l122.exe)
 CPIOFr:  IOpCl= 0 IRwI=-1 IRwCP=  731 ICalc=  7 LCPTot=      411835 Len1MO=     1083782 IndFrg=     9082091
 Counterpoise: doing calculation for fragment   4 using the basis set of the fragment.
 Leave Link  122 at Tue Apr 26 17:45:11 2022, MaxMem=  5242880000 cpu:               0.2 elap:               0.0
 (Enter /data0/hywu0/study/g16/l301.exe)
 Basis read from rwf:  (5D, 7F)
 No pseudopotential information found on rwf file.
    39 basis functions,    58 primitive gaussians,    41 cartesian basis functions
     5 alpha electrons        5 beta electrons
       nuclear repulsion energy         9.1243081451 Hartrees.
 IExCor= 4336 DFT=T Ex+Corr=M062X ExCW=0 ScaHFX=  0.540000
 ScaDFX=  1.000000  1.000000  1.000000  1.000000 ScalE2=  1.000000  1.000000
 IRadAn=      5 IRanWt=     -1 IRanGd=            0 ICorTp=0 IEmpDi=131
 NAtoms=   29 NActive=    3 NUniq=    3 SFac= 1.00D+00 NAtFMM=   60 NAOKFM=F Big=F
 Integral buffers will be    131072 words long.
 Raffenetti 2 integral format.
 Two-electron integral symmetry is turned off.
 R6Disp:  Grimme-D3 Dispersion energy=       -0.0000000077 Hartrees.
 Nuclear repulsion after empirical dispersion term =        9.1243081374 Hartrees.
 No density basis found on file   718.
 Leave Link  301 at Tue Apr 26 17:45:11 2022, MaxMem=  5242880000 cpu:               0.8 elap:               0.1
 (Enter /data0/hywu0/study/g16/l302.exe)
 NPDir=0 NMtPBC=     1 NCelOv=     1 NCel=       1 NClECP=     1 NCelD=      1
         NCelK=      1 NCelE2=     1 NClLst=     1 CellRange=     0.0.
 One-electron integrals computed using PRISM.
 NBasis=    39 RedAO= T EigKep=  3.03D-03  NBF=    39
 NBsUse=    39 1.00D-06 EigRej= -1.00D+00 NBFU=    39
 Precomputing XC quadrature grid using
 IXCGrd= 4 IRadAn=           5 IRanWt=          -1 IRanGd=           0 AccXCQ= 0.00D+00.
 Generated NRdTot=       0 NPtTot=           0 NUsed=           0 NTot=          32
 NSgBfM=    41    41    41    41    41 MxSgAt=     3 MxSgA2=     3.
 Leave Link  302 at Tue Apr 26 17:45:11 2022, MaxMem=  5242880000 cpu:               1.7 elap:               0.1
 (Enter /data0/hywu0/study/g16/l303.exe)
 DipDrv:  MaxL=1.
 Leave Link  303 at Tue Apr 26 17:45:11 2022, MaxMem=  5242880000 cpu:               0.5 elap:               0.0
 (Enter /data0/hywu0/study/g16/l401.exe)
 ExpMin= 8.45D-02 ExpMax= 8.59D+03 ExpMxC= 1.30D+03 IAcc=3 IRadAn=         5 AccDes= 0.00D+00
 Harris functional with IExCor= 1009 and IRadAn=       5 diagonalized for initial guess.
 HarFok:  IExCor= 1009 AccDes= 0.00D+00 IRadAn=         5 IDoV= 1 UseB2=F ITyADJ=14
 ICtDFT=  3500011 ScaDFX=  1.000000  1.000000  1.000000  1.000000
 FoFCou: FMM=F IPFlag=           0 FMFlag=      100000 FMFlg1=           0
         NFxFlg=           0 DoJE=T BraDBF=F KetDBF=T FulRan=T
         wScrn=  0.000000 ICntrl=       500 IOpCl=  0 I1Cent=   200000004 NGrid=           0
         NMat0=    1 NMatS0=      1 NMatT0=    0 NMatD0=    1 NMtDS0=    0 NMtDT0=    0
 Symmetry not used in FoFCou.
 Harris En= -76.4168715303230    
 JPrj=0 DoOrth=F DoCkMO=F.
 Leave Link  401 at Tue Apr 26 17:45:11 2022, MaxMem=  5242880000 cpu:               1.9 elap:               0.1
 (Enter /data0/hywu0/study/g16/l502.exe)
 Keep R1 ints in memory in canonical form, NReq=14130238.
 FoFCou: FMM=F IPFlag=           0 FMFlag=           0 FMFlg1=           0
         NFxFlg=           0 DoJE=F BraDBF=F KetDBF=F FulRan=T
         wScrn=  0.000000 ICntrl=       600 IOpCl=  0 I1Cent=           0 NGrid=           0
         NMat0=    1 NMatS0=    780 NMatT0=    0 NMatD0=    1 NMtDS0=    0 NMtDT0=    0
 Symmetry not used in FoFCou.
 Two-electron integral symmetry not used.
 Closed shell SCF:
 Using DIIS extrapolation, IDIIS=  1040.
 NGot=  5242880000 LenX=  5242570116 LenY=  5242567994
 Requested convergence on RMS density matrix=1.00D-08 within 128 cycles.
 Requested convergence on MAX density matrix=1.00D-06.
 Requested convergence on             energy=1.00D-06.
 No special actions if energy rises.
 Integral accuracy reduced to 1.0D-05 until final iterations.

 Cycle   1  Pass 0  IDiag  1:
 E= -76.3462767239809    
 DIIS: error= 7.05D-02 at cycle   1 NSaved=   1.
 NSaved= 1 IEnMin= 1 EnMin= -76.3462767239809     IErMin= 1 ErrMin= 7.05D-02
 ErrMax= 7.05D-02  0.00D+00 EMaxC= 1.00D-01 BMatC= 1.21D-01 BMatP= 1.21D-01
 IDIUse=3 WtCom= 2.95D-01 WtEn= 7.05D-01
 Coeff-Com:  0.100D+01
 Coeff-En:   0.100D+01
 Coeff:      0.100D+01
 Gap=     0.325 Goal=   None    Shift=    0.000
 GapD=    0.325 DampG=1.000 DampE=0.500 DampFc=0.5000 IDamp=-1.
 Damping current iteration by 5.00D-01
 RMSDP=7.89D-03 MaxDP=1.01D-01              OVMax= 1.68D-01

 Cycle   2  Pass 0  IDiag  1:
 E= -76.3778986492120     Delta-E=       -0.031621925231 Rises=F Damp=T
 DIIS: error= 1.15D-02 at cycle   2 NSaved=   2.
 NSaved= 2 IEnMin= 2 EnMin= -76.3778986492120     IErMin= 2 ErrMin= 1.15D-02
 ErrMax= 1.15D-02  0.00D+00 EMaxC= 1.00D-01 BMatC= 4.80D-03 BMatP= 1.21D-01
 IDIUse=3 WtCom= 8.85D-01 WtEn= 1.15D-01
 Coeff-Com:  0.810D-01 0.919D+00
 Coeff-En:   0.185D+00 0.815D+00
 Coeff:      0.930D-01 0.907D+00
 Gap=     0.458 Goal=   None    Shift=    0.000
 RMSDP=9.35D-04 MaxDP=1.39D-02 DE=-3.16D-02 OVMax= 1.00D-01

 Cycle   3  Pass 0  IDiag  1:
 E= -76.4218811087878     Delta-E=       -0.043982459576 Rises=F Damp=F
 DIIS: error= 2.17D-03 at cycle   3 NSaved=   3.
 NSaved= 3 IEnMin= 3 EnMin= -76.4218811087878     IErMin= 3 ErrMin= 2.17D-03
 ErrMax= 2.17D-03  0.00D+00 EMaxC= 1.00D-01 BMatC= 9.05D-05 BMatP= 4.80D-03
 IDIUse=3 WtCom= 9.78D-01 WtEn= 2.17D-02
 Coeff-Com: -0.199D-01 0.394D-01 0.981D+00
 Coeff-En:   0.000D+00 0.000D+00 0.100D+01
 Coeff:     -0.195D-01 0.386D-01 0.981D+00
 Gap=     0.463 Goal=   None    Shift=    0.000
 RMSDP=1.14D-04 MaxDP=9.92D-04 DE=-4.40D-02 OVMax= 3.29D-03

 Cycle   4  Pass 0  IDiag  1:
 E= -76.4219581125372     Delta-E=       -0.000077003749 Rises=F Damp=F
 DIIS: error= 4.09D-04 at cycle   4 NSaved=   4.
 NSaved= 4 IEnMin= 4 EnMin= -76.4219581125372     IErMin= 4 ErrMin= 4.09D-04
 ErrMax= 4.09D-04  0.00D+00 EMaxC= 1.00D-01 BMatC= 3.25D-06 BMatP= 9.05D-05
 IDIUse=3 WtCom= 9.96D-01 WtEn= 4.09D-03
 Coeff-Com: -0.188D-02-0.218D-02 0.162D+00 0.842D+00
 Coeff-En:   0.000D+00 0.000D+00 0.000D+00 0.100D+01
 Coeff:     -0.187D-02-0.217D-02 0.162D+00 0.842D+00
 Gap=     0.463 Goal=   None    Shift=    0.000
 RMSDP=2.20D-05 MaxDP=3.52D-04 DE=-7.70D-05 OVMax= 5.28D-04

 Cycle   5  Pass 0  IDiag  1:
 E= -76.4219601138236     Delta-E=       -0.000002001286 Rises=F Damp=F
 DIIS: error= 8.79D-05 at cycle   5 NSaved=   5.
 NSaved= 5 IEnMin= 5 EnMin= -76.4219601138236     IErMin= 5 ErrMin= 8.79D-05
 ErrMax= 8.79D-05  0.00D+00 EMaxC= 1.00D-01 BMatC= 8.13D-08 BMatP= 3.25D-06
 IDIUse=1 WtCom= 1.00D+00 WtEn= 0.00D+00
 Coeff-Com:  0.116D-02-0.177D-02-0.362D-01-0.653D-01 0.110D+01
 Coeff:      0.116D-02-0.177D-02-0.362D-01-0.653D-01 0.110D+01
 Gap=     0.463 Goal=   None    Shift=    0.000
 RMSDP=8.88D-06 MaxDP=1.02D-04 DE=-2.00D-06 OVMax= 1.99D-04

 Initial convergence to 1.0D-05 achieved.  Increase integral accuracy.
 Cycle   6  Pass 1  IDiag  1:
 E= -76.4219484501480     Delta-E=        0.000011663676 Rises=F Damp=F
 DIIS: error= 1.49D-05 at cycle   1 NSaved=   1.
 NSaved= 1 IEnMin= 1 EnMin= -76.4219484501480     IErMin= 1 ErrMin= 1.49D-05
 ErrMax= 1.49D-05  0.00D+00 EMaxC= 1.00D-01 BMatC= 1.52D-08 BMatP= 1.52D-08
 IDIUse=1 WtCom= 1.00D+00 WtEn= 0.00D+00
 Coeff-Com:  0.100D+01
 Coeff:      0.100D+01
 Gap=     0.463 Goal=   None    Shift=    0.000
 RMSDP=8.88D-06 MaxDP=1.02D-04 DE= 1.17D-05 OVMax= 5.10D-05

 Cycle   7  Pass 1  IDiag  1:
 E= -76.4219484625166     Delta-E=       -0.000000012369 Rises=F Damp=F
 DIIS: error= 1.09D-05 at cycle   2 NSaved=   2.
 NSaved= 2 IEnMin= 2 EnMin= -76.4219484625166     IErMin= 2 ErrMin= 1.09D-05
 ErrMax= 1.09D-05  0.00D+00 EMaxC= 1.00D-01 BMatC= 1.94D-09 BMatP= 1.52D-08
 IDIUse=1 WtCom= 1.00D+00 WtEn= 0.00D+00
 Coeff-Com:  0.111D+00 0.889D+00
 Coeff:      0.111D+00 0.889D+00
 Gap=     0.463 Goal=   None    Shift=    0.000
 RMSDP=8.91D-07 MaxDP=1.50D-05 DE=-1.24D-08 OVMax= 2.29D-05

 Cycle   8  Pass 1  IDiag  1:
 E= -76.4219484629886     Delta-E=       -0.000000000472 Rises=F Damp=F
 DIIS: error= 7.78D-06 at cycle   3 NSaved=   3.
 NSaved= 3 IEnMin= 3 EnMin= -76.4219484629886     IErMin= 3 ErrMin= 7.78D-06
 ErrMax= 7.78D-06  0.00D+00 EMaxC= 1.00D-01 BMatC= 1.54D-09 BMatP= 1.94D-09
 IDIUse=1 WtCom= 1.00D+00 WtEn= 0.00D+00
 Coeff-Com: -0.463D-01 0.482D+00 0.564D+00
 Coeff:     -0.463D-01 0.482D+00 0.564D+00
 Gap=     0.463 Goal=   None    Shift=    0.000
 RMSDP=4.39D-07 MaxDP=5.72D-06 DE=-4.72D-10 OVMax= 1.05D-05

 Cycle   9  Pass 1  IDiag  1:
 E= -76.4219484640065     Delta-E=       -0.000000001018 Rises=F Damp=F
 DIIS: error= 5.93D-07 at cycle   4 NSaved=   4.
 NSaved= 4 IEnMin= 4 EnMin= -76.4219484640065     IErMin= 4 ErrMin= 5.93D-07
 ErrMax= 5.93D-07  0.00D+00 EMaxC= 1.00D-01 BMatC= 4.32D-12 BMatP= 1.54D-09
 IDIUse=1 WtCom= 1.00D+00 WtEn= 0.00D+00
 Coeff-Com: -0.355D-02-0.141D-01 0.568D-02 0.101D+01
 Coeff:     -0.355D-02-0.141D-01 0.568D-02 0.101D+01
 Gap=     0.463 Goal=   None    Shift=    0.000
 RMSDP=7.69D-08 MaxDP=6.72D-07 DE=-1.02D-09 OVMax= 1.64D-06

 Cycle  10  Pass 1  IDiag  1:
 E= -76.4219484640151     Delta-E=       -0.000000000009 Rises=F Damp=F
 DIIS: error= 1.08D-07 at cycle   5 NSaved=   5.
 NSaved= 5 IEnMin= 5 EnMin= -76.4219484640151     IErMin= 5 ErrMin= 1.08D-07
 ErrMax= 1.08D-07  0.00D+00 EMaxC= 1.00D-01 BMatC= 2.87D-13 BMatP= 4.32D-12
 IDIUse=1 WtCom= 1.00D+00 WtEn= 0.00D+00
 Coeff-Com:  0.246D-02-0.297D-01-0.308D-01 0.463D-01 0.101D+01
 Coeff:      0.246D-02-0.297D-01-0.308D-01 0.463D-01 0.101D+01
 Gap=     0.463 Goal=   None    Shift=    0.000
 RMSDP=2.30D-08 MaxDP=2.04D-07 DE=-8.60D-12 OVMax= 5.40D-07

 Cycle  11  Pass 1  IDiag  1:
 E= -76.4219484640154     Delta-E=       -0.000000000000 Rises=F Damp=F
 DIIS: error= 2.28D-08 at cycle   6 NSaved=   6.
 NSaved= 6 IEnMin= 6 EnMin= -76.4219484640154     IErMin= 6 ErrMin= 2.28D-08
 ErrMax= 2.28D-08  0.00D+00 EMaxC= 1.00D-01 BMatC= 6.10D-15 BMatP= 2.87D-13
 IDIUse=1 WtCom= 1.00D+00 WtEn= 0.00D+00
 Coeff-Com:  0.197D-04 0.850D-03 0.133D-02-0.330D-01-0.369D-01 0.107D+01
 Coeff:      0.197D-04 0.850D-03 0.133D-02-0.330D-01-0.369D-01 0.107D+01
 Gap=     0.463 Goal=   None    Shift=    0.000
 RMSDP=3.81D-09 MaxDP=2.80D-08 DE=-3.69D-13 OVMax= 7.53D-08

 SCF Done:  E(RM062X) =  -76.4219484640     A.U. after   11 cycles
            NFock= 11  Conv=0.38D-08     -V/T= 2.0029
 KE= 7.620320701898D+01 PE=-1.991036739396D+02 EE= 3.735421031922D+01
 Leave Link  502 at Tue Apr 26 17:45:12 2022, MaxMem=  5242880000 cpu:               6.9 elap:               0.4
 (Enter /data0/hywu0/study/g16/l601.exe)
 Copying SCF densities to generalized density rwf, IOpCl= 0 IROHF=0.

 **********************************************************************

            Population analysis using the SCF density.

 **********************************************************************

 Alpha  occ. eigenvalues --  -19.62552  -1.13424  -0.60918  -0.47471  -0.39995
 Alpha virt. eigenvalues --    0.06327   0.13358   0.17385   0.17946   0.18942
 Alpha virt. eigenvalues --    0.23243   0.51459   0.53435   0.97856   1.00160
 Alpha virt. eigenvalues --    1.06045   1.18717   1.19919   1.32531   1.33760
 Alpha virt. eigenvalues --    1.69684   1.74217   1.75876   2.08206   2.09143
 Alpha virt. eigenvalues --    2.35402   2.42367   2.54434   2.88892   3.01351
 Alpha virt. eigenvalues --    5.05701   5.48102   5.93563   6.78245   6.80274
 Alpha virt. eigenvalues --    6.87047   6.91516   7.09405  49.96067
          Condensed to atoms (all electrons):
              27         28         29
    27  O    7.913638   0.322570   0.320783
    28  H    0.322570   0.424367  -0.024630
    29  H    0.320783  -0.024630   0.424548
 Mulliken charges:
               1
     1  C    0.000000
     2  C    0.000000
     3  C    0.000000
     4  C    0.000000
     5  C    0.000000
     6  C    0.000000
     7  H    0.000000
     8  H    0.000000
     9  H    0.000000
    10  H    0.000000
    11  H    0.000000
    12  C    0.000000
    13  H    0.000000
    14  N    0.000000
    15  N    0.000000
    16  P    0.000000
    17  O    0.000000
    18  O    0.000000
    19  H    0.000000
    20  O    0.000000
    21  H    0.000000
    22  O    0.000000
    23  H    0.000000
    24  O    0.000000
    25  H    0.000000
    26  H    0.000000
    27  O   -0.556991
    28  H    0.277693
    29  H    0.279298
 Sum of Mulliken charges =  -0.00000
 Mulliken charges with hydrogens summed into heavy atoms:
               1
     1  C    0.000000
     2  C    0.000000
     3  C    0.000000
     4  C    0.000000
     5  C    0.000000
     6  C    0.000000
    12  C    0.000000
    14  N    0.000000
    15  N    0.000000
    16  P    0.000000
    17  O    0.000000
    18  O    0.000000
    20  O    0.000000
    22  O    0.000000
    24  O    0.000000
    27  O   -0.000000
         Mulliken charges condensed to fragments:
      1      0.000000
      2      0.000000
      3      0.000000
      4     -0.000000
 Electronic spatial extent (au):  <R**2>=          11893.3084
 Charge=             -0.0000 electrons
 Dipole moment (field-independent basis, Debye):
    X=             -0.8351    Y=              1.6208    Z=              1.0606  Tot=              2.1093
 Quadrupole moment (field-independent basis, Debye-Ang):
   XX=            -19.4818   YY=             36.8553   ZZ=             11.9489
   XY=              4.0084   XZ=              1.0946   YZ=             29.2182
 Traceless Quadrupole moment (field-independent basis, Debye-Ang):
   XX=            -29.2560   YY=             27.0812   ZZ=              2.1747
   XY=              4.0084   XZ=              1.0946   YZ=             29.2182
 Octapole moment (field-independent basis, Debye-Ang**2):
  XXX=           -319.6059  YYY=            612.9931  ZZZ=             63.1394  XYY=            200.4173
  XXY=           -118.0414  XXZ=           -105.6430  XZZ=             25.1411  YZZ=            300.4409
  YYZ=            532.8968  XYZ=            155.4311
 Hexadecapole moment (field-independent basis, Debye-Ang**3):
 XXXX=          -4480.8127 YYYY=           8740.1471 ZZZZ=           -448.9668 XXXY=          -2933.7507
 XXXZ=          -2314.7303 YYYX=           3927.4019 YYYZ=           8276.0666 ZZZX=           -211.1556
 ZZZY=           2170.2983 XXYY=           -160.9131 XXZZ=           -867.5934 YYZZ=           5361.9466
 XXYZ=            -90.9831 YYXZ=           3452.4090 ZZXY=           1652.6651
 N-N= 9.124308137404D+00 E-N=-1.991036742192D+02  KE= 7.620320701898D+01
 No NMR shielding tensors so no spin-rotation constants.
 Leave Link  601 at Tue Apr 26 17:45:12 2022, MaxMem=  5242880000 cpu:               1.1 elap:               0.1
 (Enter /data0/hywu0/study/g16/l122.exe)
 CPIOFr:  IOpCl= 0 IRwI=-1 IRwCP=  731 ICalc=  8 LCPTot=      411835 Len1MO=     1083782 IndFrg=    10165873
 Restoring MOs from calculation   1 to rwf.
 CPIOFr:  IOpCl= 0 IRwI=-2 IRwCP=  731 ICalc=  0 LCPTot=      411835 Len1MO=     1083782 IndFrg=     1495617
 Counterpoise corrected energy =   -1176.881508959059
                   BSSE energy =       0.005193373769
              sum of fragments =   -1176.812641225736
           complexation energy =     -46.47 kcal/mole (raw)
           complexation energy =     -43.22 kcal/mole (corrected)
 Leave Link  122 at Tue Apr 26 17:45:12 2022, MaxMem=  5242880000 cpu:               0.3 elap:               0.0
 (Enter /data0/hywu0/study/g16/l9999.exe)
 1\1\GINC-LOCALHOST\SP\RM062X\6-311+G(2d,p)\C7H13N2O6P1\HYWU0\26-Apr-20
 22\0\\#p M062X/6-311+G(2d,p) nosymm em=GD3 counterpoise=4\\Title Card 
 Required\\0,1\C,0,6.635329,14.603765,11.170309\C,0,6.12067,15.452629,1
 0.132403\C,0,5.170173,14.966014,9.230123\C,0,4.756111,13.654264,9.3819
 03\C,0,5.261407,12.828667,10.408784\C,0,6.20208,13.284302,11.317248\H,
 0,4.782497,15.61077,8.443678\H,0,4.015704,13.239272,8.698169\H,0,4.894
 323,11.804143,10.482939\H,0,6.585999,12.647051,12.107827\H,0,8.145565,
 15.059925,12.612696\C,0,7.597426,16.637153,11.249394\H,0,8.262109,17.4
 29595,11.574569\N,0,7.561187,15.381739,11.874571\N,0,6.738567,16.70551
 ,10.226588\P,0,9.547939,16.899181,8.249616\O,0,9.607698,16.019786,9.42
 286\O,0,8.09883,17.384281,7.811414\H,0,7.4687,17.406937,8.653482\O,0,1
 0.390186,18.225593,8.500291\H,0,10.370026,18.781395,7.632182\O,0,10.14
 5594,16.370554,6.879466\H,0,9.67948,15.457157,6.648388\O,0,8.829859,13
 .887798,6.34496\H,0,8.836853,13.481191,7.232997\H,0,7.90812,14.067438,
 6.168199\O,0,8.70397,13.158344,9.050538\H,0,7.814211,13.229797,9.40207
 6\H,0,9.129393,13.995769,9.292346\\Version=ES64L-G16RevA.03\HF=-76.421
 9485\RMSD=3.813e-09\Dipole=-1.4004798,-0.0108509,1.399559\Quadrupole=-
 50.7019912,-1.876807,52.5787981,-33.1584804,2.6766049,35.7679449\PG=C0
 1 [X(C7H13N2O6P1)]\\@


 MODELS ARE TO BE USED, NOT BELIEVED.

    -- PARAPHRASED BY H. THIEL IN "PRINCIPLES OF ECONOMETRICS"
 Job cpu time:       0 days  2 hours 48 minutes 58.9 seconds.
 Elapsed time:       0 days  0 hours 10 minutes 37.7 seconds.
 File lengths (MBytes):  RWF=    245 Int=      0 D2E=      0 Chk=     93 Scr=      1
 Normal termination of Gaussian 16 at Tue Apr 26 17:45:12 2022.
