          33
 G =       -0.367902 Gcorr = 0.204655 a.u. Nimag =   0 Frame:     1 Step:     1 Geom:     1
C           4.81661000     12.95484300     11.90389100
H           4.81148700     12.05915000     11.25858400
H           5.71095200     13.55553800     11.69918400
H           4.90063800     12.56013200     12.95063300
C           3.51881000     14.35910900     10.37036400
H           3.48625200     13.57030600      9.59857800
H           2.62740200     14.99654700     10.24238800
H           4.41048000     14.97783700     10.17648800
C           2.38192700     12.83406900     11.87639900
H           1.42624300     13.33228900     11.66612000
H           2.48861100     11.96191900     11.20864300
H           2.30714800     12.40608500     12.90872000
C           3.58206900     14.89017600     12.77911100
H           4.08516800     15.76549000     12.32331800
H           4.25588400     14.56251000     13.63430800
C           2.22791200     15.29710900     13.37370600
H           1.37373900     14.90004200     12.79496900
H           2.11890400     16.39982900     13.31369800
C           2.09365500     14.86653200     14.84022900
H           1.05312200     14.98727200     15.19190600
H           2.72533900     15.48737400     15.49982000
N           3.55355600     13.76127900     11.75141100
C           2.51603700     13.39618000     14.99124500
O           1.63516000     12.52847200     14.99355800
O           3.75217000     13.18830700     14.99664700
P           3.79299700      9.70084900     14.17996700
O           4.27597200      8.32488100     14.17351600
O           4.79348600     10.75039200     14.79074700
H           4.30327600     11.69791200     14.94340800
O           3.59972100     10.32093600     12.67977300
H           3.42036100      9.56488900     12.04018700
O           2.36107100      9.86848000     14.81840800
H           2.10384000     10.89328400     14.91009500
          33
 G =       -0.364810 Gcorr = 0.207135 a.u. Nimag =   0 Frame:     2 Step:     2 Geom:     2
C           4.79272800     13.03421300     12.10580200
H           4.92805400     12.10560800     11.52376000
H           5.66175000     13.68740200     11.96624700
H           4.78137600     12.70846200     13.18372300
C           3.59478800     14.22425200     10.33974600
H           3.74208900     13.38190400      9.64028100
H           2.67170300     14.75029100     10.04446600
H           4.44379500     14.91514400     10.20780300
C           2.39082200     12.72832000     11.81582800
H           1.42575000     13.15785500     11.51831100
H           2.60936700     11.85567000     11.17517300
H           2.27055600     12.30223400     12.84760600
C           3.33288300     14.93781000     12.68885600
H           3.52558800     15.85994900     12.10261300
H           4.14934200     14.89438600     13.46319100
C           1.99288100     15.07169600     13.42708600
H           1.17855400     14.48833400     12.95723200
H           1.65265900     16.12652700     13.36500700
C           2.11086300     14.67331000     14.90102500
H           1.13037500     14.74360200     15.40717000
H           2.79950200     15.33602700     15.45170000
N           3.50365200     13.73064200     11.76116000
C           2.61482000     13.22399500     14.98050000
O           1.76614800     12.32232500     14.91959200
O           3.85415300     13.06961000     14.99374300
P           3.95911800      9.57864400     14.10204100
O           4.47470800      8.21534700     14.04787900
O           4.94928800     10.62674600     14.73705000
H           4.44941900     11.55793600     14.91191600
O           3.73065200     10.24141300     12.62552100
H           3.60514600      9.49951700     11.95708600
O           2.53624600      9.70362900     14.76553300
H           2.25122800     10.72721900     14.84537300
          33
 G =       -0.364815 Gcorr = 0.204732 a.u. Nimag =   0 Frame:     3 Step:     3 Geom:     3
C           5.08593000     13.99136400     11.08377400
H           5.19963900     13.23100500     10.29159100
H           5.35892300     14.97251200     10.66703500
H           5.81446700     13.74032300     11.88311200
C           2.73195400     14.37000800     10.54314300
H           2.85217200     13.71386200      9.66389700
H           1.68302200     14.27134500     10.88314800
H           2.88333300     15.41274600     10.22060800
C           3.37688000     12.60444600     12.12374200
H           2.45344700     12.56861900     12.74138300
H           3.27327500     11.88434100     11.30053200
H           4.18785300     12.23781600     12.79780100
C           3.63068400     15.00231700     12.77327200
H           4.04236100     15.96554000     12.41503100
H           4.32625400     14.62424300     13.58810700
C           2.23047200     15.20560300     13.37162900
H           1.47460100     14.53719300     12.91066200
H           1.87719400     16.23522900     13.17328600
C           2.23912300     14.94229000     14.87965800
H           1.24710800     15.13856900     15.32388900
H           2.95885800     15.58366100     15.41182000
N           3.68487200     13.99128400     11.63806200
C           2.61057800     13.45960400     15.08752800
O           1.68477600     12.65850900     15.24795900
O           3.82729700     13.19016100     14.97362100
P           3.43047900      9.60772700     14.53664300
O           3.81648500      8.20283200     14.59975400
O           4.62054400     10.61724800     14.77678100
H           4.24604500     11.60662900     14.93615000
O           2.95207200     10.09675500     13.05589600
H           2.41513400      9.36176800     12.62551700
O           2.20980200      9.98507600     15.45876900
H           2.00436500     11.02940200     15.37621700
          33
 G =       -0.379568 Gcorr = 0.194737 a.u. Nimag =   0 Frame:     4 Step:     4 Geom:     4
C           4.87585300     12.88979700     11.80522700
H           4.87391000     12.04759000     11.09341500
H           5.75691200     13.51755500     11.62691100
H           5.01306300     12.38897600     12.81460400
C           3.44640100     14.34343500     10.41578300
H           3.39518600     13.59838100      9.60194300
H           2.52917300     14.95459100     10.36370600
H           4.30447400     15.00261200     10.20164200
C           2.43292800     12.71045800     11.93547700
H           1.45301700     13.21067600     11.90449800
H           2.46213300     11.89812200     11.18825700
H           2.47767400     12.16694800     12.91465200
C           3.63554400     14.75142200     12.85852500
H           4.19620700     15.62599900     12.47026500
H           4.27140100     14.35493100     13.71635800
C           2.27499100     15.19018000     13.41706800
H           1.43565300     14.83189400     12.78496000
H           2.21179000     16.29777100     13.38261400
C           2.04399400     14.73099400     14.86454000
H           0.96828900     14.79286300     15.12284300
H           2.57363000     15.39451900     15.57773500
N           3.58307600     13.67179700     11.76913300
C           2.53534500     13.30120100     15.06883700
O           1.74191600     12.34518000     14.97379300
O           3.79620100     13.17749400     15.23022600
P           3.98963900      9.76264200     14.06819300
O           4.69959800      8.48342300     13.99858700
O           4.80113000     11.14106400     14.22232200
H           4.39617200     11.90283000     14.96557600
O           3.24704300     10.13146800     12.58578900
H           2.98482500      9.35411400     12.04937600
O           2.75063600      9.86376500     15.10157700
H           2.23219400     10.78532600     15.16558700
          33
 G =       -0.362046 Gcorr = 0.209620 a.u. Nimag =   0 Frame:     5 Step:     5 Geom:     5
C           4.74487000     12.87374700     11.93841800
H           4.74465000     11.97561900     11.29519300
H           5.66731600     13.44395000     11.77426100
H           4.76792300     12.47909000     12.98753800
C           3.56110200     14.27649400     10.32127600
H           3.54560800     13.46457600      9.57254600
H           2.69113100     14.92743300     10.13056700
H           4.47651900     14.86674000     10.15124500
C           2.31019600     12.83508700     11.81360800
H           1.38032600     13.36673500     11.57393300
H           2.40423800     11.95701500     11.15154800
H           2.19048500     12.40747600     12.84653300
C           3.54468600     14.88173800     12.71447000
H           3.91008500     15.78543000     12.18397300
H           4.32925300     14.65654800     13.48980200
C           2.23197600     15.20472300     13.44278500
H           1.34791600     14.73700300     12.96886600
H           2.04049500     16.29573100     13.37983900
C           2.28395700     14.79110900     14.91690700
H           1.31283500     14.97625200     15.41153700
H           3.03983000     15.36672200     15.47747500
N           3.51690600     13.71802900     11.72007900
C           2.60827400     13.29058100     15.00075100
O           1.66769700     12.49742900     14.83195300
O           3.81091800     12.98844300     15.12899200
P           3.60545100      9.56102100     14.03561500
O           3.98349800      8.15385400     13.96894800
O           4.68999300     10.50162200     14.68244900
H           4.26651900     11.45765800     14.92743500
O           3.45873000     10.25514800     12.56202900
H           3.27748100      9.53362100     11.88461600
O           2.19470600      9.81882400     14.68650400
H           2.00443200     10.86457500     14.76832400
          33
 G =       -0.363582 Gcorr = 0.208274 a.u. Nimag =   0 Frame:     6 Step:     6 Geom:     6
C           4.33269700     12.61396900     10.92597900
H           4.05386400     12.16398400      9.96113500
H           5.29258200     13.13662300     10.81165900
H           4.49052000     11.76578200     11.64241800
C           3.03733400     14.63705900     10.44694500
H           2.76201500     14.23978600      9.45562200
H           2.22093600     15.30510900     10.77760000
H           3.94468700     15.25221100     10.32803900
C           1.99325500     12.73483800     11.58338400
H           1.20657800     13.29443000     12.12876400
H           1.60499100     12.40517900     10.61243600
H           2.16915500     11.83058800     12.21506600
C           3.71863000     14.11376300     12.76723300
H           4.68749800     14.62924400     12.61104500
H           3.92975200     13.24453200     13.45307600
C           2.70188200     15.06308100     13.41869700
H           1.67516400     14.88825900     13.03135400
H           2.94640200     16.11564000     13.19121100
C           2.66709200     14.84322500     14.93257400
H           1.86611700     15.43750200     15.40487000
H           3.60916400     15.15352400     15.41591000
N           3.25581400     13.53158800     11.43827500
C           2.40236000     13.35480000     15.24090400
O           1.66452400     12.75203800     14.42566900
O           2.98248100     12.86443700     16.21319100
P           3.67252400      9.83632600     14.45814400
O           4.06879200      8.46152900     14.18409100
O           3.88656400     10.28650000     15.95323800
H           3.49730100     11.26941900     16.09617800
O           4.54552800     10.92720600     13.60280200
H           5.51640300     10.82643300     13.84125000
O           2.22094300     10.20536100     13.97995400
H           1.96645000     11.21605600     14.29130600
          33
 G =       -0.367902 Gcorr = 0.204656 a.u. Nimag =   0 Frame:     7 Step:     7 Geom:     7
C           4.79035400     12.96655100     11.85986300
H           4.82431100     12.06566200     11.22274100
H           5.64158400     13.61800400     11.62824900
H           4.92303900     12.58836300     12.90768000
C           3.37245500     14.27267800     10.34591500
H           3.36730600     13.47464500      9.58297300
H           2.44179800     14.85477700     10.23472600
H           4.22066900     14.94074600     10.12289600
C           2.36756500     12.69913600     11.89528500
H           1.37865600     13.13631100     11.70368100
H           2.51060300     11.82715500     11.23417500
H           2.34401900     12.27986500     12.93359700
C           3.46335600     14.83369000     12.74705000
H           3.90126600     15.73245800     12.27007000
H           4.17690100     14.55681200     13.58775100
C           2.10242000     15.16538700     13.37215200
H           1.25953500     14.71079700     12.81986300
H           1.92575700     16.25879100     13.30368000
C           2.03126000     14.74490200     14.84609300
H           0.99451900     14.80708300     15.22317100
H           2.64085500     15.41015700     15.48266800
N           3.47751000     13.69370500     11.73140400
C           2.54475600     13.30419600     15.00095300
O           1.71793500     12.38531600     15.03291000
O           3.79087500     13.17096300     14.97769800
P           4.02629600      9.68433300     14.19489900
O           4.59221400      8.34043100     14.19036700
O           4.97765100     10.80091000     14.76401600
H           4.43359900     11.71765700     14.92280000
O           3.75369300     10.27221800     12.69384800
H           3.59361000      9.49917000     12.06993300
O           2.60543800      9.77404300     14.87267500
H           2.28819500     10.78310400     14.95424000
          33
 G =       -0.367900 Gcorr = 0.204658 a.u. Nimag =   0 Frame:     8 Step:     8 Geom:     8
C           4.68554700     12.93686700     11.77469300
H           4.62461600     12.04298200     11.12978100
H           5.56410900     13.53342400     11.50121100
H           4.85008900     12.53877500     12.81061600
C           3.27752800     14.35188700     10.35226100
H           3.17920300     13.56528900      9.58380100
H           2.38237400     14.99450400     10.29699900
H           4.15441300     14.96626400     10.08929500
C           2.25578800     12.82899800     11.94069700
H           1.28916700     13.33253100     11.80694900
H           2.30493700     11.95746600     11.26549400
H           2.26047900     12.39986700     12.97522800
C           3.53530100     14.87621700     12.74956200
H           4.00546400     15.75003500     12.25715300
H           4.27333200     14.54257600     13.54741600
C           2.23524200     15.28901500     13.45121100
H           1.33534100     14.89712200     12.94253300
H           2.12765400     16.39233900     13.40152000
C           2.21688400     14.85669000     14.92329300
H           1.20904700     14.98395100     15.35803100
H           2.90419600     15.47182000     15.53042300
N           3.41877700     13.75032600     11.72486900
C           2.63928600     13.38299100     15.03737000
O           1.75576300     12.52106000     15.10807800
O           3.87062800     13.16729800     14.94363800
P           3.83493700      9.68433200     14.12074200
O           4.31046300      8.30665500     14.07333700
O           4.88645300     10.72972400     14.64674100
H           4.41303700     11.67880800     14.84101300
O           3.51985600     10.30697600     12.64219600
H           3.27303200      9.55387700     12.02214100
O           2.46158400      9.85684900     14.87638800
H           2.21547400     10.88250400     14.98534300
          33
 G =       -0.362091 Gcorr = 0.209575 a.u. Nimag =   0 Frame:     9 Step:     9 Geom:     9
C           4.73524100     13.12598000     11.88807900
H           4.83820800     12.22136800     11.26243600
H           5.57330700     13.80596700     11.69259200
H           4.82905100     12.76082700     12.94390900
C           3.35009500     14.32947400     10.27045700
H           3.42606400     13.50618100      9.53800200
H           2.39966100     14.85818400     10.08582400
H           4.17790500     15.02923000     10.06941300
C           2.32379800     12.77264900     11.81729000
H           1.32881200     13.17533800     11.58788800
H           2.51720000     11.89967400     11.17029800
H           2.28003000     12.35607500     12.86067800
C           3.30174000     14.98000200     12.65128800
H           3.53772900     15.91119300     12.09557400
H           4.12326700     14.87415000     13.41369900
C           1.97246800     15.14812000     13.40143100
H           1.14707100     14.56073200     12.95568800
H           1.64126200     16.20400800     13.32163900
C           2.10485100     14.77688200     14.88178200
H           1.12754600     14.84711700     15.39356100
H           2.79111900     15.45651500     15.41475300
N           3.40487200     13.80080300     11.68039200
C           2.62062800     13.33235100     14.98746200
O           1.78655200     12.42190600     14.85433800
O           3.85429100     13.18946200     15.09532000
P           4.07139900      9.74131500     14.07318400
O           4.62552400      8.39291300     14.02547400
O           5.03857400     10.82664000     14.67825400
H           4.50105200     11.72592800     14.91372300
O           3.80891100     10.37843100     12.58997300
H           3.70917000      9.62485900     11.93073500
O           2.65190000      9.83068400     14.74937000
H           2.33070000     10.84506200     14.81551400
          33
 G =       -0.379564 Gcorr = 0.194741 a.u. Nimag =   0 Frame:    10 Step:    10 Geom:    10
C           4.82896800     12.90986800     11.78244100
H           4.88939100     12.04281300     11.10379400
H           5.67460700     13.58178900     11.59385200
H           4.97725100     12.45651900     12.81245100
C           3.34172100     14.22267500     10.31561900
H           3.34900600     13.44586300      9.53039400
H           2.39127100     14.77590700     10.22560000
H           4.16332000     14.92312200     10.08974800
C           2.39890400     12.59042400     11.88084300
H           1.39195700     13.02985600     11.81484600
H           2.48957500     11.75372200     11.16614900
H           2.45776900     12.08782300     12.88089200
C           3.46232000     14.73257500     12.74352400
H           3.97714400     15.62392200     12.33069200
H           4.10504900     14.40723100     13.62583500
C           2.06847600     15.10989000     13.26349500
H           1.26319200     14.67887200     12.63248100
H           1.94066300     16.20967900     13.18570900
C           1.83906600     14.69200900     14.72367300
H           0.75711600     14.69896700     14.96242700
H           2.31554300     15.41223900     15.41915100
N           3.49324600     13.61163400     11.69582300
C           2.41049700     13.30286000     14.99050400
O           1.67677500     12.29824300     14.92049200
O           3.67345600     13.26084900     15.17575700
P           4.08803900      9.82216700     14.14909300
O           4.87319500      8.58575700     14.13945400
O           4.81429400     11.25110400     14.26312800
H           4.35191500     12.01480300     14.96979400
O           3.35137200     10.09093500     12.64234300
H           3.14389200      9.27991400     12.13244800
O           2.82691200      9.88757500     15.15834100
H           2.25409900     10.77841900     15.17922900
          33
 G =       -0.364826 Gcorr = 0.207119 a.u. Nimag =   0 Frame:    11 Step:    11 Geom:    11
C           4.67584900     12.94405900     12.00355200
H           4.77284500     11.98965600     11.45668800
H           5.55108200     13.57353800     11.80590100
H           4.69766900     12.66348200     13.09397100
C           3.43678100     14.08381800     10.23270000
H           3.54307900     13.21057300      9.56440400
H           2.51344500     14.61552900      9.94861400
H           4.29305000     14.75161000     10.04195200
C           2.25987200     12.67412300     11.81182100
H           1.29266800     13.10994000     11.53085700
H           2.43917700     11.77155500     11.20114100
H           2.16900500     12.29343300     12.86419100
C           3.27335100     14.89867800     12.55766300
H           3.46178200     15.79183600     11.92682300
H           4.11630000     14.87106000     13.30378900
C           1.96356700     15.08963000     13.33646400
H           1.12221100     14.50370400     12.92052100
H           1.64085400     16.14757500     13.24228700
C           2.12735000     14.75004400     14.82071400
H           1.16727400     14.86070000     15.35780400
H           2.84761000     15.42097700     15.31845700
N           3.38812300     13.65110500     11.67590500
C           2.60696400     13.29543700     14.94293300
O           1.74034800     12.40905100     14.94939900
O           3.84299100     13.11720700     14.91903200
P           3.85071600      9.59087300     14.17171900
O           4.33918000      8.21658200     14.15660000
O           4.88122600     10.64452800     14.72819400
H           4.40488000     11.59231900     14.87943800
O           3.58205500     10.19650600     12.67749700
H           3.42386800      9.42997300     12.04474400
O           2.45440400      9.77001700     14.87791400
H           2.19042600     10.80090200     14.92632600
          33
 G =       -0.379577 Gcorr = 0.194728 a.u. Nimag =   0 Frame:    12 Step:    12 Geom:    12
C           4.87527200     12.94141900     11.83396500
H           4.98919200     12.06183600     11.17876300
H           5.69598600     13.64447800     11.64874000
H           5.01738500     12.51972000     12.87822500
C           3.36984000     14.15282700     10.30001700
H           3.42932100     13.35817900      9.53513300
H           2.39919700     14.66220200     10.17383300
H           4.16615700     14.88237100     10.07571900
C           2.45932500     12.52005800     11.88381600
H           2.51582300     12.04424600     12.89704400
H           1.43648300     12.91424600     11.78447300
H           2.60209700     11.67143500     11.19211600
C           3.40939700     14.72640300     12.71633800
H           3.89613400     15.62867900     12.29330200
H           4.04335900     14.45047700     13.62153700
C           1.98842300     15.05617200     13.19348300
H           1.21793900     14.57560100     12.55484700
H           1.81614200     16.14722300     13.08467200
C           1.74098100     14.66468200     14.65801500
H           0.65414400     14.63090200     14.87089300
H           2.16916900     15.42149700     15.34599600
N           3.51348200     13.58266400     11.69845100
C           2.36398500     13.30827900     14.97353900
O           1.67530900     12.27169300     14.91138500
O           3.62245600     13.32506300     15.18999400
P           4.20868800      9.88372900     14.26193600
O           5.04571400      8.68250000     14.30305900
O           4.87058400     11.34520800     14.35562700
H           4.35938800     12.10513300     15.03162800
O           3.49871500     10.08314100     12.73189800
H           3.33705800      9.25174800     12.23870200
O           2.92160900      9.92021900     15.23928400
H           2.31124900     10.78599000     15.22359000
          33
 G =       -0.364480 Gcorr = 0.208086 a.u. Nimag =   0 Frame:    13 Step:    13 Geom:    13
C           4.82298800     13.02010300     11.84515200
H           4.91185700     12.11688500     11.21722400
H           5.64262400     13.71326100     11.62137800
H           4.95966300     12.65598300     12.89781000
C           3.36083400     14.23652700     10.29874400
H           3.40836500     13.43241300      9.54384400
H           2.40313000     14.76877900     10.16873000
H           4.17620800     14.94607100     10.08082600
C           2.41892600     12.62667600     11.85255400
H           1.41164200     13.00602800     11.63371700
H           2.62084500     11.75367000     11.20779300
H           2.40598700     12.22860100     12.89534500
C           3.38325500     14.82346600     12.69574800
H           3.78476900     15.73928200     12.22015100
H           4.09210400     14.58751600     13.55502400
C           1.99452000     15.08859600     13.29061600
H           1.18904100     14.57558100     12.73420800
H           1.75687400     16.16842300     13.19261000
C           1.91575100     14.70157200     14.77314100
H           0.86927500     14.72580600     15.12828100
H           2.47868100     15.41470400     15.40160400
N           3.47640700     13.67779300     11.69141300
C           2.49632600     13.29553100     14.99996500
O           1.72249900     12.35423100     15.19124400
O           3.74564200     13.21305700     14.89583400
P           4.15343000      9.73985100     14.26141000
O           4.77986000      8.42302000     14.28374600
O           5.04374600     10.91203500     14.81317500
H           4.45513100     11.81326900     14.92477800
O           3.85945000     10.28177900     12.74727000
H           3.73810700      9.48861300     12.13988000
O           2.72517200      9.76932400     14.93166400
H           2.37689200     10.76157100     15.04514100
          33
 G =       -0.364820 Gcorr = 0.207125 a.u. Nimag =   0 Frame:    14 Step:    14 Geom:    14
C           4.71545300     13.08275100     12.04305300
H           4.85601200     12.13250300     11.49846100
H           5.56475200     13.74812200     11.84985100
H           4.74195300     12.80499300     13.13412700
C           3.44063200     14.16606100     10.26211000
H           3.58777800     13.29673100      9.59646300
H           2.49751400     14.65785400      9.97115700
H           4.26915500     14.86898200     10.07503800
C           2.31408600     12.71155100     11.83736900
H           1.33128600     13.10591400     11.54933200
H           2.53485000     11.81597100     11.22996100
H           2.23266700     12.32973900     12.89004800
C           3.22905400     14.97812200     12.58419200
H           3.38424000     15.87702300     11.95250800
H           4.06759600     14.98704500     13.33566800
C           1.90746500     15.11589400     13.35421300
H           1.09391800     14.49460700     12.93432500
H           1.54158100     16.15927600     13.25557200
C           2.07577500     14.78643000     14.84022900
H           1.10860600     14.85847900     15.37114200
H           2.76455500     15.48759100     15.34085200
N           3.40131900     13.73462500     11.70596400
C           2.61425900     13.35309700     14.96893800
O           1.78491100     12.43177300     14.97303700
O           3.85672300     13.22601900     14.95248600
P           4.01697000      9.70216300     14.21414600
O           4.56218200      8.34935900     14.20484100
O           4.99880200     10.79838500     14.77624600
H           4.48298000     11.72627600     14.92130700
O           3.73404900     10.29405900     12.71704200
H           3.60645300      9.52074400     12.08561400
O           2.60930800      9.82434500     14.91016900
H           2.30312000     10.84353600     14.95455500
          33
 G =       -0.364809 Gcorr = 0.207135 a.u. Nimag =   0 Frame:    15 Step:    15 Geom:    15
C           4.75292200     13.04141500     12.07350300
H           4.91938600     12.10103000     11.51922400
H           5.61687600     13.70359800     11.94521100
H           4.71188800     12.74189300     13.15838600
C           3.59494600     14.16975300     10.24143500
H           3.77493100     13.31235100      9.56843300
H           2.67471000     14.67547700      9.90472200
H           4.43857000     14.86880000     10.11833100
C           2.36573200     12.69394200     11.71690400
H           1.40483300     13.10183200     11.37826100
H           2.61639000     11.80839700     11.10633800
H           2.21832700     12.29246300     12.75493100
C           3.25000400     14.93781900     12.56245500
H           3.44952600     15.84762500     11.95951900
H           4.04178500     14.92503200     13.36305500
C           1.88546800     15.07163400     13.25434000
H           1.09434400     14.46512000     12.77432500
H           1.53353800     16.11966500     13.15447900
C           1.96188700     14.71231200     14.74101700
H           0.96517000     14.78227500     15.21436800
H           2.62450600     15.39782500     15.29566500
N           3.46601400     13.71045100     11.67141600
C           2.48116200     13.27226000     14.87313800
O           1.64606500     12.35821200     14.80866700
O           3.72127100     13.13463500     14.92864700
P           3.90089200      9.62451700     14.12973500
O           4.43448100      8.26704700     14.12784400
O           4.85578500     10.70087600     14.77156400
H           4.33910000     11.62982200     14.90433200
O           3.71515200     10.24693800     12.62976800
H           3.63414900      9.48693500     11.97498500
O           2.45455000      9.74813400     14.74054300
H           2.15564100     10.76993200     14.78447800
          33
 G =       -0.367915 Gcorr = 0.204419 a.u. Nimag =   0 Frame:    16 Step:    16 Geom:    16
C           4.72081200     12.82914700     11.90854200
H           4.74817700     11.88763500     11.33305400
H           5.61513800     13.42440100     11.69093900
H           4.77057200     12.51749700     12.98791100
C           3.46459500     14.10407800     10.23554900
H           3.47949900     13.26187700      9.52153900
H           2.56723900     14.71051300     10.02660000
H           4.35240900     14.72575600     10.03317700
C           2.29127100     12.67072700     11.79941600
H           1.33639400     13.14659800     11.54059900
H           2.42525400     11.76959000     11.17567100
H           2.20051500     12.28704500     12.84756000
C           3.43366300     14.80648100     12.60165100
H           3.85398400     15.68071600     12.06652500
H           4.15573200     14.58897100     13.45011100
C           2.07821600     15.16364800     13.22496600
H           1.22740100     14.70039700     12.69270600
H           1.90893700     16.25602100     13.12587700
C           2.01834600     14.78642600     14.71031200