 Entering Gaussian System, Link 0=g16
 Initial command:
 /data0/home/software/g16/l1.exe "/data0/home/software/g16/scratch/Gau-1580551.inp" -scrdir="/data0/home/software/g16/scratch/"
 Default is to use a total of  22 processors:
                               22 via shared-memory
                                1 via Linda
 Entering Link 1 = /data0/home/software/g16/l1.exe PID=   1580552.
  
 Copyright (c) 1988,1990,1992,1993,1995,1998,2003,2009,2016,
            Gaussian, Inc.  All Rights Reserved.
  
 This is part of the Gaussian(R) 16 program.  It is based on
 the Gaussian(R) 09 system (copyright 2009, Gaussian, Inc.),
 the Gaussian(R) 03 system (copyright 2003, Gaussian, Inc.),
 the Gaussian(R) 98 system (copyright 1998, Gaussian, Inc.),
 the Gaussian(R) 94 system (copyright 1995, Gaussian, Inc.),
 the Gaussian 92(TM) system (copyright 1992, Gaussian, Inc.),
 the Gaussian 90(TM) system (copyright 1990, Gaussian, Inc.),
 the Gaussian 88(TM) system (copyright 1988, Gaussian, Inc.),
 the Gaussian 86(TM) system (copyright 1986, Carnegie Mellon
 University), and the Gaussian 82(TM) system (copyright 1983,
 Carnegie Mellon University). Gaussian is a federally registered
 trademark of Gaussian, Inc.
  
 This software contains proprietary and confidential information,
 including trade secrets, belonging to Gaussian, Inc.
  
 This software is provided under written license and may be
 used, copied, transmitted, or stored only in accord with that
 written license.
  
 The following legend is applicable only to US Government
 contracts under FAR:
  
                    RESTRICTED RIGHTS LEGEND
  
 Use, reproduction and disclosure by the US Government is
 subject to restrictions as set forth in subparagraphs (a)
 and (c) of the Commercial Computer Software - Restricted
 Rights clause in FAR 52.227-19.
  
 Gaussian, Inc.
 340 Quinnipiac St., Bldg. 40, Wallingford CT 06492
  
  
 ---------------------------------------------------------------
 Warning -- This program may not be used in any manner that
 competes with the business of Gaussian, Inc. or will provide
 assistance to any competitor of Gaussian, Inc.  The licensee
 of this program is prohibited from giving any competitor of
 Gaussian, Inc. access to this program.  By using this program,
 the user acknowledges that Gaussian, Inc. is engaged in the
 business of creating and licensing software in the field of
 computational chemistry and represents and warrants to the
 licensee that it is not a competitor of Gaussian, Inc. and that
 it will not use this program in any manner prohibited above.
 ---------------------------------------------------------------
  

 Cite this work as:
 Gaussian 16, Revision A.03,
 M. J. Frisch, G. W. Trucks, H. B. Schlegel, G. E. Scuseria, 
 M. A. Robb, J. R. Cheeseman, G. Scalmani, V. Barone, 
 G. A. Petersson, H. Nakatsuji, X. Li, M. Caricato, A. V. Marenich, 
 J. Bloino, B. G. Janesko, R. Gomperts, B. Mennucci, H. P. Hratchian, 
 J. V. Ortiz, A. F. Izmaylov, J. L. Sonnenberg, D. Williams-Young, 
 F. Ding, F. Lipparini, F. Egidi, J. Goings, B. Peng, A. Petrone, 
 T. Henderson, D. Ranasinghe, V. G. Zakrzewski, J. Gao, N. Rega, 
 G. Zheng, W. Liang, M. Hada, M. Ehara, K. Toyota, R. Fukuda, 
 J. Hasegawa, M. Ishida, T. Nakajima, Y. Honda, O. Kitao, H. Nakai, 
 T. Vreven, K. Throssell, J. A. Montgomery, Jr., J. E. Peralta, 
 F. Ogliaro, M. J. Bearpark, J. J. Heyd, E. N. Brothers, K. N. Kudin, 
 V. N. Staroverov, T. A. Keith, R. Kobayashi, J. Normand, 
 K. Raghavachari, A. P. Rendell, J. C. Burant, S. S. Iyengar, 
 J. Tomasi, M. Cossi, J. M. Millam, M. Klene, C. Adamo, R. Cammi, 
 J. W. Ochterski, R. L. Martin, K. Morokuma, O. Farkas, 
 J. B. Foresman, and D. J. Fox, Gaussian, Inc., Wallingford CT, 2016.
 
 ******************************************
 Gaussian 16:  ES64L-G16RevA.03 25-Dec-2016
                11-Dec-2022 
 ******************************************
 %nproc=24
 Will use up to   24 processors via shared memory.
 %mem=50GB
 -------------------------------------------------------
 #p B3LYP/6-311+G(2d,p) opt freq scrf(smd,solvent=water)
 -------------------------------------------------------
 1/18=20,19=15,26=3,38=1/1,3;
 2/9=110,12=2,17=6,18=5,40=1/2;
 3/5=4,6=6,7=112,11=2,25=1,30=1,70=32201,71=1,72=1,74=-5/1,2,3;
 4//1;
 5/5=2,38=5,53=1/2;
 6/7=2,8=2,9=2,10=2,28=1/1;
 7//1,2,3,16;
 1/18=20,19=15,26=3/3(2);
 2/9=110/2;
 99//99;
 2/9=110/2;
 3/5=4,6=6,7=112,11=2,25=1,30=1,70=32205,71=1,72=1,74=-5/1,2,3;
 4/5=5,16=3,69=1/1;
 5/5=2,38=5,53=1/2;
 7//1,2,3,16;
 1/18=20,19=15,26=3/3(-5);
 2/9=110/2;
 6/7=2,8=2,9=2,10=2,19=2,28=1/1;
 99/9=1/99;
 Leave Link    1 at Sun Dec 11 21:35:35 2022, MaxMem=  6710886400 cpu:               0.7 elap:               0.0
 (Enter /data0/home/software/g16/l101.exe)
 -------------------
 Title Card Required
 -------------------
 Symbolic Z-matrix:
 Charge =  0 Multiplicity = 1
 C                     13.80842   5.54305   8.39559 
 C                     14.75194   5.59621   7.37845 
 C                     14.79938   6.70814   6.53243 
 C                     13.83051   7.69855   6.65494 
 C                     12.8395   7.57315   7.64749 
 H                     15.60622   6.80529   5.80426 
 H                     13.80114   4.72558   9.13079 
 H                     15.49997   4.80465   7.29675 
 H                     12.02131   8.30901   7.71815 
 C                     13.84141   8.93353   5.8339 
 H                     14.62127   8.93671   5.06286 
 H                     12.88203   9.13152   5.33979 
 H                     14.04425   9.80732   6.49955 
 N                     12.87626   6.54143   8.5279 
 C                     11.94494   6.46539   9.68023 
 H                     11.07983   5.83393   9.37467 
 H                     12.47462   5.93144   10.51597 
 C                     11.4436   7.81877   10.21905 
 H                     11.10057   8.48501   9.40074 
 H                     10.51779   7.61723   10.80463 
 C                     12.45151   8.5197    11.11841 
 H                     13.16617   7.80386   11.56786 
 H                     11.94234   8.98772   11.98074 
 S                     13.39933   9.83573   10.29037 
 O                     14.56095   10.05292   11.1822 
 O                     12.4578   10.93259   10.10402 
 O                     13.83531   9.21306   8.9793 
 P                     16.2133   7.13626   10.24033 
 O                     15.07704   6.25855   10.55886 
 O                     17.54244   6.25867   10.10544 
 H                     18.32619   6.91317   9.96197 
 O                     16.1209   7.85038   8.82733 
 H                     15.23834   8.47342   8.8205 
 O                     16.60926   8.23103   11.30581 
 H                     15.85422   8.99701   11.30874 
 
 Add virtual bond connecting atoms H33        and O27        Dist= 3.01D+00.
 Add virtual bond connecting atoms H35        and O25        Dist= 3.16D+00.
 ITRead=  0  0  0  0  0  0  0  0  0  0  0  0  0  0  0  0  0  0  0  0
 ITRead=  0  0  0  0  0  0  0  0  0  0  0  0  0  0  0
 MicOpt= -1 -1 -1 -1 -1 -1 -1 -1 -1 -1 -1 -1 -1 -1 -1 -1 -1 -1 -1 -1
 MicOpt= -1 -1 -1 -1 -1 -1 -1 -1 -1 -1 -1 -1 -1 -1 -1
 NAtoms=     35 NQM=       35 NQMF=       0 NMMI=      0 NMMIF=      0
                NMic=       0 NMicF=      0.
                    Isotopes and Nuclear Properties:
 (Nuclear quadrupole moments (NQMom) in fm**2, nuclear magnetic moments (NMagM)
  in nuclear magnetons)

  Atom         1           2           3           4           5           6           7           8           9          10
 IAtWgt=          12          12          12          12          12           1           1           1           1          12
 AtmWgt=  12.0000000  12.0000000  12.0000000  12.0000000  12.0000000   1.0078250   1.0078250   1.0078250   1.0078250  12.0000000
 NucSpn=           0           0           0           0           0           1           1           1           1           0
 AtZEff=  -0.0000000  -0.0000000  -0.0000000  -0.0000000  -0.0000000  -0.0000000  -0.0000000  -0.0000000  -0.0000000  -0.0000000
 NQMom=    0.0000000   0.0000000   0.0000000   0.0000000   0.0000000   0.0000000   0.0000000   0.0000000   0.0000000   0.0000000
 NMagM=    0.0000000   0.0000000   0.0000000   0.0000000   0.0000000   2.7928460   2.7928460   2.7928460   2.7928460   0.0000000
 AtZNuc=   6.0000000   6.0000000   6.0000000   6.0000000   6.0000000   1.0000000   1.0000000   1.0000000   1.0000000   6.0000000

  Atom        11          12          13          14          15          16          17          18          19          20
 IAtWgt=           1           1           1          14          12           1           1          12           1           1
 AtmWgt=   1.0078250   1.0078250   1.0078250  14.0030740  12.0000000   1.0078250   1.0078250  12.0000000   1.0078250   1.0078250
 NucSpn=           1           1           1           2           0           1           1           0           1           1
 AtZEff=  -0.0000000  -0.0000000  -0.0000000  -0.0000000  -0.0000000  -0.0000000  -0.0000000  -0.0000000  -0.0000000  -0.0000000
 NQMom=    0.0000000   0.0000000   0.0000000   2.0440000   0.0000000   0.0000000   0.0000000   0.0000000   0.0000000   0.0000000
 NMagM=    2.7928460   2.7928460   2.7928460   0.4037610   0.0000000   2.7928460   2.7928460   0.0000000   2.7928460   2.7928460
 AtZNuc=   1.0000000   1.0000000   1.0000000   7.0000000   6.0000000   1.0000000   1.0000000   6.0000000   1.0000000   1.0000000

  Atom        21          22          23          24          25          26          27          28          29          30
 IAtWgt=          12           1           1          32          16          16          16          31          16          16
 AtmWgt=  12.0000000   1.0078250   1.0078250  31.9720718  15.9949146  15.9949146  15.9949146  30.9737634  15.9949146  15.9949146
 NucSpn=           0           1           1           0           0           0           0           1           0           0
 AtZEff=  -0.0000000  -0.0000000  -0.0000000  -0.0000000  -0.0000000  -0.0000000  -0.0000000  -0.0000000  -0.0000000  -0.0000000
 NQMom=    0.0000000   0.0000000   0.0000000   0.0000000   0.0000000   0.0000000   0.0000000   0.0000000   0.0000000   0.0000000
 NMagM=    0.0000000   2.7928460   2.7928460   0.0000000   0.0000000   0.0000000   0.0000000   1.1316000   0.0000000   0.0000000
 AtZNuc=   6.0000000   1.0000000   1.0000000  16.0000000   8.0000000   8.0000000   8.0000000  15.0000000   8.0000000   8.0000000

  Atom        31          32          33          34          35
 IAtWgt=           1          16           1          16           1
 AtmWgt=   1.0078250  15.9949146   1.0078250  15.9949146   1.0078250
 NucSpn=           1           0           1           0           1
 AtZEff=  -0.0000000  -0.0000000  -0.0000000  -0.0000000  -0.0000000
 NQMom=    0.0000000   0.0000000   0.0000000   0.0000000   0.0000000
 NMagM=    2.7928460   0.0000000   2.7928460   0.0000000   2.7928460
 AtZNuc=   1.0000000   8.0000000   1.0000000   8.0000000   1.0000000
 Leave Link  101 at Sun Dec 11 21:35:35 2022, MaxMem=  6710886400 cpu:               7.6 elap:               0.3
 (Enter /data0/home/software/g16/l103.exe)

 GradGradGradGradGradGradGradGradGradGradGradGradGradGradGradGradGradGrad
 Berny optimization.
 Initialization pass.
                           ----------------------------
                           !    Initial Parameters    !
                           ! (Angstroms and Degrees)  !
 --------------------------                            --------------------------
 ! Name  Definition              Value          Derivative Info.                !
 --------------------------------------------------------------------------------
 ! R1    R(1,2)                  1.3884         estimate D2E/DX2                !
 ! R2    R(1,7)                  1.0995         estimate D2E/DX2                !
 ! R3    R(1,14)                 1.3723         estimate D2E/DX2                !
 ! R4    R(2,3)                  1.398          estimate D2E/DX2                !
 ! R5    R(2,8)                  1.0922         estimate D2E/DX2                !
 ! R6    R(3,4)                  1.3909         estimate D2E/DX2                !
 ! R7    R(3,6)                  1.0912         estimate D2E/DX2                !
 ! R8    R(4,5)                  1.4082         estimate D2E/DX2                !
 ! R9    R(4,10)                 1.483          estimate D2E/DX2                !
 ! R10   R(5,9)                  1.1027         estimate D2E/DX2                !
 ! R11   R(5,14)                 1.3568         estimate D2E/DX2                !
 ! R12   R(10,11)                1.0967         estimate D2E/DX2                !
 ! R13   R(10,12)                1.0972         estimate D2E/DX2                !
 ! R14   R(10,13)                1.117          estimate D2E/DX2                !
 ! R15   R(14,15)                1.4836         estimate D2E/DX2                !
 ! R16   R(15,16)                1.1138         estimate D2E/DX2                !
 ! R17   R(15,17)                1.1243         estimate D2E/DX2                !
 ! R18   R(15,18)                1.5406         estimate D2E/DX2                !
 ! R19   R(18,19)                1.1096         estimate D2E/DX2                !
 ! R20   R(18,20)                1.1138         estimate D2E/DX2                !
 ! R21   R(18,21)                1.5218         estimate D2E/DX2                !
 ! R22   R(21,22)                1.1069         estimate D2E/DX2                !
 ! R23   R(21,23)                1.1054         estimate D2E/DX2                !
 ! R24   R(21,24)                1.821          estimate D2E/DX2                !
 ! R25   R(24,25)                1.4805         estimate D2E/DX2                !
 ! R26   R(24,26)                1.4575         estimate D2E/DX2                !
 ! R27   R(24,27)                1.5155         estimate D2E/DX2                !
 ! R28   R(25,35)                1.6744         estimate D2E/DX2                !
 ! R29   R(27,33)                1.594          estimate D2E/DX2                !
 ! R30   R(28,29)                1.4707         estimate D2E/DX2                !
 ! R31   R(28,30)                1.5984         estimate D2E/DX2                !
 ! R32   R(28,32)                1.5859         estimate D2E/DX2                !
 ! R33   R(28,34)                1.5782         estimate D2E/DX2                !
 ! R34   R(30,31)                1.0311         estimate D2E/DX2                !
 ! R35   R(32,33)                1.0803         estimate D2E/DX2                !
 ! R36   R(34,35)                1.0756         estimate D2E/DX2                !
 ! A1    A(2,1,7)              121.5239         estimate D2E/DX2                !
 ! A2    A(2,1,14)             120.2911         estimate D2E/DX2                !
 ! A3    A(7,1,14)             118.1613         estimate D2E/DX2                !
 ! A4    A(1,2,3)              119.7927         estimate D2E/DX2                !
 ! A5    A(1,2,8)              119.5053         estimate D2E/DX2                !
 ! A6    A(3,2,8)              120.5277         estimate D2E/DX2                !
 ! A7    A(2,3,4)              119.3022         estimate D2E/DX2                !
 ! A8    A(2,3,6)              119.9836         estimate D2E/DX2                !
 ! A9    A(4,3,6)              120.6932         estimate D2E/DX2                !
 ! A10   A(3,4,5)              119.2674         estimate D2E/DX2                !
 ! A11   A(3,4,10)             122.6206         estimate D2E/DX2                !
 ! A12   A(5,4,10)             118.0048         estimate D2E/DX2                !
 ! A13   A(4,5,9)              120.5255         estimate D2E/DX2                !
 ! A14   A(4,5,14)             120.3983         estimate D2E/DX2                !
 ! A15   A(9,5,14)             119.0759         estimate D2E/DX2                !
 ! A16   A(4,10,11)            113.3834         estimate D2E/DX2                !
 ! A17   A(4,10,12)            113.1518         estimate D2E/DX2                !
 ! A18   A(4,10,13)            108.8344         estimate D2E/DX2                !
 ! A19   A(11,10,12)           107.7376         estimate D2E/DX2                !
 ! A20   A(11,10,13)           106.7129         estimate D2E/DX2                !
 ! A21   A(12,10,13)           106.6178         estimate D2E/DX2                !
 ! A22   A(1,14,5)             120.601          estimate D2E/DX2                !
 ! A23   A(1,14,15)            117.6464         estimate D2E/DX2                !
 ! A24   A(5,14,15)            121.7335         estimate D2E/DX2                !
 ! A25   A(14,15,16)           107.6724         estimate D2E/DX2                !
 ! A26   A(14,15,17)           107.8158         estimate D2E/DX2                !
 ! A27   A(14,15,18)           115.5264         estimate D2E/DX2                !
 ! A28   A(16,15,17)           107.4931         estimate D2E/DX2                !
 ! A29   A(16,15,18)           109.953          estimate D2E/DX2                !
 ! A30   A(17,15,18)           108.0912         estimate D2E/DX2                !
 ! A31   A(15,18,19)           111.7245         estimate D2E/DX2                !
 ! A32   A(15,18,20)           107.1824         estimate D2E/DX2                !
 ! A33   A(15,18,21)           113.315          estimate D2E/DX2                !
 ! A34   A(19,18,20)           103.8516         estimate D2E/DX2                !
 ! A35   A(19,18,21)           111.348          estimate D2E/DX2                !
 ! A36   A(20,18,21)           108.8528         estimate D2E/DX2                !
 ! A37   A(18,21,22)           111.6979         estimate D2E/DX2                !
 ! A38   A(18,21,23)           110.5457         estimate D2E/DX2                !
 ! A39   A(18,21,24)           114.1334         estimate D2E/DX2                !
 ! A40   A(22,21,23)           104.7411         estimate D2E/DX2                !
 ! A41   A(22,21,24)           108.4193         estimate D2E/DX2                !
 ! A42   A(23,21,24)           106.7679         estimate D2E/DX2                !
 ! A43   A(21,24,25)           103.9159         estimate D2E/DX2                !
 ! A44   A(21,24,26)           105.4137         estimate D2E/DX2                !
 ! A45   A(21,24,27)           104.252          estimate D2E/DX2                !
 ! A46   A(25,24,26)           118.2593         estimate D2E/DX2                !
 ! A47   A(25,24,27)           110.8354         estimate D2E/DX2                !
 ! A48   A(26,24,27)           112.6089         estimate D2E/DX2                !
 ! A49   A(24,25,35)           123.9892         estimate D2E/DX2                !
 ! A50   A(24,27,33)           122.0095         estimate D2E/DX2                !
 ! A51   A(29,28,30)           109.4546         estimate D2E/DX2                !
 ! A52   A(29,28,32)           114.626          estimate D2E/DX2                !
 ! A53   A(29,28,34)           117.4919         estimate D2E/DX2                !
 ! A54   A(30,28,32)           102.7377         estimate D2E/DX2                !
 ! A55   A(30,28,34)           103.2505         estimate D2E/DX2                !
 ! A56   A(32,28,34)           107.6852         estimate D2E/DX2                !
 ! A57   A(28,30,31)           107.1751         estimate D2E/DX2                !
 ! A58   A(28,32,33)           108.2359         estimate D2E/DX2                !
 ! A59   A(28,34,35)           108.6471         estimate D2E/DX2                !
 ! A60   L(27,33,32,1,-1)      173.4161         estimate D2E/DX2                !
 ! A61   L(25,35,34,1,-1)      172.3652         estimate D2E/DX2                !
 ! A62   L(27,33,32,1,-2)      187.0085         estimate D2E/DX2                !
 ! A63   L(25,35,34,1,-2)      180.103          estimate D2E/DX2                !
 ! D1    D(7,1,2,3)           -174.6035         estimate D2E/DX2                !
 ! D2    D(7,1,2,8)              0.6245         estimate D2E/DX2                !
 ! D3    D(14,1,2,3)             3.5932         estimate D2E/DX2                !
 ! D4    D(14,1,2,8)           178.8212         estimate D2E/DX2                !
 ! D5    D(2,1,14,5)             1.8237         estimate D2E/DX2                !
 ! D6    D(2,1,14,15)         -176.6147         estimate D2E/DX2                !
 ! D7    D(7,1,14,5)          -179.9198         estimate D2E/DX2                !
 ! D8    D(7,1,14,15)            1.6417         estimate D2E/DX2                !
 ! D9    D(1,2,3,4)             -5.088          estimate D2E/DX2                !
 ! D10   D(1,2,3,6)            173.254          estimate D2E/DX2                !
 ! D11   D(8,2,3,4)            179.7336         estimate D2E/DX2                !
 ! D12   D(8,2,3,6)             -1.9244         estimate D2E/DX2                !
 ! D13   D(2,3,4,5)              1.334          estimate D2E/DX2                !
 ! D14   D(2,3,4,10)           177.493          estimate D2E/DX2                !
 ! D15   D(6,3,4,5)           -176.9959         estimate D2E/DX2                !
 ! D16   D(6,3,4,10)            -0.8369         estimate D2E/DX2                !
 ! D17   D(3,4,5,9)           -175.737          estimate D2E/DX2                !
 ! D18   D(3,4,5,14)             4.0407         estimate D2E/DX2                !
 ! D19   D(10,4,5,9)             7.9269         estimate D2E/DX2                !
 ! D20   D(10,4,5,14)         -172.2954         estimate D2E/DX2                !
 ! D21   D(3,4,10,11)            5.7836         estimate D2E/DX2                !
 ! D22   D(3,4,10,12)          128.8689         estimate D2E/DX2                !
 ! D23   D(3,4,10,13)         -112.8053         estimate D2E/DX2                !
 ! D24   D(5,4,10,11)         -178.0114         estimate D2E/DX2                !
 ! D25   D(5,4,10,12)          -54.9261         estimate D2E/DX2                !
 ! D26   D(5,4,10,13)           63.3997         estimate D2E/DX2                !
 ! D27   D(4,5,14,1)            -5.6533         estimate D2E/DX2                !
 ! D28   D(4,5,14,15)          172.7203         estimate D2E/DX2                !
 ! D29   D(9,5,14,1)           174.1276         estimate D2E/DX2                !
 ! D30   D(9,5,14,15)           -7.4988         estimate D2E/DX2                !
 ! D31   D(1,14,15,16)         -86.4559         estimate D2E/DX2                !
 ! D32   D(1,14,15,17)          29.2506         estimate D2E/DX2                !
 ! D33   D(1,14,15,18)         150.2427         estimate D2E/DX2                !
 ! D34   D(5,14,15,16)          95.1244         estimate D2E/DX2                !
 ! D35   D(5,14,15,17)        -149.1691         estimate D2E/DX2                !
 ! D36   D(5,14,15,18)         -28.1769         estimate D2E/DX2                !
 ! D37   D(14,15,18,19)         47.2496         estimate D2E/DX2                !
 ! D38   D(14,15,18,20)        160.388          estimate D2E/DX2                !
 ! D39   D(14,15,18,21)        -79.5078         estimate D2E/DX2                !
 ! D40   D(16,15,18,19)        -74.8413         estimate D2E/DX2                !
 ! D41   D(16,15,18,20)         38.2972         estimate D2E/DX2                !
 ! D42   D(16,15,18,21)        158.4013         estimate D2E/DX2                !
 ! D43   D(17,15,18,19)        168.0927         estimate D2E/DX2                !
 ! D44   D(17,15,18,20)        -78.7688         estimate D2E/DX2                !
 ! D45   D(17,15,18,21)         41.3354         estimate D2E/DX2                !
 ! D46   D(15,18,21,22)        -23.4902         estimate D2E/DX2                !
 ! D47   D(15,18,21,23)       -139.6956         estimate D2E/DX2                !
 ! D48   D(15,18,21,24)         99.9388         estimate D2E/DX2                !
 ! D49   D(19,18,21,22)       -150.4457         estimate D2E/DX2                !
 ! D50   D(19,18,21,23)         93.3488         estimate D2E/DX2                !
 ! D51   D(19,18,21,24)        -27.0167         estimate D2E/DX2                !
 ! D52   D(20,18,21,22)         95.6585         estimate D2E/DX2                !
 ! D53   D(20,18,21,23)        -20.5469         estimate D2E/DX2                !
 ! D54   D(20,18,21,24)       -140.9125         estimate D2E/DX2                !
 ! D55   D(18,21,24,25)       -162.5112         estimate D2E/DX2                !
 ! D56   D(18,21,24,26)         72.439          estimate D2E/DX2                !
 ! D57   D(18,21,24,27)        -46.3428         estimate D2E/DX2                !
 ! D58   D(22,21,24,25)        -37.3274         estimate D2E/DX2                !
 ! D59   D(22,21,24,26)       -162.3772         estimate D2E/DX2                !
 ! D60   D(22,21,24,27)         78.841          estimate D2E/DX2                !
 ! D61   D(23,21,24,25)         75.0339         estimate D2E/DX2                !
 ! D62   D(23,21,24,26)        -50.0159         estimate D2E/DX2                !
 ! D63   D(23,21,24,27)       -168.7977         estimate D2E/DX2                !
 ! D64   D(21,24,25,35)         73.9474         estimate D2E/DX2                !
 ! D65   D(26,24,25,35)       -169.6895         estimate D2E/DX2                !
 ! D66   D(27,24,25,35)        -37.5015         estimate D2E/DX2                !
 ! D67   D(21,24,27,33)        -92.6227         estimate D2E/DX2                !
 ! D68   D(25,24,27,33)         18.6104         estimate D2E/DX2                !
 ! D69   D(26,24,27,33)        153.6219         estimate D2E/DX2                !
 ! D70   D(24,25,34,28)          2.498          estimate D2E/DX2                !
 ! D71   D(24,27,32,28)         35.3031         estimate D2E/DX2                !
 ! D72   D(29,28,30,31)       -175.3185         estimate D2E/DX2                !
 ! D73   D(32,28,30,31)         62.4784         estimate D2E/DX2                !
 ! D74   D(34,28,30,31)        -49.4347         estimate D2E/DX2                !
 ! D75   D(29,28,32,33)         61.1956         estimate D2E/DX2                !
 ! D76   D(30,28,32,33)        179.8317         estimate D2E/DX2                !
 ! D77   D(34,28,32,33)        -71.5824         estimate D2E/DX2                !
 ! D78   D(29,28,34,35)        -71.5839         estimate D2E/DX2                !
 ! D79   D(30,28,34,35)        167.8677         estimate D2E/DX2                !
 ! D80   D(32,28,34,35)         59.6374         estimate D2E/DX2                !
 --------------------------------------------------------------------------------
 Trust Radius=3.00D-01 FncErr=1.00D-07 GrdErr=1.00D-06 EigMax=2.50D+02 EigMin=1.00D-04
 Number of steps in this run=    189 maximum allowed number of steps=    210.
 GradGradGradGradGradGradGradGradGradGradGradGradGradGradGradGradGradGrad

 Leave Link  103 at Sun Dec 11 21:35:35 2022, MaxMem=  6710886400 cpu:               0.2 elap:               0.0
 (Enter /data0/home/software/g16/l202.exe)
                          Input orientation:                          
 ---------------------------------------------------------------------
 Center     Atomic      Atomic             Coordinates (Angstroms)
 Number     Number       Type             X           Y           Z
 ---------------------------------------------------------------------
      1          6           0       13.808423    5.543051    8.395590
      2          6           0       14.751938    5.596212    7.378449
      3          6           0       14.799375    6.708136    6.532431
      4          6           0       13.830507    7.698546    6.654939
      5          6           0       12.839499    7.573151    7.647490
      6          1           0       15.606224    6.805293    5.804262
      7          1           0       13.801143    4.725584    9.130792
      8          1           0       15.499966    4.804646    7.296745
      9          1           0       12.021307    8.309011    7.718148
     10          6           0       13.841413    8.933528    5.833897
     11          1           0       14.621265    8.936711    5.062859
     12          1           0       12.882031    9.131521    5.339790
     13          1           0       14.044245    9.807324    6.499550
     14          7           0       12.876263    6.541434    8.527901
     15          6           0       11.944940    6.465392    9.680225
     16          1           0       11.079830    5.833932    9.374675
     17          1           0       12.474618    5.931438   10.515968
     18          6           0       11.443602    7.818771   10.219052
     19          1           0       11.100575    8.485008    9.400738
     20          1           0       10.517792    7.617232   10.804633
     21          6           0       12.451511    8.519699   11.118406
     22          1           0       13.166169    7.803864   11.567857
     23          1           0       11.942338    8.987721   11.980743
     24         16           0       13.399325    9.835729   10.290369
     25          8           0       14.560946   10.052924   11.182197
     26          8           0       12.457796   10.932593   10.104022
     27          8           0       13.835306    9.213058    8.979297
     28         15           0       16.213298    7.136260   10.240330
     29          8           0       15.077040    6.258554   10.558859
     30          8           0       17.542437    6.258674   10.105443
     31          1           0       18.326190    6.913168    9.961972
     32          8           0       16.120896    7.850379    8.827335
     33          1           0       15.238344    8.473423    8.820495
     34          8           0       16.609257    8.231031   11.305814
     35          1           0       15.854218    8.997011   11.308735
 ---------------------------------------------------------------------
                    Distance matrix (angstroms):
                    1          2          3          4          5
     1  C    0.000000
     2  C    1.388388   0.000000
     3  C    2.410554   1.397988   0.000000
     4  C    2.770652   2.406722   1.390908   0.000000
     5  C    2.370606   2.763710   2.415103   1.408183   0.000000
     6  H    3.397105   2.160960   1.091181   2.162111   3.412017
     7  H    1.099467   2.175479   3.417376   3.869007   3.351654
     8  H    2.148027   1.092153   2.167551   3.402009   3.855610
     9  H    3.362030   3.864068   3.418536   2.185471   1.102688
    10  C    4.249552   3.788453   2.521510   1.483041   2.478624
    11  H    4.825426   4.066690   2.675427   2.166349   3.422616
    12  H    4.803460   4.488997   3.312310   2.163941   2.784925
    13  H    4.672751   4.359674   3.190026   2.125270   2.785805
    14  N    1.372296   2.394335   2.776337   2.399474   1.356803
    15  C    2.444089   3.732678   4.256211   3.772053   2.481809
    16  H    2.913493   4.186383   4.762100   4.294179   3.017364
    17  H    2.534933   3.891348   4.677213   4.457426   3.325135
    18  C    3.754503   4.894270   5.107435   4.291232   2.936288
    19  H    4.122848   5.076145   5.006554   3.951008   2.632341
    20  H    4.575365   5.809583   6.116381   5.310429   3.919160
    21  C    4.256216   5.275037   5.461263   4.743254   3.618528
    22  H    3.948043   4.993949   5.405876   4.958750   3.940713
    23  H    5.310494   6.370031   6.560737   5.795804   4.645749
    24  S    4.710057   5.318115   5.085674   4.239082   3.523844
    25  O    5.354477   5.862359   5.732781   5.154872   4.648312
    26  O    5.812925   6.416292   6.007103   4.923370   4.179246
    27  O    3.716233   4.060111   3.631971   2.774240   2.335516
    28  P    3.424150   3.563381   3.991364   4.341531   4.277407
    29  O    2.607885   3.264873   4.060954   4.343733   3.900106
    30  O    4.168762   3.957554   4.526900   5.268551   5.466901
    31  H    4.974032   4.602634   4.923638   5.635996   5.991342
    32  O    3.295102   3.009084   2.884046   3.160418   3.498065
    33  H    3.288206   3.254909   2.923041   2.696678   2.817958
    34  O    4.851733   5.080955   5.327295   5.443862   5.294074
    35  H    4.959993   5.312966   5.400437   5.238247   4.951830
                    6          7          8          9         10
     6  H    0.000000
     7  H    4.318485   0.000000
     8  H    2.498276   2.501195   0.000000
     9  H    4.333100   4.243151   4.955726   0.000000
    10  C    2.764927   5.345833   4.683843   2.693178   0.000000
    11  H    2.462268   5.912214   4.778737   3.768866   1.096667
    12  H    3.612243   5.884619   5.422647   2.659691   1.097159
    13  H    3.454764   5.727706   5.270809   2.796820   1.117029
    14  N    3.865297   2.125133   3.378756   2.123906   3.729784
    15  C    5.342623   2.602748   4.590998   2.693420   4.947984
    16  H    5.846335   2.948467   4.991475   3.123536   5.456276
    17  H    5.724574   2.265494   4.559143   3.699478   5.727343
    18  C    6.151823   4.038578   5.837715   2.613159   5.120719
    19  H    6.004744   4.636724   6.109541   1.926092   4.520588
    20  H    7.180188   4.684417   6.711034   3.502214   6.122688
    21  C    6.413387   4.490816   6.140015   3.433835   5.479883
    22  H    6.337984   3.977221   5.717020   4.047980   5.883060
    23  H    7.505729   5.453732   7.217664   4.317013   6.433750
    24  S    5.846290   5.255441   6.219829   3.293345   4.568320
    25  O    6.368822   5.759003   6.597190   4.635799   5.511360
    26  O    6.740559   6.424852   7.395089   3.572968   4.913718
    27  O    4.360542   4.490160   5.003616   2.387130   3.157802
    28  P    4.489630   3.586213   3.822298   5.030858   5.317204
    29  O    4.815096   2.453016   3.596401   4.648819   5.568440
    30  O    4.748460   4.159037   3.764926   6.354993   6.252882
    31  H    4.969548   5.094353   4.420050   6.836276   6.421533
    32  O    3.239763   3.903548   3.464787   4.271682   3.915345
    33  H    3.466360   4.025932   3.981229   3.404633   3.329096
    34  O    5.771125   4.990429   5.389181   5.824664   6.172223
    35  H    5.929954   5.215711   5.813560   5.296873   5.833461
                   11         12         13         14         15
    11  H    0.000000
    12  H    1.771885   0.000000
    13  H    1.776232   1.775526   0.000000
    14  N    4.559485   4.107631   4.018013   0.000000
    15  C    5.881344   5.179359   5.068756   1.483575   0.000000
    16  H    6.384415   5.513830   5.730789   2.108259   1.113785
    17  H    6.586058   6.099126   5.798089   2.117976   1.124336
    18  C    6.159031   5.253531   4.955036   2.558144   1.540555
    19  H    5.605041   4.481391   4.339424   2.773516   2.206788
    20  H    7.179658   6.143876   5.980478   3.450107   2.151228
    21  C    6.446036   5.826841   5.052585   3.287045   2.558350
    22  H    6.761335   6.374341   5.520200   3.304407   2.616498
    23  H    7.418650   6.708648   5.927330   4.333434   3.413874
    24  S    5.443182   5.027100   3.845392   3.772568   3.721113
    25  O    6.220600   6.148289   4.717466   4.713174   4.687195
    26  O    5.837591   5.110943   4.095762   4.684181   4.516471
    27  O    4.004071   3.763163   2.558506   2.874212   3.407998
    28  P    5.708099   6.252495   5.082599   3.797635   4.356910
    29  O    6.130764   6.349070   5.489847   3.008028   3.259575
    30  O    6.413484   7.258380   6.150832   4.933738   5.617430
    31  H    6.467032   7.478270   6.220897   5.647694   6.403143
    32  O    4.195270   4.928949   3.682485   3.511501   4.481542
    33  H    3.836046   4.254481   2.931203   3.065554   3.951941
    34  O    6.589733   7.092005   5.671346   4.950433   5.245558
    35  H    6.366693   6.669355   5.202006   4.757217   4.933923
                   16         17         18         19         20
    16  H    0.000000
    17  H    1.804852   0.000000
    18  C    2.187439   2.170986   0.000000
    19  H    2.651285   3.106840   1.109584   0.000000
    20  H    2.353896   2.598922   1.113843   1.750312   0.000000
    21  C    3.483597   2.657548   1.521847   2.185547   2.156889
    22  H    3.611577   2.256256   2.187861   3.070349   2.762470
    23  H    4.181136   3.430707   2.172265   2.760020   2.300175
    24  S    4.715181   4.018640   2.810348   2.810719   3.672796
    25  O    5.760660   4.667255   3.954355   4.195965   4.735213
    26  O    5.331705   5.018121   3.276844   2.885711   3.904624
    27  O    4.378066   3.870641   3.033361   2.861193   4.109065
    28  P    5.366368   3.937677   4.818327   5.353875   5.743567
    29  O    4.190499   2.623251   3.968831   4.702193   4.763733
    30  O    6.517647   5.094939   6.296237   6.852062   7.188893
    31  H    7.349789   5.959161   6.946670   7.415873   7.885231
    32  O    5.456921   4.452994   4.880057   5.092658   5.946330
    33  H    4.956538   4.120012   4.096901   4.178271   5.191674
    34  O    6.328503   4.796585   5.294809   5.834329   6.142791
    35  H    6.044869   4.631189   4.693527   5.147788   5.534921
                   21         22         23         24         25
    21  C    0.000000
    22  H    1.106870   0.000000
    23  H    1.105408   1.752072   0.000000
    24  S    1.820970   2.411392   2.387319   0.000000
    25  O    2.608556   2.674399   2.937591   1.480505   0.000000
    26  O    2.617455   3.526124   2.751419   1.457502   2.521809
    27  O    2.640345   3.022286   3.555669   1.515489   2.466718
    28  P    4.103165   3.390135   4.969713   3.899754   3.481998
    29  O    3.509882   2.656593   4.392774   3.960176   3.879710
    30  O    5.661789   4.866003   6.505809   5.476760   4.944191
    31  H    6.199204   5.477045   7.009477   5.737875   5.052136
    32  O    4.377372   4.030265   5.357040   3.672742   3.581902
    33  H    3.612336   3.505740   4.595142   2.720000   2.920844
    34  O    4.171966   3.479367   4.775798   3.729591   2.744112
    35  H    3.441289   2.952347   3.969192   2.786937   1.674371
                   26         27         28         29         30
    26  O    0.000000
    27  O    2.473730   0.000000
    28  P    5.341771   3.399726   0.000000
    29  O    5.377170   3.572956   1.470684   0.000000
    30  O    6.906453   4.872311   1.598425   2.506745   0.000000
    31  H    7.114352   5.140349   2.142794   3.367754   1.031123
    32  O    4.954622   2.665316   1.585894   2.573270   2.487542
    33  H    3.927646   1.593987   2.180475   2.820208   3.444568
    34  O    5.096800   3.751248   1.578152   2.606971   2.490363
    35  H    4.090659   3.090140   2.175505   2.943716   3.434601
                   31         32         33         34         35
    31  H    0.000000
    32  O    2.651243   0.000000
    33  H    3.643097   1.080337   0.000000
    34  O    2.547652   2.554653   2.848678   0.000000
    35  H    3.502402   2.746494   2.616254   1.075555   0.000000
 Stoichiometry    C9H16NO7PS
 Framework group  C1[X(C9H16NO7PS)]
 Deg. of freedom    99
 Full point group                 C1      NOp   1
 Largest Abelian subgroup         C1      NOp   1
 Largest concise Abelian subgroup C1      NOp   1
                         Standard orientation:                         
 ---------------------------------------------------------------------
 Center     Atomic      Atomic             Coordinates (Angstroms)
 Number     Number       Type             X           Y           Z
 ---------------------------------------------------------------------
      1          6           0       -1.431054    1.515547    1.453302
      2          6           0       -2.339752    1.876025    0.467428
      3          6           0       -1.877384    2.300910   -0.781595
      4          6           0       -0.510288    2.458168   -0.983944
      5          6           0        0.379893    2.158696    0.065280
      6          1           0       -2.584702    2.479277   -1.593114
      7          1           0       -1.761685    1.094978    2.413839
      8          1           0       -3.409211    1.750077    0.649616
      9          1           0        1.461305    2.341965   -0.048209
     10          6           0        0.063974    2.852288   -2.293258
     11          1           0       -0.695333    3.101584   -3.044246
     12          1           0        0.755841    3.700896   -2.222970
     13          1           0        0.651011    1.994550   -2.702437
     14          7           0       -0.082784    1.644338    1.232449
     15          6           0        0.837273    1.170383    2.295397
     16          1           0        0.976585    2.005478    3.019086
     17          1           0        0.327499    0.330681    2.842355
     18          6           0        2.207812    0.662080    1.809024
     19          1           0        2.672480    1.362916    1.085083
     20          1           0        2.897070    0.686369    2.683656
     21          6           0        2.163282   -0.755504    1.257216
     22          1           0        1.303547   -1.324577    1.659925
     23          1           0        3.053783   -1.325507    1.579752
     24         16           0        2.112033   -0.845497   -0.560806
     25          8           0        1.643739   -2.222751   -0.836064
     26          8           0        3.448191   -0.469213   -1.005109
     27          8           0        1.059197    0.170746   -0.955131
     28         15           0       -1.665874   -1.597729    0.047180
     29          8           0       -1.328331   -1.089427    1.385315
     30          8           0       -3.223506   -1.951874   -0.010488
     31          1           0       -3.405121   -2.377295   -0.932035
     32          8           0       -1.504562   -0.538592   -1.122122
     33          1           0       -0.469230   -0.232413   -1.160475
     34          8           0       -0.972989   -2.936568   -0.419706
     35          1           0        0.064764   -2.735573   -0.618421
 ---------------------------------------------------------------------
 Rotational constants (GHZ):           0.3824539           0.3429533           0.2589356
 Leave Link  202 at Sun Dec 11 21:35:35 2022, MaxMem=  6710886400 cpu:               0.1 elap:               0.0
 (Enter /data0/home/software/g16/l301.exe)
 Standard basis: 6-311+G(2d,p) (5D, 7F)
 Ernie: Thresh=  0.10000D-02 Tol=  0.10000D-05 Strict=F.
 There are   663 symmetry adapted cartesian basis functions of A   symmetry.
 There are   625 symmetry adapted basis functions of A   symmetry.
   625 basis functions,   954 primitive gaussians,   663 cartesian basis functions
    82 alpha electrons       82 beta electrons
       nuclear repulsion energy      2101.0667777406 Hartrees.
 IExCor=  402 DFT=T Ex+Corr=B3LYP ExCW=0 ScaHFX=  0.200000
 ScaDFX=  0.800000  0.720000  1.000000  0.810000 ScalE2=  1.000000  1.000000
 IRadAn=      5 IRanWt=     -1 IRanGd=            0 ICorTp=0 IEmpDi=  4
 NAtoms=   35 NActive=   35 NUniq=   35 SFac= 1.00D+00 NAtFMM=   60 NAOKFM=F Big=F
 Integral buffers will be    131072 words long.
 Raffenetti 2 integral format.
 Two-electron integral symmetry is turned on.
 ------------------------------------------------------------------------------
 Polarizable Continuum Model (PCM)
 =================================
 Model                : PCM.
 Atomic radii         : SMD-Coulomb.
 Polarization charges : Total charges.
 Charge compensation  : None.
 Solution method      : On-the-fly selection.
 Cavity type          : VdW (van der Waals Surface) (Alpha=1.000).
 Cavity algorithm     : GePol (No added spheres)
                        Default sphere list used, NSphG=   35.
                        Lebedev-Laikov grids with approx.  5.0 points / Ang**2.
                        Smoothing algorithm: York/Karplus (Gamma=1.0000).
                        Polarization charges: spherical gaussians, with
                                              point-specific exponents (IZeta= 3).
                        Self-potential: point-specific (ISelfS= 7).
                        Self-field    : sphere-specific E.n sum rule (ISelfD= 2).
 1st derivatives      : Analytical E(r).r(x)/FMM algorithm (CHGder, D1EAlg=3).
                        Cavity 1st derivative terms included.
 Solvent              : Water, Eps=  78.355300 Eps(inf)=   1.777849
 ------------------------------------------------------------------------------
 GePol: Number of generator spheres                  =      35
 GePol: Total number of spheres                      =      35
 GePol: Number of exposed spheres                    =      35 (100.00%)
 GePol: Number of points                             =    2296
 GePol: Average weight of points                     =       0.12
 GePol: Minimum weight of points                     =   0.12D-11
 GePol: Maximum weight of points                     =    0.21991
 GePol: Number of points with low weight             =     147
 GePol: Fraction of low-weight points (<1% of avg)   =       6.40%
 GePol: Cavity surface area                          =    273.390 Ang**2
 GePol: Cavity volume                                =    273.376 Ang**3
 ------------------------------------------------------------------------------
 Atomic radii for non-electrostatic terms: SMD-CDS.
 ------------------------------------------------------------------------------
 PCM non-electrostatic energy =         0.0115265217 Hartrees.
 Nuclear repulsion after PCM non-electrostatic terms =     2101.0783042623 Hartrees.
 Leave Link  301 at Sun Dec 11 21:35:35 2022, MaxMem=  6710886400 cpu:               1.9 elap:               0.1
 (Enter /data0/home/software/g16/l302.exe)
 NPDir=0 NMtPBC=     1 NCelOv=     1 NCel=       1 NClECP=     1 NCelD=      1
         NCelK=      1 NCelE2=     1 NClLst=     1 CellRange=     0.0.
 One-electron integrals computed using PRISM.
 One-electron integral symmetry used in STVInt
 NBasis=   625 RedAO= T EigKep=  2.07D-06  NBF=   625
 NBsUse=   625 1.00D-06 EigRej= -1.00D+00 NBFU=   625
 Precomputing XC quadrature grid using
 IXCGrd= 4 IRadAn=           5 IRanWt=          -1 IRanGd=           0 AccXCQ= 0.00D+00.
 Generated NRdTot=       0 NPtTot=           0 NUsed=           0 NTot=          32
 NSgBfM=   663   663   663   663   663 MxSgAt=    35 MxSgA2=    35.
 Leave Link  302 at Sun Dec 11 21:35:36 2022, MaxMem=  6710886400 cpu:              18.0 elap:               0.8
 (Enter /data0/home/software/g16/l303.exe)
 DipDrv:  MaxL=1.
 Leave Link  303 at Sun Dec 11 21:35:36 2022, MaxMem=  6710886400 cpu:               1.6 elap:               0.1
 (Enter /data0/home/software/g16/l401.exe)
 ExpMin= 3.48D-02 ExpMax= 9.34D+04 ExpMxC= 3.17D+03 IAcc=3 IRadAn=         5 AccDes= 0.00D+00
 Harris functional with IExCor=  402 and IRadAn=       5 diagonalized for initial guess.
 HarFok:  IExCor=  402 AccDes= 0.00D+00 IRadAn=         5 IDoV= 1 UseB2=F ITyADJ=14
 ICtDFT=  3500011 ScaDFX=  1.000000  1.000000  1.000000  1.000000
 FoFCou: FMM=F IPFlag=           0 FMFlag=      100000 FMFlg1=           0
         NFxFlg=           0 DoJE=T BraDBF=F KetDBF=T FulRan=T
         wScrn=  0.000000 ICntrl=       500 IOpCl=  0 I1Cent=   200000004 NGrid=           0
         NMat0=    1 NMatS0=      1 NMatT0=    0 NMatD0=    1 NMtDS0=    0 NMtDT0=    0
 Petite list used in FoFCou.
 Harris En= -1674.02392315676    
 JPrj=0 DoOrth=F DoCkMO=F.
 Leave Link  401 at Sun Dec 11 21:35:39 2022, MaxMem=  6710886400 cpu:              71.6 elap:               3.0
 (Enter /data0/home/software/g16/l502.exe)
 Integral symmetry usage will be decided dynamically.
 Closed shell SCF:
 Using DIIS extrapolation, IDIIS=  1040.
 NGot=  6710886400 LenX=  6709985279 LenY=  6709545047
 Requested convergence on RMS density matrix=1.00D-08 within 128 cycles.
 Requested convergence on MAX density matrix=1.00D-06.
 Requested convergence on             energy=1.00D-06.
 No special actions if energy rises.
 Fock matrices will be formed incrementally for  20 cycles.

 Cycle   1  Pass 1  IDiag  1:
 FoFJK:  IHMeth= 1 ICntrl=       0 DoSepK=F KAlg= 0 I1Cent=           0 FoldK=F
 IRaf= 860000000 NMat=       1 IRICut=       1 DoRegI=T DoRafI=F ISym2E= 0 IDoP0=0 IntGTp=1.
 FoFCou: FMM=F IPFlag=           0 FMFlag=      100000 FMFlg1=           0
         NFxFlg=           0 DoJE=F BraDBF=F KetDBF=F FulRan=T
         wScrn=  0.000000 ICntrl=         0 IOpCl=  0 I1Cent=           0 NGrid=           0
         NMat0=    1 NMatS0=      1 NMatT0=    0 NMatD0=    1 NMtDS0=    0 NMtDT0=    0
 Symmetry not used in FoFCou.
 Inv3:  Mode=1 IEnd=    15814848.
 Iteration    1 A*A^-1 deviation from unit magnitude is 7.99D-15 for    512.
 Iteration    1 A*A^-1 deviation from orthogonality  is 4.39D-15 for   1168    444.
 Iteration    1 A^-1*A deviation from unit magnitude is 7.77D-15 for    512.
 Iteration    1 A^-1*A deviation from orthogonality  is 3.36D-15 for   1707   1393.
 E= -1673.13255786188    
 DIIS: error= 2.59D-02 at cycle   1 NSaved=   1.
 NSaved= 1 IEnMin= 1 EnMin= -1673.13255786188     IErMin= 1 ErrMin= 2.59D-02
 ErrMax= 2.59D-02  0.00D+00 EMaxC= 1.00D-01 BMatC= 1.22D+00 BMatP= 1.22D+00
 IDIUse=3 WtCom= 7.41D-01 WtEn= 2.59D-01
 Coeff-Com:  0.100D+01
 Coeff-En:   0.100D+01
 Coeff:      0.100D+01
 Gap=     0.160 Goal=   None    Shift=    0.000
 GapD=    0.160 DampG=1.000 DampE=0.500 DampFc=0.5000 IDamp=-1.
 Damping current iteration by 5.00D-01
 RMSDP=6.33D-03 MaxDP=4.81D-01              OVMax= 2.87D-01

 Cycle   2  Pass 1  IDiag  1:
 RMSU=  3.16D-03    CP:  9.90D-01
 E= -1673.34677765063     Delta-E=       -0.214219788750 Rises=F Damp=T
 DIIS: error= 7.01D-03 at cycle   2 NSaved=   2.
 NSaved= 2 IEnMin= 2 EnMin= -1673.34677765063     IErMin= 2 ErrMin= 7.01D-03
 ErrMax= 7.01D-03  0.00D+00 EMaxC= 1.00D-01 BMatC= 1.27D-01 BMatP= 1.22D+00
 IDIUse=3 WtCom= 9.30D-01 WtEn= 7.01D-02
 Coeff-Com:  0.202D+00 0.798D+00
 Coeff-En:   0.362D+00 0.638D+00
 Coeff:      0.214D+00 0.786D+00
 Gap=     0.237 Goal=   None    Shift=    0.000
 RMSDP=3.51D-03 MaxDP=6.62D-01 DE=-2.14D-01 OVMax= 1.84D-01

 Cycle   3  Pass 1  IDiag  1:
 RMSU=  1.80D-03    CP:  8.71D-01  6.16D-01
 E= -1673.90804809118     Delta-E=       -0.561270440553 Rises=F Damp=F
 DIIS: error= 5.25D-03 at cycle   3 NSaved=   3.
 NSaved= 3 IEnMin= 3 EnMin= -1673.90804809118     IErMin= 3 ErrMin= 5.25D-03
 ErrMax= 5.25D-03  0.00D+00 EMaxC= 1.00D-01 BMatC= 4.20D-02 BMatP= 1.27D-01
 IDIUse=3 WtCom= 9.48D-01 WtEn= 5.25D-02
 Coeff-Com:  0.555D-01 0.386D+00 0.559D+00
 Coeff-En:   0.000D+00 0.000D+00 0.100D+01
 Coeff:      0.526D-01 0.366D+00 0.582D+00
 Gap=     0.188 Goal=   None    Shift=    0.000
 RMSDP=9.44D-04 MaxDP=1.40D-01 DE=-5.61D-01 OVMax= 4.07D-02

 Cycle   4  Pass 1  IDiag  1:
 RMSU=  7.49D-04    CP:  8.87D-01  7.29D-01  8.72D-01
 E= -1673.93507499514     Delta-E=       -0.027026903952 Rises=F Damp=F
 DIIS: error= 2.54D-03 at cycle   4 NSaved=   4.
 NSaved= 4 IEnMin= 4 EnMin= -1673.93507499514     IErMin= 4 ErrMin= 2.54D-03
 ErrMax= 2.54D-03  0.00D+00 EMaxC= 1.00D-01 BMatC= 9.67D-03 BMatP= 4.20D-02
 IDIUse=3 WtCom= 9.75D-01 WtEn= 2.54D-02
 Coeff-Com: -0.487D-02 0.920D-01 0.344D+00 0.569D+00
 Coeff-En:   0.000D+00 0.000D+00 0.178D+00 0.822D+00
 Coeff:     -0.474D-02 0.897D-01 0.340D+00 0.575D+00
 Gap=     0.189 Goal=   None    Shift=    0.000
 RMSDP=3.65D-04 MaxDP=4.13D-02 DE=-2.70D-02 OVMax= 1.48D-02

 Cycle   5  Pass 1  IDiag  1:
 RMSU=  1.93D-04    CP:  8.80D-01  7.04D-01  9.11D-01  6.91D-01
 E= -1673.94196911590     Delta-E=       -0.006894120765 Rises=F Damp=F
 DIIS: error= 5.93D-04 at cycle   5 NSaved=   5.
 NSaved= 5 IEnMin= 5 EnMin= -1673.94196911590     IErMin= 5 ErrMin= 5.93D-04
 ErrMax= 5.93D-04  0.00D+00 EMaxC= 1.00D-01 BMatC= 6.57D-04 BMatP= 9.67D-03
 IDIUse=3 WtCom= 9.94D-01 WtEn= 5.93D-03
 Coeff-Com: -0.596D-02 0.221D-01 0.138D+00 0.307D+00 0.539D+00
 Coeff-En:   0.000D+00 0.000D+00 0.000D+00 0.000D+00 0.100D+01
 Coeff:     -0.593D-02 0.220D-01 0.137D+00 0.305D+00 0.542D+00
 Gap=     0.189 Goal=   None    Shift=    0.000
 RMSDP=9.63D-05 MaxDP=1.63D-02 DE=-6.89D-03 OVMax= 3.66D-03

 Cycle   6  Pass 1  IDiag  1:
 RMSU=  7.25D-05    CP:  8.78D-01  7.10D-01  9.21D-01  7.31D-01  8.86D-01
 E= -1673.94245206832     Delta-E=       -0.000482952418 Rises=F Damp=F
 DIIS: error= 1.21D-04 at cycle   6 NSaved=   6.
 NSaved= 6 IEnMin= 6 EnMin= -1673.94245206832     IErMin= 6 ErrMin= 1.21D-04
 ErrMax= 1.21D-04  0.00D+00 EMaxC= 1.00D-01 BMatC= 4.84D-05 BMatP= 6.57D-04
 IDIUse=3 WtCom= 9.99D-01 WtEn= 1.21D-03
 Coeff-Com: -0.245D-02 0.365D-02 0.421D-01 0.109D+00 0.280D+00 0.568D+00
 Coeff-En:   0.000D+00 0.000D+00 0.000D+00 0.000D+00 0.000D+00 0.100D+01
 Coeff:     -0.245D-02 0.365D-02 0.420D-01 0.108D+00 0.279D+00 0.569D+00
 Gap=     0.189 Goal=   None    Shift=    0.000
 RMSDP=2.75D-05 MaxDP=2.92D-03 DE=-4.83D-04 OVMax= 1.25D-03

 Cycle   7  Pass 1  IDiag  1:
 RMSU=  1.71D-05    CP:  8.77D-01  7.09D-01  9.23D-01  7.32D-01  8.99D-01
                    CP:  7.68D-01
 E= -1673.94248558949     Delta-E=       -0.000033521171 Rises=F Damp=F
 DIIS: error= 4.82D-05 at cycle   7 NSaved=   7.
 NSaved= 7 IEnMin= 7 EnMin= -1673.94248558949     IErMin= 7 ErrMin= 4.82D-05
 ErrMax= 4.82D-05  0.00D+00 EMaxC= 1.00D-01 BMatC= 6.63D-06 BMatP= 4.84D-05
 IDIUse=1 WtCom= 1.00D+00 WtEn= 0.00D+00
 Coeff-Com: -0.807D-03 0.279D-03 0.131D-01 0.378D-01 0.122D+00 0.336D+00
 Coeff-Com:  0.492D+00
 Coeff:     -0.807D-03 0.279D-03 0.131D-01 0.378D-01 0.122D+00 0.336D+00
 Coeff:      0.492D+00
 Gap=     0.189 Goal=   None    Shift=    0.000
 RMSDP=1.02D-05 MaxDP=1.59D-03 DE=-3.35D-05 OVMax= 4.60D-04

 Cycle   8  Pass 1  IDiag  1:
 RMSU=  7.07D-06    CP:  8.77D-01  7.09D-01  9.23D-01  7.35D-01  8.96D-01
                    CP:  7.72D-01  7.16D-01
 E= -1673.94249035479     Delta-E=       -0.000004765301 Rises=F Damp=F
 DIIS: error= 1.31D-05 at cycle   8 NSaved=   8.
 NSaved= 8 IEnMin= 8 EnMin= -1673.94249035479     IErMin= 8 ErrMin= 1.31D-05
 ErrMax= 1.31D-05  0.00D+00 EMaxC= 1.00D-01 BMatC= 3.95D-07 BMatP= 6.63D-06
 IDIUse=1 WtCom= 1.00D+00 WtEn= 0.00D+00
 Coeff-Com: -0.997D-04-0.251D-03 0.209D-02 0.712D-02 0.319D-01 0.103D+00
 Coeff-Com:  0.243D+00 0.613D+00
 Coeff:     -0.997D-04-0.251D-03 0.209D-02 0.712D-02 0.319D-01 0.103D+00
 Coeff:      0.243D+00 0.613D+00
 Gap=     0.189 Goal=   None    Shift=    0.000
 RMSDP=3.17D-06 MaxDP=3.02D-04 DE=-4.77D-06 OVMax= 1.53D-04

 Cycle   9  Pass 1  IDiag  1:
 RMSU=  2.54D-06    CP:  8.77D-01  7.09D-01  9.23D-01  7.35D-01  9.00D-01
                    CP:  7.79D-01  7.06D-01  8.08D-01
 E= -1673.94249059534     Delta-E=       -0.000000240547 Rises=F Damp=F
 DIIS: error= 5.33D-06 at cycle   9 NSaved=   9.
 NSaved= 9 IEnMin= 9 EnMin= -1673.94249059534     IErMin= 9 ErrMin= 5.33D-06
 ErrMax= 5.33D-06  0.00D+00 EMaxC= 1.00D-01 BMatC= 8.47D-08 BMatP= 3.95D-07
 IDIUse=1 WtCom= 1.00D+00 WtEn= 0.00D+00
 Coeff-Com:  0.271D-04-0.190D-03-0.176D-03 0.158D-03 0.631D-02 0.250D-01
 Coeff-Com:  0.935D-01 0.373D+00 0.502D+00
 Coeff:      0.271D-04-0.190D-03-0.176D-03 0.158D-03 0.631D-02 0.250D-01
 Coeff:      0.935D-01 0.373D+00 0.502D+00
 Gap=     0.189 Goal=   None    Shift=    0.000
 RMSDP=1.14D-06 MaxDP=1.37D-04 DE=-2.41D-07 OVMax= 4.46D-05

 Cycle  10  Pass 1  IDiag  1:
 RMSU=  7.05D-07    CP:  8.77D-01  7.09D-01  9.23D-01  7.35D-01  9.02D-01
                    CP:  7.82D-01  7.17D-01  8.53D-01  8.03D-01
 E= -1673.94249065747     Delta-E=       -0.000000062135 Rises=F Damp=F
 DIIS: error= 1.75D-06 at cycle  10 NSaved=  10.
 NSaved=10 IEnMin=10 EnMin= -1673.94249065747     IErMin=10 ErrMin= 1.75D-06
 ErrMax= 1.75D-06  0.00D+00 EMaxC= 1.00D-01 BMatC= 6.11D-09 BMatP= 8.47D-08
 IDIUse=1 WtCom= 1.00D+00 WtEn= 0.00D+00
 Coeff-Com:  0.203D-04-0.764D-04-0.279D-03-0.528D-03 0.616D-03 0.387D-02
 Coeff-Com:  0.275D-01 0.142D+00 0.268D+00 0.559D+00
 Coeff:      0.203D-04-0.764D-04-0.279D-03-0.528D-03 0.616D-03 0.387D-02
 Coeff:      0.275D-01 0.142D+00 0.268D+00 0.559D+00
 Gap=     0.189 Goal=   None    Shift=    0.000
 RMSDP=3.18D-07 MaxDP=4.05D-05 DE=-6.21D-08 OVMax= 1.16D-05

 Cycle  11  Pass 1  IDiag  1:
 RMSU=  2.05D-07    CP:  8.77D-01  7.09D-01  9.23D-01  7.35D-01  9.02D-01
                    CP:  7.83D-01  7.24D-01  8.61D-01  8.24D-01  9.01D-01
 E= -1673.94249066119     Delta-E=       -0.000000003717 Rises=F Damp=F
 DIIS: error= 5.52D-07 at cycle  11 NSaved=  11.
 NSaved=11 IEnMin=11 EnMin= -1673.94249066119     IErMin=11 ErrMin= 5.52D-07
 ErrMax= 5.52D-07  0.00D+00 EMaxC= 1.00D-01 BMatC= 7.05D-10 BMatP= 6.11D-09
 IDIUse=1 WtCom= 1.00D+00 WtEn= 0.00D+00
 Coeff-Com:  0.760D-05-0.161D-04-0.145D-03-0.343D-03-0.540D-03-0.115D-02
 Coeff-Com:  0.325D-02 0.310D-01 0.804D-01 0.300D+00 0.588D+00
 Coeff:      0.760D-05-0.161D-04-0.145D-03-0.343D-03-0.540D-03-0.115D-02
 Coeff:      0.325D-02 0.310D-01 0.804D-01 0.300D+00 0.588D+00
 Gap=     0.189 Goal=   None    Shift=    0.000
 RMSDP=1.11D-07 MaxDP=1.85D-05 DE=-3.72D-09 OVMax= 4.80D-06

 Cycle  12  Pass 1  IDiag  1:
 RMSU=  6.99D-08    CP:  8.77D-01  7.09D-01  9.23D-01  7.35D-01  9.02D-01
                    CP:  7.83D-01  7.25D-01  8.71D-01  8.25D-01  9.47D-01
                    CP:  9.53D-01
 E= -1673.94249066185     Delta-E=       -0.000000000660 Rises=F Damp=F
 DIIS: error= 1.45D-07 at cycle  12 NSaved=  12.
 NSaved=12 IEnMin=12 EnMin= -1673.94249066185     IErMin=12 ErrMin= 1.45D-07
 ErrMax= 1.45D-07  0.00D+00 EMaxC= 1.00D-01 BMatC= 4.78D-11 BMatP= 7.05D-10
 IDIUse=1 WtCom= 1.00D+00 WtEn= 0.00D+00
 Coeff-Com:  0.112D-05-0.338D-06-0.441D-04-0.113D-03-0.319D-03-0.872D-03
 Coeff-Com: -0.929D-03 0.156D-02 0.116D-01 0.850D-01 0.274D+00 0.630D+00
 Coeff:      0.112D-05-0.338D-06-0.441D-04-0.113D-03-0.319D-03-0.872D-03
 Coeff:     -0.929D-03 0.156D-02 0.116D-01 0.850D-01 0.274D+00 0.630D+00
 Gap=     0.189 Goal=   None    Shift=    0.000
 RMSDP=4.13D-08 MaxDP=6.79D-06 DE=-6.60D-10 OVMax= 1.27D-06

 Cycle  13  Pass 1  IDiag  1:
 RMSU=  2.79D-08    CP:  8.77D-01  7.09D-01  9.23D-01  7.35D-01  9.02D-01
                    CP:  7.83D-01  7.24D-01  8.71D-01  8.30D-01  9.68D-01
                    CP:  9.92D-01  9.63D-01
 E= -1673.94249066181     Delta-E=        0.000000000037 Rises=F Damp=F
 DIIS: error= 8.09D-08 at cycle  13 NSaved=  13.
 NSaved=13 IEnMin=12 EnMin= -1673.94249066185     IErMin=13 ErrMin= 8.09D-08
 ErrMax= 8.09D-08  0.00D+00 EMaxC= 1.00D-01 BMatC= 1.22D-11 BMatP= 4.78D-11
 IDIUse=1 WtCom= 1.00D+00 WtEn= 0.00D+00
 Coeff-Com: -0.296D-06 0.168D-05-0.104D-04-0.285D-04-0.126D-03-0.360D-03
 Coeff-Com: -0.870D-03-0.235D-02-0.213D-02 0.184D-01 0.106D+00 0.392D+00
 Coeff-Com:  0.490D+00
 Coeff:     -0.296D-06 0.168D-05-0.104D-04-0.285D-04-0.126D-03-0.360D-03
 Coeff:     -0.870D-03-0.235D-02-0.213D-02 0.184D-01 0.106D+00 0.392D+00
 Coeff:      0.490D+00
 Gap=     0.189 Goal=   None    Shift=    0.000
 RMSDP=1.22D-08 MaxDP=1.23D-06 DE= 3.73D-11 OVMax= 6.07D-07

 Cycle  14  Pass 1  IDiag  1:
 RMSU=  7.72D-09    CP:  8.77D-01  7.09D-01  9.23D-01  7.35D-01  9.02D-01
                    CP:  7.83D-01  7.25D-01  8.71D-01  8.31D-01  9.72D-01
                    CP:  1.00D+00  9.98D-01  8.32D-01
 E= -1673.94249066184     Delta-E=       -0.000000000030 Rises=F Damp=F
 DIIS: error= 2.16D-08 at cycle  14 NSaved=  14.
 NSaved=14 IEnMin=12 EnMin= -1673.94249066185     IErMin=14 ErrMin= 2.16D-08
 ErrMax= 2.16D-08  0.00D+00 EMaxC= 1.00D-01 BMatC= 6.83D-13 BMatP= 1.22D-11
 IDIUse=1 WtCom= 1.00D+00 WtEn= 0.00D+00
 Coeff-Com: -0.221D-06 0.690D-06-0.198D-06-0.141D-05-0.218D-04-0.589D-04
 Coeff-Com: -0.285D-03-0.107D-02-0.223D-02-0.156D-02 0.139D-01 0.905D-01
 Coeff-Com:  0.229D+00 0.672D+00
 Coeff:     -0.221D-06 0.690D-06-0.198D-06-0.141D-05-0.218D-04-0.589D-04
 Coeff:     -0.285D-03-0.107D-02-0.223D-02-0.156D-02 0.139D-01 0.905D-01
 Coeff:      0.229D+00 0.672D+00
 Gap=     0.189 Goal=   None    Shift=    0.000
 RMSDP=5.18D-09 MaxDP=7.29D-07 DE=-3.00D-11 OVMax= 3.24D-07

 Error on total polarization charges =  0.06461
 SCF Done:  E(RB3LYP) =  -1673.94249066     A.U. after   14 cycles
            NFock= 14  Conv=0.52D-08     -V/T= 2.0031
 KE= 1.668831828712D+03 PE=-8.150943916766D+03 EE= 2.707091293130D+03
 SMD-CDS (non-electrostatic) energy       (kcal/mol) =       7.23
 (included in total energy above)
 Leave Link  502 at Sun Dec 11 21:38:10 2022, MaxMem=  6710886400 cpu:            3589.2 elap:             151.2
 (Enter /data0/home/software/g16/l601.exe)
 Copying SCF densities to generalized density rwf, IOpCl= 0 IROHF=0.

 **********************************************************************

            Population analysis using the SCF density.

 **********************************************************************

 Orbital symmetries:
       Occupied  (A) (A) (A) (A) (A) (A) (A) (A) (A) (A) (A) (A)
                 (A) (A) (A) (A) (A) (A) (A) (A) (A) (A) (A) (A)
                 (A) (A) (A) (A) (A) (A) (A) (A) (A) (A) (A) (A)
                 (A) (A) (A) (A) (A) (A) (A) (A) (A) (A) (A) (A)
                 (A) (A) (A) (A) (A) (A) (A) (A) (A) (A) (A) (A)
                 (A) (A) (A) (A) (A) (A) (A) (A) (A) (A) (A) (A)
                 (A) (A) (A) (A) (A) (A) (A) (A) (A) (A)
       Virtual   (A) (A) (A) (A) (A) (A) (A) (A) (A) (A) (A) (A)
                 (A) (A) (A) (A) (A) (A) (A) (A) (A) (A) (A) (A)
                 (A) (A) (A) (A) (A) (A) (A) (A) (A) (A) (A) (A)
                 (A) (A) (A) (A) (A) (A) (A) (A) (A) (A) (A) (A)
                 (A) (A) (A) (A) (A) (A) (A) (A) (A) (A) (A) (A)
                 (A) (A) (A) (A) (A) (A) (A) (A) (A) (A) (A) (A)
                 (A) (A) (A) (A) (A) (A) (A) (A) (A) (A) (A) (A)
                 (A) (A) (A) (A) (A) (A) (A) (A) (A) (A) (A) (A)
                 (A) (A) (A) (A) (A) (A) (A) (A) (A) (A) (A) (A)
                 (A) (A) (A) (A) (A) (A) (A) (A) (A) (A) (A) (A)
                 (A) (A) (A) (A) (A) (A) (A) (A) (A) (A) (A) (A)
                 (A) (A) (A) (A) (A) (A) (A) (A) (A) (A) (A) (A)
                 (A) (A) (A) (A) (A) (A) (A) (A) (A) (A) (A) (A)
                 (A) (A) (A) (A) (A) (A) (A) (A) (A) (A) (A) (A)
                 (A) (A) (A) (A) (A) (A) (A) (A) (A) (A) (A) (A)
                 (A) (A) (A) (A) (A) (A) (A) (A) (A) (A) (A) (A)
                 (A) (A) (A) (A) (A) (A) (A) (A) (A) (A) (A) (A)
                 (A) (A) (A) (A) (A) (A) (A) (A) (A) (A) (A) (A)
                 (A) (A) (A) (A) (A) (A) (A) (A) (A) (A) (A) (A)
                 (A) (A) (A) (A) (A) (A) (A) (A) (A) (A) (A) (A)
                 (A) (A) (A) (A) (A) (A) (A) (A) (A) (A) (A) (A)
                 (A) (A) (A) (A) (A) (A) (A) (A) (A) (A) (A) (A)
                 (A) (A) (A) (A) (A) (A) (A) (A) (A) (A) (A) (A)
                 (A) (A) (A) (A) (A) (A) (A) (A) (A) (A) (A) (A)
                 (A) (A) (A) (A) (A) (A) (A) (A) (A) (A) (A) (A)
                 (A) (A) (A) (A) (A) (A) (A) (A) (A) (A) (A) (A)
                 (A) (A) (A) (A) (A) (A) (A) (A) (A) (A) (A) (A)
                 (A) (A) (A) (A) (A) (A) (A) (A) (A) (A) (A) (A)
                 (A) (A) (A) (A) (A) (A) (A) (A) (A) (A) (A) (A)
                 (A) (A) (A) (A) (A) (A) (A) (A) (A) (A) (A) (A)
                 (A) (A) (A) (A) (A) (A) (A) (A) (A) (A) (A) (A)
                 (A) (A) (A) (A) (A) (A) (A) (A) (A) (A) (A) (A)
                 (A) (A) (A) (A) (A) (A) (A) (A) (A) (A) (A) (A)
                 (A) (A) (A) (A) (A) (A) (A) (A) (A) (A) (A) (A)
                 (A) (A) (A) (A) (A) (A) (A) (A) (A) (A) (A) (A)
                 (A) (A) (A) (A) (A) (A) (A) (A) (A) (A) (A) (A)
                 (A) (A) (A) (A) (A) (A) (A) (A) (A) (A) (A) (A)
                 (A) (A) (A) (A) (A) (A) (A) (A) (A) (A) (A) (A)
                 (A) (A) (A) (A) (A) (A) (A) (A) (A) (A) (A) (A)
                 (A) (A) (A) (A) (A) (A) (A) (A) (A) (A) (A) (A)
                 (A) (A) (A) (A) (A) (A) (A) (A) (A) (A) (A) (A)
                 (A) (A) (A) (A) (A) (A) (A) (A) (A) (A) (A) (A)
                 (A) (A) (A) (A) (A) (A) (A) (A) (A) (A) (A) (A)
                 (A) (A) (A) (A) (A) (A) (A) (A) (A) (A) (A) (A)
                 (A) (A) (A) (A) (A) (A) (A) (A) (A) (A) (A) (A)
                 (A) (A) (A)
 The electronic state is 1-A.
 Alpha  occ. eigenvalues --  -89.05811 -77.18189 -19.16304 -19.15332 -19.14040
 Alpha  occ. eigenvalues --  -19.12707 -19.12176 -19.11897 -19.08973 -14.41682
 Alpha  occ. eigenvalues --  -10.24683 -10.24013 -10.22611 -10.20315 -10.20216
 Alpha  occ. eigenvalues --  -10.19519 -10.19334 -10.18899 -10.16637  -8.11437
 Alpha  occ. eigenvalues --   -6.66101  -6.07794  -6.07726  -6.07577  -4.82420
 Alpha  occ. eigenvalues --   -4.82327  -4.82144  -1.13720  -1.09701  -1.02598
 Alpha  occ. eigenvalues --   -1.02110  -1.01481  -1.01215  -0.99491  -0.97629
 Alpha  occ. eigenvalues --   -0.85263  -0.80900  -0.79790  -0.73513  -0.71579
 Alpha  occ. eigenvalues --   -0.67139  -0.63842  -0.62319  -0.61503  -0.58781
 Alpha  occ. eigenvalues --   -0.55814  -0.54417  -0.54014  -0.52407  -0.51031
 Alpha  occ. eigenvalues --   -0.49684  -0.49371  -0.48911  -0.48620  -0.47780
 Alpha  occ. eigenvalues --   -0.46647  -0.44458  -0.43260  -0.42747  -0.42187
 Alpha  occ. eigenvalues --   -0.41952  -0.41155  -0.41016  -0.40307  -0.39148
 Alpha  occ. eigenvalues --   -0.38009  -0.37590  -0.37368  -0.37136  -0.36789
 Alpha  occ. eigenvalues --   -0.36437  -0.36262  -0.35661  -0.34656  -0.32942
 Alpha  occ. eigenvalues --   -0.32313  -0.31949  -0.30846  -0.30491  -0.29538
 Alpha  occ. eigenvalues --   -0.29025  -0.25725
 Alpha virt. eigenvalues --   -0.06820  -0.03526  -0.00663   0.01059   0.01722
 Alpha virt. eigenvalues --    0.01877   0.03006   0.03598   0.03705   0.04176
 Alpha virt. eigenvalues --    0.04484   0.05436   0.05964   0.06461   0.06661
 Alpha virt. eigenvalues --    0.06766   0.07395   0.07630   0.07851   0.08074
 Alpha virt. eigenvalues --    0.08630   0.09341   0.09515   0.09756   0.09970
 Alpha virt. eigenvalues --    0.10577   0.10783   0.11324   0.11475   0.11877
 Alpha virt. eigenvalues --    0.12201   0.12490   0.12957   0.13077   0.13535
 Alpha virt. eigenvalues --    0.14195   0.14317   0.14626   0.15090   0.15849
 Alpha virt. eigenvalues --    0.16149   0.16285   0.16499   0.16879   0.17219
 Alpha virt. eigenvalues --    0.17709   0.17883   0.18146   0.18435   0.18802
 Alpha virt. eigenvalues --    0.18904   0.19505   0.20259   0.20342   0.20587
 Alpha virt. eigenvalues --    0.20766   0.20860   0.21569   0.21911   0.22105
 Alpha virt. eigenvalues --    0.22697   0.22879   0.22953   0.23523   0.24029
 Alpha virt. eigenvalues --    0.24202   0.24369   0.24674   0.25083   0.25440
 Alpha virt. eigenvalues --    0.26008   0.26286   0.26535   0.26984   0.27147
 Alpha virt. eigenvalues --    0.27336   0.28255   0.28521   0.28808   0.29054
 Alpha virt. eigenvalues --    0.29188   0.29582   0.29662   0.30341   0.30602
 Alpha virt. eigenvalues --    0.31168   0.31257   0.31536   0.31732   0.32586
 Alpha virt. eigenvalues --    0.32941   0.33065   0.33306   0.34586   0.34824
 Alpha virt. eigenvalues --    0.35217   0.35652   0.36319   0.36372   0.37231
 Alpha virt. eigenvalues --    0.37613   0.38668   0.39291   0.39666   0.39717
 Alpha virt. eigenvalues --    0.40272   0.40847   0.41138   0.41734   0.42043
 Alpha virt. eigenvalues --    0.42640   0.43920   0.44581   0.44875   0.45938
 Alpha virt. eigenvalues --    0.46333   0.47506   0.48199   0.48532   0.49394
 Alpha virt. eigenvalues --    0.49978   0.50757   0.51876   0.52189   0.52556
 Alpha virt. eigenvalues --    0.53239   0.53424   0.54153   0.54812   0.55791
 Alpha virt. eigenvalues --    0.55828   0.56074   0.56950   0.58649   0.59614
 Alpha virt. eigenvalues --    0.60035   0.61400   0.62279   0.62425   0.63095
 Alpha virt. eigenvalues --    0.63451   0.63869   0.64902   0.65544   0.66280
 Alpha virt. eigenvalues --    0.66355   0.66784   0.67114   0.67906   0.69046
 Alpha virt. eigenvalues --    0.69371   0.69817   0.70138   0.70769   0.71627
 Alpha virt. eigenvalues --    0.72308   0.73197   0.74039   0.74616   0.75067
 Alpha virt. eigenvalues --    0.76260   0.76442   0.77114   0.77902   0.78201
 Alpha virt. eigenvalues --    0.78375   0.79711   0.80371   0.80626   0.81857
 Alpha virt. eigenvalues --    0.82542   0.82924   0.83637   0.84296   0.84658
 Alpha virt. eigenvalues --    0.85935   0.86528   0.87876   0.88302   0.89264
 Alpha virt. eigenvalues --    0.89527   0.90496   0.91706   0.92828   0.93717
 Alpha virt. eigenvalues --    0.95031   0.96539   0.97931   0.98495   0.98973
 Alpha virt. eigenvalues --    1.00507   1.02718   1.03945   1.04613   1.05102
 Alpha virt. eigenvalues --    1.05735   1.06196   1.06798   1.07159   1.07719
 Alpha virt. eigenvalues --    1.09732   1.10021   1.10527   1.11968   1.12526
 Alpha virt. eigenvalues --    1.13959   1.14465   1.15096   1.16043   1.17154
 Alpha virt. eigenvalues --    1.17366   1.18664   1.19222   1.20604   1.21103
 Alpha virt. eigenvalues --    1.21563   1.22023   1.22163   1.23575   1.24003
 Alpha virt. eigenvalues --    1.24500   1.25384   1.26577   1.26714   1.27907
 Alpha virt. eigenvalues --    1.28941   1.29280   1.30443   1.31338   1.31470
 Alpha virt. eigenvalues --    1.32084   1.33261   1.33706   1.34020   1.35422
 Alpha virt. eigenvalues --    1.35827   1.36291   1.37001   1.37886   1.38271
 Alpha virt. eigenvalues --    1.39550   1.40003   1.40823   1.41521   1.42125
 Alpha virt. eigenvalues --    1.42516   1.43481   1.44364   1.45059   1.45460
 Alpha virt. eigenvalues --    1.46374   1.48139   1.48790   1.49589   1.50253
 Alpha virt. eigenvalues --    1.50743   1.52407   1.53434   1.53978   1.54188
 Alpha virt. eigenvalues --    1.54859   1.55918   1.57549   1.58329   1.59377
 Alpha virt. eigenvalues --    1.60119   1.61150   1.61742   1.63411   1.63768
 Alpha virt. eigenvalues --    1.65223   1.65303   1.68093   1.68750   1.69861
 Alpha virt. eigenvalues --    1.70674   1.72066   1.73716   1.73848   1.76712
 Alpha virt. eigenvalues --    1.77257   1.77571   1.77939   1.79052   1.79999
 Alpha virt. eigenvalues --    1.81835   1.82841   1.83639   1.84192   1.84974
 Alpha virt. eigenvalues --    1.86892   1.87654   1.88583   1.88883   1.89580
 Alpha virt. eigenvalues --    1.92788   1.94665   1.94875   1.96211   1.97062
 Alpha virt. eigenvalues --    1.98086   1.99018   2.00851   2.01591   2.02021
 Alpha virt. eigenvalues --    2.03283   2.04744   2.05555   2.06298   2.07627
 Alpha virt. eigenvalues --    2.09279   2.09649   2.10842   2.12588   2.13735
 Alpha virt. eigenvalues --    2.14754   2.15194   2.17335   2.18774   2.19186
 Alpha virt. eigenvalues --    2.21593   2.22276   2.23313   2.23967   2.25107
 Alpha virt. eigenvalues --    2.25658   2.26983   2.29142   2.29308   2.31498
 Alpha virt. eigenvalues --    2.31978   2.34150   2.34715   2.35997   2.37303
 Alpha virt. eigenvalues --    2.38260   2.39813   2.40299   2.41257   2.41421
 Alpha virt. eigenvalues --    2.43982   2.44786   2.46055   2.48064   2.48456
 Alpha virt. eigenvalues --    2.51037   2.54217   2.55381   2.55688   2.58731
 Alpha virt. eigenvalues --    2.62234   2.63329   2.65215   2.66179   2.69433
 Alpha virt. eigenvalues --    2.72046   2.73124   2.73746   2.75340   2.78309
 Alpha virt. eigenvalues --    2.79174   2.79452   2.80302   2.81675   2.83545
 Alpha virt. eigenvalues --    2.84433   2.85765   2.86781   2.87151   2.87845
 Alpha virt. eigenvalues --    2.88926   2.90223   2.91035   2.91486   2.94073
 Alpha virt. eigenvalues --    2.95254   2.95769   2.98743   2.99074   3.02427
 Alpha virt. eigenvalues --    3.03688   3.06044   3.09558   3.10880   3.11547
 Alpha virt. eigenvalues --    3.13844   3.17230   3.20210   3.21912   3.22225
 Alpha virt. eigenvalues --    3.24849   3.27460   3.28580   3.29448   3.30798
 Alpha virt. eigenvalues --    3.33187   3.34735   3.36261   3.38053   3.39973
 Alpha virt. eigenvalues --    3.41313   3.42893   3.45157   3.45696   3.47090
 Alpha virt. eigenvalues --    3.48112   3.50909   3.51413   3.52281   3.54559
 Alpha virt. eigenvalues --    3.55867   3.56807   3.59127   3.59572   3.60984
 Alpha virt. eigenvalues --    3.61848   3.62161   3.63724   3.66905   3.68506
 Alpha virt. eigenvalues --    3.69724   3.70823   3.72952   3.73462   3.75530
 Alpha virt. eigenvalues --    3.76666   3.77873   3.82130   3.83039   3.84781
 Alpha virt. eigenvalues --    3.85519   3.86497   3.87504   3.91206   3.95062
 Alpha virt. eigenvalues --    3.99733   4.00598   4.06684   4.10124   4.11546
 Alpha virt. eigenvalues --    4.16743   4.17648   4.17957   4.20089   4.21291
 Alpha virt. eigenvalues --    4.25880   4.33336   4.41485   4.49074   4.56089
 Alpha virt. eigenvalues --    4.67177   4.73432   4.96603   4.99986   5.00632
 Alpha virt. eigenvalues --    5.01047   5.03754   5.04453   5.07605   5.08113
 Alpha virt. eigenvalues --    5.08789   5.10890   5.13413   5.14133   5.14472
 Alpha virt. eigenvalues --    5.16938   5.19200   5.20994   5.24575   5.26604
 Alpha virt. eigenvalues --    5.27491   5.32376   5.37127   5.38321   5.44936
 Alpha virt. eigenvalues --    5.47022   5.49003   5.51537   5.55952   5.59524
 Alpha virt. eigenvalues --    5.85126   6.72592   6.75910   6.76829   6.77473
 Alpha virt. eigenvalues --    6.79328   6.79840   6.81181   6.82883   6.83445
 Alpha virt. eigenvalues --    6.86166   6.87209   6.88493   6.90281   6.90898
 Alpha virt. eigenvalues --    6.93029   6.95670   6.97099   6.98888   7.01645
 Alpha virt. eigenvalues --    7.02860   7.04326   7.05072   7.06417   7.08507
 Alpha virt. eigenvalues --    7.18201   7.22698   7.26080   7.27735   7.30186
 Alpha virt. eigenvalues --    7.32793   7.37544   7.39467   7.40966   7.45036
 Alpha virt. eigenvalues --    7.47475   7.64234   8.45757  14.12410  14.15495
 Alpha virt. eigenvalues --   14.24800  17.55511  17.58815  17.62702  23.78542
 Alpha virt. eigenvalues --   23.88009  23.93437  23.94307  23.99275  24.03888
 Alpha virt. eigenvalues --   24.07125  24.08513  24.19800  35.65102  49.91199
 Alpha virt. eigenvalues --   49.93615  49.97728  49.99261  50.00179  50.02803
 Alpha virt. eigenvalues --   50.07267 163.69502 189.62028
          Condensed to atoms (all electrons):
               1          2          3          4          5          6
     1  C    8.400273  -2.762243   2.117253  -1.918931   0.527687   0.008228
     2  C   -2.762243   9.890408  -3.437255   3.077258  -1.668539  -0.009681
     3  C    2.117253  -3.437255  12.206828  -4.059826   0.285232   0.382269
     4  C   -1.918931   3.077258  -4.059826  12.333781  -4.681146  -0.047353
     5  C    0.527687  -1.668539   0.285232  -4.681146  12.729658   0.006309
     6  H    0.008228  -0.009681   0.382269  -0.047353   0.006309   0.509722
     7  H    0.379221   0.035831  -0.015796   0.029201  -0.022663  -0.000133
     8  H    0.000906   0.368102  -0.015661  -0.015102   0.003956  -0.005078
     9  H   -0.018866   0.019645   0.002856   0.064494   0.339298  -0.000089
    10  C    0.118026  -0.040303  -0.204641  -0.126885  -0.029573  -0.003501
    11  H   -0.001412   0.007131  -0.052112  -0.091737   0.082456   0.004756
    12  H    0.006551  -0.009387   0.044539  -0.033527  -0.075877  -0.000131
    13  H    0.000378   0.005185  -0.003261   0.054620  -0.077042   0.000447
    14  N   -0.247911   0.473522  -0.410236   0.518095  -0.419351   0.001370
    15  C   -0.390630   0.289085  -0.343582   0.128350  -0.290287   0.001131
    16  H   -0.002508   0.004002   0.000436  -0.005909  -0.003156  -0.000002
    17  H    0.012329   0.006157   0.004456   0.011381  -0.032447  -0.000002
    18  C    0.060386  -0.172613   0.065346  -0.063271  -0.077059  -0.000211
    19  H   -0.012570   0.006482  -0.003710   0.031028  -0.013413   0.000001
    20  H    0.004391  -0.000191   0.000027  -0.012301   0.001496   0.000000
    21  C    0.005208  -0.011745   0.061243   0.024618   0.184194   0.000033
    22  H   -0.005787   0.000804   0.000800  -0.003155   0.012647  -0.000000
    23  H   -0.000921  -0.000133  -0.000256   0.003299  -0.003325   0.000000
    24  S   -0.025315  -0.018186   0.083078  -0.095890  -0.147633  -0.000345
    25  O    0.007519  -0.003425   0.001921  -0.008855   0.026446  -0.000004
    26  O   -0.006731   0.001822  -0.004078  -0.023528   0.023882   0.000001
    27  O   -0.066392   0.114645  -0.222336   0.186813  -0.061300   0.000330
    28  P   -0.153205   0.010787  -0.046640   0.034380  -0.010768  -0.000344
    29  O    0.151578  -0.065940   0.034654   0.015392  -0.069167   0.000362
    30  O   -0.062965   0.120237  -0.044491   0.031085  -0.018374   0.000091
    31  H    0.006752  -0.002476  -0.008086   0.003286   0.000852   0.000005
    32  O   -0.135383   0.077144  -0.114428   0.078916  -0.010218  -0.000419
    33  H   -0.010068   0.020032   0.024245   0.062642  -0.025732  -0.001592
    34  O    0.022091  -0.036892   0.035455  -0.032503   0.026344  -0.000054
    35  H    0.000418  -0.000287  -0.000594   0.002267  -0.001668   0.000000
               7          8          9         10         11         12
     1  C    0.379221   0.000906  -0.018866   0.118026  -0.001412   0.006551
     2  C    0.035831   0.368102   0.019645  -0.040303   0.007131  -0.009387
     3  C   -0.015796  -0.015661   0.002856  -0.204641  -0.052112   0.044539
     4  C    0.029201  -0.015102   0.064494  -0.126885  -0.091737  -0.033527
     5  C   -0.022663   0.003956   0.339298  -0.029573   0.082456  -0.075877
     6  H   -0.000133  -0.005078  -0.000089  -0.003501   0.004756  -0.000131
     7  H    0.474545  -0.005490  -0.000050  -0.000709   0.000000  -0.000001
     8  H   -0.005490   0.507775   0.000024  -0.000314  -0.000037   0.000018
     9  H   -0.000050   0.000024   0.466338  -0.009985  -0.000342   0.002447
    10  C   -0.000709  -0.000314  -0.009985   5.851306   0.422919   0.434936
    11  H    0.000000  -0.000037  -0.000342   0.422919   0.519575  -0.021395
    12  H   -0.000001   0.000018   0.002447   0.434936  -0.021395   0.514600
    13  H    0.000001   0.000003   0.000777   0.372888  -0.023019  -0.032120
    14  N   -0.053261   0.003705  -0.053357  -0.106909   0.000375  -0.000444
    15  C    0.003015   0.000151   0.002545  -0.022525   0.000812  -0.000696
    16  H    0.001276   0.000016   0.000972  -0.001492  -0.000001  -0.000010
    17  H    0.003614  -0.000033   0.000048   0.000181  -0.000000  -0.000001
    18  C   -0.009277   0.001290  -0.006199  -0.005373  -0.000078   0.000273
    19  H    0.000089  -0.000001   0.004395   0.000762  -0.000001   0.000001
    20  H   -0.000047  -0.000000  -0.000453  -0.000340   0.000000   0.000002
    21  C    0.000394  -0.000297   0.005679   0.006304   0.000093   0.000249
    22  H    0.000005   0.000002  -0.000020   0.000494   0.000000  -0.000001
    23  H    0.000005   0.000000   0.000055   0.000187  -0.000000  -0.000000
    24  S    0.000494   0.000113   0.000659  -0.062622   0.000188   0.000724
    25  O   -0.000049  -0.000005  -0.000268   0.003274   0.000001  -0.000016
    26  O    0.000011   0.000002  -0.000622  -0.005498  -0.000016   0.000095
    27  O    0.000338  -0.000119  -0.026855   0.008681   0.000011  -0.001723
    28  P   -0.001724   0.002411   0.000850   0.010884   0.000064  -0.000120
    29  O   -0.014186  -0.000166   0.000410   0.002172   0.000012   0.000007
    30  O    0.000001  -0.002720  -0.000001  -0.001056  -0.000005  -0.000001
    31  H   -0.000015  -0.000003   0.000000   0.000147  -0.000001  -0.000000
    32  O    0.000853  -0.002416   0.000828   0.010306   0.000043  -0.000165
    33  H   -0.000177  -0.000232   0.000307  -0.038426   0.000080   0.000072
    34  O   -0.000151   0.000146  -0.000092  -0.001465   0.000005   0.000001
    35  H   -0.000001   0.000001   0.000002  -0.000187  -0.000001  -0.000000
              13         14         15         16         17         18
     1  C    0.000378  -0.247911  -0.390630  -0.002508   0.012329   0.060386
     2  C    0.005185   0.473522   0.289085   0.004002   0.006157  -0.172613
     3  C   -0.003261  -0.410236  -0.343582   0.000436   0.004456   0.065346
     4  C    0.054620   0.518095   0.128350  -0.005909   0.011381  -0.063271
     5  C   -0.077042  -0.419351  -0.290287  -0.003156  -0.032447  -0.077059
     6  H    0.000447   0.001370   0.001131  -0.000002  -0.000002  -0.000211
     7  H    0.000001  -0.053261   0.003015   0.001276   0.003614  -0.009277
[...]
 830051,0.00000773,-0.00000671,-0.00000723,-0.00001328,-0.00000334,0.00
 001024,-0.00000988,-0.00000845,-0.00001896,-0.00000232,-0.00001095,0.0
 0000147,0.00000351,0.00000206,0.00000238,-0.00000136,0.00000237,0.0000
 0490,-0.00000213,0.00000032,-0.00000140,0.00001092,0.00000405,0.000006
 31,0.00000014,0.00000028,0.00000089,0.00000314,0.00000248,0.00000116,0
 .00000077,-0.00000007,-0.00000046,-0.00000147,0.00000023,0.00000011,-0
 .00000148,-0.00000186,0.00000166,-0.00001281,0.00000109,0.00000024,0.0
 0002918,-0.00000048,-0.00000094,-0.00000365,0.00000495,0.00000776,-0.0
 0000214,-0.00000148,0.00000003,0.00002931,0.00006193,-0.00001663,0.000
 00619,-0.00000564,0.00000234,0.00000833,-0.00000113,0.00001049,0.00005
 736,0.00001027,0.00029670,0.00000262,-0.00000098,0.00000555,-0.0000454
 6,-0.00005010,0.00002240,-0.00065660,0.00002887,-0.00339314,0.00333975
 ,-0.00127162,0.00119118,0.00017905,-0.00008679,0.00070276,-0.00239687,
 0.00091598,0.00157182,0.01793705,-0.00124189,-0.03980345,0.00106351,0.
 00038665,0.00660425,-0.02494689,0.00780506,0.04800878,-0.00000265,-0.0
 0000337,0.00000474,0.00000500,0.00000021,-0.00000256,0.00000499,0.0000
 0360,0.00000255,-0.00000265,0.00000554,-0.00000122,-0.00000084,0.00000
 371,-0.00000441,0.,-0.00000037,-0.00000231,-0.00000064,-0.00000044,-0.
 00000238,-0.00000104,-0.00000059,0.00000227,-0.00000078,-0.00000005,-0
 .00000070,-0.00000068,0.00000091,0.00000077,0.00000030,-0.00000013,0.0
 0000053,0.00000017,-0.00000020,0.00000016,0.00000079,-0.00000035,-0.00
 000043,0.00000247,-0.00000150,0.00000108,0.00000622,-0.00000538,0.0000
 0027,-0.00000007,0.00000275,0.00000323,-0.00000102,0.00000102,0.000000
 32,-0.00000307,0.00000988,-0.00001461,-0.00000474,0.00000077,0.0000001
 5,0.00000691,0.00000320,0.00000458,0.00001561,-0.00001028,-0.00000543,
 0.00000535,0.00000051,0.00000404,0.00000977,0.00001060,0.00000150,-0.0
 0036102,0.00013748,0.00005487,0.00052979,-0.00023024,0.00005936,0.0001
 3081,-0.00015302,-0.00001612,0.00054390,-0.00022547,-0.00019033,-0.029
 74554,-0.03334180,0.00054675,-0.00289871,-0.00099888,0.00055904,-0.083
 36503,-0.13466443,0.00061270,0.10874767,0.00000255,0.00000118,0.000001
 82,-0.00000339,0.00000008,0.00000139,0.00000299,0.00000325,-0.00000042
 ,0.00000018,0.00000169,-0.00000499,-0.00000121,0.00000033,0.00000007,0
 .00000004,0.00000037,-0.00000132,-0.00000137,-0.00000076,0.00000024,0.
 00000112,-0.00000279,-0.00000148,-0.00000002,0.00000020,-0.00000042,-0
 .00000083,0.00000032,0.00000048,-0.00000004,-0.00000063,0.00000041,0.0
 0000048,-0.00000028,0.00000043,-0.00000006,0.,0.00000034,0.00000182,0.
 00000218,-0.00000033,0.00000346,-0.00000439,0.00000085,0.00000018,0.00
 000237,0.00000258,-0.00000049,0.00000027,0.00000045,-0.00000175,0.0000
 0823,-0.00001137,-0.00000335,0.00000009,0.00000021,0.00000534,0.000002
 06,0.00000321,0.00001340,-0.00000823,-0.00000314,0.00000373,-0.0000001
 1,0.00000207,0.00000673,0.00000779,0.00000060,-0.00025322,0.00012145,0
 .00002455,0.00044816,-0.00018963,0.00005962,0.00010094,-0.00013305,-0.
 00000724,0.00043474,-0.00017212,-0.00014622,-0.00442633,-0.00405441,0.
 00007251,0.00248231,0.00409065,-0.00020811,-0.17269354,-0.43475032,-0.
 00576759,0.16766335,0.43697795,-0.00000026,0.00000007,0.00000313,0.000
 00378,0.00000750,0.00000616,0.00000012,-0.00000066,-0.00000191,0.00000
 400,-0.00000080,-0.00000110,-0.00000236,-0.00000228,0.00000352,-0.0000
 0008,-0.00000111,-0.00000149,0.00000029,-0.00000036,0.00000044,0.00000
 027,-0.00000409,0.00000021,-0.00000060,-0.00000033,-0.00000066,-0.0000
 0089,-0.00000103,-0.00000006,-0.00000045,0.00000022,0.00000007,0.00000
 053,-0.00000004,-0.00000016,0.00000024,0.00000141,-0.00000093,0.000002
 02,0.00000129,-0.00000264,-0.00000490,-0.00000089,0.00000294,0.0000008
 5,-0.00000032,-0.00000110,0.00000050,0.00000034,-0.00000032,-0.0000000
 4,-0.00000243,0.00000060,-0.00000030,0.00000065,0.00000011,-0.00000035
 ,-0.00000036,-0.00000103,-0.00000304,0.00000040,-0.00001166,0.,0.00000
 025,0.00000010,0.00000247,0.00000185,-0.00000104,0.00003695,-0.0000079
 1,0.00015996,-0.00014145,0.00006314,-0.00006070,-0.00000998,0.00000467
 ,-0.00003689,0.00008692,-0.00003946,-0.00007471,0.00195861,0.00277402,
 -0.00362593,0.00080418,0.00020436,0.00324491,-0.00137452,-0.00943810,-
 0.00439841,-0.00106311,0.00663096,0.00449030,-0.00001179,0.00003823,-0
 .00014287,-0.00040047,-0.00030742,-0.00030018,-0.00017053,-0.00013098,
 -0.00003958,0.00002984,-0.00010494,0.00002069,0.00002043,-0.00007053,0
 .00013233,0.00000667,0.00001804,0.00000662,0.00000227,0.00002278,0.000
 00400,-0.00001251,0.00002433,0.00001392,0.00000996,-0.00000641,0.00001
 025,0.00001709,-0.00000838,-0.00000813,-0.00000469,0.00000928,-0.00001
 548,-0.00000071,0.00000857,-0.00000624,-0.00000688,0.00001314,-0.00000
 206,-0.00005071,-0.00006043,-0.00005600,-0.00008063,0.00016301,0.00002
 944,-0.00000071,-0.00006724,-0.00007562,0.00002060,-0.00002677,-0.0000
 1461,0.00029350,0.00007707,0.00036803,0.00018224,-0.00004146,0.0000178
 5,-0.00016239,-0.00010072,-0.00008299,-0.00014623,0.00044654,0.0019215
 1,-0.00014980,-0.00003613,-0.00004829,-0.00057740,-0.00064665,0.000103
 91,0.00579361,-0.00335470,-0.02519623,0.00226415,-0.00042586,0.0047007
 9,-0.00318306,0.00451430,0.00487819,-0.04222434,0.01719159,0.01962794,
 -0.08622176,0.04456768,-0.04767982,0.01127615,0.00225475,-0.00407397,-
 0.03611717,0.01738269,-0.02543608,0.00413260,0.00394002,0.00057456,0.4
 3227420,0.00007252,-0.00014181,-0.00010786,-0.00026179,-0.00028594,-0.
 00030071,-0.00007500,-0.00011820,-0.00000217,-0.00000754,0.00000607,0.
 00003596,-0.00002984,0.00007332,-0.00006361,0.00000241,-0.00000247,-0.
 00000188,0.00002044,0.00001328,0.00001052,-0.00006704,0.00002756,0.000
 02395,-0.00000648,0.00000169,-0.00000381,-0.00000898,0.00000185,-0.000
 00172,0.00000108,0.00000382,0.00000123,-0.00000239,0.00000344,-0.00000
 525,0.00000425,0.00000499,-0.00001193,0.00002970,0.00007581,0.00003813
 ,0.00008360,-0.00008574,-0.00005203,-0.00000801,0.00003944,0.00004535,
 -0.00001213,0.00001602,0.00001369,-0.00018616,-0.00005559,-0.00020729,
 -0.00010664,0.00001512,-0.00000736,0.00008280,0.00005696,0.00004546,0.
 00017370,-0.00029462,-0.00124003,0.00010526,0.00004746,0.00000662,0.00
 033690,0.00041308,-0.00007100,-0.00239981,0.00214203,0.01240577,-0.001
 15292,0.00025557,-0.00245736,0.00141387,-0.00220327,-0.00224038,0.0233
 5596,-0.00510861,-0.00985994,0.03854521,-0.11113035,0.09059897,0.00869
 841,-0.02807023,0.02595415,0.01307144,0.00038900,0.00810442,-0.0002004
 4,-0.00146520,0.00010939,-0.18390536,0.18541234,0.00015806,-0.00013920
 ,-0.00018294,-0.00043790,-0.00029242,-0.00018671,-0.00014004,-0.000104
 30,-0.00008136,0.00006250,-0.00013256,0.00001051,-0.00000475,0.0000011
 4,0.00006037,-0.00000585,0.00004095,0.00004439,-0.00000997,0.00000783,
 0.,-0.00002740,0.00006560,-0.00000265,0.00000036,-0.00000051,0.0000060
 7,0.00000935,0.00000011,-0.00000316,-0.00000277,0.00000580,-0.00000932
 ,-0.00000466,0.00000607,-0.00000463,0.00000126,-0.00000700,0.00001340,
 -0.00009085,0.00009943,-0.00002378,0.00008544,0.00000771,-0.00003263,-
 0.00001285,0.00000828,0.00001627,-0.00000587,-0.00000412,0.00000554,0.
 00005279,0.00006674,-0.00001764,0.00000675,-0.00000567,-0.00000691,0.0
 0001046,0.00001142,0.00001750,0.00004702,-0.00001758,0.00047854,-0.000
 02177,-0.00001632,0.00000339,-0.00007660,-0.00009251,0.00002962,-0.002
 25730,0.00042062,-0.00291058,0.00328096,-0.00127618,0.00105567,0.00001
 571,0.00011928,0.00082114,-0.00184824,0.00051079,0.00592471,-0.0388155
 5,0.08422930,-0.16819223,-0.00498940,0.01161698,-0.00077103,-0.0059025
 3,0.00313252,0.00073920,0.00114516,0.00113827,-0.00017545,0.02047180,-
 0.10469532,0.23828302,0.00028193,-0.00018606,0.00001658,-0.00009323,-0
 .00019914,-0.00010111,0.00001036,0.00002933,0.00002013,0.00001508,0.00
 005455,-0.00001170,-0.00005531,0.00013701,-0.00018367,-0.00000659,0.00
 000263,0.00001516,-0.00000279,-0.00001851,0.00000927,-0.00001595,0.000
 03120,0.00000745,-0.00001563,0.00000851,-0.00001155,-0.00001850,0.0000
 1296,0.00001001,0.00000359,-0.00000820,0.00001446,-0.00000277,-0.00000
 569,0.00000242,0.00000457,-0.00001321,0.00000521,0.00002692,0.00021168
 ,0.00008995,0.00018419,-0.00027123,-0.00010320,-0.00001050,0.00011369,
 0.00013255,-0.00003650,0.00004417,0.00003057,-0.00046515,-0.00010482,-
 0.00059876,-0.00027527,0.00007587,-0.00002918,0.00027352,0.00017352,0.
 00015874,0.00043555,-0.00067508,-0.00302689,0.00029585,-0.00000141,0.0
 0007460,0.00095269,0.00104292,-0.00015259,-0.01193002,0.00677341,0.038
 66187,-0.00308605,0.00033208,-0.00854654,0.00565908,-0.00755648,-0.007
 64079,0.02343503,-0.00914349,-0.02515368,-0.01795652,0.02027061,-0.028
 43122,0.00010254,-0.00865259,0.00496941,0.00834463,-0.00094048,0.00360
 674,-0.00077748,-0.00072433,0.00001321,-0.29524399,0.10202971,0.043459
 08,0.28590624,0.00005871,0.00024397,0.00017392,0.00001950,-0.00021701,
 -0.00007963,0.00004625,0.00012652,-0.00000218,0.00002202,0.00000125,-0
 .00003982,-0.00000846,-0.00007053,0.00010375,0.00000177,-0.00000526,-0
 .00000906,-0.00002257,-0.00001963,-0.00000828,0.00001837,-0.00004082,-
 0.00002126,0.00001157,-0.00000088,0.00000830,0.00000114,-0.00000147,-0
 .00000233,-0.00000019,-0.00000338,0.00000034,0.00000414,-0.00000145,0.
 00000390,-0.00000340,0.00000247,0.00000252,-0.00002697,-0.00004972,-0.
 00006209,-0.00012449,0.00011520,0.00006866,0.00000966,-0.00005494,-0.0
 0006254,0.00001740,-0.00001967,-0.00001711,0.00028712,0.00009137,0.000
 28185,0.00013685,-0.00001685,-0.00000751,-0.00010879,-0.00007381,-0.00
 005978,-0.00046915,0.00053259,0.00207297,-0.00009553,-0.00005885,-0.00
 000178,-0.00053026,-0.00068730,0.00010285,0.00312095,-0.00502520,-0.01
 494325,0.00107484,-0.00034810,0.00332069,-0.00135993,0.00250470,0.0019
 4282,-0.01195393,-0.00109393,0.01017142,0.02148671,-0.01914836,0.01376
 525,-0.00217558,0.00263583,0.00008889,-0.00475088,0.00322922,-0.002069
 14,0.00107776,0.00039857,0.00044645,0.09745194,-0.04807872,-0.00748556
 ,-0.10152023,0.06451375,-0.00006356,0.00006530,0.00003217,0.00000546,-
 0.00014240,-0.00006156,0.00007130,0.00013326,0.00009077,0.00000517,0.0
 0003808,-0.00000608,-0.00001590,-0.00003886,0.00005231,-0.00000003,-0.
 00001104,-0.00001128,0.00000567,0.00000081,-0.00000162,0.00000631,-0.0
 0000681,-0.00000043,0.00000315,-0.00000203,0.00000054,0.00000230,0.000
 00096,-0.00000058,0.00000142,0.00000229,0.00000178,0.00000202,-0.00000
 087,0.00000009,0.00000002,0.00000485,-0.00000699,-0.00001671,-0.000044
 52,-0.00003120,-0.00008370,0.00006378,0.00003436,0.00000588,-0.0000343
 6,-0.00003837,0.00001085,-0.00001119,-0.00001370,0.00002274,-0.0000235
 0,0.00018023,0.00008367,-0.00001798,0.00003840,-0.00008042,-0.00005819
 ,-0.00004295,-0.00013731,0.00014692,0.00011983,-0.00003203,0.00005432,
 -0.00002671,-0.00012911,-0.00011191,0.00001251,0.01038580,-0.00492203,
 -0.00891464,-0.00091578,0.00060786,0.00229423,-0.00092706,0.00132422,0
 .00097549,-0.01111141,0.00446272,-0.00425626,-0.02670838,0.01305551,-0
 .00384908,0.00084663,-0.00007963,-0.00059503,-0.00471523,0.00250021,-0
 .00219116,0.00050023,0.00032606,0.00020388,0.05685264,-0.01244879,-0.0
 3504783,-0.02586236,-0.00400834,0.05287923,-0.00006866,0.00007949,0.00
 001141,0.00001749,0.00002155,0.00000433,-0.00000476,-0.00000372,-0.000
 01294,0.00000618,-0.00002266,0.00000273,0.00001782,-0.00004496,0.00006
 547,0.00000181,0.00000137,-0.00000339,-0.00000718,0.00000143,-0.000006
 30,0.00001500,-0.00000287,0.00000449,0.00000443,-0.00000560,0.00000570
 ,0.00000795,-0.00000268,-0.00000275,-0.00000177,0.00000297,-0.00000526
 ,0.00000070,0.00000184,-0.00000122,-0.00000306,0.00000631,-0.00000337,
 0.00001226,-0.00005067,-0.00001366,-0.00031237,0.00015343,-0.00001227,
 0.00002068,-0.00010187,-0.00011441,0.00002294,-0.00001095,-0.00000973,
 -0.00009818,-0.00059418,0.00043959,0.00007315,0.00001719,-0.00000113,-
 0.00020952,-0.00006762,-0.00016795,-0.00058283,0.00021431,-0.00160631,
 -0.00015570,-0.00002321,-0.00010980,0.00005856,0.00007706,-0.00016093,
 0.01138890,-0.00236213,0.02147585,-0.04143254,0.01736607,-0.00924775,-
 0.00406881,0.00402358,-0.00387920,0.00061446,-0.00026936,-0.00442614,-
 0.07172467,0.02715007,0.03122817,0.01257785,0.00000816,0.00191951,-0.0
 2847220,0.01409261,0.03155901,0.00377470,0.00369776,-0.00092933,0.0112
 5617,-0.00101245,-0.00553720,-0.00073885,0.00011876,0.00264574,0.40127
 181,0.00001412,-0.00003872,-0.00001292,0.00000459,-0.00003383,-0.00006
 005,-0.00000680,-0.00001905,0.00002210,-0.00003473,0.00001976,0.000019
 17,0.00000100,0.00004830,-0.00006465,-0.00000175,-0.00000500,-0.000000
 83,0.00002055,0.00000488,0.00000286,-0.00002790,0.00004461,0.00001828,
 -0.00000319,0.00000349,-0.00000414,-0.00000220,0.00000344,0.00000259,0
 .00000017,0.00000088,0.00000086,-0.00000239,0.00000092,-0.00000219,0.0
 0000271,-0.00000183,-0.00000156,0.00000626,0.00000291,0.00001810,0.000
 21380,-0.00009640,0.00000712,-0.00001720,0.00006722,0.00007405,-0.0000
 1265,0.00000803,0.00000646,0.00007624,0.00043234,-0.00028028,-0.000049
 39,-0.00001394,-0.00000027,0.00013041,0.00004270,0.00010565,0.00048941
 ,-0.00018380,0.00119304,0.00011388,0.00004661,0.00007157,-0.00004516,-
 0.00006398,0.00009805,-0.00572880,0.00160546,-0.01224787,0.02588321,-0
 .00643757,0.00538193,0.00213361,-0.00228494,0.00209498,-0.00042272,0.0
 0022211,0.00262861,0.02076972,-0.09686286,-0.08960467,0.00341611,-0.02
 500055,-0.02862681,0.01141908,0.00141350,-0.01082031,-0.00013309,-0.00
 137578,-0.00014172,0.00007930,0.00931519,0.00857182,0.00073813,-0.0008
 6379,-0.00099960,-0.17995231,0.18288066,0.00003434,-0.00003559,-0.0000
 5076,-0.00005757,-0.00004280,-0.00005180,-0.00004782,-0.00004084,0.000
 00524,-0.00000378,-0.00001528,0.00002047,0.00000483,0.00001574,-0.0000
 2320,-0.00000135,0.00000651,0.00001445,0.00000171,0.00000270,-0.000006
 71,-0.00001261,0.00003663,0.00001094,0.00000059,0.00000079,0.00000036,
 0.00000041,0.00000047,-0.00000286,0.00000060,0.00000058,-0.00000316,-0
 .00000317,0.00000228,-0.00000194,-0.00000273,-0.00000118,0.00000291,-0
 .00002653,0.00000781,0.00001150,0.00011793,-0.00002568,-0.00001445,-0.
 00001199,0.00002508,0.00003277,-0.00000672,-0.00000003,0.00000311,0.00
 005817,0.00019723,-0.00010733,-0.00000156,-0.00001533,0.00000281,0.000
 04547,0.00001205,0.00004769,0.00014506,0.00001343,0.00079894,0.0000527
 5,0.00001551,0.00001361,-0.00008705,-0.00009204,0.00005185,-0.00075829
 ,-0.00036939,-0.00759700,0.01154836,-0.00418807,0.00740076,0.00104606,
 -0.00089404,0.00164521,-0.00329970,0.00132707,0.00267335,0.02189941,-0
 .08283260,-0.19408119,0.00286828,-0.01364980,-0.00520143,0.01212303,-0
 .00591707,-0.00700504,-0.00195948,-0.00189901,0.00007238,-0.00486161,-
 0.00425814,-0.04369073,0.00970093,-0.00414161,0.00136440,-0.05445233,0
 .12618727,0.27125132,0.00011271,-0.00015571,-0.00002368,-0.00003240,-0
 .00002413,-0.00000104,0.00000069,-0.00000851,0.00001191,-0.00001488,0.
 00003216,0.00000006,-0.00002454,0.00008339,-0.00011570,-0.00000376,0.0
 0000052,0.00000582,0.00000749,-0.00000823,0.00000738,-0.00001369,0.000
 01373,0.00000760,-0.00000811,0.00000995,-0.00001061,-0.00001119,0.0000
 0586,0.00000596,0.00000179,-0.00000480,0.00000797,-0.00000104,-0.00000
 284,0.00000146,0.00000305,-0.00000863,0.00000551,-0.00001171,0.0000956
 0,0.00003266,0.00052376,-0.00026591,-0.00000090,-0.00003434,0.00017554
 ,0.00019525,-0.00003787,0.00002383,0.00001823,0.00023870,0.00097540,-0
 .00073523,-0.00012258,-0.00002075,-0.00000132,0.00037162,0.00012153,0.
 00029550,0.00114055,-0.00033189,0.00261149,0.00029834,-0.00005976,0.00
 022291,-0.00004817,-0.00009309,0.00027857,-0.02272703,0.00568549,-0.03
 443050,0.02957740,-0.00987147,0.01733161,0.00734486,-0.00706570,0.0063
 4805,-0.00076089,0.00033383,0.00886666,-0.00630737,0.01427169,0.028457
 18,-0.00110433,-0.00790366,-0.00563204,0.00734678,-0.00057842,-0.00492
 458,-0.00075108,-0.00069939,0.00004218,-0.00281373,0.00141569,-0.00861
 522,0.00479932,-0.00181510,-0.00065801,-0.29326175,0.12092797,0.005946
 40,0.27632340,-0.00004775,0.00007481,0.00000665,0.00001440,0.00000644,
 0.00000663,0.00000163,0.00001185,-0.00001136,0.00001644,-0.00001360,-0
 .00000670,0.00000576,-0.00004804,0.00006211,0.00000043,-0.00000168,-0.
 00000340,-0.00001370,-0.00000373,-0.00001107,0.00000695,-0.00000730,-0
 .00000724,0.00000408,-0.00000590,0.00000527,0.00000313,-0.00000353,-0.
 00000277,-0.00000004,0.00000078,-0.00000303,0.00000120,0.00000099,0.00
 000003,-0.00000230,0.00000409,-0.00000205,0.00000410,-0.00003266,-0.00
 001314,-0.00032380,0.00015267,-0.00002634,0.00002315,-0.00010134,-0.00
 011086,0.00001886,-0.00001142,-0.00000729,-0.00017106,-0.00072721,0.00
 041538,0.00007223,0.00001668,0.00000268,-0.00020272,-0.00006554,-0.000
 16073,-0.00096887,0.00038523,-0.00200788,-0.00016744,-0.00006296,-0.00
 009742,0.00008736,0.00010710,-0.00014797,0.00750995,-0.00338149,0.0154
 3655,-0.01500820,-0.00100548,-0.00868956,-0.00236691,0.00292469,-0.002
 15210,0.00043259,-0.00037038,-0.00387359,0.01584137,-0.01823977,-0.018
 51155,-0.00190106,0.00263005,0.00035000,-0.00518724,0.00321387,0.00401
 753,0.00104873,0.00053869,-0.00060503,0.00109070,-0.00127331,0.0042086
 0,-0.00206103,0.00148421,0.00017489,0.11749325,-0.06288098,-0.00943263
 ,-0.11525417,0.07668419,0.00000481,-0.00000673,0.00000694,0.00001109,0
 .00000458,0.00000762,0.00000765,0.00000927,-0.00000052,0.00000653,0.00
 000934,0.00000016,-0.00000406,0.00000341,-0.00000355,-0.00000008,-0.00
 000074,-0.00000201,0.00000084,0.00000043,0.00000255,-0.00000002,-0.000
 00549,-0.00000118,-0.00000105,0.00000032,-0.00000059,0.00000030,0.0000
 0040,0.00000297,-0.00000043,0.00000056,0.00000129,0.00000015,-0.000000
 66,0.00000044,0.00000225,-0.00000198,0.00000145,0.00000616,0.00001348,
 0.00000291,-0.00002353,-0.00000623,0.00000363,0.00000419,-0.00000029,-
 0.00000087,-0.00000055,0.00000306,0.00000084,-0.00003276,-0.00005536,0
 .00002285,-0.00000345,0.00001571,-0.00000016,0.00000410,0.00000508,-0.
 00000595,0.00001668,-0.00006736,-0.00040057,-0.00003355,-0.00004082,0.
 00001556,0.00006064,0.00005246,0.00003679,-0.00747829,0.00349883,0.000
 48967,0.00409420,-0.00292904,-0.01010893,-0.00044014,0.00019449,-0.000
 53746,0.00151854,-0.00073392,0.00008129,0.02770335,-0.01798006,-0.0148
 7414,-0.00093069,0.00142235,0.00037333,0.00279828,-0.00185997,-0.00235
 580,-0.00024120,-0.00021551,0.00020748,-0.00169471,0.00064296,0.003830
 25,-0.00114509,0.00046671,-0.00318477,-0.00865862,-0.00363666,-0.02758
 649,-0.01555152,0.02119739,0.05397501\\-0.00000234,0.00000041,0.000002
 04,0.00000117,0.00000282,-0.00000162,0.00000274,-0.00000500,0.00000171
 ,-0.00000716,0.00000295,0.00000219,-0.00000026,0.00000450,-0.00000382,
 -0.00000246,-0.00000182,0.00000023,-0.00000431,0.00000071,0.00000302,-
 0.00000227,-0.00000177,0.00000008,0.00000223,-0.00000103,0.00000111,0.
 00000198,-0.00000156,-0.00000325,-0.00000399,-0.00000215,0.,-0.0000023
 9,-0.00000160,0.00000257,-0.00000215,-0.00000371,-0.00000205,0.0000027
 3,-0.00000347,0.00000321,-0.00001123,0.00000265,0.00000746,0.00000191,
 0.00000131,0.00000086,-0.00000368,0.00000495,0.00000319,-0.00000340,0.
 00000301,-0.00000077,0.00000260,0.00000160,-0.00000004,0.00000221,0.00
 000453,0.00000228,0.00000512,-0.00000018,-0.00000113,0.00000389,0.0000
 0313,-0.00000123,-0.00000107,0.00000088,-0.00000009,0.00000099,-0.0000
 0304,0.00001723,0.00000065,0.00001381,-0.00000977,0.00000391,-0.000001
 57,-0.00000007,0.00001544,-0.00000118,-0.00000841,0.00000819,0.0000086
 8,-0.00001425,-0.00000084,-0.00000513,0.00000130,-0.00000506,0.0000009
 5,-0.00000260,0.00000332,-0.00000752,-0.00000257,0.00000068,-0.0000150
 0,0.00000380,-0.00001186,0.00000640,-0.00000212,-0.00000780,0.00000090
 ,0.00000379,0.00001254,-0.00000845,-0.00000225\\\@


 DO YOU KNOW THAT THE LETTERS IN "EPISCOPAL", WHEN
 REARRANGED, SPELL "PEPSI COLA"?
 Job cpu time:       0 days 14 hours 30 minutes 52.3 seconds.
 Elapsed time:       0 days  0 hours 36 minutes 28.8 seconds.
 File lengths (MBytes):  RWF=   1360 Int=      0 D2E=      0 Chk=     42 Scr=      1
 Normal termination of Gaussian 16 at Mon Dec 12 00:12:11 2022.
