 Entering Gaussian System, Link 0=g16
 Initial command:
 /data0/home/software/g16/l1.exe "/data0/home/software/g16/scratch/Gau-2586773.inp" -scrdir="/data0/home/software/g16/scratch/"
 Default is to use a total of  22 processors:
                               22 via shared-memory
                                1 via Linda
 Entering Link 1 = /data0/home/software/g16/l1.exe PID=   2586774.
  
 Copyright (c) 1988,1990,1992,1993,1995,1998,2003,2009,2016,
            Gaussian, Inc.  All Rights Reserved.
  
 This is part of the Gaussian(R) 16 program.  It is based on
 the Gaussian(R) 09 system (copyright 2009, Gaussian, Inc.),
 the Gaussian(R) 03 system (copyright 2003, Gaussian, Inc.),
 the Gaussian(R) 98 system (copyright 1998, Gaussian, Inc.),
 the Gaussian(R) 94 system (copyright 1995, Gaussian, Inc.),
 the Gaussian 92(TM) system (copyright 1992, Gaussian, Inc.),
 the Gaussian 90(TM) system (copyright 1990, Gaussian, Inc.),
 the Gaussian 88(TM) system (copyright 1988, Gaussian, Inc.),
 the Gaussian 86(TM) system (copyright 1986, Carnegie Mellon
 University), and the Gaussian 82(TM) system (copyright 1983,
 Carnegie Mellon University). Gaussian is a federally registered
 trademark of Gaussian, Inc.
  
 This software contains proprietary and confidential information,
 including trade secrets, belonging to Gaussian, Inc.
  
 This software is provided under written license and may be
 used, copied, transmitted, or stored only in accord with that
 written license.
  
 The following legend is applicable only to US Government
 contracts under FAR:
  
                    RESTRICTED RIGHTS LEGEND
  
 Use, reproduction and disclosure by the US Government is
 subject to restrictions as set forth in subparagraphs (a)
 and (c) of the Commercial Computer Software - Restricted
 Rights clause in FAR 52.227-19.
  
 Gaussian, Inc.
 340 Quinnipiac St., Bldg. 40, Wallingford CT 06492
  
  
 ---------------------------------------------------------------
 Warning -- This program may not be used in any manner that
 competes with the business of Gaussian, Inc. or will provide
 assistance to any competitor of Gaussian, Inc.  The licensee
 of this program is prohibited from giving any competitor of
 Gaussian, Inc. access to this program.  By using this program,
 the user acknowledges that Gaussian, Inc. is engaged in the
 business of creating and licensing software in the field of
 computational chemistry and represents and warrants to the
 licensee that it is not a competitor of Gaussian, Inc. and that
 it will not use this program in any manner prohibited above.
 ---------------------------------------------------------------
  

 Cite this work as:
 Gaussian 16, Revision A.03,
 M. J. Frisch, G. W. Trucks, H. B. Schlegel, G. E. Scuseria, 
 M. A. Robb, J. R. Cheeseman, G. Scalmani, V. Barone, 
 G. A. Petersson, H. Nakatsuji, X. Li, M. Caricato, A. V. Marenich, 
 J. Bloino, B. G. Janesko, R. Gomperts, B. Mennucci, H. P. Hratchian, 
 J. V. Ortiz, A. F. Izmaylov, J. L. Sonnenberg, D. Williams-Young, 
 F. Ding, F. Lipparini, F. Egidi, J. Goings, B. Peng, A. Petrone, 
 T. Henderson, D. Ranasinghe, V. G. Zakrzewski, J. Gao, N. Rega, 
 G. Zheng, W. Liang, M. Hada, M. Ehara, K. Toyota, R. Fukuda, 
 J. Hasegawa, M. Ishida, T. Nakajima, Y. Honda, O. Kitao, H. Nakai, 
 T. Vreven, K. Throssell, J. A. Montgomery, Jr., J. E. Peralta, 
 F. Ogliaro, M. J. Bearpark, J. J. Heyd, E. N. Brothers, K. N. Kudin, 
 V. N. Staroverov, T. A. Keith, R. Kobayashi, J. Normand, 
 K. Raghavachari, A. P. Rendell, J. C. Burant, S. S. Iyengar, 
 J. Tomasi, M. Cossi, J. M. Millam, M. Klene, C. Adamo, R. Cammi, 
 J. W. Ochterski, R. L. Martin, K. Morokuma, O. Farkas, 
 J. B. Foresman, and D. J. Fox, Gaussian, Inc., Wallingford CT, 2016.
 
 ******************************************
 Gaussian 16:  ES64L-G16RevA.03 25-Dec-2016
                12-Oct-2023 
 ******************************************
 %mem=50GB
 %nprocshared=24
 Will use up to   24 processors via shared memory.
 -----------------------------------------------------------------
 #p opt freq b3lyp/6-311+g(2d,p) scrf=(smd,solvent=water) em=gd3bj
 -----------------------------------------------------------------
 1/18=20,19=15,26=3,38=1/1,3;
 2/9=110,12=2,17=6,18=5,40=1/2;
 3/5=4,6=6,7=112,11=2,25=1,30=1,70=32201,71=1,72=1,74=-5,124=41/1,2,3;
 4//1;
 5/5=2,38=5,53=1/2;
 6/7=2,8=2,9=2,10=2,28=1/1;
 7//1,2,3,16;
 1/18=20,19=15,26=3/3(2);
 2/9=110/2;
 99//99;
 2/9=110/2;
 3/5=4,6=6,7=112,11=2,25=1,30=1,70=32205,71=1,72=1,74=-5,124=41/1,2,3;
 4/5=5,16=3,69=1/1;
 5/5=2,38=5,53=1/2;
 7//1,2,3,16;
 1/18=20,19=15,26=3/3(-5);
 2/9=110/2;
 6/7=2,8=2,9=2,10=2,19=2,28=1/1;
 99/9=1/99;
 Leave Link    1 at Thu Oct 12 08:59:00 2023, MaxMem=  6710886400 cpu:               0.9 elap:               0.0
 (Enter /data0/home/software/g16/l101.exe)
 -------------------
 Title Card Required
 -------------------
 Symbolic Z-matrix:
 Charge =  0 Multiplicity = 1
 C                    -1.40494   0.66679  -0.23194 
 C                    -2.75587   0.83736   0.00828 
 C                    -3.53924  -0.31413   0.12561 
 C                    -2.96235  -1.56934   0.00396 
 C                    -1.60776  -1.67184  -0.2365 
 H                    -4.60231  -0.22118   0.31259 
 H                    -0.72448   1.50023  -0.33381 
 H                    -3.55082  -2.47163   0.09219 
 H                    -1.0941   -2.61622  -0.34051 
 C                    -3.34687   2.21009   0.13267 
 H                    -3.82746   2.32916   1.10635 
 H                    -2.58669   2.98327   0.02282 
 H                    -4.11238   2.36312  -0.63157 
 N                    -0.85909  -0.56093  -0.35745 
 C                     0.60948  -0.68034  -0.54595 
 H                     0.78856  -1.59172  -1.11381 
 H                     0.9238    0.17102  -1.14598 
 C                     1.3334   -0.71362   0.79574 
 H                     1.07089   0.17902   1.36718 
 H                     0.98766  -1.58284   1.36136 
 C                     2.84586  -0.78983   0.60473 
 H                     3.32194  -0.93525   1.57991 
 H                     3.11535  -1.65714  -0.00229 
 C                     3.49985   0.45697  -0.00704 
 O                     4.61336   0.2891   -0.58653 
 O                     2.92093   1.57138   0.12782 
 
 ITRead=  0  0  0  0  0  0  0  0  0  0  0  0  0  0  0  0  0  0  0  0
 ITRead=  0  0  0  0  0  0
 MicOpt= -1 -1 -1 -1 -1 -1 -1 -1 -1 -1 -1 -1 -1 -1 -1 -1 -1 -1 -1 -1
 MicOpt= -1 -1 -1 -1 -1 -1
 NAtoms=     26 NQM=       26 NQMF=       0 NMMI=      0 NMMIF=      0
                NMic=       0 NMicF=      0.
                    Isotopes and Nuclear Properties:
 (Nuclear quadrupole moments (NQMom) in fm**2, nuclear magnetic moments (NMagM)
  in nuclear magnetons)

  Atom         1           2           3           4           5           6           7           8           9          10
 IAtWgt=          12          12          12          12          12           1           1           1           1          12
 AtmWgt=  12.0000000  12.0000000  12.0000000  12.0000000  12.0000000   1.0078250   1.0078250   1.0078250   1.0078250  12.0000000
 NucSpn=           0           0           0           0           0           1           1           1           1           0
 AtZEff=  -0.0000000  -0.0000000  -0.0000000  -0.0000000  -0.0000000  -0.0000000  -0.0000000  -0.0000000  -0.0000000  -0.0000000
 NQMom=    0.0000000   0.0000000   0.0000000   0.0000000   0.0000000   0.0000000   0.0000000   0.0000000   0.0000000   0.0000000
 NMagM=    0.0000000   0.0000000   0.0000000   0.0000000   0.0000000   2.7928460   2.7928460   2.7928460   2.7928460   0.0000000
 AtZNuc=   6.0000000   6.0000000   6.0000000   6.0000000   6.0000000   1.0000000   1.0000000   1.0000000   1.0000000   6.0000000

  Atom        11          12          13          14          15          16          17          18          19          20
 IAtWgt=           1           1           1          14          12           1           1          12           1           1
 AtmWgt=   1.0078250   1.0078250   1.0078250  14.0030740  12.0000000   1.0078250   1.0078250  12.0000000   1.0078250   1.0078250
 NucSpn=           1           1           1           2           0           1           1           0           1           1
 AtZEff=  -0.0000000  -0.0000000  -0.0000000  -0.0000000  -0.0000000  -0.0000000  -0.0000000  -0.0000000  -0.0000000  -0.0000000
 NQMom=    0.0000000   0.0000000   0.0000000   2.0440000   0.0000000   0.0000000   0.0000000   0.0000000   0.0000000   0.0000000
 NMagM=    2.7928460   2.7928460   2.7928460   0.4037610   0.0000000   2.7928460   2.7928460   0.0000000   2.7928460   2.7928460
 AtZNuc=   1.0000000   1.0000000   1.0000000   7.0000000   6.0000000   1.0000000   1.0000000   6.0000000   1.0000000   1.0000000

  Atom        21          22          23          24          25          26
 IAtWgt=          12           1           1          12          16          16
 AtmWgt=  12.0000000   1.0078250   1.0078250  12.0000000  15.9949146  15.9949146
 NucSpn=           0           1           1           0           0           0
 AtZEff=  -0.0000000  -0.0000000  -0.0000000  -0.0000000  -0.0000000  -0.0000000
 NQMom=    0.0000000   0.0000000   0.0000000   0.0000000   0.0000000   0.0000000
 NMagM=    0.0000000   2.7928460   2.7928460   0.0000000   0.0000000   0.0000000
 AtZNuc=   6.0000000   1.0000000   1.0000000   6.0000000   8.0000000   8.0000000
 Leave Link  101 at Thu Oct 12 08:59:00 2023, MaxMem=  6710886400 cpu:               7.7 elap:               0.3
 (Enter /data0/home/software/g16/l103.exe)

 GradGradGradGradGradGradGradGradGradGradGradGradGradGradGradGradGradGrad
 Berny optimization.
 Initialization pass.
                           ----------------------------
                           !    Initial Parameters    !
                           ! (Angstroms and Degrees)  !
 --------------------------                            --------------------------
 ! Name  Definition              Value          Derivative Info.                !
 --------------------------------------------------------------------------------
 ! R1    R(1,2)                  1.3827         estimate D2E/DX2                !
 ! R2    R(1,7)                  1.0807         estimate D2E/DX2                !
 ! R3    R(1,14)                 1.3494         estimate D2E/DX2                !
 ! R4    R(2,3)                  1.3976         estimate D2E/DX2                !
 ! R5    R(2,10)                 1.4997         estimate D2E/DX2                !
 ! R6    R(3,4)                  1.3868         estimate D2E/DX2                !
 ! R7    R(3,6)                  1.0834         estimate D2E/DX2                !
 ! R8    R(4,5)                  1.3796         estimate D2E/DX2                !
 ! R9    R(4,8)                  1.0808         estimate D2E/DX2                !
 ! R10   R(5,9)                  1.0801         estimate D2E/DX2                !
 ! R11   R(5,14)                 1.3451         estimate D2E/DX2                !
 ! R12   R(10,11)                1.0923         estimate D2E/DX2                !
 ! R13   R(10,12)                1.0898         estimate D2E/DX2                !
 ! R14   R(10,13)                1.0925         estimate D2E/DX2                !
 ! R15   R(14,15)                1.4854         estimate D2E/DX2                !
 ! R16   R(15,16)                1.0886         estimate D2E/DX2                !
 ! R17   R(15,17)                1.0879         estimate D2E/DX2                !
 ! R18   R(15,18)                1.5249         estimate D2E/DX2                !
 ! R19   R(18,19)                1.0919         estimate D2E/DX2                !
 ! R20   R(18,20)                1.0932         estimate D2E/DX2                !
 ! R21   R(18,21)                1.5264         estimate D2E/DX2                !
 ! R22   R(21,22)                1.0949         estimate D2E/DX2                !
 ! R23   R(21,23)                1.0924         estimate D2E/DX2                !
 ! R24   R(21,24)                1.5351         estimate D2E/DX2                !
 ! R25   R(24,25)                1.2664         estimate D2E/DX2                !
 ! R26   R(24,26)                1.263          estimate D2E/DX2                !
 ! A1    A(2,1,7)              122.4388         estimate D2E/DX2                !
 ! A2    A(2,1,14)             121.5738         estimate D2E/DX2                !
 ! A3    A(7,1,14)             115.9871         estimate D2E/DX2                !
 ! A4    A(1,2,3)              117.4243         estimate D2E/DX2                !
 ! A5    A(1,2,10)             120.8209         estimate D2E/DX2                !
 ! A6    A(3,2,10)             121.7546         estimate D2E/DX2                !
 ! A7    A(2,3,4)              120.3446         estimate D2E/DX2                !
 ! A8    A(2,3,6)              119.5904         estimate D2E/DX2                !
 ! A9    A(4,3,6)              120.065          estimate D2E/DX2                !
 ! A10   A(3,4,5)              119.4061         estimate D2E/DX2                !
 ! A11   A(3,4,8)              121.4639         estimate D2E/DX2                !
 ! A12   A(5,4,8)              119.1299         estimate D2E/DX2                !
 ! A13   A(4,5,9)              123.2798         estimate D2E/DX2                !
 ! A14   A(4,5,14)             120.054          estimate D2E/DX2                !
 ! A15   A(9,5,14)             116.6659         estimate D2E/DX2                !
 ! A16   A(2,10,11)            110.3092         estimate D2E/DX2                !
 ! A17   A(2,10,12)            111.4774         estimate D2E/DX2                !
 ! A18   A(2,10,13)            110.2626         estimate D2E/DX2                !
 ! A19   A(11,10,12)           108.6267         estimate D2E/DX2                !
 ! A20   A(11,10,13)           107.4584         estimate D2E/DX2                !
 ! A21   A(12,10,13)           108.5948         estimate D2E/DX2                !
 ! A22   A(1,14,5)             121.1919         estimate D2E/DX2                !
 ! A23   A(1,14,15)            119.0019         estimate D2E/DX2                !
 ! A24   A(5,14,15)            119.6895         estimate D2E/DX2                !
 ! A25   A(14,15,16)           107.2248         estimate D2E/DX2                !
 ! A26   A(14,15,17)           107.0207         estimate D2E/DX2                !
 ! A27   A(14,15,18)           111.0663         estimate D2E/DX2                !
 ! A28   A(16,15,17)           108.6569         estimate D2E/DX2                !
 ! A29   A(16,15,18)           111.2589         estimate D2E/DX2                !
 ! A30   A(17,15,18)           111.4191         estimate D2E/DX2                !
 ! A31   A(15,18,19)           109.1772         estimate D2E/DX2                !
 ! A32   A(15,18,20)           108.8119         estimate D2E/DX2                !
 ! A33   A(15,18,21)           111.1857         estimate D2E/DX2                !
 ! A34   A(19,18,20)           107.6509         estimate D2E/DX2                !
 ! A35   A(19,18,21)           110.1525         estimate D2E/DX2                !
 ! A36   A(20,18,21)           109.7819         estimate D2E/DX2                !
 ! A37   A(18,21,22)           109.0277         estimate D2E/DX2                !
 ! A38   A(18,21,23)           110.7087         estimate D2E/DX2                !
 ! A39   A(18,21,24)           115.5605         estimate D2E/DX2                !
 ! A40   A(22,21,23)           106.3924         estimate D2E/DX2                !
 ! A41   A(22,21,24)           106.1163         estimate D2E/DX2                !
 ! A42   A(23,21,24)           108.5603         estimate D2E/DX2                !
 ! A43   A(21,24,25)           116.6971         estimate D2E/DX2                !
 ! A44   A(21,24,26)           118.6072         estimate D2E/DX2                !
 ! A45   A(25,24,26)           124.6681         estimate D2E/DX2                !
 ! D1    D(7,1,2,3)           -179.816          estimate D2E/DX2                !
 ! D2    D(7,1,2,10)             0.3372         estimate D2E/DX2                !
 ! D3    D(14,1,2,3)             0.3974         estimate D2E/DX2                !
 ! D4    D(14,1,2,10)         -179.4495         estimate D2E/DX2                !
 ! D5    D(2,1,14,5)            -0.8545         estimate D2E/DX2                !
 ! D6    D(2,1,14,15)         -176.9143         estimate D2E/DX2                !
 ! D7    D(7,1,14,5)           179.3459         estimate D2E/DX2                !
 ! D8    D(7,1,14,15)            3.2861         estimate D2E/DX2                !
 ! D9    D(1,2,3,4)              0.0803         estimate D2E/DX2                !
 ! D10   D(1,2,3,6)           -179.9207         estimate D2E/DX2                !
 ! D11   D(10,2,3,4)           179.9257         estimate D2E/DX2                !
 ! D12   D(10,2,3,6)            -0.0753         estimate D2E/DX2                !
 ! D13   D(1,2,10,11)         -121.46           estimate D2E/DX2                !
 ! D14   D(1,2,10,12)           -0.6895         estimate D2E/DX2                !
 ! D15   D(1,2,10,13)          120.0092         estimate D2E/DX2                !
 ! D16   D(3,2,10,11)           58.6999         estimate D2E/DX2                !
 ! D17   D(3,2,10,12)          179.4704         estimate D2E/DX2                !
 ! D18   D(3,2,10,13)          -59.8309         estimate D2E/DX2                !
 ! D19   D(2,3,4,5)             -0.1172         estimate D2E/DX2                !
 ! D20   D(2,3,4,8)            179.9567         estimate D2E/DX2                !
 ! D21   D(6,3,4,5)            179.8838         estimate D2E/DX2                !
 ! D22   D(6,3,4,8)             -0.0423         estimate D2E/DX2                !
 ! D23   D(3,4,5,9)            179.9028         estimate D2E/DX2                !
 ! D24   D(3,4,5,14)            -0.3192         estimate D2E/DX2                !
 ! D25   D(8,4,5,9)             -0.1694         estimate D2E/DX2                !
 ! D26   D(8,4,5,14)           179.6086         estimate D2E/DX2                !
 ! D27   D(4,5,14,1)             0.805          estimate D2E/DX2                !
 ! D28   D(4,5,14,15)          176.8381         estimate D2E/DX2                !
 ! D29   D(9,5,14,1)          -179.4027         estimate D2E/DX2                !
 ! D30   D(9,5,14,15)           -3.3696         estimate D2E/DX2                !
 ! D31   D(1,14,15,16)        -151.356          estimate D2E/DX2                !
 ! D32   D(1,14,15,17)         -34.9218         estimate D2E/DX2                !
 ! D33   D(1,14,15,18)          86.8938         estimate D2E/DX2                !
 ! D34   D(5,14,15,16)          32.5238         estimate D2E/DX2                !
 ! D35   D(5,14,15,17)         148.958          estimate D2E/DX2                !
 ! D36   D(5,14,15,18)         -89.2264         estimate D2E/DX2                !
 ! D37   D(14,15,18,19)        -56.3898         estimate D2E/DX2                !
 ! D38   D(14,15,18,20)         60.8443         estimate D2E/DX2                !
 ! D39   D(14,15,18,21)       -178.1254         estimate D2E/DX2                !
 ! D40   D(16,15,18,19)       -175.7543         estimate D2E/DX2                !
 ! D41   D(16,15,18,20)        -58.5202         estimate D2E/DX2                !
 ! D42   D(16,15,18,21)         62.5101         estimate D2E/DX2                !
 ! D43   D(17,15,18,19)         62.8232         estimate D2E/DX2                !
 ! D44   D(17,15,18,20)       -179.9427         estimate D2E/DX2                !
 ! D45   D(17,15,18,21)        -58.9124         estimate D2E/DX2                !
 ! D46   D(15,18,21,22)       -173.1429         estimate D2E/DX2                !
 ! D47   D(15,18,21,23)        -56.4301         estimate D2E/DX2                !
 ! D48   D(15,18,21,24)         67.4884         estimate D2E/DX2                !
 ! D49   D(19,18,21,22)         65.6914         estimate D2E/DX2                !
 ! D50   D(19,18,21,23)       -177.5958         estimate D2E/DX2                !
 ! D51   D(19,18,21,24)        -53.6773         estimate D2E/DX2                !
 ! D52   D(20,18,21,22)        -52.6835         estimate D2E/DX2                !
 ! D53   D(20,18,21,23)         64.0293         estimate D2E/DX2                !
 ! D54   D(20,18,21,24)       -172.0523         estimate D2E/DX2                !
 ! D55   D(18,21,24,25)       -156.8848         estimate D2E/DX2                !
 ! D56   D(18,21,24,26)         24.934          estimate D2E/DX2                !
 ! D57   D(22,21,24,25)         82.1598         estimate D2E/DX2                !
 ! D58   D(22,21,24,26)        -96.0215         estimate D2E/DX2                !
 ! D59   D(23,21,24,25)        -31.85           estimate D2E/DX2                !
 ! D60   D(23,21,24,26)        149.9687         estimate D2E/DX2                !
 --------------------------------------------------------------------------------
 Trust Radius=3.00D-01 FncErr=1.00D-07 GrdErr=1.00D-06 EigMax=2.50D+02 EigMin=1.00D-04
 Number of steps in this run=    141 maximum allowed number of steps=    156.
 GradGradGradGradGradGradGradGradGradGradGradGradGradGradGradGradGradGrad

 Leave Link  103 at Thu Oct 12 08:59:00 2023, MaxMem=  6710886400 cpu:               0.2 elap:               0.0
 (Enter /data0/home/software/g16/l202.exe)
                          Input orientation:                          
 ---------------------------------------------------------------------
 Center     Atomic      Atomic             Coordinates (Angstroms)
 Number     Number       Type             X           Y           Z
 ---------------------------------------------------------------------
      1          6           0       -1.404936    0.666794   -0.231938
      2          6           0       -2.755866    0.837364    0.008277
      3          6           0       -3.539236   -0.314126    0.125607
      4          6           0       -2.962353   -1.569335    0.003963
      5          6           0       -1.607757   -1.671843   -0.236501
      6          1           0       -4.602313   -0.221180    0.312588
      7          1           0       -0.724484    1.500232   -0.333808
      8          1           0       -3.550824   -2.471630    0.092185
      9          1           0       -1.094096   -2.616221   -0.340507
     10          6           0       -3.346873    2.210095    0.132674
     11          1           0       -3.827458    2.329158    1.106354
     12          1           0       -2.586690    2.983274    0.022822
     13          1           0       -4.112384    2.363122   -0.631574
     14          7           0       -0.859094   -0.560934   -0.357450
     15          6           0        0.609478   -0.680337   -0.545949
     16          1           0        0.788561   -1.591715   -1.113805
     17          1           0        0.923797    0.171015   -1.145977
     18          6           0        1.333396   -0.713621    0.795741
     19          1           0        1.070894    0.179022    1.367177
     20          1           0        0.987655   -1.582841    1.361362
     21          6           0        2.845864   -0.789828    0.604733
     22          1           0        3.321935   -0.935245    1.579914
     23          1           0        3.115346   -1.657137   -0.002285
     24          6           0        3.499852    0.456972   -0.007042
     25          8           0        4.613361    0.289100   -0.586530
     26          8           0        2.920927    1.571382    0.127820
 ---------------------------------------------------------------------
                    Distance matrix (angstroms):
                    1          2          3          4          5
     1  C    0.000000
     2  C    1.382682   0.000000
     3  C    2.375980   1.397628   0.000000
     4  C    2.735228   2.415545   1.386774   0.000000
     5  C    2.347420   2.770233   2.388541   1.379587   0.000000
     6  H    3.362771   2.149997   1.083390   2.145283   3.372431
     7  H    1.080746   2.164008   3.380205   3.813711   3.294192
     8  H    3.815704   3.404180   2.157794   1.080841   2.126782
     9  H    3.299484   3.848426   3.390518   2.169104   1.080053
    10  C    2.507158   1.499718   2.531550   3.801120   4.269691
    11  H    3.228481   2.139984   2.834058   4.142695   4.768474
    12  H    2.612953   2.152617   3.433767   4.568121   4.763998
    13  H    3.219862   2.139506   2.840683   4.146166   4.765520
    14  N    1.349449   2.384688   2.734487   2.360337   1.345081
    15  C    2.443610   3.733112   4.218640   3.721653   2.448463
    16  H    3.269554   4.440997   4.679552   3.913983   2.553120
    17  H    2.550345   3.913597   4.665935   4.410594   3.260681
    18  C    3.234213   4.443840   4.934695   4.451137   3.260996
    19  H    2.987444   4.113893   4.799791   4.602411   3.629415
    20  H    3.650199   4.658560   4.861015   4.176754   3.049139
    21  C    4.570675   5.863693   6.420697   5.891005   4.617398
    22  H    5.309675   6.523178   7.041056   6.509836   5.305073
    23  H    5.087863   6.379167   6.789956   6.078336   4.728930
    24  C    4.914423   6.267291   7.082439   6.772454   5.538247
    25  O    6.040554   7.413494   8.205843   7.822653   6.532238
    26  O    4.434050   5.725299   6.729699   6.670264   5.582134
                    6          7          8          9         10
     6  H    0.000000
     7  H    4.291695   0.000000
     8  H    2.493739   4.893399   0.000000
     9  H    4.297713   4.133019   2.498728   0.000000
    10  C    2.742188   2.756526   4.686340   5.347170   0.000000
    11  H    2.781131   3.519891   4.914533   5.832791   1.092333
    12  H    3.796739   2.407158   5.539887   5.806392   1.089840
    13  H    2.794654   3.508719   4.920773   5.829978   1.092474
    14  N    3.817862   2.065692   3.331417   2.068748   3.756044
    15  C    5.301950   2.565022   4.574282   2.586893   4.946498
    16  H    5.742341   3.529566   4.589000   2.278596   5.754067
    17  H    5.728797   2.267877   5.342177   3.534029   4.902185
    18  C    5.975665   3.226747   5.238434   3.286893   5.558119
    19  H    5.784254   2.803984   5.478306   3.926417   5.016565
    20  H    5.848230   3.912846   4.795680   2.880611   5.889327
    21  C    7.475564   4.344263   6.633911   4.444376   6.897273
    22  H    8.056656   5.095821   7.197821   5.100493   7.514031
    23  H    7.856423   4.982287   6.716409   4.330547   7.532196
    24  C    8.136776   4.363506   7.635351   5.537154   7.068989
    25  O    9.273481   5.479352   8.645010   6.409094   8.220268
    26  O    7.736056   3.675212   7.630909   5.820289   6.300261
                   11         12         13         14         15
    11  H    0.000000
    12  H    1.772404   0.000000
    13  H    1.761457   1.772164   0.000000
    14  N    4.393921   3.961137   4.382824   0.000000
    15  C    5.610131   4.895001   5.618359   1.485427   0.000000
    16  H    6.450580   5.797824   6.316054   2.085509   1.088642
    17  H    5.683749   4.647409   5.516617   2.082360   1.087948
    18  C    5.999116   5.443483   6.415613   2.481970   1.524893
    19  H    5.355835   4.800942   5.969227   2.691975   2.147430
    20  H    6.209193   5.951222   6.749283   2.721964   2.143681
    21  C    7.383287   6.639847   7.738654   3.834697   2.517435
    22  H    7.873653   7.258869   8.428464   4.623256   3.455676
    23  H    8.082212   7.351684   8.294490   4.138113   2.743917
    24  C    7.644227   6.590075   7.872076   4.489914   3.152484
    25  O    8.847323   7.711720   8.968959   5.542815   4.119774
    26  O    6.860937   5.686678   7.118356   4.367015   3.296513
                   16         17         18         19         20
    16  H    0.000000
    17  H    1.768203   0.000000
    18  C    2.171235   2.172699   0.000000
    19  H    3.061126   2.517468   1.091906   0.000000
    20  H    2.483177   3.060529   1.093164   1.763838   0.000000
    21  C    2.798016   2.771741   1.526385   2.161136   2.157382
    22  H    3.755670   3.795439   2.149030   2.520721   2.432285
    23  H    2.579474   3.074583   2.168505   3.070292   2.528265
    24  C    3.573953   2.831078   2.590035   2.804563   3.513474
    25  O    4.294715   3.733605   3.697877   4.046994   4.521525
    26  O    4.011708   2.751748   2.861400   2.626270   3.899781
                   21         22         23         24         25
    21  C    0.000000
    22  H    1.094882   0.000000
    23  H    1.092390   1.751331   0.000000
    24  C    1.535083   2.118573   2.148796   0.000000
    25  O    2.388983   2.803619   2.524526   1.266448   0.000000
    26  O    2.410061   2.924477   3.236983   1.263033   2.240285
                   26
    26  O    0.000000
 Stoichiometry    C10H13NO2
 Framework group  C1[X(C10H13NO2)]
 Deg. of freedom    72
 Full point group                 C1      NOp   1
 Largest Abelian subgroup         C1      NOp   1
 Largest concise Abelian subgroup C1      NOp   1
                         Standard orientation:                         
 ---------------------------------------------------------------------
 Center     Atomic      Atomic             Coordinates (Angstroms)
 Number     Number       Type             X           Y           Z
 ---------------------------------------------------------------------
      1          6           0       -1.404936    0.666794   -0.231938
      2          6           0       -2.755866    0.837364    0.008277
      3          6           0       -3.539236   -0.314126    0.125607
      4          6           0       -2.962353   -1.569335    0.003963
      5          6           0       -1.607757   -1.671843   -0.236501
      6          1           0       -4.602313   -0.221180    0.312588
      7          1           0       -0.724484    1.500232   -0.333808
      8          1           0       -3.550824   -2.471630    0.092185
      9          1           0       -1.094096   -2.616221   -0.340507
     10          6           0       -3.346873    2.210095    0.132674
     11          1           0       -3.827458    2.329158    1.106354
     12          1           0       -2.586690    2.983274    0.022822
     13          1           0       -4.112384    2.363122   -0.631574
     14          7           0       -0.859094   -0.560934   -0.357450
     15          6           0        0.609478   -0.680337   -0.545949
     16          1           0        0.788561   -1.591715   -1.113805
     17          1           0        0.923797    0.171015   -1.145977
     18          6           0        1.333396   -0.713621    0.795741
     19          1           0        1.070894    0.179022    1.367177
     20          1           0        0.987655   -1.582841    1.361362
     21          6           0        2.845864   -0.789828    0.604733
     22          1           0        3.321935   -0.935245    1.579914
     23          1           0        3.115346   -1.657137   -0.002285
     24          6           0        3.499852    0.456972   -0.007042
     25          8           0        4.613361    0.289100   -0.586530
     26          8           0        2.920927    1.571382    0.127820
 ---------------------------------------------------------------------
 Rotational constants (GHZ):           1.7869924           0.3540216           0.3083226
 Leave Link  202 at Thu Oct 12 08:59:00 2023, MaxMem=  6710886400 cpu:               0.1 elap:               0.0
 (Enter /data0/home/software/g16/l301.exe)
 Standard basis: 6-311+G(2d,p) (5D, 7F)
 Ernie: Thresh=  0.10000D-02 Tol=  0.10000D-05 Strict=F.
 There are   455 symmetry adapted cartesian basis functions of A   symmetry.
 There are   429 symmetry adapted basis functions of A   symmetry.
   429 basis functions,   650 primitive gaussians,   455 cartesian basis functions
    48 alpha electrons       48 beta electrons
       nuclear repulsion energy       755.0753770522 Hartrees.
 IExCor=  402 DFT=T Ex+Corr=B3LYP ExCW=0 ScaHFX=  0.200000
 ScaDFX=  0.800000  0.720000  1.000000  0.810000 ScalE2=  1.000000  1.000000
 IRadAn=      5 IRanWt=     -1 IRanGd=            0 ICorTp=0 IEmpDi=141
 NAtoms=   26 NActive=   26 NUniq=   26 SFac= 1.00D+00 NAtFMM=   60 NAOKFM=F Big=F
 Integral buffers will be    131072 words long.
 Raffenetti 2 integral format.
 Two-electron integral symmetry is turned on.
 R6Disp:  Grimme-D3(BJ) Dispersion energy=       -0.0461702350 Hartrees.
 Nuclear repulsion after empirical dispersion term =      755.0292068172 Hartrees.
 ------------------------------------------------------------------------------
 Polarizable Continuum Model (PCM)
 =================================
 Model                : PCM.
 Atomic radii         : SMD-Coulomb.
 Polarization charges : Total charges.
 Charge compensation  : None.
 Solution method      : On-the-fly selection.
 Cavity type          : VdW (van der Waals Surface) (Alpha=1.000).
 Cavity algorithm     : GePol (No added spheres)
                        Default sphere list used, NSphG=   26.
                        Lebedev-Laikov grids with approx.  5.0 points / Ang**2.
                        Smoothing algorithm: York/Karplus (Gamma=1.0000).
                        Polarization charges: spherical gaussians, with
                                              point-specific exponents (IZeta= 3).
                        Self-potential: point-specific (ISelfS= 7).
                        Self-field    : sphere-specific E.n sum rule (ISelfD= 2).
 1st derivatives      : Analytical E(r).r(x)/FMM algorithm (CHGder, D1EAlg=3).
                        Cavity 1st derivative terms included.
 Solvent              : Water, Eps=  78.355300 Eps(inf)=   1.777849
 ------------------------------------------------------------------------------
 GePol: Number of generator spheres                  =      26
 GePol: Total number of spheres                      =      26
 GePol: Number of exposed spheres                    =      26 (100.00%)
 GePol: Number of points                             =    1949
 GePol: Average weight of points                     =       0.11
 GePol: Minimum weight of points                     =   0.22D-10
 GePol: Maximum weight of points                     =    0.21991
 GePol: Number of points with low weight             =     114
 GePol: Fraction of low-weight points (<1% of avg)   =       5.85%
 GePol: Cavity surface area                          =    220.006 Ang**2
 GePol: Cavity volume                                =    188.072 Ang**3
 ------------------------------------------------------------------------------
 Atomic radii for non-electrostatic terms: SMD-CDS.
 ------------------------------------------------------------------------------
 PCM non-electrostatic energy =         0.0101145439 Hartrees.
 Nuclear repulsion after PCM non-electrostatic terms =      755.0393213611 Hartrees.
 Leave Link  301 at Thu Oct 12 08:59:00 2023, MaxMem=  6710886400 cpu:               1.7 elap:               0.1
 (Enter /data0/home/software/g16/l302.exe)
 NPDir=0 NMtPBC=     1 NCelOv=     1 NCel=       1 NClECP=     1 NCelD=      1
         NCelK=      1 NCelE2=     1 NClLst=     1 CellRange=     0.0.
 One-electron integrals computed using PRISM.
 One-electron integral symmetry used in STVInt
 NBasis=   429 RedAO= T EigKep=  2.49D-06  NBF=   429
 NBsUse=   429 1.00D-06 EigRej= -1.00D+00 NBFU=   429
 Precomputing XC quadrature grid using
 IXCGrd= 4 IRadAn=           5 IRanWt=          -1 IRanGd=           0 AccXCQ= 0.00D+00.
 Generated NRdTot=       0 NPtTot=           0 NUsed=           0 NTot=          32
 NSgBfM=   455   455   455   455   455 MxSgAt=    26 MxSgA2=    26.
 Leave Link  302 at Thu Oct 12 08:59:00 2023, MaxMem=  6710886400 cpu:               8.9 elap:               0.4
 (Enter /data0/home/software/g16/l303.exe)
 DipDrv:  MaxL=1.
 Leave Link  303 at Thu Oct 12 08:59:00 2023, MaxMem=  6710886400 cpu:               1.0 elap:               0.1
 (Enter /data0/home/software/g16/l401.exe)
 ExpMin= 4.38D-02 ExpMax= 8.59D+03 ExpMxC= 1.30D+03 IAcc=3 IRadAn=         5 AccDes= 0.00D+00
 Harris functional with IExCor=  402 and IRadAn=       5 diagonalized for initial guess.
 HarFok:  IExCor=  402 AccDes= 0.00D+00 IRadAn=         5 IDoV= 1 UseB2=F ITyADJ=14
 ICtDFT=  3500011 ScaDFX=  1.000000  1.000000  1.000000  1.000000
 FoFCou: FMM=F IPFlag=           0 FMFlag=      100000 FMFlg1=           0
         NFxFlg=           0 DoJE=T BraDBF=F KetDBF=T FulRan=T
         wScrn=  0.000000 ICntrl=       500 IOpCl=  0 I1Cent=   200000004 NGrid=           0
         NMat0=    1 NMatS0=      1 NMatT0=    0 NMatD0=    1 NMtDS0=    0 NMtDT0=    0
 Petite list used in FoFCou.
 Harris En= -594.393244078934    
 JPrj=0 DoOrth=F DoCkMO=F.
 Leave Link  401 at Thu Oct 12 08:59:02 2023, MaxMem=  6710886400 cpu:              32.2 elap:               1.4
 (Enter /data0/home/software/g16/l502.exe)
 Integral symmetry usage will be decided dynamically.
 Closed shell SCF:
 Using DIIS extrapolation, IDIIS=  1040.
 NGot=  6710886400 LenX=  6710457150 LenY=  6710249670
 Requested convergence on RMS density matrix=1.00D-08 within 128 cycles.
 Requested convergence on MAX density matrix=1.00D-06.
 Requested convergence on             energy=1.00D-06.
 No special actions if energy rises.
 Fock matrices will be formed incrementally for  20 cycles.

 Cycle   1  Pass 1  IDiag  1:
 FoFJK:  IHMeth= 1 ICntrl=       0 DoSepK=F KAlg= 0 I1Cent=           0 FoldK=F
 IRaf= 870000000 NMat=       1 IRICut=       1 DoRegI=T DoRafI=F ISym2E= 0 IDoP0=0 IntGTp=1.
 FoFCou: FMM=F IPFlag=           0 FMFlag=      100000 FMFlg1=           0
         NFxFlg=           0 DoJE=F BraDBF=F KetDBF=F FulRan=T
         wScrn=  0.000000 ICntrl=         0 IOpCl=  0 I1Cent=           0 NGrid=           0
         NMat0=    1 NMatS0=      1 NMatT0=    0 NMatD0=    1 NMtDS0=    0 NMtDT0=    0
 Symmetry not used in FoFCou.
 Inv3:  Mode=1 IEnd=    11395803.
 Iteration    1 A*A^-1 deviation from unit magnitude is 3.33D-15 for   1772.
 Iteration    1 A*A^-1 deviation from orthogonality  is 2.38D-15 for   1355    454.
 Iteration    1 A^-1*A deviation from unit magnitude is 3.11D-15 for   1772.
 Iteration    1 A^-1*A deviation from orthogonality  is 2.83D-15 for   1648   1626.
 E= -593.964769364821    
 DIIS: error= 2.30D-02 at cycle   1 NSaved=   1.
 NSaved= 1 IEnMin= 1 EnMin= -593.964769364821     IErMin= 1 ErrMin= 2.30D-02
 ErrMax= 2.30D-02  0.00D+00 EMaxC= 1.00D-01 BMatC= 4.88D-01 BMatP= 4.88D-01
 IDIUse=3 WtCom= 7.70D-01 WtEn= 2.30D-01
 Coeff-Com:  0.100D+01
 Coeff-En:   0.100D+01
 Coeff:      0.100D+01
 Gap=     0.193 Goal=   None    Shift=    0.000
 GapD=    0.193 DampG=1.000 DampE=0.500 DampFc=0.5000 IDamp=-1.
 Damping current iteration by 5.00D-01
 RMSDP=9.99D-03 MaxDP=1.52D+00              OVMax= 2.74D-01

 Cycle   2  Pass 1  IDiag  1:
 RMSU=  4.99D-03    CP:  9.91D-01
 E= -594.094935022987     Delta-E=       -0.130165658166 Rises=F Damp=T
 DIIS: error= 7.54D-03 at cycle   2 NSaved=   2.
 NSaved= 2 IEnMin= 2 EnMin= -594.094935022987     IErMin= 2 ErrMin= 7.54D-03
 ErrMax= 7.54D-03  0.00D+00 EMaxC= 1.00D-01 BMatC= 5.05D-02 BMatP= 4.88D-01
 IDIUse=3 WtCom= 9.25D-01 WtEn= 7.54D-02
 Coeff-Com:  0.165D+00 0.835D+00
 Coeff-En:   0.288D+00 0.712D+00
 Coeff:      0.174D+00 0.826D+00
 Gap=     0.192 Goal=   None    Shift=    0.000
 RMSDP=4.80D-03 MaxDP=9.08D-01 DE=-1.30D-01 OVMax= 1.79D-01

 Cycle   3  Pass 1  IDiag  1:
 RMSU=  2.38D-03    CP:  8.81D-01  2.05D-01
 E= -594.337235407400     Delta-E=       -0.242300384412 Rises=F Damp=F
 DIIS: error= 5.16D-03 at cycle   3 NSaved=   3.
 NSaved= 3 IEnMin= 3 EnMin= -594.337235407400     IErMin= 3 ErrMin= 5.16D-03
 ErrMax= 5.16D-03  0.00D+00 EMaxC= 1.00D-01 BMatC= 2.67D-02 BMatP= 5.05D-02
 IDIUse=3 WtCom= 9.48D-01 WtEn= 5.16D-02
 Coeff-Com:  0.145D-01 0.415D+00 0.570D+00
 Coeff-En:   0.000D+00 0.000D+00 0.100D+01
 Coeff:      0.137D-01 0.394D+00 0.592D+00
 Gap=     0.177 Goal=   None    Shift=    0.000
 RMSDP=5.15D-04 MaxDP=3.56D-02 DE=-2.42D-01 OVMax= 4.26D-02

 Cycle   4  Pass 1  IDiag  1:
 RMSU=  5.03D-04    CP:  8.80D-01  2.22D-01  9.74D-01
 E= -594.355602485592     Delta-E=       -0.018367078193 Rises=F Damp=F
 DIIS: error= 1.66D-03 at cycle   4 NSaved=   4.
 NSaved= 4 IEnMin= 4 EnMin= -594.355602485592     IErMin= 4 ErrMin= 1.66D-03
 ErrMax= 1.66D-03  0.00D+00 EMaxC= 1.00D-01 BMatC= 3.38D-03 BMatP= 2.67D-02
 IDIUse=3 WtCom= 9.83D-01 WtEn= 1.66D-02
 Coeff-Com: -0.154D-01 0.930D-01 0.304D+00 0.618D+00
 Coeff-En:   0.000D+00 0.000D+00 0.102D+00 0.898D+00
 Coeff:     -0.151D-01 0.914D-01 0.301D+00 0.623D+00
 Gap=     0.166 Goal=   None    Shift=    0.000
 RMSDP=2.65D-04 MaxDP=2.25D-02 DE=-1.84D-02 OVMax= 1.80D-02

 Cycle   5  Pass 1  IDiag  1:
 RMSU=  2.00D-04    CP:  8.68D-01  2.17D-01  9.94D-01  8.23D-01
 E= -594.358642893129     Delta-E=       -0.003040407537 Rises=F Damp=F
 DIIS: error= 3.91D-04 at cycle   5 NSaved=   5.
 NSaved= 5 IEnMin= 5 EnMin= -594.358642893129     IErMin= 5 ErrMin= 3.91D-04
 ErrMax= 3.91D-04  0.00D+00 EMaxC= 1.00D-01 BMatC= 1.68D-04 BMatP= 3.38D-03
 IDIUse=3 WtCom= 9.96D-01 WtEn= 3.91D-03
 Coeff-Com: -0.806D-02 0.278D-01 0.116D+00 0.297D+00 0.568D+00
 Coeff-En:   0.000D+00 0.000D+00 0.000D+00 0.000D+00 0.100D+01
 Coeff:     -0.802D-02 0.277D-01 0.115D+00 0.295D+00 0.569D+00
 Gap=     0.169 Goal=   None    Shift=    0.000
 RMSDP=5.59D-05 MaxDP=3.16D-03 DE=-3.04D-03 OVMax= 6.32D-03

 Cycle   6  Pass 1  IDiag  1:
 RMSU=  5.18D-05    CP:  8.67D-01  2.14D-01  9.96D-01  8.44D-01  9.79D-01
 E= -594.358779166446     Delta-E=       -0.000136273317 Rises=F Damp=F
 DIIS: error= 1.66D-04 at cycle   6 NSaved=   6.
 NSaved= 6 IEnMin= 6 EnMin= -594.358779166446     IErMin= 6 ErrMin= 1.66D-04
 ErrMax= 1.66D-04  0.00D+00 EMaxC= 1.00D-01 BMatC= 2.65D-05 BMatP= 1.68D-04
 IDIUse=3 WtCom= 9.98D-01 WtEn= 1.66D-03
 Coeff-Com: -0.310D-02 0.508D-02 0.337D-01 0.105D+00 0.327D+00 0.532D+00
 Coeff-En:   0.000D+00 0.000D+00 0.000D+00 0.000D+00 0.713D-01 0.929D+00
 Coeff:     -0.310D-02 0.507D-02 0.336D-01 0.105D+00 0.327D+00 0.533D+00
 Gap=     0.169 Goal=   None    Shift=    0.000
 RMSDP=1.56D-05 MaxDP=1.13D-03 DE=-1.36D-04 OVMax= 1.85D-03

 Cycle   7  Pass 1  IDiag  1:
 RMSU=  1.38D-05    CP:  8.66D-01  2.14D-01  9.98D-01  8.51D-01  9.87D-01
                    CP:  9.52D-01
 E= -594.358798871586     Delta-E=       -0.000019705139 Rises=F Damp=F
 DIIS: error= 5.97D-05 at cycle   7 NSaved=   7.
 NSaved= 7 IEnMin= 7 EnMin= -594.358798871586     IErMin= 7 ErrMin= 5.97D-05
 ErrMax= 5.97D-05  0.00D+00 EMaxC= 1.00D-01 BMatC= 2.27D-06 BMatP= 2.65D-05
 IDIUse=1 WtCom= 1.00D+00 WtEn= 0.00D+00
 Coeff-Com: -0.809D-03 0.698D-03 0.873D-02 0.310D-01 0.129D+00 0.298D+00
 Coeff-Com:  0.534D+00
 Coeff:     -0.809D-03 0.698D-03 0.873D-02 0.310D-01 0.129D+00 0.298D+00
 Coeff:      0.534D+00
 Gap=     0.169 Goal=   None    Shift=    0.000
 RMSDP=5.83D-06 MaxDP=4.22D-04 DE=-1.97D-05 OVMax= 3.89D-04

 Cycle   8  Pass 1  IDiag  1:
 RMSU=  5.46D-06    CP:  8.66D-01  2.14D-01  9.98D-01  8.53D-01  9.94D-01
                    CP:  9.52D-01  9.81D-01
 E= -594.358800857641     Delta-E=       -0.000001986056 Rises=F Damp=F
 DIIS: error= 1.18D-05 at cycle   8 NSaved=   8.
 NSaved= 8 IEnMin= 8 EnMin= -594.358800857641     IErMin= 8 ErrMin= 1.18D-05
 ErrMax= 1.18D-05  0.00D+00 EMaxC= 1.00D-01 BMatC= 8.09D-08 BMatP= 2.27D-06
 IDIUse=1 WtCom= 1.00D+00 WtEn= 0.00D+00
 Coeff-Com:  0.348D-04-0.347D-03 0.191D-03 0.175D-02 0.170D-01 0.588D-01
 Coeff-Com:  0.200D+00 0.722D+00
 Coeff:      0.348D-04-0.347D-03 0.191D-03 0.175D-02 0.170D-01 0.588D-01
 Coeff:      0.200D+00 0.722D+00
 Gap=     0.169 Goal=   None    Shift=    0.000
 RMSDP=2.36D-06 MaxDP=2.29D-04 DE=-1.99D-06 OVMax= 9.69D-05

 Cycle   9  Pass 1  IDiag  1:
 RMSU=  1.02D-06    CP:  8.66D-01  2.13D-01  9.98D-01  8.54D-01  9.99D-01
                    CP:  9.72D-01  1.04D+00  1.01D+00
 E= -594.358800922492     Delta-E=       -0.000000064851 Rises=F Damp=F
 DIIS: error= 3.80D-06 at cycle   9 NSaved=   9.
 NSaved= 9 IEnMin= 9 EnMin= -594.358800922492     IErMin= 9 ErrMin= 3.80D-06
 ErrMax= 3.80D-06  0.00D+00 EMaxC= 1.00D-01 BMatC= 1.34D-08 BMatP= 8.09D-08
 IDIUse=1 WtCom= 1.00D+00 WtEn= 0.00D+00
 Coeff-Com:  0.562D-04-0.218D-03-0.235D-03-0.347D-03 0.380D-02 0.188D-01
 Coeff-Com:  0.865D-01 0.395D+00 0.497D+00
 Coeff:      0.562D-04-0.218D-03-0.235D-03-0.347D-03 0.380D-02 0.188D-01
 Coeff:      0.865D-01 0.395D+00 0.497D+00
 Gap=     0.169 Goal=   None    Shift=    0.000
 RMSDP=4.84D-07 MaxDP=2.74D-05 DE=-6.49D-08 OVMax= 4.12D-05

 Cycle  10  Pass 1  IDiag  1:
 RMSU=  3.75D-07    CP:  8.66D-01  2.13D-01  9.98D-01  8.54D-01  1.00D+00
                    CP:  9.76D-01  1.04D+00  1.03D+00  9.17D-01
 E= -594.358800932231     Delta-E=       -0.000000009739 Rises=F Damp=F
 DIIS: error= 1.86D-06 at cycle  10 NSaved=  10.
 NSaved=10 IEnMin=10 EnMin= -594.358800932231     IErMin=10 ErrMin= 1.86D-06
 ErrMax= 1.86D-06  0.00D+00 EMaxC= 1.00D-01 BMatC= 1.97D-09 BMatP= 1.34D-08
 IDIUse=1 WtCom= 1.00D+00 WtEn= 0.00D+00
 Coeff-Com:  0.297D-04-0.794D-04-0.162D-03-0.474D-03-0.134D-03 0.268D-02
 Coeff-Com:  0.239D-01 0.130D+00 0.299D+00 0.545D+00
 Coeff:      0.297D-04-0.794D-04-0.162D-03-0.474D-03-0.134D-03 0.268D-02
 Coeff:      0.239D-01 0.130D+00 0.299D+00 0.545D+00
 Gap=     0.169 Goal=   None    Shift=    0.000
 RMSDP=2.04D-07 MaxDP=1.52D-05 DE=-9.74D-09 OVMax= 1.79D-05

 Cycle  11  Pass 1  IDiag  1:
 RMSU=  1.23D-07    CP:  8.66D-01  2.13D-01  9.98D-01  8.54D-01  1.00D+00
                    CP:  9.77D-01  1.05D+00  1.04D+00  9.59D-01  8.58D-01
 E= -594.358800933444     Delta-E=       -0.000000001213 Rises=F Damp=F
 DIIS: error= 5.70D-07 at cycle  11 NSaved=  11.
 NSaved=11 IEnMin=11 EnMin= -594.358800933444     IErMin=11 ErrMin= 5.70D-07
 ErrMax= 5.70D-07  0.00D+00 EMaxC= 1.00D-01 BMatC= 2.77D-10 BMatP= 1.97D-09
 IDIUse=1 WtCom= 1.00D+00 WtEn= 0.00D+00
 Coeff-Com:  0.105D-04-0.244D-04-0.712D-04-0.243D-03-0.456D-03-0.502D-03
 Coeff-Com:  0.454D-02 0.307D-01 0.124D+00 0.337D+00 0.505D+00
 Coeff:      0.105D-04-0.244D-04-0.712D-04-0.243D-03-0.456D-03-0.502D-03
 Coeff:      0.454D-02 0.307D-01 0.124D+00 0.337D+00 0.505D+00
 Gap=     0.169 Goal=   None    Shift=    0.000
 RMSDP=5.71D-08 MaxDP=4.41D-06 DE=-1.21D-09 OVMax= 4.48D-06

 Cycle  12  Pass 1  IDiag  1:
 RMSU=  3.97D-08    CP:  8.66D-01  2.13D-01  9.98D-01  8.54D-01  1.00D+00
                    CP:  9.77D-01  1.05D+00  1.04D+00  9.63D-01  8.90D-01
                    CP:  8.61D-01
 E= -594.358800933629     Delta-E=       -0.000000000185 Rises=F Damp=F
 DIIS: error= 1.03D-07 at cycle  12 NSaved=  12.
 NSaved=12 IEnMin=12 EnMin= -594.358800933629     IErMin=12 ErrMin= 1.03D-07
 ErrMax= 1.03D-07  0.00D+00 EMaxC= 1.00D-01 BMatC= 7.07D-12 BMatP= 2.77D-10
 IDIUse=1 WtCom= 1.00D+00 WtEn= 0.00D+00
 Coeff-Com: -0.169D-06 0.525D-06-0.818D-05-0.347D-04-0.132D-03-0.477D-03
 Coeff-Com: -0.100D-02-0.418D-02 0.127D-01 0.600D-01 0.171D+00 0.762D+00
 Coeff:     -0.169D-06 0.525D-06-0.818D-05-0.347D-04-0.132D-03-0.477D-03
 Coeff:     -0.100D-02-0.418D-02 0.127D-01 0.600D-01 0.171D+00 0.762D+00
 Gap=     0.169 Goal=   None    Shift=    0.000
 RMSDP=2.41D-08 MaxDP=2.38D-06 DE=-1.85D-10 OVMax= 1.59D-06

 Cycle  13  Pass 1  IDiag  1:
 RMSU=  1.21D-08    CP:  8.66D-01  2.13D-01  9.98D-01  8.54D-01  1.00D+00
                    CP:  9.78D-01  1.05D+00  1.04D+00  9.72D-01  9.01D-01
                    CP:  9.01D-01  1.09D+00
 E= -594.358800933646     Delta-E=       -0.000000000017 Rises=F Damp=F
 DIIS: error= 3.84D-08 at cycle  13 NSaved=  13.
 NSaved=13 IEnMin=13 EnMin= -594.358800933646     IErMin=13 ErrMin= 3.84D-08
 ErrMax= 3.84D-08  0.00D+00 EMaxC= 1.00D-01 BMatC= 1.31D-12 BMatP= 7.07D-12
 IDIUse=1 WtCom= 1.00D+00 WtEn= 0.00D+00
 Coeff-Com: -0.510D-06 0.148D-05-0.163D-05-0.946D-05-0.525D-04-0.229D-03
 Coeff-Com: -0.680D-03-0.331D-02 0.190D-02 0.161D-01 0.620D-01 0.402D+00
 Coeff-Com:  0.522D+00
 Coeff:     -0.510D-06 0.148D-05-0.163D-05-0.946D-05-0.525D-04-0.229D-03
 Coeff:     -0.680D-03-0.331D-02 0.190D-02 0.161D-01 0.620D-01 0.402D+00
 Coeff:      0.522D+00
 Gap=     0.169 Goal=   None    Shift=    0.000
 RMSDP=4.17D-09 MaxDP=1.86D-07 DE=-1.71D-11 OVMax= 4.72D-07

 Error on total polarization charges =  0.07014
 SCF Done:  E(RB3LYP) =  -594.358800934     A.U. after   13 cycles
            NFock= 13  Conv=0.42D-08     -V/T= 2.0044
 KE= 5.917837808387D+02 PE=-2.894224839820D+03 EE= 9.530429366861D+02
 SMD-CDS (non-electrostatic) energy       (kcal/mol) =       6.35
 (included in total energy above)
 Leave Link  502 at Thu Oct 12 08:59:50 2023, MaxMem=  6710886400 cpu:            1138.9 elap:              48.4
 (Enter /data0/home/software/g16/l601.exe)
 Copying SCF densities to generalized density rwf, IOpCl= 0 IROHF=0.

 **********************************************************************

            Population analysis using the SCF density.

 **********************************************************************

 Orbital symmetries:
       Occupied  (A) (A) (A) (A) (A) (A) (A) (A) (A) (A) (A) (A)
                 (A) (A) (A) (A) (A) (A) (A) (A) (A) (A) (A) (A)
                 (A) (A) (A) (A) (A) (A) (A) (A) (A) (A) (A) (A)
                 (A) (A) (A) (A) (A) (A) (A) (A) (A) (A) (A) (A)
       Virtual   (A) (A) (A) (A) (A) (A) (A) (A) (A) (A) (A) (A)
                 (A) (A) (A) (A) (A) (A) (A) (A) (A) (A) (A) (A)
                 (A) (A) (A) (A) (A) (A) (A) (A) (A) (A) (A) (A)
                 (A) (A) (A) (A) (A) (A) (A) (A) (A) (A) (A) (A)
                 (A) (A) (A) (A) (A) (A) (A) (A) (A) (A) (A) (A)
                 (A) (A) (A) (A) (A) (A) (A) (A) (A) (A) (A) (A)
                 (A) (A) (A) (A) (A) (A) (A) (A) (A) (A) (A) (A)
                 (A) (A) (A) (A) (A) (A) (A) (A) (A) (A) (A) (A)
                 (A) (A) (A) (A) (A) (A) (A) (A) (A) (A) (A) (A)
                 (A) (A) (A) (A) (A) (A) (A) (A) (A) (A) (A) (A)
                 (A) (A) (A) (A) (A) (A) (A) (A) (A) (A) (A) (A)
                 (A) (A) (A) (A) (A) (A) (A) (A) (A) (A) (A) (A)
                 (A) (A) (A) (A) (A) (A) (A) (A) (A) (A) (A) (A)
                 (A) (A) (A) (A) (A) (A) (A) (A) (A) (A) (A) (A)
                 (A) (A) (A) (A) (A) (A) (A) (A) (A) (A) (A) (A)
                 (A) (A) (A) (A) (A) (A) (A) (A) (A) (A) (A) (A)
                 (A) (A) (A) (A) (A) (A) (A) (A) (A) (A) (A) (A)
                 (A) (A) (A) (A) (A) (A) (A) (A) (A) (A) (A) (A)
                 (A) (A) (A) (A) (A) (A) (A) (A) (A) (A) (A) (A)
                 (A) (A) (A) (A) (A) (A) (A) (A) (A) (A) (A) (A)
                 (A) (A) (A) (A) (A) (A) (A) (A) (A) (A) (A) (A)
                 (A) (A) (A) (A) (A) (A) (A) (A) (A) (A) (A) (A)
                 (A) (A) (A) (A) (A) (A) (A) (A) (A) (A) (A) (A)
                 (A) (A) (A) (A) (A) (A) (A) (A) (A) (A) (A) (A)
                 (A) (A) (A) (A) (A) (A) (A) (A) (A) (A) (A) (A)
                 (A) (A) (A) (A) (A) (A) (A) (A) (A) (A) (A) (A)
                 (A) (A) (A) (A) (A) (A) (A) (A) (A) (A) (A) (A)
                 (A) (A) (A) (A) (A) (A) (A) (A) (A) (A) (A) (A)
                 (A) (A) (A) (A) (A) (A) (A) (A) (A) (A) (A) (A)
                 (A) (A) (A) (A) (A) (A) (A) (A) (A) (A) (A) (A)
                 (A) (A) (A) (A) (A) (A) (A) (A) (A) (A) (A) (A)
                 (A) (A) (A) (A) (A) (A) (A) (A) (A)
 The electronic state is 1-A.
 Alpha  occ. eigenvalues --  -19.07420 -19.07272 -14.42596 -10.26397 -10.24635
 Alpha  occ. eigenvalues --  -10.24385 -10.21843 -10.21586 -10.21148 -10.20506
 Alpha  occ. eigenvalues --  -10.17094 -10.17050 -10.16323  -1.03542  -1.03435
 Alpha  occ. eigenvalues --   -0.94472  -0.86345  -0.81749  -0.79611  -0.73240
 Alpha  occ. eigenvalues --   -0.72071  -0.66454  -0.64601  -0.61574  -0.55289
 Alpha  occ. eigenvalues --   -0.53719  -0.51077  -0.50047  -0.47732  -0.47518
 Alpha  occ. eigenvalues --   -0.46644  -0.45067  -0.43766  -0.42766  -0.42482
 Alpha  occ. eigenvalues --   -0.41906  -0.40713  -0.38819  -0.38640  -0.38031
 Alpha  occ. eigenvalues --   -0.36924  -0.35318  -0.34409  -0.31265  -0.28813
 Alpha  occ. eigenvalues --   -0.27001  -0.25688  -0.24872
 Alpha virt. eigenvalues --   -0.08014  -0.04201   0.00691   0.01567   0.02255
 Alpha virt. eigenvalues --    0.02313   0.03596   0.03774   0.03861   0.04766
 Alpha virt. eigenvalues --    0.05470   0.05727   0.06537   0.06776   0.07114
 Alpha virt. eigenvalues --    0.07959   0.08223   0.08519   0.08966   0.09699
 Alpha virt. eigenvalues --    0.09730   0.10593   0.11114   0.11583   0.12161
 Alpha virt. eigenvalues --    0.12444   0.13289   0.13620   0.14130   0.14498
 Alpha virt. eigenvalues --    0.15181   0.15851   0.16526   0.16752   0.17249
 Alpha virt. eigenvalues --    0.17777   0.18228   0.18327   0.18911   0.19428
 Alpha virt. eigenvalues --    0.19976   0.20702   0.21123   0.21385   0.21886
 Alpha virt. eigenvalues --    0.22828   0.22927   0.23081   0.23379   0.23654
 Alpha virt. eigenvalues --    0.24014   0.24430   0.24737   0.24983   0.25509
 Alpha virt. eigenvalues --    0.26147   0.26622   0.27274   0.27541   0.27630
 Alpha virt. eigenvalues --    0.28495   0.28999   0.29307   0.29432   0.30194
 Alpha virt. eigenvalues --    0.30826   0.31218   0.31488   0.31989   0.32447
 Alpha virt. eigenvalues --    0.33343   0.33350   0.33992   0.35007   0.35642
 Alpha virt. eigenvalues --    0.36398   0.37470   0.39916   0.40172   0.42653
 Alpha virt. eigenvalues --    0.43729   0.45034   0.46335   0.47079   0.47774
 Alpha virt. eigenvalues --    0.48059   0.49289   0.50213   0.51229   0.51679
 Alpha virt. eigenvalues --    0.51994   0.53132   0.54581   0.54723   0.55654
 Alpha virt. eigenvalues --    0.56655   0.57356   0.58557   0.59730   0.60657
 Alpha virt. eigenvalues --    0.61482   0.61882   0.62214   0.62932   0.63575
 Alpha virt. eigenvalues --    0.64170   0.64926   0.65687   0.66316   0.66592
 Alpha virt. eigenvalues --    0.67064   0.67646   0.68608   0.69713   0.70411
 Alpha virt. eigenvalues --    0.70681   0.71582   0.72351   0.72996   0.73431
 Alpha virt. eigenvalues --    0.73905   0.74248   0.74939   0.76011   0.76682
 Alpha virt. eigenvalues --    0.78239   0.78653   0.80055   0.80857   0.82068
 Alpha virt. eigenvalues --    0.82309   0.83242   0.83505   0.83594   0.84889
 Alpha virt. eigenvalues --    0.87197   0.88277   0.89622   0.90148   0.93285
 Alpha virt. eigenvalues --    0.95032   0.96933   0.97358   0.99217   0.99476
 Alpha virt. eigenvalues --    1.00535   1.01540   1.02982   1.03919   1.05385
 Alpha virt. eigenvalues --    1.06508   1.07120   1.07796   1.09648   1.10672
 Alpha virt. eigenvalues --    1.13549   1.13654   1.14392   1.15141   1.16150
 Alpha virt. eigenvalues --    1.17081   1.18378   1.18795   1.20046   1.21477
 Alpha virt. eigenvalues --    1.24184   1.25001   1.26539   1.27209   1.28192
 Alpha virt. eigenvalues --    1.30292   1.30599   1.31617   1.32324   1.33195
 Alpha virt. eigenvalues --    1.34445   1.34784   1.36002   1.37386   1.39255
 Alpha virt. eigenvalues --    1.39842   1.42714   1.43392   1.44559   1.45161
 Alpha virt. eigenvalues --    1.46667   1.46968   1.49614   1.52630   1.54488
 Alpha virt. eigenvalues --    1.54834   1.56737   1.58333   1.60386   1.60840
 Alpha virt. eigenvalues --    1.63174   1.66949   1.68199   1.68923   1.71554
 Alpha virt. eigenvalues --    1.72329   1.73700   1.75009   1.75431   1.76342
 Alpha virt. eigenvalues --    1.78047   1.78952   1.82012   1.85937   1.87164
 Alpha virt. eigenvalues --    1.88866   1.90318   1.91049   1.92130   1.95974
 Alpha virt. eigenvalues --    1.98964   2.00144   2.03939   2.07987   2.08777
 Alpha virt. eigenvalues --    2.10372   2.11499   2.14035   2.18618   2.19566
 Alpha virt. eigenvalues --    2.21341   2.22777   2.25378   2.28571   2.30928
 Alpha virt. eigenvalues --    2.31579   2.34264   2.34899   2.36052   2.36977
 Alpha virt. eigenvalues --    2.39014   2.39342   2.41203   2.45139   2.45406
 Alpha virt. eigenvalues --    2.48594   2.48902   2.51841   2.54835   2.55141
 Alpha virt. eigenvalues --    2.61516   2.62984   2.63754   2.64936   2.68342
 Alpha virt. eigenvalues --    2.72237   2.73057   2.74199   2.75894   2.76482
 Alpha virt. eigenvalues --    2.77400   2.78914   2.80773   2.81717   2.82760
 Alpha virt. eigenvalues --    2.84400   2.85558   2.88553   2.90104   2.91022
 Alpha virt. eigenvalues --    2.93673   2.95847   2.98636   3.03888   3.05615
 Alpha virt. eigenvalues --    3.06734   3.10765   3.12517   3.13185   3.13510
 Alpha virt. eigenvalues --    3.15939   3.20409   3.20741   3.21950   3.26456
 Alpha virt. eigenvalues --    3.27353   3.30060   3.30935   3.32292   3.33845
 Alpha virt. eigenvalues --    3.34630   3.35986   3.38927   3.39870   3.40001
 Alpha virt. eigenvalues --    3.41438   3.43685   3.45243   3.45490   3.46798
 Alpha virt. eigenvalues --    3.47946   3.49348   3.51218   3.52612   3.53688
 Alpha virt. eigenvalues --    3.54940   3.57310   3.58256   3.58966   3.60492
 Alpha virt. eigenvalues --    3.61890   3.62308   3.63038   3.63093   3.65180
 Alpha virt. eigenvalues --    3.66356   3.67607   3.70066   3.71653   3.72662
 Alpha virt. eigenvalues --    3.73748   3.75281   3.76062   3.77988   3.79605
 Alpha virt. eigenvalues --    3.81124   3.82373   3.85528   3.89614   3.91550
 Alpha virt. eigenvalues --    3.93385   3.98464   4.00032   4.00210   4.04923
 Alpha virt. eigenvalues --    4.06600   4.13146   4.19251   4.21961   4.25729
 Alpha virt. eigenvalues --    4.26394   4.29720   4.35341   4.36159   4.43879
 Alpha virt. eigenvalues --    4.56201   4.56592   4.65380   4.74752   5.00321
 Alpha virt. eigenvalues --    5.01652   5.08073   5.09809   5.10661   5.14216
 Alpha virt. eigenvalues --    5.20920   5.28395   5.34712   5.55170   5.61598
 Alpha virt. eigenvalues --    5.75623   5.83688   6.09175   6.79583   6.85233
 Alpha virt. eigenvalues --    6.88616   6.89917   7.05147   7.12738   7.14256
 Alpha virt. eigenvalues --    7.25514   7.25825   7.37260  23.76773  23.93275
 Alpha virt. eigenvalues --   23.94654  24.00765  24.02924  24.04986  24.07414
 Alpha virt. eigenvalues --   24.08659  24.10779  24.21409  35.61415  49.99168
 Alpha virt. eigenvalues --   50.05681
          Condensed to atoms (all electrons):
               1          2          3          4          5          6
     1  C    6.417568  -0.638515   0.371740  -0.368585  -0.011845   0.032859
     2  C   -0.638515   5.907476  -0.038495   0.413043  -0.130614  -0.047766
     3  C    0.371740  -0.038495   5.716428   0.007504  -0.005113   0.424170
     4  C   -0.368585   0.413043   0.007504   5.678500   0.133998  -0.053561
     5  C   -0.011845  -0.130614  -0.005113   0.133998   5.205525   0.007316
     6  H    0.032859  -0.047766   0.424170  -0.053561   0.007316   0.499685
     7  H    0.412438  -0.043387   0.027827  -0.014183   0.015483  -0.000157
     8  H   -0.003743   0.017683  -0.054094   0.432340  -0.048644  -0.005065
     9  H    0.008912  -0.007955   0.009302  -0.055925   0.425205  -0.000180
    10  C    0.124748   0.131504  -0.102006  -0.024872  -0.009955  -0.016876
    11  H    0.006871   0.019339  -0.040669  -0.005600  -0.000811   0.001200
    12  H    0.006147  -0.122136   0.021633   0.001608   0.003092  -0.000025
    13  H    0.015779   0.015262  -0.039126  -0.006284  -0.003080   0.001164
    14  N    0.207852   0.076964  -0.135906   0.031958   0.361730   0.001544
    15  C    0.001972  -0.286365  -0.000597  -0.180393  -0.038460   0.000176
    16  H   -0.009747  -0.012300   0.004371   0.006273   0.009054  -0.000002
    17  H   -0.004886   0.023967  -0.002245  -0.003779  -0.017964  -0.000001
    18  C   -0.075785   0.165083  -0.033068   0.063247   0.032074   0.000029
    19  H   -0.012480   0.001335   0.001372   0.001660   0.010525  -0.000000
    20  H    0.001553   0.008523  -0.002101  -0.006941  -0.007071   0.000000
    21  C   -0.093104   0.039778  -0.018937   0.028918  -0.050223   0.000018
    22  H    0.001061  -0.000194  -0.000131   0.000329  -0.000355  -0.000000
    23  H    0.000223   0.001341   0.000038  -0.000612   0.000840   0.000000
    24  C   -0.001210  -0.003076  -0.001093  -0.003259  -0.006830  -0.000001
    25  O   -0.000847  -0.000455   0.000023  -0.000083  -0.001316  -0.000000
    26  O   -0.005871   0.021802  -0.000841   0.000875  -0.002612  -0.000000
               7          8          9         10         11         12
     1  C    0.412438  -0.003743   0.008912   0.124748   0.006871   0.006147
     2  C   -0.043387   0.017683  -0.007955   0.131504   0.019339  -0.122136
     3  C    0.027827  -0.054094   0.009302  -0.102006  -0.040669   0.021633
     4  C   -0.014183   0.432340  -0.055925  -0.024872  -0.005600   0.001608
     5  C    0.015483  -0.048644   0.425205  -0.009955  -0.000811   0.003092
     6  H   -0.000157  -0.005065  -0.000180  -0.016876   0.001200  -0.000025
     7  H    0.457941   0.000041  -0.000148  -0.010824  -0.000024   0.004715
     8  H    0.000041   0.497123  -0.003737  -0.000422  -0.000012   0.000013
     9  H   -0.000148  -0.003737   0.460352  -0.000136  -0.000000  -0.000002
    10  C   -0.010824  -0.000422  -0.000136   5.407858   0.382738   0.459708
    11  H   -0.000024  -0.000012  -0.000000   0.382738   0.518423  -0.021224
    12  H    0.004715   0.000013  -0.000002   0.459708  -0.021224   0.514764
    13  H   -0.000135  -0.000012  -0.000001   0.380382  -0.031997  -0.020749
    14  N   -0.047863   0.007681  -0.048661  -0.052297   0.001557  -0.000765
    15  C    0.017127   0.002723   0.033508  -0.060402   0.000695   0.001056
    16  H    0.000228  -0.000026   0.002232  -0.000276  -0.000001   0.000001
    17  H    0.002603   0.000011   0.000189   0.001124   0.000003   0.000015
    18  C   -0.008420   0.000145  -0.010362   0.014975   0.000195   0.000416
    19  H    0.000161  -0.000001   0.000168  -0.000139  -0.000003   0.000012
    20  H    0.000174   0.000013   0.000165   0.000106  -0.000000  -0.000001
    21  C    0.001152   0.000001   0.000070  -0.005121   0.000038  -0.000027
    22  H    0.000020   0.000000   0.000010   0.000039   0.000000   0.000000
    23  H    0.000003  -0.000000   0.000023   0.000012   0.000000   0.000000
    24  C   -0.000727   0.000007   0.000190   0.000866  -0.000003   0.000051
    25  O   -0.000006   0.000000   0.000002  -0.000015   0.000000  -0.000000
    26  O    0.001396   0.000000  -0.000019   0.001600  -0.000000   0.000000
              13         14         15         16         17         18
     1  C    0.015779   0.207852   0.001972  -0.009747  -0.004886  -0.075785
     2  C    0.015262   0.076964  -0.286365  -0.012300   0.023967   0.165083
     3  C   -0.039126  -0.135906  -0.000597   0.004371  -0.002245  -0.033068
     4  C   -0.006284   0.031958  -0.180393   0.006273  -0.003779   0.063247
     5  C   -0.003080   0.361730  -0.038460   0.009054  -0.017964   0.032074
     6  H    0.001164   0.001544   0.000176  -0.000002  -0.000001   0.000029
     7  H   -0.000135  -0.047863   0.017127   0.000228   0.002603  -0.008420
     8  H   -0.000012   0.007681   0.002723  -0.000026   0.000011   0.000145
     9  H   -0.000001  -0.048661   0.033508   0.002232   0.000189  -0.010362
    10  C    0.380382  -0.052297  -0.060402  -0.000276   0.001124   0.014975
    11  H   -0.031997   0.001557   0.000695  -0.000001   0.000003   0.000195
    12  H   -0.020749  -0.000765   0.001056   0.000001   0.000015   0.000416
    13  H    0.518127   0.000403   0.000133  -0.000000  -0.000006  -0.000210
    14  N    0.000403   6.170152   0.075790  -0.058414  -0.052868   0.064144
    15  C    0.000133   0.075790   6.749604   0.475528   0.466312  -0.657444
    16  H   -0.000000  -0.058414   0.475528   0.498029  -0.030684  -0.053846
    17  H   -0.000006  -0.052868   0.466312  -0.030684   0.491800  -0.065773
    18  C   -0.000210   0.064144  -0.657444  -0.053846  -0.065773   6.080867
    19  H   -0.000001   0.002142  -0.070404   0.006144  -0.006643   0.486449
    20  H    0.000000   0.009989  -0.055161  -0.006902   0.006405   0.420965
    21  C    0.000007   0.020888   0.114120  -0.012385   0.003840  -0.412733
    22  H   -0.000000  -0.000563   0.011101  -0.000091  -0.000096  -0.030358
    23  H   -0.000000  -0.000246  -0.013931   0.003000  -0.000320  -0.057288
    24  C   -0.000005  -0.013118   0.018040   0.002940   0.007492  -0.032341
    25  O    0.000000  -0.000603   0.007989  -0.000469  -0.000567  -0.013836
    26  O   -0.000000   0.000236  -0.045857   0.001034   0.000961  -0.001288
              19         20         21         22         23         24
     1  C   -0.012480   0.001553  -0.093104   0.001061   0.000223  -0.001210
     2  C    0.001335   0.008523   0.039778  -0.000194   0.001341  -0.003076
     3  C    0.001372  -0.002101  -0.018937  -0.000131   0.000038  -0.001093
     4  C    0.001660  -0.006941   0.028918   0.000329  -0.000612  -0.003259
     5  C    0.010525  -0.007071  -0.050223  -0.000355   0.000840  -0.006830
     6  H   -0.000000   0.000000   0.000018  -0.000000   0.000000  -0.000001
     7  H    0.000161   0.000174   0.001152   0.000020   0.000003  -0.000727
     8  H   -0.000001   0.000013   0.000001   0.000000  -0.000000   0.000007
     9  H    0.000168   0.000165   0.000070   0.000010   0.000023   0.000190
    10  C   -0.000139   0.000106  -0.005121   0.000039   0.000012   0.000866
    11  H   -0.000003  -0.000000   0.000038   0.000000   0.000000  -0.000003
    12  H    0.000012  -0.000001  -0.000027   0.000000   0.000000   0.000051
    13  H   -0.000001   0.000000   0.000007  -0.000000  -0.000000  -0.000005
    14  N    0.002142   0.009989   0.020888  -0.000563  -0.000246  -0.013118
    15  C   -0.070404  -0.055161   0.114120   0.011101  -0.013931   0.018040
    16  H    0.006144  -0.006902  -0.012385  -0.000091   0.003000   0.002940
    17  H   -0.006643   0.006405   0.003840  -0.000096  -0.000320   0.007492
    18  C    0.486449   0.420965  -0.412733  -0.030358  -0.057288  -0.032341
    19  H    0.535634  -0.034742  -0.057344  -0.004517   0.006886  -0.007372
    20  H   -0.034742   0.547625  -0.011807  -0.006817  -0.004426   0.008568
    21  C   -0.057344  -0.011807   5.901155   0.399383   0.466029   0.213965
    22  H   -0.004517  -0.006817   0.399383   0.545480  -0.033527  -0.032512
    23  H    0.006886  -0.004426   0.466029  -0.033527   0.550682  -0.058184
    24  C   -0.007372   0.008568   0.213965  -0.032512  -0.058184   4.701150
    25  O   -0.000177  -0.000844  -0.058012   0.003128  -0.009544   0.353029
    26  O    0.001510  -0.000159  -0.086726  -0.002801   0.006215   0.369747
              25         26
     1  C   -0.000847  -0.005871
     2  C   -0.000455   0.021802
     3  C    0.000023  -0.000841
     4  C   -0.000083   0.000875
     5  C   -0.001316  -0.002612
     6  H   -0.000000  -0.000000
     7  H   -0.000006   0.001396
     8  H    0.000000   0.000000
     9  H    0.000002  -0.000019
    10  C   -0.000015   0.001600
    11  H    0.000000  -0.000000
    12  H   -0.000000   0.000000
    13  H    0.000000  -0.000000
    14  N   -0.000603   0.000236
    15  C    0.007989  -0.045857
    16  H   -0.000469   0.001034
    17  H   -0.000567   0.000961
    18  C   -0.013836  -0.001288
    19  H   -0.000177   0.001510
    20  H   -0.000844  -0.000159
    21  C   -0.058012  -0.086726
    22  H    0.003128  -0.002801
    23  H   -0.009544   0.006215
    24  C    0.353029   0.369747
    25  O    8.595087  -0.082936
    26  O   -0.082936   8.597603
 Mulliken charges:
               1
     1  C   -0.383105
     2  C    0.488159
     3  C   -0.109986
     4  C   -0.076175
     5  C    0.130051
     6  H    0.155473
     7  H    0.184563
     8  H    0.157974
     9  H    0.186798
    10  C   -0.622319
    11  H    0.169285
    12  H    0.151694
    13  H    0.170351
    14  N    0.378274
    15  C   -0.566860
    16  H    0.176306
    17  H    0.181110
    18  C    0.124165
    19  H    0.139826
    20  H    0.132885
    21  C   -0.382942
    22  H    0.151411
    23  H    0.142788
    24  C    0.483689
    25  O   -0.789546
    26  O   -0.773868
 Sum of Mulliken charges =  -0.00000
 Mulliken charges with hydrogens summed into heavy atoms:
               1
     1  C   -0.198541
     2  C    0.488159
     3  C    0.045486
     4  C    0.081799
     5  C    0.316849
    10  C   -0.130989
    14  N    0.378274
    15  C   -0.209444
    18  C    0.396876
    21  C   -0.088744
    24  C    0.483689
    25  O   -0.789546
    26  O   -0.773868
 Electronic spatial extent (au):  <R**2>=           3470.2834
 Charge=              0.0000 electrons
 Dipole moment (field-independent basis, Debye):
    X=            -25.6556    Y=             -7.9067    Z=              1.2976  Tot=             26.8777
 Quadrupole moment (field-independent basis, Debye-Ang):
   XX=           -129.4262   YY=            -71.8905   ZZ=            -78.5178
   XY=            -18.9750   XZ=              9.1654   YZ=              0.6669
 Traceless Quadrupole moment (field-independent basis, Debye-Ang):
   XX=            -36.1480   YY=             21.3877   ZZ=             14.7603
   XY=            -18.9750   XZ=              9.1654   YZ=              0.6669
 Octapole moment (field-independent basis, Debye-Ang**2):
  XXX=           -475.5468  YYY=            -35.3669  ZZZ=              1.7857  XYY=            -59.3569
  XXY=            -67.5550  XXZ=             58.2432  XZZ=             -1.7087  YZZ=             -0.9624
  YYZ=             -3.5139  XYZ=              1.0788
 Hexadecapole moment (field-independent basis, Debye-Ang**3):
 XXXX=          -4952.6013 YYYY=           -717.5651 ZZZZ=           -191.7260 XXXY=           -216.1373
 XXXZ=            216.8180 YYYX=            -35.1616 YYYZ=              6.2136 ZZZX=              9.0660
 ZZZY=              1.7314 XXYY=           -759.2415 XXZZ=           -681.1484 YYZZ=           -161.5786
 XXYZ=              9.3571 YYXZ=             -1.5614 ZZXY=            -14.6186
 N-N= 7.550393213611D+02 E-N=-2.894224839654D+03  KE= 5.917837808387D+02
 No NMR shielding tensors so no spin-rotation constants.
 Leave Link  601 at Thu Oct 12 08:59:51 2023, MaxMem=  6710886400 cpu:               4.0 elap:               0.2
 (Enter /data0/home/software/g16/l701.exe)
 ... and contract with generalized density number  0.
 Compute integral first derivatives.
 R6Disp: Adding Grimme-D3(BJ) dispersion energy 1st derivatives to the gradient.
 D1PCM: PCM CHGder 1st derivatives, ID1Alg=3 FixD1E=F DoIter=F DoCFld=F I1PDM=0.
 GePol: Maximum number of non-zero 1st derivatives   =     242
 Leave Link  701 at Thu Oct 12 08:59:52 2023, MaxMem=  6710886400 cpu:              24.4 elap:               1.0
 (Enter /data0/home/software/g16/l702.exe)
 L702 exits ... SP integral derivatives will be done elsewhere.
 Leave Link  702 at Thu Oct 12 08:59:52 2023, MaxMem=  6710886400 cpu:               0.4 elap:               0.0
 (Enter /data0/home/software/g16/l703.exe)
 Integral derivatives from FoFJK, PRISM(SPDF).
 Compute integral first derivatives, UseDBF=F ICtDFT=           0.
 Calling FoFJK, ICntrl=      2127 FMM=F ISym2X=0 I1Cent= 0 IOpClX= 0 NMat=1 NMatS=1 NMatT=0.
 FoFJK:  IHMeth= 1 ICntrl=    2127 DoSepK=F KAlg= 0 I1Cent=           0 FoldK=F
 IRaf=         0 NMat=       1 IRICut=       1 DoRegI=T DoRafI=F ISym2E= 0 IDoP0=0 IntGTp=1.
 FoFCou: FMM=F IPFlag=           0 FMFlag=      100000 FMFlg1=         800
         NFxFlg=           0 DoJE=F BraDBF=F KetDBF=F FulRan=T
         wScrn=  0.000000 ICntrl=      2127 IOpCl=  0 I1Cent=           0 NGrid=           0
         NMat0=    1 NMatS0=      1 NMatT0=    0 NMatD0=    1 NMtDS0=    0 NMtDT0=    0
 Symmetry not used in FoFCou.
 Leave Link  703 at Thu Oct 12 09:00:01 2023, MaxMem=  6710886400 cpu:             233.0 elap:               9.8
 (Enter /data0/home/software/g16/l716.exe)
 Dipole        =-1.00937087D+01-3.11072995D+00 5.10530418D-01
 ***** Axes restored to original set *****
 -------------------------------------------------------------------
 Center     Atomic                   Forces (Hartrees/Bohr)
 Number     Number              X              Y              Z
 -------------------------------------------------------------------
      1        6           0.000164501    0.000002175   -0.000020846
      2        6           0.000153308   -0.000122403   -0.000022284
      3        6           0.000382957   -0.000071485   -0.000068882
      4        6           0.000423676    0.000448782   -0.000078708
      5        6           0.000120507    0.000178494   -0.000031141
      6        1           0.000246588   -0.000049862   -0.000052799
      7        1          -0.000086431   -0.000324547   -0.000062570
      8        1           0.000128729    0.000211891   -0.000040915
      9        1           0.000107314    0.000390939   -0.000090808
     10        6           0.000125041   -0.000379841   -0.000010302
     11        1           0.000091888   -0.000039146   -0.000138811
     12        1           0.000041642   -0.000448122    0.000003358
     13        1           0.000137834   -0.000026149    0.000121017
     14        7          -0.000196243    0.000065840    0.000172534
     15        6          -0.000009640    0.000052516    0.000437785
     16        1          -0.000460027    0.000108503    0.000319593
     17        1          -0.000570279   -0.000108727    0.000267140
     18        6          -0.000095177    0.000174153   -0.000634176
     19        1           0.000013619   -0.000313153   -0.000036788
     20        1           0.000211424    0.000175829   -0.000123842
     21        6          -0.000236986    0.000561341   -0.000259246
     22        1          -0.000213189   -0.000106468   -0.000039182
     23        1          -0.000140771    0.000157615    0.000109295
     24        6          -0.000519821   -0.000486236    0.000181228
     25        8          -0.000287088    0.000171525    0.000109554
     26        8           0.000466623   -0.000223465   -0.000010205
 -------------------------------------------------------------------
 Cartesian Forces:  Max     0.000634176 RMS     0.000243369
 Leave Link  716 at Thu Oct 12 09:00:01 2023, MaxMem=  6710886400 cpu:               0.5 elap:               0.0
 (Enter /data0/home/software/g16/l103.exe)

 GradGradGradGradGradGradGradGradGradGradGradGradGradGradGradGradGradGrad
 Berny optimization.
 FormGI is forming the generalized inverse of G from B-inverse, IUseBI=4.
 Internal  Forces:  Max     0.001874406 RMS     0.000354484
 Search for a local minimum.
 Step number   1 out of a maximum of  141
 All quantities printed in internal units (Hartrees-Bohrs-Radians)
 RMS Force = .35448D-03 SwitMx=.10000D-02 MixMth= 2
 Mixed Optimization -- En-DIIS/RFO-DIIS
 Second derivative matrix not updated -- first step.
 ITU=  0
     Eigenvalues ---    0.00302   0.00307   0.00417   0.00437   0.00562
     Eigenvalues ---    0.00770   0.01613   0.01686   0.02184   0.02220
     Eigenvalues ---    0.02309   0.02325   0.02337   0.02379   0.02392
     Eigenvalues ---    0.03704   0.03753   0.04332   0.04936   0.05262
     Eigenvalues ---    0.05299   0.07196   0.07402   0.08094   0.09274
     Eigenvalues ---    0.09818   0.12014   0.12636   0.13127   0.16000
     Eigenvalues ---    0.16000   0.16000   0.16000   0.16000   0.16000
     Eigenvalues ---    0.16000   0.21916   0.21974   0.21989   0.22000
     Eigenvalues ---    0.23458   0.23486   0.24943   0.25000   0.25000
     Eigenvalues ---    0.25000   0.28959   0.29760   0.29900   0.32407
     Eigenvalues ---    0.33956   0.34254   0.34450   0.34528   0.34538
     Eigenvalues ---    0.34544   0.34593   0.34831   0.34970   0.35051
     Eigenvalues ---    0.35588   0.35893   0.35904   0.35988   0.43645
     Eigenvalues ---    0.44331   0.47610   0.48921   0.53297   0.55114
     Eigenvalues ---    0.77444   0.78601
 RFO step:  Lambda=-7.44795353D-05 EMin= 3.01869375D-03
 Linear search not attempted -- first point.
 Iteration  1 RMS(Cart)=  0.01196670 RMS(Int)=  0.00019661
 Iteration  2 RMS(Cart)=  0.00019510 RMS(Int)=  0.00002445
 Iteration  3 RMS(Cart)=  0.00000000 RMS(Int)=  0.00002445
 ITry= 1 IFail=0 DXMaxC= 9.46D-02 DCOld= 1.00D+10 DXMaxT= 3.00D-01 DXLimC= 3.00D+00 Rises=F
 Variable       Old X    -DE/DX   Delta X   Delta X   Delta X     New X
                                 (Linear)    (Quad)   (Total)
    R1        2.61289  -0.00100   0.00000  -0.00206  -0.00206   2.61083
    R2        2.04231  -0.00030   0.00000  -0.00083  -0.00083   2.04148
    R3        2.55009  -0.00126   0.00000  -0.00235  -0.00235   2.54774
    R4        2.64113  -0.00054   0.00000  -0.00111  -0.00111   2.64003
    R5        2.83406  -0.00097   0.00000  -0.00300  -0.00300   2.83106
    R6        2.62062  -0.00059   0.00000  -0.00116  -0.00116   2.61946
    R7        2.04731  -0.00025   0.00000  -0.00071  -0.00071   2.04660
    R8        2.60704  -0.00082   0.00000  -0.00166  -0.00166   2.60538
    R9        2.04249  -0.00025   0.00000  -0.00070  -0.00070   2.04180
   R10        2.04100  -0.00028   0.00000  -0.00079  -0.00079   2.04022
   R11        2.54184  -0.00118   0.00000  -0.00217  -0.00217   2.53966
   R12        2.06421  -0.00018   0.00000  -0.00053  -0.00053   2.06368
   R13        2.05950  -0.00028   0.00000  -0.00081  -0.00081   2.05868
   R14        2.06448  -0.00018   0.00000  -0.00051  -0.00051   2.06397
   R15        2.80705  -0.00187   0.00000  -0.00552  -0.00552   2.80153
   R16        2.05723  -0.00033   0.00000  -0.00094  -0.00094   2.05629
   R17        2.05592  -0.00040   0.00000  -0.00115  -0.00115   2.05477
   R18        2.88163  -0.00101   0.00000  -0.00339  -0.00339   2.87824
   R19        2.06340  -0.00027   0.00000  -0.00079  -0.00079   2.06261
   R20        2.06578  -0.00027   0.00000  -0.00079  -0.00079   2.06499
   R21        2.88445  -0.00093   0.00000  -0.00313  -0.00313   2.88131
   R22        2.06903  -0.00011   0.00000  -0.00033  -0.00033   2.06870
   R23        2.06432  -0.00022   0.00000  -0.00064  -0.00064   2.06368
   R24        2.90089  -0.00069   0.00000  -0.00239  -0.00239   2.89849
   R25        2.39324  -0.00032   0.00000  -0.00041  -0.00041   2.39283
   R26        2.38679  -0.00042   0.00000  -0.00053  -0.00053   2.38625
    A1        2.13696   0.00034   0.00000   0.00188   0.00188   2.13884
    A2        2.12186  -0.00037   0.00000  -0.00179  -0.00179   2.12007
    A3        2.02436   0.00003   0.00000  -0.00009  -0.00009   2.02426
    A4        2.04944   0.00008   0.00000   0.00049   0.00049   2.04993
    A5        2.10872  -0.00043   0.00000  -0.00182  -0.00182   2.10690
    A6        2.12502   0.00036   0.00000   0.00133   0.00133   2.12635
    A7        2.10041  -0.00006   0.00000   0.00013   0.00013   2.10054
    A8        2.08725   0.00005   0.00000   0.00008   0.00008   2.08732
    A9        2.09553   0.00001   0.00000  -0.00021  -0.00021   2.09532
   A10        2.08403  -0.00010   0.00000  -0.00021  -0.00021   2.08382
   A11        2.11994   0.00004   0.00000   0.00003   0.00003   2.11997
   A12        2.07921   0.00006   0.00000   0.00018   0.00018   2.07939
   A13        2.15164   0.00043   0.00000   0.00248   0.00248   2.15412
   A14        2.09534  -0.00027   0.00000  -0.00128  -0.00128   2.09406
   A15        2.03620  -0.00016   0.00000  -0.00120  -0.00120   2.03500
   A16        1.92526   0.00008   0.00000   0.00070   0.00070   1.92596
   A17        1.94565  -0.00053   0.00000  -0.00367  -0.00367   1.94198
   A18        1.92445   0.00009   0.00000   0.00071   0.00070   1.92515
   A19        1.89589   0.00018   0.00000   0.00079   0.00079   1.89668
   A20        1.87550   0.00003   0.00000   0.00089   0.00089   1.87639
   A21        1.89534   0.00017   0.00000   0.00075   0.00075   1.89609
   A22        2.11520   0.00072   0.00000   0.00267   0.00267   2.11787
   A23        2.07697  -0.00031   0.00000  -0.00109  -0.00109   2.07588
   A24        2.08898  -0.00041   0.00000  -0.00150  -0.00150   2.08748
   A25        1.87143  -0.00018   0.00000  -0.00333  -0.00333   1.86810
   A26        1.86786  -0.00025   0.00000  -0.00292  -0.00291   1.86495
   A27        1.93847  -0.00008   0.00000  -0.00141  -0.00141   1.93706
[...]
 0771,-0.00000412,-0.00005429,0.00007077,-0.00015749,0.00000973,-0.0000
 0116,-0.00000653,0.00002885,0.00003418,0.00002118,-0.00000286,0.000004
 28,-0.00001762,0.00000593,0.00000184,0.00000118,-0.00000017,0.00000240
 ,0.00000098,0.00000301,0.00001156,0.00000263,0.00187051,-0.00098951,-0
 .00034366,0.00086317,-0.01360465,-0.01029679,-0.00120224,0.00035934,-0
 .00296383,0.00037213,0.00040069,0.00078950,-0.06072007,0.04988757,0.03
 158603,0.07000809,-0.00043759,0.00042847,0.00023981,0.00005391,0.00005
 808,0.00006987,-0.00005738,-0.00010125,-0.00000677,-0.00005691,0.00009
 947,-0.00001354,0.00004281,-0.00003395,-0.00006120,0.00000401,0.,0.000
 00144,0.00011035,0.00000875,0.00007608,-0.00000635,0.00000073,-0.00000
 776,0.00003069,0.00002378,0.00000316,0.00001452,-0.00000253,0.00002657
 ,-0.00000540,-0.00000325,-0.00000242,0.00000016,-0.00000139,-0.0000023
 5,0.00000194,-0.00001525,-0.00000304,-0.00025792,0.00030847,0.00002121
 ,-0.00056154,0.00094237,0.00044782,0.00042200,0.00125975,0.00053720,-0
 .00047049,0.00062087,-0.00030115,0.05051094,-0.22507825,-0.11154324,-0
 .05555892,0.24248702,-0.00049599,-0.00015729,-0.00010495,-0.00044334,-
 0.00001325,0.00008907,-0.00001902,0.00035624,-0.00002314,0.00034670,-0
 .00013688,-0.00009837,-0.00048449,-0.00016089,0.00026503,0.00000289,0.
 00001315,-0.00000640,-0.00004256,0.00012630,-0.00012716,-0.00001629,-0
 .00000258,-0.00000606,0.00002969,0.00005171,0.00001360,-0.00000652,-0.
 00000990,0.00001209,-0.00000348,0.00000365,-0.00000265,0.00000191,0.00
 000299,-0.00000058,0.00000335,0.00000299,0.00000017,0.00159187,0.00022
 273,0.00086676,0.00546025,-0.02614294,-0.01944261,-0.00321993,0.000656
 81,-0.00411399,0.00062681,0.00019016,0.00142213,0.03011902,-0.10762643
 ,-0.11715789,-0.03042676,0.12174713,0.12904810,-0.00029025,0.00033997,
 0.00027394,0.00031266,0.00007704,-0.00008165,0.00002628,-0.00025325,-0
 .00000023,-0.00024417,0.00008587,0.00000897,0.00052185,-0.00041879,0.0
 0027648,-0.00000306,-0.00000704,-0.00000324,0.00002674,-0.00003752,0.0
 0001995,0.00000723,0.00000398,-0.00001753,-0.00009017,-0.00004010,-0.0
 0016515,-0.00001602,0.00000244,-0.00000377,0.00000059,0.00000494,0.000
 00049,0.00000014,0.00000170,0.00000069,-0.00000160,0.00000805,-0.00000
 109,0.00209424,0.00051795,-0.00010880,0.00251193,0.01336828,-0.0102196
 4,0.00041073,-0.00030046,0.00081953,-0.00123102,-0.00008437,-0.0029263
 3,-0.07142591,-0.06395652,0.04223410,0.00215321,0.00567349,-0.00461542
 ,0.08088735,-0.00004603,0.00000934,0.00005564,0.00004711,0.00004845,0.
 00001560,0.00004356,-0.00004206,0.00000484,-0.00001234,0.00000237,-0.0
 0005813,0.00033176,-0.00019548,-0.00008883,-0.00000062,-0.00000061,-0.
 00000133,-0.00003296,0.00003827,-0.00000842,0.00000240,0.00000170,-0.0
 0002370,-0.00009277,-0.00001011,-0.00007476,-0.00000362,0.00000615,0.0
 0001172,0.00000104,0.00000129,-0.00000225,-0.00000099,0.00000061,-0.00
 000039,0.00000253,-0.00000125,-0.00000215,0.00004972,0.00029033,-0.000
 17833,0.00020112,-0.00031357,-0.00004531,0.00052171,0.00090764,0.00020
 056,-0.00024848,0.00133572,-0.00022359,-0.06467616,-0.21433676,0.10537
 021,-0.00786308,-0.01971541,0.01329801,0.07070991,0.22866767,-0.000441
 82,0.00018919,0.00023586,0.00036834,0.00011568,-0.00008520,-0.00009168
 ,-0.00036932,-0.00002155,-0.00043125,0.00011688,0.00007973,0.00003986,
 -0.00005021,0.00019418,-0.00000223,-0.00000964,-0.00000351,0.00002269,
 -0.00005316,0.00001178,-0.00002513,0.00000672,0.00000981,-0.00006252,-
 0.00007563,-0.00011263,-0.00000447,-0.00001661,-0.00000944,-0.00000621
 ,-0.00000478,0.00000206,0.00000178,-0.00000250,-0.00000025,-0.00000665
 ,0.00000091,0.00000105,0.00155917,-0.00067950,0.00097518,0.00792309,0.
 02560722,-0.02026838,0.00064965,-0.00024806,0.00159781,-0.00345842,-0.
 00034047,-0.00414270,0.04078819,0.10356002,-0.11505165,-0.00568714,-0.
 01239813,0.00942674,-0.04231087,-0.11612137,0.12734807,0.00007305,-0.0
 0011234,0.00002895,-0.00007350,0.00001114,0.00008853,0.00004294,-0.000
 02290,-0.00004802,-0.00007744,0.00003188,0.00008440,0.00019751,0.00009
 164,0.00004638,0.00000032,-0.00000003,-0.00001585,-0.00002863,0.000022
 05,-0.00005200,0.00001138,0.00000677,0.00001859,-0.00002020,-0.0000190
 4,-0.00004206,0.00001878,-0.00000402,0.00002835,-0.00000248,0.00000189
 ,-0.00000108,-0.00000046,-0.00000156,-0.00000107,0.00000246,-0.0000107
 0,-0.00000118,0.00026672,0.00012481,-0.00202932,-0.02429635,0.00198624
 ,-0.00396392,0.00132448,-0.00024003,0.00126882,0.00117761,-0.00007844,
 0.00091754,-0.18110426,0.00703129,0.01414222,-0.00945962,0.00196206,0.
 00177797,-0.01286025,0.00209439,0.00179015,0.48064567,0.00014051,-0.00
 025670,-0.00014318,-0.00038448,-0.00009904,0.00016869,0.00002249,0.000
 34076,0.00000205,0.00028893,-0.00013009,-0.00011042,-0.00008176,0.0001
 1877,0.00015041,-0.00000319,0.00000844,-0.00000459,-0.00000176,0.00003
 170,-0.00011144,-0.00001782,-0.00000512,-0.00003954,0.00001680,0.00003
 880,0.00009034,-0.00001427,-0.00000522,0.00005009,-0.00000555,0.000024
 00,-0.00000181,0.00000067,0.00000866,-0.00000261,0.00000241,0.00000556
 ,-0.00000257,-0.00029687,0.00088782,-0.00014415,0.00196956,-0.00134082
 ,0.00084052,-0.00067650,0.00037475,-0.00006933,0.00026106,0.00019972,-
 0.00024637,0.00979786,-0.08442282,-0.00226959,0.02827450,-0.00069078,-
 0.00194385,-0.02850979,0.00256760,0.00217668,-0.03755098,0.50939590,-0
 .00038949,-0.00108221,-0.00009288,-0.00011189,-0.00005898,0.00039735,-
 0.00022310,0.00002629,-0.00002779,-0.00023674,-0.00000884,0.00046341,-
 0.00019217,0.00109972,-0.00013069,-0.00001719,0.00000640,-0.00003437,0
 .00008622,0.00005567,-0.00014001,-0.00010296,-0.00000256,0.00003515,0.
 00004953,-0.00003552,-0.00017269,-0.00008865,-0.00005589,0.00001292,-0
 .00001993,0.00005989,0.00000485,0.00000193,0.00002819,-0.00000483,-0.0
 0002065,0.00005467,0.00000597,-0.00589283,0.00031024,-0.00594086,-0.02
 714678,0.00113669,0.00508115,-0.00035192,0.00002076,0.00108865,0.00024
 871,0.00045698,0.00130511,0.01286563,-0.00350561,-0.07674940,0.0179357
 0,-0.00098098,-0.00185997,0.01596454,-0.00209438,-0.00191326,0.0116964
 8,0.05080067,0.53342938,-0.00010460,-0.00049750,-0.00003619,-0.0000551
 8,-0.00003830,0.00012916,-0.00008116,0.00000109,-0.00000247,-0.0001397
 3,0.00000728,0.00016199,0.00001932,0.00051601,-0.00004860,-0.00000996,
 0.00000269,-0.00001325,0.00002063,-0.00000332,-0.00004500,-0.00004472,
 -0.00000028,0.00001709,0.00001693,0.00000584,-0.00005730,-0.00004199,-
 0.00002458,0.00000961,-0.00000966,0.00002960,0.00000318,0.00000115,0.0
 0001341,-0.00000158,-0.00000980,0.00002665,0.00000191,-0.00165284,0.00
 007722,-0.00185635,-0.00452862,0.00056343,0.00309866,0.00004415,-0.000
 20542,0.00019778,0.00009858,0.00018145,0.00015229,-0.01703415,0.003330
 19,-0.03027388,0.00141759,0.00035409,0.00020252,0.00174754,-0.00039751
 ,-0.00005865,-0.08717657,0.01252575,-0.09495828,0.10122090,-0.00004650
 ,0.00000160,0.00003080,-0.00002529,0.00001136,0.00002453,0.00000463,0.
 00002499,-0.00000136,0.00002695,-0.00000782,-0.00001132,0.00002993,-0.
 00001879,-0.00001441,-0.00000035,0.00000020,-0.00000192,-0.00001439,0.
 00000207,-0.00001581,0.00000176,-0.00000061,-0.00000248,0.00000612,-0.
 00000071,0.00000436,-0.00000345,-0.00000135,0.00000221,-0.00000009,0.0
 0000114,0.00000012,0.00000027,-0.00000005,-0.00000012,-0.00000044,0.00
 000068,0.00000014,-0.00006333,0.00037999,-0.00000468,-0.00018698,0.000
 44631,-0.00023265,0.00003105,0.00007781,0.00032652,-0.00006645,0.00000
 271,-0.00026319,0.00114646,-0.00114983,0.00173252,-0.00017389,0.000261
 76,0.00032003,-0.00007735,0.00024982,-0.00049980,0.01518781,-0.0474874
 3,0.03316962,-0.01348031,0.05012575,0.00003157,-0.00008149,-0.00002987
 ,-0.00002737,0.00002296,-0.00001675,0.00003696,0.00001023,-0.00000055,
 -0.00000821,-0.00002813,-0.00002791,0.00003668,0.00006747,-0.00002997,
 -0.00000177,0.00000019,0.00000104,0.00000071,-0.00000371,0.00000956,-0
 .00000181,0.00000246,0.00000149,0.00000449,0.00000253,0.00001551,-0.00
 000447,-0.00000168,0.00000407,-0.00000098,0.00000183,0.00000029,0.0000
 0050,-0.00000092,0.00000013,0.,0.00000051,-0.00000012,0.00003327,0.000
 06715,0.00019801,0.00112663,-0.00017535,0.00108901,0.00004558,0.000061
 78,0.00009104,0.00009671,-0.00003135,0.00006336,0.00293958,-0.00072408
 ,0.00465686,-0.00048167,0.00015860,0.00039793,-0.00039902,-0.00031852,
 0.00069791,-0.10039555,0.02903849,-0.25404987,0.10636561,-0.03355683,0
 .27359038,0.00006323,-0.00003124,-0.00001703,0.00006736,-0.00003003,-0
 .00005340,-0.00001348,-0.00005281,0.00001253,-0.00006314,0.00002937,0.
 00001278,0.00008929,0.00006044,-0.00001568,-0.00000124,-0.00000186,0.0
 0000311,-0.00000618,-0.00003264,0.00003142,-0.00000095,-0.00000026,0.0
 0000526,-0.00000126,0.00000531,-0.00000342,-0.00000263,0.00000049,-0.0
 0000408,0.00000097,0.00000181,0.00000067,-0.00000017,0.00000146,0.0000
 0076,-0.00000147,0.00000366,-0.00000012,0.00032961,-0.00033967,0.00008
 898,0.00127419,0.00086351,0.00110163,-0.00000063,-0.00031712,-0.000456
 51,-0.00005239,0.00001557,-0.00013661,-0.00960271,0.02684024,0.0182643
 6,-0.00632044,0.00009944,0.00039885,0.00115094,-0.00050020,-0.00014811
 ,-0.06270518,0.04811709,0.03448053,0.00303639,-0.01104781,-0.00696391,
 0.07072897,-0.00007187,0.00002339,0.00002079,0.00000322,0.00002036,-0.
 00001095,0.00000510,-0.00000509,-0.00000081,0.00000191,0.00000041,-0.0
 0000736,0.00001419,-0.00003279,0.00000368,0.00000018,-0.00000027,0.000
 00022,-0.00001038,-0.00000285,-0.00000447,0.00000230,0.00000070,-0.000
 00186,0.00000213,0.00000145,0.00000035,-0.00000042,-0.00000168,0.00000
 442,-0.00000058,-0.00000032,-0.00000015,0.00000045,-0.00000050,-0.0000
 0039,0.00000061,-0.00000174,-0.00000007,0.00005876,0.00017589,0.000104
 13,-0.00027771,0.00015960,-0.00016379,0.00027916,-0.00005443,0.0003002
 3,0.00002103,-0.00003167,-0.00000450,0.00061341,-0.00037106,0.00005705
 ,-0.00025652,0.00081096,-0.00008190,0.00050040,0.00043426,0.00007833,0
 .04603888,-0.21149962,-0.11575335,-0.00176783,0.00388117,0.00201168,-0
 .05260448,0.22985137,-0.00011817,0.00008291,-0.00004387,0.00004423,0.0
 0003014,-0.00002149,0.00000580,-0.00003912,0.00000095,-0.00001529,0.00
 001621,-0.00000612,0.00003481,-0.00005712,-0.00002446,0.00000135,-0.00
 000117,0.00000225,-0.00000828,-0.00000262,0.00000737,0.00000576,0.0000
 0102,-0.00000213,-0.00000056,-0.00000229,0.00000503,0.00000612,0.00000
 062,0.00000430,-0.00000020,-0.00000282,-0.00000059,-0.00000007,-0.0000
 0185,-0.00000038,0.00000125,-0.00000510,-0.00000025,0.00007488,0.00011
 783,0.00011492,-0.00057694,0.00078528,0.00059601,0.00022094,-0.0000485
 8,0.00032813,0.00002796,-0.00002991,-0.00002060,0.00138795,-0.00232700
 ,-0.00245845,0.00079106,0.00065267,0.00090825,0.00005831,0.00008454,-0
 .00002815,0.03447301,-0.11821265,-0.12462031,0.00642643,-0.02308035,-0
 .01572009,-0.04017744,0.12605078,0.13457976,-0.00002120,0.00037649,-0.
 00001149,0.00001905,0.00004492,-0.00002578,0.00004486,0.00004543,0.000
 00545,0.00022803,0.00003084,-0.00008681,0.00003315,-0.00048339,-0.0000
 7170,0.00001234,0.00000057,0.00000088,-0.00002434,0.00004609,-0.000003
 18,0.00005024,-0.00000309,-0.00001857,-0.00001073,-0.00001858,0.000037
 53,0.00003833,0.00001162,0.00000236,0.00000523,-0.00002509,-0.00000401
 ,0.00000217,-0.00000221,-0.00000389,0.00001312,-0.00002692,0.00000078,
 0.00099074,0.00071052,0.00041375,-0.00071950,-0.00154578,0.00035984,0.
 00022514,0.00028953,-0.00004592,-0.00079720,0.00040110,-0.00122808,-0.
 01615458,-0.02358673,0.01403951,0.00119103,0.00069003,0.00027336,-0.00
 291403,0.00162421,0.00007456,-0.09255661,-0.02960093,0.00269842,0.0058
 0123,0.01362407,-0.00582024,0.00088491,0.00770962,-0.00079786,0.567938
 21,0.00002908,0.00072432,0.00001570,0.00007316,0.00001521,-0.00011858,
 0.00005949,-0.00001449,-0.00001040,0.00015601,-0.00002761,-0.00012082,
 -0.00024772,-0.00060874,0.00000101,0.00001064,-0.00000669,0.00001436,0
 .00003150,0.00001332,0.00006977,0.00004410,-0.00000078,-0.00001085,-0.
 00001710,-0.00002949,0.00003961,0.00007106,0.00004001,-0.00001436,0.00
 001157,-0.00004010,-0.00000252,-0.00000719,-0.00003037,0.00000408,0.00
 000876,-0.00003961,-0.00000397,0.00141796,-0.00036470,0.00133718,-0.00
 158640,-0.00048023,-0.00238516,-0.00001634,-0.00014683,0.00002963,-0.0
 0005018,-0.00038368,0.00065955,-0.00783974,0.00837745,-0.00031513,0.00
 112003,-0.00245027,-0.00109118,0.00556849,-0.00020780,-0.00147357,-0.0
 2586877,-0.12506474,0.01953715,0.00063012,-0.00322326,0.00119598,-0.00
 657008,-0.01918019,0.01206993,-0.08670735,0.62109354,0.00008923,-0.000
 34447,-0.00003568,-0.00011485,-0.00006371,0.00005390,-0.00002821,0.000
 07329,0.00000769,-0.00004731,-0.00004303,0.00005179,-0.00001066,0.0003
 5920,-0.00003967,-0.00000874,0.00000187,-0.00000261,0.00001112,-0.0000
 2525,-0.00001185,-0.00003056,-0.00000086,0.00001125,0.00000753,0.00002
 265,-0.00001093,-0.00003064,-0.00001057,0.00000844,-0.00000329,0.00002
 342,0.00000205,0.,0.00000660,0.00000273,-0.00000850,0.00002043,-0.0000
 0024,-0.00079350,-0.00001376,-0.00072371,-0.00028879,-0.00093544,0.002
 06955,-0.00005442,-0.00013317,-0.00003698,-0.00026667,0.00008403,0.000
 26120,0.00548295,-0.00274533,-0.00366550,0.00000693,0.00053958,-0.0001
 5475,-0.00179254,-0.00040690,0.00117269,0.00380306,0.02194465,-0.09776
 171,0.01285188,0.02782326,-0.01361475,-0.00910668,-0.01792294,0.006846
 35,-0.16937838,-0.01159185,0.34680461,0.00006493,-0.00032507,-0.000033
 10,-0.00007484,-0.00007328,0.00005862,-0.00003706,0.00003945,0.0000024
 7,-0.00008419,-0.00001425,0.00004997,0.00007105,0.00034936,0.00001527,
 -0.00000999,0.00000051,-0.00000189,0.00003087,-0.00003394,-0.00000079,
 -0.00003087,-0.00000113,0.00000779,0.00000788,0.00003014,-0.00001144,-
 0.00002989,-0.00000703,0.00000370,-0.00000353,0.00002293,0.00000264,-0
 .00000160,0.00000284,0.00000265,-0.00000904,0.00002135,-0.00000088,-0.
 00054513,-0.00002697,-0.00049194,0.00081786,-0.00009535,0.00100762,-0.
 00015984,-0.00012608,-0.00005401,0.00019197,0.00020350,0.00010405,0.00
 061470,-0.00631131,0.00321189,0.00014651,0.00008775,-0.00019732,-0.003
 19327,-0.00045211,0.00010332,-0.02474015,-0.00312607,0.02861359,-0.002
 20257,-0.00227126,0.00214589,-0.00008719,0.00131738,-0.00186230,-0.328
 62656,-0.00711819,0.14518580,0.41767251,0.00000459,-0.00022511,-0.0000
 0755,-0.00002212,-0.00001094,0.00003057,-0.00002127,0.00000615,0.00000
 662,-0.00004527,0.00001363,0.00003099,0.00009028,0.00018786,-0.0000070
 0,-0.00000315,0.00000224,-0.00000353,-0.00001523,-0.00000554,-0.000020
 14,-0.00001318,-0.00000048,0.00000198,0.00000666,0.00001195,-0.0000069
 6,-0.00002144,-0.00001142,0.00000545,-0.00000356,0.00001248,0.00000085
 ,0.00000182,0.00000961,-0.00000116,-0.00000285,0.00001231,0.00000100,-
 0.00031558,0.00011456,-0.00036480,0.00066483,0.00007822,0.00072782,-0.
 00002072,0.00001476,-0.00004793,-0.00009166,0.00003297,-0.00024531,-0.
 00044943,-0.00390290,0.00338957,-0.00053096,0.00061370,0.00027733,-0.0
 0202614,0.00020904,0.00029599,-0.02694148,0.00474074,0.01548543,-0.001
 15544,-0.00044984,0.00133708,-0.00119301,0.00314047,0.00036102,0.02454
 585,-0.09882012,-0.00999538,-0.06469646,0.11239637,-0.00005598,0.00026
 871,0.00003254,0.00007559,0.00005957,-0.00004454,0.00002932,-0.0000463
 8,-0.00000731,0.00004918,0.00002253,-0.00003889,-0.00003236,-0.0002930
 1,0.00000632,0.00000732,-0.00000088,0.00000139,-0.00001260,0.00002639,
 0.00000277,0.00002561,0.00000099,-0.00000502,-0.00000691,-0.00001964,0
 .00000368,0.00002465,0.00000792,-0.00000589,0.00000300,-0.00001887,-0.
 00000151,0.00000025,-0.00000492,-0.00000210,0.00000750,-0.00001713,0.0
 0000012,0.00055178,0.00003558,0.00047766,-0.00038368,0.00018576,-0.001
 08520,0.00008690,0.00012488,0.00004443,-0.00011258,-0.00004562,-0.0001
 1874,-0.00027871,0.00675467,-0.00158219,-0.00019151,-0.00024457,0.0001
 4124,0.00264952,0.00017407,-0.00026993,0.03389335,0.00365976,0.0018686
 1,-0.00096828,-0.00269897,0.00159913,0.00076127,0.00115717,0.00076374,
 0.14113446,0.00766369,-0.15827847,-0.21484573,0.02351927,0.14695960,0.
 00016413,-0.00010939,0.00000114,-0.00004222,-0.00005669,-0.00000531,-0
 .00002167,0.00002120,0.00000234,-0.00007635,-0.00004121,-0.00000514,-0
 .00008809,0.00023332,0.00005684,-0.00000724,-0.00000062,0.00000448,0.0
 0004416,-0.00005434,0.00001797,-0.00002747,0.00000122,0.00000370,0.000
 00545,0.00002774,0.00000403,-0.00001530,-0.00000407,0.00000315,-0.0000
 0306,0.00001382,0.00000221,0.00000046,-0.00000064,0.00000139,-0.000005
 43,0.00001394,-0.00000076,-0.00006416,-0.00049895,0.00011803,-0.000132
 64,-0.00004666,-0.00072781,-0.00030705,-0.00032932,0.00008452,-0.00028
 604,-0.00084126,0.00080317,-0.00074338,-0.00052246,0.00053548,0.000312
 52,-0.00264569,-0.00086406,0.00041830,-0.00130259,-0.00058565,0.011340
 79,-0.00114767,0.00511131,-0.00033287,-0.00260116,0.00124083,0.0012332
 0,-0.00157893,-0.00000277,-0.13565305,0.12679708,0.01452524,-0.0597825
 5,0.07225492,0.03758864,0.18406957,-0.00001319,-0.00041737,0.00001095,
 -0.00001039,0.00000227,0.00005162,-0.00004169,-0.00002167,0.00000080,-
 0.00012565,0.00002374,0.00006335,0.00012653,0.00036279,0.00001047,-0.0
 0000577,0.00000417,-0.00000463,-0.00001667,-0.00002067,-0.00003642,-0.
 00002766,0.00000141,0.00000718,0.00001597,0.00002366,-0.00001752,-0.00
 004504,-0.00002702,0.00000741,-0.00000763,0.00002378,0.00000183,0.0000
 0568,0.00002062,-0.00000296,-0.00000522,0.00002431,0.00000269,-0.00059
 975,0.00004221,-0.00056742,0.00069698,0.00043919,0.00067426,-0.0001004
 4,-0.00006588,0.00008110,-0.00011625,-0.00009608,0.00013246,0.00325597
 ,-0.00126103,-0.00176309,-0.00095332,0.00016818,0.00009785,-0.00115120
 ,0.00005279,0.00019512,0.01625944,-0.04774082,0.00132993,-0.00069435,-
 0.00312769,0.00094312,-0.00331720,-0.00731780,0.00355761,0.09184916,-0
 .37914414,-0.00666633,0.08260328,-0.01817074,-0.04027095,-0.18758160,0
 .45622179,0.00000562,0.00006987,-0.00002602,0.00000875,-0.00000331,-0.
 00000229,0.00000353,-0.00000810,-0.00000175,-0.00001015,-0.00001177,-0
 .00001608,-0.00006730,-0.00001514,0.00001960,-0.00000008,-0.00000043,0
 .00000136,0.00000425,-0.00000826,-0.00001334,-0.00000251,0.00000083,-0
 .00000418,-0.00000041,-0.00000114,0.00000772,0.00000369,0.00000043,-0.
 00000071,-0.00000252,-0.00000170,0.00000073,-0.00000012,-0.00000022,-0
 .00000352,0.00000189,-0.00000086,0.00000021,0.00004220,-0.00023599,0.0
 0019856,-0.00052768,0.00034054,-0.00087943,0.00000695,-0.00016977,0.00
 017062,-0.00022390,-0.00053644,0.00023735,0.00013227,0.00171987,-0.000
 90130,-0.00035428,0.00104401,0.00050739,0.00033877,0.00043317,0.000153
 80,0.00249226,0.01437975,0.01980607,-0.00129826,-0.00305021,0.00107416
 ,0.00192084,0.00416373,-0.00121016,0.01845502,-0.02549926,-0.08295539,
 0.03698415,-0.03477119,0.00953854,-0.05791298,0.04216159,0.05429808\\0
 .00000672,-0.00000660,-0.00000346,-0.00000963,-0.00000103,-0.00000083,
 0.00000087,0.00001176,0.00000521,0.00000586,-0.00000240,0.00001199,-0.
 00001121,-0.00000746,0.00001492,-0.00000036,0.00000430,0.00000715,0.00
 000029,-0.00000134,-0.00001007,-0.00000354,0.00000339,0.00001982,-0.00
 000247,-0.00000228,0.00001680,0.00000518,0.00000324,-0.00001265,0.0000
 0408,0.00001051,-0.00000912,0.00000284,0.00000214,-0.00001645,0.000000
 21,-0.00000095,-0.00000916,0.00000406,0.00000866,0.00000252,-0.0000037
 9,-0.00000540,0.00000409,-0.00000303,-0.00000888,0.00000638,-0.0000002
 4,-0.00000873,-0.00000425,0.00000012,0.00000172,0.00000176,0.00000203,
 0.00000705,-0.00000365,0.00000008,0.00000641,0.00000786,0.00000259,0.0
 0000388,-0.00000347,0.00000026,0.00000539,0.00000171,-0.00000134,-0.00
 000493,0.00000638,-0.00000011,-0.00001210,-0.00000790,0.00000012,-0.00
 000734,-0.00001029,0.00000042,0.00000101,-0.00001528\\\@


 DEPRESSION IS WAITING FOR YOUR SHIP TO COME IN,
 AND FINDING OUT IT'S THE TITANIC.
 Job cpu time:       0 days  2 hours 53 minutes 54.3 seconds.
 Elapsed time:       0 days  0 hours  7 minutes 26.9 seconds.
 File lengths (MBytes):  RWF=    466 Int=      0 D2E=      0 Chk=     24 Scr=      1
 Normal termination of Gaussian 16 at Thu Oct 12 09:13:29 2023.
