 Entering Gaussian System, Link 0=g16
 Initial command:
 /data0/home/wuhanyu/software/g16/l1.exe "/data0/home/wuhanyu/software/g16/scratch/Gau-2626096.inp" -scrdir="/data0/home/wuhanyu/software/g16/scratch/"
 Default is to use a total of  22 processors:
                               22 via shared-memory
                                1 via Linda
 Entering Link 1 = /data0/home/wuhanyu/software/g16/l1.exe PID=   2626097.
  
 Copyright (c) 1988,1990,1992,1993,1995,1998,2003,2009,2016,
            Gaussian, Inc.  All Rights Reserved.
  
 This is part of the Gaussian(R) 16 program.  It is based on
 the Gaussian(R) 09 system (copyright 2009, Gaussian, Inc.),
 the Gaussian(R) 03 system (copyright 2003, Gaussian, Inc.),
 the Gaussian(R) 98 system (copyright 1998, Gaussian, Inc.),
 the Gaussian(R) 94 system (copyright 1995, Gaussian, Inc.),
 the Gaussian 92(TM) system (copyright 1992, Gaussian, Inc.),
 the Gaussian 90(TM) system (copyright 1990, Gaussian, Inc.),
 the Gaussian 88(TM) system (copyright 1988, Gaussian, Inc.),
 the Gaussian 86(TM) system (copyright 1986, Carnegie Mellon
 University), and the Gaussian 82(TM) system (copyright 1983,
 Carnegie Mellon University). Gaussian is a federally registered
 trademark of Gaussian, Inc.
  
 This software contains proprietary and confidential information,
 including trade secrets, belonging to Gaussian, Inc.
  
 This software is provided under written license and may be
 used, copied, transmitted, or stored only in accord with that
 written license.
  
 The following legend is applicable only to US Government
 contracts under FAR:
  
                    RESTRICTED RIGHTS LEGEND
  
 Use, reproduction and disclosure by the US Government is
 subject to restrictions as set forth in subparagraphs (a)
 and (c) of the Commercial Computer Software - Restricted
 Rights clause in FAR 52.227-19.
  
 Gaussian, Inc.
 340 Quinnipiac St., Bldg. 40, Wallingford CT 06492
  
  
 ---------------------------------------------------------------
 Warning -- This program may not be used in any manner that
 competes with the business of Gaussian, Inc. or will provide
 assistance to any competitor of Gaussian, Inc.  The licensee
 of this program is prohibited from giving any competitor of
 Gaussian, Inc. access to this program.  By using this program,
 the user acknowledges that Gaussian, Inc. is engaged in the
 business of creating and licensing software in the field of
 computational chemistry and represents and warrants to the
 licensee that it is not a competitor of Gaussian, Inc. and that
 it will not use this program in any manner prohibited above.
 ---------------------------------------------------------------
  

 Cite this work as:
 Gaussian 16, Revision A.03,
 M. J. Frisch, G. W. Trucks, H. B. Schlegel, G. E. Scuseria, 
 M. A. Robb, J. R. Cheeseman, G. Scalmani, V. Barone, 
 G. A. Petersson, H. Nakatsuji, X. Li, M. Caricato, A. V. Marenich, 
 J. Bloino, B. G. Janesko, R. Gomperts, B. Mennucci, H. P. Hratchian, 
 J. V. Ortiz, A. F. Izmaylov, J. L. Sonnenberg, D. Williams-Young, 
 F. Ding, F. Lipparini, F. Egidi, J. Goings, B. Peng, A. Petrone, 
 T. Henderson, D. Ranasinghe, V. G. Zakrzewski, J. Gao, N. Rega, 
 G. Zheng, W. Liang, M. Hada, M. Ehara, K. Toyota, R. Fukuda, 
 J. Hasegawa, M. Ishida, T. Nakajima, Y. Honda, O. Kitao, H. Nakai, 
 T. Vreven, K. Throssell, J. A. Montgomery, Jr., J. E. Peralta, 
 F. Ogliaro, M. J. Bearpark, J. J. Heyd, E. N. Brothers, K. N. Kudin, 
 V. N. Staroverov, T. A. Keith, R. Kobayashi, J. Normand, 
 K. Raghavachari, A. P. Rendell, J. C. Burant, S. S. Iyengar, 
 J. Tomasi, M. Cossi, J. M. Millam, M. Klene, C. Adamo, R. Cammi, 
 J. W. Ochterski, R. L. Martin, K. Morokuma, O. Farkas, 
 J. B. Foresman, and D. J. Fox, Gaussian, Inc., Wallingford CT, 2016.
 
 ******************************************
 Gaussian 16:  ES64L-G16RevA.03 25-Dec-2016
                26-Apr-2022 
 ******************************************
 %chk=BI_PA_H2O_4.chk
 %nproc=16
 Will use up to   16 processors via shared memory.
 %mem=80000MB
 ---------------------------------------------------
 #p M062X/6-311+G(2d,p) nosymm em=GD3 counterpoise=6
 ---------------------------------------------------
 1/38=1,62=6,172=1/1;
 2/12=2,15=1,17=6,18=5,40=1/2;
 1/38=1,53=2,62=6,63=1/22;
 3/5=4,6=6,7=112,11=2,25=1,30=1,74=-55,124=31/1,2,3;
 4//1;
 5/5=2,38=5/2;
 6/7=2,8=2,9=2,10=2,28=1/1;
 1/53=2,62=6,63=1/22;
 3/5=7,6=11,7=112,11=2,25=1,30=1,74=-55,82=7,124=31/1,2,3;
 4//1;
 5/5=2,38=5/2;
 6/7=2,8=2,9=2,10=2,28=1/1;
 1/53=2,62=6,63=1/22(-4);
 99/5=1,9=1/99;
 Leave Link    1 at Tue Apr 26 18:57:20 2022, MaxMem= 10485760000 cpu:               0.5 elap:               0.0
 (Enter /data0/home/wuhanyu/software/g16/l101.exe)
 -------------------
 Title Card Required
 -------------------
 Symbolic Z-matrix:
 Charge =  0 Multiplicity = 1 in supermolecule
 Charge =  0 Multiplicity = 1 in fragment      1.
 Charge =  0 Multiplicity = 1 in fragment      2.
 Charge =  0 Multiplicity = 1 in fragment      3.
 Charge =  0 Multiplicity = 1 in fragment      4.
 Charge =  0 Multiplicity = 1 in fragment      5.
 Charge =  0 Multiplicity = 1 in fragment      6.
 C                     9.84796   14.61099   10.82688    
 C                     9.86731   13.31539   10.20356    
 C                     10.89879   12.97333   9.32261    
 C                     11.87853   13.92011   9.08438    
 C                     11.85305   15.19094   9.70103    
 C                     10.84502   15.55737   10.57491    
 H                     10.91647   11.99108   8.85559    
 H                     12.70183   13.68723   8.40969    
 H                     12.65619   15.89362   9.47846    
 H                     10.82191   16.53423   11.05016    
 H                     8.37741   15.43295   12.17085    
 C                     8.07816   13.40015   11.47674    
 H                     7.15019   13.14948   11.9764    
 N                     8.71317   14.63033   11.63808    
 N                     8.75272   12.59485   10.63898    
 P                     6.11221   14.51076   8.68123    
 O                     5.81779   14.15888   10.07251    
 O                     7.06723   13.56414   7.84021    
 H                     7.12178   12.59592   8.26105    
 O                     4.75797   14.60419   7.85615    
 H                     4.9842    14.83654   6.88011    
 O                     6.78623   15.93504   8.49369    
 H                     7.73052   15.81584   8.05366    
 O                     9.33763   15.40816   7.36604    
 H                     9.12353   14.50919   7.08377    
 H                     9.93797   15.29083   8.11291    
 O                     7.35486   11.05734   8.90339    
 H                     8.07812   11.29595   9.54468    
 H                     6.59324   10.90519   9.46337    
 O                     7.39235   16.60763   13.07731    
 H                     7.23536   16.56476   14.01493    
 H                     6.50377   16.55931   12.66342    
 O                     4.93238   16.25889   11.95168    
 H                     5.12248   15.49451   11.37917    
 H                     4.70171   16.95495   11.3324    
 
 ITRead=  0  0  0  0  0  0  0  0  0  0  0  0  0  0  0  0  0  0  0  0
 ITRead=  0  0  0  0  0  0  0  0  0  0  0  0  0  0  0
 MicOpt= -1 -1 -1 -1 -1 -1 -1 -1 -1 -1 -1 -1 -1 -1 -1 -1 -1 -1 -1 -1
 MicOpt= -1 -1 -1 -1 -1 -1 -1 -1 -1 -1 -1 -1 -1 -1 -1
 NAtoms=     35 NQM=       35 NQMF=       0 NMMI=      0 NMMIF=      0
                NMic=       0 NMicF=      0.
                    Isotopes and Nuclear Properties:
 (Nuclear quadrupole moments (NQMom) in fm**2, nuclear magnetic moments (NMagM)
  in nuclear magnetons)

  Atom         1           2           3           4           5           6           7           8           9          10
 IAtWgt=          12          12          12          12          12          12           1           1           1           1
 AtmWgt=  12.0000000  12.0000000  12.0000000  12.0000000  12.0000000  12.0000000   1.0078250   1.0078250   1.0078250   1.0078250
 NucSpn=           0           0           0           0           0           0           1           1           1           1
 AtZEff=  -0.0000000  -0.0000000  -0.0000000  -0.0000000  -0.0000000  -0.0000000  -0.0000000  -0.0000000  -0.0000000  -0.0000000
 NQMom=    0.0000000   0.0000000   0.0000000   0.0000000   0.0000000   0.0000000   0.0000000   0.0000000   0.0000000   0.0000000
 NMagM=    0.0000000   0.0000000   0.0000000   0.0000000   0.0000000   0.0000000   2.7928460   2.7928460   2.7928460   2.7928460
 AtZNuc=   6.0000000   6.0000000   6.0000000   6.0000000   6.0000000   6.0000000   1.0000000   1.0000000   1.0000000   1.0000000

  Atom        11          12          13          14          15          16          17          18          19          20
 IAtWgt=           1          12           1          14          14          31          16          16           1          16
 AtmWgt=   1.0078250  12.0000000   1.0078250  14.0030740  14.0030740  30.9737634  15.9949146  15.9949146   1.0078250  15.9949146
 NucSpn=           1           0           1           2           2           1           0           0           1           0
 AtZEff=  -0.0000000  -0.0000000  -0.0000000  -0.0000000  -0.0000000  -0.0000000  -0.0000000  -0.0000000  -0.0000000  -0.0000000
 NQMom=    0.0000000   0.0000000   0.0000000   2.0440000   2.0440000   0.0000000   0.0000000   0.0000000   0.0000000   0.0000000
 NMagM=    2.7928460   0.0000000   2.7928460   0.4037610   0.4037610   1.1316000   0.0000000   0.0000000   2.7928460   0.0000000
 AtZNuc=   1.0000000   6.0000000   1.0000000   7.0000000   7.0000000  15.0000000   8.0000000   8.0000000   1.0000000   8.0000000

  Atom        21          22          23          24          25          26          27          28          29          30
 IAtWgt=           1          16           1          16           1           1          16           1           1          16
 AtmWgt=   1.0078250  15.9949146   1.0078250  15.9949146   1.0078250   1.0078250  15.9949146   1.0078250   1.0078250  15.9949146
 NucSpn=           1           0           1           0           1           1           0           1           1           0
 AtZEff=  -0.0000000  -0.0000000  -0.0000000  -0.0000000  -0.0000000  -0.0000000  -0.0000000  -0.0000000  -0.0000000  -0.0000000
 NQMom=    0.0000000   0.0000000   0.0000000   0.0000000   0.0000000   0.0000000   0.0000000   0.0000000   0.0000000   0.0000000
 NMagM=    2.7928460   0.0000000   2.7928460   0.0000000   2.7928460   2.7928460   0.0000000   2.7928460   2.7928460   0.0000000
 AtZNuc=   1.0000000   8.0000000   1.0000000   8.0000000   1.0000000   1.0000000   8.0000000   1.0000000   1.0000000   8.0000000

  Atom        31          32          33          34          35
 IAtWgt=           1           1          16           1           1
 AtmWgt=   1.0078250   1.0078250  15.9949146   1.0078250   1.0078250
 NucSpn=           1           1           0           1           1
 AtZEff=  -0.0000000  -0.0000000  -0.0000000  -0.0000000  -0.0000000
 NQMom=    0.0000000   0.0000000   0.0000000   0.0000000   0.0000000
 NMagM=    2.7928460   2.7928460   0.0000000   2.7928460   2.7928460
 AtZNuc=   1.0000000   1.0000000   8.0000000   1.0000000   1.0000000
 Leave Link  101 at Tue Apr 26 18:57:20 2022, MaxMem= 10485760000 cpu:               1.4 elap:               0.1
 (Enter /data0/home/wuhanyu/software/g16/l202.exe)
                          Input orientation:                          
 ---------------------------------------------------------------------
 Center     Atomic      Atomic             Coordinates (Angstroms)
 Number     Number       Type             X           Y           Z
 ---------------------------------------------------------------------
      1          6           0        9.847955   14.610989   10.826879
      2          6           0        9.867309   13.315388   10.203558
      3          6           0       10.898788   12.973325    9.322610
      4          6           0       11.878528   13.920108    9.084385
      5          6           0       11.853051   15.190938    9.701028
      6          6           0       10.845021   15.557368   10.574907
      7          1           0       10.916469   11.991078    8.855594
      8          1           0       12.701827   13.687227    8.409694
      9          1           0       12.656190   15.893616    9.478459
     10          1           0       10.821907   16.534233   11.050156
     11          1           0        8.377410   15.432946   12.170852
     12          6           0        8.078158   13.400152   11.476742
     13          1           0        7.150188   13.149479   11.976404
     14          7           0        8.713175   14.630331   11.638084
     15          7           0        8.752718   12.594850   10.638980
     16         15           0        6.112212   14.510759    8.681228
     17          8           0        5.817793   14.158877   10.072515
     18          8           0        7.067226   13.564139    7.840209
     19          1           0        7.121777   12.595920    8.261051
     20          8           0        4.757972   14.604188    7.856154
     21          1           0        4.984199   14.836538    6.880109
     22          8           0        6.786232   15.935041    8.493694
     23          1           0        7.730517   15.815838    8.053657
     24          8           0        9.337632   15.408159    7.366039
     25          1           0        9.123531   14.509190    7.083769
     26          1           0        9.937965   15.290827    8.112915
     27          8           0        7.354858   11.057340    8.903386
     28          1           0        8.078119   11.295952    9.544681
     29          1           0        6.593239   10.905185    9.463369
     30          8           0        7.392347   16.607630   13.077314
     31          1           0        7.235360   16.564763   14.014928
     32          1           0        6.503768   16.559306   12.663424
     33          8           0        4.932377   16.258886   11.951683
     34          1           0        5.122480   15.494507   11.379168
     35          1           0        4.701707   16.954954   11.332397
 ---------------------------------------------------------------------
                    Distance matrix (angstroms):
                    1          2          3          4          5
     1  C    0.000000
     2  C    1.437875   0.000000
     3  C    2.459475   1.398937   0.000000
     4  C    2.763481   2.379756   1.383127   0.000000
     5  C    2.371559   2.777300   2.443691   1.412766   0.000000
     6  C    1.397592   2.473923   2.872006   2.443443   1.383496
     7  H    3.448423   2.161375   1.087762   2.167731   3.439629
     8  H    3.852364   3.375012   2.143367   1.089616   2.156180
     9  H    3.368910   3.866637   3.411869   2.157495   1.090103
    10  H    2.167326   3.462506   3.958585   3.437201   2.165143
    11  H    2.155082   3.251784   4.529853   4.906402   4.270677
    12  C    2.240676   2.197554   3.574692   4.520679   4.539812
    13  H    3.276487   3.248577   4.596265   5.595967   5.609083
    14  N    1.395046   2.262513   3.589428   4.128590   3.731660
    15  N    2.302100   1.396811   2.545916   3.734135   4.151083
    16  P    4.309251   4.224589   5.068174   5.810491   5.870253
    17  O    4.125006   4.138505   5.271091   6.145398   6.134125
    18  O    4.212902   3.672569   4.150595   4.982300   5.386394
    19  H    4.251591   3.439319   3.941466   5.005800   5.585034
    20  O    5.893486   5.768590   6.520723   7.258019   7.354453
    21  H    6.267694   6.099506   6.664813   7.295920   7.433997
    22  O    4.070751   4.390815   5.135366   5.508207   5.261559
    23  H    3.691336   3.929403   4.441628   4.675702   4.483260
    24  O    3.587941   3.565356   3.491961   3.409276   3.438996
    25  H    3.813925   3.422200   3.243891   3.455357   3.842539
    26  H    2.799265   2.877176   2.785203   2.566790   2.489907
    27  O    4.748029   3.619618   4.050455   5.356472   6.160893
    28  H    3.970620   2.777308   3.289235   4.641247   5.426368
    29  H    5.117159   4.132371   4.778574   6.096529   6.788946
    30  O    3.883432   5.022227   6.292941   6.579671   5.770979
    31  H    4.561419   5.657927   6.952480   7.270726   6.466854
    32  H    4.283973   5.280848   6.583046   6.975882   6.266023
    33  O    5.305059   6.006136   7.301027   7.870216   7.355385
    34  H    4.838981   5.352011   6.629595   7.306774   6.943262
    35  H    5.677463   6.419047   7.635210   8.109908   7.544192
                    6          7          8          9         10
     6  C    0.000000
     7  H    3.959743   0.000000
     8  H    3.410763   2.502649   0.000000
     9  H    2.143734   4.317915   2.452039   0.000000
    10  H    1.086582   5.046316   4.314114   2.499043   0.000000
    11  H    2.941365   5.411489   5.991196   5.076333   2.905918
    12  C    3.622488   4.112410   5.555854   5.582909   4.187195
    13  H    4.627517   5.026552   6.620520   6.639735   5.078978
    14  N    2.556269   4.422941   5.217403   4.669822   2.901250
    15  N    3.627444   2.868244   4.664597   5.240779   4.468708
    16  P    5.203930   5.427714   6.646425   6.735838   5.646901
    17  O    5.242251   5.672455   7.097700   7.079964   5.624878
    18  O    5.071811   4.280444   5.664644   6.272706   5.763926
    19  H    5.290241   3.888316   5.687706   6.556417   6.081149
    20  O    6.734414   6.764193   8.015738   8.165559   7.120255
    21  H    6.965656   6.869571   7.951247   8.168738   7.372265
    22  O    4.576882   5.722296   6.328822   5.952133   4.814686
    23  H    4.015426   5.042041   5.419564   5.128193   4.364836
    24  O    3.548425   4.048202   3.920285   3.963687   4.128418
    25  H    4.031160   3.562987   3.903576   4.486742   4.766288
    26  H    2.637271   3.520992   3.209134   3.101099   3.309803
    27  O    5.935105   3.682285   5.979140   7.198916   6.828280
    28  H    5.184282   3.002378   5.327764   6.488577   6.102001
    29  H    6.399685   4.498763   6.794471   7.851372   7.217043
    30  O    4.391588   7.180175   7.648922   6.416355   3.984550
    31  H    5.087066   7.815874   8.341530   7.100379   4.653399
    32  H    4.920596   7.405417   8.047297   6.959845   4.609727
    33  O    6.111219   7.975544   8.917593   8.118346   5.964489
    34  H    5.779123   7.225839   8.338497   7.780024   5.802822
    35  H    6.345656   8.330539   9.122618   8.236342   6.141133
                   11         12         13         14         15
    11  H    0.000000
    12  C    2.168777   0.000000
    13  H    2.599636   1.083341   0.000000
    14  N    1.020182   1.393778   2.179521   0.000000
    15  N    3.246887   1.343647   2.159727   2.267808   0.000000
    16  P    4.261341   3.593507   3.713309   3.939835   3.804704
    17  O    3.546535   2.767086   2.533565   3.325133   3.373551
    18  O    4.895252   3.777995   4.157756   4.274315   3.407862
    19  H    4.991180   3.449945   3.756472   4.251556   2.883490
    20  O    5.692433   5.057865   4.981499   5.472413   5.266835
    21  H    6.313600   5.724056   5.788774   6.048645   5.775466
    22  O    4.037999   4.122294   4.474493   3.911849   4.430146
    23  H    4.185256   4.204034   4.778514   3.901174   4.254827
    24  O    4.899885   4.745129   5.580503   4.386950   4.355339
    25  H    5.223833   4.649837   5.448006   4.574369   4.054840
    26  H    4.349986   4.283558   5.223372   3.789879   3.879962
    27  O    5.555886   3.554447   3.723221   4.699985   2.707441
    28  H    4.909284   2.856662   3.195293   3.987946   1.827487
    29  H    5.569053   3.533202   3.415025   4.806270   2.983350
    30  O    1.780984   3.649669   3.637231   2.779511   4.888608
    31  H    2.446611   4.143363   3.978316   3.402257   5.427671
    32  H    2.240948   3.723865   3.537906   3.107048   4.987290
    33  O    3.549432   4.277133   3.819386   4.128555   5.453747
    34  H    3.350391   3.623793   3.157126   3.702287   4.704733
    35  H    4.065748   4.904883   4.570716   4.646417   5.991830
                   16         17         18         19         20
    16  P    0.000000
    17  O    1.464986   0.000000
    18  O    1.586018   2.626402   0.000000
    19  H    2.205080   2.724814   1.057134   0.000000
    20  O    1.588535   2.496754   2.532708   3.128043   0.000000
    21  H    2.150017   3.368317   2.622936   3.390665   1.028508
    22  O    1.586837   2.566186   2.475313   3.363992   2.508279
    23  H    2.171632   3.237255   2.357045   3.283512   3.216073
    24  O    3.596996   4.612481   2.963105   3.690494   4.675454
    25  H    3.408800   4.470260   2.386150   3.008922   4.434378
    26  H    3.945614   4.700762   3.361095   3.900690   5.231608
    27  O    3.676904   3.653623   2.738087   1.683493   4.518921
    28  H    3.865918   3.685651   3.011943   2.062089   4.981860
    29  H    3.720658   3.399836   3.151087   2.140912   4.431023
    30  O    5.035989   4.183829   6.065955   6.274027   6.181765
    31  H    5.824839   4.831191   6.867253   6.990831   6.921835
    32  H    4.495303   3.597976   5.705428   5.955775   5.475412
    33  O    3.891508   2.953857   5.359427   5.641946   4.420611
    34  H    3.037468   1.993667   4.475778   4.703366   3.652008
    35  H    3.871991   3.263587   5.411902   5.855859   4.196848
                   21         22         23         24         25
    21  H    0.000000
    22  O    2.656631   0.000000
    23  H    3.143009   1.048578   0.000000
    24  O    4.417608   2.838812   1.794948   0.000000
    25  H    4.157247   3.079595   2.142078   0.966261   0.000000
    26  H    5.125035   3.239356   2.269796   0.965396   1.527547
    27  O    4.898572   4.927794   4.848346   5.022395   4.284213
    28  H    5.404446   4.928965   4.772143   4.821110   4.180176
    29  H    4.971698   5.126106   5.234043   5.675144   5.005370
    30  O    6.880501   4.672186   5.096903   6.151547   6.582023
    31  H    7.678550   5.575149   6.028501   7.068593   7.472050
    32  H    6.222841   4.225653   4.827796   6.117043   6.496051
    33  O    5.267506   3.936920   4.818764   6.415461   6.657612
    34  H    4.549019   3.359777   4.238412   5.820667   5.952286
    35  H    4.938659   3.666565   4.606670   6.294154   6.601903
                   26         27         28         29         30
    26  H    0.000000
    27  O    5.021922   0.000000
    28  H    4.633358   0.995641   0.000000
    29  H    5.678448   0.957494   1.537589   0.000000
    30  O    5.732312   6.944696   6.415895   6.798312   0.000000
    31  H    6.615190   7.514908   6.960871   7.291079   0.951631
    32  H    5.840366   6.718175   6.317281   6.497495   0.981434
    33  O    6.381942   6.497431   6.349808   6.132885   2.727658
    34  H    5.822267   5.549906   5.452431   5.186067   3.045495
    35  H    6.368107   6.908050   6.827913   6.608393   3.225665
                   31         32         33         34         35
    31  H    0.000000
    32  H    1.536821   0.000000
    33  O    3.107132   1.751027   0.000000
    34  H    3.543577   2.165887   0.973749   0.000000
    35  H    3.710474   2.274993   0.959810   1.520573   0.000000
 Symmetry turned off by external request.
 Stoichiometry    C7H17N2O8P
 Framework group  C1[X(C7H17N2O8P)]
 Deg. of freedom    99
 Full point group                 C1      NOp   1
 Rotational constants (GHZ):           0.3949278           0.2823007           0.2290904
 Leave Link  202 at Tue Apr 26 18:57:20 2022, MaxMem= 10485760000 cpu:               0.1 elap:               0.0
 (Enter /data0/home/wuhanyu/software/g16/l122.exe)
 Counterpoise: doing full-system calculation.
 Leave Link  122 at Tue Apr 26 18:57:20 2022, MaxMem= 10485760000 cpu:               0.0 elap:               0.0
 (Enter /data0/home/wuhanyu/software/g16/l301.exe)
 Standard basis: 6-311+G(2d,p) (5D, 7F)
 Ernie: Thresh=  0.10000D-02 Tol=  0.10000D-05 Strict=F.
   596 basis functions,   906 primitive gaussians,   632 cartesian basis functions
    76 alpha electrons       76 beta electrons
       nuclear repulsion energy      1696.6567726967 Hartrees.
 IExCor= 4336 DFT=T Ex+Corr=M062X ExCW=0 ScaHFX=  0.540000
 ScaDFX=  1.000000  1.000000  1.000000  1.000000 ScalE2=  1.000000  1.000000
 IRadAn=      5 IRanWt=     -1 IRanGd=            0 ICorTp=0 IEmpDi=131
 NAtoms=   35 NActive=   35 NUniq=   35 SFac= 1.00D+00 NAtFMM=   60 NAOKFM=F Big=F
 Integral buffers will be    131072 words long.
 Raffenetti 2 integral format.
 Two-electron integral symmetry is turned off.
 R6Disp:  Grimme-D3 Dispersion energy=       -0.0027485922 Hartrees.
 Nuclear repulsion after empirical dispersion term =     1696.6540241045 Hartrees.
 Leave Link  301 at Tue Apr 26 18:57:20 2022, MaxMem= 10485760000 cpu:               0.8 elap:               0.1
 (Enter /data0/home/wuhanyu/software/g16/l302.exe)
 NPDir=0 NMtPBC=     1 NCelOv=     1 NCel=       1 NClECP=     1 NCelD=      1
         NCelK=      1 NCelE2=     1 NClLst=     1 CellRange=     0.0.
 One-electron integrals computed using PRISM.
 NBasis=   596 RedAO= T EigKep=  1.23D-06  NBF=   596
 NBsUse=   595 1.00D-06 EigRej=  9.44D-07 NBFU=   595
 Precomputing XC quadrature grid using
 IXCGrd= 4 IRadAn=           5 IRanWt=          -1 IRanGd=           0 AccXCQ= 0.00D+00.
 Generated NRdTot=       0 NPtTot=           0 NUsed=           0 NTot=          32
 NSgBfM=   630   628   629   630   630 MxSgAt=    35 MxSgA2=    35.
 Leave Link  302 at Tue Apr 26 18:57:21 2022, MaxMem= 10485760000 cpu:              12.7 elap:               0.8
 (Enter /data0/home/wuhanyu/software/g16/l303.exe)
 DipDrv:  MaxL=1.
 Leave Link  303 at Tue Apr 26 18:57:21 2022, MaxMem= 10485760000 cpu:               1.1 elap:               0.1
 (Enter /data0/home/wuhanyu/software/g16/l401.exe)
 ExpMin= 3.48D-02 ExpMax= 7.75D+04 ExpMxC= 2.65D+03 IAcc=3 IRadAn=         5 AccDes= 0.00D+00
 Harris functional with IExCor= 1009 and IRadAn=       5 diagonalized for initial guess.
 HarFok:  IExCor= 1009 AccDes= 0.00D+00 IRadAn=         5 IDoV= 1 UseB2=F ITyADJ=14
 ICtDFT=  3500011 ScaDFX=  1.000000  1.000000  1.000000  1.000000
 FoFCou: FMM=F IPFlag=           0 FMFlag=      100000 FMFlg1=           0
         NFxFlg=           0 DoJE=T BraDBF=F KetDBF=T FulRan=T
         wScrn=  0.000000 ICntrl=       500 IOpCl=  0 I1Cent=   200000004 NGrid=           0
         NMat0=    1 NMatS0=      1 NMatT0=    0 NMatD0=    1 NMtDS0=    0 NMtDT0=    0
 Symmetry not used in FoFCou.
 Harris En= -1329.23811156897    
 JPrj=0 DoOrth=F DoCkMO=F.
 Leave Link  401 at Tue Apr 26 18:57:24 2022, MaxMem= 10485760000 cpu:              53.4 elap:               3.4
 (Enter /data0/home/wuhanyu/software/g16/l502.exe)
 Two-electron integral symmetry not used.
 Closed shell SCF:
 Using DIIS extrapolation, IDIIS=  1040.
 NGot= 10485760000 LenX= 10484946623 LenY= 10484546567
 Requested convergence on RMS density matrix=1.00D-08 within 128 cycles.
 Requested convergence on MAX density matrix=1.00D-06.
 Requested convergence on             energy=1.00D-06.
 No special actions if energy rises.
 Fock matrices will be formed incrementally for  20 cycles.

 Cycle   1  Pass 1  IDiag  1:
 FoFJK:  IHMeth= 1 ICntrl=       0 DoSepK=F KAlg= 0 I1Cent=           0 FoldK=F
 IRaf= 830000000 NMat=       1 IRICut=       1 DoRegI=T DoRafI=F ISym2E= 0 IDoP0=0 IntGTp=1.
 FoFCou: FMM=F IPFlag=           0 FMFlag=      100000 FMFlg1=           0
         NFxFlg=           0 DoJE=F BraDBF=F KetDBF=F FulRan=T
         wScrn=  0.000000 ICntrl=         0 IOpCl=  0 I1Cent=           0 NGrid=           0
         NMat0=    1 NMatS0=      1 NMatT0=    0 NMatD0=    1 NMtDS0=    0 NMtDT0=    0
 Symmetry not used in FoFCou.
 E= -1329.09128156195    
 DIIS: error= 2.81D-02 at cycle   1 NSaved=   1.
 NSaved= 1 IEnMin= 1 EnMin= -1329.09128156195     IErMin= 1 ErrMin= 2.81D-02
 ErrMax= 2.81D-02  0.00D+00 EMaxC= 1.00D-01 BMatC= 1.12D+00 BMatP= 1.12D+00
 IDIUse=3 WtCom= 7.19D-01 WtEn= 2.81D-01
 Coeff-Com:  0.100D+01
 Coeff-En:   0.100D+01
 Coeff:      0.100D+01
 Gap=     0.305 Goal=   None    Shift=    0.000
 GapD=    0.305 DampG=1.000 DampE=0.500 DampFc=0.5000 IDamp=-1.
 Damping current iteration by 5.00D-01
 RMSDP=2.76D-02 MaxDP=7.34D+00              OVMax= 1.93D-01

 Cycle   2  Pass 1  IDiag  1:
 RMSU=  7.54D-03    CP:  1.40D+00
 E= -1329.40256775986     Delta-E=       -0.311286197906 Rises=F Damp=T
 DIIS: error= 6.17D-03 at cycle   2 NSaved=   2.
 NSaved= 2 IEnMin= 2 EnMin= -1329.40256775986     IErMin= 2 ErrMin= 6.17D-03
 ErrMax= 6.17D-03  0.00D+00 EMaxC= 1.00D-01 BMatC= 6.10D-02 BMatP= 1.12D+00
 IDIUse=3 WtCom= 9.38D-01 WtEn= 6.17D-02
 Coeff-Com:  0.686D-02 0.993D+00
 Coeff-En:   0.746D-01 0.925D+00
 Coeff:      0.110D-01 0.989D+00
 Gap=     0.290 Goal=   None    Shift=    0.000
 RMSDP=7.39D-03 MaxDP=2.04D+00 DE=-3.11D-01 OVMax= 1.15D-01

 Cycle   3  Pass 1  IDiag  1:
 RMSU=  2.58D-03    CP:  1.17D+00  7.75D-01
 E= -1329.75727273390     Delta-E=       -0.354704974042 Rises=F Damp=F
 DIIS: error= 3.48D-03 at cycle   3 NSaved=   3.
 NSaved= 3 IEnMin= 3 EnMin= -1329.75727273390     IErMin= 3 ErrMin= 3.48D-03
 ErrMax= 3.48D-03  0.00D+00 EMaxC= 1.00D-01 BMatC= 1.61D-02 BMatP= 6.10D-02
 IDIUse=3 WtCom= 9.65D-01 WtEn= 3.48D-02
 Coeff-Com: -0.526D-01 0.293D+00 0.760D+00
 Coeff-En:   0.000D+00 0.000D+00 0.100D+01
 Coeff:     -0.508D-01 0.283D+00 0.768D+00
 Gap=     0.289 Goal=   None    Shift=    0.000
 RMSDP=1.63D-03 MaxDP=3.43D-01 DE=-3.55D-01 OVMax= 3.42D-02

 Cycle   4  Pass 1  IDiag  1:
 RMSU=  1.03D-03    CP:  1.13D+00  7.52D-01  9.15D-01
 E= -1329.76569935802     Delta-E=       -0.008426624117 Rises=F Damp=F
 DIIS: error= 2.00D-03 at cycle   4 NSaved=   4.
 NSaved= 4 IEnMin= 4 EnMin= -1329.76569935802     IErMin= 4 ErrMin= 2.00D-03
 ErrMax= 2.00D-03  0.00D+00 EMaxC= 1.00D-01 BMatC= 5.12D-03 BMatP= 1.61D-02
 IDIUse=3 WtCom= 9.80D-01 WtEn= 2.00D-02
 Coeff-Com: -0.281D-01 0.746D-01 0.414D+00 0.539D+00
 Coeff-En:   0.000D+00 0.000D+00 0.221D+00 0.779D+00
 Coeff:     -0.276D-01 0.731D-01 0.410D+00 0.544D+00
 Gap=     0.281 Goal=   None    Shift=    0.000
 RMSDP=4.90D-04 MaxDP=8.50D-02 DE=-8.43D-03 OVMax= 1.29D-02

 Cycle   5  Pass 1  IDiag  1:
 RMSU=  2.56D-04    CP:  1.13D+00  7.43D-01  9.36D-01  6.47D-01
 E= -1329.76948044898     Delta-E=       -0.003781090966 Rises=F Damp=F
 DIIS: error= 2.96D-04 at cycle   5 NSaved=   5.
 NSaved= 5 IEnMin= 5 EnMin= -1329.76948044898     IErMin= 5 ErrMin= 2.96D-04
 ErrMax= 2.96D-04  0.00D+00 EMaxC= 1.00D-01 BMatC= 1.50D-04 BMatP= 5.12D-03
 IDIUse=3 WtCom= 9.97D-01 WtEn= 2.96D-03
 Coeff-Com: -0.850D-02 0.158D-01 0.132D+00 0.231D+00 0.630D+00
 Coeff-En:   0.000D+00 0.000D+00 0.000D+00 0.000D+00 0.100D+01
 Coeff:     -0.848D-02 0.157D-01 0.131D+00 0.230D+00 0.631D+00
 Gap=     0.281 Goal=   None    Shift=    0.000
 RMSDP=1.06D-04 MaxDP=2.02D-02 DE=-3.78D-03 OVMax= 2.83D-03

 Cycle   6  Pass 1  IDiag  1:
 RMSU=  6.35D-05    CP:  1.13D+00  7.47D-01  9.41D-01  6.59D-01  7.09D-01
 E= -1329.76959422698     Delta-E=       -0.000113777995 Rises=F Damp=F
 DIIS: error= 9.14D-05 at cycle   6 NSaved=   6.
 NSaved= 6 IEnMin= 6 EnMin= -1329.76959422698     IErMin= 6 ErrMin= 9.14D-05
 ErrMax= 9.14D-05  0.00D+00 EMaxC= 1.00D-01 BMatC= 1.05D-05 BMatP= 1.50D-04
 IDIUse=1 WtCom= 1.00D+00 WtEn= 0.00D+00
 Coeff-Com: -0.137D-02 0.120D-02 0.233D-01 0.517D-01 0.257D+00 0.668D+00
 Coeff:     -0.137D-02 0.120D-02 0.233D-01 0.517D-01 0.257D+00 0.668D+00
 Gap=     0.281 Goal=   None    Shift=    0.000
 RMSDP=4.93D-05 MaxDP=1.21D-02 DE=-1.14D-04 OVMax= 9.71D-04

 Cycle   7  Pass 1  IDiag  1:
 RMSU=  2.56D-05    CP:  1.13D+00  7.44D-01  9.38D-01  6.60D-01  8.23D-01
                    CP:  7.26D-01
 E= -1329.76960334916     Delta-E=       -0.000009122177 Rises=F Damp=F
 DIIS: error= 3.00D-05 at cycle   7 NSaved=   7.
 NSaved= 7 IEnMin= 7 EnMin= -1329.76960334916     IErMin= 7 ErrMin= 3.00D-05
 ErrMax= 3.00D-05  0.00D+00 EMaxC= 1.00D-01 BMatC= 1.08D-06 BMatP= 1.05D-05
 IDIUse=1 WtCom= 1.00D+00 WtEn= 0.00D+00
 Coeff-Com:  0.289D-03-0.100D-02-0.377D-02-0.317D-02 0.396D-01 0.250D+00
 Coeff-Com:  0.718D+00
 Coeff:      0.289D-03-0.100D-02-0.377D-02-0.317D-02 0.396D-01 0.250D+00
 Coeff:      0.718D+00
 Gap=     0.281 Goal=   None    Shift=    0.000
 RMSDP=2.14D-05 MaxDP=7.79D-03 DE=-9.12D-06 OVMax= 4.97D-04

 Cycle   8  Pass 1  IDiag  1:
 RMSU=  1.01D-05    CP:  1.13D+00  7.44D-01  9.39D-01  6.64D-01  7.92D-01
                    CP:  8.38D-01  8.48D-01
 E= -1329.76960430937     Delta-E=       -0.000000960212 Rises=F Damp=F
 DIIS: error= 2.09D-05 at cycle   8 NSaved=   8.
 NSaved= 8 IEnMin= 8 EnMin= -1329.76960430937     IErMin= 8 ErrMin= 2.09D-05
 ErrMax= 2.09D-05  0.00D+00 EMaxC= 1.00D-01 BMatC= 3.70D-07 BMatP= 1.08D-06
 IDIUse=1 WtCom= 1.00D+00 WtEn= 0.00D+00
 Coeff-Com:  0.425D-03-0.807D-03-0.671D-02-0.121D-01-0.268D-01 0.515D-02
 Coeff-Com:  0.404D+00 0.637D+00
 Coeff:      0.425D-03-0.807D-03-0.671D-02-0.121D-01-0.268D-01 0.515D-02
 Coeff:      0.404D+00 0.637D+00
 Gap=     0.281 Goal=   None    Shift=    0.000
 RMSDP=9.38D-06 MaxDP=2.46D-03 DE=-9.60D-07 OVMax= 2.42D-04

 Cycle   9  Pass 1  IDiag  1:
 RMSU=  2.47D-06    CP:  1.13D+00  7.43D-01  9.39D-01  6.61D-01  8.14D-01
                    CP:  8.20D-01  1.01D+00  7.48D-01
 E= -1329.76960469615     Delta-E=       -0.000000386782 Rises=F Damp=F
 DIIS: error= 4.63D-06 at cycle   9 NSaved=   9.
 NSaved= 9 IEnMin= 9 EnMin= -1329.76960469615     IErMin= 9 ErrMin= 4.63D-06
 ErrMax= 4.63D-06  0.00D+00 EMaxC= 1.00D-01 BMatC= 1.63D-08 BMatP= 3.70D-07
 IDIUse=1 WtCom= 1.00D+00 WtEn= 0.00D+00
 Coeff-Com:  0.119D-03-0.203D-03-0.201D-02-0.393D-02-0.108D-01-0.129D-01
 Coeff-Com:  0.974D-01 0.221D+00 0.711D+00
 Coeff:      0.119D-03-0.203D-03-0.201D-02-0.393D-02-0.108D-01-0.129D-01
 Coeff:      0.974D-01 0.221D+00 0.711D+00
 Gap=     0.281 Goal=   None    Shift=    0.000
 RMSDP=2.58D-06 MaxDP=6.17D-04 DE=-3.87D-07 OVMax= 9.23D-05

 Cycle  10  Pass 1  IDiag  1:
 RMSU=  9.07D-07    CP:  1.13D+00  7.44D-01  9.39D-01  6.61D-01  8.13D-01
                    CP:  8.27D-01  1.01D+00  7.95D-01  1.07D+00
 E= -1329.76960471610     Delta-E=       -0.000000019949 Rises=F Damp=F
 DIIS: error= 3.30D-06 at cycle  10 NSaved=  10.
 NSaved=10 IEnMin=10 EnMin= -1329.76960471610     IErMin=10 ErrMin= 3.30D-06
 ErrMax= 3.30D-06  0.00D+00 EMaxC= 1.00D-01 BMatC= 6.06D-09 BMatP= 1.63D-08
 IDIUse=1 WtCom= 1.00D+00 WtEn= 0.00D+00
 Coeff-Com: -0.381D-04 0.812D-04 0.502D-03 0.675D-03 0.323D-03-0.877D-02
 Coeff-Com: -0.443D-01-0.394D-01 0.383D+00 0.707D+00
 Coeff:     -0.381D-04 0.812D-04 0.502D-03 0.675D-03 0.323D-03-0.877D-02
 Coeff:     -0.443D-01-0.394D-01 0.383D+00 0.707D+00
 Gap=     0.281 Goal=   None    Shift=    0.000
 RMSDP=7.26D-07 MaxDP=9.05D-05 DE=-1.99D-08 OVMax= 4.27D-05

 Cycle  11  Pass 1  IDiag  1:
 RMSU=  3.42D-07    CP:  1.13D+00  7.43D-01  9.39D-01  6.61D-01  8.13D-01
                    CP:  8.25D-01  1.03D+00  8.17D-01  1.21D+00  8.79D-01
 E= -1329.76960472423     Delta-E=       -0.000000008128 Rises=F Damp=F
 DIIS: error= 6.66D-07 at cycle  11 NSaved=  11.
 NSaved=11 IEnMin=11 EnMin= -1329.76960472423     IErMin=11 ErrMin= 6.66D-07
 ErrMax= 6.66D-07  0.00D+00 EMaxC= 1.00D-01 BMatC= 2.30D-10 BMatP= 6.06D-09
 IDIUse=1 WtCom= 1.00D+00 WtEn= 0.00D+00
 Coeff-Com: -0.199D-04 0.388D-04 0.329D-03 0.535D-03 0.104D-02-0.154D-02
 Coeff-Com: -0.219D-01-0.334D-01 0.439D-01 0.180D+00 0.831D+00
 Coeff:     -0.199D-04 0.388D-04 0.329D-03 0.535D-03 0.104D-02-0.154D-02
 Coeff:     -0.219D-01-0.334D-01 0.439D-01 0.180D+00 0.831D+00
 Gap=     0.281 Goal=   None    Shift=    0.000
 RMSDP=2.79D-07 MaxDP=5.49D-05 DE=-8.13D-09 OVMax= 1.93D-05

 Cycle  12  Pass 1  IDiag  1:
 RMSU=  1.25D-07    CP:  1.13D+00  7.43D-01  9.39D-01  6.61D-01  8.13D-01
                    CP:  8.24D-01  1.03D+00  8.24D-01  1.26D+00  9.25D-01
                    CP:  1.04D+00
 E= -1329.76960472481     Delta-E=       -0.000000000586 Rises=F Damp=F
 DIIS: error= 3.77D-07 at cycle  12 NSaved=  12.
 NSaved=12 IEnMin=12 EnMin= -1329.76960472481     IErMin=12 ErrMin= 3.77D-07
 ErrMax= 3.77D-07  0.00D+00 EMaxC= 1.00D-01 BMatC= 4.94D-11 BMatP= 2.30D-10
 IDIUse=1 WtCom= 1.00D+00 WtEn= 0.00D+00
 Coeff-Com: -0.146D-05 0.226D-05 0.548D-04 0.103D-03 0.331D-03 0.620D-03
 Coeff-Com: -0.219D-02-0.712D-02-0.333D-01-0.339D-01 0.290D+00 0.785D+00
 Coeff:     -0.146D-05 0.226D-05 0.548D-04 0.103D-03 0.331D-03 0.620D-03
 Coeff:     -0.219D-02-0.712D-02-0.333D-01-0.339D-01 0.290D+00 0.785D+00
 Gap=     0.281 Goal=   None    Shift=    0.000
 RMSDP=1.08D-07 MaxDP=2.11D-05 DE=-5.86D-10 OVMax= 7.63D-06

 Cycle  13  Pass 1  IDiag  1:
 RMSU=  4.26D-08    CP:  1.13D+00  7.43D-01  9.39D-01  6.61D-01  8.13D-01
                    CP:  8.24D-01  1.03D+00  8.26D-01  1.26D+00  9.22D-01
                    CP:  1.21D+00  1.18D+00
 E= -1329.76960472498     Delta-E=       -0.000000000169 Rises=F Damp=F
 DIIS: error= 1.25D-07 at cycle  13 NSaved=  13.
 NSaved=13 IEnMin=13 EnMin= -1329.76960472498     IErMin=13 ErrMin= 1.25D-07
 ErrMax= 1.25D-07  0.00D+00 EMaxC= 1.00D-01 BMatC= 1.08D-11 BMatP= 4.94D-11
 IDIUse=1 WtCom= 1.00D+00 WtEn= 0.00D+00
 Coeff-Com:  0.302D-05-0.593D-05-0.331D-04-0.492D-04-0.380D-04 0.580D-03
 Coeff-Com:  0.303D-02 0.312D-02-0.205D-01-0.469D-01-0.205D-01 0.364D+00
 Coeff-Com:  0.718D+00
 Coeff:      0.302D-05-0.593D-05-0.331D-04-0.492D-04-0.380D-04 0.580D-03
 Coeff:      0.303D-02 0.312D-02-0.205D-01-0.469D-01-0.205D-01 0.364D+00
 Coeff:      0.718D+00
 Gap=     0.281 Goal=   None    Shift=    0.000
 RMSDP=3.78D-08 MaxDP=8.70D-06 DE=-1.69D-10 OVMax= 3.23D-06

 Cycle  14  Pass 1  IDiag  1:
 RMSU=  1.93D-08    CP:  1.13D+00  7.43D-01  9.39D-01  6.61D-01  8.13D-01
                    CP:  8.24D-01  1.03D+00  8.26D-01  1.26D+00  9.24D-01
                    CP:  1.24D+00  1.26D+00  1.24D+00
 E= -1329.76960472499     Delta-E=       -0.000000000014 Rises=F Damp=F
 DIIS: error= 4.52D-08 at cycle  14 NSaved=  14.
 NSaved=14 IEnMin=14 EnMin= -1329.76960472499     IErMin=14 ErrMin= 4.52D-08
 ErrMax= 4.52D-08  0.00D+00 EMaxC= 1.00D-01 BMatC= 9.39D-13 BMatP= 1.08D-11
 IDIUse=1 WtCom= 1.00D+00 WtEn= 0.00D+00
 Coeff-Com:  0.107D-05-0.213D-05-0.166D-04-0.269D-04-0.561D-04 0.107D-03
 Coeff-Com:  0.113D-02 0.188D-02-0.223D-02-0.110D-01-0.466D-01 0.190D-01
 Coeff-Com:  0.231D+00 0.807D+00
 Coeff:      0.107D-05-0.213D-05-0.166D-04-0.269D-04-0.561D-04 0.107D-03
 Coeff:      0.113D-02 0.188D-02-0.223D-02-0.110D-01-0.466D-01 0.190D-01
 Coeff:      0.231D+00 0.807D+00
 Gap=     0.281 Goal=   None    Shift=    0.000
 RMSDP=3.03D-08 MaxDP=8.08D-06 DE=-1.36D-11 OVMax= 1.17D-06

 Cycle  15  Pass 1  IDiag  1:
 RMSU=  6.04D-09    CP:  1.13D+00  7.43D-01  9.39D-01  6.61D-01  8.13D-01
                    CP:  8.24D-01  1.03D+00  8.27D-01  1.27D+00  9.23D-01
                    CP:  1.25D+00  1.31D+00  1.37D+00  1.10D+00
 E= -1329.76960472497     Delta-E=        0.000000000025 Rises=F Damp=F
 DIIS: error= 1.57D-08 at cycle  15 NSaved=  15.
 NSaved=15 IEnMin=14 EnMin= -1329.76960472499     IErMin=15 ErrMin= 1.57D-08
 ErrMax= 1.57D-08  0.00D+00 EMaxC= 1.00D-01 BMatC= 2.13D-13 BMatP= 9.39D-13
 IDIUse=1 WtCom= 1.00D+00 WtEn= 0.00D+00
 Coeff-Com: -0.305D-07 0.259D-07-0.206D-05-0.368D-05-0.176D-04-0.309D-04
 Coeff-Com:  0.161D-04 0.359D-03 0.224D-02 0.254D-02-0.158D-01-0.472D-01
 Coeff-Com: -0.158D-01 0.357D+00 0.717D+00
 Coeff:     -0.305D-07 0.259D-07-0.206D-05-0.368D-05-0.176D-04-0.309D-04
 Coeff:      0.161D-04 0.359D-03 0.224D-02 0.254D-02-0.158D-01-0.472D-01
 Coeff:     -0.158D-01 0.357D+00 0.717D+00
 Gap=     0.281 Goal=   None    Shift=    0.000
 RMSDP=5.09D-09 MaxDP=9.05D-07 DE= 2.46D-11 OVMax= 3.56D-07

 SCF Done:  E(RM062X) =  -1329.76960472     A.U. after   15 cycles
            NFock= 15  Conv=0.51D-08     -V/T= 2.0033
 KE= 1.325429511826D+03 PE=-6.527018548151D+03 EE= 2.175165407495D+03
 Leave Link  502 at Tue Apr 26 19:01:06 2022, MaxMem= 10485760000 cpu:            3539.4 elap:             222.1
 (Enter /data0/home/wuhanyu/software/g16/l601.exe)
 Copying SCF densities to generalized density rwf, IOpCl= 0 IROHF=0.

 **********************************************************************

            Population analysis using the SCF density.

 **********************************************************************

 Alpha  occ. eigenvalues --  -78.15926 -19.66533 -19.65408 -19.64653 -19.64391
 Alpha  occ. eigenvalues --  -19.63444 -19.63234 -19.62345 -19.59333 -14.80184
 Alpha  occ. eigenvalues --  -14.75669 -10.63128 -10.59526 -10.58425 -10.56344
 Alpha  occ. eigenvalues --  -10.55976 -10.55776 -10.55553  -6.96646  -5.08559
 Alpha  occ. eigenvalues --   -5.08519  -5.08390  -1.22432  -1.15563  -1.15065
 Alpha  occ. eigenvalues --   -1.14865  -1.14240  -1.13320  -1.13271  -1.12462
 Alpha  occ. eigenvalues --   -1.09771  -0.98693  -0.96420  -0.85688  -0.84358
 Alpha  occ. eigenvalues --   -0.72751  -0.71123  -0.70709  -0.69099  -0.64522
 Alpha  occ. eigenvalues --   -0.63491  -0.62621  -0.62406  -0.61953  -0.61392
 Alpha  occ. eigenvalues --   -0.61243  -0.58166  -0.56944  -0.55157  -0.53609
 Alpha  occ. eigenvalues --   -0.52852  -0.52549  -0.52202  -0.51016  -0.50371
 Alpha  occ. eigenvalues --   -0.49895  -0.49524  -0.48718  -0.47747  -0.47158
 Alpha  occ. eigenvalues --   -0.46367  -0.44422  -0.43873  -0.43331  -0.42463
 Alpha  occ. eigenvalues --   -0.41915  -0.41769  -0.41342  -0.40928  -0.40437
 Alpha  occ. eigenvalues --   -0.39085  -0.38231  -0.38160  -0.36530  -0.29783
 Alpha  occ. eigenvalues --   -0.29189
 Alpha virt. eigenvalues --   -0.01104  -0.00466   0.01082   0.01502   0.01862
 Alpha virt. eigenvalues --    0.02444   0.03150   0.03324   0.04014   0.04182
 Alpha virt. eigenvalues --    0.04791   0.05641   0.06079   0.06375   0.07699
 Alpha virt. eigenvalues --    0.08040   0.08336   0.09791   0.10095   0.10635
 Alpha virt. eigenvalues --    0.11682   0.11831   0.11941   0.12946   0.13221
 Alpha virt. eigenvalues --    0.13781   0.14000   0.14553   0.14946   0.15428
 Alpha virt. eigenvalues --    0.15493   0.16019   0.16063   0.16507   0.16824
 Alpha virt. eigenvalues --    0.17166   0.17381   0.18019   0.18602   0.18791
 Alpha virt. eigenvalues --    0.19086   0.19541   0.19781   0.19897   0.20573
 Alpha virt. eigenvalues --    0.20800   0.20998   0.21356   0.21657   0.21762
 Alpha virt. eigenvalues --    0.22181   0.22630   0.23070   0.23443   0.23687
 Alpha virt. eigenvalues --    0.23973   0.24186   0.24731   0.25239   0.25449
 Alpha virt. eigenvalues --    0.25808   0.26125   0.26271   0.26840   0.26982
 Alpha virt. eigenvalues --    0.27393   0.27408   0.27705   0.28020   0.28522
 Alpha virt. eigenvalues --    0.29052   0.29525   0.29733   0.30329   0.30479
 Alpha virt. eigenvalues --    0.31319   0.31662   0.31808   0.32300   0.32784
 Alpha virt. eigenvalues --    0.33288   0.33432   0.34891   0.35161   0.35670
 Alpha virt. eigenvalues --    0.36424   0.37224   0.37479   0.38169   0.38735
 Alpha virt. eigenvalues --    0.38996   0.39416   0.40265   0.40342   0.41628
 Alpha virt. eigenvalues --    0.42532   0.43504   0.44055   0.44419   0.45167
 Alpha virt. eigenvalues --    0.45596   0.46473   0.47413   0.48067   0.48982
 Alpha virt. eigenvalues --    0.50561   0.50802   0.52486   0.52704   0.54001
 Alpha virt. eigenvalues --    0.54289   0.54720   0.55189   0.55466   0.56033
 Alpha virt. eigenvalues --    0.56946   0.58403   0.58819   0.58859   0.59991
 Alpha virt. eigenvalues --    0.60866   0.61393   0.62345   0.63174   0.63698
 Alpha virt. eigenvalues --    0.65033   0.65652   0.66070   0.66341   0.67228
 Alpha virt. eigenvalues --    0.67982   0.68358   0.69184   0.69623   0.70199
 Alpha virt. eigenvalues --    0.70727   0.71872   0.72590   0.73138   0.73816
 Alpha virt. eigenvalues --    0.74962   0.75650   0.76527   0.77645   0.78476
 Alpha virt. eigenvalues --    0.79077   0.79833   0.80442   0.81642   0.82933
 Alpha virt. eigenvalues --    0.83376   0.83851   0.84455   0.85144   0.85766
 Alpha virt. eigenvalues --    0.85880   0.86746   0.88113   0.88346   0.88851
 Alpha virt. eigenvalues --    0.89794   0.91628   0.92563   0.92956   0.94948
 Alpha virt. eigenvalues --    0.95703   0.97019   0.97557   1.00037   1.01713
 Alpha virt. eigenvalues --    1.01904   1.02467   1.03451   1.04116   1.05372
 Alpha virt. eigenvalues --    1.06847   1.07727   1.08194   1.09009   1.09748
 Alpha virt. eigenvalues --    1.11530   1.12056   1.12351   1.12963   1.13290
 Alpha virt. eigenvalues --    1.14576   1.14928   1.15480   1.16260   1.16844
 Alpha virt. eigenvalues --    1.17074   1.17710   1.18647   1.18992   1.20257
 Alpha virt. eigenvalues --    1.20587   1.21304   1.21997   1.23221   1.23348
 Alpha virt. eigenvalues --    1.23965   1.24317   1.25063   1.25314   1.26460
 Alpha virt. eigenvalues --    1.26738   1.28297   1.29284   1.29959   1.30546
 Alpha virt. eigenvalues --    1.30853   1.31628   1.32004   1.32924   1.33894
 Alpha virt. eigenvalues --    1.34436   1.35184   1.35964   1.36630   1.37210
 Alpha virt. eigenvalues --    1.38204   1.39233   1.40204   1.40523   1.41059
 Alpha virt. eigenvalues --    1.43188   1.43332   1.44003   1.44700   1.45246
 Alpha virt. eigenvalues --    1.46301   1.46532   1.47405   1.47761   1.48646
 Alpha virt. eigenvalues --    1.49730   1.49849   1.52374   1.53352   1.53770
 Alpha virt. eigenvalues --    1.54495   1.56655   1.57395   1.58293   1.58877
 Alpha virt. eigenvalues --    1.60026   1.61107   1.62521   1.63606   1.64964
 Alpha virt. eigenvalues --    1.66935   1.67966   1.68499   1.69153   1.70341
 Alpha virt. eigenvalues --    1.71314   1.72053   1.72798   1.74297   1.74736
 Alpha virt. eigenvalues --    1.75222   1.76088   1.76361   1.76919   1.77726
 Alpha virt. eigenvalues --    1.78309   1.79062   1.81054   1.82084   1.83602
 Alpha virt. eigenvalues --    1.84054   1.85406   1.86288   1.87516   1.89548
 Alpha virt. eigenvalues --    1.91236   1.91904   1.92897   1.93155   1.94339
 Alpha virt. eigenvalues --    1.95421   1.97098   1.98869   1.99301   1.99847
 Alpha virt. eigenvalues --    2.00686   2.02737   2.04353   2.04660   2.06283
 Alpha virt. eigenvalues --    2.07267   2.08328   2.09337   2.10904   2.11229
 Alpha virt. eigenvalues --    2.11802   2.12455   2.13969   2.15197   2.18162
 Alpha virt. eigenvalues --    2.18995   2.19610   2.20455   2.22438   2.24263
 Alpha virt. eigenvalues --    2.25915   2.27773   2.30300   2.32370   2.33475
 Alpha virt. eigenvalues --    2.34215   2.35194   2.36134   2.38450   2.41424
 Alpha virt. eigenvalues --    2.42752   2.44479   2.45307   2.46173   2.47155
 Alpha virt. eigenvalues --    2.53459   2.54744   2.56436   2.57083   2.58689
 Alpha virt. eigenvalues --    2.60468   2.61680   2.63330   2.64308   2.65409
 Alpha virt. eigenvalues --    2.66129   2.67297   2.68409   2.69697   2.70360
 Alpha virt. eigenvalues --    2.71212   2.72542   2.74161   2.74837   2.77540
 Alpha virt. eigenvalues --    2.78108   2.80978   2.82238   2.82894   2.84087
 Alpha virt. eigenvalues --    2.84466   2.87951   2.89928   2.90490   2.91294
 Alpha virt. eigenvalues --    2.92733   2.94786   2.95907   2.97116   2.97761
 Alpha virt. eigenvalues --    2.98270   3.01205   3.02092   3.03637   3.04121
 Alpha virt. eigenvalues --    3.08149   3.08816   3.11655   3.13076   3.14683
 Alpha virt. eigenvalues --    3.15114   3.15735   3.17217   3.20070   3.22018
 Alpha virt. eigenvalues --    3.23291   3.24070   3.29755   3.30334   3.30889
 Alpha virt. eigenvalues --    3.33065   3.36108   3.36903   3.39169   3.40736
 Alpha virt. eigenvalues --    3.41464   3.43695   3.44263   3.46771   3.48181
 Alpha virt. eigenvalues --    3.50406   3.52147   3.54582   3.57407   3.58517
 Alpha virt. eigenvalues --    3.58745   3.61486   3.62385   3.64985   3.66496
 Alpha virt. eigenvalues --    3.68947   3.73668   3.74154   3.75395   3.76812
 Alpha virt. eigenvalues --    3.79876   3.83909   3.87412   3.93841   3.94267
 Alpha virt. eigenvalues --    3.95684   3.96462   4.00674   4.01741   4.05478
 Alpha virt. eigenvalues --    4.08014   4.10030   4.16273   4.25920   4.43689
 Alpha virt. eigenvalues --    4.57427   4.66976   4.71783   4.74303   4.92819
 Alpha virt. eigenvalues --    5.01500   5.03991   5.06212   5.08080   5.08607
 Alpha virt. eigenvalues --    5.11645   5.12483   5.14387   5.16055   5.17528
 Alpha virt. eigenvalues --    5.18474   5.19491   5.20132   5.21666   5.23026
 Alpha virt. eigenvalues --    5.24579   5.27954   5.29510   5.32164   5.33900
 Alpha virt. eigenvalues --    5.38515   5.41055   5.43519   5.47303   5.55226
 Alpha virt. eigenvalues --    5.56422   5.56697   5.58672   5.60456   5.62031
 Alpha virt. eigenvalues --    5.63364   5.66033   5.66862   5.95215   5.95834
 Alpha virt. eigenvalues --    5.96350   5.97510   6.74694   6.76160   6.77363
 Alpha virt. eigenvalues --    6.78757   6.79176   6.80218   6.80906   6.81197
 Alpha virt. eigenvalues --    6.81628   6.83358   6.85237   6.85530   6.86475
 Alpha virt. eigenvalues --    6.87360   6.87558   6.89594   6.90470   6.90710
 Alpha virt. eigenvalues --    6.91521   6.93733   6.94055   6.94768   6.97922
 Alpha virt. eigenvalues --    6.98638   7.00697   7.01276   7.03254   7.05737
 Alpha virt. eigenvalues --    7.09139   7.11179   7.12518   7.12976   7.15134
 Alpha virt. eigenvalues --    7.18871   7.21459   7.23170   7.32696   7.35573
 Alpha virt. eigenvalues --    7.38135   7.43547   7.70096  14.27243  14.32089
 Alpha virt. eigenvalues --   14.41333  23.81352  24.03892  24.06512  24.11584
 Alpha virt. eigenvalues --   24.12804  24.25150  24.27641  35.75912  35.82180
 Alpha virt. eigenvalues --   50.00697  50.02400  50.03037  50.05143  50.06065
 Alpha virt. eigenvalues --   50.08256  50.09762  50.13524 163.96139
          Condensed to atoms (all electrons):
               1          2          3          4          5          6
     1  C   22.934259 -14.268584   2.466967  -3.108240   2.547631  -4.326752
     2  C  -14.268584  23.455902  -4.654039   2.171518  -2.395718   2.480285
     3  C    2.466967  -4.654039   8.637613  -0.510812   0.574282  -0.066027
     4  C   -3.108240   2.171518  -0.510812   6.618994  -0.427295   1.001674
     5  C    2.547631  -2.395718   0.574282  -0.427295   6.355026  -0.780591
     6  C   -4.326752   2.480285  -0.066027   1.001674  -0.780591   8.068264
     7  H    0.009243  -0.000427   0.369520  -0.024708   0.006962  -0.007833
     8  H    0.003313   0.037073  -0.062548   0.389006  -0.024549   0.007073
     9  H    0.034929  -0.002270   0.011027  -0.033384   0.400419  -0.060256
    10  H    0.001445  -0.006435  -0.006834   0.009683  -0.005594   0.359079
    11  H   -0.058371   0.122891  -0.026532   0.005915  -0.010383  -0.041318
    12  C   -0.920554  -0.645351  -0.242382   0.087934  -0.099117  -0.197949
    13  H    0.009455   0.035848   0.006679   0.000189   0.000775   0.008591
    14  N   -1.155916   1.001254  -0.197124   0.118842  -0.108623   0.175913
    15  N    1.653493  -1.570964   0.062893  -0.210585   0.146215  -0.243778
    16  P    0.176911  -0.127855   0.016538  -0.000488   0.004242  -0.016648
    17  O   -0.131771   0.033744   0.007610   0.002965  -0.004147   0.023084
    18  O    0.057275   0.021896  -0.008471  -0.037530   0.012457  -0.002602
    19  H   -0.006414   0.092941  -0.022881   0.005505  -0.000663  -0.001811
    20  O    0.007243   0.008069   0.000118   0.000541  -0.000025  -0.001032
    21  H    0.002837  -0.000533  -0.000075  -0.000203   0.000140  -0.000279
    22  O    0.054917  -0.012657  -0.013112  -0.003615   0.003115  -0.025476
    23  H    0.018033  -0.029253   0.010262   0.008989  -0.010964   0.007381
    24  O    0.174875   0.044568  -0.078012  -0.059756   0.064542  -0.094106
    25  H   -0.078707   0.022135   0.003258   0.051094  -0.033773   0.031772
    26  H   -0.123111  -0.021242   0.041030   0.055199  -0.051591   0.076766
    27  O    0.000048  -0.251327   0.084939  -0.003243  -0.001962   0.010851
    28  H   -0.029499   0.141652  -0.032341   0.011302   0.000474  -0.004489
    29  H   -0.004054   0.028962  -0.010225  -0.000352   0.000142  -0.000565
    30  O   -0.044571  -0.021746   0.007678  -0.000997   0.000984   0.035927
    31  H   -0.000246   0.004769  -0.000488   0.000104  -0.000058  -0.002365
    32  H   -0.007015  -0.000544  -0.000697   0.000212   0.000462  -0.001213
    33  O    0.033020  -0.012704   0.001336  -0.000241  -0.000203  -0.003215
    34  H   -0.014644   0.008647  -0.000954   0.000058   0.000026   0.001118
    35  H   -0.001584   0.000291  -0.000041  -0.000002  -0.000004   0.000002
               7          8          9         10         11         12
     1  C    0.009243   0.003313   0.034929   0.001445  -0.058371  -0.920554
     2  C   -0.000427   0.037073  -0.002270  -0.006435   0.122891  -0.645351
     3  C    0.369520  -0.062548   0.011027  -0.006834  -0.026532  -0.242382
     4  C   -0.024708   0.389006  -0.033384   0.009683   0.005915   0.087934
     5  C    0.006962  -0.024549   0.400419  -0.005594  -0.010383  -0.099117
     6  C   -0.007833   0.007073  -0.060256   0.359079  -0.041318  -0.197949
     7  H    0.510729  -0.004825  -0.000223   0.000065   0.000032   0.001811
     8  H   -0.004825   0.531090  -0.005219  -0.000222  -0.000000   0.000981
     9  H   -0.000223  -0.005219   0.529542  -0.004856  -0.000009   0.000470
    10  H    0.000065  -0.000222  -0.004856   0.512476   0.001993   0.003108
    11  H    0.000032  -0.000000  -0.000009   0.001993   0.384771  -0.000920
    12  C    0.001811   0.000981   0.000470   0.003108  -0.000920   7.342248
    13  H   -0.000019  -0.000000  -0.000000  -0.000011  -0.002727   0.369187
    14  N   -0.000865   0.000409  -0.000496  -0.005104   0.299162   0.209649
    15  N    0.000252  -0.000501   0.000350   0.000138  -0.018732   0.281682
    16  P   -0.000162  -0.000002   0.000029  -0.000063   0.003377  -0.096706
    17  O   -0.000007  -0.000000   0.000000   0.000021  -0.003378   0.081633
    18  O   -0.000342   0.000030   0.000004   0.000001  -0.000541  -0.092661
    19  H    0.000033  -0.000009  -0.000000  -0.000000  -0.000055  -0.041171
    20  O   -0.000001  -0.000000  -0.000000  -0.000002   0.000139   0.002677
    21  H   -0.000000   0.000000   0.000000  -0.000000   0.000001  -0.002233
    22  O    0.000004   0.000001   0.000003   0.000051  -0.000091   0.011459
    23  H    0.000021  -0.000012  -0.000003  -0.000075   0.000143   0.002575
    24  O    0.000036   0.000152  -0.000079   0.000259   0.000363   0.012488
    25  H   -0.000140  -0.000283  -0.000005  -0.000025  -0.000019   0.001755
    26  H   -0.000277  -0.000673  -0.000198  -0.000168  -0.000193   0.000190
    27  O   -0.001451   0.000014   0.000001  -0.000005   0.000165   0.113324
    28  H    0.001721  -0.000006  -0.000001   0.000003  -0.000083  -0.043925
    29  H    0.000065  -0.000000  -0.000000   0.000000  -0.000004  -0.011599
    30  O   -0.000002   0.000000   0.000004  -0.000042  -0.115936  -0.013531
    31  H    0.000000  -0.000000  -0.000000   0.000010   0.003284  -0.002642
    32  H    0.000000  -0.000000  -0.000000  -0.000003   0.009964   0.023679
    33  O   -0.000000   0.000000   0.000000   0.000016   0.003188  -0.018849
    34  H    0.000000  -0.000000  -0.000000  -0.000005  -0.000266   0.010428
    35  H   -0.000000  -0.000000  -0.000000  -0.000000  -0.000475  -0.001043
              13         14         15         16         17         18
     1  C    0.009455  -1.155916   1.653493   0.176911  -0.131771   0.057275
     2  C    0.035848   1.001254  -1.570964  -0.127855   0.033744   0.021896
     3  C    0.006679  -0.197124   0.062893   0.016538   0.007610  -0.008471
     4  C    0.000189   0.118842  -0.210585  -0.000488   0.002965  -0.037530
     5  C    0.000775  -0.108623   0.146215   0.004242  -0.004147   0.012457
     6  C    0.008591   0.175913  -0.243778  -0.016648   0.023084  -0.002602
     7  H   -0.000019  -0.000865   0.000252  -0.000162  -0.000007  -0.000342
     8  H   -0.000000   0.000409  -0.000501  -0.000002  -0.000000   0.000030
     9  H   -0.000000  -0.000496   0.000350   0.000029   0.000000   0.000004
    10  H   -0.000011  -0.005104   0.000138  -0.000063   0.000021   0.000001
    11  H   -0.002727   0.299162  -0.018732   0.003377  -0.003378  -0.000541
    12  C    0.369187   0.209649   0.281682  -0.096706   0.081633  -0.092661
    13  H    0.472906  -0.037182  -0.044766   0.001402  -0.015052   0.001281
    14  N   -0.037182   7.003641  -0.096049  -0.038262   0.037220   0.014146
    15  N   -0.044766  -0.096049   7.321474   0.032383  -0.017099   0.044657
    16  P    0.001402  -0.038262   0.032383  12.511312   0.467403   0.251371
    17  O   -0.015052   0.037220  -0.017099   0.467403   8.219897  -0.031159
    18  O    0.001281   0.014146   0.044657   0.251371  -0.031159   8.222753
    19  H    0.000360  -0.000830  -0.030050   0.014078   0.004022   0.222441
    20  O   -0.000159  -0.004153  -0.004221   0.240039  -0.021474  -0.016418
    21  H    0.000004  -0.000118   0.000032   0.005799  -0.003233  -0.002703
    22  O    0.000004  -0.004140   0.005119   0.292293  -0.042040   0.020175
    23  H   -0.000044  -0.003200  -0.002850   0.033509   0.012610  -0.015918
    24  O    0.000012  -0.013573  -0.013809  -0.054885  -0.009254   0.017093
    25  H   -0.000008   0.001932   0.000003   0.016400   0.001670   0.003574
    26  H   -0.000014   0.004482   0.001605   0.002905   0.001675  -0.000665
    27  O   -0.000910  -0.007144   0.001410   0.014168   0.002396   0.037225
    28  H   -0.000708   0.004734   0.030182  -0.009542  -0.000535  -0.016050
    29  H   -0.000144   0.001641   0.000713  -0.000315  -0.001109  -0.005413
    30  O    0.000850   0.088943   0.001279   0.000198  -0.001264   0.000292
    31  H    0.000054   0.000362   0.000121  -0.000167   0.000123  -0.000001
    32  H   -0.000746  -0.012518  -0.000356  -0.003200   0.000539  -0.000073
    33  O   -0.000237   0.002795  -0.000207  -0.003346  -0.002384  -0.000082
    34  H    0.000097  -0.001752  -0.000302   0.023970   0.039321   0.001928
    35  H    0.000061  -0.000148   0.000170   0.009774  -0.003755   0.000167
              19         20         21         22         23         24
     1  C   -0.006414   0.007243   0.002837   0.054917   0.018033   0.174875
     2  C    0.092941   0.008069  -0.000533  -0.012657  -0.029253   0.044568
     3  C   -0.022881   0.000118  -0.000075  -0.013112   0.010262  -0.078012
     4  C    0.005505   0.000541  -0.000203  -0.003615   0.008989  -0.059756
     5  C   -0.000663  -0.000025   0.000140   0.003115  -0.010964   0.064542
     6  C   -0.001811  -0.001032  -0.000279  -0.025476   0.007381  -0.094106
     7  H    0.000033  -0.000001  -0.000000   0.000004   0.000021   0.000036
     8  H   -0.000009  -0.000000   0.000000   0.000001  -0.000012   0.000152
     9  H   -0.000000  -0.000000   0.000000   0.000003  -0.000003  -0.000079
    10  H   -0.000000  -0.000002  -0.000000   0.000051  -0.000075   0.000259
    11  H   -0.000055   0.000139   0.000001  -0.000091   0.000143   0.000363
    12  C   -0.041171   0.002677  -0.002233   0.011459   0.002575   0.012488
    13  H    0.000360  -0.000159   0.000004   0.000004  -0.000044   0.000012
    14  N   -0.000830  -0.004153  -0.000118  -0.004140  -0.003200  -0.013573
    15  N   -0.030050  -0.004221   0.000032   0.005119  -0.002850  -0.013809
    16  P    0.014078   0.240039   0.005799   0.292293   0.033509  -0.054885
    17  O    0.004022  -0.021474  -0.003233  -0.042040   0.012610  -0.009254
    18  O    0.222441  -0.016418  -0.002703   0.020175  -0.015918   0.017093
    19  H    0.281244   0.006542  -0.000676  -0.003031   0.002397  -0.007848
    20  O    0.006542   8.011875   0.246775  -0.011819   0.005040  -0.001407
    21  H   -0.000676   0.246775   0.454820  -0.013162  -0.001724   0.000346
    22  O   -0.003031  -0.011819  -0.013162   8.091960   0.209644   0.061646
    23  H    0.002397   0.005040  -0.001724   0.209644   0.343337  -0.016163
    24  O   -0.007848  -0.001407   0.000346   0.061646  -0.016163   7.874194
    25  H    0.001492   0.000119  -0.000261  -0.018188   0.016404   0.293475
    26  H    0.000259  -0.000100  -0.000119  -0.015332   0.013889   0.296950
    27  O   -0.023028  -0.007865   0.000360   0.001648  -0.000305   0.001270
    28  H    0.024734   0.000526  -0.000024  -0.000222   0.000055   0.000074
    29  H    0.004088   0.000414   0.000007  -0.000121   0.000047  -0.000178
    30  O    0.000000  -0.000069   0.000004  -0.000052  -0.000368   0.000170
    31  H   -0.000000  -0.000000   0.000000   0.000033  -0.000003   0.000002
    32  H   -0.000003  -0.000072  -0.000003   0.000698  -0.000038  -0.000003
    33  O   -0.000134  -0.002379   0.000079  -0.002930   0.001922  -0.000165
    34  H    0.000193  -0.002573   0.000118   0.000393  -0.001292   0.000133
    35  H    0.000001  -0.001003  -0.000030  -0.001644  -0.000336   0.000021
              25         26         27         28         29         30
     1  C   -0.078707  -0.123111   0.000048  -0.029499  -0.004054  -0.044571
     2  C    0.022135  -0.021242  -0.251327   0.141652   0.028962  -0.021746
     3  C    0.003258   0.041030   0.084939  -0.032341  -0.010225   0.007678
     4  C    0.051094   0.055199  -0.003243   0.011302  -0.000352  -0.000997
     5  C   -0.033773  -0.051591  -0.001962   0.000474   0.000142   0.000984
     6  C    0.031772   0.076766   0.010851  -0.004489  -0.000565   0.035927
     7  H   -0.000140  -0.000277  -0.001451   0.001721   0.000065  -0.000002
     8  H   -0.000283  -0.000673   0.000014  -0.000006  -0.000000   0.000000
     9  H   -0.000005  -0.000198   0.000001  -0.000001  -0.000000   0.000004
    10  H   -0.000025  -0.000168  -0.000005   0.000003   0.000000  -0.000042
    11  H   -0.000019  -0.000193   0.000165  -0.000083  -0.000004  -0.115936
    12  C    0.001755   0.000190   0.113324  -0.043925  -0.011599  -0.013531
    13  H   -0.000008  -0.000014  -0.000910  -0.000708  -0.000144   0.000850
    14  N    0.001932   0.004482  -0.007144   0.004734   0.001641   0.088943
    15  N    0.000003   0.001605   0.001410   0.030182   0.000713   0.001279
    16  P    0.016400   0.002905   0.014168  -0.009542  -0.000315   0.000198
    17  O    0.001670   0.001675   0.002396  -0.000535  -0.001109  -0.001264
    18  O    0.003574  -0.000665   0.037225  -0.016050  -0.005413   0.000292
    19  H    0.001492   0.000259  -0.023028   0.024734   0.004088   0.000000
    20  O    0.000119  -0.000100  -0.007865   0.000526   0.000414  -0.000069
    21  H   -0.000261  -0.000119   0.000360  -0.000024   0.000007   0.000004
    22  O   -0.018188  -0.015332   0.001648  -0.000222  -0.000121  -0.000052
    23  H    0.016404   0.013889  -0.000305   0.000055   0.000047  -0.000368
    24  O    0.293475   0.296950   0.001270   0.000074  -0.000178   0.000170
    25  H    0.417787  -0.000380   0.000180  -0.000332   0.000033  -0.000013
    26  H   -0.000380   0.380763   0.000114  -0.000125   0.000010  -0.000037
    27  O    0.000180   0.000114   8.054827   0.243340   0.313092  -0.000017
    28  H   -0.000332  -0.000125   0.243340   0.346464  -0.008779  -0.000001
    29  H    0.000033   0.000010   0.313092  -0.008779   0.414880   0.000003
    30  O   -0.000013  -0.000037  -0.000017  -0.000001   0.000003   8.201884
    31  H   -0.000000  -0.000001  -0.000000   0.000000   0.000000   0.298928
    32  H    0.000000   0.000008   0.000006  -0.000002  -0.000001   0.281638
    33  O    0.000007   0.000000   0.000053  -0.000005  -0.000006  -0.033233
    34  H   -0.000010  -0.000013  -0.000088   0.000024   0.000012   0.001878
    35  H   -0.000001  -0.000000  -0.000000  -0.000000  -0.000000   0.003176
              31         32         33         34         35
     1  C   -0.000246  -0.007015   0.033020  -0.014644  -0.001584
     2  C    0.004769  -0.000544  -0.012704   0.008647   0.000291
     3  C   -0.000488  -0.000697   0.001336  -0.000954  -0.000041
     4  C    0.000104   0.000212  -0.000241   0.000058  -0.000002
     5  C   -0.000058   0.000462  -0.000203   0.000026  -0.000004
     6  C   -0.002365  -0.001213  -0.003215   0.001118   0.000002
     7  H    0.000000   0.000000  -0.000000   0.000000  -0.000000
     8  H   -0.000000  -0.000000   0.000000  -0.000000  -0.000000
     9  H   -0.000000  -0.000000   0.000000  -0.000000  -0.000000
    10  H    0.000010  -0.000003   0.000016  -0.000005  -0.000000
    11  H    0.003284   0.009964   0.003188  -0.000266  -0.000475
    12  C   -0.002642   0.023679  -0.018849   0.010428  -0.001043
    13  H    0.000054  -0.000746  -0.000237   0.000097   0.000061
    14  N    0.000362  -0.012518   0.002795  -0.001752  -0.000148
    15  N    0.000121  -0.000356  -0.000207  -0.000302   0.000170
    16  P   -0.000167  -0.003200  -0.003346   0.023970   0.009774
    17  O    0.000123   0.000539  -0.002384   0.039321  -0.003755
    18  O   -0.000001  -0.000073  -0.000082   0.001928   0.000167
    19  H   -0.000000  -0.000003  -0.000134   0.000193   0.000001
    20  O   -0.000000  -0.000072  -0.002379  -0.002573  -0.001003
    21  H    0.000000  -0.000003   0.000079   0.000118  -0.000030
    22  O    0.000033   0.000698  -0.002930   0.000393  -0.001644
    23  H   -0.000003  -0.000038   0.001922  -0.001292  -0.000336
    24  O    0.000002  -0.000003  -0.000165   0.000133   0.000021
    25  H   -0.000000   0.000000   0.000007  -0.000010  -0.000001
    26  H   -0.000001   0.000008   0.000000  -0.000013  -0.000000
    27  O   -0.000000   0.000006   0.000053  -0.000088  -0.000000
    28  H    0.000000  -0.000002  -0.000005   0.000024  -0.000000
    29  H    0.000000  -0.000001  -0.000006   0.000012  -0.000000
    30  O    0.298928   0.281638  -0.033233   0.001878   0.003176
    31  H    0.421338  -0.020048   0.006569   0.000016   0.000079
    32  H   -0.020048   0.311076  -0.017071   0.008215   0.001692
    33  O    0.006569  -0.017071   8.144180   0.240283   0.291286
    34  H    0.000016   0.008215   0.240283   0.351515  -0.004335
    35  H    0.000079   0.001692   0.291286  -0.004335   0.420613
 Mulliken charges:
               1
     1  C    0.094140
     2  C    0.309206
     3  C   -0.368154
     4  C   -0.118273
     5  C   -0.162632
     6  C   -0.409474
     7  H    0.140788
     8  H    0.129706
     9  H    0.130222
    10  H    0.141096
    11  H    0.444649
    12  C   -0.126645
    13  H    0.194974
    14  N   -0.277927
    15  N   -0.329902
    16  P    1.233539
    17  O   -0.648273
    18  O   -0.698138
    19  H    0.478275
    20  O   -0.455343
    21  H    0.314057
    22  O   -0.585533
    23  H    0.396290
    24  O   -0.493428
    25  H    0.269058
    26  H    0.338394
    27  O   -0.582085
    28  H    0.341383
    29  H    0.278756
    30  O   -0.691956
    31  H    0.290227
    32  H    0.425415
    33  O   -0.627342
    34  H    0.337861
    35  H    0.287069
 Sum of Mulliken charges =  -0.00000
 Mulliken charges with hydrogens summed into heavy atoms:
               1
     1  C    0.094140
     2  C    0.309206
     3  C   -0.227366
     4  C    0.011433
     5  C   -0.032409
     6  C   -0.268379
    12  C    0.068329
    14  N    0.166721
    15  N   -0.329902
    16  P    1.233539
    17  O   -0.648273
    18  O   -0.219863
    20  O   -0.141286
    22  O   -0.189242
    24  O    0.114024
    27  O    0.038054
    30  O    0.023686
    33  O   -0.002412
         Mulliken charges condensed to fragments:
      1     -0.208226
      2      0.034874
      3      0.114024
      4      0.038054
      5      0.023686
      6     -0.002412
 Electronic spatial extent (au):  <R**2>=         204980.7070
 Charge=              0.0000 electrons
 Dipole moment (field-independent basis, Debye):
    X=              1.0732    Y=              0.4080    Z=              0.2272  Tot=              1.1704
 Quadrupole moment (field-independent basis, Debye-Ang):
   XX=            -96.0043   YY=           -104.6075   ZZ=           -100.7557
   XY=             19.1396   XZ=             12.9769   YZ=              8.5148
 Traceless Quadrupole moment (field-independent basis, Debye-Ang):
   XX=              4.4515   YY=             -4.1517   ZZ=             -0.2999
   XY=             19.1396   XZ=             12.9769   YZ=              8.5148
 Octapole moment (field-independent basis, Debye-Ang**2):
  XXX=          -2528.0019  YYY=          -4754.7136  ZZZ=          -3004.4676  XYY=           -641.5044
  XXY=          -1333.1745  XXZ=           -953.3154  XZZ=           -739.4945  YZZ=          -1376.3524
  YYZ=           -923.4311  XYZ=            252.3507
 Hexadecapole moment (field-independent basis, Debye-Ang**3):
 XXXX=         -45313.2321 YYYY=        -140354.1603 ZZZZ=         -60337.4278 XXXY=         -35566.4634
 XXXZ=         -25482.3703 YYYX=         -36133.6054 YYYZ=         -44580.4749 ZZZX=         -24242.6491
 ZZZY=         -42330.2472 XXYY=         -27270.5783 XXZZ=         -17861.6628 YYZZ=         -30131.8367
 XXYZ=         -12907.2033 YYXZ=          -4825.2890 ZZXY=          -9620.1155
 N-N= 1.696654024104D+03 E-N=-6.527018551491D+03  KE= 1.325429511826D+03
 No NMR shielding tensors so no spin-rotation constants.
 Leave Link  601 at Tue Apr 26 19:01:07 2022, MaxMem= 10485760000 cpu:               3.4 elap:               0.3
 (Enter /data0/home/wuhanyu/software/g16/l122.exe)
 CPIOFr:  IOpCl= 0 IRwI=-1 IRwCP=  731 ICalc= -1 LCPTot=      545025 Len1MO=     1432502 IndFrg=      545025
 CPIOFr:  IOpCl= 0 IRwI=-1 IRwCP=  731 ICalc=  0 LCPTot=      545025 Len1MO=     1432502 IndFrg=     1977527
 Counterpoise: doing calculation for fragment   1 using the basis set of the full-system, NewBq=T
 Leave Link  122 at Tue Apr 26 19:01:07 2022, MaxMem= 10485760000 cpu:               0.4 elap:               0.0
 (Enter /data0/home/wuhanyu/software/g16/l301.exe)
 Basis read from rwf:  (5D, 7F)
 No pseudopotential information found on rwf file.
   596 basis functions,   906 primitive gaussians,   632 cartesian basis functions
    31 alpha electrons       31 beta electrons
       nuclear repulsion energy       401.5079679338 Hartrees.
 IExCor= 4336 DFT=T Ex+Corr=M062X ExCW=0 ScaHFX=  0.540000
 ScaDFX=  1.000000  1.000000  1.000000  1.000000 ScalE2=  1.000000  1.000000
 IRadAn=      5 IRanWt=     -1 IRanGd=            0 ICorTp=0 IEmpDi=131
 NAtoms=   35 NActive=   35 NUniq=   35 SFac= 1.00D+00 NAtFMM=   60 NAOKFM=F Big=F
 Integral buffers will be    131072 words long.
 Raffenetti 2 integral format.
 Two-electron integral symmetry is turned off.
 R6Disp:  Grimme-D3 Dispersion energy=       -0.0002903361 Hartrees.
 Nuclear repulsion after empirical dispersion term =      401.5076775976 Hartrees.
 No density basis found on file   718.
 Leave Link  301 at Tue Apr 26 19:01:07 2022, MaxMem= 10485760000 cpu:               0.9 elap:               0.1
 (Enter /data0/home/wuhanyu/software/g16/l302.exe)
 NPDir=0 NMtPBC=     1 NCelOv=     1 NCel=       1 NClECP=     1 NCelD=      1
         NCelK=      1 NCelE2=     1 NClLst=     1 CellRange=     0.0.
 One-electron integrals computed using PRISM.
 NBasis=   596 RedAO= T EigKep=  1.23D-06  NBF=   596
 NBsUse=   595 1.00D-06 EigRej=  9.44D-07 NBFU=   595
 Precomputing XC quadrature grid using
 IXCGrd= 4 IRadAn=           5 IRanWt=          -1 IRanGd=           0 AccXCQ= 0.00D+00.
 Generated NRdTot=       0 NPtTot=           0 NUsed=           0 NTot=          32
 NSgBfM=   630   628   629   630   630 MxSgAt=    35 MxSgA2=    35.
 Leave Link  302 at Tue Apr 26 19:01:08 2022, MaxMem= 10485760000 cpu:              11.1 elap:               0.7
 (Enter /data0/home/wuhanyu/software/g16/l303.exe)
 DipDrv:  MaxL=1.
 Leave Link  303 at Tue Apr 26 19:01:08 2022, MaxMem= 10485760000 cpu:               1.0 elap:               0.1
 (Enter /data0/home/wuhanyu/software/g16/l401.exe)
 ExpMin= 3.48D-02 ExpMax= 7.75D+04 ExpMxC= 2.65D+03 IAcc=3 IRadAn=         5 AccDes= 0.00D+00
 Harris functional with IExCor= 1009 and IRadAn=       5 diagonalized for initial guess.
 HarFok:  IExCor= 1009 AccDes= 0.00D+00 IRadAn=         5 IDoV= 1 UseB2=F ITyADJ=14
 ICtDFT=  3500011 ScaDFX=  1.000000  1.000000  1.000000  1.000000
 FoFCou: FMM=F IPFlag=           0 FMFlag=      100000 FMFlg1=           0
         NFxFlg=           0 DoJE=T BraDBF=F KetDBF=T FulRan=T
         wScrn=  0.000000 ICntrl=       500 IOpCl=  0 I1Cent=   200000004 NGrid=           0
         NMat0=    1 NMatS0=      1 NMatT0=    0 NMatD0=    1 NMtDS0=    0 NMtDT0=    0
 Symmetry not used in FoFCou.
 Harris En= -379.614886469017    
 JPrj=0 DoOrth=F DoCkMO=F.
 Leave Link  401 at Tue Apr 26 19:01:11 2022, MaxMem= 10485760000 cpu:              55.5 elap:               3.5
 (Enter /data0/home/wuhanyu/software/g16/l502.exe)
 Two-electron integral symmetry not used.
 Closed shell SCF:
 Using DIIS extrapolation, IDIIS=  1040.
 NGot= 10485760000 LenX= 10484946623 LenY= 10484546567
 Requested convergence on RMS density matrix=1.00D-08 within 128 cycles.
 Requested convergence on MAX density matrix=1.00D-06.
 Requested convergence on             energy=1.00D-06.
 No special actions if energy rises.
 Fock matrices will be formed incrementally for  20 cycles.

 Cycle   1  Pass 1  IDiag  1:
 FoFJK:  IHMeth= 1 ICntrl=       0 DoSepK=F KAlg= 0 I1Cent=           0 FoldK=F
 IRaf= 830000000 NMat=       1 IRICut=       1 DoRegI=T DoRafI=F ISym2E= 0 IDoP0=0 IntGTp=1.
 FoFCou: FMM=F IPFlag=           0 FMFlag=      100000 FMFlg1=           0
         NFxFlg=           0 DoJE=F BraDBF=F KetDBF=F FulRan=T
         wScrn=  0.000000 ICntrl=         0 IOpCl=  0 I1Cent=           0 NGrid=           0
         NMat0=    1 NMatS0=      1 NMatT0=    0 NMatD0=    1 NMtDS0=    0 NMtDT0=    0
 Symmetry not used in FoFCou.
 E= -379.610785979873    
 DIIS: error= 1.75D-02 at cycle   1 NSaved=   1.
 NSaved= 1 IEnMin= 1 EnMin= -379.610785979873     IErMin= 1 ErrMin= 1.75D-02
 ErrMax= 1.75D-02  0.00D+00 EMaxC= 1.00D-01 BMatC= 2.49D-01 BMatP= 2.49D-01
 IDIUse=3 WtCom= 8.25D-01 WtEn= 1.75D-01
 Coeff-Com:  0.100D+01
 Coeff-En:   0.100D+01
 Coeff:      0.100D+01
 Gap=     0.305 Goal=   None    Shift=    0.000
 GapD=    0.305 DampG=1.000 DampE=0.500 DampFc=0.5000 IDamp=-1.
 Damping current iteration by 5.00D-01
 RMSDP=7.61D-03 MaxDP=2.29D+00              OVMax= 2.16D-01

 Cycle   2  Pass 1  IDiag  1:
 RMSU=  3.15D-03    CP:  1.18D+00
 E= -379.707646090575     Delta-E=       -0.096860110702 Rises=F Damp=T
 DIIS: error= 6.03D-03 at cycle   2 NSaved=   2.
 NSaved= 2 IEnMin= 2 EnMin= -379.707646090575     IErMin= 2 ErrMin= 6.03D-03
 ErrMax= 6.03D-03  0.00D+00 EMaxC= 1.00D-01 BMatC= 2.64D-02 BMatP= 2.49D-01
 IDIUse=3 WtCom= 9.40D-01 WtEn= 6.03D-02
 Coeff-Com: -0.878D-01 0.109D+01
 Coeff-En:   0.000D+00 0.100D+01
 Coeff:     -0.825D-01 0.108D+01
 Gap=     0.293 Goal=   None    Shift=    0.000
 RMSDP=3.04D-03 MaxDP=6.77D-01 DE=-9.69D-02 OVMax= 1.79D-01

 Cycle   3  Pass 1  IDiag  1:
 RMSU=  1.91D-03    CP:  1.00D+00  6.54D-01
 E= -379.800336194326     Delta-E=       -0.092690103751 Rises=F Damp=F
 DIIS: error= 5.62D-03 at cycle   3 NSaved=   3.
 NSaved= 3 IEnMin= 3 EnMin= -379.800336194326     IErMin= 3 ErrMin= 5.62D-03
 ErrMax= 5.62D-03  0.00D+00 EMaxC= 1.00D-01 BMatC= 1.80D-02 BMatP= 2.64D-02
 IDIUse=3 WtCom= 9.44D-01 WtEn= 5.62D-02
 Coeff-Com: -0.137D+00 0.538D+00 0.599D+00
 Coeff-En:   0.000D+00 0.000D+00 0.100D+01
 Coeff:     -0.129D+00 0.508D+00 0.621D+00
 Gap=     0.277 Goal=   None    Shift=    0.000
 RMSDP=8.63D-04 MaxDP=2.36D-01 DE=-9.27D-02 OVMax= 6.10D-02

 Cycle   4  Pass 1  IDiag  1:
 RMSU=  6.87D-04    CP:  9.67D-01  6.87D-01  8.63D-01
 E= -379.815475197133     Delta-E=       -0.015139002807 Rises=F Damp=F
 DIIS: error= 2.04D-03 at cycle   4 NSaved=   4.
 NSaved= 4 IEnMin= 4 EnMin= -379.815475197133     IErMin= 4 ErrMin= 2.04D-03
 ErrMax= 2.04D-03  0.00D+00 EMaxC= 1.00D-01 BMatC= 2.52D-03 BMatP= 1.80D-02
 IDIUse=3 WtCom= 9.80D-01 WtEn= 2.04D-02
 Coeff-Com: -0.575D-01 0.148D+00 0.329D+00 0.580D+00
 Coeff-En:   0.000D+00 0.000D+00 0.691D-01 0.931D+00
 Coeff:     -0.564D-01 0.145D+00 0.324D+00 0.587D+00
 Gap=     0.272 Goal=   None    Shift=    0.000
 RMSDP=2.69D-04 MaxDP=6.84D-02 DE=-1.51D-02 OVMax= 1.32D-02

 Cycle   5  Pass 1  IDiag  1:
 RMSU=  1.51D-04    CP:  9.64D-01  6.36D-01  8.60D-01  7.77D-01
 E= -379.817629383100     Delta-E=       -0.002154185967 Rises=F Damp=F
 DIIS: error= 3.37D-04 at cycle   5 NSaved=   5.
 NSaved= 5 IEnMin= 5 EnMin= -379.817629383100     IErMin= 5 ErrMin= 3.37D-04
 ErrMax= 3.37D-04  0.00D+00 EMaxC= 1.00D-01 BMatC= 9.83D-05 BMatP= 2.52D-03
 IDIUse=3 WtCom= 9.97D-01 WtEn= 3.37D-03
 Coeff-Com: -0.197D-01 0.418D-01 0.118D+00 0.266D+00 0.595D+00
 Coeff-En:   0.000D+00 0.000D+00 0.000D+00 0.000D+00 0.100D+01
 Coeff:     -0.196D-01 0.417D-01 0.117D+00 0.265D+00 0.596D+00
 Gap=     0.272 Goal=   None    Shift=    0.000
 RMSDP=6.18D-05 MaxDP=1.41D-02 DE=-2.15D-03 OVMax= 4.04D-03

 Cycle   6  Pass 1  IDiag  1:
 RMSU=  4.46D-05    CP:  9.65D-01  6.44D-01  8.67D-01  8.03D-01  8.37D-01
 E= -379.817719786020     Delta-E=       -0.000090402920 Rises=F Damp=F
 DIIS: error= 1.24D-04 at cycle   6 NSaved=   6.
 NSaved= 6 IEnMin= 6 EnMin= -379.817719786020     IErMin= 6 ErrMin= 1.24D-04
 ErrMax= 1.24D-04  0.00D+00 EMaxC= 1.00D-01 BMatC= 1.16D-05 BMatP= 9.83D-05
 IDIUse=3 WtCom= 9.99D-01 WtEn= 1.24D-03
 Coeff-Com: -0.268D-02 0.317D-02 0.185D-01 0.540D-01 0.286D+00 0.641D+00
 Coeff-En:   0.000D+00 0.000D+00 0.000D+00 0.000D+00 0.242D-01 0.976D+00
 Coeff:     -0.268D-02 0.316D-02 0.184D-01 0.539D-01 0.286D+00 0.641D+00
 Gap=     0.272 Goal=   None    Shift=    0.000
 RMSDP=3.38D-05 MaxDP=8.40D-03 DE=-9.04D-05 OVMax= 1.46D-03

 Cycle   7  Pass 1  IDiag  1:
 RMSU=  1.89D-05    CP:  9.64D-01  6.36D-01  8.68D-01  8.08D-01  8.69D-01
                    CP:  1.03D+00
 E= -379.817732662564     Delta-E=       -0.000012876545 Rises=F Damp=F
 DIIS: error= 2.43D-05 at cycle   7 NSaved=   7.
 NSaved= 7 IEnMin= 7 EnMin= -379.817732662564     IErMin= 7 ErrMin= 2.43D-05
 ErrMax= 2.43D-05  0.00D+00 EMaxC= 1.00D-01 BMatC= 4.15D-07 BMatP= 1.16D-05
 IDIUse=1 WtCom= 1.00D+00 WtEn= 0.00D+00
 Coeff-Com:  0.147D-02-0.361D-02-0.669D-02-0.168D-01-0.465D-02 0.954D-01
 Coeff-Com:  0.935D+00
 Coeff:      0.147D-02-0.361D-02-0.669D-02-0.168D-01-0.465D-02 0.954D-01
 Coeff:      0.935D+00
 Gap=     0.272 Goal=   None    Shift=    0.000
 RMSDP=1.11D-05 MaxDP=2.57D-03 DE=-1.29D-05 OVMax= 4.76D-04

 Cycle   8  Pass 1  IDiag  1:
 RMSU=  3.39D-06    CP:  9.64D-01  6.34D-01  8.68D-01  8.09D-01  8.85D-01
                    CP:  1.13D+00  1.19D+00
 E= -379.817733335467     Delta-E=       -0.000000672903 Rises=F Damp=F
 DIIS: error= 1.41D-05 at cycle   8 NSaved=   8.
 NSaved= 8 IEnMin= 8 EnMin= -379.817733335467     IErMin= 8 ErrMin= 1.41D-05
 ErrMax= 1.41D-05  0.00D+00 EMaxC= 1.00D-01 BMatC= 1.78D-07 BMatP= 4.15D-07
 IDIUse=1 WtCom= 1.00D+00 WtEn= 0.00D+00
 Coeff-Com:  0.106D-02-0.218D-02-0.514D-02-0.147D-01-0.326D-01-0.203D-01
 Coeff-Com:  0.495D+00 0.579D+00
 Coeff:      0.106D-02-0.218D-02-0.514D-02-0.147D-01-0.326D-01-0.203D-01
 Coeff:      0.495D+00 0.579D+00
 Gap=     0.272 Goal=   None    Shift=    0.000
 RMSDP=1.86D-06 MaxDP=2.20D-04 DE=-6.73D-07 OVMax= 2.20D-04

 Cycle   9  Pass 1  IDiag  1:
 RMSU=  1.45D-06    CP:  9.64D-01  6.33D-01  8.68D-01  8.09D-01  8.85D-01
                    CP:  1.14D+00  1.24D+00  1.09D+00
 E= -379.817733554640     Delta-E=       -0.000000219173 Rises=F Damp=F
 DIIS: error= 4.34D-06 at cycle   9 NSaved=   9.
 NSaved= 9 IEnMin= 9 EnMin= -379.817733554640     IErMin= 9 ErrMin= 4.34D-06
 ErrMax= 4.34D-06  0.00D+00 EMaxC= 1.00D-01 BMatC= 9.12D-09 BMatP= 1.78D-07
 IDIUse=1 WtCom= 1.00D+00 WtEn= 0.00D+00
 Coeff-Com: -0.555D-04 0.174D-03 0.437D-03 0.373D-03-0.271D-02-0.151D-01
 Coeff-Com: -0.676D-01 0.112D+00 0.973D+00
 Coeff:     -0.555D-04 0.174D-03 0.437D-03 0.373D-03-0.271D-02-0.151D-01
 Coeff:     -0.676D-01 0.112D+00 0.973D+00
 Gap=     0.272 Goal=   None    Shift=    0.000
 RMSDP=1.26D-06 MaxDP=2.31D-04 DE=-2.19D-07 OVMax= 9.56D-05

 Cycle  10  Pass 1  IDiag  1:
 RMSU=  4.42D-07    CP:  9.64D-01  6.34D-01  8.68D-01  8.09D-01  8.85D-01
[...]
     4  C    0.000000
     5  C    0.000000
     6  C    0.000000
    12  C    0.000000
    14  N    0.000000
    15  N    0.000000
    16  P    0.000000
    17  O    0.000000
    18  O    0.000000
    20  O    0.000000
    22  O    0.000000
    24  O    0.000000
    27  O    0.000000
    30  O   -0.000000
    33  O    0.000000
         Mulliken charges condensed to fragments:
      1      0.000000
      2      0.000000
      3      0.000000
      4      0.000000
      5     -0.000000
      6      0.000000
 Electronic spatial extent (au):  <R**2>=          17916.9695
 Charge=             -0.0000 electrons
 Dipole moment (field-independent basis, Debye):
    X=             -1.8632    Y=             -0.1632    Z=              0.9529  Tot=              2.0991
 Quadrupole moment (field-independent basis, Debye-Ang):
   XX=            -33.0866   YY=            -13.1500   ZZ=             20.2030
   XY=            -32.0187   XZ=            -16.6383   YZ=             13.6368
 Traceless Quadrupole moment (field-independent basis, Debye-Ang):
   XX=            -24.4087   YY=             -4.4722   ZZ=             28.8809
   XY=            -32.0187   XZ=            -16.6383   YZ=             13.6368
 Octapole moment (field-independent basis, Debye-Ang**2):
  XXX=           -428.3495  YYY=           -520.0430  ZZZ=            304.6374  XYY=           -606.2900
  XXY=           -556.5038  XXZ=           -371.3502  XZZ=           -151.5457  YZZ=            306.1363
  YYZ=             88.8283  XYZ=           -290.8062
 Hexadecapole moment (field-independent basis, Debye-Ang**3):
 XXXX=          -4835.0057 YYYY=         -15781.8394 ZZZZ=           3723.4063 XXXY=          -7159.0763
 XXXZ=          -5122.7609 YYYX=         -12247.4608 YYYZ=          -2491.5873 ZZZX=          -1569.6102
 ZZZY=           4664.1466 XXYY=          -9776.8988 XXZZ=          -4316.3498 YYZZ=           3266.0907
 XXYZ=          -6262.2755 YYXZ=          -5813.0042 ZZXY=          -2712.2086
 N-N= 9.106423552279D+00 E-N=-1.990661807638D+02  KE= 7.619616023820D+01
 No NMR shielding tensors so no spin-rotation constants.
 Leave Link  601 at Tue Apr 26 19:16:42 2022, MaxMem= 10485760000 cpu:               1.2 elap:               0.1
 (Enter /data0/home/wuhanyu/software/g16/l122.exe)
 CPIOFr:  IOpCl= 0 IRwI=-1 IRwCP=  731 ICalc= 11 LCPTot=      545025 Len1MO=     1432502 IndFrg=    17735049
 Counterpoise: doing calculation for fragment   6 using the basis set of the fragment.
 Leave Link  122 at Tue Apr 26 19:16:42 2022, MaxMem= 10485760000 cpu:               0.2 elap:               0.0
 (Enter /data0/home/wuhanyu/software/g16/l301.exe)
 Basis read from rwf:  (5D, 7F)
 No pseudopotential information found on rwf file.
    39 basis functions,    58 primitive gaussians,    41 cartesian basis functions
     5 alpha electrons        5 beta electrons
       nuclear repulsion energy         9.1062400121 Hartrees.
 IExCor= 4336 DFT=T Ex+Corr=M062X ExCW=0 ScaHFX=  0.540000
 ScaDFX=  1.000000  1.000000  1.000000  1.000000 ScalE2=  1.000000  1.000000
 IRadAn=      5 IRanWt=     -1 IRanGd=            0 ICorTp=0 IEmpDi=131
 NAtoms=   35 NActive=    3 NUniq=    3 SFac= 1.00D+00 NAtFMM=   60 NAOKFM=F Big=F
 Integral buffers will be    131072 words long.
 Raffenetti 2 integral format.
 Two-electron integral symmetry is turned off.
 R6Disp:  Grimme-D3 Dispersion energy=       -0.0000000075 Hartrees.
 Nuclear repulsion after empirical dispersion term =        9.1062400046 Hartrees.
 No density basis found on file   718.
 Leave Link  301 at Tue Apr 26 19:16:42 2022, MaxMem= 10485760000 cpu:               0.9 elap:               0.1
 (Enter /data0/home/wuhanyu/software/g16/l302.exe)
 NPDir=0 NMtPBC=     1 NCelOv=     1 NCel=       1 NClECP=     1 NCelD=      1
         NCelK=      1 NCelE2=     1 NClLst=     1 CellRange=     0.0.
 One-electron integrals computed using PRISM.
 NBasis=    39 RedAO= T EigKep=  3.02D-03  NBF=    39
 NBsUse=    39 1.00D-06 EigRej= -1.00D+00 NBFU=    39
 Precomputing XC quadrature grid using
 IXCGrd= 4 IRadAn=           5 IRanWt=          -1 IRanGd=           0 AccXCQ= 0.00D+00.
 Generated NRdTot=       0 NPtTot=           0 NUsed=           0 NTot=          32
 NSgBfM=    41    41    41    41    41 MxSgAt=     3 MxSgA2=     3.
 Leave Link  302 at Tue Apr 26 19:16:42 2022, MaxMem= 10485760000 cpu:               1.5 elap:               0.1
 (Enter /data0/home/wuhanyu/software/g16/l303.exe)
 DipDrv:  MaxL=1.
 Leave Link  303 at Tue Apr 26 19:16:42 2022, MaxMem= 10485760000 cpu:               0.3 elap:               0.0
 (Enter /data0/home/wuhanyu/software/g16/l401.exe)
 ExpMin= 8.45D-02 ExpMax= 8.59D+03 ExpMxC= 1.30D+03 IAcc=3 IRadAn=         5 AccDes= 0.00D+00
 Harris functional with IExCor= 1009 and IRadAn=       5 diagonalized for initial guess.
 HarFok:  IExCor= 1009 AccDes= 0.00D+00 IRadAn=         5 IDoV= 1 UseB2=F ITyADJ=14
 ICtDFT=  3500011 ScaDFX=  1.000000  1.000000  1.000000  1.000000
 FoFCou: FMM=F IPFlag=           0 FMFlag=      100000 FMFlg1=           0
         NFxFlg=           0 DoJE=T BraDBF=F KetDBF=T FulRan=T
         wScrn=  0.000000 ICntrl=       500 IOpCl=  0 I1Cent=   200000004 NGrid=           0
         NMat0=    1 NMatS0=      1 NMatT0=    0 NMatD0=    1 NMtDS0=    0 NMtDT0=    0
 Symmetry not used in FoFCou.
 Harris En= -76.4165476813944    
 JPrj=0 DoOrth=F DoCkMO=F.
 Leave Link  401 at Tue Apr 26 19:16:42 2022, MaxMem= 10485760000 cpu:               2.1 elap:               0.1
 (Enter /data0/home/wuhanyu/software/g16/l502.exe)
 Keep R1 ints in memory in canonical form, NReq=14131768.
 FoFCou: FMM=F IPFlag=           0 FMFlag=           0 FMFlg1=           0
         NFxFlg=           0 DoJE=F BraDBF=F KetDBF=F FulRan=T
         wScrn=  0.000000 ICntrl=       600 IOpCl=  0 I1Cent=           0 NGrid=           0
         NMat0=    1 NMatS0=    780 NMatT0=    0 NMatD0=    1 NMtDS0=    0 NMtDT0=    0
 Symmetry not used in FoFCou.
 Two-electron integral symmetry not used.
 Closed shell SCF:
 Using DIIS extrapolation, IDIIS=  1040.
 NGot= 10485760000 LenX= 10485449930 LenY= 10485447808
 Requested convergence on RMS density matrix=1.00D-08 within 128 cycles.
 Requested convergence on MAX density matrix=1.00D-06.
 Requested convergence on             energy=1.00D-06.
 No special actions if energy rises.
 Integral accuracy reduced to 1.0D-05 until final iterations.

 Cycle   1  Pass 0  IDiag  1:
 E= -76.3464376044390    
 DIIS: error= 7.01D-02 at cycle   1 NSaved=   1.
 NSaved= 1 IEnMin= 1 EnMin= -76.3464376044390     IErMin= 1 ErrMin= 7.01D-02
 ErrMax= 7.01D-02  0.00D+00 EMaxC= 1.00D-01 BMatC= 1.21D-01 BMatP= 1.21D-01
 IDIUse=3 WtCom= 2.99D-01 WtEn= 7.01D-01
 Coeff-Com:  0.100D+01
 Coeff-En:   0.100D+01
 Coeff:      0.100D+01
 Gap=     0.325 Goal=   None    Shift=    0.000
 GapD=    0.325 DampG=1.000 DampE=0.500 DampFc=0.5000 IDamp=-1.
 Damping current iteration by 5.00D-01
 RMSDP=7.93D-03 MaxDP=1.01D-01              OVMax= 1.68D-01

 Cycle   2  Pass 0  IDiag  1:
 E= -76.3778603381795     Delta-E=       -0.031422733740 Rises=F Damp=T
 DIIS: error= 1.14D-02 at cycle   2 NSaved=   2.
 NSaved= 2 IEnMin= 2 EnMin= -76.3778603381795     IErMin= 2 ErrMin= 1.14D-02
 ErrMax= 1.14D-02  0.00D+00 EMaxC= 1.00D-01 BMatC= 4.82D-03 BMatP= 1.21D-01
 IDIUse=3 WtCom= 8.86D-01 WtEn= 1.14D-01
 Coeff-Com:  0.822D-01 0.918D+00
 Coeff-En:   0.187D+00 0.813D+00
 Coeff:      0.942D-01 0.906D+00
 Gap=     0.458 Goal=   None    Shift=    0.000
 RMSDP=9.42D-04 MaxDP=1.40D-02 DE=-3.14D-02 OVMax= 1.00D-01

 Cycle   3  Pass 0  IDiag  1:
 E= -76.4217484075182     Delta-E=       -0.043888069339 Rises=F Damp=F
 DIIS: error= 2.16D-03 at cycle   3 NSaved=   3.
 NSaved= 3 IEnMin= 3 EnMin= -76.4217484075182     IErMin= 3 ErrMin= 2.16D-03
 ErrMax= 2.16D-03  0.00D+00 EMaxC= 1.00D-01 BMatC= 9.05D-05 BMatP= 4.82D-03
 IDIUse=3 WtCom= 9.78D-01 WtEn= 2.16D-02
 Coeff-Com: -0.199D-01 0.393D-01 0.981D+00
 Coeff-En:   0.000D+00 0.000D+00 0.100D+01
 Coeff:     -0.195D-01 0.385D-01 0.981D+00
 Gap=     0.462 Goal=   None    Shift=    0.000
 RMSDP=1.14D-04 MaxDP=1.03D-03 DE=-4.39D-02 OVMax= 3.31D-03

 Cycle   4  Pass 0  IDiag  1:
 E= -76.4218256054218     Delta-E=       -0.000077197904 Rises=F Damp=F
 DIIS: error= 4.12D-04 at cycle   4 NSaved=   4.
 NSaved= 4 IEnMin= 4 EnMin= -76.4218256054218     IErMin= 4 ErrMin= 4.12D-04
 ErrMax= 4.12D-04  0.00D+00 EMaxC= 1.00D-01 BMatC= 3.26D-06 BMatP= 9.05D-05
 IDIUse=3 WtCom= 9.96D-01 WtEn= 4.12D-03
 Coeff-Com: -0.188D-02-0.223D-02 0.162D+00 0.842D+00
 Coeff-En:   0.000D+00 0.000D+00 0.000D+00 0.100D+01
 Coeff:     -0.187D-02-0.222D-02 0.161D+00 0.843D+00
 Gap=     0.462 Goal=   None    Shift=    0.000
 RMSDP=2.21D-05 MaxDP=3.53D-04 DE=-7.72D-05 OVMax= 5.34D-04

 Cycle   5  Pass 0  IDiag  1:
 E= -76.4218276204730     Delta-E=       -0.000002015051 Rises=F Damp=F
 DIIS: error= 8.84D-05 at cycle   5 NSaved=   5.
 NSaved= 5 IEnMin= 5 EnMin= -76.4218276204730     IErMin= 5 ErrMin= 8.84D-05
 ErrMax= 8.84D-05  0.00D+00 EMaxC= 1.00D-01 BMatC= 8.19D-08 BMatP= 3.26D-06
 IDIUse=1 WtCom= 1.00D+00 WtEn= 0.00D+00
 Coeff-Com:  0.117D-02-0.179D-02-0.366D-01-0.644D-01 0.110D+01
 Coeff:      0.117D-02-0.179D-02-0.366D-01-0.644D-01 0.110D+01
 Gap=     0.463 Goal=   None    Shift=    0.000
 RMSDP=8.93D-06 MaxDP=1.02D-04 DE=-2.02D-06 OVMax= 2.01D-04

 Initial convergence to 1.0D-05 achieved.  Increase integral accuracy.
 Cycle   6  Pass 1  IDiag  1:
 E= -76.4218312823775     Delta-E=       -0.000003661905 Rises=F Damp=F
 DIIS: error= 1.86D-05 at cycle   1 NSaved=   1.
 NSaved= 1 IEnMin= 1 EnMin= -76.4218312823775     IErMin= 1 ErrMin= 1.86D-05
 ErrMax= 1.86D-05  0.00D+00 EMaxC= 1.00D-01 BMatC= 1.61D-08 BMatP= 1.61D-08
 IDIUse=1 WtCom= 1.00D+00 WtEn= 0.00D+00
 Coeff-Com:  0.100D+01
 Coeff:      0.100D+01
 Gap=     0.463 Goal=   None    Shift=    0.000
 RMSDP=8.93D-06 MaxDP=1.02D-04 DE=-3.66D-06 OVMax= 4.03D-05

 Cycle   7  Pass 1  IDiag  1:
 E= -76.4218312944792     Delta-E=       -0.000000012102 Rises=F Damp=F
 DIIS: error= 4.91D-06 at cycle   2 NSaved=   2.
 NSaved= 2 IEnMin= 2 EnMin= -76.4218312944792     IErMin= 2 ErrMin= 4.91D-06
 ErrMax= 4.91D-06  0.00D+00 EMaxC= 1.00D-01 BMatC= 3.62D-10 BMatP= 1.61D-08
 IDIUse=1 WtCom= 1.00D+00 WtEn= 0.00D+00
 Coeff-Com: -0.387D-01 0.104D+01
 Coeff:     -0.387D-01 0.104D+01
 Gap=     0.463 Goal=   None    Shift=    0.000
 RMSDP=4.32D-07 MaxDP=7.77D-06 DE=-1.21D-08 OVMax= 1.14D-05

 Cycle   8  Pass 1  IDiag  1:
 E= -76.4218312946073     Delta-E=       -0.000000000128 Rises=F Damp=F
 DIIS: error= 3.68D-06 at cycle   3 NSaved=   3.
 NSaved= 3 IEnMin= 3 EnMin= -76.4218312946073     IErMin= 3 ErrMin= 3.68D-06
 ErrMax= 3.68D-06  0.00D+00 EMaxC= 1.00D-01 BMatC= 3.35D-10 BMatP= 3.62D-10
 IDIUse=1 WtCom= 1.00D+00 WtEn= 0.00D+00
 Coeff-Com: -0.393D-01 0.528D+00 0.512D+00
 Coeff:     -0.393D-01 0.528D+00 0.512D+00
 Gap=     0.463 Goal=   None    Shift=    0.000
 RMSDP=2.10D-07 MaxDP=2.92D-06 DE=-1.28D-10 OVMax= 4.85D-06

 Cycle   9  Pass 1  IDiag  1:
 E= -76.4218312948249     Delta-E=       -0.000000000218 Rises=F Damp=F
 DIIS: error= 5.71D-07 at cycle   4 NSaved=   4.
 NSaved= 4 IEnMin= 4 EnMin= -76.4218312948249     IErMin= 4 ErrMin= 5.71D-07
 ErrMax= 5.71D-07  0.00D+00 EMaxC= 1.00D-01 BMatC= 3.81D-12 BMatP= 3.35D-10
 IDIUse=1 WtCom= 1.00D+00 WtEn= 0.00D+00
 Coeff-Com:  0.672D-03-0.425D-01 0.484D-01 0.993D+00
 Coeff:      0.672D-03-0.425D-01 0.484D-01 0.993D+00
 Gap=     0.463 Goal=   None    Shift=    0.000
 RMSDP=4.58D-08 MaxDP=4.91D-07 DE=-2.18D-10 OVMax= 1.08D-06

 Cycle  10  Pass 1  IDiag  1:
 E= -76.4218312948294     Delta-E=       -0.000000000005 Rises=F Damp=F
 DIIS: error= 5.87D-08 at cycle   5 NSaved=   5.
 NSaved= 5 IEnMin= 5 EnMin= -76.4218312948294     IErMin= 5 ErrMin= 5.87D-08
 ErrMax= 5.87D-08  0.00D+00 EMaxC= 1.00D-01 BMatC= 1.44D-13 BMatP= 3.81D-12
 IDIUse=1 WtCom= 1.00D+00 WtEn= 0.00D+00
 Coeff-Com:  0.185D-02-0.310D-01-0.193D-01 0.130D+00 0.919D+00
 Coeff:      0.185D-02-0.310D-01-0.193D-01 0.130D+00 0.919D+00
 Gap=     0.463 Goal=   None    Shift=    0.000
 RMSDP=1.20D-08 MaxDP=1.16D-07 DE=-4.53D-12 OVMax= 2.96D-07

 Cycle  11  Pass 1  IDiag  1:
 E= -76.4218312948295     Delta-E=       -0.000000000000 Rises=F Damp=F
 DIIS: error= 1.05D-08 at cycle   6 NSaved=   6.
 NSaved= 6 IEnMin= 6 EnMin= -76.4218312948295     IErMin= 6 ErrMin= 1.05D-08
 ErrMax= 1.05D-08  0.00D+00 EMaxC= 1.00D-01 BMatC= 3.18D-15 BMatP= 1.44D-13
 IDIUse=1 WtCom= 1.00D+00 WtEn= 0.00D+00
 Coeff-Com:  0.879D-04 0.125D-03-0.321D-02-0.356D-01-0.151D-01 0.105D+01
 Coeff:      0.879D-04 0.125D-03-0.321D-02-0.356D-01-0.151D-01 0.105D+01
 Gap=     0.463 Goal=   None    Shift=    0.000
 RMSDP=2.83D-09 MaxDP=2.94D-08 DE=-9.95D-14 OVMax= 6.90D-08

 SCF Done:  E(RM062X) =  -76.4218312948     A.U. after   11 cycles
            NFock= 11  Conv=0.28D-08     -V/T= 2.0029
 KE= 7.619710800940D+01 PE=-1.990635020980D+02 EE= 3.733832278918D+01
 Leave Link  502 at Tue Apr 26 19:16:43 2022, MaxMem= 10485760000 cpu:               7.0 elap:               0.5
 (Enter /data0/home/wuhanyu/software/g16/l601.exe)
 Copying SCF densities to generalized density rwf, IOpCl= 0 IROHF=0.

 **********************************************************************

            Population analysis using the SCF density.

 **********************************************************************

 Alpha  occ. eigenvalues --  -19.62620  -1.13389  -0.60672  -0.47602  -0.39998
 Alpha virt. eigenvalues --    0.06266   0.13331   0.17404   0.17944   0.18920
 Alpha virt. eigenvalues --    0.23330   0.51133   0.53446   0.97993   1.00213
 Alpha virt. eigenvalues --    1.06025   1.18080   1.20042   1.32211   1.33889
 Alpha virt. eigenvalues --    1.70111   1.74260   1.75555   2.07760   2.09378
 Alpha virt. eigenvalues --    2.36023   2.40749   2.54670   2.88285   3.01317
 Alpha virt. eigenvalues --    5.05661   5.48476   5.92073   6.78374   6.80147
 Alpha virt. eigenvalues --    6.87248   6.91525   7.09460  49.95778
          Condensed to atoms (all electrons):
              33         34         35
    33  O    7.916027   0.318285   0.320618
    34  H    0.318285   0.427410  -0.024201
    35  H    0.320618  -0.024201   0.427159
 Mulliken charges:
               1
     1  C    0.000000
     2  C    0.000000
     3  C    0.000000
     4  C    0.000000
     5  C    0.000000
     6  C    0.000000
     7  H    0.000000
     8  H    0.000000
     9  H    0.000000
    10  H    0.000000
    11  H    0.000000
    12  C    0.000000
    13  H    0.000000
    14  N    0.000000
    15  N    0.000000
    16  P    0.000000
    17  O    0.000000
    18  O    0.000000
    19  H    0.000000
    20  O    0.000000
    21  H    0.000000
    22  O    0.000000
    23  H    0.000000
    24  O    0.000000
    25  H    0.000000
    26  H    0.000000
    27  O    0.000000
    28  H    0.000000
    29  H    0.000000
    30  O    0.000000
    31  H    0.000000
    32  H    0.000000
    33  O   -0.554930
    34  H    0.278506
    35  H    0.276424
 Sum of Mulliken charges =   0.00000
 Mulliken charges with hydrogens summed into heavy atoms:
               1
     1  C    0.000000
     2  C    0.000000
     3  C    0.000000
     4  C    0.000000
     5  C    0.000000
     6  C    0.000000
    12  C    0.000000
    14  N    0.000000
    15  N    0.000000
    16  P    0.000000
    17  O    0.000000
    18  O    0.000000
    20  O    0.000000
    22  O    0.000000
    24  O    0.000000
    27  O    0.000000
    30  O    0.000000
    33  O    0.000000
         Mulliken charges condensed to fragments:
      1      0.000000
      2      0.000000
      3      0.000000
      4      0.000000
      5      0.000000
      6      0.000000
 Electronic spatial extent (au):  <R**2>=          15359.8659
 Charge=              0.0000 electrons
 Dipole moment (field-independent basis, Debye):
    X=             -0.0745    Y=             -0.1134    Z=             -2.1198  Tot=              2.1242
 Quadrupole moment (field-independent basis, Debye-Ang):
   XX=             -8.2160   YY=             -8.3458   ZZ=            -56.5248
   XY=             -2.6526   XZ=            -11.2501   YZ=            -35.8238
 Traceless Quadrupole moment (field-independent basis, Debye-Ang):
   XX=             16.1462   YY=             16.0164   ZZ=            -32.1626
   XY=             -2.6526   XZ=            -11.2501   YZ=            -35.8238
 Octapole moment (field-independent basis, Debye-Ang**2):
  XXX=           -116.1017  YYY=           -317.2901  ZZZ=          -1117.5865  XYY=            -89.5336
  XXY=           -144.9869  XXZ=           -148.4091  XZZ=           -287.1859  YZZ=           -935.2230
  YYZ=           -661.0016  XYZ=           -199.7830
 Hexadecapole moment (field-independent basis, Debye-Ang**3):
 XXXX=          -1134.3739 YYYY=          -9353.2684 ZZZZ=         -19466.6196 XXXY=          -1964.7435
 XXXZ=          -1628.9037 YYYX=          -2584.4950 YYYZ=         -12943.5798 ZZZX=          -5599.7181
 ZZZY=         -18363.0093 XXYY=          -2658.3950 XXZZ=          -2519.1604 YYZZ=         -16154.9226
 XXYZ=          -2545.6805 YYXZ=          -3800.8568 ZZXY=          -4866.5128
 N-N= 9.106240004598D+00 E-N=-1.990635020639D+02  KE= 7.619710800940D+01
 No NMR shielding tensors so no spin-rotation constants.
 Leave Link  601 at Tue Apr 26 19:16:43 2022, MaxMem= 10485760000 cpu:               1.2 elap:               0.1
 (Enter /data0/home/wuhanyu/software/g16/l122.exe)
 CPIOFr:  IOpCl= 0 IRwI=-1 IRwCP=  731 ICalc= 12 LCPTot=      545025 Len1MO=     1432502 IndFrg=    19167551
 Restoring MOs from calculation   1 to rwf.
 CPIOFr:  IOpCl= 0 IRwI=-2 IRwCP=  731 ICalc=  0 LCPTot=      545025 Len1MO=     1432502 IndFrg=     1977527
 Counterpoise corrected energy =   -1329.760493846230
                   BSSE energy =       0.009110878740
              sum of fragments =   -1329.650730553758
           complexation energy =     -74.59 kcal/mole (raw)
           complexation energy =     -68.88 kcal/mole (corrected)
 Leave Link  122 at Tue Apr 26 19:16:43 2022, MaxMem= 10485760000 cpu:               0.5 elap:               0.0
 (Enter /data0/home/wuhanyu/software/g16/l9999.exe)
 1\1\GINC-LOCALHOST\SP\RM062X\6-311+G(2d,p)\C7H17N2O8P1\WUHANYU\26-Apr-
 2022\0\\#p M062X/6-311+G(2d,p) nosymm em=GD3 counterpoise=6\\Title Car
 d Required\\0,1\C,0,9.847955,14.610989,10.826879\C,0,9.867309,13.31538
 8,10.203558\C,0,10.898788,12.973325,9.32261\C,0,11.878528,13.920108,9.
 084385\C,0,11.853051,15.190938,9.701028\C,0,10.845021,15.557368,10.574
 907\H,0,10.916469,11.991078,8.855594\H,0,12.701827,13.687227,8.409694\
 H,0,12.65619,15.893616,9.478459\H,0,10.821907,16.534233,11.050156\H,0,
 8.37741,15.432946,12.170852\C,0,8.078158,13.400152,11.476742\H,0,7.150
 188,13.149479,11.976404\N,0,8.713175,14.630331,11.638084\N,0,8.752718,
 12.59485,10.63898\P,0,6.112212,14.510759,8.681228\O,0,5.817793,14.1588
 77,10.072515\O,0,7.067226,13.564139,7.840209\H,0,7.121777,12.59592,8.2
 61051\O,0,4.757972,14.604188,7.856154\H,0,4.984199,14.836538,6.880109\
 O,0,6.786232,15.935041,8.493694\H,0,7.730517,15.815838,8.053657\O,0,9.
 337632,15.408159,7.366039\H,0,9.123531,14.50919,7.083769\H,0,9.937965,
 15.290827,8.112915\O,0,7.354858,11.05734,8.903386\H,0,8.078119,11.2959
 52,9.544681\H,0,6.593239,10.905185,9.463369\O,0,7.392347,16.60763,13.0
 77314\H,0,7.23536,16.564763,14.014928\H,0,6.503768,16.559306,12.663424
 \O,0,4.932377,16.258886,11.951683\H,0,5.12248,15.494507,11.379168\H,0,
 4.701707,16.954954,11.332397\\Version=ES64L-G16RevA.03\HF=-76.4218313\
 RMSD=2.828e-09\Dipole=0.4117222,0.1043587,0.1482057\Quadrupole=3.76379
 58,-5.8101515,2.0463557,12.9324135,10.1519264,6.7793689\PG=C01 [X(C7H1
 7N2O8P1)]\\@


 MOST BUREAUCRACIES FUNCTION LIKE A SEPTIC TANK.
 THE LARGE CHUNKS RISE TO THE TOP.
 Job cpu time:       0 days  5 hours  7 minutes 55.5 seconds.
 Elapsed time:       0 days  0 hours 19 minutes 22.7 seconds.
 File lengths (MBytes):  RWF=    370 Int=      0 D2E=      0 Chk=    167 Scr=      1
 Normal termination of Gaussian 16 at Tue Apr 26 19:16:43 2022.
