          34
 Energy =  -1238.20553870 a.u.  #Cluster:    1
C           3.52184000     17.10636000     17.58087400
C           2.68384400     17.52388500     16.53466600
C           2.06667500     18.77372000     16.61133200
C           2.34854700     19.60736500     17.70417400
C           3.21229000     19.17758300     18.69859600
H           1.38789700     19.11240400     15.81902100
H           4.01092600     16.11979000     17.55781400
H           1.93680500     20.62098900     17.73469300
H           3.49700100     19.82209800     19.53647900
C           2.55121500     16.65553200     15.34064100
H           2.18573800     15.64910900     15.57234700
H           1.89954700     17.08988400     14.56705000
H           3.54615700     16.54459900     14.84952100
N           3.75507300     17.92093000     18.64323000
C           4.64499500     17.47098400     19.73723600
H           4.19508800     17.77038300     20.71173900
H           4.69224800     16.35677500     19.74137200
C           6.06390900     18.05097700     19.60577300
H           6.02873900     19.15052800     19.42997500
H           6.58953500     17.92347200     20.57365100
C           6.86951300     17.39344500     18.48887200
H           7.95491500     17.54110800     18.64945900
H           6.70791300     16.30719400     18.42886900
C           6.48690300     18.06810000     17.15937900
O           6.97823400     19.17975300     16.93677600
O           5.66215500     17.45167500     16.44469900
P           4.53370000     20.24086100     14.67932600
O           3.42404600     20.49074300     15.60935500
O           4.21370000     20.93376300     13.27419900
H           5.02037100     20.75668900     12.65599900
O           5.94484500     20.83344300     15.07328500
H           6.38657500     20.18687500     15.81144600
O           4.75290000     18.71919500     14.28636400
H           5.17616500     18.19981900     15.13181500
          34
 Energy =  -1238.20263810 a.u.  #Cluster:    2
C           3.79951000     16.95638300     17.59877100
C           2.81070500     17.42759400     16.72018100
C           2.13755300     18.61185600     17.02284500
C           2.49552200     19.32468700     18.17816800
C           3.49247400     18.84159900     19.00909100
H           1.35704500     18.99854700     16.35730400
H           4.36918400     16.03809300     17.37451600
H           2.03212300     20.29398200     18.38248200
H           3.83081500     19.39513800     19.89057500
C           2.57931000     16.69178000     15.45341000
H           3.54564900     16.50667000     14.93410200
H           2.08804900     15.72386700     15.60246500
H           1.98373000     17.27484500     14.73126900
N           4.10418800     17.64776000     18.72817400
C           5.14301700     17.13480900     19.64957300
H           4.81826500     17.32393000     20.69845600
H           5.21874800     16.02744800     19.53930700
C           6.51603000     17.77961400     19.39354700
H           6.42090300     18.88435700     19.28422100
H           7.15257700     17.62578700     20.28817700
C           7.21415700     17.21379000     18.15965800
H           8.30672800     17.38436900     18.21518800
H           7.07346200     16.12876800     18.04896900
C           6.67443100     17.95519400     16.92412100
O           7.14589800     19.07305700     16.69341600
O           5.75757800     17.37924300     16.29050400
P           4.35484700     20.31813700     15.00998400
O           3.40414000     20.44038600     16.12357700
O           3.80661200     21.14014400     13.75287600
H           4.50779700     21.05305300     13.00127800
O           5.80540600     20.90351900     15.23322700
H           6.37253200     20.18799000     15.80189200
O           4.51940400     18.84896100     14.43042100
H           5.07161600     18.25467400     15.13827900
          34
 Energy =  -1238.20125120 a.u.  #Cluster:    3
C           3.38702000     17.23542400     17.07418400
C           2.38050800     17.59577700     16.16277400
C           1.57651200     18.70174900     16.44062000
C           1.81548800     19.44698500     17.59681900
C           2.83192700     19.06573400     18.46978100
H           0.80668400     19.01686700     15.73390000
H           4.07513400     16.39392200     16.86290700
H           1.25323800     20.36209700     17.79390000
H           3.08147800     19.66072100     19.35512300
C           2.24353400     16.83280600     14.89861600
H           1.22308600     16.84635000     14.49560900
H           2.89873500     17.28696900     14.12077800
H           2.55432000     15.78311000     14.98640800
N           3.57935800     17.95353900     18.20922800
C           4.60805300     17.52436800     19.18711000
H           4.10337900     17.34692600     20.16242400
H           5.03541300     16.54380700     18.85359600
C           5.75278300     18.54346100     19.34130200
H           5.46887200     19.53212700     18.91135700
H           5.94440600     18.72844400     20.41462300
C           7.03080500     18.05751500     18.65815800
H           7.89691300     18.67839600     18.95635200
H           7.28429600     17.01970700     18.91957900
C           6.82571800     18.17490000     17.14052000
O           7.54093500     18.96071500     16.51357600
O           5.88036200     17.49473800     16.66127800
P           4.57687300     20.45031400     15.51382400
O           3.93734900     20.61511700     16.82620000
O           3.76753500     21.29244300     14.42171000
H           4.28064800     21.20970500     13.53025400
O           6.06310600     20.96809100     15.35196900
H           6.71711400     20.22179700     15.75002000
O           4.52624400     18.97511300     14.92920600
H           5.16217900     18.33029600     15.52632900
          34
 Energy =  -1238.19894160 a.u.  #Cluster:    4
C           3.63353200     17.09494100     17.67753600
C           2.66384600     17.25289500     16.67087200
C           1.92398900     18.43124400     16.61846400
C           2.20048000     19.45538100     17.53118100
C           3.21118100     19.29008800     18.47161100
H           1.17801200     18.58389100     15.83511700
H           4.23615800     16.17143800     17.74693200
H           1.68028700     20.41434800     17.46239300
H           3.52072100     20.10719000     19.13213000
C           2.52954700     16.18701900     15.64917900
H           3.44517300     16.18052000     15.01080000
H           2.44171200     15.18175300     16.07961700
H           1.68168100     16.34171200     14.96961000
N           3.88581400     18.10187200     18.55132500
C           4.93329800     17.93064700     19.58436700
H           4.67080000     18.55221500     20.47115900
H           4.93312400     16.87137800     19.93178300
C           6.32850100     18.31860400     19.06646100
H           6.27298200     19.25821500     18.46480800
H           6.97187600     18.57195000     19.93266700
C           6.98945300     17.21837700     18.23690100
H           8.08845700     17.23582400     18.36744300
H           6.65933000     16.20918200     18.51740100
C           6.67105800     17.49615900     16.75760700
O           7.44656100     18.22479900     16.13380000
O           5.59948200     17.00252800     16.32141300
P           4.72528800     20.12469100     15.17445200
O           4.26287800     20.46794800     16.52622500
O           3.99457100     21.06848400     14.11054300
H           4.37239700     20.82896100     13.18043000
O           6.26151300     20.32934400     14.85453300
H           6.79960900     19.51615700     15.29462800
O           4.33580300     18.66684500     14.68216500
H           4.90088500     17.94343000     15.25447800
          34
 Energy =  -1238.19869590 a.u.  #Cluster:    5
C           3.45701600     19.32958000     17.80190800
C           2.38432800     19.68597000     16.96733000
C           1.45259200     18.71597500     16.60267500
C           1.62151900     17.40650600     17.05782100
C           2.71449100     17.08693300     17.85828700
H           0.63230500     18.96135900     15.92643000
H           4.23897600     20.08280800     18.05210400
H           0.94189000     16.61514200     16.73680100
H           2.91683100     16.05268900     18.15896100
C           2.33424900     21.06275300     16.42008300
H           1.32547800     21.37818900     16.12757000
H           2.73797900     21.82013100     17.10605700
H           2.96598800     21.11189400     15.50246700
N           3.60671600     18.05604600     18.23577500
C           4.78182300     17.60973700     19.02819000
H           4.42965600     16.87964900     19.79161100
H           5.45817000     17.03731200     18.32472900
C           5.57719400     18.73338000     19.71209200
H           4.96841000     19.65081900     19.82666000
H           5.81696600     18.42473000     20.75088800
C           6.87981900     19.06155000     18.97726500
H           7.24851700     20.06595000     19.24889800
H           7.68120200     18.34918900     19.24728900
C           6.65448600     19.01329800     17.45763400
O           5.89357900     19.88527700     16.98208700
O           7.17924800     18.07657800     16.83925900
P           4.49887500     17.63359800     14.69028900
O           3.62046800     16.95364200     15.65271500
O           3.93995100     17.39051200     13.21302100
H           4.58753400     17.86324100     12.56180000
O           4.51017600     19.21752900     14.80836400
H           5.15267200     19.51655200     15.61882400
O           6.00202500     17.15732300     14.60949100
H           6.52887400     17.53418800     15.47465200
