          34
 G =       -0.334606 Gcorr = 0.200833 a.u. Nimag =   0 Frame:     1 Step:     1 Geom:     1
C           3.38479500     17.25039100     17.29407600
C           2.29360400     17.67932700     16.52043900
C           1.61293200     18.84002400     16.89002600
C           2.05510400     19.56859000     17.99575000
C           3.14962500     19.11785600     18.73044600
H           0.77980400     19.20735700     16.28803700
H           3.97859000     16.36227300     17.00271900
H           1.58967100     20.52162700     18.25543700
H           3.55557400     19.69542200     19.56817400
C           1.93605900     16.92590700     15.29426100
H           2.50995700     17.33298700     14.43079600
H           2.18369500     15.85746100     15.35058700
H           0.87392200     17.00913400     15.03179400
N           3.77613100     17.95519200     18.38560300
C           4.89329600     17.45619500     19.22326500
H           4.51166100     17.31671800     20.25883200
H           5.20296000     16.44725100     18.84718800
C           6.11664400     18.39215400     19.21304600
H           5.84773500     19.39775200     18.81390300
H           6.46212700     18.56447300     20.24936300
C           7.25516700     17.81605300     18.37151000
H           8.19470100     18.37420700     18.54585500
H           7.46766900     16.76311100     18.60772700
C           6.85871400     17.94651200     16.89344500
O           7.53701300     18.67990000     16.16947500
O           5.81315300     17.33376800     16.55067200
P           4.57769200     20.37028300     15.55380100
O           4.13475300     20.58168800     16.93864400
O           3.68868100     21.26626000     14.57199300
H           4.07285300     21.15108200     13.62125500
O           6.06095500     20.78090200     15.18660100
H           6.70897400     19.99213800     15.50514200
O           4.34605400     18.90161000     14.99746300
H           5.00974400     18.21443300     15.51270200
          34
 G =       -0.335394 Gcorr = 0.199698 a.u. Nimag =   0 Frame:     2 Step:     2 Geom:     2
C           3.63353200     17.09494100     17.67753600
C           2.66384600     17.25289500     16.67087200
C           1.92398900     18.43124400     16.61846400
C           2.20048000     19.45538100     17.53118100
C           3.21118100     19.29008800     18.47161100
H           1.17801200     18.58389100     15.83511700
H           4.23615800     16.17143800     17.74693200
H           1.68028700     20.41434800     17.46239300
H           3.52072100     20.10719000     19.13213000
C           2.52954700     16.18701900     15.64917900
H           3.44517300     16.18052000     15.01080000
H           2.44171200     15.18175300     16.07961700
H           1.68168100     16.34171200     14.96961000
N           3.88581400     18.10187200     18.55132500
C           4.93329800     17.93064700     19.58436700
H           4.67080000     18.55221500     20.47115900
H           4.93312400     16.87137800     19.93178300
C           6.32850100     18.31860400     19.06646100
H           6.27298200     19.25821500     18.46480800
H           6.97187600     18.57195000     19.93266700
C           6.98945300     17.21837700     18.23690100
H           8.08845700     17.23582400     18.36744300
H           6.65933000     16.20918200     18.51740100
C           6.67105800     17.49615900     16.75760700
O           7.44656100     18.22479900     16.13380000
O           5.59948200     17.00252800     16.32141300
P           4.72528800     20.12469100     15.17445200
O           4.26287800     20.46794800     16.52622500
O           3.99457100     21.06848400     14.11054300
H           4.37239700     20.82896100     13.18043000
O           6.26151300     20.32934400     14.85453300
H           6.79960900     19.51615700     15.29462800
O           4.33580300     18.66684500     14.68216500
H           4.90088500     17.94343000     15.25447800
          34
 G =       -0.332441 Gcorr = 0.202815 a.u. Nimag =   0 Frame:     3 Step:     3 Geom:     3
C           3.74722900     16.91968000     17.56808000
C           2.79082800     17.41042400     16.66497600
C           2.13894500     18.61226800     16.94682200
C           2.50122900     19.33121800     18.09595700
C           3.47827900     18.83532200     18.94396800
H           1.36978400     19.00403600     16.26995500
H           4.26748600     15.96681300     17.38253500
H           2.05759100     20.31385500     18.28439400
H           3.82402300     19.39511800     19.81893900
C           2.56793900     16.67572600     15.39695200
H           3.51008200     16.66971200     14.80054800
H           2.26682100     15.63284100     15.54489900
H           1.82358800     17.16121300     14.74729600
N           4.05848900     17.62056800     18.68985200
C           5.07217600     17.09440000     19.63157800
H           4.71409800     17.26044100     20.67366700
H           5.16070400     15.99036200     19.50121300
C           6.44766900     17.75354900     19.43039400
H           6.35412100     18.86290300     19.38902800
H           7.07458000     17.54317200     20.32035100
C           7.15758300     17.26632100     18.17039400
H           8.24745800     17.44802900     18.23964400
H           7.03130900     16.18710500     17.99995000
C           6.61463200     18.06681800     16.97311600
O           7.03810000     19.21916700     16.83457300
O           5.74409800     17.49481800     16.27580700
P           4.33646500     20.40528800     14.96495500
O           3.31894900     20.49570600     16.02096700
O           3.84922000     21.23380100     13.68706200
H           4.59273500     21.16251400     12.97556800
O           5.75673000     21.01970600     15.28670300
H           6.29623600     20.31716100     15.89689000
O           4.57216500     18.94970900     14.37912000
H           5.09866100     18.36026800     15.11387100
          34
 G =       -0.334605 Gcorr = 0.200834 a.u. Nimag =   0 Frame:     4 Step:     4 Geom:     4
C           3.54013500     17.12534000     17.12165500
C           2.40903600     17.54283400     16.40087400
C           1.62577400     18.58089800     16.90690200
C           2.00523200     19.20579700     18.09619900
C           3.14155600     18.77201600     18.77553100
H           0.75842100     18.94043100     16.35031200
H           4.21201100     16.33878400     16.72637800
H           1.45475300     20.07209600     18.46884900
H           3.49750500     19.27761200     19.67989000
C           2.11564700     16.91596400     15.08944600
H           2.46211800     15.87644100     15.01530900
H           1.04877800     16.93151400     14.83347200
H           2.64370100     17.47770400     14.28559800
N           3.87119000     17.72389600     18.29359600
C           5.03523500     17.23175000     19.06918000
H           4.67487300     16.93100300     20.07771800
H           5.43493400     16.30997900     18.57330900
C           6.16621700     18.27158300     19.18047300
H           5.80259300     19.28913500     18.90621400
H           6.50044100     18.34692000     20.23194100
C           7.34823400     17.91136600     18.28079800
H           8.23281300     18.52901800     18.52721200
H           7.65932500     16.86186500     18.38761400
C           6.93251700     18.18409300     16.82764400
O           7.53556300     19.06002200     16.20221000
O           5.94597200     17.52375500     16.40698500
P           4.42766100     20.53234000     15.78478300
O           3.97469000     20.53066400     17.18242900
O           3.45414500     21.45537200     14.91461400
H           3.84187400     21.49281000     13.95906000
O           5.86451200     21.12065900     15.47991600
H           6.58449800     20.36154900     15.70069700
O           4.33020200     19.12773300     15.05137500
H           5.05784800     18.44709500     15.48184300
          34
 G =       -0.332426 Gcorr = 0.202829 a.u. Nimag =   0 Frame:     5 Step:     5 Geom:     5
C           3.76214700     16.96307200     17.56730700
C           2.81171100     17.45199600     16.65686700
C           2.16156800     18.65686500     16.92951300
C           2.51929300     19.38010100     18.07745700
C           3.49064200     18.88578300     18.93283600
H           1.39733700     19.04765000     16.24652500
H           4.28095300     16.00803200     17.38894800
H           2.07698300     20.36461100     18.25904200
H           3.83302800     19.44868700     19.80712600
C           2.59359200     16.71196000     15.39113100
H           3.53742000     16.70558300     14.79727700
H           2.29457500     15.66890800     15.54220000
H           1.84979200     17.19318700     14.73779000
N           4.06931000     17.66845400     18.68735500
C           5.07723400     17.14468100     19.63658600
H           4.71535800     17.31825800     20.67612300
H           5.16253600     16.03959100     19.51327200
C           6.45581900     17.79793100     19.43724600
H           6.36627300     18.90736700     19.38952600
H           7.07843000     17.59021200     20.33088400
C           7.16905600     17.30127800     18.18282900
H           8.25945400     17.47830400     18.25607200
H           7.03859200     16.22190500     18.01695400
C           6.63527300     18.09856700     16.97923700
O           7.06447200     19.24833100     16.83727900
O           5.76548200     17.52701500     16.28059100
P           4.37427200     20.43656500     14.95231500
O           3.35341900     20.53324600     16.00456700
O           3.89371400     21.26229400     13.67008100
H           4.64018200     21.18770600     12.96188800
O           5.79549300     21.04763100     15.27633000
H           6.32994500     20.34630000     15.89226300
O           4.60773500     18.97821100     14.37254300
H           5.12891100     18.38975400     15.11206800
          34
 G =       -0.334788 Gcorr = 0.200541 a.u. Nimag =   0 Frame:     6 Step:     6 Geom:     6
C           3.86531800     16.99574900     17.57683900
C           2.89602200     17.43832400     16.66243600
C           2.19245400     18.61345300     16.92964000
C           2.50129300     19.34618100     18.08663700
C           3.48062000     18.89137500     18.95375300
H           1.42623000     18.97786100     16.23554200
H           4.45822500     16.08556200     17.38162800
H           2.01426500     20.30902900     18.26475700
H           3.78126000     19.46139200     19.83840800
C           2.71748700     16.68369900     15.39817000
H           3.70296000     16.50657200     14.91327800
H           2.23541900     15.71056400     15.54326500
H           2.13784000     17.24912300     14.64947100
N           4.12232100     17.70593000     18.70647300
C           5.14143400     17.22322100     19.66547100
H           4.78173500     17.41975400     20.70152700
H           5.23970800     16.11610100     19.57214600
C           6.51009200     17.88921700     19.44249100
H           6.39897700     18.99062800     19.31574400
H           7.12174000     17.75825800     20.35786500
C           7.25527900     17.32043600     18.23780200
H           8.34254000     17.51077500     18.32428800
H           7.13659000     16.23184900     18.13688800
C           6.74107600     18.03702000     16.97695600
O           7.19954800     19.16048800     16.74710600
O           5.85486800     17.43700200     16.32253000
P           4.44001900     20.33537200     14.96489000
O           3.45440100     20.45394700     16.04808500
O           3.91574100     21.13267900     13.68191200
H           4.64124800     21.05015600     12.95318600
O           5.87297900     20.94872200     15.22388500
H           6.43493900     20.25043000     15.81859500
O           4.64698700     18.86251500     14.40869000
H           5.18838400     18.28664100     15.13966800
          34
 G =       -0.334799 Gcorr = 0.200530 a.u. Nimag =   0 Frame:     7 Step:     7 Geom:     7
C           3.79951000     16.95638300     17.59877100
C           2.81070500     17.42759400     16.72018100
C           2.13755300     18.61185600     17.02284500
C           2.49552200     19.32468700     18.17816800
C           3.49247400     18.84159900     19.00909100
H           1.35704500     18.99854700     16.35730400
H           4.36918400     16.03809300     17.37451600
H           2.03212300     20.29398200     18.38248200
H           3.83081500     19.39513800     19.89057500
C           2.57931000     16.69178000     15.45341000
H           3.54564900     16.50667000     14.93410200
H           2.08804900     15.72386700     15.60246500
H           1.98373000     17.27484500     14.73126900
N           4.10418800     17.64776000     18.72817400
C           5.14301700     17.13480900     19.64957300
H           4.81826500     17.32393000     20.69845600
H           5.21874800     16.02744800     19.53930700
C           6.51603000     17.77961400     19.39354700
H           6.42090300     18.88435700     19.28422100
H           7.15257700     17.62578700     20.28817700
C           7.21415700     17.21379000     18.15965800
H           8.30672800     17.38436900     18.21518800
H           7.07346200     16.12876800     18.04896900
C           6.67443100     17.95519400     16.92412100
O           7.14589800     19.07305700     16.69341600
O           5.75757800     17.37924300     16.29050400
P           4.35484700     20.31813700     15.00998400
O           3.40414000     20.44038600     16.12357700
O           3.80661200     21.14014400     13.75287600
H           4.50779700     21.05305300     13.00127800
O           5.80540600     20.90351900     15.23322700
H           6.37253200     20.18799000     15.80189200
O           4.51940400     18.84896100     14.43042100
H           5.07161600     18.25467400     15.13827900
          34
 G =       -0.332442 Gcorr = 0.202813 a.u. Nimag =   0 Frame:     8 Step:     8 Geom:     8
C           3.81546200     16.91944000     17.52005900
C           2.85871100     17.38113400     16.60208300
C           2.17049800     18.56560900     16.87064000
C           2.49666300     19.29750400     18.02246500
C           3.47492300     18.83108000     18.88562800
H           1.40075500     18.93436000     16.18163800
H           4.36407600     15.98060600     17.34494800
H           2.02369600     20.26816100     18.20141800
H           3.79282200     19.40267500     19.76353000
C           2.67365600     16.63677800     15.33364200
H           2.40376200     15.58527900     15.48085300
H           1.92209000     17.09700600     14.67409500
H           3.62257100     16.65879400     14.74830100
N           4.09174000     17.63196100     18.64365000
C           5.10652500     17.13691500     19.60096500
H           4.72945000     17.29571200     20.63745100
H           5.22772300     16.03545200     19.47524900
C           6.46576700     17.83371000     19.41674300
H           6.34182600     18.93985500     19.36962000
H           7.08550200     17.64417900     20.31638300
C           7.20695000     17.36185600     18.16900000
H           8.29031800     17.57375200     18.25317800
H           7.11294600     16.27901400     18.00080500
C           6.65944700     18.14297400     16.96102500
O           7.05456100     19.30554900     16.82332500
O           5.81366700     17.54571200     16.25467000
P           4.34674100     20.41319900     14.91485500
O           3.31303700     20.47818300     15.95692500
O           3.85420200     21.22504800     13.62832200
H           4.60822300     21.17087100     12.92632300
O           5.74572700     21.06581000     15.25330100
H           6.29563600     20.37912200     15.87318500
O           4.62916700     18.96278700     14.33627800
H           5.16116700     18.38995200     15.07948000
          34
 G =       -0.332431 Gcorr = 0.202824 a.u. Nimag =   0 Frame:     9 Step:     9 Geom:     9
C           3.75007200     16.94215300     17.61277100
C           2.83337500     17.43196700     16.66882100
C           2.20407100     18.65644900     16.89968700
C           2.55039300     19.39669100     18.04028100
C           3.48938300     18.89993600     18.92969100
H           1.46530400     19.04881200     16.19013400
H           4.25100300     15.97200900     17.46782700
H           2.12634700     20.39456300     18.18969400
H           3.82333000     19.47421200     19.79982700
C           2.62964400     16.66952000     15.41405500
H           1.91956300     17.15726200     14.72865400
H           3.58920800     16.62213900     14.84801200
H           2.29510800     15.63957700     15.57956800
N           4.04601500     17.66495300     18.72468000
C           5.01866100     17.13999000     19.70941800
H           4.63514800     17.34307200     20.73577300
H           5.08303900     16.03100300     19.61105000
C           6.41556600     17.75965900     19.53116200
H           6.35112700     18.86935000     19.45693600
H           7.01104000     17.55903000     20.44466500
C           7.14912300     17.22030000     18.30646800
H           8.24084800     17.37646900     18.40339500
H           7.00012800     16.14030200     18.16121100
C           6.66230900     18.00083100     17.07243400
O           7.11964000     19.13786500     16.91581900
O           5.79777000     17.43201500     16.36520800
P           4.50353200     20.34090100     14.93883900
O           3.46006700     20.48472600     15.96313200
O           4.07300700     21.14722300     13.62682000
H           4.83710300     21.04478700     12.94126600
O           5.93041300     20.92690100     15.28352600
H           6.43371600     20.22824300     15.92840000
O           4.71706800     18.86458700     14.39810000
H           5.20788500     18.28253300     15.16270500
          34
 G =       -0.334793 Gcorr = 0.200536 a.u. Nimag =   0 Frame:    10 Step:    10 Geom:    10
C           3.73602900     17.01338800     17.45216500
C           2.78527900     17.40237700     16.49482000
C           2.01165000     18.54058700     16.72519600
C           2.23304700     19.29246800     17.88998900
C           3.19651700     18.89180300     18.80040000
H           1.25786100     18.86255300     15.99733500
H           4.38236400     16.13405100     17.28750800
H           1.69022700     20.22969400     18.04158000
H           3.42985100     19.47978700     19.69355700
C           2.69995100     16.63510200     15.22847300
H           2.26535700     15.63784700     15.35893700
H           2.12220300     17.16593200     14.45346700
H           3.71280000     16.50981000     14.78560800
N           3.90790100     17.73981100     18.58753500
C           4.90818600     17.31347000     19.59198400
H           4.49443800     17.49440100     20.61055000
H           5.06737800     16.21260600     19.50885200
C           6.24920500     18.04837300     19.42451700
H           6.08731200     19.14224800     19.28781700
H           6.82687800     17.95133000     20.36584800
C           7.07359700     17.51547200     18.25557500
H           8.14484800     17.76240700     18.38725300
H           7.01599000     16.42188300     18.15548800
C           6.57721100     18.20037600     16.97024400
O           6.98621500     19.34546100     16.75397400
O           5.75200900     17.55309500     16.28196800
P           4.24926900     20.37032700     14.84856700
O           3.21241000     20.44126700     15.88719700
O           3.74116300     21.13542400     13.53974500
H           4.50025600     21.08635200     12.84291200
O           5.63603200     21.05756900     15.16637800
H           6.20681300     20.39074400     15.78844800
O           4.55580000     18.90833700     14.30977000
H           5.09395600     18.36367600     15.06637500
          34
 G =       -0.334788 Gcorr = 0.200541 a.u. Nimag =   0 Frame:    11 Step:    11 Geom:    11
C           3.56299200     17.10943200     17.41455400
C           2.58907800     17.63533500     16.55042000
C           1.84956900     18.74812400     16.95282300
C           2.12737700     19.33971700     18.19539700
C           3.11181400     18.80779100     19.01121300
H           1.07889200     19.17463900     16.30030000
H           4.18347600     16.24723000     17.11502600
H           1.61136200     20.25929600     18.48542200
H           3.38829500     19.27132400     19.96335400
C           2.44334900     17.03906200     15.20028500
H           1.85226000     17.67588500     14.52109800
H           3.43749800     16.95291600     14.70839500
H           1.99039200     16.04159300     15.21784200
N           3.78957900     17.68031500     18.62658800
C           4.81390300     17.11053000     19.53068400
H           4.43906800     17.16542600     20.57849300
H           4.94618500     16.02709400     19.30096600
C           6.16405800     17.83795900     19.41009200
H           6.02128900     18.94288600     19.42041600
H           6.77098300     17.61087500     20.30973100
C           6.93676200     17.44572500     18.15347200
H           8.01698300     17.65509800     18.27668500
H           6.85197400     16.37525700     17.91637200
C           6.41239800     18.29876400     16.98517500
O           6.83961900     19.45445200     16.90163400
O           5.54957000     17.76007000     16.25092000
P           4.06191900     20.76365000     15.24411700
O           3.06321900     20.71963100     16.32089900
O           3.52641800     21.69844900     14.06264200
H           4.25901200     21.72346900     13.33673500
O           5.47369600     21.38020800     15.59534800
H           6.05046100     20.62955100     16.10594100
O           4.31741700     19.37727300     14.51307700
H           4.86914100     18.73100800     15.17390500
          34
 G =       -0.334603 Gcorr = 0.200835 a.u. Nimag =   0 Frame:    12 Step:    12 Geom:    12
C           3.50998000     17.06458900     17.24270900
C           2.46449700     17.38021800     16.35906300
C           1.68711600     18.51289600     16.60309900
C           1.98995500     19.32688600     17.69623700
C           3.04324900     18.98777500     18.54250300
H           0.88749800     18.79312700     15.91499400
H           4.17794500     16.20188300     17.05339900
H           1.44805600     20.26056400     17.86052300
H           3.34186400     19.63438200     19.37489000
C           2.25783300     16.54038400     15.15451100
H           1.21897500     16.54195000     14.80131400
H           2.87871900     16.93545900     14.31848500
H           2.56172000     15.49432800     15.29429300
N           3.76489300     17.85082400     18.31875800
C           4.83506000     17.47072400     19.27207900
H           4.37640600     17.36362300     20.27986500
H           5.23447000     16.46465200     18.98294800
C           5.99732500     18.48107200     19.30497200
H           5.70373800     19.44429900     18.82658700
H           6.24350500     18.73114500     20.35374700
C           7.23475500     17.93422400     18.59364900
H           8.12175800     18.55954700     18.81037700
H           7.48842400     16.91117500     18.90783200
C           6.95789000     17.95950500     17.08320000
O           7.65130500     18.69295600     16.37414400
O           5.98158200     17.26514500     16.69392200
P           4.65732900     20.15687800     15.42404700
O           4.08760700     20.41343300     16.75380100
O           3.80242300     20.93993400     14.32267300
H           4.26927200     20.79526600     13.41382400
O           6.13898000     20.64286800     15.15443700
H           6.80376100     19.91569300     15.56857600
O           4.56246600     18.64877800     14.93815500
H           5.21964500     18.03384600     15.54641600
          34
 G =       -0.332448 Gcorr = 0.202808 a.u. Nimag =   0 Frame:    13 Step:    13 Geom:    13
C           3.49758300     17.11414300     17.56417500
C           2.70973000     17.56976100     16.49512400
C           2.16188700     18.85264300     16.54874800
C           2.46370300     19.67769200     17.64279800
C           3.27785800     19.20805300     18.66072900
H           1.52244500     19.22263200     15.73792200
H           3.93082700     16.10156700     17.55949000
H           2.10883900     20.71294800     17.65671100
H           3.57802500     19.84209600     19.50118700
C           2.55754000     16.70099600     15.30372000
H           2.13055400     15.71845500     15.53268900
H           1.95028900     17.16524300     14.51156300
H           3.55630700     16.53070100     14.83801400
N           3.75053400     17.92262200     18.62667200
C           4.58750200     17.43220200     19.74482100
H           4.13162500     17.76335300     20.70621000
H           4.57257100     16.31715200     19.75690100
C           6.03926300     17.93151500     19.64458300
H           6.06963200     19.02996300     19.46124400
H           6.53345000     17.78226700     20.62584500
C           6.83378000     17.22194000     18.55183200
H           7.92152200     17.31055800     18.73799000
H           6.61362800     16.14587400     18.49469700
C           6.52124800     17.90655400     17.20918500
O           7.07968400     18.98681800     16.99076300
O           5.67982800     17.33185900     16.47919500
P           4.75236400     20.16491300     14.66772600
O           3.63663100     20.48434000     15.56871300
O           4.50550700     20.86283200     13.25037700
H           5.31508400     20.63495200     12.65300500
O           6.18471900     20.68115700     15.09168000
H           6.57198900     20.01706300     15.84438300
O           4.89525500     18.63015900     14.29104300
H           5.26860200     18.09501300     15.15029500
          34
 G =       -0.332449 Gcorr = 0.202806 a.u. Nimag =   0 Frame:    14 Step:    14 Geom:    14
C           3.52184000     17.10636000     17.58087400
C           2.68384400     17.52388500     16.53466600
C           2.06667500     18.77372000     16.61133200
C           2.34854700     19.60736500     17.70417400
C           3.21229000     19.17758300     18.69859600
H           1.38789700     19.11240400     15.81902100
H           4.01092600     16.11979000     17.55781400
H           1.93680500     20.62098900     17.73469300
H           3.49700100     19.82209800     19.53647900
C           2.55121500     16.65553200     15.34064100
H           2.18573800     15.64910900     15.57234700
H           1.89954700     17.08988400     14.56705000
H           3.54615700     16.54459900     14.84952100
N           3.75507300     17.92093000     18.64323000
C           4.64499500     17.47098400     19.73723600
H           4.19508800     17.77038300     20.71173900
H           4.69224800     16.35677500     19.74137200
C           6.06390900     18.05097700     19.60577300
H           6.02873900     19.15052800     19.42997500
H           6.58953500     17.92347200     20.57365100
C           6.86951300     17.39344500     18.48887200
H           7.95491500     17.54110800     18.64945900
H           6.70791300     16.30719400     18.42886900
C           6.48690300     18.06810000     17.15937900
O           6.97823400     19.17975300     16.93677600
O           5.66215500     17.45167500     16.44469900
P           4.53370000     20.24086100     14.67932600
O           3.42404600     20.49074300     15.60935500
O           4.21370000     20.93376300     13.27419900
H           5.02037100     20.75668900     12.65599900
O           5.94484500     20.83344300     15.07328500
H           6.38657500     20.18687500     15.81144600
O           4.75290000     18.71919500     14.28636400
H           5.17616500     18.19981900     15.13181500
          34
 G =       -0.332440 Gcorr = 0.202815 a.u. Nimag =   0 Frame:    15 Step:    15 Geom:    15
C           3.41107300     17.15715000     17.59544400
C           2.64720000     17.66421700     16.53220600
C           2.13106400     18.95843900     16.61847400
C           2.44084900     19.74260600     17.73999200
C           3.23129700     19.22236300     18.75200900
H           1.51042000     19.36847200     15.81232400
H           3.81904500     16.13456000     17.56491300
H           2.11183800     20.78565100     17.78126300
H           3.53756300     19.82332300     19.61430200
C           2.48694200     16.83551300     15.31365700
H           3.48629100     16.65527700     14.85291100
H           2.03443300     15.85705500     15.50861300
H           1.89923500     17.33769700     14.52997600
N           3.67197200     17.92695500     18.68442000
C           4.48335000     17.38233800     19.79633300
H           4.02556700     17.69728800     20.76225000
H           4.43926700     16.26817500     19.77549500
C           5.94864900     17.84592000     19.72589500
H           6.00960500     18.94820900     19.57614000
H           6.42807400     17.65440800     20.70712900
C           6.73624500     17.14868500     18.62026300
H           7.82380800     17.20253200     18.82018700
H           6.48841500     16.08109600     18.52811200
C           6.45685700     17.88163400     17.29591200
O           7.04469000     18.95357300     17.11712900
O           5.61011700     17.35098400     16.53926300
P           4.77507700     20.26087300     14.80620300
O           3.65724700     20.58068300     15.70448800
O           4.56224100     21.00792600     13.40853100
H           5.37283400     20.77814000     12.81324200
O           6.21482500     20.72741700     15.26154900
H           6.57658500     20.03092900     15.99753700
O           4.88386500     18.73524100     14.38378600
H           5.23346600     18.16470500     15.23007800
          34
 G =       -0.332439 Gcorr = 0.202816 a.u. Nimag =   0 Frame:    16 Step:    16 Geom:    16
C           3.28196000     17.22780400     17.64966400
C           2.54559400     17.66396300     16.53668000
C           2.09308500     18.98380900     16.49186400
C           2.43838100     19.85868800     17.53305700