          25
 Energy =     -0.46700500 a.u.  #Cluster:    1
C           4.16239400     10.64936000     10.45026600
C           3.87235100      9.86169200      9.32780100
C           2.95672200      8.82091900      9.46012400
C           2.35830900      8.59099100     10.69851100
C           2.70141800      9.42133800     11.77122300
N           3.58384600     10.43116900     11.64602800
H           2.71002700      8.19125500      8.60565000
H           4.88103900     11.48290400     10.40362700
H           4.35665500     10.06372300      8.37691200
H           1.64216700      7.78586400     10.83101400
H           2.26687200      9.28747100     12.76832300
P           6.10542800     12.34012300     13.56107200
O           6.68392100     12.33284400     12.21871000
O           6.63231600     11.19571100     14.55017900
H           7.56366400     10.88679400     14.23318400
O           6.37602600     13.69188200     14.34551000
H           5.86520000     13.64696500     15.25371100
O           4.53574200     12.16926400     13.72756400
H           4.19619800     11.45999300     13.01767600
O           4.81454100     13.25547900     16.80908400
H           4.01933300     13.03678000     16.31015100
H           5.21191200     12.40275000     17.01405200
O           9.25595100     10.54876000     13.36990500
H           8.89744200     10.48118400     12.47752300
H           9.65052900     11.42479800     13.40220900
          25
 Energy =     -0.46656500 a.u.  #Cluster:    2
C           4.70322200      8.13008400     10.98224600
C           3.74702800      7.51397600     10.16729700
C           2.44472700      8.01236200     10.17483900
C           2.13562300      9.10063100     10.98685500
C           3.14986800      9.66130200     11.77515400
N           4.40725900      9.18055800     11.77175500
H           1.67800400      7.55476200      9.55021200
H           5.74328800      7.78583200     11.01563800
H           4.01682800      6.66770600      9.54308600
H           1.13114900      9.51316100     11.01114000
H           2.96105100     10.52451700     12.43158900
P           5.89505500     12.18436400     13.35745200
O           6.06489900     12.95038400     12.12900700
O           6.73235300     12.66994200     14.63503900
H           7.56811700     13.17857900     14.29756700
O           4.39935200     12.21038400     13.90037200
H           4.39112400     11.83239200     14.86749000
O           6.31481400     10.65374100     13.34030900
H           5.67314700     10.13985200     12.67331900
O           4.70687900     11.09187200     16.60333100
H           5.38756300     11.73450800     16.83324400
H           5.19903500     10.30991800     16.33206300
O           8.91950000     14.15552100     13.38770600
H           9.20241300     13.51757100     12.72557700
H           8.33770400     14.75609000     12.90772600
          25
 Energy =     -0.46648100 a.u.  #Cluster:    3
C           3.88192800      9.27602100     11.36655500
C           3.05646200      8.33036400     10.74275700
C           1.68145300      8.54936300     10.72784000
C           1.16608100      9.69678200     11.32997200
C           2.05625200     10.59304200     11.93145700
N           3.38698000     10.38446700     11.94811300
H           1.01378700      7.83263100     10.25029600
H           4.97596400      9.15194500     11.40793200
H           3.48769600      7.44646600     10.28168800
H           0.09840900      9.89357100     11.33302000
H           1.71092800     11.51139400     12.41992800
P           6.72813600     11.59929100     13.13394200
O           6.90350000     10.17022700     12.88277600
O           7.38252400     12.19681000     14.46566600
H           7.35430600     11.46177900     15.19434700
O           7.37136800     12.52212300     12.01811500
H           7.16624600     13.51518700     12.26653400
O           5.23567500     12.13001200     13.29443400
H           4.58410300     11.50074300     12.75440000
O           6.60788100     15.20184800     12.99655000
H           7.02027100     15.09475900     13.85989400
H           5.69273700     14.93051200     13.13153600
O           7.30610500      9.88132800     16.26876600
H           7.80652100      9.32454300     15.66141200
H           6.39469200      9.59481100     16.16208700
          25
 Energy =     -0.46633900 a.u.  #Cluster:    4
C           4.35502100      9.87806900     10.00872400
C           3.16241200     10.54140100     10.32026500
C           2.44803600     10.13382300     11.44570900
C           2.92399400      9.06798000     12.20812900
C           4.12646400      8.45827500     11.82528000
N           4.83571700      8.86013000     10.75082900
H           1.53805800     10.65492800     11.73757600
H           4.96967200     10.17191600      9.15215100
H           2.82530300     11.37848100      9.71837100
H           2.39997300      8.73956700     13.09920100
H           4.56248900      7.63629600     12.40155300
P           5.72325000     11.39879200     13.07491900
O           5.22736600     12.46396900     12.21400200
O           6.40573100     11.82961800     14.45619500
H           6.90720700     12.72655400     14.31180100
O           4.60274000     10.37329700     13.54357800
H           4.89130000      9.94530100     14.44871100
O           6.89113500     10.49196000     12.47143100
H           6.48727500      9.89149200     11.72848400
O           5.60041900      9.34630400     16.06223800
H           5.63830600     10.20832400     16.49255500
H           6.51051400      9.17282600     15.79809300
O           7.64483200     14.36437700     13.81902600
H           8.18379700     14.13621300     13.05573600
H           6.85898900     14.78012300     13.44545700
          25
 Energy =     -0.46604800 a.u.  #Cluster:    5
C           2.32606600      9.85735700     12.02550500
C           1.33709300      9.96700200     11.04282400
C           1.61420800     10.71532600      9.89873300
C           2.85898400     11.32524600      9.76766000
C           3.79725600     11.16697900     10.79632100
N           3.53182900     10.44788500     11.90407400
H           0.86289400     10.82098300      9.11619600
H           2.16711200      9.28337400     12.94600100
H           0.37523000      9.47942500     11.17044500
H           3.10336700     11.91708000      8.88985100
H           4.79430400     11.63098100     10.74604300
P           6.91458200     10.73757000     13.60747300
O           7.77625600      9.58639900     13.37231900
O           7.28717300     11.68974400     14.83374300
H           7.80277600     11.11794700     15.53045200
O           6.88474700     11.74994700     12.37942800
H           6.12538000     12.43785500     12.53647900
O           5.38648100     10.45401000     13.96413700
H           4.88814800     10.09053500     13.11556900
O           4.37510500     13.21483700     12.88031100
H           4.01432400     12.36297400     13.17280400
H           4.57694700     13.68159100     13.69440700
O           8.82802300      9.86101500     16.54036800
H           8.24325800      9.09757700     16.54979000
H           9.47845900      9.65637100     15.85907700
          25
 Energy =     -0.46563400 a.u.  #Cluster:    6
C           2.53106800     10.56041900     12.71678300
C           2.65829300     11.38267900     11.59077900
C           3.30413800     10.87353300     10.46468900
C           3.77242700      9.56019500     10.48204400
C           3.61073800      8.80870600     11.65194200
N           3.01378300      9.30260400     12.75580600
H           3.45976900     11.50066600      9.58851000
H           2.04759800     10.91556400     13.63284900
H           2.28808700     12.40430800     11.61615000
H           4.29185500      9.14108900      9.62597600
H           3.98813700      7.78404000     11.73440800
P           6.38088800     10.91959700     12.77851400
O           7.05311800      9.78145200     12.16711200
O           7.26211300     12.07215600     13.43228500
H           8.09308300     11.62384200     13.87593600
O           5.46065400     11.73149400     11.77327000
H           4.85166900     12.36989200     12.32679900
O           5.41759500     10.60389600     14.02816500
H           4.86155700      9.76093200     13.83864700
O           3.68758700     13.14225900     13.72128200
H           4.20782700     13.85803600     14.09150400
H           3.92868100     12.36750900     14.24848200
O           9.55250400     10.61843000     14.47557900
H           9.83170300     10.22122400     13.64326400
H           9.15513400      9.89548800     14.96923700
          25
 Energy =     -0.46504900 a.u.  #Cluster:    7
C           4.45958300      8.48164700     10.84704000
C           3.60243400      7.93533400      9.88569500
C           2.60371500      8.74551100      9.34631700
C           2.48850100     10.06442700      9.77763700
C           3.38676100     10.53727300     10.74409800
N           4.35384600      9.75829000     11.26390400
H           1.92007200      8.34850600      8.59621300
H           5.25976000      7.89269500     11.30949400
H           3.71400500      6.90257100      9.56991300
H           1.71851000     10.71873200      9.37869600
H           3.33776000     11.57041000     11.12345100
P           5.25352300     12.20903300     13.96295100
O           4.36832700     13.00266700     13.12826200
O           6.51770300     12.95703800     14.60848900
H           7.36340100     12.70914700     14.06545800
O           4.51454500     11.61043200     15.23082200
H           5.21907700     11.36366400     15.94589400
O           6.00100600     10.98402300     13.26081700
H           5.35410700     10.49015900     12.59927300
O           6.83528900     11.47403200     17.31193100
H           7.54262600     11.43244300     17.94621100
H           7.08215100     12.15142200     16.67566900
O           8.74331700     11.97582400     12.97999600
H           8.51031800     12.35864600     12.13037900
H           8.27966600     11.12608200     12.99140500
