          39
 Energy =     -0.60659100 a.u.  #Cluster:    1
C          10.29636500      7.86622100     11.93558600
C          11.41706600      8.67525900     11.76296500
C           9.58655700      9.95094000     11.47139900
N           9.17527100      8.67865200     11.75771600
H          10.23120500      6.80721300     12.11156500
H          12.45720100      8.41591800     11.77717300
H           8.94475200     10.82467300     11.26364300
C           7.79569200      8.23049400     11.69614000
H           7.32458800      8.25729300     12.69331700
H           7.20352700      8.87757700     11.00409300
H           7.73106600      7.20170400     11.28206800
N          10.95386900      9.96234600     11.48132200
C          11.77479200     11.11332000     11.10377400
H          12.71286200     11.09585800     11.70073500
H          11.22813700     12.05054600     11.38813700
C          12.08813300     11.09987900      9.59154700
H          13.18555400     11.02649100      9.44884300
H          11.69867200     10.16755400      9.11875000
C          11.56266700     12.32554500      8.85951300
H          12.02339000     12.38497200      7.85282800
H          11.86470100     13.25724000      9.36965400
S           9.76960600     12.36450900      8.62767500
O           9.48386900     13.63611200      7.98580900
O           9.41724100     11.14884400      7.83294900
O           9.19107800     12.21803900     10.01229400
P           9.83058200      7.59628300      8.40244600
O          10.73545400      7.75199800      9.54235000
O           8.30525800      7.64216200      8.84566500
H           7.78964800      8.46476600      8.42498500
O          10.02545800      8.55202900      7.15670000
H           9.83837300      9.55814500      7.43076700
O          10.00125000      6.14748600      7.76244300
H           9.36156800      6.07987400      6.95689100
O           7.00338000      9.85846600      8.03321800
H           7.78983600     10.37750700      7.73280300
H           6.77541900     10.29406600      8.86855500
O           6.72112500     11.28594500     10.48336600
H           6.10923400     12.01212300     10.43714800
H           7.61557100     11.70196300     10.31319000
          39
 Energy =     -0.60118200 a.u.  #Cluster:    2
C          10.69496400      8.39906400     11.96014800
C          11.67232400      9.34467400     11.66758100
C           9.68172800     10.39549500     11.70083400
N           9.47482500      9.07195300     11.99290400
H          10.78308200      7.33326100     12.10718500
H          12.72836300      9.21755800     11.53086600
H           8.90323400     11.15684300     11.58263600
C           8.17794700      8.47350800     12.25070500
H           7.38578400      8.94382700     11.62036200
H           8.17531000      7.39370800     11.98118900
H           7.89881100      8.57764800     13.31249400
N          11.02638700     10.57436300     11.51914700
C          11.67924200     11.85366300     11.23366800
H          12.42518100     12.04781900     12.03907500
H          10.91252300     12.66807600     11.29536300
C          12.36926800     11.88165900      9.85288100
H          13.36746600     12.35191500      9.96143100
H          12.57885200     10.84229300      9.50013900
C          11.56578900     12.63903000      8.79948800
H          12.18042100     12.80666800      7.89481900
H          11.27251700     13.64245000      9.14805900
S          10.09991500     11.69840300      8.33350700
O           9.35425600     12.40963200      7.29148000
O          10.64332700     10.38711500      7.88977100
O           9.33418000     11.58941300      9.61850500
P           9.15308100      7.29890200      8.77375300
O          10.27016900      7.30264400      9.71671500
O           7.73657900      7.56300300      9.46230800
H           7.47350900      8.56983300      9.41595100
O           9.17137000      8.24469000      7.51406300
H           9.89851600      9.03879200      7.66467200
O           8.93707600      5.84072200      8.16719300
H           8.13311900      5.88490500      7.52346500
O           6.96555100     10.24195900      9.59759000
H           6.71039300     10.41201400      8.67095800
H           7.78753900     10.77905800      9.68089400
O           7.08174200     10.65994700      6.81660900
H           7.64509800      9.88556300      6.73475900
H           7.71058000     11.40795300      6.80685500
          39
 Energy =     -0.60053000 a.u.  #Cluster:    3
C          10.63574900      8.30832300     11.42899100
C          11.64880900      9.26019000     11.41838900
C           9.69295100     10.32785900     11.74135200
N           9.43663300      8.98832000     11.63256200
H          10.68690600      7.23969800     11.27207600
H          12.70019000      9.13815700     11.24726500
H           8.94435000     11.11303100     11.86216300
C           8.10557000      8.40913600     11.62411200
H           8.13278900      7.34663500     11.29552800
H           7.63553600      8.46867800     12.61819400
H           7.45182100      8.93937600     10.88539500
N          11.04924600     10.50596100     11.62385700
C          11.72191300     11.80459800     11.54459600
H          12.44542500     11.87391900     12.38983300
H          10.96276800     12.61504200     11.68988500
C          12.46014000     12.01639300     10.20198700
H          13.32301200     12.69012200     10.38407300
H          12.90531300     11.05475500      9.85635100
C          11.58933200     12.60847000      9.09626600
H          12.18212400     12.75151800      8.17453200
H          11.21703300     13.61072400      9.37108800
S          10.18383600     11.53270800      8.74442200
O           9.58356000     11.85542700      7.45054600
O          10.74559500     10.16272100      8.85673500
O           9.26400200     11.83811600      9.89812700
P           9.12348400      7.01633900      8.18516700
O           9.61368400      6.20900300      9.30060600
O           7.90163700      7.89405200      8.69607300
H           7.64226800      8.65472500      8.04182500
O          10.12297400      7.95604700      7.40251100
H          10.41044100      8.77795200      8.01208300
O           8.56627400      6.09097800      7.00999100
H           8.52484000      6.64633700      6.14666700
O           7.11140600     10.24221600      7.38555800
H           7.89380500     10.78126200      7.16761100
H           6.85185700     10.55492500      8.26357100
O           6.71101300     11.18254500     10.14418300
H           7.66715700     11.44222100     10.05575700
H           6.23457000     12.00153700     10.09009000
          39
 Energy =     -0.59984600 a.u.  #Cluster:    4
C          11.19378900      8.64542000     12.90096500
C          11.83201700      9.85975400     12.68367300
C           9.97463500      9.80952300     11.40493400
N          10.04391700      8.64028300     12.11036800
H          11.47322800      7.82211800     13.53221000
H          12.74205400     10.24378300     13.10403700
H           9.20242700     10.10002100     10.64440200
C           9.09296900      7.54508600     12.05914900
H           8.93841300      7.10126300     13.05539500
H           8.10561700      7.88387900     11.66599900
H           9.44810100      6.74905800     11.35989900
N          11.05918800     10.57049300     11.76445900
C          11.36387200     11.92212600     11.28808400
H          11.85802000     12.48763000     12.10818100
H          10.38832100     12.45018800     11.08117900
C          12.25481600     11.89628700     10.02773600
H          13.21446100     12.40595200     10.24505200
H          12.54299600     10.84887800      9.77218300
C          11.58714200     12.55641000      8.82577600
H          12.30767400     12.65618400      7.99210800
H          11.26031900     13.58489000      9.05489200
S          10.17668900     11.58562900      8.25928100
O           9.57867700     12.25892700      7.10158700
O          10.72368100     10.23412200      7.97748300
O           9.27102300     11.54941500      9.45862000
P           8.57822200      7.37117900      8.31574400
O           9.54040600      6.41670500      8.85094700
O           8.02044400      8.25757900      9.51548000
H           7.43225600      9.06325800      9.21287100
O           8.98884500      8.36685300      7.15984100
H           9.80941300      8.98094400      7.48271300
O           7.31249200      6.63610300      7.68213100
H           6.82231300      7.28623400      7.05834600
O           6.71386200     10.59050200      8.98116600
H           6.70790800     10.73043300      8.01556700
H           7.51110800     11.08799600      9.26409200
O           7.30390700     10.86582900      6.23009400
H           7.80858400     10.04897500      6.22427900
H           7.99621000     11.55010900      6.34908600
          39
 Energy =     -0.59951300 a.u.  #Cluster:    5
C          10.30008100      8.37100500     11.77108600
C          11.53641100      8.94585000     11.52144700
C          10.00633100     10.60199100     11.60059800
N           9.36585700      9.41067500     11.81743600
H          10.02516800      7.33219100     11.87095500
H          12.49091100      8.47997400     11.37397000
H           9.53913300     11.60041300     11.60535000
C           7.92133300      9.25695300     11.80333900
H           7.45349400      9.79118500     12.64648200
H           7.50714000      9.66441300     10.84392600
H           7.63409900      8.18866700     11.84379200
N          11.34020300     10.33211600     11.43273900
C          12.33306300     11.28698700     10.93750900
H          13.30358500     11.08241700     11.44205800
H          12.02725200     12.32359700     11.23478400
C          12.48836500     11.17922000      9.40148600
H          13.56785300     11.20300200      9.14968900
H          12.13672900     10.17654000      9.05529700
C          11.76862500     12.27664400      8.62556100
H          11.92934000     12.14032000      7.53919000
H          12.18674800     13.27089300      8.86339400
S           9.98951900     12.30734600      8.95295700
O           9.31530900     12.77352600      7.73828900
O           9.63981900     10.86477800      9.26006000
O           9.86028600     13.08840400     10.19635500
P           9.59395300      7.42240800      8.51675000
O          10.76877900      6.90473900      9.20792800
O           8.39078900      7.57812300      9.54613900
H           7.61822400      8.13653100      9.12946100
O           9.75952800      8.77558700      7.71784000
H           9.73917500      9.61947000      8.40741900
O           8.95598100      6.46710000      7.40111300
H           9.46177000      6.63667800      6.52312700
O           6.29132300      9.29478900      8.70858800
H           6.73788000      9.93601900      8.10107800
H           5.65810400      8.85449500      8.14715600
O           7.58026900     10.74527500      6.76984000
H           8.30883300     10.11835500      6.82665000
H           8.00875800     11.59134500      7.02917900
          39
 Energy =     -0.59945200 a.u.  #Cluster:    6
C          10.21611500      8.40389000     11.92961600
C          11.46380400      8.95581400     11.68328400
C           9.94007200     10.61692400     11.58614400
N           9.28702500      9.44677900     11.86858400
H           9.92957300      7.37710600     12.09904800
H          12.42273400      8.48094700     11.61053000
H           9.47821800     11.61397000     11.49434400
C           7.84319000      9.29558600     11.82205400
H           7.45729700      9.66501800     10.83619300
H           7.55171700      8.22940300     11.89534400
H           7.35444000      9.86239500     12.63110400
N          11.27775000     10.33225500     11.48524000
C          12.29339600     11.24827900     10.96262600
H          13.23499200     11.09667600     11.53636900
H          11.96882500     12.30493500     11.14920500
C          12.53560500     11.00688000      9.45407700
H          13.62627500     11.05715800      9.25755600
H          12.24971800      9.95982000      9.18812600
C          11.82009000     11.99061300      8.53490300
H          12.01578400     11.72859300      7.47697900
H          12.21793400     13.01331600      8.66421000
S          10.03255400     12.04147800      8.79850900
O           9.40654700     12.43150300      7.52509500
O           9.65300200     10.64435600      9.21599700
O           9.86006300     12.93732600      9.95928100
P           9.71470500      7.09455700      8.71815900
O          10.45508800      5.97535400      9.27892100
O           8.59015100      7.58983500      9.73116100
H           7.89335600      8.19667300      9.25952600
O          10.59192800      8.34422000      8.31204400
H          10.15063600      9.25176000      8.67638900
O           8.90283400      6.73994200      7.38300300
H           9.20031100      7.37587000      6.63816000
O           6.50563900      9.18736400      8.62962600
H           6.82532500      9.90370100      8.03556800
H           6.08343900      8.57058400      8.03366200
O           7.14994300     11.10094500      6.71156100
H           6.56338100     11.84922600      6.67770300
H           8.02655700     11.50898000      6.93011500
          39
 Energy =     -0.59940100 a.u.  #Cluster:    7
C          10.37248100      7.84155500     11.45630800
C          11.56676700      8.54060600     11.36928100
C           9.91861800     10.03294400     11.75076200
N           9.36413300      8.78129600     11.69159100
H          10.17364300      6.78848100     11.33186300
H          12.55453700      8.18399900     11.15446600
H           9.37918300     10.97215900     11.95447500
C           7.93497400      8.53139400     11.62419000
H           7.44546400      8.74142400     12.58896600
H           7.47208800      9.17667800     10.83348400
H           7.72775500      7.48356900     11.32845000
N          11.26992600      9.89695100     11.56717800
C          12.20342600     10.99892400     11.32864100
H          13.18015600     10.74320900     11.79652800
H          11.82932800     11.91835800     11.84951800
C          12.37998100     11.25621500      9.81294900
H          13.45978900     11.38000100      9.59470300
H          12.07457600     10.34761900      9.23778000
C          11.62117700     12.47429900      9.29809800
H          11.79969100     12.60164400      8.21336500
H          11.99172000     13.40191200      9.76928500
S           9.84013000     12.35235300      9.58675700
O           9.15761300     13.07601900      8.50934700
O           9.55044400     10.86663800      9.52420400
O           9.66243800     12.79968700     10.97957000
P           9.60207000      7.70319300      8.05505300
O          10.74939400      7.24485300      8.83207700
O           8.25267700      7.45515100      8.87163400
H           7.55764100      8.19917300      8.71424500
O           9.55333200      9.19484800      7.54165300
H           9.59697200      9.87628000      8.39673500
O           9.45313900      6.86225100      6.70998700
H           8.78973300      7.34452600      6.09171900
O           6.24258800      9.50419600      8.73664700
H           5.46628100      9.31865900      8.21813200
H           6.67049800     10.26053600      8.26511000
O           7.42666400     11.35528200      7.10447600
H           8.15355700     10.73494200      6.99331900
H           7.86543200     12.11819600      7.54746700
          39
 Energy =     -0.59871600 a.u.  #Cluster:    8
C          10.35486900      7.68612000     11.60397800
C          11.49517100      8.46371700     11.44148300
C           9.72704000      9.85352400     11.56806200
N           9.27088300      8.56437000     11.67418500
H          10.24299400      6.61440600     11.63029500
H          12.51348200      8.15986600     11.29343600
H           9.10705500     10.75204500     11.63573600
C           7.87281500      8.17408500     11.65844500
H           7.20481500      9.05992100     11.60803100
H           7.64448600      7.57816700     10.74085300
H           7.61704400      7.57171700     12.54522000
N          11.08740200      9.80259300     11.42748400
C          11.96386300     10.94342800     11.14983000
H          12.91113300     10.80486200     11.71710100
H          11.48820400     11.87931100     11.55228500
C          12.25537500     11.07447500      9.63664200
H          13.35151800     11.13990700      9.48541500
H          11.95720600     10.13510500      9.10986600
C          11.58529200     12.27342100      8.97055600
H          11.78673700     12.26182600      7.88199200
H          12.01003500     13.22227600      9.34301100
S           9.80197800     12.28897000      9.24077600
O           9.14382300     12.97921100      8.12696300
O           9.43825700     10.81268800      9.26188500
O           9.63780300     12.84344400     10.59273300
P           9.94504800      7.52707300      8.06033700
O          10.74153800      7.24114400      9.25234100
O           8.37931000      7.27780700      8.23456800
H           7.88658600      8.15622800      8.50313700
O          10.11788700      8.96295400      7.41818400
H           9.84743000      9.70193300      8.13934800
O          10.32334900      6.53984200      6.87066700
H           9.70920800      6.76820500      6.07130700
O           7.05850900      9.59957200      9.18835100
H           7.92055100     10.06892400      9.31773200
H           6.66010500     10.15471000      8.49719700
O           6.65557900     11.80643500      7.34335300
H           7.55387300     12.17242000      7.49211200
H           6.08176300     12.55331600      7.47512100
          39
 Energy =     -0.59819700 a.u.  #Cluster:    9
C          10.45693600      7.84230000     12.05021400
C          11.49127700      8.75331300     11.85414700
C           9.53449500      9.88866600     11.77219200
N           9.25185200      8.56094700     11.99880700
H          10.50501100      6.77186700     12.17238800
H          12.55158900      8.57155900     11.76043000
H           8.81341600     10.70698500     11.61859600
C           7.91064200      7.96925000     12.01397500
H           7.12306700      8.74280000     12.06322900
H           7.74385600      7.41180300     11.04992600
H           7.78774800      7.27139900     12.85739200
N          10.91034100     10.02128200     11.70322600
C          11.62294700     11.28038100     11.37925500
H          12.52458000     11.34957900     12.02891500
H          10.96015500     12.13857400     11.65041500
C          12.01842500     11.33594900      9.89281400
H          13.12499300     11.33063300      9.81075000
H          11.71975900     10.38088900      9.36920900
C          11.46220700     12.54382200      9.15972700
H          12.01692100     12.66570500      8.20099000
H          11.69680800     13.48150300      9.70540400
S           9.72890800     12.45600300      8.81186500
O           9.24215700     13.81463900      8.70158300
O           9.55880400     11.62375500      7.56236400
O           9.05583000     11.66719400      9.93066800
P           9.88996600      8.13217100      8.46135400
O          11.14618700      8.55215500      9.13492700
O           8.55633000      8.04656300      9.26212500
H           7.73891700      9.12945900      9.27489200
O           9.48074400      9.11560800      7.19041400
H           9.95057700     10.04067100      7.14803700
O          10.04942000      6.66730700      7.72028700
H           9.23087000      6.29939000      7.30592500
O           7.08969900     10.09577300      9.30815800
H           7.79323000     10.81729100      9.62951600
H           7.03848600     10.31808200      8.21861800
O           7.33717900     10.51516900      6.83077100
H           8.06591900     11.22549000      6.84730100
H           7.83977000      9.69409500      6.58921000
          39
 Energy =     -0.59733400 a.u.  #Cluster:   10
C          11.23152500      8.89315600     13.08359000
C          11.83206500     10.11436300     12.80628800
C          10.04040400      9.89579200     11.45320700
N          10.12189900      8.78310400     12.24464800
H          11.51227600      8.13065200     13.78659100
H          12.70557900     10.56536000     13.23776100
H           9.29250100     10.10037200     10.64092200
C           9.21859200      7.64686800     12.22929800
H           9.54886300      6.89267800     11.47199400
H           9.17265200      7.15608700     13.21453100
H           8.18904000      7.95260800     11.94008600
N          11.07696000     10.72443000     11.80388800
C          11.35631500     12.04801500     11.24100300
H          11.80538900     12.68666800     12.03266900
H          10.37230000     12.52799200     10.96620200
C          12.28923900     11.95932500     10.01433000
H          13.23065200     12.50354500     10.22770900
H          12.60693700     10.90439500      9.83775700
C          11.64845500     12.52362600      8.75088000
H          12.39359000     12.58351200      7.93521100
H          11.29458500     13.55785300      8.90023700
S          10.27530900     11.48882900      8.20499600
O           9.69531900     12.08836100      6.99809700
O          10.85606100     10.13677700      8.01109500
O           9.33941800     11.49780000      9.38154700
P           8.69627300      7.28495200      8.42866700
O           9.64039800      6.35952200      9.04193900
O           8.10551400      8.23541900      9.55835600
H           7.51742900      9.01669600      9.19468600
O           9.14884900      8.21453300      7.23256300
H           9.95804700      8.84370000      7.54703500
O           7.45136900      6.51729300      7.79230700
H           6.98570000      7.13234000      7.11626400
O           6.79454300     10.51873200      8.85771600
H           6.82561500     10.60805200      7.88660500
H           7.58177100     11.02852600      9.14650100
O           7.47158900     10.64188600      6.11623900
H           7.98140000      9.82997100      6.16820900
H           8.15559100     11.33622600      6.22839800
          39
 Energy =     -0.59560300 a.u.  #Cluster:   11
C          10.59190900      8.39272900     11.70538000
C          11.65137500      9.27697600     11.54173100
C           9.74937800     10.49536100     11.72843600
N           9.42454000      9.15964400     11.84348500
H          10.58180100      7.29921700     11.65794900
H          12.69513600      9.06285300     11.37971700
H           9.04301500     11.32669900     11.68158800
C           8.07046800      8.64358600     12.06204400
H           8.07478900      7.53426300     12.11244000
H           7.62309400      9.04803500     12.98203000
H           7.40359600      8.88591700     11.18863800
N          11.12205100     10.58107400     11.57094300
C          11.88943500     11.83465800     11.39942300
H          12.73466100     11.82520100     12.12959900
H          11.23872100     12.69891600     11.67369000
C          12.43822900     12.00852100      9.97191600
H          13.33238800     12.66682300     10.02537600
H          12.81860600     11.03136800      9.58073300
C          11.43817500     12.60012100      8.98935200
H          11.97798300     13.02558800      8.11513200
H          10.91190600     13.47517900      9.41749000
S          10.28047000     11.37367900      8.44065400
O           9.74925800     11.77872200      7.12896600
O          11.02777300     10.08062600      8.41614500
O           9.18710100     11.34215400      9.48179200
P           8.65067800      7.35255200      8.82886000
O           9.56748900      6.84084200      9.87314500
O           7.35844800      8.11982400      9.32305700
H           7.08798600      9.23015500      8.85429700
O           9.28765900      8.41624000      7.75435900
H          10.27875700      8.76550300      7.93524900
O           8.09156900      6.16935200      7.82633800
H           7.31771600      6.40249800      7.25854000
O           6.85426800     10.45202700      8.58649600
H           7.13335800     10.48016200      7.56515200
H           7.64387700     10.91401400      9.04950600
O           7.87247400     10.23608700      6.23663300
H           8.47017200      9.47401600      6.40079400
H           8.48971300     11.01883900      6.16293900
          39
 Energy =     -0.59143400 a.u.  #Cluster:   12
C          10.85754000      8.36810200     11.71985000
C          11.86335200      9.31371700     11.57787200
C           9.90814600     10.41603000     11.90864100
N           9.65436500      9.06260400     11.93137700
H          10.89429100      7.27796500     11.62462700
H          12.91187600      9.16807100     11.38123200
H           9.16069800     11.21221600     11.98661300
C           8.31701200      8.46795800     12.02417900
H           7.69066400      8.79700600     11.15447800
H           8.38136900      7.35643400     11.93144500
H           7.81403300      8.73281400     12.96463200
N          11.26823300     10.58771000     11.69748100
C          11.92645600     11.88315700     11.41196500
H          12.83271200     11.96240100     12.05857500
H          11.24098900     12.71132700     11.71200500
C          12.33016900     12.02818700      9.93003100
H          13.18592600     12.73583100      9.87855500
H          12.72812200     11.05684300      9.54544500
C          11.22376500     12.52153900      9.00510700
H          11.66189800     12.83082700      8.03244900
H          10.75894700     13.44951600      9.39130400
S           9.99897400     11.26080000      8.75704400
O           9.22922000     11.51611200      7.51151800
O          10.74505500      9.97787000      8.74052200
O           9.06137000     11.39360100      9.92070900
P           9.03909900      7.05533200      8.85303700
O           9.53359500      6.57781800     10.16458200
O           7.92911200      8.19690900      9.00591300
H           7.59656700      8.75418900      8.05935900
O          10.10506400      7.62557300      7.75287100
H          10.59837200      8.51643900      7.97579900
O           8.40122900      5.87616800      7.89186700
H           8.62991900      5.93718100      6.92698300
O           7.27049900      9.67694200      7.07118100
H           6.72184600     10.34435900      7.62549100
H           8.11728200     10.18396700      6.89640800
O           6.79925200     11.70070900      8.56236500
H           7.30492500     11.46691400      9.38205400
H           7.43807600     12.19887700      8.01444800
          39
 Energy =     -0.59054100 a.u.  #Cluster:   13
C          10.69204000      8.28426000     11.59916200
C          11.84841600      8.99734500     11.31015000
C          10.24138500     10.48279200     11.90468400
N           9.71157700      9.21392900     11.98065800
H          10.47598800      7.21680100     11.49535900
H          12.80051800      8.63633300     10.96003800
H           9.69192400     11.42009700     12.04826400
C           8.32441900      8.90434600     12.33785300
H           7.61747000      9.44234400     11.65697000
H           8.11662600      7.81847900     12.16770300
H           8.10342400      9.16310600     13.38285100
N          11.56443600     10.36352900     11.50880500
C          12.45628300     11.49511000     11.16648000
H          13.42204800     11.35049900     11.70630800
H          12.00600500     12.44004800     11.55410700
C          12.71745500     11.60712700      9.65069600
H          13.70469000     12.09652800      9.50909500
H          12.82422900     10.58689700      9.20513000
C          11.66043500     12.38413700      8.87756500
H          12.03905500     12.61916500      7.86110000
H          11.47594100     13.37722400      9.32869300
S          10.14351800     11.45627500      8.76408200
O           9.45189400     11.81452500      7.51025300
O          10.59989300     10.01055600      8.73949300
O           9.39685800     11.76397200     10.00007200
P           8.09443100      7.52472600      9.07080600
O           8.76494600      6.89064700     10.23163000
O           7.16415600      8.74819200      9.68636400
H           6.65324000      9.30361600      9.01378300
O           9.01390200      8.18907400      7.92251100
H           9.83023900      8.86063100      8.24238500
O           7.13421700      6.51022700      8.22657000
H           6.80027600      6.87971000      7.33792600
O           6.83338400      8.72100400      7.31332300
H           7.68208400      9.15686500      6.89932400
H           6.11759400      9.08158700      6.78317000
O           7.81486400     10.66082200      6.13367200
H           8.76359200     10.68871100      5.90375500
H           7.75656300     11.35878100      6.82922100
