 Entering Gaussian System, Link 0=g16
 Initial command:
 /data0/home/software/g16/l1.exe "/data0/home/software/g16/scratch/Gau-235694.inp" -scrdir="/data0/home/software/g16/scratch/"
 Default is to use a total of  22 processors:
                               22 via shared-memory
                                1 via Linda
 Entering Link 1 = /data0/home/software/g16/l1.exe PID=    235695.
  
 Copyright (c) 1988,1990,1992,1993,1995,1998,2003,2009,2016,
            Gaussian, Inc.  All Rights Reserved.
  
 This is part of the Gaussian(R) 16 program.  It is based on
 the Gaussian(R) 09 system (copyright 2009, Gaussian, Inc.),
 the Gaussian(R) 03 system (copyright 2003, Gaussian, Inc.),
 the Gaussian(R) 98 system (copyright 1998, Gaussian, Inc.),
 the Gaussian(R) 94 system (copyright 1995, Gaussian, Inc.),
 the Gaussian 92(TM) system (copyright 1992, Gaussian, Inc.),
 the Gaussian 90(TM) system (copyright 1990, Gaussian, Inc.),
 the Gaussian 88(TM) system (copyright 1988, Gaussian, Inc.),
 the Gaussian 86(TM) system (copyright 1986, Carnegie Mellon
 University), and the Gaussian 82(TM) system (copyright 1983,
 Carnegie Mellon University). Gaussian is a federally registered
 trademark of Gaussian, Inc.
  
 This software contains proprietary and confidential information,
 including trade secrets, belonging to Gaussian, Inc.
  
 This software is provided under written license and may be
 used, copied, transmitted, or stored only in accord with that
 written license.
  
 The following legend is applicable only to US Government
 contracts under FAR:
  
                    RESTRICTED RIGHTS LEGEND
  
 Use, reproduction and disclosure by the US Government is
 subject to restrictions as set forth in subparagraphs (a)
 and (c) of the Commercial Computer Software - Restricted
 Rights clause in FAR 52.227-19.
  
 Gaussian, Inc.
 340 Quinnipiac St., Bldg. 40, Wallingford CT 06492
  
  
 ---------------------------------------------------------------
 Warning -- This program may not be used in any manner that
 competes with the business of Gaussian, Inc. or will provide
 assistance to any competitor of Gaussian, Inc.  The licensee
 of this program is prohibited from giving any competitor of
 Gaussian, Inc. access to this program.  By using this program,
 the user acknowledges that Gaussian, Inc. is engaged in the
 business of creating and licensing software in the field of
 computational chemistry and represents and warrants to the
 licensee that it is not a competitor of Gaussian, Inc. and that
 it will not use this program in any manner prohibited above.
 ---------------------------------------------------------------
  

 Cite this work as:
 Gaussian 16, Revision A.03,
 M. J. Frisch, G. W. Trucks, H. B. Schlegel, G. E. Scuseria, 
 M. A. Robb, J. R. Cheeseman, G. Scalmani, V. Barone, 
 G. A. Petersson, H. Nakatsuji, X. Li, M. Caricato, A. V. Marenich, 
 J. Bloino, B. G. Janesko, R. Gomperts, B. Mennucci, H. P. Hratchian, 
 J. V. Ortiz, A. F. Izmaylov, J. L. Sonnenberg, D. Williams-Young, 
 F. Ding, F. Lipparini, F. Egidi, J. Goings, B. Peng, A. Petrone, 
 T. Henderson, D. Ranasinghe, V. G. Zakrzewski, J. Gao, N. Rega, 
 G. Zheng, W. Liang, M. Hada, M. Ehara, K. Toyota, R. Fukuda, 
 J. Hasegawa, M. Ishida, T. Nakajima, Y. Honda, O. Kitao, H. Nakai, 
 T. Vreven, K. Throssell, J. A. Montgomery, Jr., J. E. Peralta, 
 F. Ogliaro, M. J. Bearpark, J. J. Heyd, E. N. Brothers, K. N. Kudin, 
 V. N. Staroverov, T. A. Keith, R. Kobayashi, J. Normand, 
 K. Raghavachari, A. P. Rendell, J. C. Burant, S. S. Iyengar, 
 J. Tomasi, M. Cossi, J. M. Millam, M. Klene, C. Adamo, R. Cammi, 
 J. W. Ochterski, R. L. Martin, K. Morokuma, O. Farkas, 
 J. B. Foresman, and D. J. Fox, Gaussian, Inc., Wallingford CT, 2016.
 
 ******************************************
 Gaussian 16:  ES64L-G16RevA.03 25-Dec-2016
                17-Feb-2023 
 ******************************************
 %nproc=24
 Will use up to   24 processors via shared memory.
 %mem=50GB
 ---------------------------------------------------
 #p M062X/6-311+G(2d,p) nosymm em=GD3 counterpoise=4
 ---------------------------------------------------
 1/38=1,62=4,172=1/1;
 2/12=2,15=1,17=6,18=5,40=1/2;
 1/38=1,53=2,62=4,63=1/22;
 3/5=4,6=6,7=112,11=2,25=1,30=1,74=-55,124=31/1,2,3;
 4//1;
 5/5=2,38=5/2;
 6/7=2,8=2,9=2,10=2,28=1/1;
 1/53=2,62=4,63=1/22;
 3/5=7,6=11,7=112,11=2,25=1,30=1,74=-55,82=7,124=31/1,2,3;
 4//1;
 5/5=2,38=5/2;
 6/7=2,8=2,9=2,10=2,28=1/1;
 1/53=2,62=4,63=1/22(-4);
 99/5=1,9=1/99;
 Leave Link    1 at Fri Feb 17 21:42:16 2023, MaxMem=  6710886400 cpu:               0.7 elap:               0.0
 (Enter /data0/home/software/g16/l101.exe)
 -------------------
 Title Card Required
 -------------------
 Symbolic Z-matrix:
 Charge =  0 Multiplicity = 1 in supermolecule
 Charge =  0 Multiplicity = 1 in fragment      1.
 Charge =  0 Multiplicity = 1 in fragment      2.
 Charge =  0 Multiplicity = 1 in fragment      3.
 Charge =  0 Multiplicity = 1 in fragment      4.
 O                     3.67244   8.51085   10.12043    
 H                     3.93197   9.39889   10.47557    
 H                     3.11131   8.69084   9.37243    
 O                     4.41556   10.89725   11.10308    
 H                     4.95702   10.5222   11.82902    
 H                     5.05604   11.37715   10.57377    
 O                     6.34072   7.36789   9.86927    
 H                     6.26272   6.53466   10.34283    
 H                     5.46631   7.77545   9.94487    
 O                     7.50022   6.71841   15.13437    
 H                     6.75515   6.98626   15.67244    
 H                     7.07432   6.15855   14.43277    
 
 ITRead=  0  0  0  0  0  0  0  0  0  0  0  0
 MicOpt= -1 -1 -1 -1 -1 -1 -1 -1 -1 -1 -1 -1
 NAtoms=     12 NQM=       12 NQMF=       0 NMMI=      0 NMMIF=      0
                NMic=       0 NMicF=      0.
                    Isotopes and Nuclear Properties:
 (Nuclear quadrupole moments (NQMom) in fm**2, nuclear magnetic moments (NMagM)
  in nuclear magnetons)

  Atom         1           2           3           4           5           6           7           8           9          10
 IAtWgt=          16           1           1          16           1           1          16           1           1          16
 AtmWgt=  15.9949146   1.0078250   1.0078250  15.9949146   1.0078250   1.0078250  15.9949146   1.0078250   1.0078250  15.9949146
 NucSpn=           0           1           1           0           1           1           0           1           1           0
 AtZEff=  -0.0000000  -0.0000000  -0.0000000  -0.0000000  -0.0000000  -0.0000000  -0.0000000  -0.0000000  -0.0000000  -0.0000000
 NQMom=    0.0000000   0.0000000   0.0000000   0.0000000   0.0000000   0.0000000   0.0000000   0.0000000   0.0000000   0.0000000
 NMagM=    0.0000000   2.7928460   2.7928460   0.0000000   2.7928460   2.7928460   0.0000000   2.7928460   2.7928460   0.0000000
 AtZNuc=   8.0000000   1.0000000   1.0000000   8.0000000   1.0000000   1.0000000   8.0000000   1.0000000   1.0000000   8.0000000

  Atom        11          12
 IAtWgt=           1           1
 AtmWgt=   1.0078250   1.0078250
 NucSpn=           1           1
 AtZEff=  -0.0000000  -0.0000000
 NQMom=    0.0000000   0.0000000
 NMagM=    2.7928460   2.7928460
 AtZNuc=   1.0000000   1.0000000
 Leave Link  101 at Fri Feb 17 21:42:16 2023, MaxMem=  6710886400 cpu:               1.9 elap:               0.1
 (Enter /data0/home/software/g16/l202.exe)
                          Input orientation:                          
 ---------------------------------------------------------------------
 Center     Atomic      Atomic             Coordinates (Angstroms)
 Number     Number       Type             X           Y           Z
 ---------------------------------------------------------------------
      1          8           0        3.672439    8.510855   10.120425
      2          1           0        3.931973    9.398895   10.475567
      3          1           0        3.111310    8.690845    9.372432
      4          8           0        4.415563   10.897246   11.103081
      5          1           0        4.957023   10.522205   11.829021
      6          1           0        5.056042   11.377145   10.573773
      7          8           0        6.340723    7.367890    9.869274
      8          1           0        6.262719    6.534657   10.342832
      9          1           0        5.466309    7.775445    9.944871
     10          8           0        7.500217    6.718414   15.134370
     11          1           0        6.755145    6.986262   15.672441
     12          1           0        7.074324    6.158545   14.432774
 ---------------------------------------------------------------------
                    Distance matrix (angstroms):
                    1          2          3          4          5
     1  O    0.000000
     2  H    0.991009   0.000000
     3  H    0.952237   1.546522   0.000000
     4  O    2.685649   1.694901   3.092641   0.000000
     5  H    2.935129   2.035778   3.577061   0.980216   0.000000
     6  H    3.214887   2.277421   3.527238   0.959522   1.521964
     7  O    2.913621   3.208528   3.525077   4.205339   3.962946
     8  H    3.265635   3.695112   3.939823   4.798140   4.451308
     9  H    1.946694   2.295956   2.590688   3.491584   3.369582
    10  O    6.557772   6.451495   7.506858   6.574878   5.644643
    11  H    6.530876   6.387378   7.474841   6.453564   5.523406
    12  H    5.975160   6.002810   6.908334   6.372688   5.504909
                    6          7          8          9         10
     6  H    0.000000
     7  O    4.268589   0.000000
     8  H    4.995908   0.961571   0.000000
     9  H    3.679141   0.967686   1.527153   0.000000
    10  O    6.962529   5.430238   4.952172   5.673182   0.000000
    11  H    6.939973   5.830449   5.371328   5.923594   0.957285
    12  H    6.796995   4.777679   4.186620   5.034019   0.993517
                   11         12
    11  H    0.000000
    12  H    1.524390   0.000000
 Symmetry turned off by external request.
 Stoichiometry    H8O4
 Framework group  C1[X(H8O4)]
 Deg. of freedom    30
 Full point group                 C1      NOp   1
 Rotational constants (GHZ):           2.8873695           0.9536034           0.7917034
 Leave Link  202 at Fri Feb 17 21:42:16 2023, MaxMem=  6710886400 cpu:               0.1 elap:               0.0
 (Enter /data0/home/software/g16/l122.exe)
 Counterpoise: doing full-system calculation.
 Leave Link  122 at Fri Feb 17 21:42:16 2023, MaxMem=  6710886400 cpu:               0.0 elap:               0.0
 (Enter /data0/home/software/g16/l301.exe)
 Standard basis: 6-311+G(2d,p) (5D, 7F)
 Ernie: Thresh=  0.10000D-02 Tol=  0.10000D-05 Strict=F.
   156 basis functions,   232 primitive gaussians,   164 cartesian basis functions
    20 alpha electrons       20 beta electrons
       nuclear repulsion energy       113.4850503657 Hartrees.
 IExCor= 4336 DFT=T Ex+Corr=M062X ExCW=0 ScaHFX=  0.540000
 ScaDFX=  1.000000  1.000000  1.000000  1.000000 ScalE2=  1.000000  1.000000
 IRadAn=      5 IRanWt=     -1 IRanGd=            0 ICorTp=0 IEmpDi=131
 NAtoms=   12 NActive=   12 NUniq=   12 SFac= 1.00D+00 NAtFMM=   60 NAOKFM=F Big=F
 Integral buffers will be    131072 words long.
 Raffenetti 2 integral format.
 Two-electron integral symmetry is turned off.
 R6Disp:  Grimme-D3 Dispersion energy=       -0.0002110161 Hartrees.
 Nuclear repulsion after empirical dispersion term =      113.4848393496 Hartrees.
 Leave Link  301 at Fri Feb 17 21:42:16 2023, MaxMem=  6710886400 cpu:               1.1 elap:               0.1
 (Enter /data0/home/software/g16/l302.exe)
 NPDir=0 NMtPBC=     1 NCelOv=     1 NCel=       1 NClECP=     1 NCelD=      1
         NCelK=      1 NCelE2=     1 NClLst=     1 CellRange=     0.0.
 One-electron integrals computed using PRISM.
 NBasis=   156 RedAO= T EigKep=  1.07D-03  NBF=   156
 NBsUse=   156 1.00D-06 EigRej= -1.00D+00 NBFU=   156
 Precomputing XC quadrature grid using
 IXCGrd= 4 IRadAn=           5 IRanWt=          -1 IRanGd=           0 AccXCQ= 0.00D+00.
 Generated NRdTot=       0 NPtTot=           0 NUsed=           0 NTot=          32
 NSgBfM=   161   161   161   161   161 MxSgAt=    12 MxSgA2=    12.
 Leave Link  302 at Fri Feb 17 21:42:16 2023, MaxMem=  6710886400 cpu:               2.9 elap:               0.1
 (Enter /data0/home/software/g16/l303.exe)
 DipDrv:  MaxL=1.
 Leave Link  303 at Fri Feb 17 21:42:16 2023, MaxMem=  6710886400 cpu:               0.5 elap:               0.0
 (Enter /data0/home/software/g16/l401.exe)
 ExpMin= 8.45D-02 ExpMax= 8.59D+03 ExpMxC= 1.30D+03 IAcc=3 IRadAn=         5 AccDes= 0.00D+00
 Harris functional with IExCor= 1009 and IRadAn=       5 diagonalized for initial guess.
 HarFok:  IExCor= 1009 AccDes= 0.00D+00 IRadAn=         5 IDoV= 1 UseB2=F ITyADJ=14
 ICtDFT=  3500011 ScaDFX=  1.000000  1.000000  1.000000  1.000000
 FoFCou: FMM=F IPFlag=           0 FMFlag=      100000 FMFlg1=           0
         NFxFlg=           0 DoJE=T BraDBF=F KetDBF=T FulRan=T
         wScrn=  0.000000 ICntrl=       500 IOpCl=  0 I1Cent=   200000004 NGrid=           0
         NMat0=    1 NMatS0=      1 NMatT0=    0 NMatD0=    1 NMtDS0=    0 NMtDT0=    0
 Symmetry not used in FoFCou.
 Harris En= -305.669852270788    
 JPrj=0 DoOrth=F DoCkMO=F.
 Leave Link  401 at Fri Feb 17 21:42:16 2023, MaxMem=  6710886400 cpu:               5.9 elap:               0.3
 (Enter /data0/home/software/g16/l502.exe)
 Keep R1 ints in memory in canonical form, NReq=98807049.
 FoFCou: FMM=F IPFlag=           0 FMFlag=           0 FMFlg1=           0
         NFxFlg=           0 DoJE=F BraDBF=F KetDBF=F FulRan=T
         wScrn=  0.000000 ICntrl=       600 IOpCl=  0 I1Cent=           0 NGrid=           0
         NMat0=    1 NMatS0=  12246 NMatT0=    0 NMatD0=    1 NMtDS0=    0 NMtDT0=    0
 Symmetry not used in FoFCou.
 Two-electron integral symmetry not used.
 Closed shell SCF:
 Using DIIS extrapolation, IDIIS=  1040.
 NGot=  6710886400 LenX=  6635838975 LenY=  6635811638
 Requested convergence on RMS density matrix=1.00D-08 within 128 cycles.
 Requested convergence on MAX density matrix=1.00D-06.
 Requested convergence on             energy=1.00D-06.
 No special actions if energy rises.
 Integral accuracy reduced to 1.0D-05 until final iterations.

 Cycle   1  Pass 0  IDiag  1:
 E= -305.429338443980    
 DIIS: error= 5.78D-02 at cycle   1 NSaved=   1.
 NSaved= 1 IEnMin= 1 EnMin= -305.429338443980     IErMin= 1 ErrMin= 5.78D-02
 ErrMax= 5.78D-02  0.00D+00 EMaxC= 1.00D-01 BMatC= 4.52D-01 BMatP= 4.52D-01
 IDIUse=3 WtCom= 4.22D-01 WtEn= 5.78D-01
 Coeff-Com:  0.100D+01
 Coeff-En:   0.100D+01
 Coeff:      0.100D+01
 Gap=     0.293 Goal=   None    Shift=    0.000
 GapD=    0.293 DampG=1.000 DampE=0.500 DampFc=0.5000 IDamp=-1.
 Damping current iteration by 5.00D-01
 RMSDP=4.74D-03 MaxDP=1.05D-01              OVMax= 1.81D-01

 Cycle   2  Pass 0  IDiag  1:
 E= -305.548523469676     Delta-E=       -0.119185025696 Rises=F Damp=T
 DIIS: error= 9.70D-03 at cycle   2 NSaved=   2.
 NSaved= 2 IEnMin= 2 EnMin= -305.548523469676     IErMin= 2 ErrMin= 9.70D-03
 ErrMax= 9.70D-03  0.00D+00 EMaxC= 1.00D-01 BMatC= 1.72D-02 BMatP= 4.52D-01
 IDIUse=3 WtCom= 9.03D-01 WtEn= 9.70D-02
 Coeff-Com:  0.634D-01 0.937D+00
 Coeff-En:   0.159D+00 0.841D+00
 Coeff:      0.727D-01 0.927D+00
 Gap=     0.391 Goal=   None    Shift=    0.000
 RMSDP=6.38D-04 MaxDP=1.64D-02 DE=-1.19D-01 OVMax= 1.07D-01

 Cycle   3  Pass 0  IDiag  1:
 E= -305.705120302294     Delta-E=       -0.156596832618 Rises=F Damp=F
 DIIS: error= 3.37D-03 at cycle   3 NSaved=   3.
 NSaved= 3 IEnMin= 3 EnMin= -305.705120302294     IErMin= 3 ErrMin= 3.37D-03
 ErrMax= 3.37D-03  0.00D+00 EMaxC= 1.00D-01 BMatC= 6.86D-04 BMatP= 1.72D-02
 IDIUse=3 WtCom= 9.66D-01 WtEn= 3.37D-02
 Coeff-Com: -0.240D-01 0.679D-01 0.956D+00
 Coeff-En:   0.000D+00 0.000D+00 0.100D+01
 Coeff:     -0.232D-01 0.656D-01 0.958D+00
 Gap=     0.391 Goal=   None    Shift=    0.000
 RMSDP=1.17D-04 MaxDP=3.94D-03 DE=-1.57D-01 OVMax= 7.92D-03

 Cycle   4  Pass 0  IDiag  1:
 E= -305.705474704850     Delta-E=       -0.000354402556 Rises=F Damp=F
 DIIS: error= 2.01D-03 at cycle   4 NSaved=   4.
 NSaved= 4 IEnMin= 4 EnMin= -305.705474704850     IErMin= 4 ErrMin= 2.01D-03
 ErrMax= 2.01D-03  0.00D+00 EMaxC= 1.00D-01 BMatC= 2.75D-04 BMatP= 6.86D-04
 IDIUse=3 WtCom= 9.80D-01 WtEn= 2.01D-02
 Coeff-Com: -0.124D-01 0.175D-01 0.490D+00 0.504D+00
 Coeff-En:   0.000D+00 0.000D+00 0.161D+00 0.839D+00
 Coeff:     -0.121D-01 0.172D-01 0.484D+00 0.511D+00
 Gap=     0.393 Goal=   None    Shift=    0.000
 RMSDP=5.26D-05 MaxDP=2.12D-03 DE=-3.54D-04 OVMax= 2.85D-03

 Cycle   5  Pass 0  IDiag  1:
 E= -305.705648353327     Delta-E=       -0.000173648477 Rises=F Damp=F
 DIIS: error= 2.02D-04 at cycle   5 NSaved=   5.
 NSaved= 5 IEnMin= 5 EnMin= -305.705648353327     IErMin= 5 ErrMin= 2.02D-04
 ErrMax= 2.02D-04  0.00D+00 EMaxC= 1.00D-01 BMatC= 3.78D-06 BMatP= 2.75D-04
 IDIUse=3 WtCom= 9.98D-01 WtEn= 2.02D-03
 Coeff-Com:  0.395D-03-0.291D-02 0.126D-01 0.834D-01 0.906D+00
 Coeff-En:   0.000D+00 0.000D+00 0.000D+00 0.000D+00 0.100D+01
 Coeff:      0.394D-03-0.291D-02 0.126D-01 0.833D-01 0.907D+00
 Gap=     0.394 Goal=   None    Shift=    0.000
 RMSDP=1.02D-05 MaxDP=2.74D-04 DE=-1.74D-04 OVMax= 5.14D-04

 Cycle   6  Pass 0  IDiag  1:
 E= -305.705651578992     Delta-E=       -0.000003225665 Rises=F Damp=F
 DIIS: error= 3.55D-05 at cycle   6 NSaved=   6.
 NSaved= 6 IEnMin= 6 EnMin= -305.705651578992     IErMin= 6 ErrMin= 3.55D-05
 ErrMax= 3.55D-05  0.00D+00 EMaxC= 1.00D-01 BMatC= 1.26D-07 BMatP= 3.78D-06
 IDIUse=1 WtCom= 1.00D+00 WtEn= 0.00D+00
 Coeff-Com:  0.778D-03-0.116D-02-0.260D-01-0.270D-01 0.659D-01 0.987D+00
 Coeff:      0.778D-03-0.116D-02-0.260D-01-0.270D-01 0.659D-01 0.987D+00
 Gap=     0.394 Goal=   None    Shift=    0.000
 RMSDP=3.42D-06 MaxDP=7.83D-05 DE=-3.23D-06 OVMax= 1.82D-04

 Initial convergence to 1.0D-05 achieved.  Increase integral accuracy.
 Cycle   7  Pass 1  IDiag  1:
 E= -305.705641813699     Delta-E=        0.000009765293 Rises=F Damp=F
 DIIS: error= 1.77D-05 at cycle   1 NSaved=   1.
 NSaved= 1 IEnMin= 1 EnMin= -305.705641813699     IErMin= 1 ErrMin= 1.77D-05
 ErrMax= 1.77D-05  0.00D+00 EMaxC= 1.00D-01 BMatC= 6.69D-08 BMatP= 6.69D-08
 IDIUse=1 WtCom= 1.00D+00 WtEn= 0.00D+00
 Coeff-Com:  0.100D+01
 Coeff:      0.100D+01
 Gap=     0.394 Goal=   None    Shift=    0.000
 RMSDP=3.42D-06 MaxDP=7.83D-05 DE= 9.77D-06 OVMax= 5.51D-05

 Cycle   8  Pass 1  IDiag  1:
 E= -305.705641856006     Delta-E=       -0.000000042307 Rises=F Damp=F
 DIIS: error= 1.34D-05 at cycle   2 NSaved=   2.
 NSaved= 2 IEnMin= 2 EnMin= -305.705641856006     IErMin= 2 ErrMin= 1.34D-05
 ErrMax= 1.34D-05  0.00D+00 EMaxC= 1.00D-01 BMatC= 1.85D-08 BMatP= 6.69D-08
 IDIUse=1 WtCom= 1.00D+00 WtEn= 0.00D+00
 Coeff-Com:  0.269D+00 0.731D+00
 Coeff:      0.269D+00 0.731D+00
 Gap=     0.394 Goal=   None    Shift=    0.000
 RMSDP=6.85D-07 MaxDP=2.59D-05 DE=-4.23D-08 OVMax= 3.76D-05

 Cycle   9  Pass 1  IDiag  1:
 E= -305.705641863744     Delta-E=       -0.000000007738 Rises=F Damp=F
 DIIS: error= 7.64D-06 at cycle   3 NSaved=   3.
 NSaved= 3 IEnMin= 3 EnMin= -305.705641863744     IErMin= 3 ErrMin= 7.64D-06
 ErrMax= 7.64D-06  0.00D+00 EMaxC= 1.00D-01 BMatC= 7.17D-09 BMatP= 1.85D-08
 IDIUse=1 WtCom= 1.00D+00 WtEn= 0.00D+00
 Coeff-Com: -0.488D-01 0.378D+00 0.670D+00
 Coeff:     -0.488D-01 0.378D+00 0.670D+00
 Gap=     0.394 Goal=   None    Shift=    0.000
 RMSDP=3.31D-07 MaxDP=9.21D-06 DE=-7.74D-09 OVMax= 1.38D-05

 Cycle  10  Pass 1  IDiag  1:
 E= -305.705641868463     Delta-E=       -0.000000004719 Rises=F Damp=F
 DIIS: error= 4.79D-07 at cycle   4 NSaved=   4.
 NSaved= 4 IEnMin= 4 EnMin= -305.705641868463     IErMin= 4 ErrMin= 4.79D-07
 ErrMax= 4.79D-07  0.00D+00 EMaxC= 1.00D-01 BMatC= 2.13D-11 BMatP= 7.17D-09
 IDIUse=1 WtCom= 1.00D+00 WtEn= 0.00D+00
 Coeff-Com: -0.100D-01 0.464D-01 0.976D-01 0.866D+00
 Coeff:     -0.100D-01 0.464D-01 0.976D-01 0.866D+00
 Gap=     0.394 Goal=   None    Shift=    0.000
 RMSDP=3.52D-08 MaxDP=7.89D-07 DE=-4.72D-09 OVMax= 1.59D-06

 Cycle  11  Pass 1  IDiag  1:
 E= -305.705641868485     Delta-E=       -0.000000000021 Rises=F Damp=F
 DIIS: error= 1.73D-07 at cycle   5 NSaved=   5.
 NSaved= 5 IEnMin= 5 EnMin= -305.705641868485     IErMin= 5 ErrMin= 1.73D-07
 ErrMax= 1.73D-07  0.00D+00 EMaxC= 1.00D-01 BMatC= 4.57D-12 BMatP= 2.13D-11
 IDIUse=1 WtCom= 1.00D+00 WtEn= 0.00D+00
 Coeff-Com:  0.132D-02-0.209D-01-0.324D-01 0.249D+00 0.803D+00
 Coeff:      0.132D-02-0.209D-01-0.324D-01 0.249D+00 0.803D+00
 Gap=     0.394 Goal=   None    Shift=    0.000
 RMSDP=1.96D-08 MaxDP=5.17D-07 DE=-2.11D-11 OVMax= 9.36D-07

 Cycle  12  Pass 1  IDiag  1:
 E= -305.705641868488     Delta-E=       -0.000000000004 Rises=F Damp=F
 DIIS: error= 9.64D-08 at cycle   6 NSaved=   6.
 NSaved= 6 IEnMin= 6 EnMin= -305.705641868488     IErMin= 6 ErrMin= 9.64D-08
 ErrMax= 9.64D-08  0.00D+00 EMaxC= 1.00D-01 BMatC= 1.10D-12 BMatP= 4.57D-12
 IDIUse=1 WtCom= 1.00D+00 WtEn= 0.00D+00
 Coeff-Com:  0.170D-02-0.143D-01-0.252D-01-0.312D-02 0.367D+00 0.674D+00
 Coeff:      0.170D-02-0.143D-01-0.252D-01-0.312D-02 0.367D+00 0.674D+00
 Gap=     0.394 Goal=   None    Shift=    0.000
 RMSDP=5.04D-09 MaxDP=1.27D-07 DE=-3.52D-12 OVMax= 2.31D-07

 SCF Done:  E(RM062X) =  -305.705641868     A.U. after   12 cycles
            NFock= 12  Conv=0.50D-08     -V/T= 2.0030
 KE= 3.048011570313D+02 PE=-9.502607140715D+02 EE= 2.262690758222D+02
 Leave Link  502 at Fri Feb 17 21:42:21 2023, MaxMem=  6710886400 cpu:              70.2 elap:               4.3
 (Enter /data0/home/software/g16/l601.exe)
 Copying SCF densities to generalized density rwf, IOpCl= 0 IROHF=0.

 **********************************************************************

            Population analysis using the SCF density.

 **********************************************************************

 Alpha  occ. eigenvalues --  -19.67212 -19.62932 -19.61591 -19.59377  -1.18236
 Alpha  occ. eigenvalues --   -1.13235  -1.12625  -1.10350  -0.65180  -0.61253
 Alpha  occ. eigenvalues --   -0.60275  -0.58311  -0.52852  -0.48276  -0.47799
 Alpha  occ. eigenvalues --   -0.44922  -0.43139  -0.40093  -0.39546  -0.37252
 Alpha virt. eigenvalues --    0.02138   0.05232   0.07976   0.09557   0.10073
 Alpha virt. eigenvalues --    0.13032   0.14168   0.14742   0.15516   0.16346
 Alpha virt. eigenvalues --    0.16917   0.17882   0.18894   0.18969   0.20611
 Alpha virt. eigenvalues --    0.20916   0.21341   0.23711   0.25513   0.26284
 Alpha virt. eigenvalues --    0.29392   0.31836   0.33777   0.35706   0.48051
 Alpha virt. eigenvalues --    0.49380   0.50840   0.53153   0.54227   0.56767
 Alpha virt. eigenvalues --    0.61996   0.65357   0.91762   0.97183   0.98000
 Alpha virt. eigenvalues --    1.00160   1.01692   1.02420   1.04599   1.06109
 Alpha virt. eigenvalues --    1.06357   1.07997   1.10391   1.11141   1.13166
 Alpha virt. eigenvalues --    1.15626   1.17336   1.19920   1.22023   1.24479
 Alpha virt. eigenvalues --    1.24710   1.26428   1.31325   1.31773   1.34757
 Alpha virt. eigenvalues --    1.35562   1.36079   1.39991   1.45143   1.49042
 Alpha virt. eigenvalues --    1.65197   1.69734   1.69995   1.71508   1.73236
 Alpha virt. eigenvalues --    1.74028   1.74722   1.75276   1.77914   1.79357
 Alpha virt. eigenvalues --    1.95395   2.01535   2.04360   2.06026   2.09649
 Alpha virt. eigenvalues --    2.09789   2.11218   2.14845   2.21423   2.24467
 Alpha virt. eigenvalues --    2.35952   2.36249   2.38500   2.41079   2.43534
 Alpha virt. eigenvalues --    2.46681   2.52030   2.52608   2.55152   2.55973
 Alpha virt. eigenvalues --    2.61089   2.65890   2.85193   2.86546   2.92599
 Alpha virt. eigenvalues --    2.98475   2.99647   3.00781   3.11723   3.13775
 Alpha virt. eigenvalues --    5.05462   5.07660   5.10497   5.12664   5.46400
 Alpha virt. eigenvalues --    5.47577   5.51458   5.55509   5.86562   5.88241
 Alpha virt. eigenvalues --    5.96587   5.99305   6.75569   6.77036   6.78385
 Alpha virt. eigenvalues --    6.79903   6.81107   6.82370   6.83382   6.84664
 Alpha virt. eigenvalues --    6.86567   6.87281   6.88170   6.91393   6.92789
 Alpha virt. eigenvalues --    6.94850   6.96096   7.02479   7.05905   7.09884
 Alpha virt. eigenvalues --    7.17014   7.20964  49.94138  49.94861  50.01029
 Alpha virt. eigenvalues --   50.03580
          Condensed to atoms (all electrons):
               1          2          3          4          5          6
     1  O    8.177998   0.272009   0.311898   0.002735  -0.003400  -0.005016
     2  H    0.272009   0.364876  -0.023732  -0.061353   0.006820   0.003632
     3  H    0.311898  -0.023732   0.412637   0.007712   0.000294  -0.000550
     4  O    0.002735  -0.061353   0.007712   8.023877   0.314793   0.321781
     5  H   -0.003400   0.006820   0.000294   0.314793   0.396657  -0.018704
     6  H   -0.005016   0.003632  -0.000550   0.321781  -0.018704   0.390218
     7  O   -0.012017   0.000437   0.001662   0.000778  -0.000321  -0.000790
     8  H    0.003558   0.000423   0.000156  -0.000262   0.000068   0.000022
     9  H   -0.020931   0.005094   0.000616  -0.000468   0.000500   0.000613
    10  O    0.000009  -0.000004  -0.000000  -0.000002   0.000011   0.000000
    11  H   -0.000000   0.000000   0.000000  -0.000001   0.000001   0.000000
    12  H    0.000003   0.000000   0.000000  -0.000001   0.000001  -0.000000
               7          8          9         10         11         12
     1  O   -0.012017   0.003558  -0.020931   0.000009  -0.000000   0.000003
     2  H    0.000437   0.000423   0.005094  -0.000004   0.000000   0.000000
     3  H    0.001662   0.000156   0.000616  -0.000000   0.000000   0.000000
     4  O    0.000778  -0.000262  -0.000468  -0.000002  -0.000001  -0.000001
     5  H   -0.000321   0.000068   0.000500   0.000011   0.000001   0.000001
     6  H   -0.000790   0.000022   0.000613   0.000000   0.000000  -0.000000
     7  O    8.039890   0.305580   0.299673   0.000149  -0.000005   0.000082
     8  H    0.305580   0.448621  -0.024755  -0.000053   0.000003   0.000045
     9  H    0.299673  -0.024755   0.367892  -0.000032   0.000000  -0.000004
    10  O    0.000149  -0.000053  -0.000032   7.923851   0.317365   0.312216
    11  H   -0.000005   0.000003   0.000000   0.317365   0.432810  -0.023447
    12  H    0.000082   0.000045  -0.000004   0.312216  -0.023447   0.430893
 Mulliken charges:
               1
     1  O   -0.726845
     2  H    0.431798
     3  H    0.289306
     4  O   -0.609588
     5  H    0.303280
     6  H    0.308795
     7  O   -0.635118
     8  H    0.266595
     9  H    0.371802
    10  O   -0.553511
    11  H    0.273275
    12  H    0.280212
 Sum of Mulliken charges =  -0.00000
 Mulliken charges with hydrogens summed into heavy atoms:
               1
     1  O   -0.005741
     4  O    0.002487
     7  O    0.003279
    10  O   -0.000024
         Mulliken charges condensed to fragments:
      1     -0.005741
      2      0.002487
      3      0.003279
      4     -0.000024
 Electronic spatial extent (au):  <R**2>=          34761.8397
 Charge=              0.0000 electrons
 Dipole moment (field-independent basis, Debye):
    X=             -2.4801    Y=              1.7992    Z=              0.6694  Tot=              3.1363
 Quadrupole moment (field-independent basis, Debye-Ang):
   XX=            -65.2142   YY=             12.3781   ZZ=            -12.4498
   XY=             -6.5323   XZ=            -27.3276   YZ=             22.1493
 Traceless Quadrupole moment (field-independent basis, Debye-Ang):
   XX=            -43.4522   YY=             34.1401   ZZ=              9.3121
   XY=             -6.5323   XZ=            -27.3276   YZ=             22.1493
 Octapole moment (field-independent basis, Debye-Ang**2):
  XXX=           -872.0694  YYY=            -66.9286  ZZZ=           -696.2366  XYY=            -23.0361
  XXY=           -435.3567  XXZ=           -792.4867  XZZ=           -502.7445  YZZ=             55.8373
  YYZ=            109.6689  XYZ=            -74.4548
 Hexadecapole moment (field-independent basis, Debye-Ang**3):
 XXXX=          -9426.5605 YYYY=          -3601.7549 ZZZZ=         -18789.2290 XXXY=          -6295.0401
 XXXZ=         -10948.4519 YYYX=           -490.0869 YYYZ=          -1416.1361 ZZZX=         -10531.1903
 ZZZY=          -4014.4189 XXYY=          -3315.6106 XXZZ=         -11259.5549 YYZZ=           -977.8178
 XXYZ=          -5264.5767 YYXZ=           -472.3869 ZZXY=          -2342.7570
 N-N= 1.134848393496D+02 E-N=-9.502607037535D+02  KE= 3.048011570313D+02
 No NMR shielding tensors so no spin-rotation constants.
 Leave Link  601 at Fri Feb 17 21:42:21 2023, MaxMem=  6710886400 cpu:               1.9 elap:               0.1
 (Enter /data0/home/software/g16/l122.exe)
 CPIOFr:  IOpCl= 0 IRwI=-1 IRwCP=  731 ICalc= -1 LCPTot=       39484 Len1MO=      101070 IndFrg=       39484
 CPIOFr:  IOpCl= 0 IRwI=-1 IRwCP=  731 ICalc=  0 LCPTot=       39484 Len1MO=      101070 IndFrg=      140554
 Counterpoise: doing calculation for fragment   1 using the basis set of the full-system, NewBq=T
 Leave Link  122 at Fri Feb 17 21:42:21 2023, MaxMem=  6710886400 cpu:               0.1 elap:               0.0
 (Enter /data0/home/software/g16/l301.exe)
 Basis read from rwf:  (5D, 7F)
 No pseudopotential information found on rwf file.
   156 basis functions,   232 primitive gaussians,   164 cartesian basis functions
     5 alpha electrons        5 beta electrons
       nuclear repulsion energy         9.0597579287 Hartrees.
 IExCor= 4336 DFT=T Ex+Corr=M062X ExCW=0 ScaHFX=  0.540000
 ScaDFX=  1.000000  1.000000  1.000000  1.000000 ScalE2=  1.000000  1.000000
 IRadAn=      5 IRanWt=     -1 IRanGd=            0 ICorTp=0 IEmpDi=131
 NAtoms=   12 NActive=   12 NUniq=   12 SFac= 1.00D+00 NAtFMM=   60 NAOKFM=F Big=F
 Integral buffers will be    131072 words long.
 Raffenetti 2 integral format.
 Two-electron integral symmetry is turned off.
 R6Disp:  Grimme-D3 Dispersion energy=       -0.0000000085 Hartrees.
 Nuclear repulsion after empirical dispersion term =        9.0597579202 Hartrees.
 No density basis found on file   718.
 Leave Link  301 at Fri Feb 17 21:42:21 2023, MaxMem=  6710886400 cpu:               1.3 elap:               0.1
 (Enter /data0/home/software/g16/l302.exe)
 NPDir=0 NMtPBC=     1 NCelOv=     1 NCel=       1 NClECP=     1 NCelD=      1
         NCelK=      1 NCelE2=     1 NClLst=     1 CellRange=     0.0.
 One-electron integrals computed using PRISM.
 NBasis=   156 RedAO= T EigKep=  1.07D-03  NBF=   156
 NBsUse=   156 1.00D-06 EigRej= -1.00D+00 NBFU=   156
 Precomputing XC quadrature grid using
 IXCGrd= 4 IRadAn=           5 IRanWt=          -1 IRanGd=           0 AccXCQ= 0.00D+00.
 Generated NRdTot=       0 NPtTot=           0 NUsed=           0 NTot=          32
 NSgBfM=   161   161   161   161   161 MxSgAt=    12 MxSgA2=    12.
 Leave Link  302 at Fri Feb 17 21:42:21 2023, MaxMem=  6710886400 cpu:               3.0 elap:               0.1
 (Enter /data0/home/software/g16/l303.exe)
 DipDrv:  MaxL=1.
 Leave Link  303 at Fri Feb 17 21:42:21 2023, MaxMem=  6710886400 cpu:               0.5 elap:               0.0
 (Enter /data0/home/software/g16/l401.exe)
 ExpMin= 8.45D-02 ExpMax= 8.59D+03 ExpMxC= 1.30D+03 IAcc=3 IRadAn=         5 AccDes= 0.00D+00
 Harris functional with IExCor= 1009 and IRadAn=       5 diagonalized for initial guess.
 HarFok:  IExCor= 1009 AccDes= 0.00D+00 IRadAn=         5 IDoV= 1 UseB2=F ITyADJ=14
 ICtDFT=  3500011 ScaDFX=  1.000000  1.000000  1.000000  1.000000
 FoFCou: FMM=F IPFlag=           0 FMFlag=      100000 FMFlg1=           0
         NFxFlg=           0 DoJE=T BraDBF=F KetDBF=T FulRan=T
         wScrn=  0.000000 ICntrl=       500 IOpCl=  0 I1Cent=   200000004 NGrid=           0
         NMat0=    1 NMatS0=      1 NMatT0=    0 NMatD0=    1 NMtDS0=    0 NMtDT0=    0
 Symmetry not used in FoFCou.
 Harris En= -76.4165171735236    
 JPrj=0 DoOrth=F DoCkMO=F.
 Leave Link  401 at Fri Feb 17 21:42:21 2023, MaxMem=  6710886400 cpu:               5.6 elap:               0.3
 (Enter /data0/home/software/g16/l502.exe)
 Keep R1 ints in memory in canonical form, NReq=98807049.
 FoFCou: FMM=F IPFlag=           0 FMFlag=           0 FMFlg1=           0
         NFxFlg=           0 DoJE=F BraDBF=F KetDBF=F FulRan=T
         wScrn=  0.000000 ICntrl=       600 IOpCl=  0 I1Cent=           0 NGrid=           0
         NMat0=    1 NMatS0=  12246 NMatT0=    0 NMatD0=    1 NMtDS0=    0 NMtDT0=    0
 Symmetry not used in FoFCou.
 Two-electron integral symmetry not used.
 Closed shell SCF:
 Using DIIS extrapolation, IDIIS=  1040.
 NGot=  6710886400 LenX=  6635838975 LenY=  6635811638
 Requested convergence on RMS density matrix=1.00D-08 within 128 cycles.
 Requested convergence on MAX density matrix=1.00D-06.
 Requested convergence on             energy=1.00D-06.
 No special actions if energy rises.
 Integral accuracy reduced to 1.0D-05 until final iterations.

 Cycle   1  Pass 0  IDiag  1:
 E= -76.3467908675361    
 DIIS: error= 2.33D-02 at cycle   1 NSaved=   1.
 NSaved= 1 IEnMin= 1 EnMin= -76.3467908675361     IErMin= 1 ErrMin= 2.33D-02
 ErrMax= 2.33D-02  0.00D+00 EMaxC= 1.00D-01 BMatC= 1.20D-01 BMatP= 1.20D-01
 IDIUse=3 WtCom= 7.67D-01 WtEn= 2.33D-01
 Coeff-Com:  0.100D+01
 Coeff-En:   0.100D+01
 Coeff:      0.100D+01
 Gap=     0.288 Goal=   None    Shift=    0.000
 GapD=    0.288 DampG=1.000 DampE=0.500 DampFc=0.5000 IDamp=-1.
 Damping current iteration by 5.00D-01
 RMSDP=2.99D-03 MaxDP=9.94D-02              OVMax= 1.72D-01

 Cycle   2  Pass 0  IDiag  1:
 E= -76.3776231900123     Delta-E=       -0.030832322476 Rises=F Damp=T
 DIIS: error= 5.51D-03 at cycle   2 NSaved=   2.
 NSaved= 2 IEnMin= 2 EnMin= -76.3776231900123     IErMin= 2 ErrMin= 5.51D-03
 ErrMax= 5.51D-03  0.00D+00 EMaxC= 1.00D-01 BMatC= 5.06D-03 BMatP= 1.20D-01
 IDIUse=3 WtCom= 9.45D-01 WtEn= 5.51D-02
 Coeff-Com:  0.882D-01 0.912D+00
 Coeff-En:   0.199D+00 0.801D+00
 Coeff:      0.943D-01 0.906D+00
 Gap=     0.418 Goal=   None    Shift=    0.000
 RMSDP=4.40D-04 MaxDP=1.46D-02 DE=-3.08D-02 OVMax= 1.04D-01

 Cycle   3  Pass 0  IDiag  1:
 E= -76.4219435174807     Delta-E=       -0.044320327468 Rises=F Damp=F
 DIIS: error= 1.02D-03 at cycle   3 NSaved=   3.
 NSaved= 3 IEnMin= 3 EnMin= -76.4219435174807     IErMin= 3 ErrMin= 1.02D-03
 ErrMax= 1.02D-03  0.00D+00 EMaxC= 1.00D-01 BMatC= 1.56D-04 BMatP= 5.06D-03
 IDIUse=3 WtCom= 9.90D-01 WtEn= 1.02D-02
 Coeff-Com: -0.277D-01 0.527D-01 0.975D+00
 Coeff-En:   0.000D+00 0.000D+00 0.100D+01
 Coeff:     -0.274D-01 0.521D-01 0.975D+00
 Gap=     0.419 Goal=   None    Shift=    0.000
 RMSDP=4.41D-05 MaxDP=1.39D-03 DE=-4.43D-02 OVMax= 3.95D-03

 Cycle   4  Pass 0  IDiag  1:
 E= -76.4220676349541     Delta-E=       -0.000124117473 Rises=F Damp=F
 DIIS: error= 1.30D-04 at cycle   4 NSaved=   4.
 NSaved= 4 IEnMin= 4 EnMin= -76.4220676349541     IErMin= 4 ErrMin= 1.30D-04
 ErrMax= 1.30D-04  0.00D+00 EMaxC= 1.00D-01 BMatC= 2.91D-06 BMatP= 1.56D-04
 IDIUse=3 WtCom= 9.99D-01 WtEn= 1.30D-03
 Coeff-Com: -0.326D-02 0.670D-03 0.153D+00 0.849D+00
 Coeff-En:   0.000D+00 0.000D+00 0.000D+00 0.100D+01
 Coeff:     -0.326D-02 0.669D-03 0.153D+00 0.849D+00
 Gap=     0.420 Goal=   None    Shift=    0.000
 RMSDP=9.02D-06 MaxDP=3.20D-04 DE=-1.24D-04 OVMax= 5.24D-04

 Initial convergence to 1.0D-05 achieved.  Increase integral accuracy.
 Cycle   5  Pass 1  IDiag  1:
 E= -76.4220626561575     Delta-E=        0.000004978797 Rises=F Damp=F
 DIIS: error= 2.62D-05 at cycle   1 NSaved=   1.
 NSaved= 1 IEnMin= 1 EnMin= -76.4220626561575     IErMin= 1 ErrMin= 2.62D-05
 ErrMax= 2.62D-05  0.00D+00 EMaxC= 1.00D-01 BMatC= 9.66D-08 BMatP= 9.66D-08
 IDIUse=1 WtCom= 1.00D+00 WtEn= 0.00D+00
 Coeff-Com:  0.100D+01
 Coeff:      0.100D+01
 Gap=     0.420 Goal=   None    Shift=    0.000
 RMSDP=9.02D-06 MaxDP=3.20D-04 DE= 4.98D-06 OVMax= 2.39D-04

 Cycle   6  Pass 1  IDiag  1:
 E= -76.4220627801122     Delta-E=       -0.000000123955 Rises=F Damp=F
 DIIS: error= 1.73D-05 at cycle   2 NSaved=   2.
 NSaved= 2 IEnMin= 2 EnMin= -76.4220627801122     IErMin= 2 ErrMin= 1.73D-05
 ErrMax= 1.73D-05  0.00D+00 EMaxC= 1.00D-01 BMatC= 5.10D-08 BMatP= 9.66D-08
 IDIUse=1 WtCom= 1.00D+00 WtEn= 0.00D+00
 Coeff-Com:  0.387D+00 0.613D+00
 Coeff:      0.387D+00 0.613D+00
 Gap=     0.420 Goal=   None    Shift=    0.000
 RMSDP=8.46D-07 MaxDP=4.63D-05 DE=-1.24D-07 OVMax= 8.02D-05

 Cycle   7  Pass 1  IDiag  1:
 E= -76.4220628136961     Delta-E=       -0.000000033584 Rises=F Damp=F
 DIIS: error= 7.83D-06 at cycle   3 NSaved=   3.
 NSaved= 3 IEnMin= 3 EnMin= -76.4220628136961     IErMin= 3 ErrMin= 7.83D-06
 ErrMax= 7.83D-06  0.00D+00 EMaxC= 1.00D-01 BMatC= 6.98D-09 BMatP= 5.10D-08
 IDIUse=1 WtCom= 1.00D+00 WtEn= 0.00D+00
 Coeff-Com: -0.120D+00 0.210D+00 0.910D+00
 Coeff:     -0.120D+00 0.210D+00 0.910D+00
 Gap=     0.420 Goal=   None    Shift=    0.000
 RMSDP=1.01D-06 MaxDP=2.71D-05 DE=-3.36D-08 OVMax= 4.72D-05

 Cycle   8  Pass 1  IDiag  1:
 E= -76.4220628204102     Delta-E=       -0.000000006714 Rises=F Damp=F
 DIIS: error= 6.89D-07 at cycle   4 NSaved=   4.
 NSaved= 4 IEnMin= 4 EnMin= -76.4220628204102     IErMin= 4 ErrMin= 6.89D-07
 ErrMax= 6.89D-07  0.00D+00 EMaxC= 1.00D-01 BMatC= 7.84D-11 BMatP= 6.98D-09
 IDIUse=1 WtCom= 1.00D+00 WtEn= 0.00D+00
 Coeff-Com: -0.305D-01 0.131D-01 0.137D+00 0.880D+00
 Coeff:     -0.305D-01 0.131D-01 0.137D+00 0.880D+00
 Gap=     0.420 Goal=   None    Shift=    0.000
 RMSDP=1.36D-07 MaxDP=3.59D-06 DE=-6.71D-09 OVMax= 5.74D-06

 Cycle   9  Pass 1  IDiag  1:
 E= -76.4220628205165     Delta-E=       -0.000000000106 Rises=F Damp=F
 DIIS: error= 1.34D-07 at cycle   5 NSaved=   5.
 NSaved= 5 IEnMin= 5 EnMin= -76.4220628205165     IErMin= 5 ErrMin= 1.34D-07
 ErrMax= 1.34D-07  0.00D+00 EMaxC= 1.00D-01 BMatC= 1.91D-12 BMatP= 7.84D-11
 IDIUse=1 WtCom= 1.00D+00 WtEn= 0.00D+00
 Coeff-Com:  0.560D-02-0.875D-02-0.433D-01-0.696D-01 0.112D+01
 Coeff:      0.560D-02-0.875D-02-0.433D-01-0.696D-01 0.112D+01
 Gap=     0.420 Goal=   None    Shift=    0.000
 RMSDP=3.27D-08 MaxDP=8.44D-07 DE=-1.06D-10 OVMax= 1.62D-06

 Cycle  10  Pass 1  IDiag  1:
 E= -76.4220628205213     Delta-E=       -0.000000000005 Rises=F Damp=F
 DIIS: error= 1.48D-08 at cycle   6 NSaved=   6.
 NSaved= 6 IEnMin= 6 EnMin= -76.4220628205213     IErMin= 6 ErrMin= 1.48D-08
 ErrMax= 1.48D-08  0.00D+00 EMaxC= 1.00D-01 BMatC= 3.04D-14 BMatP= 1.91D-12
 IDIUse=1 WtCom= 1.00D+00 WtEn= 0.00D+00
 Coeff-Com: -0.475D-03 0.131D-02 0.480D-02-0.674D-02-0.140D+00 0.114D+01
 Coeff:     -0.475D-03 0.131D-02 0.480D-02-0.674D-02-0.140D+00 0.114D+01
 Gap=     0.420 Goal=   None    Shift=    0.000
 RMSDP=2.20D-09 MaxDP=6.35D-08 DE=-4.83D-12 OVMax= 1.77D-07

 SCF Done:  E(RM062X) =  -76.4220628205     A.U. after   10 cycles
            NFock= 10  Conv=0.22D-08     -V/T= 2.0033
 KE= 7.617123091456D+01 PE=-1.989569650146D+02 EE= 3.730391335929D+01
 Leave Link  502 at Fri Feb 17 21:42:25 2023, MaxMem=  6710886400 cpu:              60.9 elap:               3.5
 (Enter /data0/home/software/g16/l601.exe)
 Copying SCF densities to generalized density rwf, IOpCl= 0 IROHF=0.

 **********************************************************************

            Population analysis using the SCF density.

 **********************************************************************

 Alpha  occ. eigenvalues --  -19.62693  -1.13080  -0.60779  -0.47269  -0.39958
 Alpha virt. eigenvalues --    0.02036   0.07979   0.09322   0.10541   0.12070
 Alpha virt. eigenvalues --    0.13249   0.15299   0.15818   0.17167   0.18429
 Alpha virt. eigenvalues --    0.19044   0.19836   0.20829   0.21265   0.22562
 Alpha virt. eigenvalues --    0.25132   0.26601   0.28853   0.29374   0.31096
 Alpha virt. eigenvalues --    0.32043   0.34053   0.37282   0.38768   0.52799
 Alpha virt. eigenvalues --    0.54573   0.56679   0.59313   0.62862   0.69489
 Alpha virt. eigenvalues --    0.71195   0.75380   0.77306   0.80106   0.80621
 Alpha virt. eigenvalues --    0.83053   0.85024   0.87909   0.92924   0.96257
 Alpha virt. eigenvalues --    1.01307   1.03913   1.05249   1.07187   1.08590
 Alpha virt. eigenvalues --    1.13363   1.14682   1.22791   1.24488   1.43139
 Alpha virt. eigenvalues --    1.55989   1.65076   1.71797   1.74263   1.76282
 Alpha virt. eigenvalues --    1.78785   1.82362   1.84131   1.85327   1.89616
 Alpha virt. eigenvalues --    1.90058   1.98044   1.99284   2.07931   2.09030
 Alpha virt. eigenvalues --    2.14269   2.21389   2.21894   2.24848   2.32726
 Alpha virt. eigenvalues --    2.33924   2.35274   2.38847   2.39698   2.45733
 Alpha virt. eigenvalues --    2.50572   2.53230   2.56397   2.57773   2.58882
 Alpha virt. eigenvalues --    2.59321   2.60493   2.61380   2.64645   2.65339
 Alpha virt. eigenvalues --    2.68085   2.70645   2.71597   2.72726   2.75319
 Alpha virt. eigenvalues --    2.77769   2.78204   2.87073   2.91858   2.92917
 Alpha virt. eigenvalues --    3.00326   3.01511   3.04457   3.09595   3.22992
 Alpha virt. eigenvalues --    3.45604   3.49117   3.50130   3.60362   3.61599
 Alpha virt. eigenvalues --    3.67032   4.45667   4.52629   4.63850   5.01091
 Alpha virt. eigenvalues --    5.06712   5.13682   5.23398   5.54606   5.98662
 Alpha virt. eigenvalues --    6.80824   6.85593   6.91430   6.94848   7.15204
 Alpha virt. eigenvalues --    9.71489   9.73489   9.76708   9.82060   9.84089
 Alpha virt. eigenvalues --    9.86285   9.87843   9.96439  10.02101  10.02323
 Alpha virt. eigenvalues --   10.26317  10.29127  10.35857  10.42468  10.59390
 Alpha virt. eigenvalues --   12.78681  12.87536  13.14164  13.24486  13.39838
 Alpha virt. eigenvalues --   13.56609  13.79992  13.81254  14.26567  17.53521
 Alpha virt. eigenvalues --   17.77237  18.38441  50.00819 134.18781 137.48884
 Alpha virt. eigenvalues --  139.75443
          Condensed to atoms (all electrons):
               1          2          3          4          5          6
     1  O    8.090806   0.268885   0.310613   0.032762  -0.003895  -0.006664
     2  H    0.268885   0.372751  -0.019284  -0.001872   0.003268   0.002254
     3  H    0.310613  -0.019284   0.427655  -0.001509   0.000458   0.000138
     4  O    0.032762  -0.001872  -0.001509   0.015678  -0.004230  -0.006731
     5  H   -0.003895   0.003268   0.000458  -0.004230   0.002099   0.001295
     6  H   -0.006664   0.002254   0.000138  -0.006731   0.001295   0.003999
     7  O    0.029772  -0.003513  -0.000056   0.001576  -0.000352  -0.000471
     8  H    0.001789  -0.000116  -0.000087   0.000012  -0.000014   0.000004
     9  H   -0.072119   0.008523   0.000913  -0.003300   0.000750   0.000994
    10  O   -0.000000   0.000001   0.000000  -0.000000   0.000000   0.000000
    11  H    0.000000  -0.000000  -0.000000   0.000000  -0.000000  -0.000000
    12  H   -0.000001   0.000000   0.000000  -0.000000   0.000000   0.000000
               7          8          9         10         11         12
     1  O    0.029772   0.001789  -0.072119  -0.000000   0.000000  -0.000001
     2  H   -0.003513  -0.000116   0.008523   0.000001  -0.000000   0.000000
     3  H   -0.000056  -0.000087   0.000913   0.000000  -0.000000   0.000000
     4  O    0.001576   0.000012  -0.003300  -0.000000   0.000000  -0.000000
     5  H   -0.000352  -0.000014   0.000750   0.000000  -0.000000   0.000000
     6  H   -0.000471   0.000004   0.000994   0.000000  -0.000000   0.000000
     7  O    0.018338  -0.000957  -0.025337  -0.000004   0.000001  -0.000001
     8  H   -0.000957   0.000437   0.000624   0.000001  -0.000000  -0.000000
     9  H   -0.025337   0.000624   0.039990   0.000003  -0.000000   0.000001
    10  O   -0.000004   0.000001   0.000003   0.000002  -0.000002   0.000000
    11  H    0.000001  -0.000000  -0.000000  -0.000002   0.000002  -0.000000
    12  H   -0.000001  -0.000000   0.000001   0.000000  -0.000000   0.000000
 Mulliken charges:
               1
     1  O   -0.651949
     2  H    0.369102
     3  H    0.281159
     4  O   -0.032385
     5  H    0.000621
     6  H    0.005181
     7  O   -0.018994
     8  H   -0.001693
     9  H    0.048959
    10  O   -0.000001
    11  H    0.000000
    12  H    0.000000
 Sum of Mulliken charges =  -0.00000
 Mulliken charges with hydrogens summed into heavy atoms:
               1
     1  O   -0.001688
     4  O   -0.026583
     7  O    0.028271
    10  O   -0.000000
         Mulliken charges condensed to fragments:
      1     -0.001688
      2     -0.026583
      3      0.028271
      4     -0.000000
 Electronic spatial extent (au):  <R**2>=           6764.7060
 Charge=             -0.0000 electrons
 Dipole moment (field-independent basis, Debye):
    X=             -0.5155    Y=              1.8199    Z=             -0.6803  Tot=              2.0101
 Quadrupole moment (field-independent basis, Debye-Ang):
   XX=            -10.4380   YY=             25.3770   ZZ=            -19.5705
   XY=              2.6639   XZ=             -6.2339   YZ=             13.1723
 Traceless Quadrupole moment (field-independent basis, Debye-Ang):
   XX=             -8.8942   YY=             26.9209   ZZ=            -18.0267
   XY=              2.6639   XZ=             -6.2339   YZ=             13.1723
 Octapole moment (field-independent basis, Debye-Ang**2):
  XXX=            -94.0455  YYY=            252.2512  ZZZ=           -385.3438  XYY=             62.6351
  XXY=            -61.9187  XXZ=           -104.1955  XZZ=            -95.1585  YZZ=             30.7326
  YYZ=            217.5265  XYZ=             20.6587
 Hexadecapole moment (field-independent basis, Debye-Ang**3):
 XXXX=           -646.4074 YYYY=           2039.0147 ZZZZ=          -6400.3578 XXXY=           -699.1513
 XXXZ=           -928.2967 YYYX=            702.1292 YYYZ=           2270.5359 ZZZX=          -1508.2676
 ZZZY=          -1229.7594 XXYY=           -372.1583 XXZZ=          -1123.7695 YYZZ=           1379.0875
 XXYZ=           -604.4971 YYXZ=            603.0874 ZZXY=            -40.5744
 N-N= 9.059757920194D+00 E-N=-1.989569649777D+02  KE= 7.617123091456D+01
 No NMR shielding tensors so no spin-rotation constants.
 Leave Link  601 at Fri Feb 17 21:42:25 2023, MaxMem=  6710886400 cpu:               1.9 elap:               0.1
 (Enter /data0/home/software/g16/l122.exe)
 CPIOFr:  IOpCl= 0 IRwI=-1 IRwCP=  731 ICalc=  1 LCPTot=       39484 Len1MO=      101070 IndFrg=      241624
 Counterpoise: doing calculation for fragment   2 using the basis set of the full-system, NewBq=T
 Leave Link  122 at Fri Feb 17 21:42:25 2023, MaxMem=  6710886400 cpu:               0.1 elap:               0.0
 (Enter /data0/home/software/g16/l301.exe)
 Basis read from rwf:  (5D, 7F)
 No pseudopotential information found on rwf file.
   156 basis functions,   232 primitive gaussians,   164 cartesian basis functions
     5 alpha electrons        5 beta electrons
       nuclear repulsion energy         9.0785600877 Hartrees.
 IExCor= 4336 DFT=T Ex+Corr=M062X ExCW=0 ScaHFX=  0.540000
 ScaDFX=  1.000000  1.000000  1.000000  1.000000 ScalE2=  1.000000  1.000000
 IRadAn=      5 IRanWt=     -1 IRanGd=            0 ICorTp=0 IEmpDi=131
 NAtoms=   12 NActive=   12 NUniq=   12 SFac= 1.00D+00 NAtFMM=   60 NAOKFM=F Big=F
 Integral buffers will be    131072 words long.
 Raffenetti 2 integral format.
 Two-electron integral symmetry is turned off.
 R6Disp:  Grimme-D3 Dispersion energy=       -0.0000000076 Hartrees.
 Nuclear repulsion after empirical dispersion term =        9.0785600801 Hartrees.
 No density basis found on file   718.
 Leave Link  301 at Fri Feb 17 21:42:25 2023, MaxMem=  6710886400 cpu:               1.2 elap:               0.1
 (Enter /data0/home/software/g16/l302.exe)
 NPDir=0 NMtPBC=     1 NCelOv=     1 NCel=       1 NClECP=     1 NCelD=      1
         NCelK=      1 NCelE2=     1 NClLst=     1 CellRange=     0.0.
 One-electron integrals computed using PRISM.
 NBasis=   156 RedAO= T EigKep=  1.07D-03  NBF=   156
 NBsUse=   156 1.00D-06 EigRej= -1.00D+00 NBFU=   156
 Precomputing XC quadrature grid using
 IXCGrd= 4 IRadAn=           5 IRanWt=          -1 IRanGd=           0 AccXCQ= 0.00D+00.
 Generated NRdTot=       0 NPtTot=           0 NUsed=           0 NTot=          32
 NSgBfM=   161   161   161   161   161 MxSgAt=    12 MxSgA2=    12.
 Leave Link  302 at Fri Feb 17 21:42:25 2023, MaxMem=  6710886400 cpu:               3.0 elap:               0.1
 (Enter /data0/home/software/g16/l303.exe)
 DipDrv:  MaxL=1.
 Leave Link  303 at Fri Feb 17 21:42:25 2023, MaxMem=  6710886400 cpu:               0.5 elap:               0.0
 (Enter /data0/home/software/g16/l401.exe)
 ExpMin= 8.45D-02 ExpMax= 8.59D+03 ExpMxC= 1.30D+03 IAcc=3 IRadAn=         5 AccDes= 0.00D+00
 Harris functional with IExCor= 1009 and IRadAn=       5 diagonalized for initial guess.
 HarFok:  IExCor= 1009 AccDes= 0.00D+00 IRadAn=         5 IDoV= 1 UseB2=F ITyADJ=14
 ICtDFT=  3500011 ScaDFX=  1.000000  1.000000  1.000000  1.000000
 FoFCou: FMM=F IPFlag=           0 FMFlag=      100000 FMFlg1=           0
         NFxFlg=           0 DoJE=T BraDBF=F KetDBF=T FulRan=T
         wScrn=  0.000000 ICntrl=       500 IOpCl=  0 I1Cent=   200000004 NGrid=           0
         NMat0=    1 NMatS0=      1 NMatT0=    0 NMatD0=    1 NMtDS0=    0 NMtDT0=    0
 Symmetry not used in FoFCou.
 Harris En= -76.4167328452830    
 JPrj=0 DoOrth=F DoCkMO=F.
 Leave Link  401 at Fri Feb 17 21:42:26 2023, MaxMem=  6710886400 cpu:               5.6 elap:               0.3
 (Enter /data0/home/software/g16/l502.exe)
 Keep R1 ints in memory in canonical form, NReq=98807049.
 FoFCou: FMM=F IPFlag=           0 FMFlag=           0 FMFlg1=           0
         NFxFlg=           0 DoJE=F BraDBF=F KetDBF=F FulRan=T
         wScrn=  0.000000 ICntrl=       600 IOpCl=  0 I1Cent=           0 NGrid=           0
         NMat0=    1 NMatS0=  12246 NMatT0=    0 NMatD0=    1 NMtDS0=    0 NMtDT0=    0
 Symmetry not used in FoFCou.
 Two-electron integral symmetry not used.
 Closed shell SCF:
 Using DIIS extrapolation, IDIIS=  1040.
 NGot=  6710886400 LenX=  6635838975 LenY=  6635811638
 Requested convergence on RMS density matrix=1.00D-08 within 128 cycles.
 Requested convergence on MAX density matrix=1.00D-06.
 Requested convergence on             energy=1.00D-06.
 No special actions if energy rises.
 Integral accuracy reduced to 1.0D-05 until final iterations.

 Cycle   1  Pass 0  IDiag  1:
 E= -76.3475834301211    
 DIIS: error= 3.45D-02 at cycle   1 NSaved=   1.
 NSaved= 1 IEnMin= 1 EnMin= -76.3475834301211     IErMin= 1 ErrMin= 3.45D-02
 ErrMax= 3.45D-02  0.00D+00 EMaxC= 1.00D-01 BMatC= 1.20D-01 BMatP= 1.20D-01
 IDIUse=3 WtCom= 6.55D-01 WtEn= 3.45D-01
 Coeff-Com:  0.100D+01
 Coeff-En:   0.100D+01
 Coeff:      0.100D+01
 Gap=     0.306 Goal=   None    Shift=    0.000
 GapD=    0.306 DampG=1.000 DampE=0.500 DampFc=0.5000 IDamp=-1.
 Damping current iteration by 5.00D-01
 RMSDP=3.07D-03 MaxDP=9.94D-02              OVMax= 1.71D-01

 Cycle   2  Pass 0  IDiag  1:
 E= -76.3784420137321     Delta-E=       -0.030858583611 Rises=F Damp=T
 DIIS: error= 6.13D-03 at cycle   2 NSaved=   2.
 NSaved= 2 IEnMin= 2 EnMin= -76.3784420137321     IErMin= 2 ErrMin= 6.13D-03
 ErrMax= 6.13D-03  0.00D+00 EMaxC= 1.00D-01 BMatC= 4.98D-03 BMatP= 1.20D-01
 IDIUse=3 WtCom= 9.39D-01 WtEn= 6.13D-02
 Coeff-Com:  0.869D-01 0.913D+00
 Coeff-En:   0.196D+00 0.804D+00
 Coeff:      0.936D-01 0.906D+00
 Gap=     0.433 Goal=   None    Shift=    0.000
 RMSDP=4.58D-04 MaxDP=1.72D-02 DE=-3.09D-02 OVMax= 1.03D-01

 Cycle   3  Pass 0  IDiag  1:
 E= -76.4224293263302     Delta-E=       -0.043987312598 Rises=F Damp=F
 DIIS: error= 1.20D-03 at cycle   3 NSaved=   3.
 NSaved= 3 IEnMin= 3 EnMin= -76.4224293263302     IErMin= 3 ErrMin= 1.20D-03
 ErrMax= 1.20D-03  0.00D+00 EMaxC= 1.00D-01 BMatC= 1.41D-04 BMatP= 4.98D-03
 IDIUse=3 WtCom= 9.88D-01 WtEn= 1.20D-02
 Coeff-Com: -0.265D-01 0.495D-01 0.977D+00
 Coeff-En:   0.000D+00 0.000D+00 0.100D+01
 Coeff:     -0.262D-01 0.489D-01 0.977D+00
 Gap=     0.435 Goal=   None    Shift=    0.000
 RMSDP=4.04D-05 MaxDP=1.16D-03 DE=-4.40D-02 OVMax= 3.82D-03

 Cycle   4  Pass 0  IDiag  1:
 E= -76.4225425138993     Delta-E=       -0.000113187569 Rises=F Damp=F
 DIIS: error= 1.56D-04 at cycle   4 NSaved=   4.
 NSaved= 4 IEnMin= 4 EnMin= -76.4225425138993     IErMin= 4 ErrMin= 1.56D-04
 ErrMax= 1.56D-04  0.00D+00 EMaxC= 1.00D-01 BMatC= 2.82D-06 BMatP= 1.41D-04
 IDIUse=3 WtCom= 9.98D-01 WtEn= 1.56D-03
 Coeff-Com: -0.290D-02 0.990D-04 0.150D+00 0.853D+00
 Coeff-En:   0.000D+00 0.000D+00 0.000D+00 0.100D+01
 Coeff:     -0.289D-02 0.988D-04 0.150D+00 0.853D+00
 Gap=     0.435 Goal=   None    Shift=    0.000
 RMSDP=1.01D-05 MaxDP=3.24D-04 DE=-1.13D-04 OVMax= 5.28D-04

 Cycle   5  Pass 0  IDiag  1:
 E= -76.4225443157860     Delta-E=       -0.000001801887 Rises=F Damp=F
 DIIS: error= 3.40D-05 at cycle   5 NSaved=   5.
 NSaved= 5 IEnMin= 5 EnMin= -76.4225443157860     IErMin= 5 ErrMin= 3.40D-05
 ErrMax= 3.40D-05  0.00D+00 EMaxC= 1.00D-01 BMatC= 7.61D-08 BMatP= 2.82D-06
 IDIUse=1 WtCom= 1.00D+00 WtEn= 0.00D+00
 Coeff-Com:  0.142D-02-0.220D-02-0.372D-01-0.527D-01 0.109D+01
 Coeff:      0.142D-02-0.220D-02-0.372D-01-0.527D-01 0.109D+01
 Gap=     0.435 Goal=   None    Shift=    0.000
 RMSDP=6.40D-06 MaxDP=2.04D-04 DE=-1.80D-06 OVMax= 2.15D-04

 Initial convergence to 1.0D-05 achieved.  Increase integral accuracy.
 Cycle   6  Pass 1  IDiag  1:
 E= -76.4225411632289     Delta-E=        0.000003152557 Rises=F Damp=F
 DIIS: error= 1.05D-05 at cycle   1 NSaved=   1.
 NSaved= 1 IEnMin= 1 EnMin= -76.4225411632289     IErMin= 1 ErrMin= 1.05D-05
 ErrMax= 1.05D-05  0.00D+00 EMaxC= 1.00D-01 BMatC= 1.02D-08 BMatP= 1.02D-08
 IDIUse=1 WtCom= 1.00D+00 WtEn= 0.00D+00
 Coeff-Com:  0.100D+01
 Coeff:      0.100D+01
 Gap=     0.435 Goal=   None    Shift=    0.000
 RMSDP=6.40D-06 MaxDP=2.04D-04 DE= 3.15D-06 OVMax= 3.40D-05

 Cycle   7  Pass 1  IDiag  1:
 E= -76.4225411711805     Delta-E=       -0.000000007952 Rises=F Damp=F
 DIIS: error= 2.85D-06 at cycle   2 NSaved=   2.
 NSaved= 2 IEnMin= 2 EnMin= -76.4225411711805     IErMin= 2 ErrMin= 2.85D-06
 ErrMax= 2.85D-06  0.00D+00 EMaxC= 1.00D-01 BMatC= 8.43D-10 BMatP= 1.02D-08
 IDIUse=1 WtCom= 1.00D+00 WtEn= 0.00D+00
 Coeff-Com:  0.633D-01 0.937D+00
 Coeff:      0.633D-01 0.937D+00
 Gap=     0.435 Goal=   None    Shift=    0.000
 RMSDP=2.38D-07 MaxDP=9.19D-06 DE=-7.95D-09 OVMax= 1.71D-05

 Cycle   8  Pass 1  IDiag  1:
 E= -76.4225411713493     Delta-E=       -0.000000000169 Rises=F Damp=F
 DIIS: error= 2.64D-06 at cycle   3 NSaved=   3.
 NSaved= 3 IEnMin= 3 EnMin= -76.4225411713493     IErMin= 3 ErrMin= 2.64D-06
 ErrMax= 2.64D-06  0.00D+00 EMaxC= 1.00D-01 BMatC= 7.67D-10 BMatP= 8.43D-10
 IDIUse=1 WtCom= 1.00D+00 WtEn= 0.00D+00
 Coeff-Com: -0.423D-01 0.500D+00 0.542D+00
 Coeff:     -0.423D-01 0.500D+00 0.542D+00
 Gap=     0.435 Goal=   None    Shift=    0.000
 RMSDP=9.07D-08 MaxDP=4.32D-06 DE=-1.69D-10 OVMax= 7.40D-06

 Cycle   9  Pass 1  IDiag  1:
 E= -76.4225411718526     Delta-E=       -0.000000000503 Rises=F Damp=F
 DIIS: error= 1.98D-07 at cycle   4 NSaved=   4.
 NSaved= 4 IEnMin= 4 EnMin= -76.4225411718526     IErMin= 4 ErrMin= 1.98D-07
 ErrMax= 1.98D-07  0.00D+00 EMaxC= 1.00D-01 BMatC= 4.53D-12 BMatP= 7.67D-10
 IDIUse=1 WtCom= 1.00D+00 WtEn= 0.00D+00
 Coeff-Com: -0.648D-02 0.252D-01 0.683D-01 0.913D+00
 Coeff:     -0.648D-02 0.252D-01 0.683D-01 0.913D+00
 Gap=     0.435 Goal=   None    Shift=    0.000
 RMSDP=2.64D-08 MaxDP=7.37D-07 DE=-5.03D-10 OVMax= 1.29D-06

 Cycle  10  Pass 1  IDiag  1:
 E= -76.4225411718586     Delta-E=       -0.000000000006 Rises=F Damp=F
 DIIS: error= 4.21D-08 at cycle   5 NSaved=   5.
 NSaved= 5 IEnMin= 5 EnMin= -76.4225411718586     IErMin= 5 ErrMin= 4.21D-08
 ErrMax= 4.21D-08  0.00D+00 EMaxC= 1.00D-01 BMatC= 2.43D-13 BMatP= 4.53D-12
 IDIUse=1 WtCom= 1.00D+00 WtEn= 0.00D+00
 Coeff-Com:  0.232D-02-0.349D-01-0.357D-01 0.392D-01 0.103D+01
 Coeff:      0.232D-02-0.349D-01-0.357D-01 0.392D-01 0.103D+01
 Gap=     0.435 Goal=   None    Shift=    0.000
 RMSDP=8.23D-09 MaxDP=2.03D-07 DE=-5.98D-12 OVMax= 4.75D-07

 SCF Done:  E(RM062X) =  -76.4225411719     A.U. after   10 cycles
            NFock= 10  Conv=0.82D-08     -V/T= 2.0032
 KE= 7.618057911298D+01 PE=-1.989962398642D+02 EE= 3.731455949921D+01
 Leave Link  502 at Fri Feb 17 21:42:29 2023, MaxMem=  6710886400 cpu:              57.0 elap:               3.7
 (Enter /data0/home/software/g16/l601.exe)
 Copying SCF densities to generalized density rwf, IOpCl= 0 IROHF=0.

 **********************************************************************

            Population analysis using the SCF density.

 **********************************************************************

 Alpha  occ. eigenvalues --  -19.62744  -1.13271  -0.60473  -0.47671  -0.40019
 Alpha virt. eigenvalues --    0.03501   0.08082   0.09544   0.11092   0.11817
 Alpha virt. eigenvalues --    0.15134   0.16114   0.16523   0.17264   0.18208
 Alpha virt. eigenvalues --    0.18571   0.19542   0.20589   0.21140   0.23493
 Alpha virt. eigenvalues --    0.26250   0.26629   0.29337   0.29650   0.31770
 Alpha virt. eigenvalues --    0.33600   0.34457   0.37149   0.41033   0.51651
 Alpha virt. eigenvalues --    0.54489   0.56343   0.61368   0.62636   0.74722
 Alpha virt. eigenvalues --    0.77119   0.78069   0.79124   0.80047   0.80389
 Alpha virt. eigenvalues --    0.83455   0.88587   0.90708   0.96727   0.98677
 Alpha virt. eigenvalues --    1.02389   1.02989   1.05319   1.08194   1.09983
 Alpha virt. eigenvalues --    1.12878   1.16934   1.19478   1.22366   1.42342
 Alpha virt. eigenvalues --    1.65674   1.68982   1.75501   1.77251   1.77722
 Alpha virt. eigenvalues --    1.83286   1.83560   1.84620   1.87119   1.89028
 Alpha virt. eigenvalues --    1.94886   1.97476   1.99721   2.05563   2.10082
 Alpha virt. eigenvalues --    2.13597   2.19960   2.22040   2.27415   2.28423
 Alpha virt. eigenvalues --    2.32209   2.36859   2.40525   2.46610   2.49599
 Alpha virt. eigenvalues --    2.52691   2.54816   2.55366   2.57506   2.59908
 Alpha virt. eigenvalues --    2.60711   2.64734   2.66647   2.68017   2.70113
 Alpha virt. eigenvalues --    2.72214   2.73137   2.74434   2.75504   2.77280
 Alpha virt. eigenvalues --    2.80268   2.88144   2.91433   2.96983   2.98671
 Alpha virt. eigenvalues --    3.01218   3.01439   3.09092   3.09671   3.10713
 Alpha virt. eigenvalues --    3.46871   3.58456   3.60284   3.66102   3.67302
 Alpha virt. eigenvalues --    3.73151   4.56481   4.63295   4.66143   5.06255
 Alpha virt. eigenvalues --    5.19742   5.22629   5.24270   5.54062   5.91394
 Alpha virt. eigenvalues --    6.81509   6.84740   6.91858   7.06716   7.10606
 Alpha virt. eigenvalues --    9.66289   9.77791   9.80357   9.85107   9.98022
 Alpha virt. eigenvalues --   10.10109  10.14035  10.21249  10.25730  10.27888
 Alpha virt. eigenvalues --   10.28543  10.35274  10.41849  10.47426  10.58751
 Alpha virt. eigenvalues --   12.78207  13.12086  13.22579  13.39293  13.59750
 Alpha virt. eigenvalues --   13.62692  13.79420  14.16198  14.25982  17.59933
 Alpha virt. eigenvalues --   18.20354  18.37735  49.99601 132.61873 138.84345
 Alpha virt. eigenvalues --  139.74904
          Condensed to atoms (all electrons):
               1          2          3          4          5          6
     1  O    0.019815  -0.032829   0.001222   0.052557  -0.002811  -0.001544
     2  H   -0.032829   0.065284  -0.003208  -0.126473   0.006561   0.005072
     3  H    0.001222  -0.003208   0.000995   0.006167  -0.000370  -0.000501
     4  O    0.052557  -0.126473   0.006167   8.025929   0.317342   0.322517
     5  H   -0.002811   0.006561  -0.000370   0.317342   0.426009  -0.023915
     6  H   -0.001544   0.005072  -0.000501   0.322517  -0.023915   0.423966
     7  O   -0.000372   0.000542  -0.000065  -0.000800   0.000148   0.000063
     8  H    0.000036   0.000058   0.000011  -0.000065  -0.000014   0.000001
     9  H   -0.000208  -0.000054  -0.000089  -0.000278   0.000119   0.000059
    10  O    0.000000  -0.000001  -0.000000   0.000003  -0.000001  -0.000000
    11  H    0.000000   0.000000   0.000000  -0.000001   0.000000   0.000000
    12  H    0.000000   0.000000   0.000000  -0.000000   0.000000  -0.000000
               7          8          9         10         11         12
     1  O   -0.000372   0.000036  -0.000208   0.000000   0.000000   0.000000
     2  H    0.000542   0.000058  -0.000054  -0.000001   0.000000   0.000000
     3  H   -0.000065   0.000011  -0.000089  -0.000000   0.000000   0.000000
     4  O   -0.000800  -0.000065  -0.000278   0.000003  -0.000001  -0.000000
     5  H    0.000148  -0.000014   0.000119  -0.000001   0.000000   0.000000
     6  H    0.000063   0.000001   0.000059  -0.000000   0.000000  -0.000000
     7  O    0.000170  -0.000072   0.000017   0.000001  -0.000000  -0.000001
     8  H   -0.000072   0.000114  -0.000109  -0.000001   0.000000   0.000001
     9  H    0.000017  -0.000109   0.000287   0.000000  -0.000000  -0.000000
    10  O    0.000001  -0.000001   0.000000   0.000006  -0.000003  -0.000002
    11  H   -0.000000   0.000000  -0.000000  -0.000003   0.000002   0.000001
    12  H   -0.000001   0.000001  -0.000000  -0.000002   0.000001   0.000001
 Mulliken charges:
               1
     1  O   -0.035866
     2  H    0.085049
     3  H   -0.004163
     4  O   -0.596898
     5  H    0.276931
     6  H    0.274282
     7  O    0.000369
     8  H    0.000041
     9  H    0.000256
    10  O   -0.000002
    11  H    0.000001
    12  H    0.000000
 Sum of Mulliken charges =  -0.00000
 Mulliken charges with hydrogens summed into heavy atoms:
               1
     1  O    0.045021
     4  O   -0.045684
     7  O    0.000665
    10  O   -0.000002
         Mulliken charges condensed to fragments:
      1      0.045021
      2     -0.045684
      3      0.000665
      4     -0.000002
 Electronic spatial extent (au):  <R**2>=           9398.9793
 Charge=             -0.0000 electrons
 Dipole moment (field-independent basis, Debye):
    X=              2.0211    Y=              0.1584    Z=              0.3383  Tot=              2.0553
 Quadrupole moment (field-independent basis, Debye-Ang):
   XX=             11.9481   YY=             -3.2341   ZZ=              2.0674
   XY=             23.0530   XZ=             24.0607   YZ=              3.9356
 Traceless Quadrupole moment (field-independent basis, Debye-Ang):
   XX=              8.3543   YY=             -6.8279   ZZ=             -1.5264
   XY=             23.0530   XZ=             24.0607   YZ=              3.9356
 Octapole moment (field-independent basis, Debye-Ang**2):
  XXX=             39.1906  YYY=           -162.2212  ZZZ=            -56.0327  XYY=            232.7630
  XXY=            136.3537  XXZ=            140.2852  XZZ=            261.4690  YZZ=              8.3504
  YYZ=            -28.8070  XYZ=            266.2776
 Hexadecapole moment (field-independent basis, Debye-Ang**3):
 XXXX=            -17.1173 YYYY=          -3954.1906 ZZZZ=          -2172.5370 XXXY=            462.2407
 XXXZ=            470.3746 YYYX=           2012.1106 YYYZ=          -1906.6057 ZZZX=           2578.4489
 ZZZY=           -958.4831 XXYY=           1419.0673 XXZZ=           1537.3620 YYZZ=           -893.6813
 XXYZ=           1561.2852 YYXZ=           2616.1019 ZZXY=           2812.3297
 N-N= 9.078560080139D+00 E-N=-1.989962394073D+02  KE= 7.618057911298D+01
 No NMR shielding tensors so no spin-rotation constants.
 Leave Link  601 at Fri Feb 17 21:42:29 2023, MaxMem=  6710886400 cpu:               2.0 elap:               0.1
 (Enter /data0/home/software/g16/l122.exe)
 CPIOFr:  IOpCl= 0 IRwI=-1 IRwCP=  731 ICalc=  2 LCPTot=       39484 Len1MO=      101070 IndFrg=      342694
 Counterpoise: doing calculation for fragment   3 using the basis set of the full-system, NewBq=T
 Leave Link  122 at Fri Feb 17 21:42:29 2023, MaxMem=  6710886400 cpu:               0.1 elap:               0.0
 (Enter /data0/home/software/g16/l301.exe)
 Basis read from rwf:  (5D, 7F)
 No pseudopotential information found on rwf file.
   156 basis functions,   232 primitive gaussians,   164 cartesian basis functions
     5 alpha electrons        5 beta electrons
       nuclear repulsion energy         9.1239023621 Hartrees.
 IExCor= 4336 DFT=T Ex+Corr=M062X ExCW=0 ScaHFX=  0.540000
 ScaDFX=  1.000000  1.000000  1.000000  1.000000 ScalE2=  1.000000  1.000000
 IRadAn=      5 IRanWt=     -1 IRanGd=            0 ICorTp=0 IEmpDi=131
 NAtoms=   12 NActive=   12 NUniq=   12 SFac= 1.00D+00 NAtFMM=   60 NAOKFM=F Big=F
 Integral buffers will be    131072 words long.
 Raffenetti 2 integral format.
 Two-electron integral symmetry is turned off.
 R6Disp:  Grimme-D3 Dispersion energy=       -0.0000000077 Hartrees.
 Nuclear repulsion after empirical dispersion term =        9.1239023543 Hartrees.
 No density basis found on file   718.
 Leave Link  301 at Fri Feb 17 21:42:30 2023, MaxMem=  6710886400 cpu:               1.3 elap:               0.1
 (Enter /data0/home/software/g16/l302.exe)
 NPDir=0 NMtPBC=     1 NCelOv=     1 NCel=       1 NClECP=     1 NCelD=      1
         NCelK=      1 NCelE2=     1 NClLst=     1 CellRange=     0.0.
 One-electron integrals computed using PRISM.
 NBasis=   156 RedAO= T EigKep=  1.07D-03  NBF=   156
 NBsUse=   156 1.00D-06 EigRej= -1.00D+00 NBFU=   156
 Precomputing XC quadrature grid using
 IXCGrd= 4 IRadAn=           5 IRanWt=          -1 IRanGd=           0 AccXCQ= 0.00D+00.
 Generated NRdTot=       0 NPtTot=           0 NUsed=           0 NTot=          32
 NSgBfM=   161   161   161   161   161 MxSgAt=    12 MxSgA2=    12.
 Leave Link  302 at Fri Feb 17 21:42:30 2023, MaxMem=  6710886400 cpu:               2.9 elap:               0.1
 (Enter /data0/home/software/g16/l303.exe)
 DipDrv:  MaxL=1.
 Leave Link  303 at Fri Feb 17 21:42:30 2023, MaxMem=  6710886400 cpu:               0.5 elap:               0.0
 (Enter /data0/home/software/g16/l401.exe)
 ExpMin= 8.45D-02 ExpMax= 8.59D+03 ExpMxC= 1.30D+03 IAcc=3 IRadAn=         5 AccDes= 0.00D+00
 Harris functional with IExCor= 1009 and IRadAn=       5 diagonalized for initial guess.
 HarFok:  IExCor= 1009 AccDes= 0.00D+00 IRadAn=         5 IDoV= 1 UseB2=F ITyADJ=14
 ICtDFT=  3500011 ScaDFX=  1.000000  1.000000  1.000000  1.000000
 FoFCou: FMM=F IPFlag=           0 FMFlag=      100000 FMFlg1=           0
         NFxFlg=           0 DoJE=T BraDBF=F KetDBF=T FulRan=T
         wScrn=  0.000000 ICntrl=       500 IOpCl=  0 I1Cent=   200000004 NGrid=           0
         NMat0=    1 NMatS0=      1 NMatT0=    0 NMatD0=    1 NMtDS0=    0 NMtDT0=    0
 Symmetry not used in FoFCou.
 Harris En= -76.4171670318304    
 JPrj=0 DoOrth=F DoCkMO=F.
 Leave Link  401 at Fri Feb 17 21:42:30 2023, MaxMem=  6710886400 cpu:               5.6 elap:               0.3
 (Enter /data0/home/software/g16/l502.exe)
 Keep R1 ints in memory in canonical form, NReq=98807049.
 FoFCou: FMM=F IPFlag=           0 FMFlag=           0 FMFlg1=           0
         NFxFlg=           0 DoJE=F BraDBF=F KetDBF=F FulRan=T
         wScrn=  0.000000 ICntrl=       600 IOpCl=  0 I1Cent=           0 NGrid=           0
         NMat0=    1 NMatS0=  12246 NMatT0=    0 NMatD0=    1 NMtDS0=    0 NMtDT0=    0
 Symmetry not used in FoFCou.
 Two-electron integral symmetry not used.
 Closed shell SCF:
 Using DIIS extrapolation, IDIIS=  1040.
 NGot=  6710886400 LenX=  6635838975 LenY=  6635811638
 Requested convergence on RMS density matrix=1.00D-08 within 128 cycles.
 Requested convergence on MAX density matrix=1.00D-06.
 Requested convergence on             energy=1.00D-06.
 No special actions if energy rises.
 Integral accuracy reduced to 1.0D-05 until final iterations.

 Cycle   1  Pass 0  IDiag  1:
 E= -76.3466018922901    
 DIIS: error= 3.78D-02 at cycle   1 NSaved=   1.
 NSaved= 1 IEnMin= 1 EnMin= -76.3466018922901     IErMin= 1 ErrMin= 3.78D-02
 ErrMax= 3.78D-02  0.00D+00 EMaxC= 1.00D-01 BMatC= 1.21D-01 BMatP= 1.21D-01
 IDIUse=3 WtCom= 6.22D-01 WtEn= 3.78D-01
 Coeff-Com:  0.100D+01
 Coeff-En:   0.100D+01
 Coeff:      0.100D+01
 Gap=     0.290 Goal=   None    Shift=    0.000
 GapD=    0.290 DampG=1.000 DampE=0.500 DampFc=0.5000 IDamp=-1.
 Damping current iteration by 5.00D-01
 RMSDP=2.15D-03 MaxDP=1.01D-01              OVMax= 1.70D-01

 Cycle   2  Pass 0  IDiag  1:
 E= -76.3780396602244     Delta-E=       -0.031437767934 Rises=F Damp=T
 DIIS: error= 5.87D-03 at cycle   2 NSaved=   2.
 NSaved= 2 IEnMin= 2 EnMin= -76.3780396602244     IErMin= 2 ErrMin= 5.87D-03
 ErrMax= 5.87D-03  0.00D+00 EMaxC= 1.00D-01 BMatC= 4.87D-03 BMatP= 1.21D-01
 IDIUse=3 WtCom= 9.41D-01 WtEn= 5.87D-02
 Coeff-Com:  0.826D-01 0.917D+00
 Coeff-En:   0.189D+00 0.811D+00
 Coeff:      0.889D-01 0.911D+00
 Gap=     0.416 Goal=   None    Shift=    0.000
 RMSDP=2.74D-04 MaxDP=1.43D-02 DE=-3.14D-02 OVMax= 1.02D-01

 Cycle   3  Pass 0  IDiag  1:
 E= -76.4221615381431     Delta-E=       -0.044121877919 Rises=F Damp=F
 DIIS: error= 1.29D-03 at cycle   3 NSaved=   3.
 NSaved= 3 IEnMin= 3 EnMin= -76.4221615381431     IErMin= 3 ErrMin= 1.29D-03
 ErrMax= 1.29D-03  0.00D+00 EMaxC= 1.00D-01 BMatC= 1.46D-04 BMatP= 4.87D-03
 IDIUse=3 WtCom= 9.87D-01 WtEn= 1.29D-02
 Coeff-Com: -0.269D-01 0.515D-01 0.975D+00
 Coeff-En:   0.000D+00 0.000D+00 0.100D+01
 Coeff:     -0.265D-01 0.508D-01 0.976D+00
 Gap=     0.418 Goal=   None    Shift=    0.000
 RMSDP=4.00D-05 MaxDP=1.19D-03 DE=-4.41D-02 OVMax= 3.84D-03

 Cycle   4  Pass 0  IDiag  1:
 E= -76.4222784342152     Delta-E=       -0.000116896072 Rises=F Damp=F
 DIIS: error= 2.04D-04 at cycle   4 NSaved=   4.
 NSaved= 4 IEnMin= 4 EnMin= -76.4222784342152     IErMin= 4 ErrMin= 2.04D-04
 ErrMax= 2.04D-04  0.00D+00 EMaxC= 1.00D-01 BMatC= 2.95D-06 BMatP= 1.46D-04
 IDIUse=3 WtCom= 9.98D-01 WtEn= 2.04D-03
 Coeff-Com: -0.308D-02 0.346D-03 0.155D+00 0.847D+00
 Coeff-En:   0.000D+00 0.000D+00 0.000D+00 0.100D+01
 Coeff:     -0.308D-02 0.345D-03 0.155D+00 0.848D+00
 Gap=     0.419 Goal=   None    Shift=    0.000
 RMSDP=5.96D-06 MaxDP=3.28D-04 DE=-1.17D-04 OVMax= 5.14D-04

 Initial convergence to 1.0D-05 achieved.  Increase integral accuracy.
 Cycle   5  Pass 1  IDiag  1:
 E= -76.4222742069420     Delta-E=        0.000004227273 Rises=F Damp=F
 DIIS: error= 4.45D-05 at cycle   1 NSaved=   1.
 NSaved= 1 IEnMin= 1 EnMin= -76.4222742069420     IErMin= 1 ErrMin= 4.45D-05
 ErrMax= 4.45D-05  0.00D+00 EMaxC= 1.00D-01 BMatC= 8.41D-08 BMatP= 8.41D-08
 IDIUse=1 WtCom= 1.00D+00 WtEn= 0.00D+00
 Coeff-Com:  0.100D+01
 Coeff:      0.100D+01
 Gap=     0.419 Goal=   None    Shift=    0.000
 RMSDP=5.96D-06 MaxDP=3.28D-04 DE= 4.23D-06 OVMax= 2.17D-04

 Cycle   6  Pass 1  IDiag  1:
 E= -76.4222743056892     Delta-E=       -0.000000098747 Rises=F Damp=F
 DIIS: error= 1.75D-05 at cycle   2 NSaved=   2.
 NSaved= 2 IEnMin= 2 EnMin= -76.4222743056892     IErMin= 2 ErrMin= 1.75D-05
 ErrMax= 1.75D-05  0.00D+00 EMaxC= 1.00D-01 BMatC= 5.08D-08 BMatP= 8.41D-08
 IDIUse=1 WtCom= 1.00D+00 WtEn= 0.00D+00
 Coeff-Com:  0.415D+00 0.585D+00
 Coeff:      0.415D+00 0.585D+00
 Gap=     0.419 Goal=   None    Shift=    0.000
 RMSDP=7.97D-07 MaxDP=4.24D-05 DE=-9.87D-08 OVMax= 7.52D-05

 Cycle   7  Pass 1  IDiag  1:
 E= -76.4222743393441     Delta-E=       -0.000000033655 Rises=F Damp=F
 DIIS: error= 1.20D-05 at cycle   3 NSaved=   3.
 NSaved= 3 IEnMin= 3 EnMin= -76.4222743393441     IErMin= 3 ErrMin= 1.20D-05
 ErrMax= 1.20D-05  0.00D+00 EMaxC= 1.00D-01 BMatC= 4.86D-09 BMatP= 5.08D-08
 IDIUse=1 WtCom= 1.00D+00 WtEn= 0.00D+00
 Coeff-Com: -0.127D+00 0.158D+00 0.968D+00
 Coeff:     -0.127D+00 0.158D+00 0.968D+00
 Gap=     0.419 Goal=   None    Shift=    0.000
 RMSDP=4.84D-07 MaxDP=1.92D-05 DE=-3.37D-08 OVMax= 4.11D-05

 Cycle   8  Pass 1  IDiag  1:
 E= -76.4222743443492     Delta-E=       -0.000000005005 Rises=F Damp=F
 DIIS: error= 1.28D-06 at cycle   4 NSaved=   4.
 NSaved= 4 IEnMin= 4 EnMin= -76.4222743443492     IErMin= 4 ErrMin= 1.28D-06
 ErrMax= 1.28D-06  0.00D+00 EMaxC= 1.00D-01 BMatC= 6.71D-11 BMatP= 4.86D-09
 IDIUse=1 WtCom= 1.00D+00 WtEn= 0.00D+00
 Coeff-Com: -0.350D-01 0.114D-01 0.173D+00 0.850D+00
 Coeff:     -0.350D-01 0.114D-01 0.173D+00 0.850D+00
 Gap=     0.419 Goal=   None    Shift=    0.000
 RMSDP=5.43D-08 MaxDP=2.00D-06 DE=-5.01D-09 OVMax= 4.90D-06

 Cycle   9  Pass 1  IDiag  1:
 E= -76.4222743444277     Delta-E=       -0.000000000078 Rises=F Damp=F
 DIIS: error= 1.75D-07 at cycle   5 NSaved=   5.
 NSaved= 5 IEnMin= 5 EnMin= -76.4222743444277     IErMin= 5 ErrMin= 1.75D-07
 ErrMax= 1.75D-07  0.00D+00 EMaxC= 1.00D-01 BMatC= 1.19D-12 BMatP= 6.71D-11
 IDIUse=1 WtCom= 1.00D+00 WtEn= 0.00D+00
 Coeff-Com:  0.639D-02-0.589D-02-0.463D-01-0.114D+00 0.116D+01
 Coeff:      0.639D-02-0.589D-02-0.463D-01-0.114D+00 0.116D+01
 Gap=     0.419 Goal=   None    Shift=    0.000
 RMSDP=1.44D-08 MaxDP=5.56D-07 DE=-7.85D-11 OVMax= 1.42D-06

 Cycle  10  Pass 1  IDiag  1:
 E= -76.4222743444309     Delta-E=       -0.000000000003 Rises=F Damp=F
 DIIS: error= 1.05D-08 at cycle   6 NSaved=   6.
 NSaved= 6 IEnMin= 6 EnMin= -76.4222743444309     IErMin= 6 ErrMin= 1.05D-08
 ErrMax= 1.05D-08  0.00D+00 EMaxC= 1.00D-01 BMatC= 1.62D-14 BMatP= 1.19D-12
 IDIUse=1 WtCom= 1.00D+00 WtEn= 0.00D+00
 Coeff-Com: -0.901D-03 0.126D-02 0.771D-02 0.841D-02-0.220D+00 0.120D+01
 Coeff:     -0.901D-03 0.126D-02 0.771D-02 0.841D-02-0.220D+00 0.120D+01
 Gap=     0.419 Goal=   None    Shift=    0.000
 RMSDP=1.71D-09 MaxDP=4.72D-08 DE=-3.18D-12 OVMax= 1.38D-07

 SCF Done:  E(RM062X) =  -76.4222743444     A.U. after   10 cycles
            NFock= 10  Conv=0.17D-08     -V/T= 2.0029
 KE= 7.620003207600D+01 PE=-1.990992141413D+02 EE= 3.735300536649D+01
 Leave Link  502 at Fri Feb 17 21:42:33 2023, MaxMem=  6710886400 cpu:              60.1 elap:               3.4
 (Enter /data0/home/software/g16/l601.exe)
 Copying SCF densities to generalized density rwf, IOpCl= 0 IROHF=0.

 **********************************************************************

            Population analysis using the SCF density.

 **********************************************************************

 Alpha  occ. eigenvalues --  -19.62577  -1.13421  -0.60946  -0.47468  -0.40007
 Alpha virt. eigenvalues --    0.01891   0.07658   0.08807   0.10511   0.11701
 Alpha virt. eigenvalues --    0.13935   0.15493   0.16690   0.17454   0.18051
 Alpha virt. eigenvalues --    0.18868   0.19347   0.20083   0.21584   0.23573
 Alpha virt. eigenvalues --    0.24416   0.27621   0.28841   0.29813   0.30505
 Alpha virt. eigenvalues --    0.30970   0.32980   0.35168   0.38982   0.53055
 Alpha virt. eigenvalues --    0.55866   0.57863   0.60968   0.63662   0.71853
 Alpha virt. eigenvalues --    0.77021   0.77869   0.78562   0.79403   0.79713
 Alpha virt. eigenvalues --    0.80794   0.81926   0.87645   1.00243   1.00560
 Alpha virt. eigenvalues --    1.02079   1.02659   1.06807   1.07872   1.09425
 Alpha virt. eigenvalues --    1.11919   1.20903   1.21419   1.22703   1.33939
 Alpha virt. eigenvalues --    1.39253   1.67831   1.70279   1.74499   1.75498
 Alpha virt. eigenvalues --    1.79486   1.82444   1.87701   1.87808   1.88074
 Alpha virt. eigenvalues --    1.96597   2.04638   2.05829   2.08937   2.09739
 Alpha virt. eigenvalues --    2.18980   2.20282   2.22724   2.27398   2.30807
 Alpha virt. eigenvalues --    2.31754   2.38790   2.45165   2.46593   2.49525
 Alpha virt. eigenvalues --    2.51443   2.53066   2.54191   2.55638   2.58779
 Alpha virt. eigenvalues --    2.59631   2.62127   2.66695   2.68692   2.71234
 Alpha virt. eigenvalues --    2.71281   2.73733   2.74001   2.76299   2.76526
 Alpha virt. eigenvalues --    2.82717   2.88531   2.93006   2.98783   3.00279
 Alpha virt. eigenvalues --    3.02661   3.07803   3.08715   3.13480   3.19402
 Alpha virt. eigenvalues --    3.49692   3.58784   3.59975   3.62946   3.63997
 Alpha virt. eigenvalues --    3.75022   4.56029   4.61737   4.66524   5.07245
 Alpha virt. eigenvalues --    5.14943   5.21634   5.23101   5.49378   5.97012
 Alpha virt. eigenvalues --    6.78457   6.80634   6.89485   6.91836   7.12202
 Alpha virt. eigenvalues --    9.80790   9.85300   9.90668   9.96073  10.11536
 Alpha virt. eigenvalues --   10.20488  10.23915  10.23992  10.26694  10.33495
 Alpha virt. eigenvalues --   10.33581  10.39889  10.46432  10.50342  10.56775
 Alpha virt. eigenvalues --   12.89575  13.27241  13.37302  13.37579  13.72624
 Alpha virt. eigenvalues --   13.77538  13.78748  14.18960  14.23721  17.72853
 Alpha virt. eigenvalues --   18.32653  18.35865  49.98490 136.26958 139.60535
 Alpha virt. eigenvalues --  139.71354
          Condensed to atoms (all electrons):
               1          2          3          4          5          6
     1  O    0.012144  -0.003961  -0.007354   0.001594  -0.000574  -0.000400
     2  H   -0.003961   0.003281   0.001157  -0.001930   0.000673   0.000559
     3  H   -0.007354   0.001157   0.006044  -0.000054   0.000054  -0.000061
     4  O    0.001594  -0.001930  -0.000054   0.003683  -0.001365  -0.001618
     5  H   -0.000574   0.000673   0.000054  -0.001365   0.000658   0.000463
     6  H   -0.000400   0.000559  -0.000061  -0.001618   0.000463   0.000955
     7  O    0.013381  -0.001337  -0.001076   0.002103  -0.000451  -0.000504
     8  H   -0.000658   0.000610   0.000377  -0.000252   0.000073   0.000020
     9  H    0.002107   0.001286   0.001371  -0.000275   0.000089   0.000025
    10  O    0.000000  -0.000000  -0.000000   0.000001  -0.000001  -0.000000
    11  H    0.000000   0.000000   0.000000  -0.000000   0.000000   0.000000
    12  H    0.000001   0.000000   0.000000  -0.000000   0.000000  -0.000000
               7          8          9         10         11         12
     1  O    0.013381  -0.000658   0.002107   0.000000   0.000000   0.000001
     2  H   -0.001337   0.000610   0.001286  -0.000000   0.000000   0.000000
     3  H   -0.001076   0.000377   0.001371  -0.000000   0.000000   0.000000
     4  O    0.002103  -0.000252  -0.000275   0.000001  -0.000000  -0.000000
     5  H   -0.000451   0.000073   0.000089  -0.000001   0.000000   0.000000
     6  H   -0.000504   0.000020   0.000025  -0.000000   0.000000  -0.000000
     7  O    7.975559   0.306682   0.301926   0.000011  -0.000000   0.000037
     8  H    0.306682   0.437011  -0.021588  -0.000009   0.000001   0.000017
     9  H    0.301926  -0.021588   0.378359  -0.000002   0.000000   0.000001
    10  O    0.000011  -0.000009  -0.000002   0.000015  -0.000003  -0.000012
    11  H   -0.000000   0.000001   0.000000  -0.000003   0.000002   0.000001
    12  H    0.000037   0.000017   0.000001  -0.000012   0.000001   0.000016
 Mulliken charges:
               1
     1  O   -0.016281
     2  H   -0.000338
     3  H   -0.000457
     4  O   -0.001888
     5  H    0.000382
     6  H    0.000560
     7  O   -0.596331
     8  H    0.277715
     9  H    0.336701
    10  O   -0.000001
    11  H   -0.000001
    12  H   -0.000061
 Sum of Mulliken charges =  -0.00000
 Mulliken charges with hydrogens summed into heavy atoms:
               1
     1  O   -0.017076
     4  O   -0.000946
     7  O    0.018084
    10  O   -0.000062
         Mulliken charges condensed to fragments:
      1     -0.017076
      2     -0.000946
      3      0.018084
      4     -0.000062
 Electronic spatial extent (au):  <R**2>=           6855.7153
 Charge=             -0.0000 electrons
 Dipole moment (field-independent basis, Debye):
    X=             -1.6646    Y=             -0.7681    Z=              0.9713  Tot=              2.0746
 Quadrupole moment (field-independent basis, Debye-Ang):
   XX=            -26.7698   YY=            -16.5893   ZZ=             12.0683
   XY=            -18.0069   XZ=            -10.4967   YZ=             -1.4549
 Traceless Quadrupole moment (field-independent basis, Debye-Ang):
   XX=            -16.3395   YY=             -6.1590   ZZ=             22.4986
   XY=            -18.0069   XZ=            -10.4967   YZ=             -1.4549
 Octapole moment (field-independent basis, Debye-Ang**2):
  XXX=           -308.4139  YYY=           -242.1328  ZZZ=             72.9590  XYY=           -208.3608
[...]
            NFock= 11  Conv=0.23D-08     -V/T= 2.0029
 KE= 7.620288341124D+01 PE=-1.991029873275D+02 EE= 3.735421355757D+01
 Leave Link  502 at Fri Feb 17 21:42:41 2023, MaxMem=  6710886400 cpu:               8.8 elap:               0.4
 (Enter /data0/home/software/g16/l601.exe)
 Copying SCF densities to generalized density rwf, IOpCl= 0 IROHF=0.

 **********************************************************************

            Population analysis using the SCF density.

 **********************************************************************

 Alpha  occ. eigenvalues --  -19.62548  -1.13414  -0.60940  -0.47449  -0.39992
 Alpha virt. eigenvalues --    0.06331   0.13357   0.17383   0.17946   0.18944
 Alpha virt. eigenvalues --    0.23232   0.51539   0.53353   0.97849   1.00152
 Alpha virt. eigenvalues --    1.06049   1.18806   1.19892   1.32570   1.33759
 Alpha virt. eigenvalues --    1.69605   1.74205   1.75899   2.08398   2.08934
 Alpha virt. eigenvalues --    2.35290   2.42581   2.54387   2.88958   3.01261
 Alpha virt. eigenvalues --    5.05703   5.48017   5.93636   6.78228   6.80296
 Alpha virt. eigenvalues --    6.87014   6.91523   7.09424  49.96066
          Condensed to atoms (all electrons):
               7          8          9
     7  O    7.913582   0.322411   0.321375
     8  H    0.322411   0.424042  -0.024667
     9  H    0.321375  -0.024667   0.424137
 Mulliken charges:
               1
     1  O    0.000000
     2  H    0.000000
     3  H    0.000000
     4  O    0.000000
     5  H    0.000000
     6  H    0.000000
     7  O   -0.557368
     8  H    0.278214
     9  H    0.279154
    10  O    0.000000
    11  H    0.000000
    12  H    0.000000
 Sum of Mulliken charges =  -0.00000
 Mulliken charges with hydrogens summed into heavy atoms:
               1
     1  O    0.000000
     4  O    0.000000
     7  O   -0.000000
    10  O    0.000000
         Mulliken charges condensed to fragments:
      1      0.000000
      2      0.000000
      3     -0.000000
      4      0.000000
 Electronic spatial extent (au):  <R**2>=           6855.8112
 Charge=             -0.0000 electrons
 Dipole moment (field-independent basis, Debye):
    X=             -1.7006    Y=             -0.7639    Z=              0.9826  Tot=              2.1074
 Quadrupole moment (field-independent basis, Debye-Ang):
   XX=            -27.1858   YY=            -16.5243   ZZ=             12.2903
   XY=            -18.2596   XZ=            -10.7907   YZ=             -1.3256
 Traceless Quadrupole moment (field-independent basis, Debye-Ang):
   XX=            -16.7125   YY=             -6.0510   ZZ=             22.7635
   XY=            -18.2596   XZ=            -10.7907   YZ=             -1.3256
 Octapole moment (field-independent basis, Debye-Ang**2):
  XXX=           -312.1286  YYY=           -241.3497  ZZZ=             76.2679  XYY=           -210.1453
  XXY=           -241.4309  XXZ=           -231.9225  XZZ=            -92.0226  YZZ=             -4.3063
  YYZ=           -124.4038  XYZ=           -142.5533
 Hexadecapole moment (field-independent basis, Debye-Ang**3):
 XXXX=          -3099.2729 YYYY=          -2959.4550 ZZZZ=           -400.8308 XXXY=          -2586.3850
 XXXZ=          -2860.8525 YYYX=          -2354.6726 YYYZ=          -2146.3747 ZZZX=          -1209.3448
 ZZZY=           -478.1632 XXYY=          -2295.8975 XXZZ=          -2213.3426 YYZZ=          -1236.8005
 XXYZ=          -2155.7969 YYXZ=          -1841.5562 ZZXY=          -1365.6315
 N-N= 9.123902354324D+00 E-N=-1.991029875127D+02  KE= 7.620288341124D+01
 No NMR shielding tensors so no spin-rotation constants.
 Leave Link  601 at Fri Feb 17 21:42:41 2023, MaxMem=  6710886400 cpu:               1.7 elap:               0.1
 (Enter /data0/home/software/g16/l122.exe)
 CPIOFr:  IOpCl= 0 IRwI=-1 IRwCP=  731 ICalc=  7 LCPTot=       39484 Len1MO=      101070 IndFrg=      848044
 Counterpoise: doing calculation for fragment   4 using the basis set of the fragment.
 Leave Link  122 at Fri Feb 17 21:42:41 2023, MaxMem=  6710886400 cpu:               0.1 elap:               0.0
 (Enter /data0/home/software/g16/l301.exe)
 Basis read from rwf:  (5D, 7F)
 No pseudopotential information found on rwf file.
    39 basis functions,    58 primitive gaussians,    41 cartesian basis functions
     5 alpha electrons        5 beta electrons
       nuclear repulsion energy         9.0304996962 Hartrees.
 IExCor= 4336 DFT=T Ex+Corr=M062X ExCW=0 ScaHFX=  0.540000
 ScaDFX=  1.000000  1.000000  1.000000  1.000000 ScalE2=  1.000000  1.000000
 IRadAn=      5 IRanWt=     -1 IRanGd=            0 ICorTp=0 IEmpDi=131
 NAtoms=   12 NActive=    3 NUniq=    3 SFac= 1.00D+00 NAtFMM=   60 NAOKFM=F Big=F
 Integral buffers will be    131072 words long.
 Raffenetti 2 integral format.
 Two-electron integral symmetry is turned off.
 R6Disp:  Grimme-D3 Dispersion energy=       -0.0000000077 Hartrees.
 Nuclear repulsion after empirical dispersion term =        9.0304996885 Hartrees.
 No density basis found on file   718.
 Leave Link  301 at Fri Feb 17 21:42:41 2023, MaxMem=  6710886400 cpu:               1.1 elap:               0.1
 (Enter /data0/home/software/g16/l302.exe)
 NPDir=0 NMtPBC=     1 NCelOv=     1 NCel=       1 NClECP=     1 NCelD=      1
         NCelK=      1 NCelE2=     1 NClLst=     1 CellRange=     0.0.
 One-electron integrals computed using PRISM.
 NBasis=    39 RedAO= T EigKep=  3.08D-03  NBF=    39
 NBsUse=    39 1.00D-06 EigRej= -1.00D+00 NBFU=    39
 Precomputing XC quadrature grid using
 IXCGrd= 4 IRadAn=           5 IRanWt=          -1 IRanGd=           0 AccXCQ= 0.00D+00.
 Generated NRdTot=       0 NPtTot=           0 NUsed=           0 NTot=          32
 NSgBfM=    41    41    41    41    41 MxSgAt=     3 MxSgA2=     3.
 Leave Link  302 at Fri Feb 17 21:42:41 2023, MaxMem=  6710886400 cpu:               2.2 elap:               0.1
 (Enter /data0/home/software/g16/l303.exe)
 DipDrv:  MaxL=1.
 Leave Link  303 at Fri Feb 17 21:42:41 2023, MaxMem=  6710886400 cpu:               0.4 elap:               0.0
 (Enter /data0/home/software/g16/l401.exe)
 ExpMin= 8.45D-02 ExpMax= 8.59D+03 ExpMxC= 1.30D+03 IAcc=3 IRadAn=         5 AccDes= 0.00D+00
 Harris functional with IExCor= 1009 and IRadAn=       5 diagonalized for initial guess.
 HarFok:  IExCor= 1009 AccDes= 0.00D+00 IRadAn=         5 IDoV= 1 UseB2=F ITyADJ=14
 ICtDFT=  3500011 ScaDFX=  1.000000  1.000000  1.000000  1.000000
 FoFCou: FMM=F IPFlag=           0 FMFlag=      100000 FMFlg1=           0
         NFxFlg=           0 DoJE=T BraDBF=F KetDBF=T FulRan=T
         wScrn=  0.000000 ICntrl=       500 IOpCl=  0 I1Cent=   200000004 NGrid=           0
         NMat0=    1 NMatS0=      1 NMatT0=    0 NMatD0=    1 NMtDS0=    0 NMtDT0=    0
 Symmetry not used in FoFCou.
 Harris En= -76.4151777742186    
 JPrj=0 DoOrth=F DoCkMO=F.
 Leave Link  401 at Fri Feb 17 21:42:41 2023, MaxMem=  6710886400 cpu:               2.9 elap:               0.1
 (Enter /data0/home/software/g16/l502.exe)
 Keep R1 ints in memory in canonical form, NReq=21037269.
 FoFCou: FMM=F IPFlag=           0 FMFlag=           0 FMFlg1=           0
         NFxFlg=           0 DoJE=F BraDBF=F KetDBF=F FulRan=T
         wScrn=  0.000000 ICntrl=       600 IOpCl=  0 I1Cent=           0 NGrid=           0
         NMat0=    1 NMatS0=    780 NMatT0=    0 NMatD0=    1 NMtDS0=    0 NMtDT0=    0
 Symmetry not used in FoFCou.
 Two-electron integral symmetry not used.
 Closed shell SCF:
 Using DIIS extrapolation, IDIIS=  1040.
 NGot=  6710886400 LenX=  6710576763 LenY=  6710574641
 Requested convergence on RMS density matrix=1.00D-08 within 128 cycles.
 Requested convergence on MAX density matrix=1.00D-06.
 Requested convergence on             energy=1.00D-06.
 No special actions if energy rises.
 Integral accuracy reduced to 1.0D-05 until final iterations.

 Cycle   1  Pass 0  IDiag  1:
 E= -76.3463129084753    
 DIIS: error= 6.92D-02 at cycle   1 NSaved=   1.
 NSaved= 1 IEnMin= 1 EnMin= -76.3463129084753     IErMin= 1 ErrMin= 6.92D-02
 ErrMax= 6.92D-02  0.00D+00 EMaxC= 1.00D-01 BMatC= 1.19D-01 BMatP= 1.19D-01
 IDIUse=3 WtCom= 3.08D-01 WtEn= 6.92D-01
 Coeff-Com:  0.100D+01
 Coeff-En:   0.100D+01
 Coeff:      0.100D+01
 Gap=     0.323 Goal=   None    Shift=    0.000
 GapD=    0.323 DampG=1.000 DampE=0.500 DampFc=0.5000 IDamp=-1.
 Damping current iteration by 5.00D-01
 RMSDP=7.98D-03 MaxDP=9.97D-02              OVMax= 1.67D-01

 Cycle   2  Pass 0  IDiag  1:
 E= -76.3771251846641     Delta-E=       -0.030812276189 Rises=F Damp=T
 DIIS: error= 1.09D-02 at cycle   2 NSaved=   2.
 NSaved= 2 IEnMin= 2 EnMin= -76.3771251846641     IErMin= 2 ErrMin= 1.09D-02
 ErrMax= 1.09D-02  0.00D+00 EMaxC= 1.00D-01 BMatC= 4.95D-03 BMatP= 1.19D-01
 IDIUse=3 WtCom= 8.91D-01 WtEn= 1.09D-01
 Coeff-Com:  0.866D-01 0.913D+00
 Coeff-En:   0.194D+00 0.806D+00
 Coeff:      0.983D-01 0.902D+00
 Gap=     0.455 Goal=   None    Shift=    0.000
 RMSDP=9.66D-04 MaxDP=1.44D-02 DE=-3.08D-02 OVMax= 1.00D-01

 Cycle   3  Pass 0  IDiag  1:
 E= -76.4208458810393     Delta-E=       -0.043720696375 Rises=F Damp=F
 DIIS: error= 2.20D-03 at cycle   3 NSaved=   3.
 NSaved= 3 IEnMin= 3 EnMin= -76.4208458810393     IErMin= 3 ErrMin= 2.20D-03
 ErrMax= 2.20D-03  0.00D+00 EMaxC= 1.00D-01 BMatC= 9.43D-05 BMatP= 4.95D-03
 IDIUse=3 WtCom= 9.78D-01 WtEn= 2.20D-02
 Coeff-Com: -0.201D-01 0.408D-01 0.979D+00
 Coeff-En:   0.000D+00 0.000D+00 0.100D+01
 Coeff:     -0.197D-01 0.399D-01 0.980D+00
 Gap=     0.459 Goal=   None    Shift=    0.000
 RMSDP=1.17D-04 MaxDP=9.57D-04 DE=-4.37D-02 OVMax= 3.39D-03

 Cycle   4  Pass 0  IDiag  1:
 E= -76.4209264161669     Delta-E=       -0.000080535128 Rises=F Damp=F
 DIIS: error= 4.26D-04 at cycle   4 NSaved=   4.
 NSaved= 4 IEnMin= 4 EnMin= -76.4209264161669     IErMin= 4 ErrMin= 4.26D-04
 ErrMax= 4.26D-04  0.00D+00 EMaxC= 1.00D-01 BMatC= 3.45D-06 BMatP= 9.43D-05
 IDIUse=3 WtCom= 9.96D-01 WtEn= 4.26D-03
 Coeff-Com: -0.203D-02-0.220D-02 0.165D+00 0.840D+00
 Coeff-En:   0.000D+00 0.000D+00 0.000D+00 0.100D+01
 Coeff:     -0.203D-02-0.219D-02 0.164D+00 0.840D+00
 Gap=     0.460 Goal=   None    Shift=    0.000
 RMSDP=2.26D-05 MaxDP=3.60D-04 DE=-8.05D-05 OVMax= 5.54D-04

 Cycle   5  Pass 0  IDiag  1:
 E= -76.4209285580151     Delta-E=       -0.000002141848 Rises=F Damp=F
 DIIS: error= 9.26D-05 at cycle   5 NSaved=   5.
 NSaved= 5 IEnMin= 5 EnMin= -76.4209285580151     IErMin= 5 ErrMin= 9.26D-05
 ErrMax= 9.26D-05  0.00D+00 EMaxC= 1.00D-01 BMatC= 8.80D-08 BMatP= 3.45D-06
 IDIUse=1 WtCom= 1.00D+00 WtEn= 0.00D+00
 Coeff-Com:  0.122D-02-0.186D-02-0.376D-01-0.689D-01 0.111D+01
 Coeff:      0.122D-02-0.186D-02-0.376D-01-0.689D-01 0.111D+01
 Gap=     0.460 Goal=   None    Shift=    0.000
 RMSDP=9.30D-06 MaxDP=1.04D-04 DE=-2.14D-06 OVMax= 2.13D-04

 Initial convergence to 1.0D-05 achieved.  Increase integral accuracy.
 Cycle   6  Pass 1  IDiag  1:
 E= -76.4209327696008     Delta-E=       -0.000004211586 Rises=F Damp=F
 DIIS: error= 1.86D-05 at cycle   1 NSaved=   1.
 NSaved= 1 IEnMin= 1 EnMin= -76.4209327696008     IErMin= 1 ErrMin= 1.86D-05
 ErrMax= 1.86D-05  0.00D+00 EMaxC= 1.00D-01 BMatC= 1.35D-08 BMatP= 1.35D-08
 IDIUse=1 WtCom= 1.00D+00 WtEn= 0.00D+00
 Coeff-Com:  0.100D+01
 Coeff:      0.100D+01
 Gap=     0.460 Goal=   None    Shift=    0.000
 RMSDP=9.30D-06 MaxDP=1.04D-04 DE=-4.21D-06 OVMax= 3.72D-05

 Cycle   7  Pass 1  IDiag  1:
 E= -76.4209327807462     Delta-E=       -0.000000011145 Rises=F Damp=F
 DIIS: error= 1.04D-05 at cycle   2 NSaved=   2.
 NSaved= 2 IEnMin= 2 EnMin= -76.4209327807462     IErMin= 2 ErrMin= 1.04D-05
 ErrMax= 1.04D-05  0.00D+00 EMaxC= 1.00D-01 BMatC= 1.53D-09 BMatP= 1.35D-08
 IDIUse=1 WtCom= 1.00D+00 WtEn= 0.00D+00
 Coeff-Com:  0.113D+00 0.887D+00
 Coeff:      0.113D+00 0.887D+00
 Gap=     0.460 Goal=   None    Shift=    0.000
 RMSDP=8.36D-07 MaxDP=1.16D-05 DE=-1.11D-08 OVMax= 2.13D-05

 Cycle   8  Pass 1  IDiag  1:
 E= -76.4209327811285     Delta-E=       -0.000000000382 Rises=F Damp=F
 DIIS: error= 6.69D-06 at cycle   3 NSaved=   3.
 NSaved= 3 IEnMin= 3 EnMin= -76.4209327811285     IErMin= 3 ErrMin= 6.69D-06
 ErrMax= 6.69D-06  0.00D+00 EMaxC= 1.00D-01 BMatC= 1.22D-09 BMatP= 1.53D-09
 IDIUse=1 WtCom= 1.00D+00 WtEn= 0.00D+00
 Coeff-Com: -0.519D-01 0.478D+00 0.574D+00
 Coeff:     -0.519D-01 0.478D+00 0.574D+00
 Gap=     0.460 Goal=   None    Shift=    0.000
 RMSDP=4.13D-07 MaxDP=5.52D-06 DE=-3.82D-10 OVMax= 9.17D-06

 Cycle   9  Pass 1  IDiag  1:
 E= -76.4209327819361     Delta-E=       -0.000000000808 Rises=F Damp=F
 DIIS: error= 6.86D-07 at cycle   4 NSaved=   4.
 NSaved= 4 IEnMin= 4 EnMin= -76.4209327819361     IErMin= 4 ErrMin= 6.86D-07
 ErrMax= 6.86D-07  0.00D+00 EMaxC= 1.00D-01 BMatC= 5.22D-12 BMatP= 1.22D-09
 IDIUse=1 WtCom= 1.00D+00 WtEn= 0.00D+00
 Coeff-Com: -0.760D-02 0.208D-01 0.597D-01 0.927D+00
 Coeff:     -0.760D-02 0.208D-01 0.597D-01 0.927D+00
 Gap=     0.460 Goal=   None    Shift=    0.000
 RMSDP=6.27D-08 MaxDP=3.91D-07 DE=-8.08D-10 OVMax= 1.37D-06

 Cycle  10  Pass 1  IDiag  1:
 E= -76.4209327819427     Delta-E=       -0.000000000007 Rises=F Damp=F
 DIIS: error= 1.01D-07 at cycle   5 NSaved=   5.
 NSaved= 5 IEnMin= 5 EnMin= -76.4209327819427     IErMin= 5 ErrMin= 1.01D-07
 ErrMax= 1.01D-07  0.00D+00 EMaxC= 1.00D-01 BMatC= 2.31D-13 BMatP= 5.22D-12
 IDIUse=1 WtCom= 1.00D+00 WtEn= 0.00D+00
 Coeff-Com:  0.310D-02-0.341D-01-0.383D-01 0.265D-01 0.104D+01
 Coeff:      0.310D-02-0.341D-01-0.383D-01 0.265D-01 0.104D+01
 Gap=     0.460 Goal=   None    Shift=    0.000
 RMSDP=2.76D-08 MaxDP=1.73D-07 DE=-6.58D-12 OVMax= 4.73D-07

 Cycle  11  Pass 1  IDiag  1:
 E= -76.4209327819434     Delta-E=       -0.000000000001 Rises=F Damp=F
 DIIS: error= 9.31D-09 at cycle   6 NSaved=   6.
 NSaved= 6 IEnMin= 6 EnMin= -76.4209327819434     IErMin= 6 ErrMin= 9.31D-09
 ErrMax= 9.31D-09  0.00D+00 EMaxC= 1.00D-01 BMatC= 3.29D-15 BMatP= 2.31D-13
 IDIUse=1 WtCom= 1.00D+00 WtEn= 0.00D+00
 Coeff-Com: -0.168D-05 0.141D-02 0.417D-03-0.183D-01-0.613D-01 0.108D+01
 Coeff:     -0.168D-05 0.141D-02 0.417D-03-0.183D-01-0.613D-01 0.108D+01
 Gap=     0.460 Goal=   None    Shift=    0.000
 RMSDP=3.24D-09 MaxDP=2.05D-08 DE=-6.96D-13 OVMax= 6.12D-08

 SCF Done:  E(RM062X) =  -76.4209327819     A.U. after   11 cycles
            NFock= 11  Conv=0.32D-08     -V/T= 2.0033
 KE= 7.616991373021D+01 PE=-1.988988638702D+02 EE= 3.727751766953D+01
 Leave Link  502 at Fri Feb 17 21:42:41 2023, MaxMem=  6710886400 cpu:               8.8 elap:               0.4
 (Enter /data0/home/software/g16/l601.exe)
 Copying SCF densities to generalized density rwf, IOpCl= 0 IROHF=0.

 **********************************************************************

            Population analysis using the SCF density.

 **********************************************************************

 Alpha  occ. eigenvalues --  -19.62787  -1.13092  -0.60137  -0.47666  -0.39950
 Alpha virt. eigenvalues --    0.06051   0.13194   0.17445   0.17949   0.18899
 Alpha virt. eigenvalues --    0.23471   0.49914   0.53430   0.98188   1.00498
 Alpha virt. eigenvalues --    1.05981   1.17379   1.20012   1.31782   1.34351
 Alpha virt. eigenvalues --    1.70097   1.73724   1.75128   2.06133   2.09796
 Alpha virt. eigenvalues --    2.36160   2.38621   2.54720   2.86430   3.00713
 Alpha virt. eigenvalues --    5.05572   5.47649   5.88315   6.78526   6.80044
 Alpha virt. eigenvalues --    6.87410   6.91526   7.09988  49.94933
          Condensed to atoms (all electrons):
              10         11         12
    10  O    7.924436   0.317946   0.311976
    11  H    0.317946   0.430742  -0.023243
    12  H    0.311976  -0.023243   0.431464
 Mulliken charges:
               1
     1  O    0.000000
     2  H    0.000000
     3  H    0.000000
     4  O    0.000000
     5  H    0.000000
     6  H    0.000000
     7  O    0.000000
     8  H    0.000000
     9  H    0.000000
    10  O   -0.554358
    11  H    0.274555
    12  H    0.279803
 Sum of Mulliken charges =  -0.00000
 Mulliken charges with hydrogens summed into heavy atoms:
               1
     1  O    0.000000
     4  O    0.000000
     7  O    0.000000
    10  O   -0.000000
         Mulliken charges condensed to fragments:
      1      0.000000
      2      0.000000
      3      0.000000
      4     -0.000000
 Electronic spatial extent (au):  <R**2>=          11760.1362
 Charge=             -0.0000 electrons
 Dipole moment (field-independent basis, Debye):
    X=             -2.0684    Y=             -0.5025    Z=             -0.2700  Tot=              2.1456
 Quadrupole moment (field-independent basis, Debye-Ang):
   XX=            -36.8218   YY=            -13.4247   ZZ=            -13.7015
   XY=            -17.6101   XZ=            -33.6694   YZ=             -7.8960
 Traceless Quadrupole moment (field-independent basis, Debye-Ang):
   XX=            -15.5058   YY=              7.8913   ZZ=              7.6145
   XY=            -17.6101   XZ=            -33.6694   YZ=             -7.8960
 Octapole moment (field-independent basis, Debye-Ang**2):
  XXX=           -478.8832  YYY=           -202.4215  ZZZ=           -436.6605  XYY=           -193.1701
  XXY=           -274.5817  XXZ=           -577.1288  XZZ=           -587.1808  YZZ=           -161.3069
  YYZ=           -195.1729  XYZ=           -271.5449
 Hexadecapole moment (field-independent basis, Debye-Ang**3):
 XXXX=          -5436.8497 YYYY=          -2421.0082 ZZZZ=         -11355.6321 XXXY=          -3414.8233
 XXXZ=          -7409.4441 YYYX=          -2135.1404 YYYZ=          -2944.6760 ZZZX=         -10694.8824
 ZZZY=          -3640.5073 XXYY=          -2403.1507 XXZZ=          -9353.2313 YYZZ=          -3087.9475
 XXYZ=          -4211.4120 YYXZ=          -2886.2345 ZZXY=          -4468.5326
 N-N= 9.030499688482D+00 E-N=-1.988988637629D+02  KE= 7.616991373021D+01
 No NMR shielding tensors so no spin-rotation constants.
 Leave Link  601 at Fri Feb 17 21:42:42 2023, MaxMem=  6710886400 cpu:               1.7 elap:               0.1
 (Enter /data0/home/software/g16/l122.exe)
 CPIOFr:  IOpCl= 0 IRwI=-1 IRwCP=  731 ICalc=  8 LCPTot=       39484 Len1MO=      101070 IndFrg=      949114
 Restoring MOs from calculation   1 to rwf.
 CPIOFr:  IOpCl= 0 IRwI=-2 IRwCP=  731 ICalc=  0 LCPTot=       39484 Len1MO=      101070 IndFrg=      140554
 Counterpoise corrected energy =    -305.703457722879
                   BSSE energy =       0.002184145609
              sum of fragments =    -305.685630743685
           complexation energy =     -12.56 kcal/mole (raw)
           complexation energy =     -11.19 kcal/mole (corrected)
 Leave Link  122 at Fri Feb 17 21:42:42 2023, MaxMem=  6710886400 cpu:               0.1 elap:               0.0
 (Enter /data0/home/software/g16/l9999.exe)
 1\1\GINC-LOCALHOST\SP\RM062X\6-311+G(2d,p)\H8O4\WUHANYU\17-Feb-2023\0\
 \#p M062X/6-311+G(2d,p) nosymm em=GD3 counterpoise=4\\Title Card Requi
 red\\0,1\O,0,3.672439,8.510855,10.120425\H,0,3.931973,9.398895,10.4755
 67\H,0,3.11131,8.690845,9.372432\O,0,4.415563,10.897246,11.103081\H,0,
 4.957023,10.522205,11.829021\H,0,5.056042,11.377145,10.573773\O,0,6.34
 0723,7.36789,9.869274\H,0,6.262719,6.534657,10.342832\H,0,5.466309,7.7
 75445,9.944871\O,0,7.500217,6.718414,15.13437\H,0,6.755145,6.986262,15
 .672441\H,0,7.074324,6.158545,14.432774\\Version=ES64L-G16RevA.03\HF=-
 76.4209328\RMSD=3.239e-09\Dipole=-0.974357,0.7531832,0.2527712\Quadrup
 ole=-32.7153838,26.5942139,6.1211699,-4.3414895,-20.3080701,17.1830862
 \PG=C01 [X(H8O4)]\\@


 YE HAVE SOWN MUCH, AND BRING IN LITTLE.
 YE EAT, BUT YE HAVE NOT ENOUGH.
 YE DRINK, BUT YE ARE NOT FILLED WITH DRINK.
 YE CLOTHE YOU, BUT THERE IS NONE WARM.
 AND HE THAT EARNETH WAGES EARNETH WAGES TO PUT
 IT INTO A BAG WITH HOLES.
                                     HAGGAI I,6
 Job cpu time:       0 days  0 hours  7 minutes 21.1 seconds.
 Elapsed time:       0 days  0 hours  0 minutes 25.6 seconds.
 File lengths (MBytes):  RWF=     24 Int=      0 D2E=      0 Chk=     10 Scr=      1
 Normal termination of Gaussian 16 at Fri Feb 17 21:42:42 2023.
