          46
 G =       -0.717653 Gcorr = 0.269883 a.u. Nimag =   0 Frame:     1 Step:     1 Geom:     1
C          10.30792900     10.22841400     11.28128300
C          11.09521400      9.07480200     11.30913100
C          10.71734900      7.97267900     10.53041900
C           9.55729000      8.05287300      9.76162600
C           8.78960900      9.21472700      9.77318900
H          11.33420400      7.06776300     10.51200700
H          10.59851300     11.12897100     11.85453400
H           9.26412400      7.22416600      9.11316000
H           7.86801700      9.30727900      9.17399300
C          12.33421500      9.06498500     12.12569900
H          13.01501000      8.24390600     11.84525500
H          12.92645700      9.98788100     11.97113100
H          12.12593600      8.98028600     13.19995100
N           9.17310700     10.28108800     10.52985000
C           8.34803700     11.51291100     10.52772700
H           7.32016600     11.24480300     10.87629700
H           8.75781400     12.24232300     11.27071500
C           8.27886400     12.16557700      9.13871800
H           8.18338400     11.39861500      8.33907700
H           7.33055200     12.74379400      9.07508400
C           9.46640300     13.08002800      8.85163200
H           9.27450000     13.68993800      7.94688500
H           9.63574300     13.79714700      9.67729600
C          10.71355800     12.23165600      8.61778800
O          10.88765300     11.76088600      7.47879900
O          11.46457400     12.02850800      9.60146800
P          13.06540800      9.19223100      8.21482200
O          11.91894700      8.28215800      8.35487200
O          13.36878500     10.08634800      9.49329000
H          12.66616700     10.88382300      9.52250000
O          14.40946700      8.35845200      8.02814300
H          15.17872000      9.04270700      7.92684500
O          13.03871900     10.17620800      6.97602000
H          12.22504700     10.85822300      7.12020000
O          10.87554200     13.26896700     11.89329300
H          11.13319500     12.87753100     11.01980600
H          11.60374300     13.82366600     12.14034500
O           5.77488800     10.65759600      9.13275200
H           6.05340200     10.29503100      8.27344900
H           4.84553000     10.46107400      9.19185000
O           6.68423500      9.52258300      6.77597600
H           6.57847400      9.94274400      5.92640200
H           7.65115200      9.41352100      6.87846200
O           9.38091600      9.47750700      7.20563200
H           9.85109400     10.33715800      7.17257600
H          10.08836600      8.83648800      7.34006700
          46
 G =       -0.717654 Gcorr = 0.269882 a.u. Nimag =   0 Frame:     2 Step:     2 Geom:     2
C          10.43044100     10.09218400     11.22629100
C          11.19152700      8.92163100     11.18252200
C          10.72667100      7.83400100     10.43095700
C           9.50953300      7.94521700      9.76062800
C           8.77130200      9.12326800      9.84214800
H          11.31971300      6.91612800     10.35656500
H          10.78702400     10.98183400     11.77891000
H           9.14587300      7.12812700      9.13347800
H           7.80597200      9.24040000      9.32119600
C          12.49280500      8.87870200     11.89445300
H          12.37148900      8.79068800     12.98170200
H          13.12974600      8.04506200     11.55446000
H          13.09090400      9.78954500     11.69688400
N           9.23916800     10.17515800     10.57107800
C           8.44420800     11.42447900     10.64440600
H           7.44276700     11.17589700     11.07475800
H           8.92965700     12.13896500     11.35560300
C           8.27572100     12.08951200      9.26981000
H           8.09792700     11.33109300      8.47608700
H           7.33854900     12.68868200      9.28798600
C           9.45581500     12.98013500      8.89152400
H           9.20400400     13.60104000      8.00919300
H           9.70830100     13.68699300      9.70466300
C          10.66015900     12.10645600      8.55092600
O          10.72939400     11.64078900      7.39872100
O          11.48452400     11.87891500      9.46830100
P          12.90462300      9.02005800      7.93769100
O          11.75495500      8.13236700      8.16651200
O          13.33097800      9.89878100      9.19137200
H          12.64998900     10.71032400      9.28303100
O          14.21118300      8.16077400      7.63599500
H          14.98351700      8.83006600      7.47573400
O          12.79626900     10.01297700      6.71037700
H          12.01292800     10.71118100      6.92525400
O          11.11313200     13.11526200     11.80779100
H          11.29051900     12.72527200     10.91396400
H          11.87072500     13.65265600     11.99822500
O           5.74791600     10.63412400      9.46041800
H           5.94717100     10.28059100      8.57566100
H           4.82231100     10.45632800      9.59248800
O           6.43739900      9.52285000      7.01909800
H           6.28103400      9.96496400      6.18872700
H           7.40504300      9.38124600      7.04488700
O           9.15683600      9.39160400      7.23869500
H           9.64284800     10.24057500      7.17318000
H           9.85745200      8.73311500      7.30766800
          46
 G =       -0.716334 Gcorr = 0.270984 a.u. Nimag =   0 Frame:     3 Step:     3 Geom:     3
C          10.25766200     10.05321100     11.28770600
C          11.08124800      8.92471800     11.30720600
C          10.76859900      7.83825400     10.47893700
C           9.63350700      7.90728200      9.67271600
C           8.82557600      9.04126000      9.69893100
H          11.41629600      6.95562300     10.45168800
H          10.50095300     10.94021700     11.89540000
H           9.39174100      7.09291100      8.98617200
H           7.91994900      9.11957000      9.07534800
C          12.28956300      8.92628000     12.16865200
H          12.85735300      9.87161500     12.06617400
H          12.04554300      8.79849800     13.23104300
H          13.00618800      8.13670500     11.88724900
N           9.14577900     10.09415100     10.50162200
C           8.27252600     11.29245300     10.52333600
H           7.25128500     10.97149000     10.85370300
H           8.64930100     12.01818400     11.28713300
C           8.18007900     11.98174000      9.15338100
H           8.12655100     11.23540100      8.33129100
H           7.20645400     12.51781400      9.10322200
C           9.32253200     12.96090400      8.89968300
H           9.12298100     13.56157200      7.99063200
H           9.42883900     13.68486200      9.72998200
C          10.61816300     12.17861800      8.70332700
O          10.87197300     11.76328800      7.55773400
O          11.32077000     11.96590500      9.72015200
P          13.10140700      9.25927600      8.29145300
O          11.98294700      8.30660600      8.35754600
O          13.31939300     10.12414300      9.60709600
H          12.57782900     10.88639900      9.63881500
O          14.48087100      8.47741200      8.13980100
H          15.22889700      9.19012000      8.08950600
O          13.09159900     10.27881100      7.08213100
H          12.24863500     10.92850400      7.21540200
O          10.63393100     13.33519500     11.94330300
H          10.92209200     12.87673400     11.11817700
H          11.33675100     13.93897000     12.14653700
O           5.77522100     10.35065300      9.30916900
H           6.05172300     10.09373700      8.41297700
H           4.86098600     10.09168300      9.36933600
O           6.71263700      9.49989100      6.82496900
H           6.55082000      9.93789100      5.99404500
H           7.68434300      9.39710300      6.86792100
O           9.43836300      9.45249100      7.11200100
H           9.88614500     10.32442800      7.13504700
H          10.15401600      8.82745000      7.27236700
          46
 G =       -0.719105 Gcorr = 0.268320 a.u. Nimag =   0 Frame:     4 Step:     4 Geom:     4
C          10.27425100     10.21368000     11.23982100
C          11.09203300      9.08248400     11.30101800
C          10.75234000      7.95363500     10.54369800
C           9.60048300      7.98700100      9.75869000
C           8.80308300      9.12808900      9.73630500
H          11.39154200      7.06429400     10.55381900
H          10.53340400     11.13295200     11.79830100
H           9.33825600      7.13703900      9.12476000
H           7.88683400      9.18253500      9.12551800
C          12.32318700      9.12517800     12.12835600
H          12.10669800      9.07834000     13.20328000
H          13.02093500      8.30666600     11.88530800
H          12.90002400     10.05236800     11.94322800
N           9.14798500     10.22039300     10.47445400
C           8.28774200     11.42709900     10.43908200
H           7.25799000     11.13130400     10.76670700
H           8.65970600     12.17699400     11.18091300
C           8.22471600     12.06079200      9.04100700
H           8.15301700     11.28135400      8.25130400
H           7.26728200     12.62180100      8.96142700
C           9.39702300     12.99451600      8.75396900
H           9.20233900     13.58944900      7.83988600
H           9.54365100     13.72516300      9.57206800
C          10.66265300     12.16809400      8.54209600
O          10.85194700     11.68078000      7.41261100
O          11.41260900     11.99941500      9.53307500
P          13.06407700      9.16653900      8.20592100
O          11.92799400      8.24629800      8.36333200
O          13.35339400     10.09242500      9.46486500
H          12.63592800     10.87734400      9.47847000
O          14.41859600      8.34501000      8.04102800
H          15.17973000      9.03593800      7.92561500
O          13.02870300     10.12274800      6.94581700
H          12.20432600     10.79559700      7.07314500
O          10.76412800     13.26862200     11.79522200
H          11.04291300     12.86769900     10.93249900
H          11.47671700     13.84296700     12.04296700
O           5.77310500     10.49780900      9.26557000
H           6.03803500     10.17440600      8.38709700
H           4.85263300     10.26821400      9.34547100
O           6.65774900      9.46199900      6.84221100
H           6.50958500      9.87134100      5.99412100
H           7.62680400      9.33833000      6.89284500
O           9.37733700      9.37437800      7.13264400
H           9.84067200     10.23786900      7.10067800
H          10.08586500      8.74306900      7.29979400
          46
 G =       -0.716709 Gcorr = 0.266594 a.u. Nimag =   0 Frame:     5 Step:     5 Geom:     5
C          10.45084200     10.35629100     11.25624700
C          11.03807400      9.08844500     11.24890700
C          10.46876000      8.07530000     10.46575500
C           9.32147300      8.35568700      9.72424800
C           8.75677700      9.62653400      9.77080600
H          10.92688100      7.08214300     10.42126200
H          10.89894100     11.18673300     11.83202600
H           8.86179000      7.59009400      9.08917000
H           7.85102900      9.88051700      9.19983400
C          12.27603200      8.86231900     12.03578600
H          12.75546300      7.89904400     11.79913800
H          13.04275500      9.62769100     11.80318800
H          12.09596700      8.89415400     13.11794100
N           9.32342300     10.60375900     10.53419600
C           8.68780400     11.94106100     10.58600300
H           7.66393800     11.82013500     11.01019000
H           9.25218300     12.59902000     11.30017500
C           8.61759100     12.61902800      9.20789200
H           8.39447400     11.88179200      8.40454900
H           7.75355900     13.31616400      9.20081100
C           9.88970400     13.38873300      8.86157500
H           9.72921400     14.01775800      7.96353700
H          10.18130400     14.08043800      9.67429000
C          11.01937400     12.40072300      8.57296900
O          11.09946300     11.93843400      7.42186400
O          11.77020900     12.09478300      9.52998100
P          12.84763100      9.05901300      8.08285100
O          11.56300400      8.36993600      8.27634200
O          13.35903100      9.89210900      9.33588700
H          12.78892000     10.78710800      9.40021800
O          14.01337700      7.99821500      7.85445900
H          14.88770200      8.53380800      7.71779400
O          12.94690600     10.02761700      6.83532800
H          12.26484700     10.83603900      7.00206500
O          11.30118900     13.29458800     11.85917600
H          11.53592400     12.90975000     10.97304900
H          12.06688100     13.78253000     12.13091800
O           6.38148900      7.93183800      9.18977500
H           6.35091000      8.55073800      8.44373800
H           5.52236000      7.52407900      9.21315900
O           6.49609000      9.85087600      7.11888700
H           6.19856300      9.71922600      6.22297900
H           7.47143100      9.91073300      7.04824300
O           9.23264200      9.93716900      7.07277000
H           9.81005300     10.72655300      7.03676600
H           9.84404300      9.22132000      7.28326900
          46
 G =       -0.717535 Gcorr = 0.270001 a.u. Nimag =   0 Frame:     6 Step:     6 Geom:     6
C          10.42683700     10.43782700     11.27475300
C          11.21099000      9.28867100     11.40089600
C          10.78640400      8.10286200     10.78648000
C           9.58480400      8.09927200     10.07979800
C           8.82222500      9.26115200      9.99102700
H          11.39855600      7.19649900     10.84551800
H          10.75229900     11.39932100     11.71483800
H           9.25302900      7.19999800      9.55593400
H           7.86819600      9.28830600      9.43780800
C          12.49418700      9.36717200     12.14199400
H          13.08200000     10.25494700     11.83742900
H          12.34669300      9.42357600     13.22811700
H          13.15322100      8.50817700     11.93221900
N           9.25116700     10.40870000     10.58755500
C           8.43055000     11.63878500     10.48027800
H           7.42390400     11.42569700     10.91747300
H           8.88438900     12.45014000     11.10293700
C           8.28289000     12.11610300      9.02752600
H           8.13964000     11.25748300      8.33539200
H           7.33395200     12.69113600      8.94712300
C           9.45425700     12.97675400      8.56261900
H           9.21208400     13.47246500      7.60187400
H           9.67282000     13.78836800      9.28242000
C          10.68345200     12.09380100      8.36460100
O          10.78947400     11.48369300      7.28488900
O          11.49019600     12.00680100      9.32090800
P          13.00069500      9.00607100      8.20911800
O          11.86194200      8.13197400      8.52755100
O          13.38079600     10.04997700      9.34550400
H          12.68199000     10.85118000      9.31591000
O          14.32928600      8.14212900      8.05087700
H          15.09292000      8.80050700      7.81949700
O          12.90404100      9.82778000      6.86028700
H          12.10196200     10.53016900      6.96461700
O          11.03729000     13.52469400     11.47271600
H          11.24326900     13.02721200     10.64046800
H          11.78019500     14.09791100     11.60870000
O           5.77896100     10.64219900      9.35193100
H           6.00648200     10.17992800      8.52607700
H           4.85392100     10.46281900      9.48603600
O           6.54909800      9.23302900      7.09612900
H           6.40401200      9.55324700      6.20966100
H           7.51856800      9.12033700      7.16268500
O           9.26482400      9.19858700      7.38082900
H           9.73628300     10.04251500      7.21711000
H           9.97527300      8.57004900      7.55191000
          46
 G =       -0.716051 Gcorr = 0.250326 a.u. Nimag =   0 Frame:     7 Step:     7 Geom:     7
C          10.33742600     10.54525700     11.19745700
C          11.07239700      9.39706400     11.53466300
C          10.60791700      8.14324600     11.09518600
C           9.42525900      8.06742500     10.36039000
C           8.71027100      9.23087400     10.05619800
H          11.19072400      7.24129900     11.29679800
H          10.69478700     11.56117100     11.48415200
H           9.06403000      7.10845300      9.98098600
H           7.76333800      9.19371200      9.47044100
C          12.34459000      9.53335200     12.28819800
H          12.34262600     10.37361600     12.99439700
H          12.61533700      8.62887900     12.84668900
H          13.17836300      9.72624600     11.57190900
N           9.18088500     10.45209600     10.46541700
C           8.43089400     11.69571000     10.10269600
H           7.34870900     11.54406100     10.36848700
H           8.79784400     12.55079600     10.73324100
C           8.55235600     12.03175900      8.61096400
H           8.61290700     11.09575600      7.99777700
H           7.60749900     12.52114200      8.28907800
C           9.73065300     12.94490400      8.27193400
H           9.65990700     13.27578400      7.21462300
H           9.69920900     13.87164500      8.88204100
C          11.04957900     12.23116600      8.48372500
O          11.40727400     11.32085600      7.67959400
O          11.76461000     12.52875200      9.48536200
P          12.54304000      9.43905000      8.27105300
O          11.12545200      8.98776200      8.30743400
O          13.16957100     10.31816100      9.48733000
H          12.87973500     11.33160000      9.57522600
O          13.51897600      8.11847100      8.46452500
H          14.48316600      8.26360200      8.29437600
O          13.22599600      9.97794700      6.87744800
H          12.80901500     10.79118700      6.45707100
O          10.46152800     13.55145000     11.51172900
H          11.09330700     13.47363400     10.74262100
H          10.83365500     14.18447700     12.10788400
O           5.86890500     10.37823600      9.51315800
H           6.05547700     10.19950500      8.56403500
H           5.05600100      9.93654700      9.71775800
O           7.16126800      9.32142400      7.51459600
H           6.90285500      8.75709600      6.79880800
H           8.07810600      9.71351800      7.23124800
O           9.46971900      9.65974400      6.51691800
H          10.04431000     10.42767200      6.78420900
H           9.93055300      8.89392000      6.96019700
          46
 G =       -0.717705 Gcorr = 0.269831 a.u. Nimag =   0 Frame:     8 Step:     9 Geom:     9
C          10.38155500     10.63624600     11.24792500
C          11.17158900      9.51134800     11.49619200
C          10.76533100      8.26835600     10.99224400
C           9.57556700      8.18658400     10.27062900
C           8.80649100      9.32809500     10.05819900
H          11.38286100      7.37717700     11.14781100
H          10.69278800     11.63826400     11.59879000
H           9.25848700      7.23837300      9.83070400
H           7.86161300      9.29376000      9.48984700
C          12.44192500      9.67162100     12.24621800
H          13.02601300     10.53428700     11.87063500
H          12.27645000      9.82527000     13.32025200
H          13.11259000      8.80444800     12.12572500
N           9.21763000     10.53123600     10.54809600
C           8.39090500     11.73854600     10.30933900
H           7.37785100     11.55978200     10.74726900
H           8.82799000     12.60949900     10.85919700
C           8.26633200     12.07336100      8.81520400
H           8.14061000     11.15118700      8.20636400
H           7.31550200     12.63069800      8.66375400
C           9.44046300     12.89450400      8.28988700
H           9.21249800     13.29373800      7.28189600
H           9.64103600     13.77328200      8.93191200
C          10.67857700     12.00645300      8.19889600
O          10.80700500     11.29544200      7.18527900
O          11.46932300     12.01899600      9.17217500
P          13.02084600      8.93684000      8.37724300
O          11.88474500      8.08481700      8.75840400
O          13.37176500     10.08752400      9.41576100
H          12.66857100     10.87621700      9.29738600
O          14.35987700      8.07617800      8.32368200
H          15.12113300      8.71761400      8.04216300
O          12.94043800      9.62580500      6.95497900
H          12.13192800     10.32798900      6.97910800
O          10.96672600     13.73317900     11.15967300
H          11.19145400     13.15988700     10.38298900
H          11.70302800     14.32321100     11.25308200
O           5.76723500     10.61488200      9.23539000
H           6.01358500     10.08223800      8.45881200
H           4.84183400     10.43788800      9.37009900
O           6.58838100      9.01507300      7.12896000
H           6.46040100      9.25771000      6.21558600
H           7.55666200      8.91248300      7.22361000
O           9.29721000      9.01911500      7.48031000
H           9.76588000      9.84705100      7.24226100
H          10.00934100      8.41376600      7.71608100
          46
 G =       -0.719100 Gcorr = 0.268325 a.u. Nimag =   0 Frame:     9 Step:    10 Geom:    10
C          10.26499900     10.53475900     11.26574800
C          11.09484800      9.43160100     11.48140500
C          10.77063500      8.20702300     10.88267000
C           9.62156200      8.12084700     10.09767600
C           8.81179500      9.23929000      9.91912600
H          11.41962600      7.33460600     11.01432600
H          10.51172900     11.52388700     11.69568900
H           9.37103900      7.19003900      9.58394900
H           7.89737900      9.20019400      9.30444600
C          12.32187900      9.59971600     12.29882100
H          12.88955000     10.49972100     11.99152200
H          12.10129200      9.69626700     13.36957500
H          13.02940300      8.76368900     12.17080400
N           9.14197100     10.42526700     10.50343300
C           8.26922100     11.60653100     10.30247300
H           7.24107500     11.34623100     10.66353400
H           8.62975200     12.45377800     10.93745500
C           8.20629500     12.04487900      8.83141800
H           8.14610100     11.16517500      8.15405500
H           7.24358300     12.57972400      8.67364600
C           9.37040000     12.94366900      8.42451700
H           9.17388300     13.40760200      7.43784900
H           9.50593500     13.77962500      9.13688000
C          10.64522800     12.10962900      8.33017300
O          10.84426900     11.47576800      7.27769100
O          11.39256600     12.08454900      9.33700500
P          13.08202200      9.11731000      8.40962600
O          11.95728900      8.21104100      8.68498800
O          13.35294500     10.20703800      9.53438700
H          12.62764500     10.97879400      9.43877700
O          14.44795400      8.29952600      8.36082000
H          15.20071100      8.97912000      8.15699700
O          13.04127900      9.89573400      7.03273100
H          12.20822100     10.56899000      7.06568500
O          10.72046500     13.64132700     11.40467800
H          11.00763200     13.13037000     10.60526600
H          11.42602800     14.25145800     11.57508600
O           5.77116700     10.49898400      9.25356800
H           6.04385400     10.06385200      8.42716400
H           4.85272300     10.27205500      9.36008200
O           6.67742900      9.15801100      6.99329400
H           6.53290900      9.45046100      6.09750900
H           7.64699900      9.05148900      7.06670600
O           9.39586700      9.13669500      7.31180600
H           9.85006300      9.99289700      7.16385300
H          10.11080700      8.54080700      7.56110400
          46
 G =       -0.706637 Gcorr = 0.247650 a.u. Nimag =   0 Frame:    10 Step:    11 Geom:    11
C          10.39565300     10.61534600     11.21277700
C          11.05258900      9.40586300     11.47443300
C          10.43819300      8.20043400     11.07559600
C           9.17828500      8.23638700     10.47894400
C           8.54794600      9.46115200     10.24061900
H          10.95984100      7.24830100     11.20467200
H          10.86745900     11.59314300     11.46216900
H           8.69234700      7.31435200     10.14978900
H           7.55137300      9.52117600      9.73330800
C          12.39293300      9.42290600     12.11429000
H          12.74170000      8.42544200     12.41162900
H          13.15337500      9.81045000     11.39649400
H          12.43489500     10.06907300     13.00035200
N           9.16511800     10.63127400     10.60013600
C           8.49371500     11.93966100     10.31326900
H           7.46014200     11.90096000     10.73418400
H           9.03930000     12.76074200     10.85444200
C           8.43192500     12.24109400      8.80967900
H           8.31052600     11.29554800      8.22466000
H           7.50981400     12.82698400      8.61029900
C           9.64148000     13.01509000      8.28788300
H           9.40661400     13.46219000      7.29941800
H           9.88692600     13.86615800      8.95802200
C          10.85281600     12.10955800      8.13602700
O          10.90806000     11.30826100      7.17354600
O          11.76634300     12.20278200      9.01797000
P          12.68977600      8.95764000      8.27906000
O          11.37812500      8.35900100      8.63956600
O          13.25745300     10.09910900      9.27884900
H          12.81812600     11.09113700      9.16758100
O          13.90506800      7.85900100      8.28427900
H          14.78702400      8.18617200      7.95511800
O          12.82301400      9.61641000      6.80061400
H          12.19558600     10.44260400      6.60828700
O          11.00730000     13.53685000     11.17745700
H          11.46606600     13.24903300     10.33503200
H          11.59445900     14.13875500     11.61227800
O           5.94500900     10.13537400      8.96959700
H           6.27888500     10.39824700      8.08797500
H           5.49202400      9.29802000      8.79607200
O           6.59438100      8.86019100      7.01987800
H           6.40418500      8.74964600      6.09742300
H           7.58076700      8.75894900      7.11568000
O           9.08423700      9.41528800      7.52972900
H           9.55070200     10.06382400      6.96519800
H           9.79845500      8.83045300      7.89573400
          46
 G =       -0.714745 Gcorr = 0.251542 a.u. Nimag =   0 Frame:    11 Step:    12 Geom:    12
C          10.44454400     10.41093400     11.19105800
C          11.08613100      9.19661900     11.48853000
C          10.50349200      7.99604900     11.04372700
C           9.31722300      8.03901800     10.31163000
C           8.70711100      9.26783700     10.03290300
H          11.00238200      7.04145200     11.22877100
H          10.88989000     11.38527500     11.49902800
H           8.87652600      7.12330100      9.90904700
H           7.77522100      9.32444300      9.43259400
C          12.39065100      9.20704100     12.19752500
H          12.53441500     10.08785100     12.83656600
H          12.55247000      8.31614400     12.81726200
H          13.21116800      9.22667900     11.44236700
N           9.27805700     10.43477500     10.47112100
C           8.62620700     11.74581700     10.15952600
H           7.54594400     11.68122800     10.47329400
H           9.09979300     12.55398800     10.78068300
C           8.70260200     12.10248800      8.66978800
H           8.57580300     11.18628600      8.03701500
H           7.82796800     12.74337700      8.42472400
C           9.98210800     12.83423000      8.26557100
H           9.89524000     13.19931500      7.22079400
H          10.13245300     13.73890100      8.89199800
C          11.18711400     11.92355500      8.37653900
O          11.32917600     10.96813700      7.55807000
O          12.01849100     12.10597500      9.31374300
P          12.20235200      8.93082200      8.06256000
O          10.73622000      8.69415900      8.17122000
O          13.01160100      9.68276600      9.25591800
H          12.91380300     10.73240400      9.34511600
O          12.97337400      7.47430100      8.19176600
H          13.93946700      7.47360500      7.97701600
O          12.88463600      9.38865800      6.64099400
H          12.56053100     10.25606000      6.24605300
O          10.98084600     13.35481700     11.37902300
H          11.56188900     13.15078400     10.59176200
H          11.46152900     13.96235400     11.92235000
O           5.84899300     10.79414600      9.64715300
H           5.85349300     11.09658400      8.72381900
H           5.76100200      9.83869600      9.57966300
O           6.76107600      9.68408200      7.70729600
H           6.39119400      9.13403200      7.02328900
H           7.70786700      9.91518500      7.36161500
O           9.04506000      9.62921600      6.56283100
H           9.76505800     10.27731500      6.79820700
H           9.40785000      8.77931900      6.92848500
          46
 G =       -0.719113 Gcorr = 0.268312 a.u. Nimag =   0 Frame:    12 Step:    13 Geom:    13
C          10.39536300     10.23992800     11.23297800
C          11.16581900      9.07446700     11.24641700
C          10.73977400      7.96668400     10.50172700
C           9.55177900      8.05478700      9.77716000
C           8.80395100      9.22894400      9.80164100
H          11.33998300      7.05092900     10.47435700
H          10.72199700     11.14331400     11.78190600
H           9.22116800      7.22140300      9.15328700
H           7.86078000      9.32673400      9.23912400
C          12.43818600      9.05855000     12.00987000
H          13.04583000      9.95982800     11.79697100
H          12.27492600      9.01739600     13.09439200
H          13.08516800      8.21063200     11.73027500
N           9.23273000     10.30016600     10.52657700
C           8.42423500     11.54248800     10.54192100
H           7.40104300     11.28833600     10.92104200