 Entering Gaussian System, Link 0=g16
 Initial command:
 /data0/hywu0/study/g16/l1.exe "/data0/hywu0/study/g16/scratch/Gau-1151182.inp" -scrdir="/data0/hywu0/study/g16/scratch/"
 Default is to use a total of  16 processors:
                               16 via shared-memory
                                1 via Linda
 Entering Link 1 = /data0/hywu0/study/g16/l1.exe PID=   1151183.
  
 Copyright (c) 1988,1990,1992,1993,1995,1998,2003,2009,2016,
            Gaussian, Inc.  All Rights Reserved.
  
 This is part of the Gaussian(R) 16 program.  It is based on
 the Gaussian(R) 09 system (copyright 2009, Gaussian, Inc.),
 the Gaussian(R) 03 system (copyright 2003, Gaussian, Inc.),
 the Gaussian(R) 98 system (copyright 1998, Gaussian, Inc.),
 the Gaussian(R) 94 system (copyright 1995, Gaussian, Inc.),
 the Gaussian 92(TM) system (copyright 1992, Gaussian, Inc.),
 the Gaussian 90(TM) system (copyright 1990, Gaussian, Inc.),
 the Gaussian 88(TM) system (copyright 1988, Gaussian, Inc.),
 the Gaussian 86(TM) system (copyright 1986, Carnegie Mellon
 University), and the Gaussian 82(TM) system (copyright 1983,
 Carnegie Mellon University). Gaussian is a federally registered
 trademark of Gaussian, Inc.
  
 This software contains proprietary and confidential information,
 including trade secrets, belonging to Gaussian, Inc.
  
 This software is provided under written license and may be
 used, copied, transmitted, or stored only in accord with that
 written license.
  
 The following legend is applicable only to US Government
 contracts under FAR:
  
                    RESTRICTED RIGHTS LEGEND
  
 Use, reproduction and disclosure by the US Government is
 subject to restrictions as set forth in subparagraphs (a)
 and (c) of the Commercial Computer Software - Restricted
 Rights clause in FAR 52.227-19.
  
 Gaussian, Inc.
 340 Quinnipiac St., Bldg. 40, Wallingford CT 06492
  
  
 ---------------------------------------------------------------
 Warning -- This program may not be used in any manner that
 competes with the business of Gaussian, Inc. or will provide
 assistance to any competitor of Gaussian, Inc.  The licensee
 of this program is prohibited from giving any competitor of
 Gaussian, Inc. access to this program.  By using this program,
 the user acknowledges that Gaussian, Inc. is engaged in the
 business of creating and licensing software in the field of
 computational chemistry and represents and warrants to the
 licensee that it is not a competitor of Gaussian, Inc. and that
 it will not use this program in any manner prohibited above.
 ---------------------------------------------------------------
  

 Cite this work as:
 Gaussian 16, Revision A.03,
 M. J. Frisch, G. W. Trucks, H. B. Schlegel, G. E. Scuseria, 
 M. A. Robb, J. R. Cheeseman, G. Scalmani, V. Barone, 
 G. A. Petersson, H. Nakatsuji, X. Li, M. Caricato, A. V. Marenich, 
 J. Bloino, B. G. Janesko, R. Gomperts, B. Mennucci, H. P. Hratchian, 
 J. V. Ortiz, A. F. Izmaylov, J. L. Sonnenberg, D. Williams-Young, 
 F. Ding, F. Lipparini, F. Egidi, J. Goings, B. Peng, A. Petrone, 
 T. Henderson, D. Ranasinghe, V. G. Zakrzewski, J. Gao, N. Rega, 
 G. Zheng, W. Liang, M. Hada, M. Ehara, K. Toyota, R. Fukuda, 
 J. Hasegawa, M. Ishida, T. Nakajima, Y. Honda, O. Kitao, H. Nakai, 
 T. Vreven, K. Throssell, J. A. Montgomery, Jr., J. E. Peralta, 
 F. Ogliaro, M. J. Bearpark, J. J. Heyd, E. N. Brothers, K. N. Kudin, 
 V. N. Staroverov, T. A. Keith, R. Kobayashi, J. Normand, 
 K. Raghavachari, A. P. Rendell, J. C. Burant, S. S. Iyengar, 
 J. Tomasi, M. Cossi, J. M. Millam, M. Klene, C. Adamo, R. Cammi, 
 J. W. Ochterski, R. L. Martin, K. Morokuma, O. Farkas, 
 J. B. Foresman, and D. J. Fox, Gaussian, Inc., Wallingford CT, 2016.
 
 ******************************************
 Gaussian 16:  ES64L-G16RevA.03 25-Dec-2016
                17-May-2022 
 ******************************************
 %nproc=16
 Will use up to   16 processors via shared memory.
 %mem=20GB
 ---------------------------------------------------
 #p M062X/6-311+G(2d,p) nosymm em=GD3 counterpoise=5
 ---------------------------------------------------
 1/38=1,62=5,172=1/1;
 2/12=2,15=1,17=6,18=5,40=1/2;
 1/38=1,53=2,62=5,63=1/22;
 3/5=4,6=6,7=112,11=2,25=1,30=1,74=-55,124=31/1,2,3;
 4//1;
 5/5=2,38=5/2;
 6/7=2,8=2,9=2,10=2,28=1/1;
 1/53=2,62=5,63=1/22;
 3/5=7,6=11,7=112,11=2,25=1,30=1,74=-55,82=7,124=31/1,2,3;
 4//1;
 5/5=2,38=5/2;
 6/7=2,8=2,9=2,10=2,28=1/1;
 1/53=2,62=5,63=1/22(-4);
 99/5=1,9=1/99;
 Leave Link    1 at Tue May 17 12:35:20 2022, MaxMem=  2684354560 cpu:               0.7 elap:               0.0
 (Enter /data0/hywu0/study/g16/l101.exe)
 -------------------
 Title Card Required
 -------------------
 Symbolic Z-matrix:
 Charge =  0 Multiplicity = 1 in supermolecule
 Charge =  0 Multiplicity = 1 in fragment      1.
 Charge =  0 Multiplicity = 1 in fragment      2.
 Charge =  0 Multiplicity = 1 in fragment      3.
 Charge =  0 Multiplicity = 1 in fragment      4.
 Charge =  0 Multiplicity = 1 in fragment      5.
 C                     8.22452   10.2382   10.9724    
 C                     9.02505   9.93644   12.07511    
 C                     9.65164   8.69871   12.16815    
 C                     9.49465   7.77627   11.12204    
 C                     8.71852   8.12631   10.01728    
 H                     10.27054   8.4504    13.03862    
 H                     7.71029   11.21301   10.88591    
 H                     9.19088   10.70498   12.83747    
 H                     8.64019   7.46133   9.14923    
 C                     10.17789   6.45885   11.13809    
 H                     9.48556   5.61687   11.02703    
 H                     10.9177   6.39472   10.31214    
 H                     10.76245   6.29438   12.05749    
 N                     8.06685   9.3271    9.97019    
 C                     7.21846   9.66371   8.8012     
 H                     6.30999   9.02039   8.84172    
 H                     6.85919   10.72527   8.897      
 C                     7.91912   9.49389   7.43782    
 H                     8.44238   8.51414   7.38098    
 H                     7.12653   9.44187   6.65874    
 C                     8.88066   10.62405   7.08484    
 H                     8.35749   11.60114   7.08589    
 H                     9.26477   10.49768   6.05624    
 S                     10.26582   10.69743   8.23821    
 O                     11.38024   11.42174   7.634      
 O                     10.51511   9.27383   8.59229    
 O                     9.65675   11.44677   9.39728    
 P                     13.08898   9.15169   11.10202    
 O                     12.0048   9.7361    11.90201    
 O                     14.18371   10.11746   10.49699    
 H                     13.74663   11.04157   10.21664    
 O                     13.96959   8.16574   12.00014    
 H                     14.7522   7.83394   11.41669    
 O                     12.66277   8.1896    9.91911    
 H                     11.85132   8.61747   9.38862    
 O                     13.07294   12.52299   9.70175    
 H                     12.60329   12.27329   8.88301    
 H                     12.36782   12.70439   10.34206    
 O                     7.36596   12.8399   9.36318    
 H                     7.50583   13.75408   9.57914    
 H                     8.26697   12.43447   9.36214    
 O                     10.8406   12.49929   11.63299    
 H                     11.27029   11.69498   11.9359    
 H                     10.35307   12.20358   10.84025    
 
 ITRead=  0  0  0  0  0  0  0  0  0  0  0  0  0  0  0  0  0  0  0  0
 ITRead=  0  0  0  0  0  0  0  0  0  0  0  0  0  0  0  0  0  0  0  0
 ITRead=  0  0  0  0
 MicOpt= -1 -1 -1 -1 -1 -1 -1 -1 -1 -1 -1 -1 -1 -1 -1 -1 -1 -1 -1 -1
 MicOpt= -1 -1 -1 -1 -1 -1 -1 -1 -1 -1 -1 -1 -1 -1 -1 -1 -1 -1 -1 -1
 MicOpt= -1 -1 -1 -1
 NAtoms=     44 NQM=       44 NQMF=       0 NMMI=      0 NMMIF=      0
                NMic=       0 NMicF=      0.
                    Isotopes and Nuclear Properties:
 (Nuclear quadrupole moments (NQMom) in fm**2, nuclear magnetic moments (NMagM)
  in nuclear magnetons)

  Atom         1           2           3           4           5           6           7           8           9          10
 IAtWgt=          12          12          12          12          12           1           1           1           1          12
 AtmWgt=  12.0000000  12.0000000  12.0000000  12.0000000  12.0000000   1.0078250   1.0078250   1.0078250   1.0078250  12.0000000
 NucSpn=           0           0           0           0           0           1           1           1           1           0
 AtZEff=  -0.0000000  -0.0000000  -0.0000000  -0.0000000  -0.0000000  -0.0000000  -0.0000000  -0.0000000  -0.0000000  -0.0000000
 NQMom=    0.0000000   0.0000000   0.0000000   0.0000000   0.0000000   0.0000000   0.0000000   0.0000000   0.0000000   0.0000000
 NMagM=    0.0000000   0.0000000   0.0000000   0.0000000   0.0000000   2.7928460   2.7928460   2.7928460   2.7928460   0.0000000
 AtZNuc=   6.0000000   6.0000000   6.0000000   6.0000000   6.0000000   1.0000000   1.0000000   1.0000000   1.0000000   6.0000000

  Atom        11          12          13          14          15          16          17          18          19          20
 IAtWgt=           1           1           1          14          12           1           1          12           1           1
 AtmWgt=   1.0078250   1.0078250   1.0078250  14.0030740  12.0000000   1.0078250   1.0078250  12.0000000   1.0078250   1.0078250
 NucSpn=           1           1           1           2           0           1           1           0           1           1
 AtZEff=  -0.0000000  -0.0000000  -0.0000000  -0.0000000  -0.0000000  -0.0000000  -0.0000000  -0.0000000  -0.0000000  -0.0000000
 NQMom=    0.0000000   0.0000000   0.0000000   2.0440000   0.0000000   0.0000000   0.0000000   0.0000000   0.0000000   0.0000000
 NMagM=    2.7928460   2.7928460   2.7928460   0.4037610   0.0000000   2.7928460   2.7928460   0.0000000   2.7928460   2.7928460
 AtZNuc=   1.0000000   1.0000000   1.0000000   7.0000000   6.0000000   1.0000000   1.0000000   6.0000000   1.0000000   1.0000000

  Atom        21          22          23          24          25          26          27          28          29          30
 IAtWgt=          12           1           1          32          16          16          16          31          16          16
 AtmWgt=  12.0000000   1.0078250   1.0078250  31.9720718  15.9949146  15.9949146  15.9949146  30.9737634  15.9949146  15.9949146
 NucSpn=           0           1           1           0           0           0           0           1           0           0
 AtZEff=  -0.0000000  -0.0000000  -0.0000000  -0.0000000  -0.0000000  -0.0000000  -0.0000000  -0.0000000  -0.0000000  -0.0000000
 NQMom=    0.0000000   0.0000000   0.0000000   0.0000000   0.0000000   0.0000000   0.0000000   0.0000000   0.0000000   0.0000000
 NMagM=    0.0000000   2.7928460   2.7928460   0.0000000   0.0000000   0.0000000   0.0000000   1.1316000   0.0000000   0.0000000
 AtZNuc=   6.0000000   1.0000000   1.0000000  16.0000000   8.0000000   8.0000000   8.0000000  15.0000000   8.0000000   8.0000000

  Atom        31          32          33          34          35          36          37          38          39          40
 IAtWgt=           1          16           1          16           1          16           1           1          16           1
 AtmWgt=   1.0078250  15.9949146   1.0078250  15.9949146   1.0078250  15.9949146   1.0078250   1.0078250  15.9949146   1.0078250
 NucSpn=           1           0           1           0           1           0           1           1           0           1
 AtZEff=  -0.0000000  -0.0000000  -0.0000000  -0.0000000  -0.0000000  -0.0000000  -0.0000000  -0.0000000  -0.0000000  -0.0000000
 NQMom=    0.0000000   0.0000000   0.0000000   0.0000000   0.0000000   0.0000000   0.0000000   0.0000000   0.0000000   0.0000000
 NMagM=    2.7928460   0.0000000   2.7928460   0.0000000   2.7928460   0.0000000   2.7928460   2.7928460   0.0000000   2.7928460
 AtZNuc=   1.0000000   8.0000000   1.0000000   8.0000000   1.0000000   8.0000000   1.0000000   1.0000000   8.0000000   1.0000000

  Atom        41          42          43          44
 IAtWgt=           1          16           1           1
 AtmWgt=   1.0078250  15.9949146   1.0078250   1.0078250
 NucSpn=           1           0           1           1
 AtZEff=  -0.0000000  -0.0000000  -0.0000000  -0.0000000
 NQMom=    0.0000000   0.0000000   0.0000000   0.0000000
 NMagM=    2.7928460   0.0000000   2.7928460   2.7928460
 AtZNuc=   1.0000000   8.0000000   1.0000000   1.0000000
 Leave Link  101 at Tue May 17 12:35:20 2022, MaxMem=  2684354560 cpu:               3.0 elap:               0.2
 (Enter /data0/hywu0/study/g16/l202.exe)
                          Input orientation:                          
 ---------------------------------------------------------------------
 Center     Atomic      Atomic             Coordinates (Angstroms)
 Number     Number       Type             X           Y           Z
 ---------------------------------------------------------------------
      1          6           0        8.224521   10.238203   10.972404
      2          6           0        9.025047    9.936438   12.075114
      3          6           0        9.651635    8.698713   12.168146
      4          6           0        9.494654    7.776267   11.122039
      5          6           0        8.718524    8.126306   10.017284
      6          1           0       10.270542    8.450397   13.038618
      7          1           0        7.710290   11.213005   10.885908
      8          1           0        9.190877   10.704981   12.837472
      9          1           0        8.640189    7.461325    9.149226
     10          6           0       10.177895    6.458854   11.138091
     11          1           0        9.485557    5.616869   11.027034
     12          1           0       10.917704    6.394718   10.312138
     13          1           0       10.762450    6.294375   12.057492
     14          7           0        8.066850    9.327097    9.970187
     15          6           0        7.218458    9.663707    8.801203
     16          1           0        6.309994    9.020390    8.841723
     17          1           0        6.859191   10.725268    8.897001
     18          6           0        7.919124    9.493889    7.437824
     19          1           0        8.442376    8.514144    7.380978
     20          1           0        7.126526    9.441867    6.658738
     21          6           0        8.880656   10.624054    7.084845
     22          1           0        8.357492   11.601144    7.085889
     23          1           0        9.264771   10.497684    6.056237
     24         16           0       10.265817   10.697429    8.238213
     25          8           0       11.380242   11.421741    7.634001
     26          8           0       10.515107    9.273832    8.592287
     27          8           0        9.656751   11.446768    9.397280
     28         15           0       13.088985    9.151688   11.102024
     29          8           0       12.004801    9.736103   11.902005
     30          8           0       14.183714   10.117464   10.496994
     31          1           0       13.746632   11.041569   10.216637
     32          8           0       13.969591    8.165743   12.000145
     33          1           0       14.752200    7.833945   11.416693
     34          8           0       12.662765    8.189602    9.919108
     35          1           0       11.851319    8.617474    9.388622
     36          8           0       13.072938   12.522995    9.701750
     37          1           0       12.603292   12.273286    8.883009
     38          1           0       12.367824   12.704391   10.342057
     39          8           0        7.365961   12.839897    9.363178
     40          1           0        7.505833   13.754080    9.579144
     41          1           0        8.266965   12.434474    9.362144
     42          8           0       10.840604   12.499290   11.632993
     43          1           0       11.270291   11.694976   11.935899
     44          1           0       10.353070   12.203576   10.840249
 ---------------------------------------------------------------------
                    Distance matrix (angstroms):
                    1          2          3          4          5
     1  C    0.000000
     2  C    1.395662   0.000000
     3  C    2.415881   1.390407   0.000000
     4  C    2.774303   2.407327   1.403528   0.000000
     5  C    2.369895   2.757752   2.413411   1.394772   0.000000
     6  H    3.413458   2.165159   1.096553   2.174794   3.412075
     7  H    1.105511   2.184587   3.425583   3.879546   3.361362
     8  H    2.151791   1.095147   2.164580   3.407691   3.850473
     9  H    3.347807   3.851639   3.415850   2.172853   1.096294
    10  C    4.257535   3.781621   2.520899   1.484134   2.483217
    11  H    4.790608   4.468693   3.290514   2.161506   2.811620
    12  H    4.739363   4.385660   3.218088   2.142356   2.814557
    13  H    4.813759   4.035282   2.650848   2.162957   3.419949
    14  N    1.363603   2.391685   2.781624   2.402178   1.367039
    15  C    2.460960   3.749218   4.264724   3.758960   2.468330
    16  H    3.112601   4.320356   4.726006   4.109713   2.825305
    17  H    2.531532   3.926014   4.754478   4.537958   3.386260
    18  C    3.624986   4.787836   5.099985   4.359583   3.027034
    19  H    3.989760   4.939366   4.940987   3.955665   2.678952
    20  H    4.521887   5.760739   6.105901   5.320085   3.942713
    21  C    3.961377   5.039489   5.490109   4.978536   3.855416
    22  H    4.120715   5.301815   5.994018   5.675679   4.560474
    23  H    5.031714   6.049739   6.382898   5.755111   4.648840
    24  S    3.442903   4.103709   4.451568   4.176641   3.488536
    25  O    4.743867   5.241808   5.564300   5.386217   4.860522
    26  O    3.441185   3.845700   3.723320   3.111860   2.564204
    27  O    2.448046   3.138621   3.902503   4.058774   3.505730
    28  P    4.986013   4.251862   3.627282   3.848558   4.618333
    29  O    3.925147   2.991494   2.585421   3.278741   4.116216
    30  O    5.979346   5.397692   5.034416   5.278179   5.836363
    31  H    5.631189   5.193132   5.105523   5.437027   5.815528
    32  O    6.193317   5.252570   4.353967   4.576879   5.613109
    33  H    6.970541   6.136308   5.227645   5.266112   6.200731
    34  O    5.000421   4.575237   3.792660   3.413915   3.945970
    35  H    4.276540   4.116396   3.545555   3.044049   3.232780
    36  O    5.508356   5.358037   5.693290   6.111691   6.196076
    37  H    5.261252   5.334251   5.681723   5.907628   5.794432
    38  H    4.862754   4.673244   5.172788   5.757594   5.863594
    39  O    3.177349   4.305489   5.499232   5.767606   4.947244
    40  H    3.849555   4.807522   6.071584   6.486153   5.773597
    41  H    2.723664   3.764981   4.873076   5.128678   4.381030
    42  O    3.520338   3.171739   4.018012   4.937570   5.122180
    43  H    3.511015   2.855338   3.413441   4.378531   4.788320
    44  H    2.900151   2.903180   3.813055   4.518556   4.469132
                    6          7          8          9         10
     6  H    0.000000
     7  H    4.338324   0.000000
     8  H    2.507845   2.501765   0.000000
     9  H    4.331707   4.237438   4.942441   0.000000
    10  C    2.754420   5.362334   4.678856   2.706487   0.000000
    11  H    3.562521   5.872668   5.408642   2.764566   1.095721
    12  H    3.475389   5.816580   5.285604   2.770756   1.110689
    13  H    2.419300   5.906032   4.746752   3.784676   1.101842
    14  N    3.878161   2.126577   3.373918   2.117498   3.747977
    15  C    5.361252   2.643524   4.611524   2.644414   4.948777
    16  H    5.798686   3.308637   5.206087   2.820470   5.176430
    17  H    5.827980   2.217658   4.578699   3.726781   5.851373
    18  C    6.163354   3.858530   5.678054   2.753207   5.292018
    19  H    5.946019   4.483786   5.927339   2.067428   4.620838
    20  H    7.181276   4.620246   6.635794   3.523670   6.186584
    21  C    6.488758   4.020535   5.761554   3.784488   5.954874
    22  H    7.001568   3.874231   5.880336   4.634153   6.795392
    23  H    7.345516   5.123848   6.784805   4.379059   6.555241
    24  S    5.300289   3.715754   4.723213   3.734298   5.136394
    25  O    6.266594   4.907853   5.690622   5.048633   6.193104
    26  O    4.528545   4.109512   4.671549   2.666586   3.810372
    27  O    4.755452   2.461579   3.549959   4.120520   5.308606
    28  P    3.490820   5.764208   4.540897   5.144175   3.965741
    29  O    2.439792   4.653656   3.119614   4.906427   3.829035
    30  O    4.954985   6.576981   5.545398   6.293030   5.462876
    31  H    5.173099   6.075750   5.266590   6.327185   5.881007
    32  O    3.852586   7.050261   5.475852   6.084938   4.246595
    33  H    4.805821   7.828683   6.417926   6.529696   4.784638
    34  O    3.939808   5.882404   5.186327   4.159835   3.264351
    35  H    3.981111   5.111435   4.830135   3.421308   3.243552
    36  O    5.964408   5.645910   5.311151   6.750930   6.871547
    37  H    6.109443   5.392334   5.453617   6.239553   6.691455
    38  H    5.455868   4.920633   4.507519   6.542771   6.666048
    39  O    6.419748   2.254783   4.467539   5.531588   7.195485
    40  H    6.909459   2.864698   4.770019   6.408616   7.924049
    41  H    5.779589   2.030697   3.990321   4.991677   6.520251
    42  O    4.323689   3.465766   2.718807   6.032580   6.096801
    43  H    3.569703   3.742778   2.473234   5.710235   5.408031
    44  H    4.350401   2.822694   2.754157   5.318126   5.755104
                   11         12         13         14         15
    11  H    0.000000
    12  H    1.779655   0.000000
    13  H    1.775194   1.755116   0.000000
    14  N    4.110407   4.104040   4.562949   0.000000
    15  C    5.144994   5.162716   5.875006   1.483104   0.000000
    16  H    5.142348   5.503387   6.131614   2.110460   1.113914
    17  H    6.126221   6.101459   6.697533   2.136598   1.124794
    18  C    5.510665   5.182473   6.297835   2.542146   1.542262
    19  H    4.772437   4.383026   5.672733   2.739693   2.199207
    20  H    6.267188   6.083213   7.230020   3.444282   2.155881
    21  C    6.401458   5.696689   6.856711   3.266432   2.575083
    22  H    7.253737   6.638542   7.659142   3.684418   2.827254
    23  H    6.969930   6.138339   7.478363   4.257264   3.523883
    24  S    5.847941   4.820731   5.849822   3.116569   3.266793
    25  O    6.985631   5.714658   6.799913   4.563317   4.666207
    26  O    4.512355   3.377761   4.576679   2.809877   3.326190
    27  O    6.055834   5.286793   5.903088   2.710906   3.078943
    28  P    5.048293   3.597119   3.806563   5.151084   6.326059
    29  O    4.907163   3.856723   3.662390   4.405300   5.703446
    30  O    6.527555   4.955788   5.362482   6.190172   7.183063
    31  H    6.945565   5.441064   5.901690   5.938019   6.820485
    32  O    5.248835   3.911510   3.713632   6.349159   7.619378
    33  H    5.727546   4.242025   4.324235   7.001128   8.182059
    34  O    4.235694   2.534032   3.431584   4.734864   5.750059
    35  H    4.157506   2.581698   3.702066   3.894097   4.785715
    36  O    7.894318   6.524828   7.048658   5.945312   6.577344
    37  H    7.656697   6.280221   7.015228   5.517363   5.984399
    38  H    7.681772   6.474235   6.827023   5.481129   6.175432
    39  O    7.709296   7.419955   7.851072   3.633107   3.228894
    40  H    8.498817   8.144836   8.508523   4.479490   4.173599
    41  H    7.122960   6.663900   7.154940   3.172626   3.015157
    42  O    7.040672   6.246311   6.219910   4.530060   5.401806
    43  H    6.399586   5.554606   5.425788   4.442174   5.510873
    44  H    6.646215   5.860081   6.047142   3.775969   4.520446
                   16         17         18         19         20
    16  H    0.000000
    17  H    1.792005   0.000000
    18  C    2.187335   2.183793   0.000000
    19  H    2.633840   3.113498   1.112171   0.000000
    20  H    2.368500   2.593917   1.112606   1.764585   0.000000
    21  C    3.502379   2.716703   1.525258   2.175202   2.157801
    22  H    3.733027   2.508424   2.180951   3.102233   2.521946
    23  H    4.321115   3.729417   2.174202   2.523035   2.459644
    24  S    4.338804   3.469853   2.756102   2.970946   3.731799
    25  O    5.738684   4.745540   3.966666   4.141159   4.792196
    26  O    4.220122   3.945281   2.849621   2.518057   3.905039
    27  O    4.170939   2.932095   3.266887   3.760381   4.233353
    28  P    7.147092   6.793277   6.345938   5.986954   7.441634
    29  O    6.504491   6.040348   6.056429   5.884194   7.167705
    30  O    8.120281   7.521838   6.999461   6.726303   8.061795
    31  H    7.828099   7.019852   6.639048   6.524107   7.683977
    32  O    8.329194   8.169361   7.693302   7.211671   8.774204
    33  H    8.905558   8.775431   8.079464   7.520874   9.130961
    34  O    6.496820   6.415277   5.509997   4.935495   6.545848
    35  H    5.582806   5.441124   4.476145   3.957550   5.518656
    36  O    7.664548   6.518443   6.392389   6.549731   7.356160
    37  H    7.084394   5.949055   5.635161   5.805210   6.554333
    38  H    7.247080   6.029109   6.207481   6.460286   7.189027
    39  O    3.996951   2.223914   3.899839   4.878517   4.349475
    40  H    4.937777   3.171304   4.785947   5.758991   5.221860
    41  H    3.969451   2.262647   3.531436   4.395995   4.191026
    42  O    6.357701   5.146305   5.930171   6.301787   6.919929
    43  H    6.428988   5.443624   6.025594   6.233947   7.077833
    44  H    5.520257   4.262487   4.984275   5.406405   5.960089
                   21         22         23         24         25
    21  C    0.000000
    22  H    1.108335   0.000000
    23  H    1.105237   1.760955   0.000000
    24  S    1.803971   2.405464   2.408944   0.000000
    25  O    2.680636   3.077276   2.796147   1.460015   0.000000
    26  O    2.601329   3.512964   3.081023   1.487999   2.506049
    27  O    2.574206   2.656018   3.495279   1.508611   2.465806
    28  P    6.001302   6.672046   6.472734   4.308249   4.483316
    29  O    5.809799   6.322675   6.500829   4.167923   4.631124
    30  O    6.326280   6.912439   6.637838   4.559426   4.213944
    31  H    5.801738   6.257598   6.139366   4.018540   3.523399
    32  O    7.490042   8.212646   7.931161   5.854870   6.030710
    33  H    7.811827   8.593017   8.120460   6.199186   6.208956
    34  O    5.316385   6.180706   5.638739   3.854862   4.160926
    35  H    4.261290   5.139231   4.618464   2.857179   3.341335
    36  O    5.294280   5.470646   5.647458   3.654389   2.890254
    37  H    4.450998   4.659209   4.721136   2.891864   1.944480
    38  H    5.205533   5.282286   5.732953   3.587825   3.155008
    39  O    3.520662   2.775552   4.475187   3.776888   4.595179
    40  H    4.231871   3.402466   5.109682   4.331134   4.922848
    41  H    2.973269   2.425690   3.959267   2.876796   3.701972
    42  O    5.295617   5.258200   6.131059   3.886080   4.176632
    43  H    5.512708   5.658251   6.326614   3.959413   4.311969
    44  H    4.331969   4.294237   5.194346   3.007770   3.456353
                   26         27         28         29         30
    26  O    0.000000
    27  O    2.471121   0.000000
    28  P    3.597019   4.466965   0.000000
    29  O    3.658841   3.835800   1.468661   0.000000
    30  O    4.218803   4.844565   1.580258   2.620526   0.000000
    31  H    4.025688   4.190783   2.188164   2.752941   1.060005
    32  O    4.977431   6.011707   1.598179   2.517153   2.472757
    33  H    5.291833   6.564611   2.145168   3.376675   2.526555
    34  O    2.747443   4.462909   1.583213   2.599320   2.522675
    35  H    1.688318   3.580658   2.180126   2.755355   2.986390
    36  O    4.281410   3.594621   3.650580   3.707938   2.766372
    37  H    3.666301   3.103177   3.860609   3.988712   3.122539
    38  H    4.273522   3.134348   3.703960   3.372826   3.164436
    39  O    4.819566   2.681360   7.027053   6.131722   7.428253
    40  H    5.486551   3.159622   7.394103   6.463786   7.659081
    41  H    3.954299   1.705375   6.087343   5.263413   6.454792
    42  O    4.444707   2.740022   4.067381   3.010469   4.259105
    43  H    4.196663   3.018229   3.235940   2.092328   3.612067
    44  H    3.696348   1.771942   4.107040   3.153405   4.375331
                   31         32         33         34         35
    31  H    0.000000
    32  O    3.391310   0.000000
    33  H    3.569335   1.031011   0.000000
    34  O    3.065454   2.457454   2.595186   0.000000
    35  H    3.186543   3.392814   3.625203   1.059686   0.000000
    36  O    1.706926   5.007220   5.267650   4.358186   4.104083
    37  H    2.145441   5.334343   5.544827   4.213492   3.766440
    38  H    2.163751   5.090603   5.528231   4.544139   4.228322
    39  O    6.683961   8.509362   9.156037   7.070391   6.160190
    40  H    6.834595   8.880930   9.535954   7.594270   6.730845
    41  H    5.718137   7.596121   8.212449   6.136139   5.236199
    42  O    3.546268   5.357704   6.092029   4.983080   4.596438
    43  H    3.084650   4.443628   5.225019   4.277158   4.036983
    44  H    3.640799   5.543345   6.227223   4.721777   4.148747
                   36         37         38         39         40
    36  O    0.000000
    37  H    0.976350   0.000000
    38  H    0.969579   1.539519   0.000000
    39  O    5.725788   5.289730   5.098549   0.000000
    40  H    5.702917   5.353638   5.032180   0.949703   0.000000
    41  H    4.818770   4.365694   4.224941   0.988017   1.538756
    42  O    2.951877   3.274226   2.010220   4.164279   4.112602
    43  H    2.987737   3.381046   2.182620   4.813889   4.895441
    44  H    2.965787   2.983144   2.135005   3.392560   3.478679
                   41         42         43         44
    41  H    0.000000
    42  O    3.432867   0.000000
    43  H    4.023809   0.960887   0.000000
    44  H    2.567088   0.976514   1.516713   0.000000
 Symmetry turned off by external request.
 Stoichiometry    C9H22NO10PS
 Framework group  C1[X(C9H22NO10PS)]
 Deg. of freedom   126
 Full point group                 C1      NOp   1
 Rotational constants (GHZ):           0.3224320           0.2086775           0.1764001
 Leave Link  202 at Tue May 17 12:35:20 2022, MaxMem=  2684354560 cpu:               0.1 elap:               0.0
 (Enter /data0/hywu0/study/g16/l122.exe)
 Counterpoise: doing full-system calculation.
 Leave Link  122 at Tue May 17 12:35:20 2022, MaxMem=  2684354560 cpu:               0.0 elap:               0.0
 (Enter /data0/hywu0/study/g16/l301.exe)
 Standard basis: 6-311+G(2d,p) (5D, 7F)
 Ernie: Thresh=  0.10000D-02 Tol=  0.10000D-05 Strict=F.
   742 basis functions,  1128 primitive gaussians,   786 cartesian basis functions
    97 alpha electrons       97 beta electrons
       nuclear repulsion energy      2721.1025103828 Hartrees.
 IExCor= 4336 DFT=T Ex+Corr=M062X ExCW=0 ScaHFX=  0.540000
 ScaDFX=  1.000000  1.000000  1.000000  1.000000 ScalE2=  1.000000  1.000000
 IRadAn=      5 IRanWt=     -1 IRanGd=            0 ICorTp=0 IEmpDi=131
 NAtoms=   44 NActive=   44 NUniq=   44 SFac= 1.00D+00 NAtFMM=   60 NAOKFM=F Big=F
 Integral buffers will be    131072 words long.
 Raffenetti 2 integral format.
 Two-electron integral symmetry is turned off.
 R6Disp:  Grimme-D3 Dispersion energy=       -0.0043555654 Hartrees.
 Nuclear repulsion after empirical dispersion term =     2721.0981548175 Hartrees.
 Leave Link  301 at Tue May 17 12:35:20 2022, MaxMem=  2684354560 cpu:               0.8 elap:               0.1
 (Enter /data0/hywu0/study/g16/l302.exe)
 NPDir=0 NMtPBC=     1 NCelOv=     1 NCel=       1 NClECP=     1 NCelD=      1
         NCelK=      1 NCelE2=     1 NClLst=     1 CellRange=     0.0.
 One-electron integrals computed using PRISM.
 NBasis=   742 RedAO= T EigKep=  1.18D-06  NBF=   742
 NBsUse=   742 1.00D-06 EigRej= -1.00D+00 NBFU=   742
 Precomputing XC quadrature grid using
 IXCGrd= 4 IRadAn=           5 IRanWt=          -1 IRanGd=           0 AccXCQ= 0.00D+00.
 Generated NRdTot=       0 NPtTot=           0 NUsed=           0 NTot=          32
 NSgBfM=   781   779   779   781   781 MxSgAt=    44 MxSgA2=    44.
 Leave Link  302 at Tue May 17 12:35:22 2022, MaxMem=  2684354560 cpu:              23.8 elap:               1.5
 (Enter /data0/hywu0/study/g16/l303.exe)
 DipDrv:  MaxL=1.
 Leave Link  303 at Tue May 17 12:35:22 2022, MaxMem=  2684354560 cpu:               1.9 elap:               0.1
 (Enter /data0/hywu0/study/g16/l401.exe)
 ExpMin= 3.48D-02 ExpMax= 9.34D+04 ExpMxC= 3.17D+03 IAcc=3 IRadAn=         5 AccDes= 0.00D+00
 Harris functional with IExCor= 1009 and IRadAn=       5 diagonalized for initial guess.
 HarFok:  IExCor= 1009 AccDes= 0.00D+00 IRadAn=         5 IDoV= 1 UseB2=F ITyADJ=14
 ICtDFT=  3500011 ScaDFX=  1.000000  1.000000  1.000000  1.000000
 FoFCou: FMM=F IPFlag=           0 FMFlag=      100000 FMFlg1=           0
         NFxFlg=           0 DoJE=T BraDBF=F KetDBF=T FulRan=T
         wScrn=  0.000000 ICntrl=       500 IOpCl=  0 I1Cent=   200000004 NGrid=           0
         NMat0=    1 NMatS0=      1 NMatT0=    0 NMatD0=    1 NMtDS0=    0 NMtDT0=    0
 Symmetry not used in FoFCou.
 Harris En= -1902.08452108870    
 JPrj=0 DoOrth=F DoCkMO=F.
 Leave Link  401 at Tue May 17 12:35:30 2022, MaxMem=  2684354560 cpu:             121.7 elap:               7.6
 (Enter /data0/hywu0/study/g16/l502.exe)
 Two-electron integral symmetry not used.
 Closed shell SCF:
 Using DIIS extrapolation, IDIIS=  1040.
 NGot=  2684354560 LenX=  2683100926 LenY=  2682482344
 Requested convergence on RMS density matrix=1.00D-08 within 128 cycles.
 Requested convergence on MAX density matrix=1.00D-06.
 Requested convergence on             energy=1.00D-06.
 No special actions if energy rises.
 Fock matrices will be formed incrementally for  20 cycles.

 Cycle   1  Pass 1  IDiag  1:
 FoFJK:  IHMeth= 1 ICntrl=       0 DoSepK=F KAlg= 0 I1Cent=           0 FoldK=F
 IRaf= 830000000 NMat=       1 IRICut=       1 DoRegI=T DoRafI=F ISym2E= 0 IDoP0=0 IntGTp=1.
 FoFCou: FMM=F IPFlag=           0 FMFlag=      100000 FMFlg1=           0
         NFxFlg=           0 DoJE=F BraDBF=F KetDBF=F FulRan=T
         wScrn=  0.000000 ICntrl=         0 IOpCl=  0 I1Cent=           0 NGrid=           0
         NMat0=    1 NMatS0=      1 NMatT0=    0 NMatD0=    1 NMtDS0=    0 NMtDT0=    0
 Symmetry not used in FoFCou.
 E= -1901.87621468375    
 DIIS: error= 2.66D-02 at cycle   1 NSaved=   1.
 NSaved= 1 IEnMin= 1 EnMin= -1901.87621468375     IErMin= 1 ErrMin= 2.66D-02
 ErrMax= 2.66D-02  0.00D+00 EMaxC= 1.00D-01 BMatC= 1.55D+00 BMatP= 1.55D+00
 IDIUse=3 WtCom= 7.34D-01 WtEn= 2.66D-01
 Coeff-Com:  0.100D+01
 Coeff-En:   0.100D+01
 Coeff:      0.100D+01
 Gap=     0.238 Goal=   None    Shift=    0.000
 GapD=    0.238 DampG=1.000 DampE=0.500 DampFc=0.5000 IDamp=-1.
 Damping current iteration by 5.00D-01
 RMSDP=2.63D-02 MaxDP=7.72D+00              OVMax= 2.10D-01

 Cycle   2  Pass 1  IDiag  1:
 RMSU=  8.43D-03    CP:  1.25D+00
 E= -1902.27695128960     Delta-E=       -0.400736605846 Rises=F Damp=T
 DIIS: error= 5.02D-03 at cycle   2 NSaved=   2.
 NSaved= 2 IEnMin= 2 EnMin= -1902.27695128960     IErMin= 2 ErrMin= 5.02D-03
 ErrMax= 5.02D-03  0.00D+00 EMaxC= 1.00D-01 BMatC= 9.22D-02 BMatP= 1.55D+00
 IDIUse=3 WtCom= 9.50D-01 WtEn= 5.02D-02
 Coeff-Com:  0.411D-01 0.959D+00
 Coeff-En:   0.144D+00 0.856D+00
 Coeff:      0.463D-01 0.954D+00
 Gap=     0.338 Goal=   None    Shift=    0.000
 RMSDP=1.06D-02 MaxDP=2.83D+00 DE=-4.01D-01 OVMax= 1.75D-01

 Cycle   3  Pass 1  IDiag  1:
 RMSU=  3.65D-03    CP:  1.01D+00  7.97D-01
 E= -1902.77523572768     Delta-E=       -0.498284438083 Rises=F Damp=F
 DIIS: error= 3.88D-03 at cycle   3 NSaved=   3.
 NSaved= 3 IEnMin= 3 EnMin= -1902.77523572768     IErMin= 3 ErrMin= 3.88D-03
 ErrMax= 3.88D-03  0.00D+00 EMaxC= 1.00D-01 BMatC= 4.02D-02 BMatP= 9.22D-02
 IDIUse=3 WtCom= 9.61D-01 WtEn= 3.88D-02
 Coeff-Com: -0.403D-01 0.369D+00 0.671D+00
 Coeff-En:   0.000D+00 0.000D+00 0.100D+01
 Coeff:     -0.387D-01 0.355D+00 0.684D+00
 Gap=     0.267 Goal=   None    Shift=    0.000
 RMSDP=1.60D-03 MaxDP=3.13D-01 DE=-4.98D-01 OVMax= 5.68D-02

 Cycle   4  Pass 1  IDiag  1:
 RMSU=  1.34D-03    CP:  9.89D-01  7.80D-01  8.60D-01
 E= -1902.79862505483     Delta-E=       -0.023389327145 Rises=F Damp=F
 DIIS: error= 2.43D-03 at cycle   4 NSaved=   4.
 NSaved= 4 IEnMin= 4 EnMin= -1902.79862505483     IErMin= 4 ErrMin= 2.43D-03
 ErrMax= 2.43D-03  0.00D+00 EMaxC= 1.00D-01 BMatC= 1.26D-02 BMatP= 4.02D-02
 IDIUse=3 WtCom= 9.76D-01 WtEn= 2.43D-02
 Coeff-Com: -0.277D-01 0.835D-01 0.394D+00 0.550D+00
 Coeff-En:   0.000D+00 0.000D+00 0.245D+00 0.755D+00
 Coeff:     -0.270D-01 0.815D-01 0.391D+00 0.555D+00
 Gap=     0.268 Goal=   None    Shift=    0.000
 RMSDP=1.10D-03 MaxDP=3.16D-01 DE=-2.34D-02 OVMax= 2.58D-02

 Cycle   5  Pass 1  IDiag  1:
 RMSU=  3.28D-04    CP:  1.01D+00  8.33D-01  8.98D-01  5.45D-01
 E= -1902.80895896699     Delta-E=       -0.010333912162 Rises=F Damp=F
 DIIS: error= 3.71D-04 at cycle   5 NSaved=   5.
 NSaved= 5 IEnMin= 5 EnMin= -1902.80895896699     IErMin= 5 ErrMin= 3.71D-04
 ErrMax= 3.71D-04  0.00D+00 EMaxC= 1.00D-01 BMatC= 4.12D-04 BMatP= 1.26D-02
 IDIUse=3 WtCom= 9.96D-01 WtEn= 3.71D-03
 Coeff-Com: -0.910D-02 0.182D-01 0.137D+00 0.247D+00 0.607D+00
 Coeff-En:   0.000D+00 0.000D+00 0.000D+00 0.000D+00 0.100D+01
 Coeff:     -0.906D-02 0.182D-01 0.136D+00 0.246D+00 0.608D+00
 Gap=     0.268 Goal=   None    Shift=    0.000
 RMSDP=2.49D-04 MaxDP=8.22D-02 DE=-1.03D-02 OVMax= 5.00D-03

 Cycle   6  Pass 1  IDiag  1:
 RMSU=  8.57D-05    CP:  1.00D+00  8.21D-01  9.03D-01  6.09D-01  7.69D-01
 E= -1902.80930061572     Delta-E=       -0.000341648735 Rises=F Damp=F
 DIIS: error= 1.11D-04 at cycle   6 NSaved=   6.
 NSaved= 6 IEnMin= 6 EnMin= -1902.80930061572     IErMin= 6 ErrMin= 1.11D-04
 ErrMax= 1.11D-04  0.00D+00 EMaxC= 1.00D-01 BMatC= 3.82D-05 BMatP= 4.12D-04
 IDIUse=3 WtCom= 9.99D-01 WtEn= 1.11D-03
 Coeff-Com: -0.168D-02 0.975D-03 0.284D-01 0.633D-01 0.283D+00 0.626D+00
 Coeff-En:   0.000D+00 0.000D+00 0.000D+00 0.000D+00 0.000D+00 0.100D+01
 Coeff:     -0.168D-02 0.974D-03 0.283D-01 0.632D-01 0.282D+00 0.627D+00
 Gap=     0.268 Goal=   None    Shift=    0.000
 RMSDP=4.42D-05 MaxDP=8.09D-03 DE=-3.42D-04 OVMax= 1.09D-03

 Cycle   7  Pass 1  IDiag  1:
 RMSU=  3.13D-05    CP:  1.00D+00  8.20D-01  9.03D-01  6.07D-01  7.93D-01
                    CP:  8.80D-01
 E= -1902.80932974590     Delta-E=       -0.000029130176 Rises=F Damp=F
 DIIS: error= 2.88D-05 at cycle   7 NSaved=   7.
 NSaved= 7 IEnMin= 7 EnMin= -1902.80932974590     IErMin= 7 ErrMin= 2.88D-05
 ErrMax= 2.88D-05  0.00D+00 EMaxC= 1.00D-01 BMatC= 3.15D-06 BMatP= 3.82D-05
 IDIUse=1 WtCom= 1.00D+00 WtEn= 0.00D+00
 Coeff-Com:  0.239D-03-0.132D-02-0.224D-02 0.637D-03 0.655D-01 0.258D+00
 Coeff-Com:  0.679D+00
 Coeff:      0.239D-03-0.132D-02-0.224D-02 0.637D-03 0.655D-01 0.258D+00
 Coeff:      0.679D+00
 Gap=     0.268 Goal=   None    Shift=    0.000
 RMSDP=3.42D-05 MaxDP=7.91D-03 DE=-2.91D-05 OVMax= 3.30D-04

 Cycle   8  Pass 1  IDiag  1:
 RMSU=  1.09D-05    CP:  1.00D+00  8.22D-01  9.04D-01  6.06D-01  7.91D-01
                    CP:  9.47D-01  9.43D-01
 E= -1902.80933207747     Delta-E=       -0.000002331570 Rises=F Damp=F
 DIIS: error= 1.06D-05 at cycle   8 NSaved=   8.
 NSaved= 8 IEnMin= 8 EnMin= -1902.80933207747     IErMin= 8 ErrMin= 1.06D-05
 ErrMax= 1.06D-05  0.00D+00 EMaxC= 1.00D-01 BMatC= 4.78D-07 BMatP= 3.15D-06
 IDIUse=1 WtCom= 1.00D+00 WtEn= 0.00D+00
 Coeff-Com:  0.320D-03-0.682D-03-0.499D-02-0.888D-02-0.874D-02 0.146D-01
 Coeff-Com:  0.296D+00 0.712D+00
 Coeff:      0.320D-03-0.682D-03-0.499D-02-0.888D-02-0.874D-02 0.146D-01
 Coeff:      0.296D+00 0.712D+00
 Gap=     0.268 Goal=   None    Shift=    0.000
 RMSDP=1.94D-05 MaxDP=6.14D-03 DE=-2.33D-06 OVMax= 1.16D-04

 Cycle   9  Pass 1  IDiag  1:
 RMSU=  5.44D-06    CP:  1.00D+00  8.21D-01  9.04D-01  6.07D-01  8.01D-01
                    CP:  9.65D-01  9.62D-01  7.94D-01
 E= -1902.80933246415     Delta-E=       -0.000000386675 Rises=F Damp=F
 DIIS: error= 4.08D-06 at cycle   9 NSaved=   9.
 NSaved= 9 IEnMin= 9 EnMin= -1902.80933246415     IErMin= 9 ErrMin= 4.08D-06
 ErrMax= 4.08D-06  0.00D+00 EMaxC= 1.00D-01 BMatC= 5.70D-08 BMatP= 4.78D-07
 IDIUse=1 WtCom= 1.00D+00 WtEn= 0.00D+00
 Coeff-Com:  0.129D-03-0.213D-03-0.226D-02-0.447D-02-0.909D-02-0.148D-01
 Coeff-Com:  0.883D-01 0.340D+00 0.603D+00
 Coeff:      0.129D-03-0.213D-03-0.226D-02-0.447D-02-0.909D-02-0.148D-01
 Coeff:      0.883D-01 0.340D+00 0.603D+00
 Gap=     0.268 Goal=   None    Shift=    0.000
 RMSDP=3.08D-06 MaxDP=9.06D-04 DE=-3.87D-07 OVMax= 3.39D-05

 Cycle  10  Pass 1  IDiag  1:
 RMSU=  9.48D-07    CP:  1.00D+00  8.21D-01  9.04D-01  6.07D-01  8.00D-01
                    CP:  9.69D-01  9.85D-01  8.40D-01  8.79D-01
 E= -1902.80933250969     Delta-E=       -0.000000045542 Rises=F Damp=F
 DIIS: error= 1.59D-06 at cycle  10 NSaved=  10.
 NSaved=10 IEnMin=10 EnMin= -1902.80933250969     IErMin=10 ErrMin= 1.59D-06
 ErrMax= 1.59D-06  0.00D+00 EMaxC= 1.00D-01 BMatC= 5.34D-09 BMatP= 5.70D-08
 IDIUse=1 WtCom= 1.00D+00 WtEn= 0.00D+00
 Coeff-Com:  0.117D-04-0.337D-05-0.315D-03-0.780D-03-0.247D-02-0.832D-02
 Coeff-Com:  0.159D-03 0.505D-01 0.246D+00 0.716D+00
 Coeff:      0.117D-04-0.337D-05-0.315D-03-0.780D-03-0.247D-02-0.832D-02
 Coeff:      0.159D-03 0.505D-01 0.246D+00 0.716D+00
 Gap=     0.268 Goal=   None    Shift=    0.000
 RMSDP=5.26D-07 MaxDP=8.08D-05 DE=-4.55D-08 OVMax= 2.40D-05

 Cycle  11  Pass 1  IDiag  1:
 RMSU=  3.74D-07    CP:  1.00D+00  8.21D-01  9.04D-01  6.07D-01  8.00D-01
                    CP:  9.70D-01  9.89D-01  8.51D-01  9.10D-01  9.46D-01
 E= -1902.80933251475     Delta-E=       -0.000000005068 Rises=F Damp=F
 DIIS: error= 4.75D-07 at cycle  11 NSaved=  11.
 NSaved=11 IEnMin=11 EnMin= -1902.80933251475     IErMin=11 ErrMin= 4.75D-07
 ErrMax= 4.75D-07  0.00D+00 EMaxC= 1.00D-01 BMatC= 7.95D-10 BMatP= 5.34D-09
 IDIUse=1 WtCom= 1.00D+00 WtEn= 0.00D+00
 Coeff-Com: -0.137D-04 0.287D-04 0.208D-03 0.320D-03 0.284D-03-0.160D-02
 Coeff-Com: -0.138D-01-0.326D-01 0.387D-02 0.291D+00 0.752D+00
 Coeff:     -0.137D-04 0.287D-04 0.208D-03 0.320D-03 0.284D-03-0.160D-02
 Coeff:     -0.138D-01-0.326D-01 0.387D-02 0.291D+00 0.752D+00
 Gap=     0.268 Goal=   None    Shift=    0.000
 RMSDP=6.37D-07 MaxDP=2.01D-04 DE=-5.07D-09 OVMax= 1.27D-05

 Cycle  12  Pass 1  IDiag  1:
 RMSU=  1.38D-07    CP:  1.00D+00  8.21D-01  9.04D-01  6.07D-01  8.00D-01
                    CP:  9.71D-01  9.87D-01  8.53D-01  9.49D-01  1.03D+00
                    CP:  9.88D-01
 E= -1902.80933251550     Delta-E=       -0.000000000742 Rises=F Damp=F
 DIIS: error= 1.90D-07 at cycle  12 NSaved=  12.
 NSaved=12 IEnMin=12 EnMin= -1902.80933251550     IErMin=12 ErrMin= 1.90D-07
 ErrMax= 1.90D-07  0.00D+00 EMaxC= 1.00D-01 BMatC= 7.23D-11 BMatP= 7.95D-10
 IDIUse=1 WtCom= 1.00D+00 WtEn= 0.00D+00
 Coeff-Com: -0.466D-05 0.872D-05 0.983D-04 0.168D-03 0.346D-03 0.288D-03
 Coeff-Com: -0.420D-02-0.148D-01-0.226D-01 0.328D-01 0.263D+00 0.745D+00
 Coeff:     -0.466D-05 0.872D-05 0.983D-04 0.168D-03 0.346D-03 0.288D-03
 Coeff:     -0.420D-02-0.148D-01-0.226D-01 0.328D-01 0.263D+00 0.745D+00
 Gap=     0.268 Goal=   None    Shift=    0.000
 RMSDP=1.01D-07 MaxDP=2.76D-05 DE=-7.42D-10 OVMax= 5.21D-06

 Cycle  13  Pass 1  IDiag  1:
 RMSU=  4.92D-08    CP:  1.00D+00  8.21D-01  9.04D-01  6.07D-01  8.00D-01
                    CP:  9.71D-01  9.87D-01  8.53D-01  9.50D-01  1.04D+00
                    CP:  1.03D+00  1.01D+00
 E= -1902.80933251549     Delta-E=        0.000000000003 Rises=F Damp=F
 DIIS: error= 8.51D-08 at cycle  13 NSaved=  13.
 NSaved=13 IEnMin=12 EnMin= -1902.80933251550     IErMin=13 ErrMin= 8.51D-08
 ErrMax= 8.51D-08  0.00D+00 EMaxC= 1.00D-01 BMatC= 1.44D-11 BMatP= 7.23D-11
 IDIUse=1 WtCom= 1.00D+00 WtEn= 0.00D+00
 Coeff-Com:  0.332D-06-0.117D-05 0.110D-04 0.207D-04 0.100D-03 0.340D-03
 Coeff-Com:  0.199D-03-0.131D-02-0.104D-01-0.320D-01-0.151D-01 0.310D+00
 Coeff-Com:  0.748D+00
 Coeff:      0.332D-06-0.117D-05 0.110D-04 0.207D-04 0.100D-03 0.340D-03
 Coeff:      0.199D-03-0.131D-02-0.104D-01-0.320D-01-0.151D-01 0.310D+00
 Coeff:      0.748D+00
 Gap=     0.268 Goal=   None    Shift=    0.000
 RMSDP=6.56D-08 MaxDP=1.53D-05 DE= 2.73D-12 OVMax= 2.85D-06

 Cycle  14  Pass 1  IDiag  1:
 RMSU=  2.29D-08    CP:  1.00D+00  8.21D-01  9.04D-01  6.07D-01  8.00D-01
                    CP:  9.71D-01  9.87D-01  8.53D-01  9.52D-01  1.05D+00
                    CP:  1.07D+00  1.12D+00  1.11D+00
 E= -1902.80933251559     Delta-E=       -0.000000000097 Rises=F Damp=F
 DIIS: error= 3.60D-08 at cycle  14 NSaved=  14.
 NSaved=14 IEnMin=14 EnMin= -1902.80933251559     IErMin=14 ErrMin= 3.60D-08
 ErrMax= 3.60D-08  0.00D+00 EMaxC= 1.00D-01 BMatC= 1.98D-12 BMatP= 1.44D-11
 IDIUse=1 WtCom= 1.00D+00 WtEn= 0.00D+00
 Coeff-Com:  0.857D-06-0.174D-05-0.998D-05-0.172D-04-0.101D-04 0.949D-04
 Coeff-Com:  0.738D-03 0.181D-02-0.595D-03-0.181D-01-0.481D-01 0.229D-01
 Coeff-Com:  0.315D+00 0.727D+00
 Coeff:      0.857D-06-0.174D-05-0.998D-05-0.172D-04-0.101D-04 0.949D-04
 Coeff:      0.738D-03 0.181D-02-0.595D-03-0.181D-01-0.481D-01 0.229D-01
 Coeff:      0.315D+00 0.727D+00
 Gap=     0.268 Goal=   None    Shift=    0.000
 RMSDP=2.21D-08 MaxDP=5.07D-06 DE=-9.73D-11 OVMax= 1.15D-06

 Cycle  15  Pass 1  IDiag  1:
 RMSU=  9.12D-09    CP:  1.00D+00  8.21D-01  9.04D-01  6.07D-01  8.00D-01
                    CP:  9.71D-01  9.87D-01  8.54D-01  9.53D-01  1.05D+00
                    CP:  1.07D+00  1.18D+00  1.27D+00  1.08D+00
 E= -1902.80933251555     Delta-E=        0.000000000040 Rises=F Damp=F
 DIIS: error= 1.08D-08 at cycle  15 NSaved=  15.
 NSaved=15 IEnMin=14 EnMin= -1902.80933251559     IErMin=15 ErrMin= 1.08D-08
 ErrMax= 1.08D-08  0.00D+00 EMaxC= 1.00D-01 BMatC= 3.17D-13 BMatP= 1.98D-12
 IDIUse=1 WtCom= 1.00D+00 WtEn= 0.00D+00
 Coeff-Com:  0.248D-06-0.494D-06-0.526D-05-0.900D-05-0.161D-04-0.854D-05
 Coeff-Com:  0.254D-03 0.867D-03 0.132D-02-0.245D-02-0.178D-01-0.406D-01
 Coeff-Com:  0.930D-02 0.306D+00 0.743D+00
 Coeff:      0.248D-06-0.494D-06-0.526D-05-0.900D-05-0.161D-04-0.854D-05
 Coeff:      0.254D-03 0.867D-03 0.132D-02-0.245D-02-0.178D-01-0.406D-01
 Coeff:      0.930D-02 0.306D+00 0.743D+00
 Gap=     0.268 Goal=   None    Shift=    0.000
 RMSDP=6.66D-09 MaxDP=1.52D-06 DE= 4.00D-11 OVMax= 4.94D-07

 Cycle  16  Pass 1  IDiag  1:
 RMSU=  3.33D-09    CP:  1.00D+00  8.21D-01  9.04D-01  6.07D-01  8.00D-01
                    CP:  9.71D-01  9.87D-01  8.53D-01  9.53D-01  1.05D+00
                    CP:  1.07D+00  1.19D+00  1.32D+00  1.18D+00  9.48D-01
 E= -1902.80933251568     Delta-E=       -0.000000000124 Rises=F Damp=F
 DIIS: error= 5.16D-09 at cycle  16 NSaved=  16.
 NSaved=16 IEnMin=16 EnMin= -1902.80933251568     IErMin=16 ErrMin= 5.16D-09
 ErrMax= 5.16D-09  0.00D+00 EMaxC= 1.00D-01 BMatC= 3.31D-14 BMatP= 3.17D-13
 IDIUse=1 WtCom= 1.00D+00 WtEn= 0.00D+00
 Coeff-Com: -0.548D-07 0.113D-06-0.410D-06-0.738D-06-0.472D-05-0.190D-04
 Coeff-Com: -0.220D-04 0.411D-04 0.609D-03 0.199D-02 0.124D-02-0.180D-01
 Coeff-Com: -0.434D-01 0.225D-02 0.249D+00 0.806D+00
 Coeff:     -0.548D-07 0.113D-06-0.410D-06-0.738D-06-0.472D-05-0.190D-04
 Coeff:     -0.220D-04 0.411D-04 0.609D-03 0.199D-02 0.124D-02-0.180D-01
 Coeff:     -0.434D-01 0.225D-02 0.249D+00 0.806D+00
 Gap=     0.268 Goal=   None    Shift=    0.000
 RMSDP=2.47D-09 MaxDP=5.04D-07 DE=-1.24D-10 OVMax= 1.73D-07

 SCF Done:  E(RM062X) =  -1902.80933252     A.U. after   16 cycles
            NFock= 16  Conv=0.25D-08     -V/T= 2.0030
 KE= 1.897185434265D+03 PE=-9.931244872885D+03 EE= 3.410151951287D+03
 Leave Link  502 at Tue May 17 12:47:20 2022, MaxMem=  2684354560 cpu:           11330.8 elap:             710.9
 (Enter /data0/hywu0/study/g16/l601.exe)
 Copying SCF densities to generalized density rwf, IOpCl= 0 IROHF=0.

 **********************************************************************

            Population analysis using the SCF density.

 **********************************************************************

 Alpha  occ. eigenvalues --  -90.11570 -78.14377 -19.64882 -19.63553 -19.62834
 Alpha  occ. eigenvalues --  -19.62778 -19.62229 -19.62030 -19.61999 -19.61089
 Alpha  occ. eigenvalues --  -19.59396 -19.58372 -14.87986 -10.64335 -10.63995
 Alpha  occ. eigenvalues --  -10.63195 -10.59949 -10.59631 -10.59387 -10.59111
 Alpha  occ. eigenvalues --  -10.58440 -10.55782  -8.45042  -6.95093  -6.37322
 Alpha  occ. eigenvalues --   -6.37299  -6.37241  -5.07021  -5.06929  -5.06859
 Alpha  occ. eigenvalues --   -1.26041  -1.20671  -1.15686  -1.13711  -1.13158
 Alpha  occ. eigenvalues --   -1.12887  -1.12144  -1.11767  -1.11444  -1.10249
 Alpha  occ. eigenvalues --   -1.08504  -0.97913  -0.93734  -0.92039  -0.85405
 Alpha  occ. eigenvalues --   -0.83266  -0.78319  -0.74702  -0.72838  -0.70086
 Alpha  occ. eigenvalues --   -0.68810  -0.65001  -0.62829  -0.62038  -0.61516
 Alpha  occ. eigenvalues --   -0.61112  -0.60887  -0.59994  -0.59092  -0.58839
 Alpha  occ. eigenvalues --   -0.58348  -0.56988  -0.55841  -0.55400  -0.54789
 Alpha  occ. eigenvalues --   -0.53663  -0.53226  -0.51838  -0.50695  -0.50259
 Alpha  occ. eigenvalues --   -0.49526  -0.48908  -0.48365  -0.48129  -0.47897
 Alpha  occ. eigenvalues --   -0.46828  -0.46173  -0.46049  -0.45602  -0.45204
 Alpha  occ. eigenvalues --   -0.44466  -0.44045  -0.43576  -0.43063  -0.42918
 Alpha  occ. eigenvalues --   -0.40342  -0.40100  -0.39895  -0.39474  -0.38782
 Alpha  occ. eigenvalues --   -0.38364  -0.38215  -0.37695  -0.37530  -0.37034
 Alpha  occ. eigenvalues --   -0.35343  -0.32826
 Alpha virt. eigenvalues --   -0.06050  -0.02325  -0.01190   0.00377   0.00537
 Alpha virt. eigenvalues --    0.01113   0.01988   0.02574   0.02789   0.03243
 Alpha virt. eigenvalues --    0.04299   0.04882   0.05154   0.05686   0.05775
 Alpha virt. eigenvalues --    0.06279   0.07177   0.07617   0.07860   0.07903
 Alpha virt. eigenvalues --    0.08522   0.08942   0.09355   0.09856   0.10330
 Alpha virt. eigenvalues --    0.10691   0.10994   0.11042   0.11686   0.12118
 Alpha virt. eigenvalues --    0.12381   0.12612   0.13368   0.13701   0.14066
 Alpha virt. eigenvalues --    0.14155   0.14360   0.14549   0.15316   0.15432
 Alpha virt. eigenvalues --    0.15593   0.15778   0.16419   0.16505   0.16875
 Alpha virt. eigenvalues --    0.17040   0.17636   0.17804   0.18119   0.18761
 Alpha virt. eigenvalues --    0.19066   0.19537   0.19590   0.19792   0.20063
 Alpha virt. eigenvalues --    0.20408   0.20637   0.20808   0.21153   0.21375
 Alpha virt. eigenvalues --    0.21493   0.22109   0.22185   0.22608   0.22735
 Alpha virt. eigenvalues --    0.23373   0.23669   0.23735   0.24334   0.24464
 Alpha virt. eigenvalues --    0.25094   0.25505   0.25584   0.26105   0.26398
 Alpha virt. eigenvalues --    0.26653   0.26958   0.27139   0.27366   0.27837
 Alpha virt. eigenvalues --    0.27943   0.28727   0.28900   0.29426   0.29641
 Alpha virt. eigenvalues --    0.29996   0.30173   0.30518   0.30813   0.31094
 Alpha virt. eigenvalues --    0.31147   0.31438   0.31963   0.32506   0.32630
 Alpha virt. eigenvalues --    0.32894   0.33237   0.33627   0.34117   0.34416
 Alpha virt. eigenvalues --    0.34599   0.35008   0.35241   0.35571   0.35913
 Alpha virt. eigenvalues --    0.36508   0.36582   0.37146   0.37683   0.37952
 Alpha virt. eigenvalues --    0.38115   0.38402   0.38811   0.39055   0.39619
 Alpha virt. eigenvalues --    0.40372   0.40640   0.40864   0.41189   0.42059
 Alpha virt. eigenvalues --    0.42594   0.43297   0.44086   0.44396   0.45379
 Alpha virt. eigenvalues --    0.45967   0.46934   0.47871   0.48141   0.49058
 Alpha virt. eigenvalues --    0.49461   0.49916   0.50964   0.51239   0.51480
 Alpha virt. eigenvalues --    0.52328   0.53138   0.53588   0.54241   0.54923
 Alpha virt. eigenvalues --    0.55163   0.55943   0.56759   0.56874   0.57406
 Alpha virt. eigenvalues --    0.57830   0.58154   0.59081   0.59399   0.59717
 Alpha virt. eigenvalues --    0.60536   0.60842   0.61665   0.61913   0.62324
 Alpha virt. eigenvalues --    0.63205   0.63468   0.63914   0.64889   0.65244
 Alpha virt. eigenvalues --    0.65539   0.65777   0.66656   0.66842   0.67726
 Alpha virt. eigenvalues --    0.68100   0.68988   0.69265   0.69660   0.69886
 Alpha virt. eigenvalues --    0.70573   0.71520   0.71796   0.72148   0.72680
 Alpha virt. eigenvalues --    0.73750   0.74105   0.74879   0.75839   0.76013
 Alpha virt. eigenvalues --    0.76531   0.77198   0.77445   0.78329   0.78503
 Alpha virt. eigenvalues --    0.79469   0.80769   0.81243   0.81922   0.82408
 Alpha virt. eigenvalues --    0.83294   0.83710   0.83877   0.84942   0.85437
 Alpha virt. eigenvalues --    0.86485   0.87042   0.87661   0.88460   0.89071
 Alpha virt. eigenvalues --    0.89555   0.89939   0.91117   0.91983   0.92274
 Alpha virt. eigenvalues --    0.93895   0.94363   0.94575   0.95794   0.96240
 Alpha virt. eigenvalues --    0.98274   0.98403   1.00102   1.01068   1.01601
 Alpha virt. eigenvalues --    1.03087   1.04769   1.05404   1.06216   1.07125
 Alpha virt. eigenvalues --    1.07400   1.08459   1.09555   1.10567   1.10841
 Alpha virt. eigenvalues --    1.11927   1.12553   1.13805   1.14464   1.14982
 Alpha virt. eigenvalues --    1.15645   1.15914   1.16469   1.17067   1.18150
 Alpha virt. eigenvalues --    1.18255   1.19170   1.19246   1.20301   1.20369
 Alpha virt. eigenvalues --    1.20980   1.21231   1.21666   1.22830   1.22994
 Alpha virt. eigenvalues --    1.24037   1.24358   1.25683   1.25792   1.26812
 Alpha virt. eigenvalues --    1.27126   1.27761   1.28053   1.28784   1.29016
 Alpha virt. eigenvalues --    1.29941   1.30276   1.31585   1.32261   1.32780
 Alpha virt. eigenvalues --    1.33099   1.33710   1.33822   1.34261   1.34769
 Alpha virt. eigenvalues --    1.35220   1.36041   1.36540   1.37031   1.37296
 Alpha virt. eigenvalues --    1.37821   1.38440   1.38956   1.39604   1.40067
 Alpha virt. eigenvalues --    1.40655   1.41102   1.41321   1.42083   1.43055
 Alpha virt. eigenvalues --    1.43439   1.44422   1.44587   1.45161   1.45644
 Alpha virt. eigenvalues --    1.45815   1.46893   1.47534   1.47937   1.49308
 Alpha virt. eigenvalues --    1.50145   1.50823   1.51565   1.53239   1.54231
 Alpha virt. eigenvalues --    1.54613   1.55043   1.56875   1.57290   1.57400
 Alpha virt. eigenvalues --    1.57842   1.59581   1.59910   1.60456   1.61380
 Alpha virt. eigenvalues --    1.61535   1.62473   1.62903   1.63597   1.64560
 Alpha virt. eigenvalues --    1.65148   1.65658   1.66771   1.68379   1.69163
 Alpha virt. eigenvalues --    1.69635   1.70272   1.70816   1.73691   1.74630
 Alpha virt. eigenvalues --    1.75122   1.75555   1.76400   1.76942   1.77483
 Alpha virt. eigenvalues --    1.78063   1.78871   1.80035   1.80611   1.82010
 Alpha virt. eigenvalues --    1.82485   1.83566   1.84100   1.84932   1.86077
 Alpha virt. eigenvalues --    1.86201   1.87480   1.87918   1.90101   1.90356
 Alpha virt. eigenvalues --    1.91753   1.92043   1.92601   1.93853   1.94517
 Alpha virt. eigenvalues --    1.95634   1.95983   1.96612   1.97834   1.98615
 Alpha virt. eigenvalues --    1.99148   2.00005   2.01202   2.01346   2.02501
 Alpha virt. eigenvalues --    2.03480   2.04824   2.05030   2.06899   2.08173
 Alpha virt. eigenvalues --    2.09707   2.10645   2.11474   2.11787   2.12025
 Alpha virt. eigenvalues --    2.12935   2.14780   2.14930   2.15142   2.16568
 Alpha virt. eigenvalues --    2.17406   2.17854   2.18850   2.20025   2.20495
 Alpha virt. eigenvalues --    2.21106   2.21305   2.22692   2.23332   2.24777
 Alpha virt. eigenvalues --    2.25459   2.27650   2.28527   2.29324   2.30142
 Alpha virt. eigenvalues --    2.31404   2.31494   2.32130   2.33592   2.34194
 Alpha virt. eigenvalues --    2.35678   2.35925   2.37239   2.37772   2.38710
 Alpha virt. eigenvalues --    2.39577   2.40278   2.41068   2.42168   2.43576
 Alpha virt. eigenvalues --    2.44607   2.45700   2.45850   2.48378   2.50093
 Alpha virt. eigenvalues --    2.51467   2.53025   2.53299   2.55184   2.55914
 Alpha virt. eigenvalues --    2.58718   2.58989   2.60124   2.61063   2.65361
 Alpha virt. eigenvalues --    2.66085   2.66727   2.68581   2.71395   2.71915
 Alpha virt. eigenvalues --    2.72469   2.73215   2.74157   2.75570   2.75824
 Alpha virt. eigenvalues --    2.78539   2.78974   2.79145   2.80029   2.81385
 Alpha virt. eigenvalues --    2.81814   2.83890   2.85311   2.86490   2.87886
 Alpha virt. eigenvalues --    2.88538   2.89610   2.90141   2.90826   2.92786
 Alpha virt. eigenvalues --    2.93526   2.94008   2.95532   2.97432   2.98850
 Alpha virt. eigenvalues --    2.99486   3.00062   3.01098   3.01795   3.05464
 Alpha virt. eigenvalues --    3.05634   3.06629   3.06910   3.10070   3.11880
 Alpha virt. eigenvalues --    3.12999   3.14621   3.15383   3.17221   3.19867
 Alpha virt. eigenvalues --    3.21194   3.23136   3.24154   3.26680   3.27673
 Alpha virt. eigenvalues --    3.28801   3.30066   3.30794   3.32710   3.33473
 Alpha virt. eigenvalues --    3.34610   3.35053   3.36868   3.38618   3.41224
 Alpha virt. eigenvalues --    3.43300   3.44810   3.45642   3.47827   3.48134
 Alpha virt. eigenvalues --    3.49062   3.51265   3.51758   3.52875   3.54731
 Alpha virt. eigenvalues --    3.55933   3.56442   3.58412   3.59023   3.59790
 Alpha virt. eigenvalues --    3.61479   3.62816   3.63762   3.65487   3.66172
 Alpha virt. eigenvalues --    3.68585   3.68886   3.69494   3.72175   3.72981
 Alpha virt. eigenvalues --    3.74283   3.76580   3.78185   3.80236   3.84364
 Alpha virt. eigenvalues --    3.84938   3.87187   3.87565   3.89902   3.94821
 Alpha virt. eigenvalues --    3.96924   4.00642   4.03763   4.07867   4.10108
 Alpha virt. eigenvalues --    4.15155   4.16529   4.16946   4.19381   4.20259
 Alpha virt. eigenvalues --    4.23370   4.31894   4.35977   4.46473   4.53295
 Alpha virt. eigenvalues --    4.64935   4.72660   4.97155   5.05426   5.06250
 Alpha virt. eigenvalues --    5.12556   5.13480   5.13797   5.15491   5.18923
 Alpha virt. eigenvalues --    5.19612   5.20127   5.20414   5.22503   5.25601
 Alpha virt. eigenvalues --    5.27269   5.28541   5.29097   5.33345   5.34380
 Alpha virt. eigenvalues --    5.37515   5.39085   5.40275   5.44511   5.47358
 Alpha virt. eigenvalues --    5.48451   5.53371   5.54153   5.56999   5.57232
 Alpha virt. eigenvalues --    5.57943   5.60964   5.62673   5.65078   5.66105
 Alpha virt. eigenvalues --    5.68356   5.78229   5.98359   5.99613   6.03125
 Alpha virt. eigenvalues --    6.77214   6.77263   6.78567   6.78886   6.79638
 Alpha virt. eigenvalues --    6.80589   6.80735   6.82125   6.82665   6.83931
 Alpha virt. eigenvalues --    6.84502   6.85644   6.86178   6.86582   6.87442
 Alpha virt. eigenvalues --    6.87963   6.88499   6.89856   6.89990   6.90639
 Alpha virt. eigenvalues --    6.92814   6.94399   6.94939   6.95796   6.96102
 Alpha virt. eigenvalues --    6.96729   6.97934   6.98882   7.00206   7.02735
 Alpha virt. eigenvalues --    7.03561   7.04441   7.07740   7.11366   7.12968
 Alpha virt. eigenvalues --    7.13638   7.16649   7.18744   7.20193   7.20952
 Alpha virt. eigenvalues --    7.24034   7.27235   7.28284   7.29927   7.30177
 Alpha virt. eigenvalues --    7.36179   7.39642   7.41361   7.41819   7.46986
 Alpha virt. eigenvalues --    7.73395   8.64180  14.30703  14.33363  14.43164
 Alpha virt. eigenvalues --   17.75245  17.77794  17.86292  23.87396  23.95321
 Alpha virt. eigenvalues --   23.99059  24.00387  24.04656  24.09275  24.12123
 Alpha virt. eigenvalues --   24.13346  24.26861  35.71423  50.05175  50.05447
 Alpha virt. eigenvalues --   50.06825  50.08143  50.09315  50.10190  50.11135
 Alpha virt. eigenvalues --   50.14951  50.15559  50.19869 163.99874 189.96136
          Condensed to atoms (all electrons):
               1          2          3          4          5          6
     1  C   14.863909 -11.762982   6.405420  -4.907889   1.282102  -0.014881
     2  C  -11.762982  25.618622 -12.765251   9.321492  -4.520152   0.071161
     3  C    6.405420 -12.765251  21.096672 -11.398004   3.718563   0.292638
     4  C   -4.907889   9.321492 -11.398004  21.350982  -9.527359   0.039831
     5  C    1.282102  -4.520152   3.718563  -9.527359  16.483014  -0.008345
     6  H   -0.014881   0.071161   0.292638   0.039831  -0.008345   0.479525
     7  H    0.301996   0.070967  -0.003630   0.016617  -0.004960  -0.000231
     8  H    0.185046   0.055558   0.143438  -0.074225   0.020281  -0.004501
     9  H   -0.022439   0.047935  -0.052647   0.199897   0.160531  -0.000060
    10  C   -0.019576   0.433558  -1.010074   0.919039  -1.242060  -0.019148
    11  H    0.005353  -0.015906   0.089449  -0.094345  -0.014399  -0.000157
    12  H   -0.004651   0.003424  -0.071051   0.077193  -0.015398   0.000360
    13  H    0.010011   0.014563   0.044787  -0.202286   0.066445   0.003343
    14  N   -0.128348   0.066022  -0.186574  -0.135929   0.115180  -0.001560
    15  C    0.286644  -0.855382   0.527890  -0.889586   0.532307  -0.002004
    16  H   -0.002433   0.003811   0.002396   0.023844  -0.022804   0.000001
    17  H    0.002972   0.036764  -0.004289   0.011531  -0.029335  -0.000003
    18  C   -0.057201   0.152608  -0.253143   0.432206  -0.578561   0.000323
    19  H    0.006883  -0.001009  -0.002239  -0.008401  -0.016627  -0.000001
    20  H   -0.002396   0.003236  -0.001213  -0.003294   0.010888   0.000000
    21  C    0.201318  -0.354900   0.249049  -0.474075   0.703398  -0.000257
    22  H    0.007080   0.005221  -0.003372   0.004226  -0.015620   0.000000
    23  H   -0.003216   0.003877  -0.001907   0.004220  -0.002592   0.000000
    24  S   -0.384296   0.709913  -0.472734   0.767096  -0.825317   0.000998
    25  O    0.025098  -0.021005   0.020788   0.038369  -0.025255   0.000004
    26  O   -0.047823   0.152061  -0.126551   0.163888  -0.154381   0.000122
    27  O   -0.053326  -0.054273  -0.029701   0.038997  -0.068858  -0.000089
    28  P    0.066962  -0.025581  -0.059833   0.091629  -0.060955   0.004550
    29  O   -0.071283   0.021341  -0.036054  -0.017896   0.055742  -0.019074
    30  O   -0.022828   0.035322  -0.036617   0.019536  -0.000399   0.000150
    31  H    0.004129  -0.004604   0.012215  -0.004838  -0.003374  -0.000055
    32  O    0.005616  -0.009294  -0.004427   0.026861  -0.008697  -0.000156
    33  H    0.000077   0.000194  -0.005619   0.005512  -0.001326   0.000094
    34  O    0.043299  -0.058683   0.070429  -0.073628  -0.029864  -0.001610
    35  H   -0.029739   0.039378  -0.103748   0.107846   0.006526   0.000596
    36  O   -0.032759   0.022546  -0.025197   0.017354  -0.000296   0.000057
    37  H    0.006788   0.000363   0.001910  -0.002138   0.000100  -0.000003
    38  H    0.032391  -0.037123   0.018703  -0.005614  -0.001372  -0.000024
    39  O    0.103565  -0.129802  -0.014745   0.008414  -0.010098   0.000014
    40  H    0.024920  -0.015982   0.000372  -0.000515   0.000163   0.000000
    41  H    0.073866  -0.083475   0.023218  -0.021230   0.017406  -0.000017
    42  O   -0.200393   0.289752  -0.130004   0.000052   0.013148   0.000174
    43  H    0.017874   0.007926   0.002391   0.001597  -0.007673  -0.000004
    44  H    0.033447  -0.052110   0.054930  -0.013420   0.016493  -0.000137
               7          8          9         10         11         12
     1  C    0.301996   0.185046  -0.022439  -0.019576   0.005353  -0.004651
     2  C    0.070967   0.055558   0.047935   0.433558  -0.015906   0.003424
     3  C   -0.003630   0.143438  -0.052647  -1.010074   0.089449  -0.071051
     4  C    0.016617  -0.074225   0.199897   0.919039  -0.094345   0.077193
     5  C   -0.004960   0.020281   0.160531  -1.242060  -0.014399  -0.015398
     6  H   -0.000231  -0.004501  -0.000060  -0.019148  -0.000157   0.000360
     7  H    0.451678  -0.003222  -0.000079   0.000322  -0.000000   0.000003
     8  H   -0.003222   0.479131  -0.000044   0.000413   0.000013   0.000001
     9  H   -0.000079  -0.000044   0.490473   0.031961   0.000975   0.000090
    10  C    0.000322   0.000413   0.031961   6.557965   0.382496   0.382029
    11  H   -0.000000   0.000013   0.000975   0.382496   0.503980  -0.031502
    12  H    0.000003   0.000001   0.000090   0.382029  -0.031502   0.459448
    13  H   -0.000004  -0.000011  -0.000260   0.431399  -0.017757  -0.020267
    14  N   -0.046021   0.004443  -0.042481  -0.029483   0.003141  -0.000050
    15  C   -0.001632   0.006587   0.009157  -0.099688   0.001488   0.000061
    16  H    0.000965   0.000003   0.001097  -0.001069  -0.000027   0.000004
    17  H    0.004725  -0.000118   0.000252   0.000794  -0.000001   0.000000
    18  C   -0.003870   0.000034   0.004485   0.068129   0.000395  -0.001093
    19  H    0.000057  -0.000002   0.004468   0.002287   0.000031   0.000009
    20  H   -0.000042  -0.000000  -0.000542  -0.000341  -0.000001   0.000000
    21  C   -0.003581   0.001247  -0.013744  -0.031175  -0.000154   0.000935
    22  H    0.000170  -0.000005   0.000096   0.000277  -0.000000   0.000000
    23  H    0.000011  -0.000001   0.000089   0.000173  -0.000000  -0.000001
    24  S    0.001324  -0.003233   0.012878   0.025768  -0.000139  -0.001344
    25  O   -0.000360   0.000107   0.000157   0.000078  -0.000002  -0.000093
    26  O    0.001652  -0.001075  -0.005801  -0.009728  -0.000257   0.001082
    27  O   -0.002835  -0.001183   0.001171   0.011451   0.000008   0.000011
    28  P   -0.000511  -0.000435   0.000510  -0.011417   0.002123  -0.006380
    29  O    0.000437  -0.001069  -0.000047   0.006681  -0.000116  -0.000626
    30  O    0.000014  -0.000030  -0.000010   0.000159   0.000000   0.000170
    31  H   -0.000004   0.000020   0.000003   0.000251   0.000000  -0.000021
    32  O   -0.000004   0.000001   0.000009  -0.002841  -0.000039   0.000398
    33  H   -0.000000  -0.000001  -0.000001   0.001101  -0.000007   0.000033
    34  O   -0.000000   0.000145   0.000404   0.035781   0.000858  -0.006211
    35  H    0.000011  -0.000085  -0.000658  -0.003859  -0.000104   0.002445
    36  O    0.000081  -0.000323  -0.000003   0.000795  -0.000000   0.000010
    37  H   -0.000016   0.000010   0.000001  -0.000181   0.000000  -0.000002
    38  H   -0.000073   0.000499   0.000000  -0.000087  -0.000000  -0.000002
    39  O   -0.003548   0.000798  -0.000015   0.000467   0.000000   0.000000
    40  H   -0.002506   0.000029  -0.000000  -0.000017   0.000000  -0.000000
    41  H   -0.007783   0.000315  -0.000053  -0.000561   0.000000  -0.000000
    42  O    0.000021  -0.023358  -0.000007  -0.001145  -0.000001   0.000033
    43  H   -0.000332   0.001627   0.000006  -0.000452   0.000001  -0.000014
    44  H    0.000725   0.004025  -0.000038   0.000122   0.000000  -0.000006
              13         14         15         16         17         18
     1  C    0.010011  -0.128348   0.286644  -0.002433   0.002972  -0.057201
     2  C    0.014563   0.066022  -0.855382   0.003811   0.036764   0.152608
     3  C    0.044787  -0.186574   0.527890   0.002396  -0.004289  -0.253143
     4  C   -0.202286  -0.135929  -0.889586   0.023844   0.011531   0.432206
     5  C    0.066445   0.115180   0.532307  -0.022804  -0.029335  -0.578561
     6  H    0.003343  -0.001560  -0.002004   0.000001  -0.000003   0.000323
     7  H   -0.000004  -0.046021  -0.001632   0.000965   0.004725  -0.003870
     8  H   -0.000011   0.004443   0.006587   0.000003  -0.000118   0.000034
     9  H   -0.000260  -0.042481   0.009157   0.001097   0.000252   0.004485
    10  C    0.431399  -0.029483  -0.099688  -0.001069   0.000794   0.068129
    11  H   -0.017757   0.003141   0.001488  -0.000027  -0.000001   0.000395
    12  H   -0.020267  -0.000050   0.000061   0.000004   0.000000  -0.001093
    13  H    0.488496  -0.000450   0.001315  -0.000001  -0.000001  -0.000234
    14  N   -0.000450   6.911331   0.139265  -0.057075  -0.064057   0.152257
    15  C    0.001315   0.139265   6.529254   0.434790   0.429710  -0.543060
    16  H   -0.000001  -0.057075   0.434790   0.491628  -0.020580  -0.043716
    17  H   -0.000001  -0.064057   0.429710  -0.020580   0.397896  -0.024031
    18  C   -0.000234   0.152257  -0.543060  -0.043716  -0.024031   6.612482
    19  H    0.000000  -0.011444  -0.012548  -0.003072   0.003208   0.438823
    20  H   -0.000000   0.001455  -0.027921  -0.005713  -0.002369   0.407612
    21  C    0.000134  -0.032339  -0.041755  -0.001036  -0.013485  -0.493745
    22  H   -0.000000  -0.004389  -0.003193  -0.000040   0.001340  -0.009031
    23  H   -0.000000   0.003516   0.007853  -0.000013  -0.000025  -0.052251
    24  S   -0.000419  -0.090563   0.005255   0.006351  -0.000419   0.009755
    25  O   -0.000004  -0.050047   0.000456  -0.000019   0.000207  -0.082812
    26  O   -0.000064   0.015660  -0.026978   0.001122  -0.000497   0.069033
    27  O   -0.000056  -0.032438   0.026196   0.000718   0.003937   0.056196
    28  P    0.000512  -0.002064  -0.004149  -0.000036  -0.000075   0.000404
    29  O   -0.001456   0.002025   0.002423   0.000005  -0.000016   0.000701
    30  O   -0.000008   0.001450   0.001231   0.000000   0.000000   0.000175
    31  H    0.000002  -0.001251  -0.001167   0.000000   0.000001   0.000485
    32  O    0.000424  -0.000085  -0.000005  -0.000000  -0.000000  -0.000087
    33  H   -0.000015   0.000014   0.000020  -0.000000  -0.000000  -0.000020
    34  O   -0.002019  -0.005881   0.002556   0.000009  -0.000003  -0.007629
    35  H   -0.000347   0.007416   0.001384  -0.000015   0.000001   0.008455
    36  O   -0.000003   0.006633   0.010357  -0.000001  -0.000024  -0.004130
    37  H    0.000000  -0.001277  -0.004428   0.000000   0.000008   0.002779
    38  H    0.000000  -0.002345  -0.003156   0.000000   0.000005   0.000952
    39  O    0.000000   0.009012  -0.006494   0.000526   0.008660   0.037904
    40  H    0.000000  -0.002099   0.005932  -0.000010  -0.000421  -0.006111
    41  H   -0.000000   0.020255   0.029864  -0.000003  -0.004235  -0.037401
    42  O    0.000002   0.017086   0.015211   0.000005  -0.000182  -0.003953
    43  H    0.000003  -0.008626  -0.002739   0.000000   0.000010  -0.000283
    44  H   -0.000004  -0.005901  -0.007986  -0.000020   0.000476  -0.002642
              19         20         21         22         23         24
     1  C    0.006883  -0.002396   0.201318   0.007080  -0.003216  -0.384296
     2  C   -0.001009   0.003236  -0.354900   0.005221   0.003877   0.709913
     3  C   -0.002239  -0.001213   0.249049  -0.003372  -0.001907  -0.472734
     4  C   -0.008401  -0.003294  -0.474075   0.004226   0.004220   0.767096
     5  C   -0.016627   0.010888   0.703398  -0.015620  -0.002592  -0.825317
     6  H   -0.000001   0.000000  -0.000257   0.000000   0.000000   0.000998
     7  H    0.000057  -0.000042  -0.003581   0.000170   0.000011   0.001324
     8  H   -0.000002  -0.000000   0.001247  -0.000005  -0.000001  -0.003233
     9  H    0.004468  -0.000542  -0.013744   0.000096   0.000089   0.012878
    10  C    0.002287  -0.000341  -0.031175   0.000277   0.000173   0.025768
    11  H    0.000031  -0.000001  -0.000154  -0.000000  -0.000000  -0.000139
    12  H    0.000009   0.000000   0.000935   0.000000  -0.000001  -0.001344
    13  H    0.000000  -0.000000   0.000134  -0.000000  -0.000000  -0.000419
    14  N   -0.011444   0.001455  -0.032339  -0.004389   0.003516  -0.090563
    15  C   -0.012548  -0.027921  -0.041755  -0.003193   0.007853   0.005255
    16  H   -0.003072  -0.005713  -0.001036  -0.000040  -0.000013   0.006351
    17  H    0.003208  -0.002369  -0.013485   0.001340  -0.000025  -0.000419
    18  C    0.438823   0.407612  -0.493745  -0.009031  -0.052251   0.009755
    19  H    0.498022  -0.029519  -0.045187   0.004242  -0.005180   0.008874
    20  H   -0.029519   0.503318  -0.028775  -0.004816  -0.004519  -0.000121
    21  C   -0.045187  -0.028775   7.370730   0.421116   0.402620  -0.799518
    22  H    0.004242  -0.004816   0.421116   0.426091  -0.022585  -0.066752
    23  H   -0.005180  -0.004519   0.402620  -0.022585   0.459950  -0.026801
    24  S    0.008874  -0.000121  -0.799518  -0.066752  -0.026801  15.232292
    25  O    0.000583  -0.000113  -0.091812   0.000201   0.006863   0.482047
    26  O   -0.010783   0.000914  -0.252176  -0.002966   0.011266   0.193854
    27  O    0.002697   0.000185  -0.168311   0.026388  -0.000079   0.043890
    28  P    0.000045  -0.000002   0.000338  -0.000087   0.000171   0.013108
    29  O   -0.000026   0.000001  -0.008721  -0.000007   0.000000  -0.006929
    30  O    0.000003   0.000000  -0.001955   0.000008   0.000004   0.005201
    31  H   -0.000002  -0.000000   0.003704  -0.000002  -0.000005   0.016357
    32  O   -0.000000  -0.000000  -0.000098  -0.000000   0.000000  -0.000571
    33  H    0.000000   0.000000   0.000101   0.000000  -0.000000   0.000520
    34  O    0.000121  -0.000012   0.005506  -0.000035  -0.000025  -0.056494
    35  H   -0.000473   0.000025   0.002862   0.000097   0.000046   0.057835
    36  O    0.000022   0.000003  -0.026415   0.000075   0.000091  -0.085627
    37  H   -0.000018  -0.000001   0.015156  -0.000060  -0.000033   0.046224
    38  H   -0.000002  -0.000000   0.005655  -0.000001  -0.000017   0.022249
    39  O   -0.000498   0.000189  -0.000457  -0.000072   0.000264  -0.039818
    40  H    0.000013   0.000006   0.000388  -0.000494  -0.000017   0.008754
    41  H    0.000450  -0.000353  -0.029136  -0.000335   0.000088   0.073410
    42  O    0.000001   0.000001  -0.016133  -0.000083   0.000047  -0.061256
    43  H    0.000003  -0.000000   0.001438   0.000002  -0.000003   0.005212
    44  H    0.000005   0.000000   0.023853   0.000161  -0.000049   0.022748
              25         26         27         28         29         30
     1  C    0.025098  -0.047823  -0.053326   0.066962  -0.071283  -0.022828
     2  C   -0.021005   0.152061  -0.054273  -0.025581   0.021341   0.035322
     3  C    0.020788  -0.126551  -0.029701  -0.059833  -0.036054  -0.036617
     4  C    0.038369   0.163888   0.038997   0.091629  -0.017896   0.019536
     5  C   -0.025255  -0.154381  -0.068858  -0.060955   0.055742  -0.000399
     6  H    0.000004   0.000122  -0.000089   0.004550  -0.019074   0.000150
     7  H   -0.000360   0.001652  -0.002835  -0.000511   0.000437   0.000014
     8  H    0.000107  -0.001075  -0.001183  -0.000435  -0.001069  -0.000030
     9  H    0.000157  -0.005801   0.001171   0.000510  -0.000047  -0.000010
    10  C    0.000078  -0.009728   0.011451  -0.011417   0.006681   0.000159
    11  H   -0.000002  -0.000257   0.000008   0.002123  -0.000116   0.000000
    12  H   -0.000093   0.001082   0.000011  -0.006380  -0.000626   0.000170
    13  H   -0.000004  -0.000064  -0.000056   0.000512  -0.001456  -0.000008
    14  N   -0.050047   0.015660  -0.032438  -0.002064   0.002025   0.001450
    15  C    0.000456  -0.026978   0.026196  -0.004149   0.002423   0.001231
    16  H   -0.000019   0.001122   0.000718  -0.000036   0.000005   0.000000
    17  H    0.000207  -0.000497   0.003937  -0.000075  -0.000016   0.000000
    18  C   -0.082812   0.069033   0.056196   0.000404   0.000701   0.000175
    19  H    0.000583  -0.010783   0.002697   0.000045  -0.000026   0.000003
    20  H   -0.000113   0.000914   0.000185  -0.000002   0.000001   0.000000
    21  C   -0.091812  -0.252176  -0.168311   0.000338  -0.008721  -0.001955
    22  H    0.000201  -0.002966   0.026388  -0.000087  -0.000007   0.000008
    23  H    0.006863   0.011266  -0.000079   0.000171   0.000000   0.000004
    24  S    0.482047   0.193854   0.043890   0.013108  -0.006929   0.005201
    25  O    8.285766  -0.093336  -0.083347   0.013166  -0.008969  -0.002677
    26  O   -0.093336   8.679519   0.016633   0.000142   0.022993  -0.019174
    27  O   -0.083347   0.016633   9.118627  -0.017688   0.030084   0.002433
    28  P    0.013166   0.000142  -0.017688  12.773614   0.389258   0.208140
    29  O   -0.008969   0.022993   0.030084   0.389258   8.369437  -0.011318
    30  O   -0.002677  -0.019174   0.002433   0.208140  -0.011318   8.271632
    31  H   -0.005238   0.002744  -0.008124   0.044244  -0.005970   0.123758
    32  O    0.000414   0.002334  -0.000003   0.177167   0.005925  -0.033398
    33  H    0.000033  -0.000082  -0.000035  -0.009250  -0.012425  -0.000697
    34  O   -0.000811   0.055651   0.001002   0.238784  -0.057714  -0.053937
    35  H    0.002806   0.011614  -0.001702   0.039726  -0.026321   0.019229
    36  O    0.009081  -0.006030   0.065037  -0.000138   0.018520   0.126264
    37  H    0.008528   0.001866  -0.018190   0.005176  -0.005002  -0.036267
    38  H   -0.000582  -0.002082  -0.018402   0.014996  -0.010809  -0.040664
    39  O   -0.002857   0.001804   0.037028  -0.000224   0.000029   0.000016
    40  H    0.000271   0.000051  -0.003206   0.000071  -0.000010  -0.000001
    41  H    0.000213  -0.000550  -0.068475  -0.000107   0.000332  -0.000006
    42  O   -0.004352   0.010793   0.081570  -0.025125   0.034913   0.026149
    43  H    0.001650  -0.001311  -0.013150   0.023568   0.017105  -0.016783
    44  H    0.003164  -0.013942  -0.034817  -0.002610  -0.013911  -0.003676
              31         32         33         34         35         36
     1  C    0.004129   0.005616   0.000077   0.043299  -0.029739  -0.032759
     2  C   -0.004604  -0.009294   0.000194  -0.058683   0.039378   0.022546
     3  C    0.012215  -0.004427  -0.005619   0.070429  -0.103748  -0.025197
     4  C   -0.004838   0.026861   0.005512  -0.073628   0.107846   0.017354
     5  C   -0.003374  -0.008697  -0.001326  -0.029864   0.006526  -0.000296
     6  H   -0.000055  -0.000156   0.000094  -0.001610   0.000596   0.000057
     7  H   -0.000004  -0.000004  -0.000000  -0.000000   0.000011   0.000081
     8  H    0.000020   0.000001  -0.000001   0.000145  -0.000085  -0.000323
     9  H    0.000003   0.000009  -0.000001   0.000404  -0.000658  -0.000003
    10  C    0.000251  -0.002841   0.001101   0.035781  -0.003859   0.000795
    11  H    0.000000  -0.000039  -0.000007   0.000858  -0.000104  -0.000000
    12  H   -0.000021   0.000398   0.000033  -0.006211   0.002445   0.000010
    13  H    0.000002   0.000424  -0.000015  -0.002019  -0.000347  -0.000003
    14  N   -0.001251  -0.000085   0.000014  -0.005881   0.007416   0.006633
    15  C   -0.001167  -0.000005   0.000020   0.002556   0.001384   0.010357
    16  H    0.000000  -0.000000  -0.000000   0.000009  -0.000015  -0.000001
    17  H    0.000001  -0.000000  -0.000000  -0.000003   0.000001  -0.000024
    18  C    0.000485  -0.000087  -0.000020  -0.007629   0.008455  -0.004130
    19  H   -0.000002  -0.000000   0.000000   0.000121  -0.000473   0.000022
    20  H   -0.000000  -0.000000   0.000000  -0.000012   0.000025   0.000003
    21  C    0.003704  -0.000098   0.000101   0.005506   0.002862  -0.026415
    22  H   -0.000002  -0.000000   0.000000  -0.000035   0.000097   0.000075
    23  H   -0.000005   0.000000  -0.000000  -0.000025   0.000046   0.000091
    24  S    0.016357  -0.000571   0.000520  -0.056494   0.057835  -0.085627
    25  O   -0.005238   0.000414   0.000033  -0.000811   0.002806   0.009081
    26  O    0.002744   0.002334  -0.000082   0.055651   0.011614  -0.006030
    27  O   -0.008124  -0.000003  -0.000035   0.001002  -0.001702   0.065037
    28  P    0.044244   0.177167  -0.009250   0.238784   0.039726  -0.000138
    29  O   -0.005970   0.005925  -0.012425  -0.057714  -0.026321   0.018520
    30  O    0.123758  -0.033398  -0.000697  -0.053937   0.019229   0.126264
    31  H    0.376230  -0.002395   0.000714   0.028999  -0.005061  -0.179741
    32  O   -0.002395   8.084492   0.246002   0.015314   0.001638   0.006198
[...]
      4     -0.000000
      5      0.000000
 Electronic spatial extent (au):  <R**2>=          11048.1675
 Charge=             -0.0000 electrons
 Dipole moment (field-independent basis, Debye):
    X=              1.8480    Y=              0.9281    Z=              0.3871  Tot=              2.1039
 Quadrupole moment (field-independent basis, Debye-Ang):
   XX=             21.7200   YY=             18.9666   ZZ=             -0.3667
   XY=             29.8395   XZ=             20.2148   YZ=             14.2260
 Traceless Quadrupole moment (field-independent basis, Debye-Ang):
   XX=              8.2800   YY=              5.5266   ZZ=            -13.8066
   XY=             29.8395   XZ=             20.2148   YZ=             14.2260
 Octapole moment (field-independent basis, Debye-Ang**2):
  XXX=            179.2506  YYY=            272.3589  ZZZ=           -112.3608  XYY=            425.8207
  XXY=            317.6967  XXZ=            225.1676  XZZ=            159.9819  YZZ=             87.1338
  YYZ=            256.2008  XYZ=            320.9950
 Hexadecapole moment (field-independent basis, Debye-Ang**3):
 XXXX=           1158.2606 YYYY=           3079.6833 ZZZZ=          -2751.5899 XXXY=           2534.8571
 XXXZ=           1840.8625 YYYX=           5562.3527 YYYZ=           3660.2319 ZZZX=            692.2708
 ZZZY=           -535.3962 XXYY=           4312.2674 XXZZ=           1889.8855 YYZZ=           1874.0227
 XXYZ=           3286.0534 YYXZ=           4577.4925 ZZXY=           2668.1351
 N-N= 9.086284491817D+00 E-N=-1.990225343781D+02  KE= 7.618903544070D+01
 No NMR shielding tensors so no spin-rotation constants.
 Leave Link  601 at Tue May 17 13:25:00 2022, MaxMem=  2684354560 cpu:               4.1 elap:               0.3
 (Enter /data0/hywu0/study/g16/l122.exe)
 CPIOFr:  IOpCl= 0 IRwI=-1 IRwCP=  731 ICalc=  9 LCPTot=      842931 Len1MO=     2217644 IndFrg=    23019371
 Counterpoise: doing calculation for fragment   5 using the basis set of the fragment.
 Leave Link  122 at Tue May 17 13:25:00 2022, MaxMem=  2684354560 cpu:               0.5 elap:               0.0
 (Enter /data0/hywu0/study/g16/l301.exe)
 Basis read from rwf:  (5D, 7F)
 No pseudopotential information found on rwf file.
    39 basis functions,    58 primitive gaussians,    41 cartesian basis functions
     5 alpha electrons        5 beta electrons
       nuclear repulsion energy         9.0898723578 Hartrees.
 IExCor= 4336 DFT=T Ex+Corr=M062X ExCW=0 ScaHFX=  0.540000
 ScaDFX=  1.000000  1.000000  1.000000  1.000000 ScalE2=  1.000000  1.000000
 IRadAn=      5 IRanWt=     -1 IRanGd=            0 ICorTp=0 IEmpDi=131
 NAtoms=   44 NActive=    3 NUniq=    3 SFac= 1.00D+00 NAtFMM=   60 NAOKFM=F Big=F
 Integral buffers will be    131072 words long.
 Raffenetti 2 integral format.
 Two-electron integral symmetry is turned off.
 R6Disp:  Grimme-D3 Dispersion energy=       -0.0000000074 Hartrees.
 Nuclear repulsion after empirical dispersion term =        9.0898723504 Hartrees.
 No density basis found on file   718.
 Leave Link  301 at Tue May 17 13:25:00 2022, MaxMem=  2684354560 cpu:               1.0 elap:               0.1
 (Enter /data0/hywu0/study/g16/l302.exe)
 NPDir=0 NMtPBC=     1 NCelOv=     1 NCel=       1 NClECP=     1 NCelD=      1
         NCelK=      1 NCelE2=     1 NClLst=     1 CellRange=     0.0.
 One-electron integrals computed using PRISM.
 NBasis=    39 RedAO= T EigKep=  3.01D-03  NBF=    39
 NBsUse=    39 1.00D-06 EigRej= -1.00D+00 NBFU=    39
 Precomputing XC quadrature grid using
 IXCGrd= 4 IRadAn=           5 IRanWt=          -1 IRanGd=           0 AccXCQ= 0.00D+00.
 Generated NRdTot=       0 NPtTot=           0 NUsed=           0 NTot=          32
 NSgBfM=    41    41    41    41    41 MxSgAt=     3 MxSgA2=     3.
 Leave Link  302 at Tue May 17 13:25:00 2022, MaxMem=  2684354560 cpu:               1.8 elap:               0.1
 (Enter /data0/hywu0/study/g16/l303.exe)
 DipDrv:  MaxL=1.
 Leave Link  303 at Tue May 17 13:25:00 2022, MaxMem=  2684354560 cpu:               0.5 elap:               0.0
 (Enter /data0/hywu0/study/g16/l401.exe)
 ExpMin= 8.45D-02 ExpMax= 8.59D+03 ExpMxC= 1.30D+03 IAcc=3 IRadAn=         5 AccDes= 0.00D+00
 Harris functional with IExCor= 1009 and IRadAn=       5 diagonalized for initial guess.
 HarFok:  IExCor= 1009 AccDes= 0.00D+00 IRadAn=         5 IDoV= 1 UseB2=F ITyADJ=14
 ICtDFT=  3500011 ScaDFX=  1.000000  1.000000  1.000000  1.000000
 FoFCou: FMM=F IPFlag=           0 FMFlag=      100000 FMFlg1=           0
         NFxFlg=           0 DoJE=T BraDBF=F KetDBF=T FulRan=T
         wScrn=  0.000000 ICntrl=       500 IOpCl=  0 I1Cent=   200000004 NGrid=           0
         NMat0=    1 NMatS0=      1 NMatT0=    0 NMatD0=    1 NMtDS0=    0 NMtDT0=    0
 Symmetry not used in FoFCou.
 Harris En= -76.4162525822385    
 JPrj=0 DoOrth=F DoCkMO=F.
 Leave Link  401 at Tue May 17 13:25:00 2022, MaxMem=  2684354560 cpu:               2.0 elap:               0.1
 (Enter /data0/hywu0/study/g16/l502.exe)
 Keep R1 ints in memory in canonical form, NReq=14136253.
 FoFCou: FMM=F IPFlag=           0 FMFlag=           0 FMFlg1=           0
         NFxFlg=           0 DoJE=F BraDBF=F KetDBF=F FulRan=T
         wScrn=  0.000000 ICntrl=       600 IOpCl=  0 I1Cent=           0 NGrid=           0
         NMat0=    1 NMatS0=    780 NMatT0=    0 NMatD0=    1 NMtDS0=    0 NMtDT0=    0
 Symmetry not used in FoFCou.
 Two-electron integral symmetry not used.
 Closed shell SCF:
 Using DIIS extrapolation, IDIIS=  1040.
 NGot=  2684354560 LenX=  2684044211 LenY=  2684042089
 Requested convergence on RMS density matrix=1.00D-08 within 128 cycles.
 Requested convergence on MAX density matrix=1.00D-06.
 Requested convergence on             energy=1.00D-06.
 No special actions if energy rises.
 Integral accuracy reduced to 1.0D-05 until final iterations.

 Cycle   1  Pass 0  IDiag  1:
 E= -76.3466045586818    
 DIIS: error= 6.99D-02 at cycle   1 NSaved=   1.
 NSaved= 1 IEnMin= 1 EnMin= -76.3466045586818     IErMin= 1 ErrMin= 6.99D-02
 ErrMax= 6.99D-02  0.00D+00 EMaxC= 1.00D-01 BMatC= 1.20D-01 BMatP= 1.20D-01
 IDIUse=3 WtCom= 3.01D-01 WtEn= 6.99D-01
 Coeff-Com:  0.100D+01
 Coeff-En:   0.100D+01
 Coeff:      0.100D+01
 Gap=     0.325 Goal=   None    Shift=    0.000
 GapD=    0.325 DampG=1.000 DampE=0.500 DampFc=0.5000 IDamp=-1.
 Damping current iteration by 5.00D-01
 RMSDP=7.96D-03 MaxDP=1.01D-01              OVMax= 1.68D-01

 Cycle   2  Pass 0  IDiag  1:
 E= -76.3778512567934     Delta-E=       -0.031246698112 Rises=F Damp=T
 DIIS: error= 1.13D-02 at cycle   2 NSaved=   2.
 NSaved= 2 IEnMin= 2 EnMin= -76.3778512567934     IErMin= 2 ErrMin= 1.13D-02
 ErrMax= 1.13D-02  0.00D+00 EMaxC= 1.00D-01 BMatC= 4.85D-03 BMatP= 1.20D-01
 IDIUse=3 WtCom= 8.87D-01 WtEn= 1.13D-01
 Coeff-Com:  0.832D-01 0.917D+00
 Coeff-En:   0.189D+00 0.811D+00
 Coeff:      0.951D-01 0.905D+00
 Gap=     0.457 Goal=   None    Shift=    0.000
 RMSDP=9.49D-04 MaxDP=1.41D-02 DE=-3.12D-02 OVMax= 1.00D-01

 Cycle   3  Pass 0  IDiag  1:
 E= -76.4216392707154     Delta-E=       -0.043788013922 Rises=F Damp=F
 DIIS: error= 2.16D-03 at cycle   3 NSaved=   3.
 NSaved= 3 IEnMin= 3 EnMin= -76.4216392707154     IErMin= 3 ErrMin= 2.16D-03
 ErrMax= 2.16D-03  0.00D+00 EMaxC= 1.00D-01 BMatC= 9.07D-05 BMatP= 4.85D-03
 IDIUse=3 WtCom= 9.78D-01 WtEn= 2.16D-02
 Coeff-Com: -0.199D-01 0.394D-01 0.981D+00
 Coeff-En:   0.000D+00 0.000D+00 0.100D+01
 Coeff:     -0.195D-01 0.385D-01 0.981D+00
 Gap=     0.461 Goal=   None    Shift=    0.000
 RMSDP=1.14D-04 MaxDP=9.48D-04 DE=-4.38D-02 OVMax= 3.32D-03

 Cycle   4  Pass 0  IDiag  1:
 E= -76.4217167203443     Delta-E=       -0.000077449629 Rises=F Damp=F
 DIIS: error= 4.14D-04 at cycle   4 NSaved=   4.
 NSaved= 4 IEnMin= 4 EnMin= -76.4217167203443     IErMin= 4 ErrMin= 4.14D-04
 ErrMax= 4.14D-04  0.00D+00 EMaxC= 1.00D-01 BMatC= 3.28D-06 BMatP= 9.07D-05
 IDIUse=3 WtCom= 9.96D-01 WtEn= 4.14D-03
 Coeff-Com: -0.189D-02-0.225D-02 0.162D+00 0.842D+00
 Coeff-En:   0.000D+00 0.000D+00 0.000D+00 0.100D+01
 Coeff:     -0.188D-02-0.225D-02 0.161D+00 0.843D+00
 Gap=     0.462 Goal=   None    Shift=    0.000
 RMSDP=2.22D-05 MaxDP=3.55D-04 DE=-7.74D-05 OVMax= 5.38D-04

 Cycle   5  Pass 0  IDiag  1:
 E= -76.4217187494658     Delta-E=       -0.000002029121 Rises=F Damp=F
 DIIS: error= 8.89D-05 at cycle   5 NSaved=   5.
 NSaved= 5 IEnMin= 5 EnMin= -76.4217187494658     IErMin= 5 ErrMin= 8.89D-05
 ErrMax= 8.89D-05  0.00D+00 EMaxC= 1.00D-01 BMatC= 8.25D-08 BMatP= 3.28D-06
 IDIUse=1 WtCom= 1.00D+00 WtEn= 0.00D+00
 Coeff-Com:  0.118D-02-0.180D-02-0.368D-01-0.640D-01 0.110D+01
 Coeff:      0.118D-02-0.180D-02-0.368D-01-0.640D-01 0.110D+01
 Gap=     0.462 Goal=   None    Shift=    0.000
 RMSDP=8.99D-06 MaxDP=1.02D-04 DE=-2.03D-06 OVMax= 2.03D-04

 Initial convergence to 1.0D-05 achieved.  Increase integral accuracy.
 Cycle   6  Pass 1  IDiag  1:
 E= -76.4217075773936     Delta-E=        0.000011172072 Rises=F Damp=F
 DIIS: error= 3.51D-05 at cycle   1 NSaved=   1.
 NSaved= 1 IEnMin= 1 EnMin= -76.4217075773936     IErMin= 1 ErrMin= 3.51D-05
 ErrMax= 3.51D-05  0.00D+00 EMaxC= 1.00D-01 BMatC= 1.98D-08 BMatP= 1.98D-08
 IDIUse=1 WtCom= 1.00D+00 WtEn= 0.00D+00
 Coeff-Com:  0.100D+01
 Coeff:      0.100D+01
 Gap=     0.462 Goal=   None    Shift=    0.000
 RMSDP=8.99D-06 MaxDP=1.02D-04 DE= 1.12D-05 OVMax= 5.29D-05

 Cycle   7  Pass 1  IDiag  1:
 E= -76.4217075942135     Delta-E=       -0.000000016820 Rises=F Damp=F
 DIIS: error= 1.00D-05 at cycle   2 NSaved=   2.
 NSaved= 2 IEnMin= 2 EnMin= -76.4217075942135     IErMin= 2 ErrMin= 1.00D-05
 ErrMax= 1.00D-05  0.00D+00 EMaxC= 1.00D-01 BMatC= 1.60D-09 BMatP= 1.98D-08
 IDIUse=1 WtCom= 1.00D+00 WtEn= 0.00D+00
 Coeff-Com:  0.384D-01 0.962D+00
 Coeff:      0.384D-01 0.962D+00
 Gap=     0.462 Goal=   None    Shift=    0.000
 RMSDP=8.98D-07 MaxDP=1.54D-05 DE=-1.68D-08 OVMax= 2.34D-05

 Cycle   8  Pass 1  IDiag  1:
 E= -76.4217075944803     Delta-E=       -0.000000000267 Rises=F Damp=F
 DIIS: error= 8.09D-06 at cycle   3 NSaved=   3.
 NSaved= 3 IEnMin= 3 EnMin= -76.4217075944803     IErMin= 3 ErrMin= 8.09D-06
 ErrMax= 8.09D-06  0.00D+00 EMaxC= 1.00D-01 BMatC= 1.65D-09 BMatP= 1.60D-09
 IDIUse=1 WtCom= 1.00D+00 WtEn= 0.00D+00
 Coeff-Com: -0.509D-01 0.527D+00 0.524D+00
 Coeff:     -0.509D-01 0.527D+00 0.524D+00
 Gap=     0.462 Goal=   None    Shift=    0.000
 RMSDP=4.46D-07 MaxDP=5.77D-06 DE=-2.67D-10 OVMax= 1.06D-05

 Cycle   9  Pass 1  IDiag  1:
 E= -76.4217075955689     Delta-E=       -0.000000001089 Rises=F Damp=F
 DIIS: error= 5.86D-07 at cycle   4 NSaved=   4.
 NSaved= 4 IEnMin= 4 EnMin= -76.4217075955689     IErMin= 4 ErrMin= 5.86D-07
 ErrMax= 5.86D-07  0.00D+00 EMaxC= 1.00D-01 BMatC= 4.70D-12 BMatP= 1.60D-09
 IDIUse=1 WtCom= 1.00D+00 WtEn= 0.00D+00
 Coeff-Com:  0.298D-03-0.448D-01-0.234D-01 0.107D+01
 Coeff:      0.298D-03-0.448D-01-0.234D-01 0.107D+01
 Gap=     0.462 Goal=   None    Shift=    0.000
 RMSDP=8.98D-08 MaxDP=7.30D-07 DE=-1.09D-09 OVMax= 1.85D-06

 Cycle  10  Pass 1  IDiag  1:
 E= -76.4217075955796     Delta-E=       -0.000000000011 Rises=F Damp=F
 DIIS: error= 1.22D-07 at cycle   5 NSaved=   5.
 NSaved= 5 IEnMin= 5 EnMin= -76.4217075955796     IErMin= 5 ErrMin= 1.22D-07
 ErrMax= 1.22D-07  0.00D+00 EMaxC= 1.00D-01 BMatC= 3.33D-13 BMatP= 4.70D-12
 IDIUse=1 WtCom= 1.00D+00 WtEn= 0.00D+00
 Coeff-Com:  0.336D-02-0.403D-01-0.344D-01 0.995D-01 0.972D+00
 Coeff:      0.336D-02-0.403D-01-0.344D-01 0.995D-01 0.972D+00
 Gap=     0.462 Goal=   None    Shift=    0.000
 RMSDP=2.44D-08 MaxDP=1.87D-07 DE=-1.07D-11 OVMax= 5.17D-07

 Cycle  11  Pass 1  IDiag  1:
 E= -76.4217075955800     Delta-E=       -0.000000000000 Rises=F Damp=F
 DIIS: error= 1.86D-08 at cycle   6 NSaved=   6.
 NSaved= 6 IEnMin= 6 EnMin= -76.4217075955800     IErMin= 6 ErrMin= 1.86D-08
 ErrMax= 1.86D-08  0.00D+00 EMaxC= 1.00D-01 BMatC= 5.47D-15 BMatP= 3.33D-13
 IDIUse=1 WtCom= 1.00D+00 WtEn= 0.00D+00
 Coeff-Com: -0.162D-03 0.265D-02 0.303D-02-0.297D-01-0.712D-01 0.110D+01
 Coeff:     -0.162D-03 0.265D-02 0.303D-02-0.297D-01-0.712D-01 0.110D+01
 Gap=     0.462 Goal=   None    Shift=    0.000
 RMSDP=4.08D-09 MaxDP=3.51D-08 DE=-4.12D-13 OVMax= 8.20D-08

 SCF Done:  E(RM062X) =  -76.4217075956     A.U. after   11 cycles
            NFock= 11  Conv=0.41D-08     -V/T= 2.0030
 KE= 7.619149095485D+01 PE=-1.990272528097D+02 EE= 3.732418190886D+01
 Leave Link  502 at Tue May 17 13:25:01 2022, MaxMem=  2684354560 cpu:               7.2 elap:               0.5
 (Enter /data0/hywu0/study/g16/l601.exe)
 Copying SCF densities to generalized density rwf, IOpCl= 0 IROHF=0.

 **********************************************************************

            Population analysis using the SCF density.

 **********************************************************************

 Alpha  occ. eigenvalues --  -19.62676  -1.13350  -0.60470  -0.47700  -0.39997
 Alpha virt. eigenvalues --    0.06214   0.13304   0.17420   0.17943   0.18903
 Alpha virt. eigenvalues --    0.23400   0.50882   0.53411   0.98107   1.00261
 Alpha virt. eigenvalues --    1.06008   1.17577   1.20133   1.31958   1.34007
 Alpha virt. eigenvalues --    1.70428   1.74271   1.75304   2.07369   2.09563
 Alpha virt. eigenvalues --    2.36316   2.39638   2.54857   2.87779   3.01222
 Alpha virt. eigenvalues --    5.05626   5.48722   5.90803   6.78477   6.80051
 Alpha virt. eigenvalues --    6.87330   6.91614   7.09519  49.95529
          Condensed to atoms (all electrons):
              42         43         44
    42  O    7.918189   0.318885   0.316291
    43  H    0.318885   0.429402  -0.023820
    44  H    0.316291  -0.023820   0.429699
 Mulliken charges:
               1
     1  C    0.000000
     2  C    0.000000
     3  C    0.000000
     4  C    0.000000
     5  C    0.000000
     6  H    0.000000
     7  H    0.000000
     8  H    0.000000
     9  H    0.000000
    10  C    0.000000
    11  H    0.000000
    12  H    0.000000
    13  H    0.000000
    14  N    0.000000
    15  C    0.000000
    16  H    0.000000
    17  H    0.000000
    18  C    0.000000
    19  H    0.000000
    20  H    0.000000
    21  C    0.000000
    22  H    0.000000
    23  H    0.000000
    24  S    0.000000
    25  O    0.000000
    26  O    0.000000
    27  O    0.000000
    28  P    0.000000
    29  O    0.000000
    30  O    0.000000
    31  H    0.000000
    32  O    0.000000
    33  H    0.000000
    34  O    0.000000
    35  H    0.000000
    36  O    0.000000
    37  H    0.000000
    38  H    0.000000
    39  O    0.000000
    40  H    0.000000
    41  H    0.000000
    42  O   -0.553364
    43  H    0.275533
    44  H    0.277831
 Sum of Mulliken charges =  -0.00000
 Mulliken charges with hydrogens summed into heavy atoms:
               1
     1  C    0.000000
     2  C    0.000000
     3  C    0.000000
     4  C    0.000000
     5  C    0.000000
    10  C    0.000000
    14  N    0.000000
    15  C    0.000000
    18  C    0.000000
    21  C    0.000000
    24  S    0.000000
    25  O    0.000000
    26  O    0.000000
    27  O    0.000000
    28  P    0.000000
    29  O    0.000000
    30  O    0.000000
    32  O    0.000000
    34  O    0.000000
    36  O    0.000000
    39  O    0.000000
    42  O   -0.000000
         Mulliken charges condensed to fragments:
      1      0.000000
      2      0.000000
      3      0.000000
      4      0.000000
      5     -0.000000
 Electronic spatial extent (au):  <R**2>=          14537.8593
 Charge=             -0.0000 electrons
 Dipole moment (field-independent basis, Debye):
    X=             -0.0967    Y=             -1.9522    Z=             -0.8609  Tot=              2.1358
 Quadrupole moment (field-independent basis, Debye-Ang):
   XX=             -8.6238   YY=            -54.5639   ZZ=            -25.7365
   XY=            -22.9661   XZ=             -8.9781   YZ=            -33.5683
 Traceless Quadrupole moment (field-independent basis, Debye-Ang):
   XX=             21.0176   YY=            -24.9225   ZZ=              3.9050
   XY=            -22.9661   XZ=             -8.9781   YZ=            -33.5683
 Octapole moment (field-independent basis, Debye-Ang**2):
  XXX=           -246.3590  YYY=          -1130.7186  ZZZ=           -548.9503  XYY=           -620.9736
  XXY=           -350.0757  XXZ=           -169.4684  XZZ=           -258.1753  YZZ=           -588.1900
  YYZ=           -771.2048  XYZ=           -366.8344
 Hexadecapole moment (field-independent basis, Debye-Ang**3):
 XXXX=          -5101.9357 YYYY=         -20640.5579 ZZZZ=         -10074.9250 XXXY=          -5775.0377
 XXXZ=          -3442.6064 YYYX=         -12706.6162 YYYZ=         -14862.8506 ZZZX=          -5520.0461
 ZZZY=          -9975.8272 XXYY=          -8072.4362 XXZZ=          -3459.6987 YYZZ=         -11453.9234
 XXYZ=          -4957.9020 YYXZ=          -8482.9150 ZZXY=          -6206.8166
 N-N= 9.089872350431D+00 E-N=-1.990272531267D+02  KE= 7.619149095485D+01
 No NMR shielding tensors so no spin-rotation constants.
 Leave Link  601 at Tue May 17 13:25:01 2022, MaxMem=  2684354560 cpu:               1.2 elap:               0.1
 (Enter /data0/hywu0/study/g16/l122.exe)
 CPIOFr:  IOpCl= 0 IRwI=-1 IRwCP=  731 ICalc= 10 LCPTot=      842931 Len1MO=     2217644 IndFrg=    25237015
 Restoring MOs from calculation   1 to rwf.
 CPIOFr:  IOpCl= 0 IRwI=-2 IRwCP=  731 ICalc=  0 LCPTot=      842931 Len1MO=     2217644 IndFrg=     3060575
 Counterpoise corrected energy =   -1902.800356475215
                   BSSE energy =       0.008976040460
              sum of fragments =   -1902.679471023200
           complexation energy =     -81.49 kcal/mole (raw)
           complexation energy =     -75.86 kcal/mole (corrected)
 Leave Link  122 at Tue May 17 13:25:01 2022, MaxMem=  2684354560 cpu:               2.0 elap:               0.1
 (Enter /data0/hywu0/study/g16/l9999.exe)
 1\1\GINC-LOCALHOST\SP\RM062X\6-311+G(2d,p)\C9H22N1O10P1S1\HYWU0\17-May
 -2022\0\\#p M062X/6-311+G(2d,p) nosymm em=GD3 counterpoise=5\\Title Ca
 rd Required\\0,1\C,0,8.224521,10.238203,10.972404\C,0,9.025047,9.93643
 8,12.075114\C,0,9.651635,8.698713,12.168146\C,0,9.494654,7.776267,11.1
 22039\C,0,8.718524,8.126306,10.017284\H,0,10.270542,8.450397,13.038618
 \H,0,7.71029,11.213005,10.885908\H,0,9.190877,10.704981,12.837472\H,0,
 8.640189,7.461325,9.149226\C,0,10.177895,6.458854,11.138091\H,0,9.4855
 57,5.616869,11.027034\H,0,10.917704,6.394718,10.312138\H,0,10.76245,6.
 294375,12.057492\N,0,8.06685,9.327097,9.970187\C,0,7.218458,9.663707,8
 .801203\H,0,6.309994,9.02039,8.841723\H,0,6.859191,10.725268,8.897001\
 C,0,7.919124,9.493889,7.437824\H,0,8.442376,8.514144,7.380978\H,0,7.12
 6526,9.441867,6.658738\C,0,8.880656,10.624054,7.084845\H,0,8.357492,11
 .601144,7.085889\H,0,9.264771,10.497684,6.056237\S,0,10.265817,10.6974
 29,8.238213\O,0,11.380242,11.421741,7.634001\O,0,10.515107,9.273832,8.
 592287\O,0,9.656751,11.446768,9.39728\P,0,13.088985,9.151688,11.102024
 \O,0,12.004801,9.736103,11.902005\O,0,14.183714,10.117464,10.496994\H,
 0,13.746632,11.041569,10.216637\O,0,13.969591,8.165743,12.000145\H,0,1
 4.7522,7.833945,11.416693\O,0,12.662765,8.189602,9.919108\H,0,11.85131
 9,8.617474,9.388622\O,0,13.072938,12.522995,9.70175\H,0,12.603292,12.2
 73286,8.883009\H,0,12.367824,12.704391,10.342057\O,0,7.365961,12.83989
 7,9.363178\H,0,7.505833,13.75408,9.579144\H,0,8.266965,12.434474,9.362
 144\O,0,10.840604,12.49929,11.632993\H,0,11.270291,11.694976,11.935899
 \H,0,10.35307,12.203576,10.840249\\Version=ES64L-G16RevA.03\HF=-76.421
 7076\RMSD=4.081e-09\Dipole=-3.3648412,-2.2527431,-0.7782908\Quadrupole
 =-51.3492957,-2.2317327,53.5810284,-111.2313759,-74.7673479,-58.492664
 3\PG=C01 [X(C9H22N1O10P1S1)]\\@


 NATURE REVEALS EVERY SECRET ONCE.
                    - RALPH WALDO EMERSON
 Job cpu time:       0 days 13 hours 10 minutes 45.3 seconds.
 Elapsed time:       0 days  0 hours 49 minutes 39.7 seconds.
 File lengths (MBytes):  RWF=    536 Int=      0 D2E=      0 Chk=    223 Scr=      1
 Normal termination of Gaussian 16 at Tue May 17 13:25:02 2022.
