          23
 Energy =  -1024.00295970 a.u.  #Cluster:    1
C           8.94864300     10.62571600      5.06888500
C          10.27405700     10.12199400      4.84711700
C          11.20554700     10.87709100      4.12809400
C          10.79632200     12.10916000      3.64940700
C           9.49048800     12.59726800      3.87142500
C           8.54836700     11.87092100      4.57992300
H          12.21023400     10.49357200      3.96152300
H          11.49352500     12.72731300      3.08445500
H           9.22469800     13.57553900      3.46991800
H           7.54597100     12.24948000      4.74851600
H           7.34495200      9.68918500      6.12716100
C           9.20139000      8.59402800      6.01179400
H           8.94795600      7.69212700      6.56464300
N           8.28500300      9.63992400      5.80937300
N          10.38007100      8.86279400      5.44842400
P          11.92638200      5.96067200      6.98705400
O          10.48878200      5.76144500      7.09897900
O          12.82479000      4.66314500      6.70995400
H          12.82936700      4.48745700      5.70090300
O          12.47214300      6.94169300      5.86557800
H          11.75656200      7.69562100      5.66718900
O          12.54388900      6.46966600      8.36200400
H          13.56087100      6.56420400      8.24768800
          23
 Energy =  -1024.00217000 a.u.  #Cluster:    2
C           8.98043600     10.56146300      5.29808200
C          10.25947500     10.09157800      4.84752800
C          11.20122300     10.98899000      4.33522500
C          10.84692400     12.32556300      4.28181000
C           9.58567600     12.77929100      4.72434900
C           8.63511800     11.91298100      5.23750100
H          12.17222800     10.63130400      3.99819200
H          11.55379400     13.05599700      3.88923100
H           9.36207700     13.84430700      4.65723900
H           7.66732900     12.26572100      5.57714500
H           7.37903600      9.41879600      6.13432500
C           9.15250600      8.32998800      5.56367500
H           8.87486900      7.31561900      5.84087000
N           8.29334500      9.42652800      5.74604000
N          10.31557800      8.70491200      5.02835200
P          11.98757400      5.96514100      6.54124900
O          10.60230600      5.77632600      6.95778100
O          12.76354900      4.57930600      6.41943800
H          13.69294300      4.76456000      6.01963600
O          12.30999900      6.65179700      5.15352700
H          11.70015900      7.52224900      5.06409300
O          12.90213600      6.84045700      7.52668800
H          12.55173800      6.73713500      8.47802500
          23
 Energy =  -1024.00199650 a.u.  #Cluster:    3
C           9.02125000     10.49899600      5.77378600
C           9.35152200      9.29566500      5.06483300
C           9.08969700      9.18811200      3.69571700
C           8.50530100     10.27507800      3.06969900
C           8.18050700     11.45385600      3.77491800
C           8.43046900     11.58815700      5.13025200
H           9.34559300      8.27673200      3.15881500
H           8.28597800     10.23004300      2.00332800
H           7.72055200     12.27782600      3.22878500
H           8.18011000     12.49596400      5.66835200
H           9.33197100     10.93377700      7.84359400
C           9.95761100      8.98620300      7.15723700
H          10.35686300      8.55844500      8.07387000
N           9.41167500     10.27934400      7.10054700
N           9.92310200      8.38876200      5.96470800
P          12.87330300      6.59665300      6.70815300
O          12.63632900      7.36151400      7.92757100
O          13.64324600      5.23382400      7.00333500
H          13.68453900      4.69170600      6.13012800
O          11.65052600      6.10647000      5.83269200
H          10.98139800      6.92731100      5.70805400
O          13.76997600      7.31889900      5.59101400
H          14.40848800      7.96667600      6.05061500
          23
 Energy =  -1023.99791550 a.u.  #Cluster:    4
C           9.15226600     10.78527400      5.81221500
C           9.55189900      9.69103500      4.97430300
C           8.84316400      9.40087200      3.80413500
C           7.76047100     10.20577500      3.49787700
C           7.37486500     11.28200500      4.32647900
C           8.05729900     11.59049200      5.49088700
H           9.14659700      8.56775700      3.17222900
H           7.18195800     10.01191700      2.59481900
H           6.51264200     11.88195500      4.03356700
H           7.75737000     12.41738700      6.12540000
H          10.04394600     11.43555000      7.64259200
C          10.95197000      9.73536900      6.67068600
H          11.76235400      9.50592500      7.35472900
N          10.05482800     10.79595500      6.88287400
N          10.67040600      9.07581100      5.54668500
P          12.67165200      6.06877200      6.36411200
O          11.79435400      4.94985500      6.65934600
O          14.18893700      5.60106900      6.22577300
H          14.74334800      6.38284300      5.85956600
O          12.47027700      6.92945900      5.05551100
H          11.64154400      7.58335200      5.19342800
O          12.71815500      7.22672700      7.48675900
H          12.65971200      6.80485100      8.40603400
          23
 Energy =  -1023.99557360 a.u.  #Cluster:    5
C           9.65853700     10.17660800      5.87083100
C           8.99142500      9.07156900      5.24341900
C           8.67365500      9.11966300      3.88413200
C           9.03181200     10.25892400      3.18273500
C           9.69327400     11.33749800      3.80552000
C          10.01707100     11.31783100      5.15250900
H           8.16584900      8.28337300      3.41035300
H           8.80173700     10.33184100      2.12120700
H           9.95599900     12.20610700      3.20290000
H          10.53288800     12.14470900      5.62813100
H          10.43322600     10.26399400      7.85695900
C           9.28500200      8.52470100      7.35168700
H           9.29913700      7.98936000      8.29233300
N           9.80154800      9.82475700      7.22061800
N           8.78486400      8.06470900      6.19972500
P          12.31412700      7.33829400      6.20441700
O          11.90527900      7.87334900      7.49706500
O          13.59554300      6.38672100      6.15597700
H          13.32836300      5.47501700      6.54825400
O          11.25621100      6.44281600      5.41811400
H          10.29121500      6.77996500      5.61248700
O          12.74975000      8.50016800      5.21338300
H          13.03350300      8.07803100      4.31724700
          23
 Energy =  -1023.99533290 a.u.  #Cluster:    6
C           9.03229700     11.02274200      5.71886100
C           9.83760200      9.85313900      5.51154200
C          10.11291200      9.40732200      4.21366000
C           9.57946800     10.13344700      3.16428500
C           8.78621100     11.28210500      3.37777100
C           8.49897300     11.74653200      4.64933500
H          10.72981200      8.52096100      4.04833300
H           9.77361400      9.81843200      2.13897200
H           8.39375500     11.81326300      2.50992600
H           7.89092300     12.62951800      4.81107100
H           8.46674900     11.92204400      7.57450700
C           9.69507600     10.15159800      7.68623600
H           9.80592700     10.03949400      8.75524100
N           8.95437700     11.19419300      7.10590700
N          10.22158000      9.35023500      6.76001400
P          12.49124300      6.34136400      6.03971800
O          13.68704500      7.07520100      5.67369300
O          12.70228700      4.82667700      6.52220400
H          12.67845200      4.80629500      7.54558700
O          11.57609900      6.88622900      7.21642800
H          11.23573400      7.85856500      6.98668500
O          11.53241500      6.15867300      4.77676200
H          10.77746000      5.51198000      5.01326500
          23
 Energy =  -1023.99479730 a.u.  #Cluster:    7
C           9.10201300     10.79285500      5.73263900
C           9.53541900      9.72184700      4.87677000
C           9.11842300      9.67602800      3.53262800
C           8.28893900     10.68925600      3.08479000
C           7.86551200     11.74340700      3.93782700
C           8.25909600     11.81549600      5.26355400
H           9.44809400      8.86535800      2.88563800
H           7.94435700     10.69001400      2.05073600
H           7.21206500     12.51258100      3.52553000
H           7.93616000     12.62102600      5.91541700
H           9.58875000     11.10893000      7.81203000
C          10.44313400      9.35734800      6.86430500
H          11.01920200      8.91496200      7.69188000
N           9.68992200     10.54150000      6.99065200
N          10.36484900      8.85341300      5.61612000
P          12.68410300      6.49895400      6.56319200
O          12.27716700      7.30833400      7.71939700
O          12.72032800      4.85098500      6.69769800
H          12.00532900      4.34920600      6.23208900
O          11.79546800      6.58862200      5.21359800
H          11.14745800      7.44675500      5.11478000
O          14.23613500      6.74462700      6.09715500
H          14.64809000      6.04850500      5.52157300
          23
 Energy =  -1023.99155170 a.u.  #Cluster:    8
C          10.24713400     10.07595300      5.23173800
C           8.90113300     10.35894100      5.64977600
C           7.84348200     10.24430400      4.73991300
C           8.14615200      9.84433600      3.45187200
C           9.47188100      9.56257500      3.05124000
C          10.53834300      9.67586400      3.92362500
H           6.82725800     10.46866000      5.05585500
H           7.34920800      9.74328200      2.71703600
H           9.64823800      9.25062400      2.02275900
H          11.55887900      9.46253900      3.61512100
H          12.03058500     10.03980400      6.43072200
C          10.18997000     10.66325600      7.39608500
H          10.54876800     10.88107100      8.39064200
N          11.05109900     10.30213800      6.35040700
N           8.91443100     10.72072400      6.99972300
P          12.45818600      7.09543900      6.21659800
O          12.84955200      8.39338700      6.75715000
O          10.92378100      6.69000600      6.38170500
H          10.33508100      7.51636000      6.22830000
O          12.77928800      6.99638100      4.66754600
H          12.56328100      6.04019000      4.34688000
O          13.16985500      5.79441900      6.79342100
H          12.92442800      5.71975800      7.79188900
          23
 Energy =  -1023.99001580 a.u.  #Cluster:    9
C          10.01093000      9.54790600      4.70950600
C           9.27884300     10.69106900      5.18527300
C           7.87974700     10.66892600      5.21246700
C           7.24728500      9.51829900      4.77938700
C           7.97400000      8.39981000      4.31380300
C           9.35603000      8.39503200      4.26478300
H           7.32868600     11.53798600      5.56506600
H           6.15990400      9.46411400      4.78912700
H           7.42069500      7.52179000      3.98245200
H           9.91188700      7.54037600      3.88954400
H          12.13919300      9.24815600      4.68993700
C          11.40804600     11.18327400      5.34462200
H          12.33920500     11.69346300      5.53896400
N          11.36005100      9.89470700      4.79435000
N          10.18744000     11.68266400      5.56436400
P          12.19631000      6.96097600      6.61764900
O          12.86348900      7.87071000      5.68829900
O          13.11330200      6.32455400      7.75018100
H          13.47481800      7.09956700      8.32756800
O          10.98933000      7.56689400      7.45501800
H          10.30578700      7.96549700      6.78595700
O          11.53406600      5.67338000      5.95850600
H          12.29095900      5.11085900      5.54317900
          23
 Energy =  -1023.98817880 a.u.  #Cluster:   10
C           9.31056300      9.47950400      5.38862100
C           9.33565400     10.88413000      5.69904200
C           9.40707200     11.83032200      4.67060400
C           9.46109300     11.36301600      3.37025900
C           9.43808200      9.98204100      3.07430700
C           9.35934100      9.02281000      4.06769100
H           9.41787600     12.89192600      4.90773300
H           9.51880800     12.07063200      2.54491500
H           9.48010400      9.67343700      2.03035500
H           9.32650100      7.96112200      3.83768900
H           9.33359800      7.81583300      6.75065200
C           9.23642400      9.80864700      7.60533700
H           9.19562400      9.57213100      8.65758600
N           9.21967300      8.81824300      6.61340000
N           9.28385200     11.04013900      7.08673900
P          11.95586900      6.63799100      6.02165200
O          10.68470000      6.56072600      6.73881400
O          13.11695000      7.46121500      6.73048800
H          13.28624400      7.03551500      7.65362500
O          12.66307900      5.24638100      5.72009400
H          11.99362500      4.67002000      5.18688500
O          11.89294400      7.30683900      4.58104100
H          11.70233400      8.31738700      4.70247300
