 Entering Gaussian System, Link 0=g16
 Initial command:
 /data0/home/software/g16/l1.exe "/data0/home/software/g16/scratch/Gau-3829795.inp" -scrdir="/data0/home/software/g16/scratch/"
 Default is to use a total of  22 processors:
                               22 via shared-memory
                                1 via Linda
 Entering Link 1 = /data0/home/software/g16/l1.exe PID=   3829796.
  
 Copyright (c) 1988,1990,1992,1993,1995,1998,2003,2009,2016,
            Gaussian, Inc.  All Rights Reserved.
  
 This is part of the Gaussian(R) 16 program.  It is based on
 the Gaussian(R) 09 system (copyright 2009, Gaussian, Inc.),
 the Gaussian(R) 03 system (copyright 2003, Gaussian, Inc.),
 the Gaussian(R) 98 system (copyright 1998, Gaussian, Inc.),
 the Gaussian(R) 94 system (copyright 1995, Gaussian, Inc.),
 the Gaussian 92(TM) system (copyright 1992, Gaussian, Inc.),
 the Gaussian 90(TM) system (copyright 1990, Gaussian, Inc.),
 the Gaussian 88(TM) system (copyright 1988, Gaussian, Inc.),
 the Gaussian 86(TM) system (copyright 1986, Carnegie Mellon
 University), and the Gaussian 82(TM) system (copyright 1983,
 Carnegie Mellon University). Gaussian is a federally registered
 trademark of Gaussian, Inc.
  
 This software contains proprietary and confidential information,
 including trade secrets, belonging to Gaussian, Inc.
  
 This software is provided under written license and may be
 used, copied, transmitted, or stored only in accord with that
 written license.
  
 The following legend is applicable only to US Government
 contracts under FAR:
  
                    RESTRICTED RIGHTS LEGEND
  
 Use, reproduction and disclosure by the US Government is
 subject to restrictions as set forth in subparagraphs (a)
 and (c) of the Commercial Computer Software - Restricted
 Rights clause in FAR 52.227-19.
  
 Gaussian, Inc.
 340 Quinnipiac St., Bldg. 40, Wallingford CT 06492
  
  
 ---------------------------------------------------------------
 Warning -- This program may not be used in any manner that
 competes with the business of Gaussian, Inc. or will provide
 assistance to any competitor of Gaussian, Inc.  The licensee
 of this program is prohibited from giving any competitor of
 Gaussian, Inc. access to this program.  By using this program,
 the user acknowledges that Gaussian, Inc. is engaged in the
 business of creating and licensing software in the field of
 computational chemistry and represents and warrants to the
 licensee that it is not a competitor of Gaussian, Inc. and that
 it will not use this program in any manner prohibited above.
 ---------------------------------------------------------------
  

 Cite this work as:
 Gaussian 16, Revision A.03,
 M. J. Frisch, G. W. Trucks, H. B. Schlegel, G. E. Scuseria, 
 M. A. Robb, J. R. Cheeseman, G. Scalmani, V. Barone, 
 G. A. Petersson, H. Nakatsuji, X. Li, M. Caricato, A. V. Marenich, 
 J. Bloino, B. G. Janesko, R. Gomperts, B. Mennucci, H. P. Hratchian, 
 J. V. Ortiz, A. F. Izmaylov, J. L. Sonnenberg, D. Williams-Young, 
 F. Ding, F. Lipparini, F. Egidi, J. Goings, B. Peng, A. Petrone, 
 T. Henderson, D. Ranasinghe, V. G. Zakrzewski, J. Gao, N. Rega, 
 G. Zheng, W. Liang, M. Hada, M. Ehara, K. Toyota, R. Fukuda, 
 J. Hasegawa, M. Ishida, T. Nakajima, Y. Honda, O. Kitao, H. Nakai, 
 T. Vreven, K. Throssell, J. A. Montgomery, Jr., J. E. Peralta, 
 F. Ogliaro, M. J. Bearpark, J. J. Heyd, E. N. Brothers, K. N. Kudin, 
 V. N. Staroverov, T. A. Keith, R. Kobayashi, J. Normand, 
 K. Raghavachari, A. P. Rendell, J. C. Burant, S. S. Iyengar, 
 J. Tomasi, M. Cossi, J. M. Millam, M. Klene, C. Adamo, R. Cammi, 
 J. W. Ochterski, R. L. Martin, K. Morokuma, O. Farkas, 
 J. B. Foresman, and D. J. Fox, Gaussian, Inc., Wallingford CT, 2016.
 
 ******************************************
 Gaussian 16:  ES64L-G16RevA.03 25-Dec-2016
                17-Dec-2022 
 ******************************************
 %nproc=24
 Will use up to   24 processors via shared memory.
 %mem=50GB
 ---------------------------------------------------
 #p M062X/6-311+G(2d,p) nosymm em=GD3 counterpoise=2
 ---------------------------------------------------
 1/38=1,62=2,172=1/1;
 2/12=2,15=1,17=6,18=5,40=1/2;
 1/38=1,53=2,62=2,63=1/22;
 3/5=4,6=6,7=112,11=2,25=1,30=1,74=-55,124=31/1,2,3;
 4//1;
 5/5=2,38=5/2;
 6/7=2,8=2,9=2,10=2,28=1/1;
 1/53=2,62=2,63=1/22;
 3/5=7,6=11,7=112,11=2,25=1,30=1,74=-55,82=7,124=31/1,2,3;
 4//1;
 5/5=2,38=5/2;
 6/7=2,8=2,9=2,10=2,28=1/1;
 1/53=2,62=2,63=1/22(-4);
 99/5=1,9=1/99;
 Leave Link    1 at Sat Dec 17 23:50:25 2022, MaxMem=  6710886400 cpu:               0.7 elap:               0.0
 (Enter /data0/home/software/g16/l101.exe)
 -------------------
 Title Card Required
 -------------------
 Symbolic Z-matrix:
 Charge =  0 Multiplicity = 1 in supermolecule
 Charge =  0 Multiplicity = 1 in fragment      1.
 Charge =  0 Multiplicity = 1 in fragment      2.
 O                     8.82986   13.8878   6.34496    
 H                     8.83685   13.48119   7.233      
 H                     7.90812   14.06744   6.1682     
 O                     8.70397   13.15834   9.05054    
 H                     7.81421   13.2298   9.40208    
 H                     9.12939   13.99577   9.29235    
 
 ITRead=  0  0  0  0  0  0
 MicOpt= -1 -1 -1 -1 -1 -1
 NAtoms=      6 NQM=        6 NQMF=       0 NMMI=      0 NMMIF=      0
                NMic=       0 NMicF=      0.
                    Isotopes and Nuclear Properties:
 (Nuclear quadrupole moments (NQMom) in fm**2, nuclear magnetic moments (NMagM)
  in nuclear magnetons)

  Atom         1           2           3           4           5           6
 IAtWgt=          16           1           1          16           1           1
 AtmWgt=  15.9949146   1.0078250   1.0078250  15.9949146   1.0078250   1.0078250
 NucSpn=           0           1           1           0           1           1
 AtZEff=  -0.0000000  -0.0000000  -0.0000000  -0.0000000  -0.0000000  -0.0000000
 NQMom=    0.0000000   0.0000000   0.0000000   0.0000000   0.0000000   0.0000000
 NMagM=    0.0000000   2.7928460   2.7928460   0.0000000   2.7928460   2.7928460
 AtZNuc=   8.0000000   1.0000000   1.0000000   8.0000000   1.0000000   1.0000000
 Leave Link  101 at Sat Dec 17 23:50:25 2022, MaxMem=  6710886400 cpu:               2.0 elap:               0.1
 (Enter /data0/home/software/g16/l202.exe)
                          Input orientation:                          
 ---------------------------------------------------------------------
 Center     Atomic      Atomic             Coordinates (Angstroms)
 Number     Number       Type             X           Y           Z
 ---------------------------------------------------------------------
      1          8           0        8.829859   13.887798    6.344960
      2          1           0        8.836853   13.481191    7.232997
      3          1           0        7.908120   14.067438    6.168199
      4          8           0        8.703970   13.158344    9.050538
      5          1           0        7.814211   13.229797    9.402076
      6          1           0        9.129393   13.995769    9.292346
 ---------------------------------------------------------------------
                    Distance matrix (angstroms):
                    1          2          3          4          5
     1  O    0.000000
     2  H    0.976723   0.000000
     3  H    0.955572   1.529714   0.000000
     4  O    2.805014   1.850768   3.125333   0.000000
     5  H    3.287927   2.411203   3.341919   0.959352   0.000000
     6  H    2.964534   2.142729   3.355136   0.969916   1.525928
                    6
     6  H    0.000000
 Symmetry turned off by external request.
 Stoichiometry    H4O2
 Framework group  C1[X(H4O2)]
 Deg. of freedom    12
 Full point group                 C1      NOp   1
 Rotational constants (GHZ):         197.8584888           7.0690384           6.9687618
 Leave Link  202 at Sat Dec 17 23:50:25 2022, MaxMem=  6710886400 cpu:               0.1 elap:               0.0
 (Enter /data0/home/software/g16/l122.exe)
 Counterpoise: doing full-system calculation.
 Leave Link  122 at Sat Dec 17 23:50:25 2022, MaxMem=  6710886400 cpu:               0.0 elap:               0.0
 (Enter /data0/home/software/g16/l301.exe)
 Standard basis: 6-311+G(2d,p) (5D, 7F)
 Ernie: Thresh=  0.10000D-02 Tol=  0.10000D-05 Strict=F.
    78 basis functions,   116 primitive gaussians,    82 cartesian basis functions
    10 alpha electrons       10 beta electrons
       nuclear repulsion energy        37.4486663537 Hartrees.
 IExCor= 4336 DFT=T Ex+Corr=M062X ExCW=0 ScaHFX=  0.540000
 ScaDFX=  1.000000  1.000000  1.000000  1.000000 ScalE2=  1.000000  1.000000
 IRadAn=      5 IRanWt=     -1 IRanGd=            0 ICorTp=0 IEmpDi=131
 NAtoms=    6 NActive=    6 NUniq=    6 SFac= 1.00D+00 NAtFMM=   60 NAOKFM=F Big=F
 Integral buffers will be    131072 words long.
 Raffenetti 2 integral format.
 Two-electron integral symmetry is turned off.
 R6Disp:  Grimme-D3 Dispersion energy=       -0.0000200146 Hartrees.
 Nuclear repulsion after empirical dispersion term =       37.4486463391 Hartrees.
 Leave Link  301 at Sat Dec 17 23:50:26 2022, MaxMem=  6710886400 cpu:               1.1 elap:               0.1
 (Enter /data0/home/software/g16/l302.exe)
 NPDir=0 NMtPBC=     1 NCelOv=     1 NCel=       1 NClECP=     1 NCelD=      1
         NCelK=      1 NCelE2=     1 NClLst=     1 CellRange=     0.0.
 One-electron integrals computed using PRISM.
 NBasis=    78 RedAO= T EigKep=  1.81D-03  NBF=    78
 NBsUse=    78 1.00D-06 EigRej= -1.00D+00 NBFU=    78
 Precomputing XC quadrature grid using
 IXCGrd= 4 IRadAn=           5 IRanWt=          -1 IRanGd=           0 AccXCQ= 0.00D+00.
 Generated NRdTot=       0 NPtTot=           0 NUsed=           0 NTot=          32
 NSgBfM=    82    82    82    82    82 MxSgAt=     6 MxSgA2=     6.
 Leave Link  302 at Sat Dec 17 23:50:26 2022, MaxMem=  6710886400 cpu:               2.4 elap:               0.1
 (Enter /data0/home/software/g16/l303.exe)
 DipDrv:  MaxL=1.
 Leave Link  303 at Sat Dec 17 23:50:26 2022, MaxMem=  6710886400 cpu:               0.4 elap:               0.0
 (Enter /data0/home/software/g16/l401.exe)
 ExpMin= 8.45D-02 ExpMax= 8.59D+03 ExpMxC= 1.30D+03 IAcc=3 IRadAn=         5 AccDes= 0.00D+00
 Harris functional with IExCor= 1009 and IRadAn=       5 diagonalized for initial guess.
 HarFok:  IExCor= 1009 AccDes= 0.00D+00 IRadAn=         5 IDoV= 1 UseB2=F ITyADJ=14
 ICtDFT=  3500011 ScaDFX=  1.000000  1.000000  1.000000  1.000000
 FoFCou: FMM=F IPFlag=           0 FMFlag=      100000 FMFlg1=           0
         NFxFlg=           0 DoJE=T BraDBF=F KetDBF=T FulRan=T
         wScrn=  0.000000 ICntrl=       500 IOpCl=  0 I1Cent=   200000004 NGrid=           0
         NMat0=    1 NMatS0=      1 NMatT0=    0 NMatD0=    1 NMtDS0=    0 NMtDT0=    0
 Symmetry not used in FoFCou.
 Harris En= -152.835620883656    
 JPrj=0 DoOrth=F DoCkMO=F.
 Leave Link  401 at Sat Dec 17 23:50:26 2022, MaxMem=  6710886400 cpu:               3.6 elap:               0.2
 (Enter /data0/home/software/g16/l502.exe)
 Keep R1 ints in memory in canonical form, NReq=26476721.
 FoFCou: FMM=F IPFlag=           0 FMFlag=           0 FMFlg1=           0
         NFxFlg=           0 DoJE=F BraDBF=F KetDBF=F FulRan=T
         wScrn=  0.000000 ICntrl=       600 IOpCl=  0 I1Cent=           0 NGrid=           0
         NMat0=    1 NMatS0=   3081 NMatT0=    0 NMatD0=    1 NMtDS0=    0 NMtDT0=    0
 Symmetry not used in FoFCou.
 Two-electron integral symmetry not used.
 Closed shell SCF:
 Using DIIS extrapolation, IDIIS=  1040.
 NGot=  6710886400 LenX=  6706122419 LenY=  6706115254
 Requested convergence on RMS density matrix=1.00D-08 within 128 cycles.
 Requested convergence on MAX density matrix=1.00D-06.
 Requested convergence on             energy=1.00D-06.
 No special actions if energy rises.
 Integral accuracy reduced to 1.0D-05 until final iterations.

 Cycle   1  Pass 0  IDiag  1:
 E= -152.709993316285    
 DIIS: error= 5.66D-02 at cycle   1 NSaved=   1.
 NSaved= 1 IEnMin= 1 EnMin= -152.709993316285     IErMin= 1 ErrMin= 5.66D-02
 ErrMax= 5.66D-02  0.00D+00 EMaxC= 1.00D-01 BMatC= 2.30D-01 BMatP= 2.30D-01
 IDIUse=3 WtCom= 4.34D-01 WtEn= 5.66D-01
 Coeff-Com:  0.100D+01
 Coeff-En:   0.100D+01
 Coeff:      0.100D+01
 Gap=     0.281 Goal=   None    Shift=    0.000
 GapD=    0.281 DampG=1.000 DampE=0.500 DampFc=0.5000 IDamp=-1.
 Damping current iteration by 5.00D-01
 RMSDP=6.97D-03 MaxDP=1.05D-01              OVMax= 1.80D-01

 Cycle   2  Pass 0  IDiag  1:
 E= -152.770994367556     Delta-E=       -0.061001051272 Rises=F Damp=T
 DIIS: error= 1.12D-02 at cycle   2 NSaved=   2.
 NSaved= 2 IEnMin= 2 EnMin= -152.770994367556     IErMin= 2 ErrMin= 1.12D-02
 ErrMax= 1.12D-02  0.00D+00 EMaxC= 1.00D-01 BMatC= 8.53D-03 BMatP= 2.30D-01
 IDIUse=3 WtCom= 8.88D-01 WtEn= 1.12D-01
 Coeff-Com:  0.627D-01 0.937D+00
 Coeff-En:   0.157D+00 0.843D+00
 Coeff:      0.732D-01 0.927D+00
 Gap=     0.405 Goal=   None    Shift=    0.000
 RMSDP=8.77D-04 MaxDP=1.53D-02 DE=-6.10D-02 OVMax= 1.06D-01

 Cycle   3  Pass 0  IDiag  1:
 E= -152.850878121780     Delta-E=       -0.079883754223 Rises=F Damp=F
 DIIS: error= 1.87D-03 at cycle   3 NSaved=   3.
 NSaved= 3 IEnMin= 3 EnMin= -152.850878121780     IErMin= 3 ErrMin= 1.87D-03
 ErrMax= 1.87D-03  0.00D+00 EMaxC= 1.00D-01 BMatC= 2.39D-04 BMatP= 8.53D-03
 IDIUse=3 WtCom= 9.81D-01 WtEn= 1.87D-02
 Coeff-Com: -0.235D-01 0.487D-01 0.975D+00
 Coeff-En:   0.000D+00 0.000D+00 0.100D+01
 Coeff:     -0.231D-01 0.478D-01 0.975D+00
 Gap=     0.406 Goal=   None    Shift=    0.000
 RMSDP=1.36D-04 MaxDP=1.89D-03 DE=-7.99D-02 OVMax= 4.44D-03

 Cycle   4  Pass 0  IDiag  1:
 E= -152.851041946046     Delta-E=       -0.000163824266 Rises=F Damp=F
 DIIS: error= 7.43D-04 at cycle   4 NSaved=   4.
 NSaved= 4 IEnMin= 4 EnMin= -152.851041946046     IErMin= 4 ErrMin= 7.43D-04
 ErrMax= 7.43D-04  0.00D+00 EMaxC= 1.00D-01 BMatC= 5.09D-05 BMatP= 2.39D-04
 IDIUse=3 WtCom= 9.93D-01 WtEn= 7.43D-03
 Coeff-Com: -0.104D-01 0.133D-01 0.449D+00 0.548D+00
 Coeff-En:   0.000D+00 0.000D+00 0.000D+00 0.100D+01
 Coeff:     -0.104D-01 0.132D-01 0.446D+00 0.551D+00
 Gap=     0.409 Goal=   None    Shift=    0.000
 RMSDP=4.90D-05 MaxDP=1.06D-03 DE=-1.64D-04 OVMax= 1.49D-03

 Cycle   5  Pass 0  IDiag  1:
 E= -152.851073280693     Delta-E=       -0.000031334647 Rises=F Damp=F
 DIIS: error= 2.08D-04 at cycle   5 NSaved=   5.
 NSaved= 5 IEnMin= 5 EnMin= -152.851073280693     IErMin= 5 ErrMin= 2.08D-04
 ErrMax= 2.08D-04  0.00D+00 EMaxC= 1.00D-01 BMatC= 2.75D-06 BMatP= 5.09D-05
 IDIUse=3 WtCom= 9.98D-01 WtEn= 2.08D-03
 Coeff-Com:  0.401D-03-0.296D-02 0.124D-01 0.167D+00 0.823D+00
 Coeff-En:   0.000D+00 0.000D+00 0.000D+00 0.000D+00 0.100D+01
 Coeff:      0.400D-03-0.295D-02 0.124D-01 0.167D+00 0.824D+00
 Gap=     0.409 Goal=   None    Shift=    0.000
 RMSDP=1.57D-05 MaxDP=3.28D-04 DE=-3.13D-05 OVMax= 6.25D-04

 Cycle   6  Pass 0  IDiag  1:
 E= -152.851075391152     Delta-E=       -0.000002110459 Rises=F Damp=F
 DIIS: error= 2.56D-05 at cycle   6 NSaved=   6.
 NSaved= 6 IEnMin= 6 EnMin= -152.851075391152     IErMin= 6 ErrMin= 2.56D-05
 ErrMax= 2.56D-05  0.00D+00 EMaxC= 1.00D-01 BMatC= 6.54D-08 BMatP= 2.75D-06
 IDIUse=1 WtCom= 1.00D+00 WtEn= 0.00D+00
 Coeff-Com:  0.717D-03-0.105D-02-0.251D-01-0.249D-01 0.830D-01 0.967D+00
 Coeff:      0.717D-03-0.105D-02-0.251D-01-0.249D-01 0.830D-01 0.967D+00
 Gap=     0.409 Goal=   None    Shift=    0.000
 RMSDP=6.20D-06 MaxDP=1.10D-04 DE=-2.11D-06 OVMax= 1.22D-04

 Initial convergence to 1.0D-05 achieved.  Increase integral accuracy.
 Cycle   7  Pass 1  IDiag  1:
 E= -152.851056857209     Delta-E=        0.000018533943 Rises=F Damp=F
 DIIS: error= 1.52D-05 at cycle   1 NSaved=   1.
 NSaved= 1 IEnMin= 1 EnMin= -152.851056857209     IErMin= 1 ErrMin= 1.52D-05
 ErrMax= 1.52D-05  0.00D+00 EMaxC= 1.00D-01 BMatC= 3.16D-08 BMatP= 3.16D-08
 IDIUse=1 WtCom= 1.00D+00 WtEn= 0.00D+00
 Coeff-Com:  0.100D+01
 Coeff:      0.100D+01
 Gap=     0.409 Goal=   None    Shift=    0.000
 RMSDP=6.20D-06 MaxDP=1.10D-04 DE= 1.85D-05 OVMax= 3.99D-05

 Cycle   8  Pass 1  IDiag  1:
 E= -152.851056881285     Delta-E=       -0.000000024076 Rises=F Damp=F
 DIIS: error= 4.78D-06 at cycle   2 NSaved=   2.
 NSaved= 2 IEnMin= 2 EnMin= -152.851056881285     IErMin= 2 ErrMin= 4.78D-06
 ErrMax= 4.78D-06  0.00D+00 EMaxC= 1.00D-01 BMatC= 1.63D-09 BMatP= 3.16D-08
 IDIUse=1 WtCom= 1.00D+00 WtEn= 0.00D+00
 Coeff-Com:  0.681D-02 0.993D+00
 Coeff:      0.681D-02 0.993D+00
 Gap=     0.409 Goal=   None    Shift=    0.000
 RMSDP=7.89D-07 MaxDP=1.01D-05 DE=-2.41D-08 OVMax= 1.81D-05

 Cycle   9  Pass 1  IDiag  1:
 E= -152.851056881530     Delta-E=       -0.000000000245 Rises=F Damp=F
 DIIS: error= 4.98D-06 at cycle   3 NSaved=   3.
 NSaved= 3 IEnMin= 3 EnMin= -152.851056881530     IErMin= 2 ErrMin= 4.78D-06
 ErrMax= 4.98D-06  0.00D+00 EMaxC= 1.00D-01 BMatC= 1.69D-09 BMatP= 1.63D-09
 IDIUse=1 WtCom= 1.00D+00 WtEn= 0.00D+00
 Coeff-Com: -0.438D-01 0.527D+00 0.516D+00
 Coeff:     -0.438D-01 0.527D+00 0.516D+00
 Gap=     0.409 Goal=   None    Shift=    0.000
 RMSDP=2.36D-07 MaxDP=4.78D-06 DE=-2.45D-10 OVMax= 7.02D-06

 Cycle  10  Pass 1  IDiag  1:
 E= -152.851056882622     Delta-E=       -0.000000001092 Rises=F Damp=F
 DIIS: error= 2.88D-07 at cycle   4 NSaved=   4.
 NSaved= 4 IEnMin= 4 EnMin= -152.851056882622     IErMin= 4 ErrMin= 2.88D-07
 ErrMax= 2.88D-07  0.00D+00 EMaxC= 1.00D-01 BMatC= 5.56D-12 BMatP= 1.63D-09
 IDIUse=1 WtCom= 1.00D+00 WtEn= 0.00D+00
 Coeff-Com: -0.234D-02-0.789D-02 0.190D-01 0.991D+00
 Coeff:     -0.234D-02-0.789D-02 0.190D-01 0.991D+00
 Gap=     0.409 Goal=   None    Shift=    0.000
 RMSDP=6.02D-08 MaxDP=8.37D-07 DE=-1.09D-09 OVMax= 1.18D-06

 Cycle  11  Pass 1  IDiag  1:
 E= -152.851056882631     Delta-E=       -0.000000000009 Rises=F Damp=F
 DIIS: error= 6.26D-08 at cycle   5 NSaved=   5.
 NSaved= 5 IEnMin= 5 EnMin= -152.851056882631     IErMin= 5 ErrMin= 6.26D-08
 ErrMax= 6.26D-08  0.00D+00 EMaxC= 1.00D-01 BMatC= 4.27D-13 BMatP= 5.56D-12
 IDIUse=1 WtCom= 1.00D+00 WtEn= 0.00D+00
 Coeff-Com:  0.226D-02-0.321D-01-0.277D-01 0.880D-01 0.969D+00
 Coeff:      0.226D-02-0.321D-01-0.277D-01 0.880D-01 0.969D+00
 Gap=     0.409 Goal=   None    Shift=    0.000
 RMSDP=2.19D-08 MaxDP=2.88D-07 DE=-9.49D-12 OVMax= 4.12D-07

 Cycle  12  Pass 1  IDiag  1:
 E= -152.851056882633     Delta-E=       -0.000000000001 Rises=F Damp=F
 DIIS: error= 2.56D-08 at cycle   6 NSaved=   6.
 NSaved= 6 IEnMin= 6 EnMin= -152.851056882633     IErMin= 6 ErrMin= 2.56D-08
 ErrMax= 2.56D-08  0.00D+00 EMaxC= 1.00D-01 BMatC= 4.21D-14 BMatP= 4.27D-13
 IDIUse=1 WtCom= 1.00D+00 WtEn= 0.00D+00
 Coeff-Com:  0.715D-03-0.840D-02-0.766D-02-0.152D-01 0.223D+00 0.808D+00
 Coeff:      0.715D-03-0.840D-02-0.766D-02-0.152D-01 0.223D+00 0.808D+00
 Gap=     0.409 Goal=   None    Shift=    0.000
 RMSDP=3.42D-09 MaxDP=4.18D-08 DE=-1.11D-12 OVMax= 1.04D-07

 SCF Done:  E(RM062X) =  -152.851056883     A.U. after   12 cycles
            NFock= 12  Conv=0.34D-08     -V/T= 2.0027
 KE= 1.524322759143D+02 PE=-4.365739407425D+02 EE= 9.384196160645D+01
 Leave Link  502 at Sat Dec 17 23:50:27 2022, MaxMem=  6710886400 cpu:              21.6 elap:               1.0
 (Enter /data0/home/software/g16/l601.exe)
 Copying SCF densities to generalized density rwf, IOpCl= 0 IROHF=0.

 **********************************************************************

            Population analysis using the SCF density.

 **********************************************************************

 Alpha  occ. eigenvalues --  -19.65742 -19.59501  -1.16849  -1.10570  -0.64144
 Alpha  occ. eigenvalues --   -0.58725  -0.50911  -0.46154  -0.41983  -0.37367
 Alpha virt. eigenvalues --    0.03568   0.09834   0.11355   0.14474   0.16002
 Alpha virt. eigenvalues --    0.16672   0.19970   0.21338   0.22704   0.24473
 Alpha virt. eigenvalues --    0.30330   0.33833   0.49297   0.50618   0.55821
 Alpha virt. eigenvalues --    0.63361   0.93813   0.97117   1.02281   1.03518
 Alpha virt. eigenvalues --    1.07764   1.09389   1.15184   1.16691   1.22521
 Alpha virt. eigenvalues --    1.25097   1.32530   1.34719   1.37414   1.47933
 Alpha virt. eigenvalues --    1.65984   1.70555   1.73021   1.74764   1.78702
 Alpha virt. eigenvalues --    2.01386   2.02651   2.08526   2.11514   2.24684
 Alpha virt. eigenvalues --    2.37506   2.39377   2.45904   2.50087   2.56434
 Alpha virt. eigenvalues --    2.61608   2.88253   2.93745   3.00274   3.11339
 Alpha virt. eigenvalues --    5.07426   5.11301   5.48509   5.51420   5.90694
 Alpha virt. eigenvalues --    5.97266   6.76404   6.79127   6.81249   6.83347
 Alpha virt. eigenvalues --    6.87313   6.88527   6.95044   6.97210   7.07063
 Alpha virt. eigenvalues --    7.17542  49.95262  50.01749
          Condensed to atoms (all electrons):
               1          2          3          4          5          6
     1  O    8.014428   0.305808   0.309885   0.030585  -0.004643  -0.007547
     2  H    0.305808   0.372917  -0.029619  -0.052218   0.000772   0.002909
     3  H    0.309885  -0.029619   0.455968   0.004332  -0.001644  -0.000821
     4  O    0.030585  -0.052218   0.004332   7.985986   0.327649   0.320136
     5  H   -0.004643   0.000772  -0.001644   0.327649   0.400838  -0.022037
     6  H   -0.007547   0.002909  -0.000821   0.320136  -0.022037   0.402772
 Mulliken charges:
               1
     1  O   -0.648515
     2  H    0.399432
     3  H    0.261900
     4  O   -0.616469
     5  H    0.299064
     6  H    0.304588
 Sum of Mulliken charges =  -0.00000
 Mulliken charges with hydrogens summed into heavy atoms:
               1
     1  O    0.012817
     4  O   -0.012817
         Mulliken charges condensed to fragments:
      1      0.012817
      2     -0.012817
 Electronic spatial extent (au):  <R**2>=          22989.5647
 Charge=             -0.0000 electrons
 Dipole moment (field-independent basis, Debye):
    X=             -2.4079    Y=              1.0277    Z=              2.8677  Tot=              3.8831
 Quadrupole moment (field-independent basis, Debye-Ang):
   XX=            -52.6251   YY=             13.2764   ZZ=             30.8469
   XY=            -23.5660   XZ=              7.6603   YZ=             49.1835
 Traceless Quadrupole moment (field-independent basis, Debye-Ang):
   XX=            -49.7912   YY=             16.1104   ZZ=             33.6808
   XY=            -23.5660   XZ=              7.6603   YZ=             49.1835
 Octapole moment (field-independent basis, Debye-Ang**2):
  XXX=           -829.9920  YYY=            -26.4355  ZZZ=            210.6596  XYY=           -324.4661
  XXY=           -633.0522  XXZ=           -164.8378  XZZ=            136.5290  YZZ=            520.2409
  YYZ=            694.3185  XYZ=            198.2649
 Hexadecapole moment (field-independent basis, Debye-Ang**3):
 XXXX=         -11340.4079 YYYY=          -5856.5196 ZZZZ=            590.5709 XXXY=         -10539.5380
 XXXZ=          -4176.1863 YYYX=          -6201.1434 YYYZ=           8287.3641 ZZZX=            767.6115
 ZZZY=           3871.8328 XXYY=          -8622.6958 XXZZ=           -593.7111 YYZZ=           7541.6303
 XXYZ=          -1365.6183 YYXZ=           2984.7490 ZZXY=           2804.4226
 N-N= 3.744864633907D+01 E-N=-4.365739408411D+02  KE= 1.524322759143D+02
 No NMR shielding tensors so no spin-rotation constants.
 Leave Link  601 at Sat Dec 17 23:50:27 2022, MaxMem=  6710886400 cpu:               1.8 elap:               0.1
 (Enter /data0/home/software/g16/l122.exe)
 CPIOFr:  IOpCl= 0 IRwI=-1 IRwCP=  731 ICalc= -1 LCPTot=       10496 Len1MO=       26312 IndFrg=       10496
 CPIOFr:  IOpCl= 0 IRwI=-1 IRwCP=  731 ICalc=  0 LCPTot=       10496 Len1MO=       26312 IndFrg=       36808
 Counterpoise: doing calculation for fragment   1 using the basis set of the full-system, NewBq=T
 Leave Link  122 at Sat Dec 17 23:50:27 2022, MaxMem=  6710886400 cpu:               0.1 elap:               0.0
 (Enter /data0/home/software/g16/l301.exe)
 Basis read from rwf:  (5D, 7F)
 No pseudopotential information found on rwf file.
    78 basis functions,   116 primitive gaussians,    82 cartesian basis functions
     5 alpha electrons        5 beta electrons
       nuclear repulsion energy         9.1104841041 Hartrees.
 IExCor= 4336 DFT=T Ex+Corr=M062X ExCW=0 ScaHFX=  0.540000
 ScaDFX=  1.000000  1.000000  1.000000  1.000000 ScalE2=  1.000000  1.000000
 IRadAn=      5 IRanWt=     -1 IRanGd=            0 ICorTp=0 IEmpDi=131
 NAtoms=    6 NActive=    6 NUniq=    6 SFac= 1.00D+00 NAtFMM=   60 NAOKFM=F Big=F
 Integral buffers will be    131072 words long.
 Raffenetti 2 integral format.
 Two-electron integral symmetry is turned off.
 R6Disp:  Grimme-D3 Dispersion energy=       -0.0000000079 Hartrees.
 Nuclear repulsion after empirical dispersion term =        9.1104840962 Hartrees.
 No density basis found on file   718.
 Leave Link  301 at Sat Dec 17 23:50:27 2022, MaxMem=  6710886400 cpu:               1.3 elap:               0.1
 (Enter /data0/home/software/g16/l302.exe)
 NPDir=0 NMtPBC=     1 NCelOv=     1 NCel=       1 NClECP=     1 NCelD=      1
         NCelK=      1 NCelE2=     1 NClLst=     1 CellRange=     0.0.
 One-electron integrals computed using PRISM.
 NBasis=    78 RedAO= T EigKep=  1.81D-03  NBF=    78
 NBsUse=    78 1.00D-06 EigRej= -1.00D+00 NBFU=    78
 Precomputing XC quadrature grid using
 IXCGrd= 4 IRadAn=           5 IRanWt=          -1 IRanGd=           0 AccXCQ= 0.00D+00.
 Generated NRdTot=       0 NPtTot=           0 NUsed=           0 NTot=          32
 NSgBfM=    82    82    82    82    82 MxSgAt=     6 MxSgA2=     6.
 Leave Link  302 at Sat Dec 17 23:50:27 2022, MaxMem=  6710886400 cpu:               2.4 elap:               0.1
 (Enter /data0/home/software/g16/l303.exe)
 DipDrv:  MaxL=1.
 Leave Link  303 at Sat Dec 17 23:50:27 2022, MaxMem=  6710886400 cpu:               0.4 elap:               0.0
 (Enter /data0/home/software/g16/l401.exe)
 ExpMin= 8.45D-02 ExpMax= 8.59D+03 ExpMxC= 1.30D+03 IAcc=3 IRadAn=         5 AccDes= 0.00D+00
 Harris functional with IExCor= 1009 and IRadAn=       5 diagonalized for initial guess.
 HarFok:  IExCor= 1009 AccDes= 0.00D+00 IRadAn=         5 IDoV= 1 UseB2=F ITyADJ=14
 ICtDFT=  3500011 ScaDFX=  1.000000  1.000000  1.000000  1.000000
 FoFCou: FMM=F IPFlag=           0 FMFlag=      100000 FMFlg1=           0
         NFxFlg=           0 DoJE=T BraDBF=F KetDBF=T FulRan=T
         wScrn=  0.000000 ICntrl=       500 IOpCl=  0 I1Cent=   200000004 NGrid=           0
         NMat0=    1 NMatS0=      1 NMatT0=    0 NMatD0=    1 NMtDS0=    0 NMtDT0=    0
 Symmetry not used in FoFCou.
 Harris En= -76.4168808833161    
 JPrj=0 DoOrth=F DoCkMO=F.
 Leave Link  401 at Sat Dec 17 23:50:27 2022, MaxMem=  6710886400 cpu:               3.5 elap:               0.2
 (Enter /data0/home/software/g16/l502.exe)
 Keep R1 ints in memory in canonical form, NReq=26476721.
 FoFCou: FMM=F IPFlag=           0 FMFlag=           0 FMFlg1=           0
         NFxFlg=           0 DoJE=F BraDBF=F KetDBF=F FulRan=T
         wScrn=  0.000000 ICntrl=       600 IOpCl=  0 I1Cent=           0 NGrid=           0
         NMat0=    1 NMatS0=   3081 NMatT0=    0 NMatD0=    1 NMtDS0=    0 NMtDT0=    0
 Symmetry not used in FoFCou.
 Two-electron integral symmetry not used.
 Closed shell SCF:
 Using DIIS extrapolation, IDIIS=  1040.
 NGot=  6710886400 LenX=  6706122419 LenY=  6706115254
 Requested convergence on RMS density matrix=1.00D-08 within 128 cycles.
 Requested convergence on MAX density matrix=1.00D-06.
 Requested convergence on             energy=1.00D-06.
 No special actions if energy rises.
 Integral accuracy reduced to 1.0D-05 until final iterations.

 Cycle   1  Pass 0  IDiag  1:
 E= -76.3465177863281    
 DIIS: error= 3.91D-02 at cycle   1 NSaved=   1.
 NSaved= 1 IEnMin= 1 EnMin= -76.3465177863281     IErMin= 1 ErrMin= 3.91D-02
 ErrMax= 3.91D-02  0.00D+00 EMaxC= 1.00D-01 BMatC= 1.21D-01 BMatP= 1.21D-01
 IDIUse=3 WtCom= 6.09D-01 WtEn= 3.91D-01
 Coeff-Com:  0.100D+01
 Coeff-En:   0.100D+01
 Coeff:      0.100D+01
 Gap=     0.296 Goal=   None    Shift=    0.000
 GapD=    0.296 DampG=1.000 DampE=0.500 DampFc=0.5000 IDamp=-1.
 Damping current iteration by 5.00D-01
 RMSDP=4.58D-03 MaxDP=1.00D-01              OVMax= 1.70D-01

 Cycle   2  Pass 0  IDiag  1:
 E= -76.3778500150825     Delta-E=       -0.031332228754 Rises=F Damp=T
 DIIS: error= 6.69D-03 at cycle   2 NSaved=   2.
 NSaved= 2 IEnMin= 2 EnMin= -76.3778500150825     IErMin= 2 ErrMin= 6.69D-03
 ErrMax= 6.69D-03  0.00D+00 EMaxC= 1.00D-01 BMatC= 4.89D-03 BMatP= 1.21D-01
 IDIUse=3 WtCom= 9.33D-01 WtEn= 6.69D-02
 Coeff-Com:  0.835D-01 0.916D+00
 Coeff-En:   0.190D+00 0.810D+00
 Coeff:      0.907D-01 0.909D+00
 Gap=     0.424 Goal=   None    Shift=    0.000
 RMSDP=5.78D-04 MaxDP=1.43D-02 DE=-3.13D-02 OVMax= 1.02D-01

 Cycle   3  Pass 0  IDiag  1:
 E= -76.4219790380541     Delta-E=       -0.044129022972 Rises=F Damp=F
 DIIS: error= 1.29D-03 at cycle   3 NSaved=   3.
 NSaved= 3 IEnMin= 3 EnMin= -76.4219790380541     IErMin= 3 ErrMin= 1.29D-03
 ErrMax= 1.29D-03  0.00D+00 EMaxC= 1.00D-01 BMatC= 1.38D-04 BMatP= 4.89D-03
 IDIUse=3 WtCom= 9.87D-01 WtEn= 1.29D-02
 Coeff-Com: -0.259D-01 0.496D-01 0.976D+00
 Coeff-En:   0.000D+00 0.000D+00 0.100D+01
 Coeff:     -0.256D-01 0.490D-01 0.977D+00
 Gap=     0.425 Goal=   None    Shift=    0.000
 RMSDP=7.73D-05 MaxDP=1.25D-03 DE=-4.41D-02 OVMax= 3.78D-03

 Cycle   4  Pass 0  IDiag  1:
 E= -76.4220900238767     Delta-E=       -0.000110985823 Rises=F Damp=F
 DIIS: error= 2.01D-04 at cycle   4 NSaved=   4.
 NSaved= 4 IEnMin= 4 EnMin= -76.4220900238767     IErMin= 4 ErrMin= 2.01D-04
 ErrMax= 2.01D-04  0.00D+00 EMaxC= 1.00D-01 BMatC= 2.95D-06 BMatP= 1.38D-04
 IDIUse=3 WtCom= 9.98D-01 WtEn= 2.01D-03
 Coeff-Com: -0.290D-02-0.479D-04 0.154D+00 0.848D+00
 Coeff-En:   0.000D+00 0.000D+00 0.000D+00 0.100D+01
 Coeff:     -0.289D-02-0.478D-04 0.154D+00 0.849D+00
 Gap=     0.426 Goal=   None    Shift=    0.000
 RMSDP=1.19D-05 MaxDP=3.32D-04 DE=-1.11D-04 OVMax= 5.14D-04

 Cycle   5  Pass 0  IDiag  1:
 E= -76.4220918652625     Delta-E=       -0.000001841386 Rises=F Damp=F
 DIIS: error= 4.39D-05 at cycle   5 NSaved=   5.
 NSaved= 5 IEnMin= 5 EnMin= -76.4220918652625     IErMin= 5 ErrMin= 4.39D-05
 ErrMax= 4.39D-05  0.00D+00 EMaxC= 1.00D-01 BMatC= 7.97D-08 BMatP= 2.95D-06
 IDIUse=1 WtCom= 1.00D+00 WtEn= 0.00D+00
 Coeff-Com:  0.141D-02-0.220D-02-0.366D-01-0.590D-01 0.110D+01
 Coeff:      0.141D-02-0.220D-02-0.366D-01-0.590D-01 0.110D+01
 Gap=     0.426 Goal=   None    Shift=    0.000
 RMSDP=6.96D-06 MaxDP=9.65D-05 DE=-1.84D-06 OVMax= 2.04D-04

 Initial convergence to 1.0D-05 achieved.  Increase integral accuracy.
 Cycle   6  Pass 1  IDiag  1:
 E= -76.4220877981418     Delta-E=        0.000004067121 Rises=F Damp=F
 DIIS: error= 1.38D-05 at cycle   1 NSaved=   1.
 NSaved= 1 IEnMin= 1 EnMin= -76.4220877981418     IErMin= 1 ErrMin= 1.38D-05
 ErrMax= 1.38D-05  0.00D+00 EMaxC= 1.00D-01 BMatC= 1.92D-08 BMatP= 1.92D-08
 IDIUse=1 WtCom= 1.00D+00 WtEn= 0.00D+00
 Coeff-Com:  0.100D+01
 Coeff:      0.100D+01
 Gap=     0.426 Goal=   None    Shift=    0.000
 RMSDP=6.96D-06 MaxDP=9.65D-05 DE= 4.07D-06 OVMax= 4.85D-05

 Cycle   7  Pass 1  IDiag  1:
 E= -76.4220878138537     Delta-E=       -0.000000015712 Rises=F Damp=F
 DIIS: error= 5.65D-06 at cycle   2 NSaved=   2.
 NSaved= 2 IEnMin= 2 EnMin= -76.4220878138537     IErMin= 2 ErrMin= 5.65D-06
 ErrMax= 5.65D-06  0.00D+00 EMaxC= 1.00D-01 BMatC= 1.43D-09 BMatP= 1.92D-08
 IDIUse=1 WtCom= 1.00D+00 WtEn= 0.00D+00
 Coeff-Com:  0.393D-01 0.961D+00
 Coeff:      0.393D-01 0.961D+00
 Gap=     0.426 Goal=   None    Shift=    0.000
 RMSDP=5.43D-07 MaxDP=1.38D-05 DE=-1.57D-08 OVMax= 2.33D-05

 Cycle   8  Pass 1  IDiag  1:
 E= -76.4220878140886     Delta-E=       -0.000000000235 Rises=F Damp=F
 DIIS: error= 4.24D-06 at cycle   3 NSaved=   3.
 NSaved= 3 IEnMin= 3 EnMin= -76.4220878140886     IErMin= 3 ErrMin= 4.24D-06
 ErrMax= 4.24D-06  0.00D+00 EMaxC= 1.00D-01 BMatC= 1.47D-09 BMatP= 1.43D-09
 IDIUse=1 WtCom= 1.00D+00 WtEn= 0.00D+00
 Coeff-Com: -0.512D-01 0.524D+00 0.527D+00
 Coeff:     -0.512D-01 0.524D+00 0.527D+00
 Gap=     0.426 Goal=   None    Shift=    0.000
 RMSDP=2.13D-07 MaxDP=5.70D-06 DE=-2.35D-10 OVMax= 9.80D-06

 Cycle   9  Pass 1  IDiag  1:
 E= -76.4220878150502     Delta-E=       -0.000000000962 Rises=F Damp=F
 DIIS: error= 2.92D-07 at cycle   4 NSaved=   4.
 NSaved= 4 IEnMin= 4 EnMin= -76.4220878150502     IErMin= 4 ErrMin= 2.92D-07
 ErrMax= 2.92D-07  0.00D+00 EMaxC= 1.00D-01 BMatC= 3.30D-12 BMatP= 1.43D-09
 IDIUse=1 WtCom= 1.00D+00 WtEn= 0.00D+00
 Coeff-Com:  0.692D-02-0.111D+00-0.827D-01 0.119D+01
 Coeff:      0.692D-02-0.111D+00-0.827D-01 0.119D+01
 Gap=     0.426 Goal=   None    Shift=    0.000
 RMSDP=4.96D-08 MaxDP=5.63D-07 DE=-9.62D-10 OVMax= 1.70D-06

 Cycle  10  Pass 1  IDiag  1:
 E= -76.4220878150586     Delta-E=       -0.000000000008 Rises=F Damp=F
 DIIS: error= 3.99D-08 at cycle   5 NSaved=   5.
 NSaved= 5 IEnMin= 5 EnMin= -76.4220878150586     IErMin= 5 ErrMin= 3.99D-08
 ErrMax= 3.99D-08  0.00D+00 EMaxC= 1.00D-01 BMatC= 1.14D-13 BMatP= 3.30D-12
 IDIUse=1 WtCom= 1.00D+00 WtEn= 0.00D+00
 Coeff-Com:  0.193D-02-0.243D-01-0.207D-01 0.123D+00 0.921D+00
 Coeff:      0.193D-02-0.243D-01-0.207D-01 0.123D+00 0.921D+00
 Gap=     0.426 Goal=   None    Shift=    0.000
 RMSDP=6.23D-09 MaxDP=9.69D-08 DE=-8.36D-12 OVMax= 2.61D-07

 SCF Done:  E(RM062X) =  -76.4220878151     A.U. after   10 cycles
            NFock= 10  Conv=0.62D-08     -V/T= 2.0030
 KE= 7.619515871506D+01 PE=-1.990702433289D+02 EE= 3.734251270258D+01
 Leave Link  502 at Sat Dec 17 23:50:28 2022, MaxMem=  6710886400 cpu:              18.1 elap:               0.8
 (Enter /data0/home/software/g16/l601.exe)
 Copying SCF densities to generalized density rwf, IOpCl= 0 IROHF=0.

 **********************************************************************

            Population analysis using the SCF density.

 **********************************************************************

 Alpha  occ. eigenvalues --  -19.62600  -1.13360  -0.60882  -0.47451  -0.39997
 Alpha virt. eigenvalues --    0.02607   0.09481   0.12264   0.12707   0.16377
 Alpha virt. eigenvalues --    0.18470   0.20685   0.21222   0.23291   0.27839
 Alpha virt. eigenvalues --    0.28509   0.34792   0.50694   0.55390   0.61002
 Alpha virt. eigenvalues --    0.70002   0.70911   0.81088   0.92847   0.99607
 Alpha virt. eigenvalues --    1.03039   1.05027   1.07707   1.20869   1.22222
 Alpha virt. eigenvalues --    1.33180   1.40535   1.68130   1.72066   1.72642
 Alpha virt. eigenvalues --    1.76085   1.79244   1.99633   2.06911   2.09483
 Alpha virt. eigenvalues --    2.18010   2.29096   2.37857   2.40405   2.42233
 Alpha virt. eigenvalues --    2.52209   2.55340   2.58158   2.62147   2.63513
 Alpha virt. eigenvalues --    2.67983   2.86051   2.92506   3.00439   3.14747
 Alpha virt. eigenvalues --    3.44283   3.48835   4.45573   5.03207   5.07638
 Alpha virt. eigenvalues --    5.49136   5.96510   6.78542   6.80577   6.89490
 Alpha virt. eigenvalues --    6.91936   7.12629   9.76211   9.79421   9.89520
 Alpha virt. eigenvalues --    9.92147  10.05904  12.84347  13.18536  13.65085
 Alpha virt. eigenvalues --   17.58520  49.98289 135.47485
          Condensed to atoms (all electrons):
               1          2          3          4          5          6
     1  O    7.948298   0.310126   0.315110   0.024746  -0.004098  -0.005883
     2  H    0.310126   0.369635  -0.028725   0.007608  -0.000926  -0.000630
     3  H    0.315110  -0.028725   0.438010   0.005109  -0.001313  -0.000806
     4  O    0.024746   0.007608   0.005109   0.030434  -0.011746  -0.010590
     5  H   -0.004098  -0.000926  -0.001313  -0.011746   0.006125   0.003325
     6  H   -0.005883  -0.000630  -0.000806  -0.010590   0.003325   0.004884
 Mulliken charges:
               1
     1  O   -0.588299
     2  H    0.342911
     3  H    0.272615
     4  O   -0.045560
     5  H    0.008634
     6  H    0.009699
 Sum of Mulliken charges =  -0.00000
 Mulliken charges with hydrogens summed into heavy atoms:
               1
     1  O    0.027227
     4  O   -0.027227
         Mulliken charges condensed to fragments:
      1      0.027227
      2     -0.027227
 Electronic spatial extent (au):  <R**2>=          11099.4222
 Charge=             -0.0000 electrons
 Dipole moment (field-independent basis, Debye):
    X=             -1.6188    Y=             -0.3954    Z=              1.2228  Tot=              2.0669
 Quadrupole moment (field-independent basis, Debye-Ang):
   XX=            -33.9496   YY=            -18.1578   ZZ=             10.0250
   XY=            -26.4889   XZ=              1.1086   YZ=             13.3766
 Traceless Quadrupole moment (field-independent basis, Debye-Ang):
   XX=            -19.9221   YY=             -4.1304   ZZ=             24.0525
   XY=            -26.4889   XZ=              1.1086   YZ=             13.3766
 Octapole moment (field-independent basis, Debye-Ang**2):
  XXX=           -521.0375  YYY=           -527.5156  ZZZ=             43.4387  XYY=           -486.5276
  XXY=           -510.9980  XXZ=           -110.4635  XZZ=             31.1420  YZZ=            108.8374
  YYZ=             90.0938  XYZ=            -19.6593
 Hexadecapole moment (field-independent basis, Debye-Ang**3):
 XXXX=          -6985.2527 YYYY=         -12535.1262 ZZZZ=            -76.5146 XXXY=          -7618.0723
 XXXZ=          -2345.5550 YYYX=          -9277.7498 YYYZ=           -709.3965 ZZZX=             48.1853
 ZZZY=            358.8178 XXYY=          -8201.1448 XXZZ=           -458.8213 YYZZ=            797.3620
 XXYZ=          -1869.3847 YYXZ=          -1160.2613 ZZXY=            144.0744
 N-N= 9.110484096243D+00 E-N=-1.990702434123D+02  KE= 7.619515871506D+01
 No NMR shielding tensors so no spin-rotation constants.
 Leave Link  601 at Sat Dec 17 23:50:28 2022, MaxMem=  6710886400 cpu:               1.8 elap:               0.1
 (Enter /data0/home/software/g16/l122.exe)
 CPIOFr:  IOpCl= 0 IRwI=-1 IRwCP=  731 ICalc=  1 LCPTot=       10496 Len1MO=       26312 IndFrg=       63120
 Counterpoise: doing calculation for fragment   2 using the basis set of the full-system, NewBq=T
 Leave Link  122 at Sat Dec 17 23:50:28 2022, MaxMem=  6710886400 cpu:               0.1 elap:               0.0
 (Enter /data0/home/software/g16/l301.exe)
 Basis read from rwf:  (5D, 7F)
 No pseudopotential information found on rwf file.
    78 basis functions,   116 primitive gaussians,    82 cartesian basis functions
     5 alpha electrons        5 beta electrons
       nuclear repulsion energy         9.1243081451 Hartrees.
 IExCor= 4336 DFT=T Ex+Corr=M062X ExCW=0 ScaHFX=  0.540000
 ScaDFX=  1.000000  1.000000  1.000000  1.000000 ScalE2=  1.000000  1.000000
 IRadAn=      5 IRanWt=     -1 IRanGd=            0 ICorTp=0 IEmpDi=131
 NAtoms=    6 NActive=    6 NUniq=    6 SFac= 1.00D+00 NAtFMM=   60 NAOKFM=F Big=F
 Integral buffers will be    131072 words long.
 Raffenetti 2 integral format.
 Two-electron integral symmetry is turned off.
 R6Disp:  Grimme-D3 Dispersion energy=       -0.0000000077 Hartrees.
 Nuclear repulsion after empirical dispersion term =        9.1243081374 Hartrees.
 No density basis found on file   718.
 Leave Link  301 at Sat Dec 17 23:50:28 2022, MaxMem=  6710886400 cpu:               1.3 elap:               0.1
 (Enter /data0/home/software/g16/l302.exe)
 NPDir=0 NMtPBC=     1 NCelOv=     1 NCel=       1 NClECP=     1 NCelD=      1
         NCelK=      1 NCelE2=     1 NClLst=     1 CellRange=     0.0.
 One-electron integrals computed using PRISM.
 NBasis=    78 RedAO= T EigKep=  1.81D-03  NBF=    78
 NBsUse=    78 1.00D-06 EigRej= -1.00D+00 NBFU=    78
 Precomputing XC quadrature grid using
 IXCGrd= 4 IRadAn=           5 IRanWt=          -1 IRanGd=           0 AccXCQ= 0.00D+00.
 Generated NRdTot=       0 NPtTot=           0 NUsed=           0 NTot=          32
 NSgBfM=    82    82    82    82    82 MxSgAt=     6 MxSgA2=     6.
 Leave Link  302 at Sat Dec 17 23:50:29 2022, MaxMem=  6710886400 cpu:               2.5 elap:               0.1
 (Enter /data0/home/software/g16/l303.exe)
 DipDrv:  MaxL=1.
 Leave Link  303 at Sat Dec 17 23:50:29 2022, MaxMem=  6710886400 cpu:               0.4 elap:               0.0
 (Enter /data0/home/software/g16/l401.exe)
 ExpMin= 8.45D-02 ExpMax= 8.59D+03 ExpMxC= 1.30D+03 IAcc=3 IRadAn=         5 AccDes= 0.00D+00
 Harris functional with IExCor= 1009 and IRadAn=       5 diagonalized for initial guess.
 HarFok:  IExCor= 1009 AccDes= 0.00D+00 IRadAn=         5 IDoV= 1 UseB2=F ITyADJ=14
 ICtDFT=  3500011 ScaDFX=  1.000000  1.000000  1.000000  1.000000
 FoFCou: FMM=F IPFlag=           0 FMFlag=      100000 FMFlg1=           0
         NFxFlg=           0 DoJE=T BraDBF=F KetDBF=T FulRan=T
         wScrn=  0.000000 ICntrl=       500 IOpCl=  0 I1Cent=   200000004 NGrid=           0
         NMat0=    1 NMatS0=      1 NMatT0=    0 NMatD0=    1 NMtDS0=    0 NMtDT0=    0
 Symmetry not used in FoFCou.
 Harris En= -76.4173672717505    
 JPrj=0 DoOrth=F DoCkMO=F.
 Leave Link  401 at Sat Dec 17 23:50:29 2022, MaxMem=  6710886400 cpu:               3.6 elap:               0.2
 (Enter /data0/home/software/g16/l502.exe)
 Keep R1 ints in memory in canonical form, NReq=26476721.
 FoFCou: FMM=F IPFlag=           0 FMFlag=           0 FMFlg1=           0
         NFxFlg=           0 DoJE=F BraDBF=F KetDBF=F FulRan=T
         wScrn=  0.000000 ICntrl=       600 IOpCl=  0 I1Cent=           0 NGrid=           0
         NMat0=    1 NMatS0=   3081 NMatT0=    0 NMatD0=    1 NMtDS0=    0 NMtDT0=    0
 Symmetry not used in FoFCou.
 Two-electron integral symmetry not used.
 Closed shell SCF:
 Using DIIS extrapolation, IDIIS=  1040.
 NGot=  6710886400 LenX=  6706122419 LenY=  6706115254
 Requested convergence on RMS density matrix=1.00D-08 within 128 cycles.
 Requested convergence on MAX density matrix=1.00D-06.
 Requested convergence on             energy=1.00D-06.
 No special actions if energy rises.
 Integral accuracy reduced to 1.0D-05 until final iterations.

 Cycle   1  Pass 0  IDiag  1:
 E= -76.3471260931858    
 DIIS: error= 4.44D-02 at cycle   1 NSaved=   1.
 NSaved= 1 IEnMin= 1 EnMin= -76.3471260931858     IErMin= 1 ErrMin= 4.44D-02
 ErrMax= 4.44D-02  0.00D+00 EMaxC= 1.00D-01 BMatC= 1.21D-01 BMatP= 1.21D-01
 IDIUse=3 WtCom= 5.56D-01 WtEn= 4.44D-01
 Coeff-Com:  0.100D+01
 Coeff-En:   0.100D+01
 Coeff:      0.100D+01
 Gap=     0.314 Goal=   None    Shift=    0.000
 GapD=    0.314 DampG=1.000 DampE=0.500 DampFc=0.5000 IDamp=-1.
 Damping current iteration by 5.00D-01
 RMSDP=5.57D-03 MaxDP=1.01D-01              OVMax= 1.72D-01

 Cycle   2  Pass 0  IDiag  1:
 E= -76.3784754506131     Delta-E=       -0.031349357427 Rises=F Damp=T
 DIIS: error= 9.03D-03 at cycle   2 NSaved=   2.
 NSaved= 2 IEnMin= 2 EnMin= -76.3784754506131     IErMin= 2 ErrMin= 9.03D-03
 ErrMax= 9.03D-03  0.00D+00 EMaxC= 1.00D-01 BMatC= 4.88D-03 BMatP= 1.21D-01
 IDIUse=3 WtCom= 9.10D-01 WtEn= 9.03D-02
 Coeff-Com:  0.836D-01 0.916D+00
 Coeff-En:   0.190D+00 0.810D+00
 Coeff:      0.933D-01 0.907D+00
 Gap=     0.445 Goal=   None    Shift=    0.000
 RMSDP=8.06D-04 MaxDP=1.41D-02 DE=-3.13D-02 OVMax= 1.03D-01

 Cycle   3  Pass 0  IDiag  1:
 E= -76.4226325640621     Delta-E=       -0.044157113449 Rises=F Damp=F
 DIIS: error= 1.22D-03 at cycle   3 NSaved=   3.
 NSaved= 3 IEnMin= 3 EnMin= -76.4226325640621     IErMin= 3 ErrMin= 1.22D-03
 ErrMax= 1.22D-03  0.00D+00 EMaxC= 1.00D-01 BMatC= 1.13D-04 BMatP= 4.88D-03
 IDIUse=3 WtCom= 9.88D-01 WtEn= 1.22D-02
 Coeff-Com: -0.233D-01 0.435D-01 0.980D+00
 Coeff-En:   0.000D+00 0.000D+00 0.100D+01
 Coeff:     -0.230D-01 0.430D-01 0.980D+00
 Gap=     0.448 Goal=   None    Shift=    0.000
 RMSDP=7.48D-05 MaxDP=1.10D-03 DE=-4.42D-02 OVMax= 3.52D-03

 Cycle   4  Pass 0  IDiag  1:
 E= -76.4227256136201     Delta-E=       -0.000093049558 Rises=F Damp=F
 DIIS: error= 1.97D-04 at cycle   4 NSaved=   4.
 NSaved= 4 IEnMin= 4 EnMin= -76.4227256136201     IErMin= 4 ErrMin= 1.97D-04
 ErrMax= 1.97D-04  0.00D+00 EMaxC= 1.00D-01 BMatC= 2.84D-06 BMatP= 1.13D-04
 IDIUse=3 WtCom= 9.98D-01 WtEn= 1.97D-03
 Coeff-Com: -0.235D-02-0.942D-03 0.152D+00 0.852D+00
 Coeff-En:   0.000D+00 0.000D+00 0.000D+00 0.100D+01
 Coeff:     -0.234D-02-0.940D-03 0.151D+00 0.852D+00
 Gap=     0.448 Goal=   None    Shift=    0.000
 RMSDP=1.74D-05 MaxDP=3.27D-04 DE=-9.30D-05 OVMax= 5.20D-04

 Cycle   5  Pass 0  IDiag  1:
 E= -76.4227274163237     Delta-E=       -0.000001802704 Rises=F Damp=F
 DIIS: error= 3.80D-05 at cycle   5 NSaved=   5.
 NSaved= 5 IEnMin= 5 EnMin= -76.4227274163237     IErMin= 5 ErrMin= 3.80D-05
 ErrMax= 3.80D-05  0.00D+00 EMaxC= 1.00D-01 BMatC= 7.55D-08 BMatP= 2.84D-06
 IDIUse=1 WtCom= 1.00D+00 WtEn= 0.00D+00
 Coeff-Com:  0.127D-02-0.196D-02-0.362D-01-0.536D-01 0.109D+01
 Coeff:      0.127D-02-0.196D-02-0.362D-01-0.536D-01 0.109D+01
 Gap=     0.448 Goal=   None    Shift=    0.000
 RMSDP=1.10D-05 MaxDP=1.61D-04 DE=-1.80D-06 OVMax= 2.08D-04

 Cycle   6  Pass 0  IDiag  1:
 E= -76.4227275474340     Delta-E=       -0.000000131110 Rises=F Damp=F
 DIIS: error= 6.16D-06 at cycle   6 NSaved=   6.
 NSaved= 6 IEnMin= 6 EnMin= -76.4227275474340     IErMin= 6 ErrMin= 6.16D-06
 ErrMax= 6.16D-06  0.00D+00 EMaxC= 1.00D-01 BMatC= 1.83D-09 BMatP= 7.55D-08
 IDIUse=1 WtCom= 1.00D+00 WtEn= 0.00D+00
 Coeff-Com: -0.248D-03 0.360D-03 0.320D-02-0.606D-02-0.153D+00 0.116D+01
 Coeff:     -0.248D-03 0.360D-03 0.320D-02-0.606D-02-0.153D+00 0.116D+01
 Gap=     0.448 Goal=   None    Shift=    0.000
 RMSDP=1.65D-06 MaxDP=2.10D-05 DE=-1.31D-07 OVMax= 3.97D-05

 Initial convergence to 1.0D-05 achieved.  Increase integral accuracy.
 Cycle   7  Pass 1  IDiag  1:
 E= -76.4227140100573     Delta-E=        0.000013537377 Rises=F Damp=F
 DIIS: error= 1.09D-05 at cycle   1 NSaved=   1.
 NSaved= 1 IEnMin= 1 EnMin= -76.4227140100573     IErMin= 1 ErrMin= 1.09D-05
 ErrMax= 1.09D-05  0.00D+00 EMaxC= 1.00D-01 BMatC= 1.32D-08 BMatP= 1.32D-08
 IDIUse=1 WtCom= 1.00D+00 WtEn= 0.00D+00
 Coeff-Com:  0.100D+01
 Coeff:      0.100D+01
 Gap=     0.448 Goal=   None    Shift=    0.000
 RMSDP=1.65D-06 MaxDP=2.10D-05 DE= 1.35D-05 OVMax= 2.75D-05

 Cycle   8  Pass 1  IDiag  1:
 E= -76.4227140193688     Delta-E=       -0.000000009311 Rises=F Damp=F
 DIIS: error= 1.20D-06 at cycle   2 NSaved=   2.
 NSaved= 2 IEnMin= 2 EnMin= -76.4227140193688     IErMin= 2 ErrMin= 1.20D-06
 ErrMax= 1.20D-06  0.00D+00 EMaxC= 1.00D-01 BMatC= 1.70D-10 BMatP= 1.32D-08
 IDIUse=1 WtCom= 1.00D+00 WtEn= 0.00D+00
 Coeff-Com: -0.702D-01 0.107D+01
 Coeff:     -0.702D-01 0.107D+01
 Gap=     0.448 Goal=   None    Shift=    0.000
 RMSDP=2.59D-07 MaxDP=3.76D-06 DE=-9.31D-09 OVMax= 5.28D-06

 Cycle   9  Pass 1  IDiag  1:
 E= -76.4227140194709     Delta-E=       -0.000000000102 Rises=F Damp=F
 DIIS: error= 1.07D-06 at cycle   3 NSaved=   3.
 NSaved= 3 IEnMin= 3 EnMin= -76.4227140194709     IErMin= 3 ErrMin= 1.07D-06
 ErrMax= 1.07D-06  0.00D+00 EMaxC= 1.00D-01 BMatC= 6.51D-11 BMatP= 1.70D-10
 IDIUse=1 WtCom= 1.00D+00 WtEn= 0.00D+00
 Coeff-Com: -0.323D-01 0.442D+00 0.590D+00
 Coeff:     -0.323D-01 0.442D+00 0.590D+00
 Gap=     0.448 Goal=   None    Shift=    0.000
 RMSDP=6.43D-08 MaxDP=1.44D-06 DE=-1.02D-10 OVMax= 2.50D-06

 Cycle  10  Pass 1  IDiag  1:
 E= -76.4227140195116     Delta-E=       -0.000000000041 Rises=F Damp=F
 DIIS: error= 2.69D-07 at cycle   4 NSaved=   4.
 NSaved= 4 IEnMin= 4 EnMin= -76.4227140195116     IErMin= 4 ErrMin= 2.69D-07
 ErrMax= 2.69D-07  0.00D+00 EMaxC= 1.00D-01 BMatC= 6.00D-12 BMatP= 6.51D-11
 IDIUse=1 WtCom= 1.00D+00 WtEn= 0.00D+00
 Coeff-Com: -0.270D-02 0.107D-01 0.224D+00 0.768D+00
 Coeff:     -0.270D-02 0.107D-01 0.224D+00 0.768D+00
 Gap=     0.448 Goal=   None    Shift=    0.000
 RMSDP=2.60D-08 MaxDP=5.21D-07 DE=-4.08D-11 OVMax= 7.79D-07

 Cycle  11  Pass 1  IDiag  1:
 E= -76.4227140195160     Delta-E=       -0.000000000004 Rises=F Damp=F
 DIIS: error= 2.73D-08 at cycle   5 NSaved=   5.
 NSaved= 5 IEnMin= 5 EnMin= -76.4227140195160     IErMin= 5 ErrMin= 2.73D-08
 ErrMax= 2.73D-08  0.00D+00 EMaxC= 1.00D-01 BMatC= 7.58D-14 BMatP= 6.00D-12
 IDIUse=1 WtCom= 1.00D+00 WtEn= 0.00D+00
 Coeff-Com:  0.149D-02-0.229D-01-0.809D-02 0.527D-01 0.977D+00
 Coeff:      0.149D-02-0.229D-01-0.809D-02 0.527D-01 0.977D+00
 Gap=     0.448 Goal=   None    Shift=    0.000
 RMSDP=8.17D-09 MaxDP=1.05D-07 DE=-4.41D-12 OVMax= 1.97D-07

 SCF Done:  E(RM062X) =  -76.4227140195     A.U. after   11 cycles
            NFock= 11  Conv=0.82D-08     -V/T= 2.0029
 KE= 7.619818244749D+01 PE=-1.990979361600D+02 EE= 3.735273155563D+01
 Leave Link  502 at Sat Dec 17 23:50:30 2022, MaxMem=  6710886400 cpu:              18.9 elap:               0.9
 (Enter /data0/home/software/g16/l601.exe)
 Copying SCF densities to generalized density rwf, IOpCl= 0 IROHF=0.

 **********************************************************************

            Population analysis using the SCF density.

 **********************************************************************

 Alpha  occ. eigenvalues --  -19.62604  -1.13420  -0.60914  -0.47511  -0.40028
 Alpha virt. eigenvalues --    0.04816   0.09634   0.12659   0.14736   0.16447
 Alpha virt. eigenvalues --    0.17696   0.20073   0.21036   0.23550   0.29428
 Alpha virt. eigenvalues --    0.32894   0.36760   0.51816   0.53749   0.59307
 Alpha virt. eigenvalues --    0.74253   0.75237   0.84571   0.95558   0.98315
 Alpha virt. eigenvalues --    1.01048   1.06086   1.10448   1.20306   1.21401
 Alpha virt. eigenvalues --    1.40363   1.54234   1.68081   1.74771   1.76213
 Alpha virt. eigenvalues --    1.80273   1.82232   1.90595   2.05994   2.09399
 Alpha virt. eigenvalues --    2.13773   2.24858   2.36676   2.43723   2.46085
 Alpha virt. eigenvalues --    2.49822   2.55711   2.56708   2.62101   2.65126
 Alpha virt. eigenvalues --    2.78732   2.84678   2.92345   3.00983   3.07318
 Alpha virt. eigenvalues --    3.44153   3.61579   4.52464   5.07950   5.13184
 Alpha virt. eigenvalues --    5.51998   5.93858   6.80238   6.83244   6.91627
 Alpha virt. eigenvalues --    6.97205   7.10292   9.65656   9.74311   9.78734
 Alpha virt. eigenvalues --    9.82957   9.98621  12.76510  13.11232  13.65113
 Alpha virt. eigenvalues --   17.61737  49.98758 136.03191
          Condensed to atoms (all electrons):
               1          2          3          4          5          6
     1  O    0.025345  -0.031783  -0.002665   0.059494  -0.002388  -0.003552
     2  H   -0.031783   0.046567   0.002487  -0.096157   0.003353   0.005099
     3  H   -0.002665   0.002487   0.000601  -0.004081   0.000201   0.000259
     4  O    0.059494  -0.096157  -0.004081   7.952821   0.336195   0.331266
     5  H   -0.002388   0.003353   0.000201   0.336195   0.415625  -0.027575
     6  H   -0.003552   0.005099   0.000259   0.331266  -0.027575   0.418740
 Mulliken charges:
               1
     1  O   -0.044450
     2  H    0.070435
     3  H    0.003198
     4  O   -0.579536
     5  H    0.274589
     6  H    0.275765
 Sum of Mulliken charges =   0.00000
 Mulliken charges with hydrogens summed into heavy atoms:
               1
     1  O    0.029183
     4  O   -0.029183
         Mulliken charges condensed to fragments:
      1      0.029183
      2     -0.029183
 Electronic spatial extent (au):  <R**2>=          11894.0405
 Charge=              0.0000 electrons
 Dipole moment (field-independent basis, Debye):
    X=             -0.7934    Y=              1.5865    Z=              1.0180  Tot=              2.0452
 Quadrupole moment (field-independent basis, Debye-Ang):
   XX=            -18.7686   YY=             35.9167   ZZ=             11.1896
   XY=              4.2677   XZ=              1.0866   YZ=             28.3661
 Traceless Quadrupole moment (field-independent basis, Debye-Ang):
   XX=            -28.2145   YY=             26.4708   ZZ=              1.7437
   XY=              4.2677   XZ=              1.0866   YZ=             28.3661
 Octapole moment (field-independent basis, Debye-Ang**2):
  XXX=           -310.3740  YYY=            593.6347  ZZZ=             52.9024  XYY=            199.7539
  XXY=           -111.1323  XXZ=           -102.6422  XZZ=             21.7224  YZZ=            287.9735
  YYZ=            517.5386  XYZ=            152.8641
 Hexadecapole moment (field-independent basis, Debye-Ang**3):
 XXXX=          -4373.7605 YYYY=           8384.0533 ZZZZ=           -572.9837 XXXY=          -2833.8347
 XXXZ=          -2262.0177 YYYX=           3860.6572 YYYZ=           8014.3865 ZZZX=           -272.0451
 ZZZY=           2014.4388 XXYY=           -104.5497 XXZZ=           -870.2844 YYZZ=           5162.4778
 XXYZ=            -72.6651 YYXZ=           3383.9100 ZZXY=           1586.6221
 N-N= 9.124308137404D+00 E-N=-1.990979354160D+02  KE= 7.619818244749D+01
 No NMR shielding tensors so no spin-rotation constants.
 Leave Link  601 at Sat Dec 17 23:50:30 2022, MaxMem=  6710886400 cpu:               1.8 elap:               0.1
 (Enter /data0/home/software/g16/l122.exe)
 CPIOFr:  IOpCl= 0 IRwI=-1 IRwCP=  731 ICalc=  2 LCPTot=       10496 Len1MO=       26312 IndFrg=       89432
 Counterpoise: doing calculation for fragment   1 using the basis set of the fragment.
 Leave Link  122 at Sat Dec 17 23:50:30 2022, MaxMem=  6710886400 cpu:               0.1 elap:               0.0
 (Enter /data0/home/software/g16/l301.exe)
 Basis read from rwf:  (5D, 7F)
 No pseudopotential information found on rwf file.
    39 basis functions,    58 primitive gaussians,    41 cartesian basis functions
     5 alpha electrons        5 beta electrons
       nuclear repulsion energy         9.1104841041 Hartrees.
 IExCor= 4336 DFT=T Ex+Corr=M062X ExCW=0 ScaHFX=  0.540000
 ScaDFX=  1.000000  1.000000  1.000000  1.000000 ScalE2=  1.000000  1.000000
 IRadAn=      5 IRanWt=     -1 IRanGd=            0 ICorTp=0 IEmpDi=131
 NAtoms=    6 NActive=    3 NUniq=    3 SFac= 1.00D+00 NAtFMM=   60 NAOKFM=F Big=F
 Integral buffers will be    131072 words long.
 Raffenetti 2 integral format.
 Two-electron integral symmetry is turned off.
 R6Disp:  Grimme-D3 Dispersion energy=       -0.0000000079 Hartrees.
 Nuclear repulsion after empirical dispersion term =        9.1104840962 Hartrees.
 No density basis found on file   718.
 Leave Link  301 at Sat Dec 17 23:50:30 2022, MaxMem=  6710886400 cpu:               1.3 elap:               0.1
 (Enter /data0/home/software/g16/l302.exe)
 NPDir=0 NMtPBC=     1 NCelOv=     1 NCel=       1 NClECP=     1 NCelD=      1
         NCelK=      1 NCelE2=     1 NClLst=     1 CellRange=     0.0.
 One-electron integrals computed using PRISM.
 NBasis=    39 RedAO= T EigKep=  3.06D-03  NBF=    39
 NBsUse=    39 1.00D-06 EigRej= -1.00D+00 NBFU=    39
 Precomputing XC quadrature grid using
 IXCGrd= 4 IRadAn=           5 IRanWt=          -1 IRanGd=           0 AccXCQ= 0.00D+00.
 Generated NRdTot=       0 NPtTot=           0 NUsed=           0 NTot=          32
 NSgBfM=    41    41    41    41    41 MxSgAt=     3 MxSgA2=     3.
 Leave Link  302 at Sat Dec 17 23:50:30 2022, MaxMem=  6710886400 cpu:               2.3 elap:               0.1
 (Enter /data0/home/software/g16/l303.exe)
 DipDrv:  MaxL=1.
 Leave Link  303 at Sat Dec 17 23:50:30 2022, MaxMem=  6710886400 cpu:               0.4 elap:               0.0
 (Enter /data0/home/software/g16/l401.exe)
 ExpMin= 8.45D-02 ExpMax= 8.59D+03 ExpMxC= 1.30D+03 IAcc=3 IRadAn=         5 AccDes= 0.00D+00
 Harris functional with IExCor= 1009 and IRadAn=       5 diagonalized for initial guess.
 HarFok:  IExCor= 1009 AccDes= 0.00D+00 IRadAn=         5 IDoV= 1 UseB2=F ITyADJ=14
 ICtDFT=  3500011 ScaDFX=  1.000000  1.000000  1.000000  1.000000
 FoFCou: FMM=F IPFlag=           0 FMFlag=      100000 FMFlg1=           0
         NFxFlg=           0 DoJE=T BraDBF=F KetDBF=T FulRan=T
         wScrn=  0.000000 ICntrl=       500 IOpCl=  0 I1Cent=   200000004 NGrid=           0
         NMat0=    1 NMatS0=      1 NMatT0=    0 NMatD0=    1 NMtDS0=    0 NMtDT0=    0
 Symmetry not used in FoFCou.
 Harris En= -76.4166393251681    
 JPrj=0 DoOrth=F DoCkMO=F.
 Leave Link  401 at Sat Dec 17 23:50:30 2022, MaxMem=  6710886400 cpu:               2.9 elap:               0.1
 (Enter /data0/home/software/g16/l502.exe)
 Keep R1 ints in memory in canonical form, NReq=21036027.
 FoFCou: FMM=F IPFlag=           0 FMFlag=           0 FMFlg1=           0
         NFxFlg=           0 DoJE=F BraDBF=F KetDBF=F FulRan=T
         wScrn=  0.000000 ICntrl=       600 IOpCl=  0 I1Cent=           0 NGrid=           0
         NMat0=    1 NMatS0=    780 NMatT0=    0 NMatD0=    1 NMtDS0=    0 NMtDT0=    0
 Symmetry not used in FoFCou.
 Two-electron integral symmetry not used.
 Closed shell SCF:
 Using DIIS extrapolation, IDIIS=  1040.
 NGot=  6710886400 LenX=  6710576925 LenY=  6710574803
 Requested convergence on RMS density matrix=1.00D-08 within 128 cycles.
 Requested convergence on MAX density matrix=1.00D-06.
 Requested convergence on             energy=1.00D-06.
 No special actions if energy rises.
 Integral accuracy reduced to 1.0D-05 until final iterations.

 Cycle   1  Pass 0  IDiag  1:
 E= -76.3461610022235    
 DIIS: error= 7.04D-02 at cycle   1 NSaved=   1.
 NSaved= 1 IEnMin= 1 EnMin= -76.3461610022235     IErMin= 1 ErrMin= 7.04D-02
 ErrMax= 7.04D-02  0.00D+00 EMaxC= 1.00D-01 BMatC= 1.21D-01 BMatP= 1.21D-01
 IDIUse=3 WtCom= 2.96D-01 WtEn= 7.04D-01
 Coeff-Com:  0.100D+01
 Coeff-En:   0.100D+01
 Coeff:      0.100D+01
 Gap=     0.325 Goal=   None    Shift=    0.000
 GapD=    0.325 DampG=1.000 DampE=0.500 DampFc=0.5000 IDamp=-1.
 Damping current iteration by 5.00D-01
 RMSDP=7.89D-03 MaxDP=1.01D-01              OVMax= 1.68D-01

 Cycle   2  Pass 0  IDiag  1:
 E= -76.3776995841844     Delta-E=       -0.031538581961 Rises=F Damp=T
 DIIS: error= 1.14D-02 at cycle   2 NSaved=   2.
 NSaved= 2 IEnMin= 2 EnMin= -76.3776995841844     IErMin= 2 ErrMin= 1.14D-02
 ErrMax= 1.14D-02  0.00D+00 EMaxC= 1.00D-01 BMatC= 4.82D-03 BMatP= 1.21D-01
 IDIUse=3 WtCom= 8.86D-01 WtEn= 1.14D-01
 Coeff-Com:  0.817D-01 0.918D+00
 Coeff-En:   0.187D+00 0.813D+00
 Coeff:      0.937D-01 0.906D+00
 Gap=     0.458 Goal=   None    Shift=    0.000
 RMSDP=9.38D-04 MaxDP=1.39D-02 DE=-3.15D-02 OVMax= 1.01D-01

 Cycle   3  Pass 0  IDiag  1:
 E= -76.4216874353032     Delta-E=       -0.043987851119 Rises=F Damp=F
 DIIS: error= 2.18D-03 at cycle   3 NSaved=   3.
 NSaved= 3 IEnMin= 3 EnMin= -76.4216874353032     IErMin= 3 ErrMin= 2.18D-03
 ErrMax= 2.18D-03  0.00D+00 EMaxC= 1.00D-01 BMatC= 9.15D-05 BMatP= 4.82D-03
 IDIUse=3 WtCom= 9.78D-01 WtEn= 2.18D-02
 Coeff-Com: -0.200D-01 0.399D-01 0.980D+00
 Coeff-En:   0.000D+00 0.000D+00 0.100D+01
 Coeff:     -0.195D-01 0.390D-01 0.981D+00
 Gap=     0.462 Goal=   None    Shift=    0.000
 RMSDP=1.15D-04 MaxDP=9.94D-04 DE=-4.40D-02 OVMax= 3.31D-03

 Cycle   4  Pass 0  IDiag  1:
 E= -76.4217653257774     Delta-E=       -0.000077890474 Rises=F Damp=F
 DIIS: error= 4.12D-04 at cycle   4 NSaved=   4.
 NSaved= 4 IEnMin= 4 EnMin= -76.4217653257774     IErMin= 4 ErrMin= 4.12D-04
 ErrMax= 4.12D-04  0.00D+00 EMaxC= 1.00D-01 BMatC= 3.30D-06 BMatP= 9.15D-05
 IDIUse=3 WtCom= 9.96D-01 WtEn= 4.12D-03
 Coeff-Com: -0.192D-02-0.214D-02 0.164D+00 0.841D+00
 Coeff-En:   0.000D+00 0.000D+00 0.000D+00 0.100D+01
 Coeff:     -0.192D-02-0.214D-02 0.163D+00 0.841D+00
 Gap=     0.463 Goal=   None    Shift=    0.000
 RMSDP=2.21D-05 MaxDP=3.53D-04 DE=-7.79D-05 OVMax= 5.32D-04

 Cycle   5  Pass 0  IDiag  1:
 E= -76.4217673573602     Delta-E=       -0.000002031583 Rises=F Damp=F
 DIIS: error= 8.89D-05 at cycle   5 NSaved=   5.
 NSaved= 5 IEnMin= 5 EnMin= -76.4217673573602     IErMin= 5 ErrMin= 8.89D-05
 ErrMax= 8.89D-05  0.00D+00 EMaxC= 1.00D-01 BMatC= 8.28D-08 BMatP= 3.30D-06
 IDIUse=1 WtCom= 1.00D+00 WtEn= 0.00D+00
 Coeff-Com:  0.117D-02-0.179D-02-0.364D-01-0.671D-01 0.110D+01
 Coeff:      0.117D-02-0.179D-02-0.364D-01-0.671D-01 0.110D+01
 Gap=     0.463 Goal=   None    Shift=    0.000
 RMSDP=8.96D-06 MaxDP=1.03D-04 DE=-2.03D-06 OVMax= 2.01D-04

 Initial convergence to 1.0D-05 achieved.  Increase integral accuracy.
 Cycle   6  Pass 1  IDiag  1:
 E= -76.4217631153024     Delta-E=        0.000004242058 Rises=F Damp=F
 DIIS: error= 1.99D-05 at cycle   1 NSaved=   1.
 NSaved= 1 IEnMin= 1 EnMin= -76.4217631153024     IErMin= 1 ErrMin= 1.99D-05
 ErrMax= 1.99D-05  0.00D+00 EMaxC= 1.00D-01 BMatC= 1.92D-08 BMatP= 1.92D-08
 IDIUse=1 WtCom= 1.00D+00 WtEn= 0.00D+00
 Coeff-Com:  0.100D+01
 Coeff:      0.100D+01
 Gap=     0.463 Goal=   None    Shift=    0.000
 RMSDP=8.96D-06 MaxDP=1.03D-04 DE= 4.24D-06 OVMax= 5.03D-05

 Cycle   7  Pass 1  IDiag  1:
 E= -76.4217631307918     Delta-E=       -0.000000015489 Rises=F Damp=F
 DIIS: error= 1.16D-05 at cycle   2 NSaved=   2.
 NSaved= 2 IEnMin= 2 EnMin= -76.4217631307918     IErMin= 2 ErrMin= 1.16D-05
 ErrMax= 1.16D-05  0.00D+00 EMaxC= 1.00D-01 BMatC= 1.77D-09 BMatP= 1.92D-08
 IDIUse=1 WtCom= 1.00D+00 WtEn= 0.00D+00
 Coeff-Com:  0.667D-01 0.933D+00
 Coeff:      0.667D-01 0.933D+00
 Gap=     0.463 Goal=   None    Shift=    0.000
 RMSDP=9.11D-07 MaxDP=1.51D-05 DE=-1.55D-08 OVMax= 2.41D-05

 Cycle   8  Pass 1  IDiag  1:
 E= -76.4217631310931     Delta-E=       -0.000000000301 Rises=F Damp=F
 DIIS: error= 8.13D-06 at cycle   3 NSaved=   3.
 NSaved= 3 IEnMin= 3 EnMin= -76.4217631310931     IErMin= 3 ErrMin= 8.13D-06
 ErrMax= 8.13D-06  0.00D+00 EMaxC= 1.00D-01 BMatC= 1.67D-09 BMatP= 1.77D-09
 IDIUse=1 WtCom= 1.00D+00 WtEn= 0.00D+00
 Coeff-Com: -0.510D-01 0.510D+00 0.541D+00
 Coeff:     -0.510D-01 0.510D+00 0.541D+00
 Gap=     0.463 Goal=   None    Shift=    0.000
 RMSDP=4.41D-07 MaxDP=6.04D-06 DE=-3.01D-10 OVMax= 1.05D-05

 Cycle   9  Pass 1  IDiag  1:
 E= -76.4217631321883     Delta-E=       -0.000000001095 Rises=F Damp=F
 DIIS: error= 5.36D-07 at cycle   4 NSaved=   4.
 NSaved= 4 IEnMin= 4 EnMin= -76.4217631321883     IErMin= 4 ErrMin= 5.36D-07
 ErrMax= 5.36D-07  0.00D+00 EMaxC= 1.00D-01 BMatC= 3.14D-12 BMatP= 1.67D-09
 IDIUse=1 WtCom= 1.00D+00 WtEn= 0.00D+00
 Coeff-Com:  0.579D-02-0.956D-01-0.776D-01 0.117D+01
 Coeff:      0.579D-02-0.956D-01-0.776D-01 0.117D+01
 Gap=     0.463 Goal=   None    Shift=    0.000
 RMSDP=8.04D-08 MaxDP=5.17D-07 DE=-1.10D-09 OVMax= 1.71D-06

 Cycle  10  Pass 1  IDiag  1:
 E= -76.4217631321963     Delta-E=       -0.000000000008 Rises=F Damp=F
 DIIS: error= 7.70D-08 at cycle   5 NSaved=   5.
 NSaved= 5 IEnMin= 5 EnMin= -76.4217631321963     IErMin= 5 ErrMin= 7.70D-08
 ErrMax= 7.70D-08  0.00D+00 EMaxC= 1.00D-01 BMatC= 1.22D-13 BMatP= 3.14D-12
 IDIUse=1 WtCom= 1.00D+00 WtEn= 0.00D+00
 Coeff-Com:  0.196D-02-0.241D-01-0.223D-01 0.107D+00 0.938D+00
 Coeff:      0.196D-02-0.241D-01-0.223D-01 0.107D+00 0.938D+00
 Gap=     0.463 Goal=   None    Shift=    0.000
 RMSDP=1.41D-08 MaxDP=1.11D-07 DE=-8.01D-12 OVMax= 2.88D-07

 Cycle  11  Pass 1  IDiag  1:
 E= -76.4217631321964     Delta-E=       -0.000000000000 Rises=F Damp=F
 DIIS: error= 1.27D-08 at cycle   6 NSaved=   6.
 NSaved= 6 IEnMin= 6 EnMin= -76.4217631321964     IErMin= 6 ErrMin= 1.27D-08
 ErrMax= 1.27D-08  0.00D+00 EMaxC= 1.00D-01 BMatC= 4.66D-15 BMatP= 1.22D-13
 IDIUse=1 WtCom= 1.00D+00 WtEn= 0.00D+00
 Coeff-Com: -0.197D-04 0.118D-02 0.986D-03-0.406D-01 0.477D-01 0.991D+00
 Coeff:     -0.197D-04 0.118D-02 0.986D-03-0.406D-01 0.477D-01 0.991D+00
 Gap=     0.463 Goal=   None    Shift=    0.000
 RMSDP=2.87D-09 MaxDP=2.25D-08 DE=-5.68D-14 OVMax= 6.00D-08

 SCF Done:  E(RM062X) =  -76.4217631322     A.U. after   11 cycles
            NFock= 11  Conv=0.29D-08     -V/T= 2.0029
 KE= 7.619801952932D+01 PE=-1.990740929722D+02 EE= 3.734382621441D+01
 Leave Link  502 at Sat Dec 17 23:50:31 2022, MaxMem=  6710886400 cpu:               8.6 elap:               0.4
 (Enter /data0/home/software/g16/l601.exe)
 Copying SCF densities to generalized density rwf, IOpCl= 0 IROHF=0.

 **********************************************************************

            Population analysis using the SCF density.

 **********************************************************************

 Alpha  occ. eigenvalues --  -19.62569  -1.13353  -0.60876  -0.47427  -0.39980
 Alpha virt. eigenvalues --    0.06292   0.13334   0.17388   0.17948   0.18946
 Alpha virt. eigenvalues --    0.23242   0.51149   0.53531   0.97844   1.00223
 Alpha virt. eigenvalues --    1.06043   1.18817   1.19849   1.32557   1.33832
 Alpha virt. eigenvalues --    1.69470   1.74079   1.75871   2.07640   2.09455
 Alpha virt. eigenvalues --    2.35194   2.42464   2.54325   2.88577   3.01248
 Alpha virt. eigenvalues --    5.05695   5.47691   5.93152   6.78227   6.80306
 Alpha virt. eigenvalues --    6.87022   6.91489   7.09541  49.95949
          Condensed to atoms (all electrons):
               1          2          3
     1  O    7.915009   0.319634   0.323211
     2  H    0.319634   0.424392  -0.024564
     3  H    0.323211  -0.024564   0.424037
 Mulliken charges:
               1
     1  O   -0.557854
     2  H    0.280538
     3  H    0.277316
     4  O    0.000000
     5  H    0.000000
     6  H    0.000000
 Sum of Mulliken charges =  -0.00000
 Mulliken charges with hydrogens summed into heavy atoms:
               1
     1  O   -0.000000
     4  O    0.000000
         Mulliken charges condensed to fragments:
      1     -0.000000
      2      0.000000
 Electronic spatial extent (au):  <R**2>=          11099.4304
 Charge=             -0.0000 electrons
 Dipole moment (field-independent basis, Debye):
    X=             -1.6414    Y=             -0.4005    Z=              1.2616  Tot=              2.1086
 Quadrupole moment (field-independent basis, Debye-Ang):
   XX=            -34.3518   YY=            -18.3029   ZZ=             10.5612
   XY=            -26.8452   XZ=              1.2917   YZ=             13.8711
 Traceless Quadrupole moment (field-independent basis, Debye-Ang):
   XX=            -20.3206   YY=             -4.2717   ZZ=             24.5923
   XY=            -26.8452   XZ=              1.2917   YZ=             13.8711
 Octapole moment (field-independent basis, Debye-Ang**2):
  XXX=           -526.4772  YYY=           -530.6208  ZZZ=             49.1324  XYY=           -492.1153
  XXY=           -516.9475  XXZ=           -110.2289  XZZ=             34.7151  YZZ=            115.9435
  YYZ=             96.3856  XYZ=            -17.4907
 Hexadecapole moment (field-independent basis, Debye-Ang**3):
 XXXX=          -7051.2949 YYYY=         -12594.7684 ZZZZ=            -21.5787 XXXY=          -7696.6688
 XXXZ=          -2355.8726 YYYX=          -9365.0657 YYYZ=           -629.8470 ZZZX=             89.7285
 ZZZY=            435.3376 XXYY=          -8289.3273 XXZZ=           -437.0149 YYZZ=            891.8672
 XXYZ=          -1869.3361 YYXZ=          -1135.2007 ZZXY=            190.7532
 N-N= 9.110484096243D+00 E-N=-1.990740930695D+02  KE= 7.619801952932D+01
 No NMR shielding tensors so no spin-rotation constants.
 Leave Link  601 at Sat Dec 17 23:50:31 2022, MaxMem=  6710886400 cpu:               1.8 elap:               0.1
 (Enter /data0/home/software/g16/l122.exe)
 CPIOFr:  IOpCl= 0 IRwI=-1 IRwCP=  731 ICalc=  3 LCPTot=       10496 Len1MO=       26312 IndFrg=      115744
 Counterpoise: doing calculation for fragment   2 using the basis set of the fragment.
 Leave Link  122 at Sat Dec 17 23:50:31 2022, MaxMem=  6710886400 cpu:               0.1 elap:               0.0
 (Enter /data0/home/software/g16/l301.exe)
 Basis read from rwf:  (5D, 7F)
 No pseudopotential information found on rwf file.
    39 basis functions,    58 primitive gaussians,    41 cartesian basis functions
     5 alpha electrons        5 beta electrons
       nuclear repulsion energy         9.1243081451 Hartrees.
 IExCor= 4336 DFT=T Ex+Corr=M062X ExCW=0 ScaHFX=  0.540000
 ScaDFX=  1.000000  1.000000  1.000000  1.000000 ScalE2=  1.000000  1.000000
 IRadAn=      5 IRanWt=     -1 IRanGd=            0 ICorTp=0 IEmpDi=131
 NAtoms=    6 NActive=    3 NUniq=    3 SFac= 1.00D+00 NAtFMM=   60 NAOKFM=F Big=F
 Integral buffers will be    131072 words long.
 Raffenetti 2 integral format.
 Two-electron integral symmetry is turned off.
 R6Disp:  Grimme-D3 Dispersion energy=       -0.0000000077 Hartrees.
 Nuclear repulsion after empirical dispersion term =        9.1243081374 Hartrees.
 No density basis found on file   718.
 Leave Link  301 at Sat Dec 17 23:50:31 2022, MaxMem=  6710886400 cpu:               1.3 elap:               0.1
 (Enter /data0/home/software/g16/l302.exe)
 NPDir=0 NMtPBC=     1 NCelOv=     1 NCel=       1 NClECP=     1 NCelD=      1
         NCelK=      1 NCelE2=     1 NClLst=     1 CellRange=     0.0.
 One-electron integrals computed using PRISM.
 NBasis=    39 RedAO= T EigKep=  3.03D-03  NBF=    39
 NBsUse=    39 1.00D-06 EigRej= -1.00D+00 NBFU=    39
 Precomputing XC quadrature grid using
 IXCGrd= 4 IRadAn=           5 IRanWt=          -1 IRanGd=           0 AccXCQ= 0.00D+00.
 Generated NRdTot=       0 NPtTot=           0 NUsed=           0 NTot=          32
 NSgBfM=    41    41    41    41    41 MxSgAt=     3 MxSgA2=     3.
 Leave Link  302 at Sat Dec 17 23:50:31 2022, MaxMem=  6710886400 cpu:               2.2 elap:               0.1
 (Enter /data0/home/software/g16/l303.exe)
 DipDrv:  MaxL=1.
 Leave Link  303 at Sat Dec 17 23:50:31 2022, MaxMem=  6710886400 cpu:               0.4 elap:               0.0
 (Enter /data0/home/software/g16/l401.exe)
 ExpMin= 8.45D-02 ExpMax= 8.59D+03 ExpMxC= 1.30D+03 IAcc=3 IRadAn=         5 AccDes= 0.00D+00
 Harris functional with IExCor= 1009 and IRadAn=       5 diagonalized for initial guess.
 HarFok:  IExCor= 1009 AccDes= 0.00D+00 IRadAn=         5 IDoV= 1 UseB2=F ITyADJ=14
 ICtDFT=  3500011 ScaDFX=  1.000000  1.000000  1.000000  1.000000
 FoFCou: FMM=F IPFlag=           0 FMFlag=      100000 FMFlg1=           0
         NFxFlg=           0 DoJE=T BraDBF=F KetDBF=T FulRan=T
         wScrn=  0.000000 ICntrl=       500 IOpCl=  0 I1Cent=   200000004 NGrid=           0
         NMat0=    1 NMatS0=      1 NMatT0=    0 NMatD0=    1 NMtDS0=    0 NMtDT0=    0
 Symmetry not used in FoFCou.
 Harris En= -76.4168715303230    
 JPrj=0 DoOrth=F DoCkMO=F.
 Leave Link  401 at Sat Dec 17 23:50:31 2022, MaxMem=  6710886400 cpu:               2.9 elap:               0.1
 (Enter /data0/home/software/g16/l502.exe)
 Keep R1 ints in memory in canonical form, NReq=21036027.
 FoFCou: FMM=F IPFlag=           0 FMFlag=           0 FMFlg1=           0
         NFxFlg=           0 DoJE=F BraDBF=F KetDBF=F FulRan=T
         wScrn=  0.000000 ICntrl=       600 IOpCl=  0 I1Cent=           0 NGrid=           0
         NMat0=    1 NMatS0=    780 NMatT0=    0 NMatD0=    1 NMtDS0=    0 NMtDT0=    0
 Symmetry not used in FoFCou.
 Two-electron integral symmetry not used.
 Closed shell SCF:
 Using DIIS extrapolation, IDIIS=  1040.
 NGot=  6710886400 LenX=  6710576925 LenY=  6710574803
 Requested convergence on RMS density matrix=1.00D-08 within 128 cycles.
 Requested convergence on MAX density matrix=1.00D-06.
 Requested convergence on             energy=1.00D-06.
 No special actions if energy rises.
 Integral accuracy reduced to 1.0D-05 until final iterations.

 Cycle   1  Pass 0  IDiag  1:
 E= -76.3462767239809    
 DIIS: error= 7.05D-02 at cycle   1 NSaved=   1.
 NSaved= 1 IEnMin= 1 EnMin= -76.3462767239809     IErMin= 1 ErrMin= 7.05D-02
 ErrMax= 7.05D-02  0.00D+00 EMaxC= 1.00D-01 BMatC= 1.21D-01 BMatP= 1.21D-01
 IDIUse=3 WtCom= 2.95D-01 WtEn= 7.05D-01
 Coeff-Com:  0.100D+01
 Coeff-En:   0.100D+01
 Coeff:      0.100D+01
 Gap=     0.325 Goal=   None    Shift=    0.000
 GapD=    0.325 DampG=1.000 DampE=0.500 DampFc=0.5000 IDamp=-1.
 Damping current iteration by 5.00D-01
 RMSDP=7.89D-03 MaxDP=1.01D-01              OVMax= 1.68D-01

 Cycle   2  Pass 0  IDiag  1:
 E= -76.3778986492121     Delta-E=       -0.031621925231 Rises=F Damp=T
 DIIS: error= 1.15D-02 at cycle   2 NSaved=   2.
 NSaved= 2 IEnMin= 2 EnMin= -76.3778986492121     IErMin= 2 ErrMin= 1.15D-02
 ErrMax= 1.15D-02  0.00D+00 EMaxC= 1.00D-01 BMatC= 4.80D-03 BMatP= 1.21D-01
 IDIUse=3 WtCom= 8.85D-01 WtEn= 1.15D-01
 Coeff-Com:  0.810D-01 0.919D+00
 Coeff-En:   0.185D+00 0.815D+00
 Coeff:      0.930D-01 0.907D+00
 Gap=     0.458 Goal=   None    Shift=    0.000
 RMSDP=9.35D-04 MaxDP=1.39D-02 DE=-3.16D-02 OVMax= 1.00D-01

 Cycle   3  Pass 0  IDiag  1:
 E= -76.4218811087875     Delta-E=       -0.043982459575 Rises=F Damp=F
 DIIS: error= 2.17D-03 at cycle   3 NSaved=   3.
 NSaved= 3 IEnMin= 3 EnMin= -76.4218811087875     IErMin= 3 ErrMin= 2.17D-03
 ErrMax= 2.17D-03  0.00D+00 EMaxC= 1.00D-01 BMatC= 9.05D-05 BMatP= 4.80D-03
 IDIUse=3 WtCom= 9.78D-01 WtEn= 2.17D-02
 Coeff-Com: -0.199D-01 0.394D-01 0.981D+00
 Coeff-En:   0.000D+00 0.000D+00 0.100D+01
 Coeff:     -0.195D-01 0.386D-01 0.981D+00
 Gap=     0.463 Goal=   None    Shift=    0.000
 RMSDP=1.14D-04 MaxDP=9.92D-04 DE=-4.40D-02 OVMax= 3.29D-03

 Cycle   4  Pass 0  IDiag  1:
 E= -76.4219581125372     Delta-E=       -0.000077003750 Rises=F Damp=F
 DIIS: error= 4.09D-04 at cycle   4 NSaved=   4.
 NSaved= 4 IEnMin= 4 EnMin= -76.4219581125372     IErMin= 4 ErrMin= 4.09D-04
 ErrMax= 4.09D-04  0.00D+00 EMaxC= 1.00D-01 BMatC= 3.25D-06 BMatP= 9.05D-05
 IDIUse=3 WtCom= 9.96D-01 WtEn= 4.09D-03
 Coeff-Com: -0.188D-02-0.218D-02 0.162D+00 0.842D+00
 Coeff-En:   0.000D+00 0.000D+00 0.000D+00 0.100D+01
 Coeff:     -0.187D-02-0.217D-02 0.162D+00 0.842D+00
 Gap=     0.463 Goal=   None    Shift=    0.000
 RMSDP=2.20D-05 MaxDP=3.52D-04 DE=-7.70D-05 OVMax= 5.28D-04

 Cycle   5  Pass 0  IDiag  1:
 E= -76.4219601138235     Delta-E=       -0.000002001286 Rises=F Damp=F
 DIIS: error= 8.79D-05 at cycle   5 NSaved=   5.
 NSaved= 5 IEnMin= 5 EnMin= -76.4219601138235     IErMin= 5 ErrMin= 8.79D-05
 ErrMax= 8.79D-05  0.00D+00 EMaxC= 1.00D-01 BMatC= 8.13D-08 BMatP= 3.25D-06
 IDIUse=1 WtCom= 1.00D+00 WtEn= 0.00D+00
 Coeff-Com:  0.116D-02-0.177D-02-0.362D-01-0.653D-01 0.110D+01
 Coeff:      0.116D-02-0.177D-02-0.362D-01-0.653D-01 0.110D+01
 Gap=     0.463 Goal=   None    Shift=    0.000
 RMSDP=8.88D-06 MaxDP=1.02D-04 DE=-2.00D-06 OVMax= 1.99D-04

 Initial convergence to 1.0D-05 achieved.  Increase integral accuracy.
 Cycle   6  Pass 1  IDiag  1:
 E= -76.4219484501482     Delta-E=        0.000011663675 Rises=F Damp=F
 DIIS: error= 1.49D-05 at cycle   1 NSaved=   1.
 NSaved= 1 IEnMin= 1 EnMin= -76.4219484501482     IErMin= 1 ErrMin= 1.49D-05
 ErrMax= 1.49D-05  0.00D+00 EMaxC= 1.00D-01 BMatC= 1.52D-08 BMatP= 1.52D-08
 IDIUse=1 WtCom= 1.00D+00 WtEn= 0.00D+00
 Coeff-Com:  0.100D+01
 Coeff:      0.100D+01
 Gap=     0.463 Goal=   None    Shift=    0.000
 RMSDP=8.88D-06 MaxDP=1.02D-04 DE= 1.17D-05 OVMax= 5.10D-05

 Cycle   7  Pass 1  IDiag  1:
 E= -76.4219484625169     Delta-E=       -0.000000012369 Rises=F Damp=F
 DIIS: error= 1.09D-05 at cycle   2 NSaved=   2.
 NSaved= 2 IEnMin= 2 EnMin= -76.4219484625169     IErMin= 2 ErrMin= 1.09D-05
 ErrMax= 1.09D-05  0.00D+00 EMaxC= 1.00D-01 BMatC= 1.94D-09 BMatP= 1.52D-08
 IDIUse=1 WtCom= 1.00D+00 WtEn= 0.00D+00
 Coeff-Com:  0.111D+00 0.889D+00
 Coeff:      0.111D+00 0.889D+00
 Gap=     0.463 Goal=   None    Shift=    0.000
 RMSDP=8.91D-07 MaxDP=1.50D-05 DE=-1.24D-08 OVMax= 2.29D-05

 Cycle   8  Pass 1  IDiag  1:
 E= -76.4219484629887     Delta-E=       -0.000000000472 Rises=F Damp=F
 DIIS: error= 7.78D-06 at cycle   3 NSaved=   3.
 NSaved= 3 IEnMin= 3 EnMin= -76.4219484629887     IErMin= 3 ErrMin= 7.78D-06
 ErrMax= 7.78D-06  0.00D+00 EMaxC= 1.00D-01 BMatC= 1.54D-09 BMatP= 1.94D-09
 IDIUse=1 WtCom= 1.00D+00 WtEn= 0.00D+00
 Coeff-Com: -0.463D-01 0.482D+00 0.564D+00
 Coeff:     -0.463D-01 0.482D+00 0.564D+00
 Gap=     0.463 Goal=   None    Shift=    0.000
 RMSDP=4.39D-07 MaxDP=5.72D-06 DE=-4.72D-10 OVMax= 1.05D-05

 Cycle   9  Pass 1  IDiag  1:
 E= -76.4219484640066     Delta-E=       -0.000000001018 Rises=F Damp=F
 DIIS: error= 5.93D-07 at cycle   4 NSaved=   4.
 NSaved= 4 IEnMin= 4 EnMin= -76.4219484640066     IErMin= 4 ErrMin= 5.93D-07
 ErrMax= 5.93D-07  0.00D+00 EMaxC= 1.00D-01 BMatC= 4.32D-12 BMatP= 1.54D-09
 IDIUse=1 WtCom= 1.00D+00 WtEn= 0.00D+00
 Coeff-Com: -0.355D-02-0.141D-01 0.568D-02 0.101D+01
 Coeff:     -0.355D-02-0.141D-01 0.568D-02 0.101D+01
 Gap=     0.463 Goal=   None    Shift=    0.000
 RMSDP=7.69D-08 MaxDP=6.72D-07 DE=-1.02D-09 OVMax= 1.64D-06

 Cycle  10  Pass 1  IDiag  1:
 E= -76.4219484640151     Delta-E=       -0.000000000009 Rises=F Damp=F
 DIIS: error= 1.08D-07 at cycle   5 NSaved=   5.
 NSaved= 5 IEnMin= 5 EnMin= -76.4219484640151     IErMin= 5 ErrMin= 1.08D-07
 ErrMax= 1.08D-07  0.00D+00 EMaxC= 1.00D-01 BMatC= 2.87D-13 BMatP= 4.32D-12
 IDIUse=1 WtCom= 1.00D+00 WtEn= 0.00D+00
 Coeff-Com:  0.246D-02-0.297D-01-0.308D-01 0.463D-01 0.101D+01
 Coeff:      0.246D-02-0.297D-01-0.308D-01 0.463D-01 0.101D+01
 Gap=     0.463 Goal=   None    Shift=    0.000
 RMSDP=2.30D-08 MaxDP=2.04D-07 DE=-8.54D-12 OVMax= 5.40D-07

 Cycle  11  Pass 1  IDiag  1:
 E= -76.4219484640156     Delta-E=       -0.000000000001 Rises=F Damp=F
 DIIS: error= 2.28D-08 at cycle   6 NSaved=   6.
 NSaved= 6 IEnMin= 6 EnMin= -76.4219484640156     IErMin= 6 ErrMin= 2.28D-08
 ErrMax= 2.28D-08  0.00D+00 EMaxC= 1.00D-01 BMatC= 6.10D-15 BMatP= 2.87D-13
 IDIUse=1 WtCom= 1.00D+00 WtEn= 0.00D+00
 Coeff-Com:  0.197D-04 0.850D-03 0.133D-02-0.330D-01-0.369D-01 0.107D+01
 Coeff:      0.197D-04 0.850D-03 0.133D-02-0.330D-01-0.369D-01 0.107D+01
 Gap=     0.463 Goal=   None    Shift=    0.000
 RMSDP=3.81D-09 MaxDP=2.80D-08 DE=-5.12D-13 OVMax= 7.53D-08

 SCF Done:  E(RM062X) =  -76.4219484640     A.U. after   11 cycles
            NFock= 11  Conv=0.38D-08     -V/T= 2.0029
 KE= 7.620320701898D+01 PE=-1.991036739396D+02 EE= 3.735421031922D+01
 Leave Link  502 at Sat Dec 17 23:50:31 2022, MaxMem=  6710886400 cpu:               8.7 elap:               0.4
 (Enter /data0/home/software/g16/l601.exe)
 Copying SCF densities to generalized density rwf, IOpCl= 0 IROHF=0.

 **********************************************************************

            Population analysis using the SCF density.

 **********************************************************************

 Alpha  occ. eigenvalues --  -19.62552  -1.13424  -0.60918  -0.47471  -0.39995
 Alpha virt. eigenvalues --    0.06327   0.13358   0.17385   0.17946   0.18942
 Alpha virt. eigenvalues --    0.23243   0.51459   0.53435   0.97856   1.00160
 Alpha virt. eigenvalues --    1.06045   1.18717   1.19919   1.32531   1.33760
 Alpha virt. eigenvalues --    1.69684   1.74217   1.75876   2.08206   2.09143
 Alpha virt. eigenvalues --    2.35402   2.42367   2.54434   2.88892   3.01351
 Alpha virt. eigenvalues --    5.05701   5.48102   5.93563   6.78245   6.80274
 Alpha virt. eigenvalues --    6.87047   6.91516   7.09405  49.96067
          Condensed to atoms (all electrons):
               4          5          6
     4  O    7.913638   0.322570   0.320783
     5  H    0.322570   0.424367  -0.024630
     6  H    0.320783  -0.024630   0.424548
 Mulliken charges:
               1
     1  O    0.000000
     2  H    0.000000
     3  H    0.000000
     4  O   -0.556991
     5  H    0.277693
     6  H    0.279298
 Sum of Mulliken charges =  -0.00000
 Mulliken charges with hydrogens summed into heavy atoms:
               1
     1  O    0.000000
     4  O   -0.000000
         Mulliken charges condensed to fragments:
      1      0.000000
      2     -0.000000
 Electronic spatial extent (au):  <R**2>=          11893.3084
 Charge=             -0.0000 electrons
 Dipole moment (field-independent basis, Debye):
    X=             -0.8351    Y=              1.6208    Z=              1.0606  Tot=              2.1093
 Quadrupole moment (field-independent basis, Debye-Ang):
   XX=            -19.4818   YY=             36.8553   ZZ=             11.9489
   XY=              4.0084   XZ=              1.0946   YZ=             29.2182
 Traceless Quadrupole moment (field-independent basis, Debye-Ang):
   XX=            -29.2560   YY=             27.0812   ZZ=              2.1747
   XY=              4.0084   XZ=              1.0946   YZ=             29.2182
 Octapole moment (field-independent basis, Debye-Ang**2):
  XXX=           -319.6059  YYY=            612.9931  ZZZ=             63.1394  XYY=            200.4173
  XXY=           -118.0414  XXZ=           -105.6430  XZZ=             25.1411  YZZ=            300.4409
  YYZ=            532.8968  XYZ=            155.4311
 Hexadecapole moment (field-independent basis, Debye-Ang**3):
 XXXX=          -4480.8127 YYYY=           8740.1471 ZZZZ=           -448.9668 XXXY=          -2933.7507
 XXXZ=          -2314.7303 YYYX=           3927.4019 YYYZ=           8276.0666 ZZZX=           -211.1556
 ZZZY=           2170.2983 XXYY=           -160.9131 XXZZ=           -867.5934 YYZZ=           5361.9466
 XXYZ=            -90.9831 YYXZ=           3452.4090 ZZXY=           1652.6651
 N-N= 9.124308137404D+00 E-N=-1.991036742192D+02  KE= 7.620320701898D+01
 No NMR shielding tensors so no spin-rotation constants.
 Leave Link  601 at Sat Dec 17 23:50:32 2022, MaxMem=  6710886400 cpu:               1.8 elap:               0.1
 (Enter /data0/home/software/g16/l122.exe)
 CPIOFr:  IOpCl= 0 IRwI=-1 IRwCP=  731 ICalc=  4 LCPTot=       10496 Len1MO=       26312 IndFrg=      142056
 Restoring MOs from calculation   1 to rwf.
 CPIOFr:  IOpCl= 0 IRwI=-2 IRwCP=  731 ICalc=  0 LCPTot=       10496 Len1MO=       26312 IndFrg=       36808
 Counterpoise corrected energy =    -152.849966644270
                   BSSE energy =       0.001090238363
              sum of fragments =    -152.843711596212
           complexation energy =      -4.61 kcal/mole (raw)
           complexation energy =      -3.93 kcal/mole (corrected)
 Leave Link  122 at Sat Dec 17 23:50:32 2022, MaxMem=  6710886400 cpu:               0.1 elap:               0.0
 (Enter /data0/home/software/g16/l9999.exe)
 1\1\GINC-LOCALHOST\SP\RM062X\6-311+G(2d,p)\H4O2\WUHANYU\17-Dec-2022\0\
 \#p M062X/6-311+G(2d,p) nosymm em=GD3 counterpoise=2\\Title Card Requi
 red\\0,1\O,0,8.829859,13.887798,6.34496\H,0,8.836853,13.481191,7.23299
 7\H,0,7.90812,14.067438,6.168199\O,0,8.70397,13.158344,9.050538\H,0,7.
 814211,13.229797,9.402076\H,0,9.129393,13.995769,9.292346\\Version=ES6
 4L-G16RevA.03\HF=-76.4219485\RMSD=3.813e-09\Dipole=-0.9726129,0.415771
 ,1.1602853\Quadrupole=-38.0891223,12.3263946,25.7627277,-17.9783567,5.
 8373377,37.5679016\PG=C01 [X(H4O2)]\\@


 WE THE UNWILLING
 LED BY THE UNQUALIFIED
 HAVE BEEN DOING THE UNBELIEVABLE SO LONG WITH SO LITTLE
 THAT WE NOW ATTEMPT THE IMPOSSIBLE WITH NOTHING.

                                    -- ANONYMOUS
 Job cpu time:       0 days  0 hours  2 minutes  5.5 seconds.
 Elapsed time:       0 days  0 hours  0 minutes  6.1 seconds.
 File lengths (MBytes):  RWF=     10 Int=      0 D2E=      0 Chk=      3 Scr=      1
 Normal termination of Gaussian 16 at Sat Dec 17 23:50:32 2022.
