 Entering Gaussian System, Link 0=g16
 Initial command:
 /data0/home/software/g16/l1.exe "/data0/home/software/g16/scratch/Gau-292600.inp" -scrdir="/data0/home/software/g16/scratch/"
 Default is to use a total of  22 processors:
                               22 via shared-memory
                                1 via Linda
 Entering Link 1 = /data0/home/software/g16/l1.exe PID=    292601.
  
 Copyright (c) 1988,1990,1992,1993,1995,1998,2003,2009,2016,
            Gaussian, Inc.  All Rights Reserved.
  
 This is part of the Gaussian(R) 16 program.  It is based on
 the Gaussian(R) 09 system (copyright 2009, Gaussian, Inc.),
 the Gaussian(R) 03 system (copyright 2003, Gaussian, Inc.),
 the Gaussian(R) 98 system (copyright 1998, Gaussian, Inc.),
 the Gaussian(R) 94 system (copyright 1995, Gaussian, Inc.),
 the Gaussian 92(TM) system (copyright 1992, Gaussian, Inc.),
 the Gaussian 90(TM) system (copyright 1990, Gaussian, Inc.),
 the Gaussian 88(TM) system (copyright 1988, Gaussian, Inc.),
 the Gaussian 86(TM) system (copyright 1986, Carnegie Mellon
 University), and the Gaussian 82(TM) system (copyright 1983,
 Carnegie Mellon University). Gaussian is a federally registered
 trademark of Gaussian, Inc.
  
 This software contains proprietary and confidential information,
 including trade secrets, belonging to Gaussian, Inc.
  
 This software is provided under written license and may be
 used, copied, transmitted, or stored only in accord with that
 written license.
  
 The following legend is applicable only to US Government
 contracts under FAR:
  
                    RESTRICTED RIGHTS LEGEND
  
 Use, reproduction and disclosure by the US Government is
 subject to restrictions as set forth in subparagraphs (a)
 and (c) of the Commercial Computer Software - Restricted
 Rights clause in FAR 52.227-19.
  
 Gaussian, Inc.
 340 Quinnipiac St., Bldg. 40, Wallingford CT 06492
  
  
 ---------------------------------------------------------------
 Warning -- This program may not be used in any manner that
 competes with the business of Gaussian, Inc. or will provide
 assistance to any competitor of Gaussian, Inc.  The licensee
 of this program is prohibited from giving any competitor of
 Gaussian, Inc. access to this program.  By using this program,
 the user acknowledges that Gaussian, Inc. is engaged in the
 business of creating and licensing software in the field of
 computational chemistry and represents and warrants to the
 licensee that it is not a competitor of Gaussian, Inc. and that
 it will not use this program in any manner prohibited above.
 ---------------------------------------------------------------
  

 Cite this work as:
 Gaussian 16, Revision A.03,
 M. J. Frisch, G. W. Trucks, H. B. Schlegel, G. E. Scuseria, 
 M. A. Robb, J. R. Cheeseman, G. Scalmani, V. Barone, 
 G. A. Petersson, H. Nakatsuji, X. Li, M. Caricato, A. V. Marenich, 
 J. Bloino, B. G. Janesko, R. Gomperts, B. Mennucci, H. P. Hratchian, 
 J. V. Ortiz, A. F. Izmaylov, J. L. Sonnenberg, D. Williams-Young, 
 F. Ding, F. Lipparini, F. Egidi, J. Goings, B. Peng, A. Petrone, 
 T. Henderson, D. Ranasinghe, V. G. Zakrzewski, J. Gao, N. Rega, 
 G. Zheng, W. Liang, M. Hada, M. Ehara, K. Toyota, R. Fukuda, 
 J. Hasegawa, M. Ishida, T. Nakajima, Y. Honda, O. Kitao, H. Nakai, 
 T. Vreven, K. Throssell, J. A. Montgomery, Jr., J. E. Peralta, 
 F. Ogliaro, M. J. Bearpark, J. J. Heyd, E. N. Brothers, K. N. Kudin, 
 V. N. Staroverov, T. A. Keith, R. Kobayashi, J. Normand, 
 K. Raghavachari, A. P. Rendell, J. C. Burant, S. S. Iyengar, 
 J. Tomasi, M. Cossi, J. M. Millam, M. Klene, C. Adamo, R. Cammi, 
 J. W. Ochterski, R. L. Martin, K. Morokuma, O. Farkas, 
 J. B. Foresman, and D. J. Fox, Gaussian, Inc., Wallingford CT, 2016.
 
 ******************************************
 Gaussian 16:  ES64L-G16RevA.03 25-Dec-2016
                19-Feb-2023 
 ******************************************
 %nproc=24
 Will use up to   24 processors via shared memory.
 %mem=50GB
 ---------------------------------------------------
 #p M062X/6-311+G(2d,p) nosymm em=GD3 counterpoise=2
 ---------------------------------------------------
 1/38=1,62=2,172=1/1;
 2/12=2,15=1,17=6,18=5,40=1/2;
 1/38=1,53=2,62=2,63=1/22;
 3/5=4,6=6,7=112,11=2,25=1,30=1,74=-55,124=31/1,2,3;
 4//1;
 5/5=2,38=5/2;
 6/7=2,8=2,9=2,10=2,28=1/1;
 1/53=2,62=2,63=1/22;
 3/5=7,6=11,7=112,11=2,25=1,30=1,74=-55,82=7,124=31/1,2,3;
 4//1;
 5/5=2,38=5/2;
 6/7=2,8=2,9=2,10=2,28=1/1;
 1/53=2,62=2,63=1/22(-4);
 99/5=1,9=1/99;
 Leave Link    1 at Sun Feb 19 13:12:32 2023, MaxMem=  6710886400 cpu:               0.7 elap:               0.0
 (Enter /data0/home/software/g16/l101.exe)
 -------------------
 Title Card Required
 -------------------
 Symbolic Z-matrix:
 Charge =  0 Multiplicity = 1 in supermolecule
 Charge =  0 Multiplicity = 1 in fragment      1.
 Charge =  0 Multiplicity = 1 in fragment      2.
 C                     13.01932   7.60093   13.72374    
 C                     14.10783   8.3865    13.36933    
 C                     12.66447   9.67732   14.52369    
 N                     12.14307   8.41507   14.44362    
 H                     12.80082   6.56953   13.48725    
 H                     14.96735   8.14094   12.7774    
 H                     12.18139   10.54253   14.98218    
 C                     10.81339   8.05396   14.90176    
 H                     10.62494   6.96806   14.76845    
 H                     10.66748   8.31844   15.96042    
 H                     10.04072   8.58225   14.28617    
 N                     13.88039   9.66807   13.88494    
 C                     14.68132   10.86053   13.60181    
 H                     15.69195   10.71718   14.04943    
 H                     14.21213   11.73968   14.11021    
 C                     14.81111   11.14551   12.08782    
 H                     15.7534   11.70801   11.92222    
 H                     14.93717   10.18925   11.52932    
 C                     13.64681   11.9368   11.50239    
 H                     13.83134   12.16031   10.4362    
 H                     13.53192   12.9151   11.99802    
 S                     12.08515   11.02376   11.64179    
 O                     11.15274   11.56471   10.6395    
 O                     12.49308   9.60899   11.38143    
 O                     11.70235   11.23362   13.05869    
 P                     10.09592   7.00654   11.29628    
 O                     10.61464   6.20854   12.40722    
 O                     9.18409   8.17602   11.86485    
 H                     9.00255   8.90583   11.14351    
 O                     11.10234   7.63341   10.25447    
 H                     11.70296   8.39011   10.73155    
 O                     9.1632    6.10796   10.35922    
 H                     9.12808   6.52775   9.42539    
 
 ITRead=  0  0  0  0  0  0  0  0  0  0  0  0  0  0  0  0  0  0  0  0
 ITRead=  0  0  0  0  0  0  0  0  0  0  0  0  0
 MicOpt= -1 -1 -1 -1 -1 -1 -1 -1 -1 -1 -1 -1 -1 -1 -1 -1 -1 -1 -1 -1
 MicOpt= -1 -1 -1 -1 -1 -1 -1 -1 -1 -1 -1 -1 -1
 NAtoms=     33 NQM=       33 NQMF=       0 NMMI=      0 NMMIF=      0
                NMic=       0 NMicF=      0.
                    Isotopes and Nuclear Properties:
 (Nuclear quadrupole moments (NQMom) in fm**2, nuclear magnetic moments (NMagM)
  in nuclear magnetons)

  Atom         1           2           3           4           5           6           7           8           9          10
 IAtWgt=          12          12          12          14           1           1           1          12           1           1
 AtmWgt=  12.0000000  12.0000000  12.0000000  14.0030740   1.0078250   1.0078250   1.0078250  12.0000000   1.0078250   1.0078250
 NucSpn=           0           0           0           2           1           1           1           0           1           1
 AtZEff=  -0.0000000  -0.0000000  -0.0000000  -0.0000000  -0.0000000  -0.0000000  -0.0000000  -0.0000000  -0.0000000  -0.0000000
 NQMom=    0.0000000   0.0000000   0.0000000   2.0440000   0.0000000   0.0000000   0.0000000   0.0000000   0.0000000   0.0000000
 NMagM=    0.0000000   0.0000000   0.0000000   0.4037610   2.7928460   2.7928460   2.7928460   0.0000000   2.7928460   2.7928460
 AtZNuc=   6.0000000   6.0000000   6.0000000   7.0000000   1.0000000   1.0000000   1.0000000   6.0000000   1.0000000   1.0000000

  Atom        11          12          13          14          15          16          17          18          19          20
 IAtWgt=           1          14          12           1           1          12           1           1          12           1
 AtmWgt=   1.0078250  14.0030740  12.0000000   1.0078250   1.0078250  12.0000000   1.0078250   1.0078250  12.0000000   1.0078250
 NucSpn=           1           2           0           1           1           0           1           1           0           1
 AtZEff=  -0.0000000  -0.0000000  -0.0000000  -0.0000000  -0.0000000  -0.0000000  -0.0000000  -0.0000000  -0.0000000  -0.0000000
 NQMom=    0.0000000   2.0440000   0.0000000   0.0000000   0.0000000   0.0000000   0.0000000   0.0000000   0.0000000   0.0000000
 NMagM=    2.7928460   0.4037610   0.0000000   2.7928460   2.7928460   0.0000000   2.7928460   2.7928460   0.0000000   2.7928460
 AtZNuc=   1.0000000   7.0000000   6.0000000   1.0000000   1.0000000   6.0000000   1.0000000   1.0000000   6.0000000   1.0000000

  Atom        21          22          23          24          25          26          27          28          29          30
 IAtWgt=           1          32          16          16          16          31          16          16           1          16
 AtmWgt=   1.0078250  31.9720718  15.9949146  15.9949146  15.9949146  30.9737634  15.9949146  15.9949146   1.0078250  15.9949146
 NucSpn=           1           0           0           0           0           1           0           0           1           0
 AtZEff=  -0.0000000  -0.0000000  -0.0000000  -0.0000000  -0.0000000  -0.0000000  -0.0000000  -0.0000000  -0.0000000  -0.0000000
 NQMom=    0.0000000   0.0000000   0.0000000   0.0000000   0.0000000   0.0000000   0.0000000   0.0000000   0.0000000   0.0000000
 NMagM=    2.7928460   0.0000000   0.0000000   0.0000000   0.0000000   1.1316000   0.0000000   0.0000000   2.7928460   0.0000000
 AtZNuc=   1.0000000  16.0000000   8.0000000   8.0000000   8.0000000  15.0000000   8.0000000   8.0000000   1.0000000   8.0000000

  Atom        31          32          33
 IAtWgt=           1          16           1
 AtmWgt=   1.0078250  15.9949146   1.0078250
 NucSpn=           1           0           1
 AtZEff=  -0.0000000  -0.0000000  -0.0000000
 NQMom=    0.0000000   0.0000000   0.0000000
 NMagM=    2.7928460   0.0000000   2.7928460
 AtZNuc=   1.0000000   8.0000000   1.0000000
 Leave Link  101 at Sun Feb 19 13:12:32 2023, MaxMem=  6710886400 cpu:               2.2 elap:               0.1
 (Enter /data0/home/software/g16/l202.exe)
                          Input orientation:                          
 ---------------------------------------------------------------------
 Center     Atomic      Atomic             Coordinates (Angstroms)
 Number     Number       Type             X           Y           Z
 ---------------------------------------------------------------------
      1          6           0       13.019317    7.600925   13.723741
      2          6           0       14.107830    8.386505   13.369330
      3          6           0       12.664473    9.677322   14.523689
      4          7           0       12.143072    8.415066   14.443624
      5          1           0       12.800820    6.569532   13.487250
      6          1           0       14.967352    8.140943   12.777405
      7          1           0       12.181389   10.542534   14.982180
      8          6           0       10.813392    8.053957   14.901764
      9          1           0       10.624942    6.968061   14.768453
     10          1           0       10.667483    8.318435   15.960416
     11          1           0       10.040719    8.582247   14.286169
     12          7           0       13.880392    9.668066   13.884937
     13          6           0       14.681323   10.860533   13.601814
     14          1           0       15.691953   10.717184   14.049426
     15          1           0       14.212132   11.739681   14.110209
     16          6           0       14.811109   11.145510   12.087824
     17          1           0       15.753402   11.708007   11.922217
     18          1           0       14.937165   10.189252   11.529317
     19          6           0       13.646809   11.936798   11.502390
     20          1           0       13.831339   12.160308   10.436197
     21          1           0       13.531922   12.915099   11.998018
     22         16           0       12.085150   11.023759   11.641790
     23          8           0       11.152739   11.564715   10.639504
     24          8           0       12.493082    9.608985   11.381433
     25          8           0       11.702353   11.233616   13.058693
     26         15           0       10.095917    7.006538   11.296277
     27          8           0       10.614643    6.208537   12.407217
     28          8           0        9.184088    8.176025   11.864852
     29          1           0        9.002549    8.905827   11.143513
     30          8           0       11.102335    7.633407   10.254473
     31          1           0       11.702962    8.390108   10.731550
     32          8           0        9.163202    6.107958   10.359215
     33          1           0        9.128078    6.527746    9.425385
 ---------------------------------------------------------------------
                    Distance matrix (angstroms):
                    1          2          3          4          5
     1  C    0.000000
     2  C    1.388382   0.000000
     3  C    2.253277   2.254336   0.000000
     4  N    1.396017   2.239464   1.368050   0.000000
     5  H    1.080482   2.241332   3.278895   2.180202   0.000000
     6  H    2.232042   1.072126   3.273106   3.290591   2.768948
     7  H    3.307394   3.310728   1.091868   2.194910   4.289902
     8  C    2.541472   3.648598   2.490935   1.452013   2.855563
     9  H    2.687931   4.012485   3.399955   2.122276   2.556316
    10  H    3.323952   4.307476   2.810467   2.118339   3.704907
    11  H    3.186121   4.173763   2.853014   2.114859   3.508198
    12  N    2.245107   1.399992   1.373517   2.213689   3.305230
    13  C    3.660898   2.550247   2.513469   3.623765   4.686375
    14  H    4.118267   2.898972   3.236027   4.248493   5.087014
    15  H    4.324519   3.435632   2.611425   3.930043   5.395398
    16  C    4.295442   3.122334   3.563293   4.485927   5.190301
    17  H    5.252507   3.979249   4.520268   5.498676   6.129518
    18  H    3.897829   2.706167   3.793872   4.409975   4.636792
    19  C    4.912020   4.037646   3.898521   4.828528   5.784714
    20  H    5.679375   4.787620   4.922843   5.739038   6.451951
    21  H    5.610822   4.766585   4.196985   5.306618   6.558852
    22  S    4.113755   3.745763   3.233241   3.828695   4.874222
    23  O    5.358009   5.126942   4.575422   5.037100   5.981445
    24  O    3.129798   2.837887   3.147669   3.305293   3.710450
    25  O    3.920858   3.740168   2.343915   3.171197   4.810818
    26  P    3.846056   4.722002   4.913935   4.010061   3.508253
    27  O    3.074807   4.227477   4.551233   3.369246   2.464987
    28  O    4.300603   5.152765   4.629945   3.932276   4.277119
    29  H    4.949219   5.593554   5.042864   4.581972   5.037682
    30  O    3.963798   4.393460   4.984383   4.386697   3.803620
    31  H    3.362857   3.569494   4.118463   3.738156   3.480470
    32  O    5.330911   6.221086   6.507081   5.557407   4.819743
    33  H    5.896551   6.618732   6.958349   6.151007   5.476269
                    6          7          8          9         10
     6  H    0.000000
     7  H    4.288387   0.000000
     8  C    4.666460   2.840933   0.000000
     9  H    4.918989   3.904493   1.110160   0.000000
    10  H    5.352750   2.862774   1.100901   1.801692   0.000000
    11  H    5.171347   2.984899   1.120300   1.783118   1.807079
    12  N    2.177203   2.203463   3.611893   4.320715   4.056094
    13  C    2.856157   2.873361   4.952538   5.741656   5.304355
    14  H    2.963124   3.636563   5.623132   6.344094   5.886525
    15  H    3.911220   2.513446   5.075683   6.005795   5.262388
    16  C    3.086642   3.956805   5.784263   6.493138   6.337110
    17  H    3.751422   4.845717   6.828871   7.541170   7.325491
    18  H    2.398792   4.431859   5.739197   6.281985   6.431546
    19  C    4.216398   4.024968   5.887313   6.669872   6.468611
    20  H    4.788223   5.099558   6.775796   7.483906   7.435521
    21  H    5.045837   4.044530   6.281150   7.175870   6.710807
    22  S    4.231706   3.376247   4.589610   5.325121   5.289526
    23  O    5.553747   4.578407   5.532399   6.201292   6.251873
    24  O    3.197796   3.732833   4.199071   4.683624   5.095627
    25  O    4.505992   2.099255   3.781189   4.720069   4.241372
    26  P    5.216464   5.517095   3.822485   3.512457   4.878725
    27  O    4.776747   5.279077   3.109315   2.480407   4.132758
    28  O    5.854923   4.929697   3.448531   3.459210   4.358255
    29  H    6.231655   5.245874   4.257850   4.418969   5.130262
    30  O    4.643397   5.654962   4.675218   4.587658   5.763345
    31  H    3.860550   4.788495   4.277267   4.413721   5.330890
    32  O    6.608239   7.081435   5.210066   4.724176   6.206651
    33  H    6.923551   7.504612   5.929615   5.566224   6.948594
                   11         12         13         14         15
    11  H    0.000000
    12  N    4.010371   0.000000
    13  C    5.214800   1.464113   0.000000
    14  H    6.045697   2.099871   1.114575   0.000000
    15  H    5.234600   2.110068   1.118708   1.799740   0.000000
    16  C    5.844626   2.505731   1.546034   2.192540   2.191313
    17  H    6.927726   3.394377   2.165320   2.347451   2.676532
    18  H    5.844474   2.633885   2.193471   2.683164   3.096854
    19  C    5.657413   3.298217   2.576072   3.486756   2.675662
    20  H    6.480247   4.255289   3.526049   4.312762   3.717566
    21  H    6.016456   3.771620   2.848601   3.702005   2.511104
    22  S    4.139253   3.176870   3.257062   4.347382   3.336119
    23  O    4.840441   4.644373   4.660693   5.740239   4.629934
    24  O    3.937736   2.862805   3.359295   4.310344   3.865387
    25  O    3.361173   2.806685   3.050973   4.143086   2.767811
    26  P    3.380142   5.301617   6.418312   7.257020   6.874888
    27  O    3.081290   4.981678   6.293331   6.985973   6.814372
    28  O    2.600309   5.325617   6.359498   7.319984   6.559154
    29  H    3.325476   5.647102   6.489422   7.514883   6.631121
    30  O    4.275734   5.003769   5.867554   6.706411   6.434207
    31  H    3.928777   4.039583   4.817888   5.686443   5.378746
    32  O    4.723675   6.881640   7.971893   8.802682   8.442627
    33  H    5.355475   7.234204   8.188659   9.056357   8.657912
                   16         17         18         19         20
    16  C    0.000000
    17  H    1.109840   0.000000
    18  H    1.114562   1.768398   0.000000
    19  C    1.524619   2.160170   2.172478   0.000000
    20  H    2.172012   2.471266   2.510543   1.104887   0.000000
    21  H    2.185367   2.529385   3.102359   1.102687   1.760297
    22  S    2.764891   3.742046   2.973725   1.814346   2.407151
    23  O    3.956897   4.778283   4.123778   2.665221   2.751538
    24  O    2.869346   3.915102   2.516371   2.600852   3.032104
    25  O    3.258023   4.234102   3.727425   2.587944   3.502688
    26  P    6.323818   7.382598   5.798419   6.079373   6.422964
    27  O    6.487376   7.542297   5.941464   6.544136   7.046675
    28  O    6.366390   7.458825   6.104389   5.847279   6.285898
    29  H    6.296608   7.350688   6.084052   5.557403   5.865932
    30  O    5.426882   6.404386   4.781578   5.152749   5.288981
    31  H    4.369473   5.369563   3.785950   4.117250   4.339543
    32  O    7.762981   8.788302   7.166920   7.442107   7.643845
    33  H    7.791609   8.772924   7.181828   7.347838   7.407304
                   21         22         23         24         25
    21  H    0.000000
    22  S    2.407741   0.000000
    23  O    3.054441   1.471938   0.000000
    24  O    3.519908   1.495252   2.484322   0.000000
    25  O    2.701803   1.482629   2.502834   2.465336   0.000000
    26  P    6.870929   4.496053   4.724955   3.539263   4.853343
    27  O    7.325021   5.092606   5.665951   4.017936   5.182562
    28  O    6.432746   4.071303   4.106128   3.638201   4.137122
    29  H    6.108982   3.773108   3.456447   3.568593   4.046660
    30  O    6.069523   3.792764   3.950439   2.665919   4.602736
    31  H    5.042279   2.812601   3.223251   1.591320   3.674389
    32  O    8.252791   5.860706   5.814896   4.938646   6.325096
    33  H    8.173773   5.819868   5.562769   4.964213   6.478660
                   26         27         28         29         30
    26  P    0.000000
    27  O    1.462898   0.000000
    28  O    1.588210   2.492319   0.000000
    29  H    2.196836   3.386911   1.042064   0.000000
    30  O    1.578353   2.627243   2.562699   2.611235   0.000000
    31  H    2.194488   2.958302   2.770367   2.779912   1.077475
    32  O    1.598590   2.512192   2.558179   2.910155   2.469454
    33  H    2.160137   3.347102   2.944649   2.936493   2.409889
                   31         32         33
    31  H    0.000000
    32  O    3.434709   0.000000
    33  H    3.435766   1.024448   0.000000
 Symmetry turned off by external request.
 Stoichiometry    C7H15N2O7PS
 Framework group  C1[X(C7H15N2O7PS)]
 Deg. of freedom    93
 Full point group                 C1      NOp   1
 Rotational constants (GHZ):           0.5474750           0.2727929           0.2225374
 Leave Link  202 at Sun Feb 19 13:12:32 2023, MaxMem=  6710886400 cpu:               0.1 elap:               0.0
 (Enter /data0/home/software/g16/l122.exe)
 Counterpoise: doing full-system calculation.
 Leave Link  122 at Sun Feb 19 13:12:32 2023, MaxMem=  6710886400 cpu:               0.0 elap:               0.0
 (Enter /data0/home/software/g16/l301.exe)
 Standard basis: 6-311+G(2d,p) (5D, 7F)
 Ernie: Thresh=  0.10000D-02 Tol=  0.10000D-05 Strict=F.
   592 basis functions,   904 primitive gaussians,   628 cartesian basis functions
    79 alpha electrons       79 beta electrons
       nuclear repulsion energy      1928.6009398739 Hartrees.
 IExCor= 4336 DFT=T Ex+Corr=M062X ExCW=0 ScaHFX=  0.540000
 ScaDFX=  1.000000  1.000000  1.000000  1.000000 ScalE2=  1.000000  1.000000
 IRadAn=      5 IRanWt=     -1 IRanGd=            0 ICorTp=0 IEmpDi=131
 NAtoms=   33 NActive=   33 NUniq=   33 SFac= 1.00D+00 NAtFMM=   60 NAOKFM=F Big=F
 Integral buffers will be    131072 words long.
 Raffenetti 2 integral format.
 Two-electron integral symmetry is turned off.
 R6Disp:  Grimme-D3 Dispersion energy=       -0.0023879516 Hartrees.
 Nuclear repulsion after empirical dispersion term =     1928.5985519223 Hartrees.
 Leave Link  301 at Sun Feb 19 13:12:32 2023, MaxMem=  6710886400 cpu:               1.1 elap:               0.1
 (Enter /data0/home/software/g16/l302.exe)
 NPDir=0 NMtPBC=     1 NCelOv=     1 NCel=       1 NClECP=     1 NCelD=      1
         NCelK=      1 NCelE2=     1 NClLst=     1 CellRange=     0.0.
 One-electron integrals computed using PRISM.
 NBasis=   592 RedAO= T EigKep=  8.43D-06  NBF=   592
 NBsUse=   592 1.00D-06 EigRej= -1.00D+00 NBFU=   592
 Precomputing XC quadrature grid using
 IXCGrd= 4 IRadAn=           5 IRanWt=          -1 IRanGd=           0 AccXCQ= 0.00D+00.
 Generated NRdTot=       0 NPtTot=           0 NUsed=           0 NTot=          32
 NSgBfM=   627   627   627   627   627 MxSgAt=    33 MxSgA2=    33.
 Leave Link  302 at Sun Feb 19 13:12:33 2023, MaxMem=  6710886400 cpu:              15.8 elap:               0.7
 (Enter /data0/home/software/g16/l303.exe)
 DipDrv:  MaxL=1.
 Leave Link  303 at Sun Feb 19 13:12:33 2023, MaxMem=  6710886400 cpu:               1.5 elap:               0.1
 (Enter /data0/home/software/g16/l401.exe)
 ExpMin= 3.48D-02 ExpMax= 9.34D+04 ExpMxC= 3.17D+03 IAcc=3 IRadAn=         5 AccDes= 0.00D+00
 Harris functional with IExCor= 1009 and IRadAn=       5 diagonalized for initial guess.
 HarFok:  IExCor= 1009 AccDes= 0.00D+00 IRadAn=         5 IDoV= 1 UseB2=F ITyADJ=14
 ICtDFT=  3500011 ScaDFX=  1.000000  1.000000  1.000000  1.000000
 FoFCou: FMM=F IPFlag=           0 FMFlag=      100000 FMFlg1=           0
         NFxFlg=           0 DoJE=T BraDBF=F KetDBF=T FulRan=T
         wScrn=  0.000000 ICntrl=       500 IOpCl=  0 I1Cent=   200000004 NGrid=           0
         NMat0=    1 NMatS0=      1 NMatT0=    0 NMatD0=    1 NMtDS0=    0 NMtDT0=    0
 Symmetry not used in FoFCou.
 Harris En= -1650.75433399409    
 JPrj=0 DoOrth=F DoCkMO=F.
 Leave Link  401 at Sun Feb 19 13:12:35 2023, MaxMem=  6710886400 cpu:              57.6 elap:               2.4
 (Enter /data0/home/software/g16/l502.exe)
 Two-electron integral symmetry not used.
 Closed shell SCF:
 Using DIIS extrapolation, IDIIS=  1040.
 NGot=  6710886400 LenX=  6710078225 LenY=  6709683213
 Requested convergence on RMS density matrix=1.00D-08 within 128 cycles.
 Requested convergence on MAX density matrix=1.00D-06.
 Requested convergence on             energy=1.00D-06.
 No special actions if energy rises.
 Fock matrices will be formed incrementally for  20 cycles.

 Cycle   1  Pass 1  IDiag  1:
 FoFJK:  IHMeth= 1 ICntrl=       0 DoSepK=F KAlg= 0 I1Cent=           0 FoldK=F
 IRaf= 840000000 NMat=       1 IRICut=       1 DoRegI=T DoRafI=F ISym2E= 0 IDoP0=0 IntGTp=1.
 FoFCou: FMM=F IPFlag=           0 FMFlag=      100000 FMFlg1=           0
         NFxFlg=           0 DoJE=F BraDBF=F KetDBF=F FulRan=T
         wScrn=  0.000000 ICntrl=         0 IOpCl=  0 I1Cent=           0 NGrid=           0
         NMat0=    1 NMatS0=      1 NMatT0=    0 NMatD0=    1 NMtDS0=    0 NMtDT0=    0
 Symmetry not used in FoFCou.
 E= -1650.71376442858    
 DIIS: error= 2.12D-02 at cycle   1 NSaved=   1.
 NSaved= 1 IEnMin= 1 EnMin= -1650.71376442858     IErMin= 1 ErrMin= 2.12D-02
 ErrMax= 2.12D-02  0.00D+00 EMaxC= 1.00D-01 BMatC= 1.20D+00 BMatP= 1.20D+00
 IDIUse=3 WtCom= 7.88D-01 WtEn= 2.12D-01
 Coeff-Com:  0.100D+01
 Coeff-En:   0.100D+01
 Coeff:      0.100D+01
 Gap=     0.270 Goal=   None    Shift=    0.000
 GapD=    0.270 DampG=1.000 DampE=0.500 DampFc=0.5000 IDamp=-1.
 Damping current iteration by 5.00D-01
 RMSDP=4.75D-03 MaxDP=3.07D-01              OVMax= 2.35D-01

 Cycle   2  Pass 1  IDiag  1:
 RMSU=  2.37D-03    CP:  1.01D+00
 E= -1651.01716625166     Delta-E=       -0.303401823081 Rises=F Damp=T
 DIIS: error= 6.22D-03 at cycle   2 NSaved=   2.
 NSaved= 2 IEnMin= 2 EnMin= -1651.01716625166     IErMin= 2 ErrMin= 6.22D-03
 ErrMax= 6.22D-03  0.00D+00 EMaxC= 1.00D-01 BMatC= 7.34D-02 BMatP= 1.20D+00
 IDIUse=3 WtCom= 9.38D-01 WtEn= 6.22D-02
 Coeff-Com:  0.380D-01 0.962D+00
 Coeff-En:   0.138D+00 0.862D+00
 Coeff:      0.442D-01 0.956D+00
 Gap=     0.359 Goal=   None    Shift=    0.000
 RMSDP=2.01D-03 MaxDP=3.21D-01 DE=-3.03D-01 OVMax= 1.28D-01

 Cycle   3  Pass 1  IDiag  1:
 RMSU=  1.60D-03    CP:  9.10D-01  7.89D-01
 E= -1651.39598893493     Delta-E=       -0.378822683266 Rises=F Damp=F
 DIIS: error= 4.41D-03 at cycle   3 NSaved=   3.
 NSaved= 3 IEnMin= 3 EnMin= -1651.39598893493     IErMin= 3 ErrMin= 4.41D-03
 ErrMax= 4.41D-03  0.00D+00 EMaxC= 1.00D-01 BMatC= 2.71D-02 BMatP= 7.34D-02
 IDIUse=3 WtCom= 9.56D-01 WtEn= 4.41D-02
 Coeff-Com: -0.482D-01 0.341D+00 0.707D+00
 Coeff-En:   0.000D+00 0.000D+00 0.100D+01
 Coeff:     -0.460D-01 0.326D+00 0.720D+00
 Gap=     0.289 Goal=   None    Shift=    0.000
 RMSDP=4.70D-04 MaxDP=2.54D-02 DE=-3.79D-01 OVMax= 3.69D-02

 Cycle   4  Pass 1  IDiag  1:
 RMSU=  4.07D-04    CP:  9.14D-01  8.77D-01  9.41D-01
 E= -1651.41095561386     Delta-E=       -0.014966678931 Rises=F Damp=F
 DIIS: error= 2.00D-03 at cycle   4 NSaved=   4.
 NSaved= 4 IEnMin= 4 EnMin= -1651.41095561386     IErMin= 4 ErrMin= 2.00D-03
 ErrMax= 2.00D-03  0.00D+00 EMaxC= 1.00D-01 BMatC= 6.91D-03 BMatP= 2.71D-02
 IDIUse=3 WtCom= 9.80D-01 WtEn= 2.00D-02
 Coeff-Com: -0.280D-01 0.804D-01 0.382D+00 0.565D+00
 Coeff-En:   0.000D+00 0.000D+00 0.183D+00 0.817D+00
 Coeff:     -0.274D-01 0.788D-01 0.378D+00 0.570D+00
 Gap=     0.287 Goal=   None    Shift=    0.000
 RMSDP=2.23D-04 MaxDP=2.54D-02 DE=-1.50D-02 OVMax= 1.31D-02

 Cycle   5  Pass 1  IDiag  1:
 RMSU=  1.28D-04    CP:  9.08D-01  8.61D-01  9.88D-01  6.38D-01
 E= -1651.41598048329     Delta-E=       -0.005024869426 Rises=F Damp=F
 DIIS: error= 3.54D-04 at cycle   5 NSaved=   5.
 NSaved= 5 IEnMin= 5 EnMin= -1651.41598048329     IErMin= 5 ErrMin= 3.54D-04
 ErrMax= 3.54D-04  0.00D+00 EMaxC= 1.00D-01 BMatC= 2.30D-04 BMatP= 6.91D-03
 IDIUse=3 WtCom= 9.96D-01 WtEn= 3.54D-03
 Coeff-Com: -0.856D-02 0.170D-01 0.122D+00 0.244D+00 0.626D+00
 Coeff-En:   0.000D+00 0.000D+00 0.000D+00 0.000D+00 0.100D+01
 Coeff:     -0.853D-02 0.169D-01 0.121D+00 0.243D+00 0.627D+00
 Gap=     0.285 Goal=   None    Shift=    0.000
 RMSDP=4.89D-05 MaxDP=4.06D-03 DE=-5.02D-03 OVMax= 3.08D-03

 Cycle   6  Pass 1  IDiag  1:
 RMSU=  3.58D-05    CP:  9.08D-01  8.60D-01  9.93D-01  6.84D-01  8.02D-01
 E= -1651.41613890719     Delta-E=       -0.000158423899 Rises=F Damp=F
 DIIS: error= 1.07D-04 at cycle   6 NSaved=   6.
 NSaved= 6 IEnMin= 6 EnMin= -1651.41613890719     IErMin= 6 ErrMin= 1.07D-04
 ErrMax= 1.07D-04  0.00D+00 EMaxC= 1.00D-01 BMatC= 3.03D-05 BMatP= 2.30D-04
 IDIUse=3 WtCom= 9.99D-01 WtEn= 1.07D-03
 Coeff-Com: -0.194D-02 0.189D-02 0.284D-01 0.746D-01 0.321D+00 0.576D+00
 Coeff-En:   0.000D+00 0.000D+00 0.000D+00 0.000D+00 0.201D-01 0.980D+00
 Coeff:     -0.194D-02 0.189D-02 0.284D-01 0.746D-01 0.321D+00 0.576D+00
 Gap=     0.285 Goal=   None    Shift=    0.000
 RMSDP=1.38D-05 MaxDP=1.01D-03 DE=-1.58D-04 OVMax= 1.14D-03

 Cycle   7  Pass 1  IDiag  1:
 RMSU=  1.21D-05    CP:  9.07D-01  8.60D-01  9.94D-01  6.92D-01  8.27D-01
                    CP:  8.71D-01
 E= -1651.41616230051     Delta-E=       -0.000023393328 Rises=F Damp=F
 DIIS: error= 3.23D-05 at cycle   7 NSaved=   7.
 NSaved= 7 IEnMin= 7 EnMin= -1651.41616230051     IErMin= 7 ErrMin= 3.23D-05
 ErrMax= 3.23D-05  0.00D+00 EMaxC= 1.00D-01 BMatC= 2.34D-06 BMatP= 3.03D-05
 IDIUse=1 WtCom= 1.00D+00 WtEn= 0.00D+00
 Coeff-Com:  0.129D-03-0.108D-02-0.227D-02 0.438D-02 0.740D-01 0.247D+00
 Coeff-Com:  0.677D+00
 Coeff:      0.129D-03-0.108D-02-0.227D-02 0.438D-02 0.740D-01 0.247D+00
 Coeff:      0.677D+00
 Gap=     0.285 Goal=   None    Shift=    0.000
 RMSDP=4.58D-06 MaxDP=2.16D-04 DE=-2.34D-05 OVMax= 3.38D-04

 Cycle   8  Pass 1  IDiag  1:
 RMSU=  3.90D-06    CP:  9.07D-01  8.60D-01  9.95D-01  6.94D-01  8.33D-01
                    CP:  9.19D-01  9.91D-01
 E= -1651.41616417062     Delta-E=       -0.000001870108 Rises=F Damp=F
 DIIS: error= 1.18D-05 at cycle   8 NSaved=   8.
 NSaved= 8 IEnMin= 8 EnMin= -1651.41616417062     IErMin= 8 ErrMin= 1.18D-05
 ErrMax= 1.18D-05  0.00D+00 EMaxC= 1.00D-01 BMatC= 3.01D-07 BMatP= 2.34D-06
 IDIUse=1 WtCom= 1.00D+00 WtEn= 0.00D+00
 Coeff-Com:  0.313D-03-0.689D-03-0.523D-02-0.886D-02-0.129D-01 0.161D-01
 Coeff-Com:  0.281D+00 0.730D+00
 Coeff:      0.313D-03-0.689D-03-0.523D-02-0.886D-02-0.129D-01 0.161D-01
 Coeff:      0.281D+00 0.730D+00
 Gap=     0.285 Goal=   None    Shift=    0.000
 RMSDP=3.02D-06 MaxDP=4.77D-04 DE=-1.87D-06 OVMax= 1.18D-04

 Cycle   9  Pass 1  IDiag  1:
 RMSU=  1.89D-06    CP:  9.07D-01  8.60D-01  9.95D-01  6.94D-01  8.47D-01
                    CP:  9.36D-01  9.84D-01  8.30D-01
 E= -1651.41616444330     Delta-E=       -0.000000272674 Rises=F Damp=F
 DIIS: error= 3.55D-06 at cycle   9 NSaved=   9.
 NSaved= 9 IEnMin= 9 EnMin= -1651.41616444330     IErMin= 9 ErrMin= 3.55D-06
 ErrMax= 3.55D-06  0.00D+00 EMaxC= 1.00D-01 BMatC= 4.07D-08 BMatP= 3.01D-07
 IDIUse=1 WtCom= 1.00D+00 WtEn= 0.00D+00
 Coeff-Com:  0.120D-03-0.196D-03-0.223D-02-0.443D-02-0.121D-01-0.142D-01
 Coeff-Com:  0.709D-01 0.339D+00 0.623D+00
 Coeff:      0.120D-03-0.196D-03-0.223D-02-0.443D-02-0.121D-01-0.142D-01
 Coeff:      0.709D-01 0.339D+00 0.623D+00
 Gap=     0.285 Goal=   None    Shift=    0.000
 RMSDP=7.03D-07 MaxDP=2.88D-05 DE=-2.73D-07 OVMax= 4.89D-05

 Cycle  10  Pass 1  IDiag  1:
 RMSU=  4.69D-07    CP:  9.07D-01  8.60D-01  9.95D-01  6.94D-01  8.47D-01
                    CP:  9.41D-01  1.01D+00  8.84D-01  9.27D-01
 E= -1651.41616447976     Delta-E=       -0.000000036458 Rises=F Damp=F
 DIIS: error= 1.27D-06 at cycle  10 NSaved=  10.
 NSaved=10 IEnMin=10 EnMin= -1651.41616447976     IErMin=10 ErrMin= 1.27D-06
 ErrMax= 1.27D-06  0.00D+00 EMaxC= 1.00D-01 BMatC= 3.60D-09 BMatP= 4.07D-08
 IDIUse=1 WtCom= 1.00D+00 WtEn= 0.00D+00
 Coeff-Com:  0.620D-05 0.518D-05-0.233D-03-0.592D-03-0.303D-02-0.750D-02
 Coeff-Com: -0.741D-02 0.359D-01 0.235D+00 0.748D+00
 Coeff:      0.620D-05 0.518D-05-0.233D-03-0.592D-03-0.303D-02-0.750D-02
 Coeff:     -0.741D-02 0.359D-01 0.235D+00 0.748D+00
 Gap=     0.285 Goal=   None    Shift=    0.000
 RMSDP=2.38D-07 MaxDP=1.39D-05 DE=-3.65D-08 OVMax= 2.05D-05

 Cycle  11  Pass 1  IDiag  1:
 RMSU=  2.04D-07    CP:  9.07D-01  8.60D-01  9.95D-01  6.94D-01  8.47D-01
                    CP:  9.42D-01  1.01D+00  9.03D-01  9.72D-01  9.83D-01
 E= -1651.41616448368     Delta-E=       -0.000000003926 Rises=F Damp=F
 DIIS: error= 4.21D-07 at cycle  11 NSaved=  11.
 NSaved=11 IEnMin=11 EnMin= -1651.41616448368     IErMin=11 ErrMin= 4.21D-07
 ErrMax= 4.21D-07  0.00D+00 EMaxC= 1.00D-01 BMatC= 4.81D-10 BMatP= 3.60D-09
 IDIUse=1 WtCom= 1.00D+00 WtEn= 0.00D+00
 Coeff-Com: -0.149D-04 0.310D-04 0.242D-03 0.423D-03 0.567D-03-0.867D-03
 Coeff-Com: -0.131D-01-0.387D-01-0.113D-01 0.277D+00 0.786D+00
 Coeff:     -0.149D-04 0.310D-04 0.242D-03 0.423D-03 0.567D-03-0.867D-03
 Coeff:     -0.131D-01-0.387D-01-0.113D-01 0.277D+00 0.786D+00
 Gap=     0.285 Goal=   None    Shift=    0.000
 RMSDP=1.36D-07 MaxDP=1.77D-05 DE=-3.93D-09 OVMax= 1.12D-05

 Cycle  12  Pass 1  IDiag  1:
 RMSU=  5.84D-08    CP:  9.07D-01  8.60D-01  9.95D-01  6.94D-01  8.47D-01
                    CP:  9.42D-01  1.01D+00  9.00D-01  1.02D+00  1.09D+00
                    CP:  1.02D+00
 E= -1651.41616448429     Delta-E=       -0.000000000612 Rises=F Damp=F
 DIIS: error= 1.42D-07 at cycle  12 NSaved=  12.
 NSaved=12 IEnMin=12 EnMin= -1651.41616448429     IErMin=12 ErrMin= 1.42D-07
 ErrMax= 1.42D-07  0.00D+00 EMaxC= 1.00D-01 BMatC= 4.41D-11 BMatP= 4.81D-10
 IDIUse=1 WtCom= 1.00D+00 WtEn= 0.00D+00
 Coeff-Com: -0.440D-05 0.809D-05 0.943D-04 0.178D-03 0.453D-03 0.433D-03
 Coeff-Com: -0.322D-02-0.152D-01-0.264D-01 0.216D-01 0.260D+00 0.762D+00
 Coeff:     -0.440D-05 0.809D-05 0.943D-04 0.178D-03 0.453D-03 0.433D-03
 Coeff:     -0.322D-02-0.152D-01-0.264D-01 0.216D-01 0.260D+00 0.762D+00
 Gap=     0.285 Goal=   None    Shift=    0.000
 RMSDP=2.59D-08 MaxDP=1.73D-06 DE=-6.12D-10 OVMax= 3.50D-06

 Cycle  13  Pass 1  IDiag  1:
 RMSU=  1.88D-08    CP:  9.07D-01  8.60D-01  9.95D-01  6.94D-01  8.47D-01
                    CP:  9.42D-01  1.01D+00  9.01D-01  1.02D+00  1.11D+00
                    CP:  1.08D+00  1.08D+00
 E= -1651.41616448444     Delta-E=       -0.000000000143 Rises=F Damp=F
 DIIS: error= 5.75D-08 at cycle  13 NSaved=  13.
 NSaved=13 IEnMin=13 EnMin= -1651.41616448444     IErMin=13 ErrMin= 5.75D-08
 ErrMax= 5.75D-08  0.00D+00 EMaxC= 1.00D-01 BMatC= 8.34D-12 BMatP= 4.41D-11
 IDIUse=1 WtCom= 1.00D+00 WtEn= 0.00D+00
 Coeff-Com:  0.215D-06-0.818D-06 0.919D-05 0.184D-04 0.109D-03 0.255D-03
 Coeff-Com:  0.295D-03-0.112D-02-0.945D-02-0.279D-01 0.530D-02 0.327D+00
 Coeff-Com:  0.706D+00
 Coeff:      0.215D-06-0.818D-06 0.919D-05 0.184D-04 0.109D-03 0.255D-03
 Coeff:      0.295D-03-0.112D-02-0.945D-02-0.279D-01 0.530D-02 0.327D+00
 Coeff:      0.706D+00
 Gap=     0.285 Goal=   None    Shift=    0.000
 RMSDP=1.26D-08 MaxDP=1.25D-06 DE=-1.43D-10 OVMax= 1.59D-06

 Cycle  14  Pass 1  IDiag  1:
 RMSU=  7.86D-09    CP:  9.07D-01  8.60D-01  9.95D-01  6.94D-01  8.47D-01
                    CP:  9.42D-01  1.01D+00  9.00D-01  1.02D+00  1.11D+00
                    CP:  1.11D+00  1.17D+00  9.51D-01
 E= -1651.41616448440     Delta-E=        0.000000000036 Rises=F Damp=F
 DIIS: error= 2.42D-08 at cycle  14 NSaved=  14.
 NSaved=14 IEnMin=13 EnMin= -1651.41616448444     IErMin=14 ErrMin= 2.42D-08
 ErrMax= 2.42D-08  0.00D+00 EMaxC= 1.00D-01 BMatC= 1.44D-12 BMatP= 8.34D-12
 IDIUse=1 WtCom= 1.00D+00 WtEn= 0.00D+00
 Coeff-Com:  0.649D-06-0.139D-05-0.662D-05-0.123D-04 0.522D-06 0.718D-04
 Coeff-Com:  0.537D-03 0.133D-02-0.146D-02-0.171D-01-0.309D-01 0.671D-01
 Coeff-Com:  0.352D+00 0.628D+00
 Coeff:      0.649D-06-0.139D-05-0.662D-05-0.123D-04 0.522D-06 0.718D-04
 Coeff:      0.537D-03 0.133D-02-0.146D-02-0.171D-01-0.309D-01 0.671D-01
 Coeff:      0.352D+00 0.628D+00
 Gap=     0.285 Goal=   None    Shift=    0.000
 RMSDP=3.97D-09 MaxDP=2.32D-07 DE= 3.64D-11 OVMax= 5.98D-07

 SCF Done:  E(RM062X) =  -1651.41616448     A.U. after   14 cycles
            NFock= 14  Conv=0.40D-08     -V/T= 2.0031
 KE= 1.646351325237D+03 PE=-7.754841390698D+03 EE= 2.528475349055D+03
 Leave Link  502 at Sun Feb 19 13:14:54 2023, MaxMem=  6710886400 cpu:            3313.9 elap:             138.5
 (Enter /data0/home/software/g16/l601.exe)
 Copying SCF densities to generalized density rwf, IOpCl= 0 IROHF=0.

 **********************************************************************

            Population analysis using the SCF density.

 **********************************************************************

 Alpha  occ. eigenvalues --  -90.08093 -78.14254 -19.65857 -19.65110 -19.63437
 Alpha  occ. eigenvalues --  -19.59887 -19.58666 -19.58129 -19.56739 -14.85834
 Alpha  occ. eigenvalues --  -14.85723 -10.67038 -10.62633 -10.61340 -10.60998
 Alpha  occ. eigenvalues --  -10.59722 -10.57661 -10.56795  -8.41537  -6.94991
 Alpha  occ. eigenvalues --   -6.33829  -6.33777  -6.33752  -5.06906  -5.06886
 Alpha  occ. eigenvalues --   -5.06701  -1.22594  -1.21141  -1.18548  -1.14193
 Alpha  occ. eigenvalues --   -1.12502  -1.09013  -1.08435  -1.07528  -1.07287
 Alpha  occ. eigenvalues --   -0.93064  -0.89672  -0.85833  -0.81317  -0.75521
 Alpha  occ. eigenvalues --   -0.72204  -0.70498  -0.69449  -0.66460  -0.64898
 Alpha  occ. eigenvalues --   -0.62620  -0.61338  -0.60083  -0.57849  -0.56866
 Alpha  occ. eigenvalues --   -0.56631  -0.55417  -0.55235  -0.54336  -0.53390
 Alpha  occ. eigenvalues --   -0.52917  -0.52052  -0.51814  -0.50358  -0.49222
 Alpha  occ. eigenvalues --   -0.48162  -0.47493  -0.46659  -0.45774  -0.44937
 Alpha  occ. eigenvalues --   -0.44851  -0.43556  -0.42606  -0.41271  -0.40674
 Alpha  occ. eigenvalues --   -0.40157  -0.38260  -0.36868  -0.36532  -0.36258
 Alpha  occ. eigenvalues --   -0.35404  -0.34534  -0.34166  -0.30353
 Alpha virt. eigenvalues --   -0.01810  -0.00009   0.00254   0.01104   0.01283
 Alpha virt. eigenvalues --    0.01880   0.02488   0.02884   0.03670   0.03839
 Alpha virt. eigenvalues --    0.04540   0.05636   0.05845   0.05869   0.06181
 Alpha virt. eigenvalues --    0.06662   0.07522   0.08289   0.08517   0.09112
 Alpha virt. eigenvalues --    0.09684   0.10011   0.10341   0.10710   0.11102
 Alpha virt. eigenvalues --    0.11871   0.12595   0.12890   0.13185   0.13400
 Alpha virt. eigenvalues --    0.13935   0.14124   0.14923   0.15400   0.15534
 Alpha virt. eigenvalues --    0.15953   0.16560   0.16694   0.17119   0.17596
 Alpha virt. eigenvalues --    0.17738   0.17769   0.18323   0.18611   0.18717
 Alpha virt. eigenvalues --    0.19325   0.19337   0.19571   0.20135   0.20521
 Alpha virt. eigenvalues --    0.20916   0.21181   0.21453   0.22276   0.22445
 Alpha virt. eigenvalues --    0.23193   0.23974   0.24162   0.24965   0.25285
 Alpha virt. eigenvalues --    0.25671   0.26231   0.26427   0.26645   0.27276
 Alpha virt. eigenvalues --    0.27421   0.27696   0.28368   0.28617   0.28998
 Alpha virt. eigenvalues --    0.29340   0.29460   0.30183   0.30258   0.30648
 Alpha virt. eigenvalues --    0.30850   0.31141   0.31519   0.31926   0.32747
 Alpha virt. eigenvalues --    0.33146   0.33940   0.34330   0.34606   0.35234
 Alpha virt. eigenvalues --    0.35527   0.35865   0.36229   0.36798   0.37655
 Alpha virt. eigenvalues --    0.37830   0.38048   0.39002   0.40032   0.40120
 Alpha virt. eigenvalues --    0.40587   0.41071   0.41776   0.41890   0.42839
 Alpha virt. eigenvalues --    0.43426   0.43672   0.44177   0.44841   0.45258
 Alpha virt. eigenvalues --    0.45971   0.46265   0.47409   0.47637   0.48254
 Alpha virt. eigenvalues --    0.48746   0.49437   0.50700   0.51369   0.52178
 Alpha virt. eigenvalues --    0.53270   0.53909   0.54511   0.55686   0.55774
 Alpha virt. eigenvalues --    0.57211   0.57345   0.58232   0.59104   0.59803
 Alpha virt. eigenvalues --    0.60298   0.61210   0.61655   0.62859   0.63805
 Alpha virt. eigenvalues --    0.64116   0.64673   0.64896   0.66252   0.67259
 Alpha virt. eigenvalues --    0.68014   0.68469   0.68953   0.69872   0.70038
 Alpha virt. eigenvalues --    0.70796   0.71744   0.72374   0.72750   0.73460
 Alpha virt. eigenvalues --    0.74615   0.75276   0.76822   0.76970   0.77368
 Alpha virt. eigenvalues --    0.78800   0.78912   0.80485   0.81185   0.82015
 Alpha virt. eigenvalues --    0.82440   0.83466   0.84056   0.85600   0.86622
 Alpha virt. eigenvalues --    0.87437   0.87997   0.89496   0.90905   0.91441
 Alpha virt. eigenvalues --    0.91729   0.92515   0.93335   0.93525   0.94594
 Alpha virt. eigenvalues --    0.95441   0.96508   0.98576   1.00391   1.01402
 Alpha virt. eigenvalues --    1.01953   1.04884   1.05571   1.06849   1.07099
 Alpha virt. eigenvalues --    1.09031   1.10561   1.11784   1.12633   1.12704
 Alpha virt. eigenvalues --    1.13472   1.13885   1.14910   1.15644   1.16035
 Alpha virt. eigenvalues --    1.17831   1.18904   1.19834   1.20246   1.21119
 Alpha virt. eigenvalues --    1.21735   1.21918   1.23067   1.23551   1.24765
 Alpha virt. eigenvalues --    1.25103   1.25423   1.26104   1.26370   1.26957
 Alpha virt. eigenvalues --    1.28369   1.28870   1.29099   1.30069   1.30882
 Alpha virt. eigenvalues --    1.31426   1.31979   1.32263   1.34292   1.34375
 Alpha virt. eigenvalues --    1.34610   1.36304   1.36717   1.37228   1.37876
 Alpha virt. eigenvalues --    1.38327   1.39826   1.40488   1.41632   1.42630
 Alpha virt. eigenvalues --    1.42891   1.43675   1.44069   1.44497   1.44942
 Alpha virt. eigenvalues --    1.45892   1.46086   1.47955   1.48937   1.49796
 Alpha virt. eigenvalues --    1.50575   1.51509   1.51662   1.53536   1.54793
 Alpha virt. eigenvalues --    1.55848   1.57207   1.58187   1.59961   1.60400
 Alpha virt. eigenvalues --    1.61658   1.62572   1.64112   1.64744   1.65792
 Alpha virt. eigenvalues --    1.66916   1.68366   1.68874   1.69832   1.71258
 Alpha virt. eigenvalues --    1.71818   1.72336   1.74188   1.75500   1.75818
 Alpha virt. eigenvalues --    1.77094   1.78479   1.78775   1.79874   1.80752
 Alpha virt. eigenvalues --    1.82689   1.84075   1.84667   1.85323   1.86190
 Alpha virt. eigenvalues --    1.87987   1.88345   1.88849   1.89945   1.90948
 Alpha virt. eigenvalues --    1.91322   1.92734   1.94143   1.95656   1.96506
 Alpha virt. eigenvalues --    1.97956   1.98035   1.99684   2.00204   2.01516
 Alpha virt. eigenvalues --    2.02051   2.02449   2.03543   2.04521   2.06693
 Alpha virt. eigenvalues --    2.08522   2.09572   2.10632   2.12432   2.12955
 Alpha virt. eigenvalues --    2.14669   2.15453   2.17416   2.17875   2.18797
 Alpha virt. eigenvalues --    2.20823   2.22079   2.22451   2.23710   2.24142
 Alpha virt. eigenvalues --    2.24813   2.27417   2.28509   2.29623   2.29828
 Alpha virt. eigenvalues --    2.30770   2.32648   2.33437   2.34984   2.35704
 Alpha virt. eigenvalues --    2.36110   2.37431   2.38818   2.40542   2.42651
 Alpha virt. eigenvalues --    2.43375   2.43957   2.45291   2.46572   2.46947
 Alpha virt. eigenvalues --    2.49301   2.51476   2.52203   2.54216   2.56884
 Alpha virt. eigenvalues --    2.62144   2.62997   2.68590   2.70558   2.72431
 Alpha virt. eigenvalues --    2.73198   2.75245   2.75469   2.77522   2.77949
 Alpha virt. eigenvalues --    2.80910   2.80947   2.82402   2.83926   2.85522
 Alpha virt. eigenvalues --    2.87014   2.87523   2.88992   2.90587   2.92036
 Alpha virt. eigenvalues --    2.94037   2.94985   2.96391   2.96832   2.97570
 Alpha virt. eigenvalues --    3.00048   3.01870   3.03748   3.05885   3.07528
 Alpha virt. eigenvalues --    3.08704   3.11089   3.15476   3.18290   3.21094
 Alpha virt. eigenvalues --    3.24370   3.26179   3.27676   3.28000   3.31286
 Alpha virt. eigenvalues --    3.33628   3.34430   3.36791   3.38569   3.40309
 Alpha virt. eigenvalues --    3.41879   3.46842   3.48076   3.49004   3.49076
 Alpha virt. eigenvalues --    3.49878   3.51474   3.52608   3.54403   3.55597
 Alpha virt. eigenvalues --    3.57570   3.58888   3.59506   3.62652   3.63173
 Alpha virt. eigenvalues --    3.64205   3.64473   3.66198   3.68338   3.70149
 Alpha virt. eigenvalues --    3.70763   3.73208   3.73305   3.81838   3.85005
 Alpha virt. eigenvalues --    3.86070   3.89505   3.90754   3.93251   3.97491
 Alpha virt. eigenvalues --    4.03599   4.06117   4.07476   4.14893   4.16766
 Alpha virt. eigenvalues --    4.17784   4.20232   4.21046   4.24103   4.37456
 Alpha virt. eigenvalues --    4.48467   4.54458   4.98335   5.02423   5.03772
 Alpha virt. eigenvalues --    5.06302   5.09067   5.09718   5.11020   5.12950
 Alpha virt. eigenvalues --    5.14627   5.16351   5.18925   5.19962   5.20076
 Alpha virt. eigenvalues --    5.21787   5.23710   5.24879   5.26546   5.29599
 Alpha virt. eigenvalues --    5.30181   5.31834   5.32991   5.35829   5.38972
 Alpha virt. eigenvalues --    5.40981   5.45913   5.46900   5.48801   5.53995
 Alpha virt. eigenvalues --    5.54576   5.56249   5.58468   5.58799   5.64143
 Alpha virt. eigenvalues --    5.68949   5.84760   6.76353   6.77591   6.77921
 Alpha virt. eigenvalues --    6.80438   6.80719   6.81502   6.81761   6.84034
 Alpha virt. eigenvalues --    6.84962   6.87134   6.88060   6.89459   6.91250
 Alpha virt. eigenvalues --    6.92700   6.93494   6.96463   6.97705   6.98541
 Alpha virt. eigenvalues --    7.00989   7.02169   7.03615   7.04343   7.07310
 Alpha virt. eigenvalues --    7.11061   7.15553   7.19882   7.25947   7.27707
 Alpha virt. eigenvalues --    7.30329   7.33131   7.36967   7.39377   7.42473
 Alpha virt. eigenvalues --    7.43015   7.44883   7.70614   8.62162  14.28028
 Alpha virt. eigenvalues --   14.31617  14.41139  17.77139  17.78815  17.86448
 Alpha virt. eigenvalues --   23.91846  23.96599  24.00556  24.03034  24.05734
 Alpha virt. eigenvalues --   24.11069  24.18098  35.62562  35.70239  50.05287
 Alpha virt. eigenvalues --   50.06112  50.08411  50.09649  50.13563  50.14009
 Alpha virt. eigenvalues --   50.20179 163.96082 189.93462
          Condensed to atoms (all electrons):
               1          2          3          4          5          6
     1  C    7.581153  -1.277012  -0.582894   0.159490   0.365914  -0.002412
     2  C   -1.277012   7.024125  -0.064081   0.063833   0.000894   0.367282
     3  C   -0.582894  -0.064081   6.911320   0.161418   0.011538   0.013486
     4  N    0.159490   0.063833   0.161418   6.229957  -0.030261   0.007412
     5  H    0.365914   0.000894   0.011538  -0.030261   0.433303  -0.001593
     6  H   -0.002412   0.367282   0.013486   0.007412  -0.001593   0.481558
     7  H    0.016346   0.003260   0.410939  -0.037367  -0.000019  -0.000093
     8  C   -0.163717   0.039841  -0.248299   0.198142   0.001057  -0.000603
     9  H   -0.003322   0.012915   0.022521  -0.062816   0.002230  -0.000032
    10  H   -0.004365   0.010649  -0.007726  -0.051876   0.000329  -0.000001
    11  H   -0.018583   0.001140  -0.010795  -0.013362  -0.000009   0.000010
    12  N    0.084511   0.153259   0.099527  -0.007774   0.007723  -0.033241
    13  C   -0.125574   0.023746  -0.248638  -0.003310   0.001724   0.004482
    14  H    0.004334  -0.009102  -0.000611  -0.003571  -0.000010   0.000289
    15  H   -0.001846  -0.004249   0.005275   0.004385   0.000007  -0.000144
    16  C    0.191413  -0.347102   0.148976  -0.002619  -0.001479   0.007190
    17  H    0.002823   0.004188  -0.006538  -0.000445  -0.000000  -0.000304
    18  H   -0.009524   0.007161   0.001986   0.000515   0.000027  -0.000093
    19  C   -0.155802   0.298303  -0.048677   0.025618   0.000950  -0.004731
    20  H   -0.001203   0.002892  -0.000169  -0.000044   0.000000  -0.000002
    21  H    0.001347  -0.005413   0.004805  -0.000144  -0.000000   0.000021
    22  S    0.220732  -0.215492  -0.209217  -0.014047  -0.001125   0.000641
    23  O   -0.018889   0.022400   0.003749  -0.003335   0.000030  -0.000106
    24  O   -0.021928  -0.026928   0.006837   0.020105  -0.000110  -0.001190
    25  O    0.010431   0.012645  -0.092032   0.037150   0.000060  -0.000193
    26  P   -0.078154   0.023788   0.016883   0.019511   0.001872  -0.000355
    27  O    0.031610   0.000379   0.008967  -0.002172  -0.005051   0.000117
    28  O    0.006814  -0.004545  -0.019714   0.012110  -0.000025   0.000004
    29  H   -0.000332   0.000577   0.002823  -0.000486  -0.000002  -0.000002
    30  O   -0.027114   0.004364  -0.000397  -0.003931   0.000431   0.000242
    31  H    0.017842   0.007638   0.001064  -0.000228  -0.000445  -0.000355
    32  O   -0.009976   0.005660   0.001146  -0.000807   0.000189  -0.000005
    33  H    0.000181  -0.000569  -0.000313  -0.000130   0.000002   0.000000
               7          8          9         10         11         12
     1  C    0.016346  -0.163717  -0.003322  -0.004365  -0.018583   0.084511
     2  C    0.003260   0.039841   0.012915   0.010649   0.001140   0.153259
     3  C    0.410939  -0.248299   0.022521  -0.007726  -0.010795   0.099527
     4  N   -0.037367   0.198142  -0.062816  -0.051876  -0.013362  -0.007774
     5  H   -0.000019   0.001057   0.002230   0.000329  -0.000009   0.007723
     6  H   -0.000093  -0.000603  -0.000032  -0.000001   0.000010  -0.033241
     7  H    0.433794   0.005408  -0.000046   0.001667   0.000247  -0.032082
     8  C    0.005408   5.456655   0.406437   0.407796   0.417919   0.004868
     9  H   -0.000046   0.406437   0.442317  -0.012751  -0.020472  -0.003460
    10  H    0.001667   0.407796  -0.012751   0.511039  -0.029181  -0.004491
    11  H    0.000247   0.417919  -0.020472  -0.029181   0.434084   0.006433
    12  N   -0.032082   0.004868  -0.003460  -0.004491   0.006433   6.408086
    13  C   -0.004932  -0.014805   0.000025   0.001219  -0.000030   0.142054
    14  H    0.000290  -0.000097  -0.000002  -0.000011   0.000005  -0.060731
    15  H    0.002406   0.001227  -0.000000  -0.000007   0.000005  -0.051742
    16  C   -0.000789  -0.002106   0.000074  -0.000341   0.000021   0.011416
    17  H   -0.000017  -0.000025  -0.000000  -0.000000   0.000000  -0.001977
    18  H    0.000084  -0.000169  -0.000000   0.000000   0.000002  -0.002780
    19  C    0.000038   0.016414   0.000045   0.000048  -0.000552   0.028740
    20  H   -0.000014  -0.000087  -0.000000   0.000000  -0.000000   0.001495
    21  H    0.000044  -0.000221  -0.000000  -0.000000   0.000001  -0.003121
    22  S    0.007846  -0.031553  -0.001351   0.000730  -0.000101  -0.005600
    23  O   -0.000109   0.001283   0.000003   0.000015  -0.000031  -0.008889
    24  O    0.000207   0.003691   0.000273  -0.000051  -0.000021  -0.030559
    25  O   -0.036282   0.015939  -0.000165  -0.000809   0.001951   0.017646
    26  P    0.000059   0.017396   0.001244   0.001489  -0.002523   0.002880
    27  O   -0.000030  -0.028615  -0.002567   0.001714  -0.000964  -0.001254
    28  O   -0.000020   0.011501  -0.001120   0.000266  -0.004340  -0.003637
    29  H    0.000005  -0.005176   0.000096   0.000012   0.000158   0.000115
    30  O   -0.000006   0.011671   0.000526  -0.000049   0.000314   0.003067
    31  H   -0.000018  -0.006930  -0.000185   0.000001  -0.000160  -0.004541
    32  O    0.000003  -0.002044   0.000080   0.000030   0.000007   0.000244
    33  H    0.000000   0.000834  -0.000001  -0.000000  -0.000010  -0.000004
              13         14         15         16         17         18
     1  C   -0.125574   0.004334  -0.001846   0.191413   0.002823  -0.009524
     2  C    0.023746  -0.009102  -0.004249  -0.347102   0.004188   0.007161
     3  C   -0.248638  -0.000611   0.005275   0.148976  -0.006538   0.001986
     4  N   -0.003310  -0.003571   0.004385  -0.002619  -0.000445   0.000515
     5  H    0.001724  -0.000010   0.000007  -0.001479  -0.000000   0.000027
     6  H    0.004482   0.000289  -0.000144   0.007190  -0.000304  -0.000093
     7  H   -0.004932   0.000290   0.002406  -0.000789  -0.000017   0.000084
     8  C   -0.014805  -0.000097   0.001227  -0.002106  -0.000025  -0.000169
     9  H    0.000025  -0.000002  -0.000000   0.000074  -0.000000  -0.000000
    10  H    0.001219  -0.000011  -0.000007  -0.000341  -0.000000   0.000000
    11  H   -0.000030   0.000005   0.000005   0.000021   0.000000   0.000002
    12  N    0.142054  -0.060731  -0.051742   0.011416  -0.001977  -0.002780
    13  C    6.185693   0.451247   0.436391  -0.409716  -0.009665  -0.050323
    14  H    0.451247   0.512215  -0.022067  -0.063294  -0.006122  -0.001085
    15  H    0.436391  -0.022067   0.459968  -0.017924  -0.000373   0.003488
    16  C   -0.409716  -0.063294  -0.017924   6.524322   0.408417   0.470593
    17  H   -0.009665  -0.006122  -0.000373   0.408417   0.519708  -0.029979
    18  H   -0.050323  -0.001085   0.003488   0.470593  -0.029979   0.483490
    19  C   -0.017045   0.010355  -0.014417  -0.662619  -0.045150  -0.046607
    20  H    0.025524  -0.000129  -0.000191  -0.105257  -0.003429  -0.004264
    21  H   -0.022132  -0.000063   0.002355   0.002693  -0.005053   0.004618
    22  S    0.047959   0.001361  -0.002972   0.087582   0.004086   0.007989
    23  O    0.006832  -0.000096  -0.000603  -0.031337  -0.000430   0.000480
    24  O   -0.008947   0.001087   0.000807   0.001338   0.001763  -0.014380
    25  O   -0.020157   0.001927   0.001145  -0.028082  -0.000915   0.002294
    26  P    0.001308  -0.000000  -0.000012  -0.007573   0.000000   0.000231
    27  O    0.000411   0.000001   0.000003   0.000877  -0.000000   0.000043
    28  O   -0.003237  -0.000000   0.000004   0.003068  -0.000001  -0.000012
    29  H    0.000553   0.000000  -0.000001  -0.000809   0.000000  -0.000001
    30  O   -0.001699   0.000003   0.000004   0.001300  -0.000021   0.000024
    31  H    0.004570   0.000000   0.000013  -0.003083   0.000061  -0.000186
    32  O    0.000201  -0.000000  -0.000000  -0.000336   0.000000  -0.000001
    33  H   -0.000028  -0.000000   0.000000   0.000017  -0.000000  -0.000000
              19         20         21         22         23         24
     1  C   -0.155802  -0.001203   0.001347   0.220732  -0.018889  -0.021928
     2  C    0.298303   0.002892  -0.005413  -0.215492   0.022400  -0.026928
     3  C   -0.048677  -0.000169   0.004805  -0.209217   0.003749   0.006837
     4  N    0.025618  -0.000044  -0.000144  -0.014047  -0.003335   0.020105
     5  H    0.000950   0.000000  -0.000000  -0.001125   0.000030  -0.000110
     6  H   -0.004731  -0.000002   0.000021   0.000641  -0.000106  -0.001190
     7  H    0.000038  -0.000014   0.000044   0.007846  -0.000109   0.000207
     8  C    0.016414  -0.000087  -0.000221  -0.031553   0.001283   0.003691
     9  H    0.000045  -0.000000  -0.000000  -0.001351   0.000003   0.000273
    10  H    0.000048   0.000000  -0.000000   0.000730   0.000015  -0.000051
    11  H   -0.000552  -0.000000   0.000001  -0.000101  -0.000031  -0.000021
    12  N    0.028740   0.001495  -0.003121  -0.005600  -0.008889  -0.030559
    13  C   -0.017045   0.025524  -0.022132   0.047959   0.006832  -0.008947
    14  H    0.010355  -0.000129  -0.000063   0.001361  -0.000096   0.001087
    15  H   -0.014417  -0.000191   0.002355  -0.002972  -0.000603   0.000807
    16  C   -0.662619  -0.105257   0.002693   0.087582  -0.031337   0.001338
    17  H   -0.045150  -0.003429  -0.005053   0.004086  -0.000430   0.001763
    18  H   -0.046607  -0.004264   0.004618   0.007989   0.000480  -0.014380
    19  C    6.805796   0.480500   0.404629  -0.345404  -0.116916  -0.108881
    20  H    0.480500   0.462138  -0.026814  -0.056606   0.013068   0.003336
    21  H    0.404629  -0.026814   0.466129  -0.037614  -0.000911  -0.001766
    22  S   -0.345404  -0.056606  -0.037614  14.463730   0.553966   0.198398
    23  O   -0.116916   0.013068  -0.000911   0.553966   8.174063  -0.084436
    24  O   -0.108881   0.003336  -0.001766   0.198398  -0.084436   8.730869
    25  O   -0.033391  -0.002640   0.013145   0.235654  -0.060519   0.002536
    26  P    0.008474   0.000205   0.000058  -0.043164   0.000652   0.033940
    27  O   -0.002139  -0.000002   0.000002   0.004588  -0.000248  -0.020986
    28  O    0.002664  -0.000016  -0.000003   0.033093  -0.007057   0.003293
    29  H    0.002121  -0.000001  -0.000001   0.003558   0.001528  -0.002714
    30  O    0.006062  -0.000046  -0.000016  -0.021911   0.001424   0.071836
    31  H   -0.006556  -0.000093   0.000095   0.037397   0.005581   0.020762
    32  O   -0.000020   0.000001  -0.000000  -0.005934   0.000679   0.007029
    33  H    0.000021  -0.000000  -0.000000  -0.000007  -0.000052   0.000549
              25         26         27         28         29         30
     1  C    0.010431  -0.078154   0.031610   0.006814  -0.000332  -0.027114
     2  C    0.012645   0.023788   0.000379  -0.004545   0.000577   0.004364
     3  C   -0.092032   0.016883   0.008967  -0.019714   0.002823  -0.000397
     4  N    0.037150   0.019511  -0.002172   0.012110  -0.000486  -0.003931
     5  H    0.000060   0.001872  -0.005051  -0.000025  -0.000002   0.000431
     6  H   -0.000193  -0.000355   0.000117   0.000004  -0.000002   0.000242
     7  H   -0.036282   0.000059  -0.000030  -0.000020   0.000005  -0.000006
     8  C    0.015939   0.017396  -0.028615   0.011501  -0.005176   0.011671
     9  H   -0.000165   0.001244  -0.002567  -0.001120   0.000096   0.000526
    10  H   -0.000809   0.001489   0.001714   0.000266   0.000012  -0.000049
    11  H    0.001951  -0.002523  -0.000964  -0.004340   0.000158   0.000314
    12  N    0.017646   0.002880  -0.001254  -0.003637   0.000115   0.003067
    13  C   -0.020157   0.001308   0.000411  -0.003237   0.000553  -0.001699
    14  H    0.001927  -0.000000   0.000001  -0.000000   0.000000   0.000003
    15  H    0.001145  -0.000012   0.000003   0.000004  -0.000001   0.000004
    16  C   -0.028082  -0.007573   0.000877   0.003068  -0.000809   0.001300
    17  H   -0.000915   0.000000  -0.000000  -0.000001   0.000000  -0.000021
    18  H    0.002294   0.000231   0.000043  -0.000012  -0.000001   0.000024
    19  C   -0.033391   0.008474  -0.002139   0.002664   0.002121   0.006062
    20  H   -0.002640   0.000205  -0.000002  -0.000016  -0.000001  -0.000046
    21  H    0.013145   0.000058   0.000002  -0.000003  -0.000001  -0.000016
    22  S    0.235654  -0.043164   0.004588   0.033093   0.003558  -0.021911
    23  O   -0.060519   0.000652  -0.000248  -0.007057   0.001528   0.001424
    24  O    0.002536   0.033940  -0.020986   0.003293  -0.002714   0.071836
    25  O    8.609054  -0.004969   0.000174  -0.001419  -0.000322  -0.000607
    26  P   -0.004969  12.581960   0.499254   0.212721   0.029414   0.275812
    27  O    0.000174   0.499254   8.328998  -0.031078   0.006928  -0.069057
    28  O   -0.001419   0.212721  -0.031078   8.032345   0.232153   0.019860
    29  H   -0.000322   0.029414   0.006928   0.232153   0.438324  -0.020104
    30  O   -0.000607   0.275812  -0.069057   0.019860  -0.020104   8.295915
    31  H   -0.001412   0.024685   0.014924  -0.005366   0.000649   0.124095
    32  O    0.000151   0.167643  -0.057629   0.021987  -0.006052   0.010558
    33  H    0.000004   0.033687   0.001584  -0.010069  -0.001663  -0.006173
              31         32         33
     1  C    0.017842  -0.009976   0.000181
     2  C    0.007638   0.005660  -0.000569
     3  C    0.001064   0.001146  -0.000313
     4  N   -0.000228  -0.000807  -0.000130
     5  H   -0.000445   0.000189   0.000002
     6  H   -0.000355  -0.000005   0.000000
     7  H   -0.000018   0.000003   0.000000
     8  C   -0.006930  -0.002044   0.000834
     9  H   -0.000185   0.000080  -0.000001
    10  H    0.000001   0.000030  -0.000000
    11  H   -0.000160   0.000007  -0.000010
    12  N   -0.004541   0.000244  -0.000004
    13  C    0.004570   0.000201  -0.000028
    14  H    0.000000  -0.000000  -0.000000
    15  H    0.000013  -0.000000   0.000000
    16  C   -0.003083  -0.000336   0.000017
    17  H    0.000061   0.000000  -0.000000
    18  H   -0.000186  -0.000001  -0.000000
    19  C   -0.006556  -0.000020   0.000021
    20  H   -0.000093   0.000001  -0.000000
    21  H    0.000095  -0.000000  -0.000000
    22  S    0.037397  -0.005934  -0.000007
    23  O    0.005581   0.000679  -0.000052
    24  O    0.020762   0.007029   0.000549
    25  O   -0.001412   0.000151   0.000004
    26  P    0.024685   0.167643   0.033687
    27  O    0.014924  -0.057629   0.001584
    28  O   -0.005366   0.021987  -0.010069
    29  H    0.000649  -0.006052  -0.001663
    30  O    0.124095   0.010558  -0.006173
    31  H    0.223249  -0.005141  -0.002162
    32  O   -0.005141   8.081858   0.239258
    33  H   -0.002162   0.239258   0.440215
 Mulliken charges:
               1
     1  C   -0.192295
     2  C   -0.136447
     3  C   -0.293156
     4  N    0.299078
     5  H    0.211850
     6  H    0.162723
     7  H    0.229182
     8  C   -0.513629
     9  H    0.219506
    10  H    0.174653
    11  H    0.238837
    12  N    0.283819
    13  C   -0.393703
    14  H    0.183878
    15  H    0.199064
    16  C   -0.174832
    17  H    0.169399
    18  H    0.176382
    19  C   -0.481873
    20  H    0.211848
    21  H    0.203331
    22  S    1.082789
    23  O   -0.451789
    24  O   -0.785761
    25  O   -0.677993
    26  P    1.181586
    27  O   -0.678783
    28  O   -0.500223
    29  H    0.318652
    30  O   -0.676380
    31  H    0.554233
    32  O   -0.448779
    33  H    0.304832
 Sum of Mulliken charges =  -0.00000
 Mulliken charges with hydrogens summed into heavy atoms:
               1
     1  C    0.019555
     2  C    0.026276
     3  C   -0.063973
     4  N    0.299078
     8  C    0.119368
    12  N    0.283819
    13  C   -0.010761
    16  C    0.170949
    19  C   -0.066694
    22  S    1.082789
    23  O   -0.451789
    24  O   -0.785761
    25  O   -0.677993
    26  P    1.181586
    27  O   -0.678783
    28  O   -0.181571
    30  O   -0.122147
    32  O   -0.143947
         Mulliken charges condensed to fragments:
      1     -0.055138
      2      0.055138
 Electronic spatial extent (au):  <R**2>=         217583.9936
 Charge=              0.0000 electrons
 Dipole moment (field-independent basis, Debye):
    X=              5.7017    Y=              1.8139    Z=              4.1799  Tot=              7.2987
 Quadrupole moment (field-independent basis, Debye-Ang):
   XX=             32.0609   YY=           -102.9795   ZZ=             -4.8739
   XY=             79.9154   XZ=            125.0507   YZ=             65.8786
 Traceless Quadrupole moment (field-independent basis, Debye-Ang):
   XX=             57.3251   YY=            -77.7153   ZZ=             20.3903
   XY=             79.9154   XZ=            125.0507   YZ=             65.8786
 Octapole moment (field-independent basis, Debye-Ang**2):
  XXX=          -1271.4988  YYY=          -3228.8749  ZZZ=          -2089.7996  XYY=           -577.8438
  XXY=            727.7778  XXZ=           1081.4295  XZZ=            892.7123  YZZ=            343.9818
  YYZ=           -812.4015  XYZ=           1541.9304
 Hexadecapole moment (field-independent basis, Debye-Ang**3):
 XXXX=         -51442.6728 YYYY=         -63734.2456 ZZZZ=         -68761.9677 XXXY=          -5544.3550
 XXXZ=          -7659.5416 YYYX=         -31648.3805 YYYZ=         -35021.2897 ZZZX=         -13662.0794
 ZZZY=         -13900.9799 XXYY=          -8112.0236 XXZZ=           5009.7704 YYZZ=         -14418.0659
 XXYZ=          15848.7014 YYXZ=          -1522.2661 ZZXY=          13414.8109
 N-N= 1.928598551922D+03 E-N=-7.754841398403D+03  KE= 1.646351325237D+03
 No NMR shielding tensors so no spin-rotation constants.
 Leave Link  601 at Sun Feb 19 13:14:54 2023, MaxMem=  6710886400 cpu:               4.1 elap:               0.2
 (Enter /data0/home/software/g16/l122.exe)
 CPIOFr:  IOpCl= 0 IRwI=-1 IRwCP=  731 ICalc= -1 LCPTot=      536908 Len1MO=     1413956 IndFrg=      536908
 CPIOFr:  IOpCl= 0 IRwI=-1 IRwCP=  731 ICalc=  0 LCPTot=      536908 Len1MO=     1413956 IndFrg=     1950864
 Counterpoise: doing calculation for fragment   1 using the basis set of the full-system, NewBq=T
 Leave Link  122 at Sun Feb 19 13:14:54 2023, MaxMem=  6710886400 cpu:               0.5 elap:               0.0
 (Enter /data0/home/software/g16/l301.exe)
 Basis read from rwf:  (5D, 7F)
 No pseudopotential information found on rwf file.
   592 basis functions,   904 primitive gaussians,   628 cartesian basis functions
    54 alpha electrons       54 beta electrons
       nuclear repulsion energy      1045.4263523702 Hartrees.
 IExCor= 4336 DFT=T Ex+Corr=M062X ExCW=0 ScaHFX=  0.540000
 ScaDFX=  1.000000  1.000000  1.000000  1.000000 ScalE2=  1.000000  1.000000
 IRadAn=      5 IRanWt=     -1 IRanGd=            0 ICorTp=0 IEmpDi=131
 NAtoms=   33 NActive=   33 NUniq=   33 SFac= 1.00D+00 NAtFMM=   60 NAOKFM=F Big=F
 Integral buffers will be    131072 words long.
 Raffenetti 2 integral format.
 Two-electron integral symmetry is turned off.
 R6Disp:  Grimme-D3 Dispersion energy=       -0.0011951318 Hartrees.
 Nuclear repulsion after empirical dispersion term =     1045.4251572384 Hartrees.
 No density basis found on file   718.
 Leave Link  301 at Sun Feb 19 13:14:54 2023, MaxMem=  6710886400 cpu:               1.3 elap:               0.1
 (Enter /data0/home/software/g16/l302.exe)
 NPDir=0 NMtPBC=     1 NCelOv=     1 NCel=       1 NClECP=     1 NCelD=      1
         NCelK=      1 NCelE2=     1 NClLst=     1 CellRange=     0.0.
 One-electron integrals computed using PRISM.
 NBasis=   592 RedAO= T EigKep=  8.43D-06  NBF=   592
 NBsUse=   592 1.00D-06 EigRej= -1.00D+00 NBFU=   592
 Precomputing XC quadrature grid using
 IXCGrd= 4 IRadAn=           5 IRanWt=          -1 IRanGd=           0 AccXCQ= 0.00D+00.
 Generated NRdTot=       0 NPtTot=           0 NUsed=           0 NTot=          32
 NSgBfM=   627   627   627   627   627 MxSgAt=    33 MxSgA2=    33.
 Leave Link  302 at Sun Feb 19 13:14:55 2023, MaxMem=  6710886400 cpu:              15.4 elap:               0.7
 (Enter /data0/home/software/g16/l303.exe)
 DipDrv:  MaxL=1.
 Leave Link  303 at Sun Feb 19 13:14:55 2023, MaxMem=  6710886400 cpu:               1.5 elap:               0.1
 (Enter /data0/home/software/g16/l401.exe)
 ExpMin= 3.48D-02 ExpMax= 9.34D+04 ExpMxC= 3.17D+03 IAcc=3 IRadAn=         5 AccDes= 0.00D+00
 Harris functional with IExCor= 1009 and IRadAn=       5 diagonalized for initial guess.
 HarFok:  IExCor= 1009 AccDes= 0.00D+00 IRadAn=         5 IDoV= 1 UseB2=F ITyADJ=14
 ICtDFT=  3500011 ScaDFX=  1.000000  1.000000  1.000000  1.000000
 FoFCou: FMM=F IPFlag=           0 FMFlag=      100000 FMFlg1=           0
         NFxFlg=           0 DoJE=T BraDBF=F KetDBF=T FulRan=T
         wScrn=  0.000000 ICntrl=       500 IOpCl=  0 I1Cent=   200000004 NGrid=           0
         NMat0=    1 NMatS0=      1 NMatT0=    0 NMatD0=    1 NMtDS0=    0 NMtDT0=    0
 Symmetry not used in FoFCou.
 Harris En= -1006.80336180770    
 JPrj=0 DoOrth=F DoCkMO=F.
 Leave Link  401 at Sun Feb 19 13:14:57 2023, MaxMem=  6710886400 cpu:              56.1 elap:               2.4
 (Enter /data0/home/software/g16/l502.exe)
 Two-electron integral symmetry not used.
 Closed shell SCF:
 Using DIIS extrapolation, IDIIS=  1040.
 NGot=  6710886400 LenX=  6710078225 LenY=  6709683213
 Requested convergence on RMS density matrix=1.00D-08 within 128 cycles.
 Requested convergence on MAX density matrix=1.00D-06.
 Requested convergence on             energy=1.00D-06.
 No special actions if energy rises.
 Fock matrices will be formed incrementally for  20 cycles.

 Cycle   1  Pass 1  IDiag  1:
 FoFJK:  IHMeth= 1 ICntrl=       0 DoSepK=F KAlg= 0 I1Cent=           0 FoldK=F
 IRaf= 840000000 NMat=       1 IRICut=       1 DoRegI=T DoRafI=F ISym2E= 0 IDoP0=0 IntGTp=1.
 FoFCou: FMM=F IPFlag=           0 FMFlag=      100000 FMFlg1=           0
         NFxFlg=           0 DoJE=F BraDBF=F KetDBF=F FulRan=T
         wScrn=  0.000000 ICntrl=         0 IOpCl=  0 I1Cent=           0 NGrid=           0
         NMat0=    1 NMatS0=      1 NMatT0=    0 NMatD0=    1 NMtDS0=    0 NMtDT0=    0
 Symmetry not used in FoFCou.
 E= -1006.77387142485    
 DIIS: error= 1.45D-02 at cycle   1 NSaved=   1.
 NSaved= 1 IEnMin= 1 EnMin= -1006.77387142485     IErMin= 1 ErrMin= 1.45D-02
 ErrMax= 1.45D-02  0.00D+00 EMaxC= 1.00D-01 BMatC= 7.14D-01 BMatP= 7.14D-01
 IDIUse=3 WtCom= 8.55D-01 WtEn= 1.45D-01
 Coeff-Com:  0.100D+01
 Coeff-En:   0.100D+01
 Coeff:      0.100D+01
 Gap=     0.272 Goal=   None    Shift=    0.000
 GapD=    0.272 DampG=1.000 DampE=0.500 DampFc=0.5000 IDamp=-1.
 Damping current iteration by 5.00D-01
 RMSDP=4.18D-03 MaxDP=4.62D-01              OVMax= 1.91D-01

 Cycle   2  Pass 1  IDiag  1:
 RMSU=  2.08D-03    CP:  9.82D-01
 E= -1006.96678704507     Delta-E=       -0.192915620216 Rises=F Damp=T
 DIIS: error= 6.10D-03 at cycle   2 NSaved=   2.
 NSaved= 2 IEnMin= 2 EnMin= -1006.96678704507     IErMin= 2 ErrMin= 6.10D-03
 ErrMax= 6.10D-03  0.00D+00 EMaxC= 1.00D-01 BMatC= 5.01D-02 BMatP= 7.14D-01
 IDIUse=3 WtCom= 9.39D-01 WtEn= 6.10D-02
 Coeff-Com:  0.318D-01 0.968D+00
 Coeff-En:   0.113D+00 0.887D+00
 Coeff:      0.368D-01 0.963D+00
 Gap=     0.268 Goal=   None    Shift=    0.000
 RMSDP=1.65D-03 MaxDP=2.89D-01 DE=-1.93D-01 OVMax= 1.19D-01

 Cycle   3  Pass 1  IDiag  1:
 RMSU=  1.40D-03    CP:  8.92D-01  8.70D-01
 E= -1007.20043920638     Delta-E=       -0.233652161309 Rises=F Damp=F
 DIIS: error= 3.32D-03 at cycle   3 NSaved=   3.
 NSaved= 3 IEnMin= 3 EnMin= -1007.20043920638     IErMin= 3 ErrMin= 3.32D-03
 ErrMax= 3.32D-03  0.00D+00 EMaxC= 1.00D-01 BMatC= 1.90D-02 BMatP= 5.01D-02
 IDIUse=3 WtCom= 9.67D-01 WtEn= 3.32D-02
 Coeff-Com: -0.618D-01 0.352D+00 0.710D+00
 Coeff-En:   0.000D+00 0.000D+00 0.100D+01
 Coeff:     -0.598D-01 0.340D+00 0.720D+00
 Gap=     0.264 Goal=   None    Shift=    0.000
 RMSDP=4.06D-04 MaxDP=2.56D-02 DE=-2.34D-01 OVMax= 2.93D-02

 Cycle   4  Pass 1  IDiag  1:
 RMSU=  3.73D-04    CP:  8.90D-01  9.45D-01  9.73D-01
 E= -1007.21206917003     Delta-E=       -0.011629963652 Rises=F Damp=F
 DIIS: error= 1.82D-03 at cycle   4 NSaved=   4.
 NSaved= 4 IEnMin= 4 EnMin= -1007.21206917003     IErMin= 4 ErrMin= 1.82D-03
 ErrMax= 1.82D-03  0.00D+00 EMaxC= 1.00D-01 BMatC= 3.09D-03 BMatP= 1.90D-02
 IDIUse=3 WtCom= 9.82D-01 WtEn= 1.82D-02
 Coeff-Com: -0.294D-01 0.845D-01 0.348D+00 0.597D+00
 Coeff-En:   0.000D+00 0.000D+00 0.106D+00 0.894D+00
 Coeff:     -0.289D-01 0.830D-01 0.343D+00 0.603D+00
 Gap=     0.261 Goal=   None    Shift=    0.000
 RMSDP=1.69D-04 MaxDP=1.70D-02 DE=-1.16D-02 OVMax= 1.18D-02

 Cycle   5  Pass 1  IDiag  1:
 RMSU=  1.09D-04    CP:  8.86D-01  9.35D-01  1.00D+00  6.96D-01
 E= -1007.21469029529     Delta-E=       -0.002621125260 Rises=F Damp=F
 DIIS: error= 2.68D-04 at cycle   5 NSaved=   5.
 NSaved= 5 IEnMin= 5 EnMin= -1007.21469029529     IErMin= 5 ErrMin= 2.68D-04
 ErrMax= 2.68D-04  0.00D+00 EMaxC= 1.00D-01 BMatC= 1.62D-04 BMatP= 3.09D-03
 IDIUse=3 WtCom= 9.97D-01 WtEn= 2.68D-03
 Coeff-Com: -0.932D-02 0.193D-01 0.114D+00 0.272D+00 0.604D+00
 Coeff-En:   0.000D+00 0.000D+00 0.000D+00 0.000D+00 0.100D+01
 Coeff:     -0.930D-02 0.193D-01 0.114D+00 0.271D+00 0.605D+00
 Gap=     0.261 Goal=   None    Shift=    0.000
 RMSDP=4.57D-05 MaxDP=2.45D-03 DE=-2.62D-03 OVMax= 2.76D-03

 Cycle   6  Pass 1  IDiag  1:
 RMSU=  3.07D-05    CP:  8.85D-01  9.36D-01  1.01D+00  7.51D-01  7.58D-01
 E= -1007.21480028425     Delta-E=       -0.000109988961 Rises=F Damp=F
 DIIS: error= 1.14D-04 at cycle   6 NSaved=   6.
 NSaved= 6 IEnMin= 6 EnMin= -1007.21480028425     IErMin= 6 ErrMin= 1.14D-04
 ErrMax= 1.14D-04  0.00D+00 EMaxC= 1.00D-01 BMatC= 2.43D-05 BMatP= 1.62D-04
 IDIUse=3 WtCom= 9.99D-01 WtEn= 1.14D-03
 Coeff-Com: -0.182D-02 0.158D-02 0.232D-01 0.814D-01 0.325D+00 0.571D+00
 Coeff-En:   0.000D+00 0.000D+00 0.000D+00 0.000D+00 0.333D-01 0.967D+00
 Coeff:     -0.181D-02 0.158D-02 0.232D-01 0.813D-01 0.324D+00 0.571D+00
 Gap=     0.261 Goal=   None    Shift=    0.000
 RMSDP=1.62D-05 MaxDP=1.76D-03 DE=-1.10D-04 OVMax= 9.92D-04

 Cycle   7  Pass 1  IDiag  1:
 RMSU=  1.47D-05    CP:  8.86D-01  9.36D-01  1.01D+00  7.61D-01  7.57D-01
                    CP:  8.41D-01
 E= -1007.21481863699     Delta-E=       -0.000018352745 Rises=F Damp=F
 DIIS: error= 2.16D-05 at cycle   7 NSaved=   7.
 NSaved= 7 IEnMin= 7 EnMin= -1007.21481863699     IErMin= 7 ErrMin= 2.16D-05
 ErrMax= 2.16D-05  0.00D+00 EMaxC= 1.00D-01 BMatC= 1.24D-06 BMatP= 2.43D-05
 IDIUse=1 WtCom= 1.00D+00 WtEn= 0.00D+00
 Coeff-Com:  0.489D-03-0.179D-02-0.607D-02-0.283D-02 0.474D-01 0.203D+00
 Coeff-Com:  0.760D+00
 Coeff:      0.489D-03-0.179D-02-0.607D-02-0.283D-02 0.474D-01 0.203D+00
 Coeff:      0.760D+00
 Gap=     0.261 Goal=   None    Shift=    0.000
 RMSDP=4.84D-06 MaxDP=4.36D-04 DE=-1.84D-05 OVMax= 2.75D-04

 Cycle   8  Pass 1  IDiag  1:
 RMSU=  3.26D-06    CP:  8.86D-01  9.35D-01  1.01D+00  7.62D-01  7.77D-01
                    CP:  8.82D-01  9.38D-01
 E= -1007.21481986381     Delta-E=       -0.000001226818 Rises=F Damp=F
 DIIS: error= 8.60D-06 at cycle   8 NSaved=   8.
 NSaved= 8 IEnMin= 8 EnMin= -1007.21481986381     IErMin= 8 ErrMin= 8.60D-06
 ErrMax= 8.60D-06  0.00D+00 EMaxC= 1.00D-01 BMatC= 1.14D-07 BMatP= 1.24D-06
 IDIUse=1 WtCom= 1.00D+00 WtEn= 0.00D+00
 Coeff-Com:  0.336D-03-0.692D-03-0.482D-02-0.101D-01-0.209D-01 0.142D-02
 Coeff-Com:  0.244D+00 0.791D+00
 Coeff:      0.336D-03-0.692D-03-0.482D-02-0.101D-01-0.209D-01 0.142D-02
 Coeff:      0.244D+00 0.791D+00
 Gap=     0.261 Goal=   None    Shift=    0.000
 RMSDP=1.85D-06 MaxDP=2.17D-04 DE=-1.23D-06 OVMax= 1.72D-04

 Cycle   9  Pass 1  IDiag  1:
 RMSU=  1.28D-06    CP:  8.85D-01  9.35D-01  1.01D+00  7.63D-01  7.86D-01
                    CP:  8.99D-01  9.61D-01  9.84D-01
 E= -1007.21482000972     Delta-E=       -0.000000145913 Rises=F Damp=F
 DIIS: error= 3.64D-06 at cycle   9 NSaved=   9.
 NSaved= 9 IEnMin= 9 EnMin= -1007.21482000972     IErMin= 9 ErrMin= 3.64D-06
 ErrMax= 3.64D-06  0.00D+00 EMaxC= 1.00D-01 BMatC= 1.49D-08 BMatP= 1.14D-07
 IDIUse=1 WtCom= 1.00D+00 WtEn= 0.00D+00
 Coeff-Com:  0.932D-04-0.143D-03-0.156D-02-0.394D-02-0.121D-01-0.136D-01
 Coeff-Com:  0.388D-01 0.312D+00 0.680D+00
 Coeff:      0.932D-04-0.143D-03-0.156D-02-0.394D-02-0.121D-01-0.136D-01
 Coeff:      0.388D-01 0.312D+00 0.680D+00
 Gap=     0.261 Goal=   None    Shift=    0.000
 RMSDP=5.42D-07 MaxDP=5.21D-05 DE=-1.46D-07 OVMax= 4.53D-05

 Cycle  10  Pass 1  IDiag  1:
 RMSU=  3.66D-07    CP:  8.85D-01  9.35D-01  1.01D+00  7.64D-01  7.84D-01
                    CP:  9.02D-01  9.75D-01  1.05D+00  9.44D-01
 E= -1007.21482002617     Delta-E=       -0.000000016448 Rises=F Damp=F
 DIIS: error= 1.10D-06 at cycle  10 NSaved=  10.
 NSaved=10 IEnMin=10 EnMin= -1007.21482002617     IErMin=10 ErrMin= 1.10D-06
 ErrMax= 1.10D-06  0.00D+00 EMaxC= 1.00D-01 BMatC= 1.68D-09 BMatP= 1.49D-08
 IDIUse=1 WtCom= 1.00D+00 WtEn= 0.00D+00
 Coeff-Com: -0.132D-04 0.425D-04 0.664D-04-0.126D-03-0.190D-02-0.527D-02
 Coeff-Com: -0.189D-01 0.112D-01 0.249D+00 0.766D+00
 Coeff:     -0.132D-04 0.425D-04 0.664D-04-0.126D-03-0.190D-02-0.527D-02
 Coeff:     -0.189D-01 0.112D-01 0.249D+00 0.766D+00
 Gap=     0.261 Goal=   None    Shift=    0.000
 RMSDP=2.06D-07 MaxDP=2.10D-05 DE=-1.64D-08 OVMax= 2.59D-05

 Cycle  11  Pass 1  IDiag  1:
 RMSU=  1.28D-07    CP:  8.85D-01  9.35D-01  1.01D+00  7.64D-01  7.85D-01
                    CP:  9.02D-01  9.72D-01  1.07D+00  1.03D+00  1.10D+00
 E= -1007.21482002834     Delta-E=       -0.000000002165 Rises=F Damp=F
 DIIS: error= 4.10D-07 at cycle  11 NSaved=  11.
 NSaved=11 IEnMin=11 EnMin= -1007.21482002834     IErMin=11 ErrMin= 4.10D-07
 ErrMax= 4.10D-07  0.00D+00 EMaxC= 1.00D-01 BMatC= 3.29D-10 BMatP= 1.68D-09
 IDIUse=1 WtCom= 1.00D+00 WtEn= 0.00D+00
 Coeff-Com: -0.166D-04 0.353D-04 0.230D-03 0.455D-03 0.803D-03-0.149D-03
 Coeff-Com: -0.128D-01-0.379D-01-0.651D-03 0.335D+00 0.715D+00
 Coeff:     -0.166D-04 0.353D-04 0.230D-03 0.455D-03 0.803D-03-0.149D-03
 Coeff:     -0.128D-01-0.379D-01-0.651D-03 0.335D+00 0.715D+00
 Gap=     0.261 Goal=   None    Shift=    0.000
 RMSDP=7.60D-08 MaxDP=7.43D-06 DE=-2.16D-09 OVMax= 6.74D-06

 Cycle  12  Pass 1  IDiag  1:
 RMSU=  4.22D-08    CP:  8.85D-01  9.35D-01  1.01D+00  7.64D-01  7.85D-01
                    CP:  9.02D-01  9.72D-01  1.07D+00  1.06D+00  1.18D+00
                    CP:  9.37D-01
 E= -1007.21482002873     Delta-E=       -0.000000000393 Rises=F Damp=F
 DIIS: error= 1.66D-07 at cycle  12 NSaved=  12.
 NSaved=12 IEnMin=12 EnMin= -1007.21482002873     IErMin=12 ErrMin= 1.66D-07
 ErrMax= 1.66D-07  0.00D+00 EMaxC= 1.00D-01 BMatC= 3.58D-11 BMatP= 3.29D-10
 IDIUse=1 WtCom= 1.00D+00 WtEn= 0.00D+00
 Coeff-Com: -0.565D-05 0.112D-04 0.950D-04 0.206D-03 0.495D-03 0.410D-03
 Coeff-Com: -0.400D-02-0.169D-01-0.251D-01 0.859D-01 0.317D+00 0.642D+00
 Coeff:     -0.565D-05 0.112D-04 0.950D-04 0.206D-03 0.495D-03 0.410D-03
 Coeff:     -0.400D-02-0.169D-01-0.251D-01 0.859D-01 0.317D+00 0.642D+00
 Gap=     0.261 Goal=   None    Shift=    0.000
 RMSDP=2.17D-08 MaxDP=2.31D-06 DE=-3.93D-10 OVMax= 1.64D-06

 Cycle  13  Pass 1  IDiag  1:
 RMSU=  1.56D-08    CP:  8.85D-01  9.35D-01  1.01D+00  7.64D-01  7.85D-01
                    CP:  9.02D-01  9.71D-01  1.07D+00  1.06D+00  1.20D+00
                    CP:  9.98D-01  9.75D-01
 E= -1007.21482002872     Delta-E=        0.000000000015 Rises=F Damp=F
 DIIS: error= 6.52D-08 at cycle  13 NSaved=  13.
 NSaved=13 IEnMin=12 EnMin= -1007.21482002873     IErMin=13 ErrMin= 6.52D-08
 ErrMax= 6.52D-08  0.00D+00 EMaxC= 1.00D-01 BMatC= 7.31D-12 BMatP= 3.58D-11
 IDIUse=1 WtCom= 1.00D+00 WtEn= 0.00D+00
 Coeff-Com:  0.433D-06-0.120D-05 0.522D-05 0.164D-04 0.922D-04 0.235D-03
 Coeff-Com:  0.255D-03-0.102D-02-0.134D-01-0.159D-01 0.260D-01 0.333D+00
 Coeff-Com:  0.671D+00
 Coeff:      0.433D-06-0.120D-05 0.522D-05 0.164D-04 0.922D-04 0.235D-03
 Coeff:      0.255D-03-0.102D-02-0.134D-01-0.159D-01 0.260D-01 0.333D+00
 Coeff:      0.671D+00
 Gap=     0.261 Goal=   None    Shift=    0.000
 RMSDP=1.00D-08 MaxDP=1.10D-06 DE= 1.46D-11 OVMax= 1.04D-06

 Cycle  14  Pass 1  IDiag  1:
 RMSU=  7.07D-09    CP:  8.85D-01  9.35D-01  1.01D+00  7.64D-01  7.85D-01
                    CP:  9.02D-01  9.71D-01  1.07D+00  1.06D+00  1.21D+00
                    CP:  1.01D+00  1.07D+00  8.69D-01
 E= -1007.21482002858     Delta-E=        0.000000000135 Rises=F Damp=F
 DIIS: error= 1.60D-08 at cycle  14 NSaved=  14.
 NSaved=14 IEnMin=12 EnMin= -1007.21482002873     IErMin=14 ErrMin= 1.60D-08
 ErrMax= 1.60D-08  0.00D+00 EMaxC= 1.00D-01 BMatC= 4.29D-13 BMatP= 7.31D-12
 IDIUse=1 WtCom= 1.00D+00 WtEn= 0.00D+00
 Coeff-Com:  0.707D-06-0.155D-05-0.698D-05-0.131D-04-0.141D-04 0.486D-04
 Coeff-Com:  0.450D-03 0.136D-02-0.276D-02-0.138D-01-0.259D-01 0.379D-01
 Coeff-Com:  0.223D+00 0.780D+00
 Coeff:      0.707D-06-0.155D-05-0.698D-05-0.131D-04-0.141D-04 0.486D-04
 Coeff:      0.450D-03 0.136D-02-0.276D-02-0.138D-01-0.259D-01 0.379D-01
 Coeff:      0.223D+00 0.780D+00
 Gap=     0.261 Goal=   None    Shift=    0.000
 RMSDP=3.67D-09 MaxDP=4.13D-07 DE= 1.35D-10 OVMax= 3.05D-07

 SCF Done:  E(RM062X) =  -1007.21482003     A.U. after   14 cycles
[...]
 Generated NRdTot=       0 NPtTot=           0 NUsed=           0 NTot=          32
 NSgBfM=   171   171   171   171   171 MxSgAt=     8 MxSgA2=     8.
 Leave Link  302 at Sun Feb 19 13:20:00 2023, MaxMem=  6710886400 cpu:               2.9 elap:               0.1
 (Enter /data0/home/software/g16/l303.exe)
 DipDrv:  MaxL=1.
 Leave Link  303 at Sun Feb 19 13:20:00 2023, MaxMem=  6710886400 cpu:               0.5 elap:               0.0
 (Enter /data0/home/software/g16/l401.exe)
 ExpMin= 3.48D-02 ExpMax= 7.75D+04 ExpMxC= 2.65D+03 IAcc=3 IRadAn=         5 AccDes= 0.00D+00
 Harris functional with IExCor= 1009 and IRadAn=       5 diagonalized for initial guess.
 HarFok:  IExCor= 1009 AccDes= 0.00D+00 IRadAn=         5 IDoV= 1 UseB2=F ITyADJ=14
 ICtDFT=  3500011 ScaDFX=  1.000000  1.000000  1.000000  1.000000
 FoFCou: FMM=F IPFlag=           0 FMFlag=      100000 FMFlg1=           0
         NFxFlg=           0 DoJE=T BraDBF=F KetDBF=T FulRan=T
         wScrn=  0.000000 ICntrl=       500 IOpCl=  0 I1Cent=   200000004 NGrid=           0
         NMat0=    1 NMatS0=      1 NMatT0=    0 NMatD0=    1 NMtDS0=    0 NMtDT0=    0
 Symmetry not used in FoFCou.
 Harris En= -643.942103402727    
 JPrj=0 DoOrth=F DoCkMO=F.
 Leave Link  401 at Sun Feb 19 13:20:00 2023, MaxMem=  6710886400 cpu:               6.0 elap:               0.3
 (Enter /data0/home/software/g16/l502.exe)
 Keep R1 ints in memory in canonical form, NReq=108966253.
 FoFCou: FMM=F IPFlag=           0 FMFlag=           0 FMFlg1=           0
         NFxFlg=           0 DoJE=F BraDBF=F KetDBF=F FulRan=T
         wScrn=  0.000000 ICntrl=       600 IOpCl=  0 I1Cent=           0 NGrid=           0
         NMat0=    1 NMatS0=  13041 NMatT0=    0 NMatD0=    1 NMtDS0=    0 NMtDT0=    0
 Symmetry not used in FoFCou.
 Two-electron integral symmetry not used.
 Closed shell SCF:
 Using DIIS extrapolation, IDIIS=  1040.
 NGot=  6710886400 LenX=  6625781403 LenY=  6625751721
 Requested convergence on RMS density matrix=1.00D-08 within 128 cycles.
 Requested convergence on MAX density matrix=1.00D-06.
 Requested convergence on             energy=1.00D-06.
 No special actions if energy rises.

 Cycle   1  Pass 1  IDiag  1:
 E= -643.841980840353    
 DIIS: error= 4.62D-02 at cycle   1 NSaved=   1.
 NSaved= 1 IEnMin= 1 EnMin= -643.841980840353     IErMin= 1 ErrMin= 4.62D-02
 ErrMax= 4.62D-02  0.00D+00 EMaxC= 1.00D-01 BMatC= 5.16D-01 BMatP= 5.16D-01
 IDIUse=3 WtCom= 5.38D-01 WtEn= 4.62D-01
 Coeff-Com:  0.100D+01
 Coeff-En:   0.100D+01
 Coeff:      0.100D+01
 Gap=     0.265 Goal=   None    Shift=    0.000
 GapD=    0.265 DampG=1.000 DampE=0.500 DampFc=0.5000 IDamp=-1.
 Damping current iteration by 5.00D-01
 RMSDP=9.10D-03 MaxDP=2.12D-01              OVMax= 2.68D-01

 Cycle   2  Pass 1  IDiag  1:
 E= -643.957791890817     Delta-E=       -0.115811050465 Rises=F Damp=T
 DIIS: error= 9.19D-03 at cycle   2 NSaved=   2.
 NSaved= 2 IEnMin= 2 EnMin= -643.957791890817     IErMin= 2 ErrMin= 9.19D-03
 ErrMax= 9.19D-03  0.00D+00 EMaxC= 1.00D-01 BMatC= 2.91D-02 BMatP= 5.16D-01
 IDIUse=3 WtCom= 9.08D-01 WtEn= 9.19D-02
 Coeff-Com:  0.819D-01 0.918D+00
 Coeff-En:   0.223D+00 0.777D+00
 Coeff:      0.949D-01 0.905D+00
 Gap=     0.341 Goal=   None    Shift=    0.000
 RMSDP=2.20D-03 MaxDP=7.17D-02 DE=-1.16D-01 OVMax= 1.73D-01

 Cycle   3  Pass 1  IDiag  1:
 E= -644.131908857134     Delta-E=       -0.174116966316 Rises=F Damp=F
 DIIS: error= 9.34D-03 at cycle   3 NSaved=   3.
 NSaved= 3 IEnMin= 3 EnMin= -644.131908857134     IErMin= 2 ErrMin= 9.19D-03
 ErrMax= 9.34D-03  0.00D+00 EMaxC= 1.00D-01 BMatC= 1.20D-02 BMatP= 2.91D-02
 IDIUse=3 WtCom= 9.07D-01 WtEn= 9.34D-02
 Coeff-Com: -0.119D-01 0.356D+00 0.656D+00
 Coeff-En:   0.000D+00 0.000D+00 0.100D+01
 Coeff:     -0.107D-01 0.323D+00 0.688D+00
 Gap=     0.330 Goal=   None    Shift=    0.000
 RMSDP=7.13D-04 MaxDP=1.66D-02 DE=-1.74D-01 OVMax= 3.82D-02

 Cycle   4  Pass 1  IDiag  1:
 E= -644.137655899038     Delta-E=       -0.005747041904 Rises=F Damp=F
 DIIS: error= 5.11D-03 at cycle   4 NSaved=   4.
 NSaved= 4 IEnMin= 4 EnMin= -644.137655899038     IErMin= 4 ErrMin= 5.11D-03
 ErrMax= 5.11D-03  0.00D+00 EMaxC= 1.00D-01 BMatC= 4.12D-03 BMatP= 1.20D-02
 IDIUse=3 WtCom= 9.49D-01 WtEn= 5.11D-02
 Coeff-Com: -0.212D-01 0.466D-01 0.391D+00 0.583D+00
 Coeff-En:   0.000D+00 0.000D+00 0.252D+00 0.748D+00
 Coeff:     -0.201D-01 0.442D-01 0.384D+00 0.592D+00
 Gap=     0.337 Goal=   None    Shift=    0.000
 RMSDP=2.72D-04 MaxDP=6.63D-03 DE=-5.75D-03 OVMax= 1.17D-02

 Cycle   5  Pass 1  IDiag  1:
 E= -644.140362057789     Delta-E=       -0.002706158751 Rises=F Damp=F
 DIIS: error= 2.23D-04 at cycle   5 NSaved=   5.
 NSaved= 5 IEnMin= 5 EnMin= -644.140362057789     IErMin= 5 ErrMin= 2.23D-04
 ErrMax= 2.23D-04  0.00D+00 EMaxC= 1.00D-01 BMatC= 1.77D-05 BMatP= 4.12D-03
 IDIUse=3 WtCom= 9.98D-01 WtEn= 2.23D-03
 Coeff-Com: -0.214D-02-0.905D-03 0.508D-01 0.117D+00 0.835D+00
 Coeff-En:   0.000D+00 0.000D+00 0.000D+00 0.000D+00 0.100D+01
 Coeff:     -0.213D-02-0.903D-03 0.507D-01 0.117D+00 0.836D+00
 Gap=     0.336 Goal=   None    Shift=    0.000
 RMSDP=2.76D-05 MaxDP=6.67D-04 DE=-2.71D-03 OVMax= 7.44D-04

 Cycle   6  Pass 1  IDiag  1:
 E= -644.140373722442     Delta-E=       -0.000011664653 Rises=F Damp=F
 DIIS: error= 5.60D-05 at cycle   6 NSaved=   6.
 NSaved= 6 IEnMin= 6 EnMin= -644.140373722442     IErMin= 6 ErrMin= 5.60D-05
 ErrMax= 5.60D-05  0.00D+00 EMaxC= 1.00D-01 BMatC= 1.09D-06 BMatP= 1.77D-05
 IDIUse=1 WtCom= 1.00D+00 WtEn= 0.00D+00
 Coeff-Com:  0.173D-03-0.162D-02-0.155D-02 0.536D-02 0.190D+00 0.807D+00
 Coeff:      0.173D-03-0.162D-02-0.155D-02 0.536D-02 0.190D+00 0.807D+00
 Gap=     0.336 Goal=   None    Shift=    0.000
 RMSDP=1.12D-05 MaxDP=2.26D-04 DE=-1.17D-05 OVMax= 2.45D-04

 Cycle   7  Pass 1  IDiag  1:
 E= -644.140374460540     Delta-E=       -0.000000738097 Rises=F Damp=F
 DIIS: error= 3.29D-05 at cycle   7 NSaved=   7.
 NSaved= 7 IEnMin= 7 EnMin= -644.140374460540     IErMin= 7 ErrMin= 3.29D-05
 ErrMax= 3.29D-05  0.00D+00 EMaxC= 1.00D-01 BMatC= 3.41D-07 BMatP= 1.09D-06
 IDIUse=1 WtCom= 1.00D+00 WtEn= 0.00D+00
 Coeff-Com:  0.358D-03-0.586D-03-0.798D-02-0.137D-01-0.200D-01 0.370D+00
 Coeff-Com:  0.672D+00
 Coeff:      0.358D-03-0.586D-03-0.798D-02-0.137D-01-0.200D-01 0.370D+00
 Coeff:      0.672D+00
 Gap=     0.336 Goal=   None    Shift=    0.000
 RMSDP=3.81D-06 MaxDP=8.56D-05 DE=-7.38D-07 OVMax= 1.22D-04

 Cycle   8  Pass 1  IDiag  1:
 E= -644.140374689391     Delta-E=       -0.000000228852 Rises=F Damp=F
 DIIS: error= 1.10D-05 at cycle   8 NSaved=   8.
 NSaved= 8 IEnMin= 8 EnMin= -644.140374689391     IErMin= 8 ErrMin= 1.10D-05
 ErrMax= 1.10D-05  0.00D+00 EMaxC= 1.00D-01 BMatC= 2.87D-08 BMatP= 3.41D-07
 IDIUse=1 WtCom= 1.00D+00 WtEn= 0.00D+00
 Coeff-Com:  0.126D-03-0.153D-03-0.331D-02-0.572D-02-0.149D-01 0.111D+00
 Coeff-Com:  0.296D+00 0.617D+00
 Coeff:      0.126D-03-0.153D-03-0.331D-02-0.572D-02-0.149D-01 0.111D+00
 Coeff:      0.296D+00 0.617D+00
 Gap=     0.336 Goal=   None    Shift=    0.000
 RMSDP=8.90D-07 MaxDP=2.09D-05 DE=-2.29D-07 OVMax= 3.33D-05

 Cycle   9  Pass 1  IDiag  1:
 E= -644.140374710848     Delta-E=       -0.000000021456 Rises=F Damp=F
 DIIS: error= 2.20D-06 at cycle   9 NSaved=   9.
 NSaved= 9 IEnMin= 9 EnMin= -644.140374710848     IErMin= 9 ErrMin= 2.20D-06
 ErrMax= 2.20D-06  0.00D+00 EMaxC= 1.00D-01 BMatC= 1.08D-09 BMatP= 2.87D-08
 IDIUse=1 WtCom= 1.00D+00 WtEn= 0.00D+00
 Coeff-Com: -0.292D-04 0.562D-04 0.281D-03 0.603D-03-0.106D-02-0.249D-01
 Coeff-Com: -0.269D-01 0.103D+00 0.948D+00
 Coeff:     -0.292D-04 0.562D-04 0.281D-03 0.603D-03-0.106D-02-0.249D-01
 Coeff:     -0.269D-01 0.103D+00 0.948D+00
 Gap=     0.336 Goal=   None    Shift=    0.000
 RMSDP=3.85D-07 MaxDP=1.00D-05 DE=-2.15D-08 OVMax= 1.27D-05

 Cycle  10  Pass 1  IDiag  1:
 E= -644.140374712154     Delta-E=       -0.000000001306 Rises=F Damp=F
 DIIS: error= 3.28D-07 at cycle  10 NSaved=  10.
 NSaved=10 IEnMin=10 EnMin= -644.140374712154     IErMin=10 ErrMin= 3.28D-07
 ErrMax= 3.28D-07  0.00D+00 EMaxC= 1.00D-01 BMatC= 2.20D-11 BMatP= 1.08D-09
 IDIUse=1 WtCom= 1.00D+00 WtEn= 0.00D+00
 Coeff-Com: -0.218D-05 0.307D-05 0.110D-03 0.180D-03 0.663D-03-0.436D-02
 Coeff-Com: -0.120D-01-0.216D-01-0.921D-02 0.105D+01
 Coeff:     -0.218D-05 0.307D-05 0.110D-03 0.180D-03 0.663D-03-0.436D-02
 Coeff:     -0.120D-01-0.216D-01-0.921D-02 0.105D+01
 Gap=     0.336 Goal=   None    Shift=    0.000
 RMSDP=8.51D-08 MaxDP=1.50D-06 DE=-1.31D-09 OVMax= 2.73D-06

 Cycle  11  Pass 1  IDiag  1:
 E= -644.140374712193     Delta-E=       -0.000000000040 Rises=F Damp=F
 DIIS: error= 1.46D-07 at cycle  11 NSaved=  11.
 NSaved=11 IEnMin=11 EnMin= -644.140374712193     IErMin=11 ErrMin= 1.46D-07
 ErrMax= 1.46D-07  0.00D+00 EMaxC= 1.00D-01 BMatC= 6.29D-12 BMatP= 2.20D-11
 IDIUse=1 WtCom= 1.00D+00 WtEn= 0.00D+00
 Coeff-Com:  0.833D-06-0.189D-05 0.296D-04 0.382D-04 0.293D-03-0.610D-03
 Coeff-Com: -0.323D-02-0.129D-01-0.535D-01 0.410D+00 0.660D+00
 Coeff:      0.833D-06-0.189D-05 0.296D-04 0.382D-04 0.293D-03-0.610D-03
 Coeff:     -0.323D-02-0.129D-01-0.535D-01 0.410D+00 0.660D+00
 Gap=     0.336 Goal=   None    Shift=    0.000
 RMSDP=2.03D-08 MaxDP=4.13D-07 DE=-3.96D-11 OVMax= 7.17D-07

 Cycle  12  Pass 1  IDiag  1:
 E= -644.140374712198     Delta-E=       -0.000000000005 Rises=F Damp=F
 DIIS: error= 6.58D-08 at cycle  12 NSaved=  12.
 NSaved=12 IEnMin=12 EnMin= -644.140374712198     IErMin=12 ErrMin= 6.58D-08
 ErrMax= 6.58D-08  0.00D+00 EMaxC= 1.00D-01 BMatC= 1.23D-12 BMatP= 6.29D-12
 IDIUse=1 WtCom= 1.00D+00 WtEn= 0.00D+00
 Coeff-Com:  0.734D-06-0.146D-05-0.233D-05-0.892D-05 0.315D-04 0.374D-03
 Coeff-Com:  0.449D-03-0.239D-02-0.241D-01 0.218D-01 0.319D+00 0.685D+00
 Coeff:      0.734D-06-0.146D-05-0.233D-05-0.892D-05 0.315D-04 0.374D-03
 Coeff:      0.449D-03-0.239D-02-0.241D-01 0.218D-01 0.319D+00 0.685D+00
 Gap=     0.336 Goal=   None    Shift=    0.000
 RMSDP=7.75D-09 MaxDP=1.31D-07 DE=-5.00D-12 OVMax= 2.44D-07

 SCF Done:  E(RM062X) =  -644.140374712     A.U. after   12 cycles
            NFock= 12  Conv=0.77D-08     -V/T= 2.0025
 KE= 6.425349845859D+02 PE=-2.087675251585D+03 EE= 5.209935161651D+02
 Leave Link  502 at Sun Feb 19 13:20:05 2023, MaxMem=  6710886400 cpu:             100.1 elap:               5.5
 (Enter /data0/home/software/g16/l601.exe)
 Copying SCF densities to generalized density rwf, IOpCl= 0 IROHF=0.

 **********************************************************************

            Population analysis using the SCF density.

 **********************************************************************

 Alpha  occ. eigenvalues --  -78.16722 -19.70387 -19.68557 -19.67724 -19.57744
 Alpha  occ. eigenvalues --   -6.97517  -5.09447  -5.09405  -5.09177  -1.24728
 Alpha  occ. eigenvalues --   -1.17530  -1.16660  -1.08325  -0.72690  -0.66851
 Alpha  occ. eigenvalues --   -0.64232  -0.57574  -0.55857  -0.50409  -0.48902
 Alpha  occ. eigenvalues --   -0.47577  -0.45450  -0.43865  -0.37591  -0.37282
 Alpha virt. eigenvalues --   -0.03639   0.00836   0.02741   0.04872   0.07562
 Alpha virt. eigenvalues --    0.09912   0.11544   0.13953   0.14514   0.15807
 Alpha virt. eigenvalues --    0.17472   0.18063   0.19102   0.19695   0.22440
 Alpha virt. eigenvalues --    0.23063   0.24274   0.25159   0.25776   0.26609
 Alpha virt. eigenvalues --    0.27842   0.29560   0.31386   0.31854   0.33000
 Alpha virt. eigenvalues --    0.34752   0.36352   0.36985   0.39826   0.43501
 Alpha virt. eigenvalues --    0.44043   0.49539   0.50137   0.55666   0.58104
 Alpha virt. eigenvalues --    0.73441   0.75863   0.76866   0.86650   0.97100
 Alpha virt. eigenvalues --    1.00542   1.03146   1.04647   1.06313   1.10773
 Alpha virt. eigenvalues --    1.11126   1.13971   1.16960   1.19012   1.22084
 Alpha virt. eigenvalues --    1.23353   1.23700   1.25928   1.29234   1.33175
 Alpha virt. eigenvalues --    1.35300   1.37614   1.45262   1.47055   1.49504
 Alpha virt. eigenvalues --    1.54234   1.57755   1.59830   1.60503   1.63831
 Alpha virt. eigenvalues --    1.65611   1.66190   1.72308   1.74894   1.80417
 Alpha virt. eigenvalues --    1.81416   1.84444   1.87759   1.93946   1.98095
 Alpha virt. eigenvalues --    1.98873   1.99565   2.04008   2.13434   2.16845
 Alpha virt. eigenvalues --    2.18000   2.23139   2.27441   2.36243   2.43567
 Alpha virt. eigenvalues --    2.48790   2.54736   2.59607   2.63370   2.70265
 Alpha virt. eigenvalues --    2.72907   2.79905   2.86707   2.92104   2.93178
 Alpha virt. eigenvalues --    5.00242   5.02299   5.06099   5.07705   5.11607
 Alpha virt. eigenvalues --    5.14701   5.18477   5.22806   5.34638   5.41459
 Alpha virt. eigenvalues --    5.49537   5.54615   6.71956   6.73702   6.74147
 Alpha virt. eigenvalues --    6.75857   6.77628   6.79414   6.84688   6.87802
 Alpha virt. eigenvalues --    6.87845   6.92988   6.96562   6.99604   7.00515
 Alpha virt. eigenvalues --    7.01857   7.07728   7.22498   7.28305   7.29073
 Alpha virt. eigenvalues --    7.33230   7.40102   7.63637  14.21502  14.25046
 Alpha virt. eigenvalues --   14.35895  49.96609  49.99820  50.01111  50.09896
 Alpha virt. eigenvalues --  163.85303
          Condensed to atoms (all electrons):
              26         27         28         29         30         31
    26  P   12.522816   0.543571   0.185517   0.041567   0.205699  -0.009825
    27  O    0.543571   8.228435  -0.058202   0.008362  -0.048987  -0.011517
    28  O    0.185517  -0.058202   8.113202   0.207441   0.062540  -0.008045
    29  H    0.041567   0.008362   0.207441   0.468782  -0.021033   0.000699
    30  O    0.205699  -0.048987   0.062540  -0.021033   8.135611   0.260972
    31  H   -0.009825  -0.011517  -0.008045   0.000699   0.260972   0.417759
    32  O    0.198463  -0.046092   0.017059  -0.009091   0.003889   0.004209
    33  H    0.051016   0.006996  -0.010147  -0.001182  -0.015754   0.000733
              32         33
    26  P    0.198463   0.051016
    27  O   -0.046092   0.006996
    28  O    0.017059  -0.010147
    29  H   -0.009091  -0.001182
    30  O    0.003889  -0.015754
    31  H    0.004209   0.000733
    32  O    8.101580   0.223187
    33  H    0.223187   0.447719
 Mulliken charges:
               1
     1  C    0.000000
     2  C    0.000000
     3  C    0.000000
     4  N    0.000000
     5  H    0.000000
     6  H    0.000000
     7  H    0.000000
     8  C    0.000000
     9  H    0.000000
    10  H    0.000000
    11  H    0.000000
    12  N    0.000000
    13  C    0.000000
    14  H    0.000000
    15  H    0.000000
    16  C    0.000000
    17  H    0.000000
    18  H    0.000000
    19  C    0.000000
    20  H    0.000000
    21  H    0.000000
    22  S    0.000000
    23  O    0.000000
    24  O    0.000000
    25  O    0.000000
    26  P    1.261174
    27  O   -0.622567
    28  O   -0.509366
    29  H    0.304453
    30  O   -0.582938
    31  H    0.345015
    32  O   -0.493204
    33  H    0.297432
 Sum of Mulliken charges =  -0.00000
 Mulliken charges with hydrogens summed into heavy atoms:
               1
     1  C    0.000000
     2  C    0.000000
     3  C    0.000000
     4  N    0.000000
     8  C    0.000000
    12  N    0.000000
    13  C    0.000000
    16  C    0.000000
    19  C    0.000000
    22  S    0.000000
    23  O    0.000000
    24  O    0.000000
    25  O    0.000000
    26  P    1.261174
    27  O   -0.622567
    28  O   -0.204913
    30  O   -0.237923
    32  O   -0.195772
         Mulliken charges condensed to fragments:
      1      0.000000
      2     -0.000000
 Electronic spatial extent (au):  <R**2>=          49738.5938
 Charge=              0.0000 electrons
 Dipole moment (field-independent basis, Debye):
    X=             -0.1881    Y=              4.9456    Z=             -4.2977  Tot=              6.5548
 Quadrupole moment (field-independent basis, Debye-Ang):
   XX=            -37.2700   YY=             37.2143   ZZ=           -133.7747
   XY=             50.4681   XZ=            -43.5244   YZ=             25.6396
 Traceless Quadrupole moment (field-independent basis, Debye-Ang):
   XX=              7.3402   YY=             81.8244   ZZ=            -89.1646
   XY=             50.4681   XZ=            -43.5244   YZ=             25.6396
 Octapole moment (field-independent basis, Debye-Ang**2):
  XXX=          -1059.3723  YYY=             65.6465  ZZZ=          -2892.9109  XYY=            395.8230
  XXY=            288.6607  XXZ=           -819.9383  XZZ=          -1335.8544  YZZ=           -311.6746
  YYZ=            205.6604  XYZ=            282.0801
 Hexadecapole moment (field-independent basis, Debye-Ang**3):
 XXXX=         -20902.4326 YYYY=          -2452.2641 ZZZZ=         -53224.5892 XXXY=          -1507.7611
 XXXZ=         -15812.8757 YYYX=            937.7556 YYYZ=           -804.6793 ZZZX=         -28913.9480
 ZZZY=         -13271.5811 XXYY=           2634.8268 XXZZ=         -17683.8029 YYZZ=          -2001.8045
 XXYZ=            514.8578 YYXZ=           2445.2092 ZZXY=          -2731.4215
 N-N= 2.800063761219D+02 E-N=-2.087675255915D+03  KE= 6.425349845859D+02
 No NMR shielding tensors so no spin-rotation constants.
 Leave Link  601 at Sun Feb 19 13:20:05 2023, MaxMem=  6710886400 cpu:               2.0 elap:               0.1
 (Enter /data0/home/software/g16/l122.exe)
 CPIOFr:  IOpCl= 0 IRwI=-1 IRwCP=  731 ICalc=  4 LCPTot=      536908 Len1MO=     1413956 IndFrg=     7606688
 Restoring MOs from calculation   1 to rwf.
 CPIOFr:  IOpCl= 0 IRwI=-2 IRwCP=  731 ICalc=  0 LCPTot=      536908 Len1MO=     1413956 IndFrg=     1950864
 Counterpoise corrected energy =   -1651.413630598884
                   BSSE energy =       0.002533885515
              sum of fragments =   -1651.354334818188
           complexation energy =     -38.80 kcal/mole (raw)
           complexation energy =     -37.21 kcal/mole (corrected)
 Leave Link  122 at Sun Feb 19 13:20:05 2023, MaxMem=  6710886400 cpu:               0.5 elap:               0.0
 (Enter /data0/home/software/g16/l9999.exe)
 1\1\GINC-LOCALHOST\SP\RM062X\6-311+G(2d,p)\C7H15N2O7P1S1\WUHANYU\19-Fe
 b-2023\0\\#p M062X/6-311+G(2d,p) nosymm em=GD3 counterpoise=2\\Title C
 ard Required\\0,1\C,0,13.019317,7.600925,13.723741\C,0,14.10783,8.3865
 05,13.36933\C,0,12.664473,9.677322,14.523689\N,0,12.143072,8.415066,14
 .443624\H,0,12.80082,6.569532,13.48725\H,0,14.967352,8.140943,12.77740
 5\H,0,12.181389,10.542534,14.98218\C,0,10.813392,8.053957,14.901764\H,
 0,10.624942,6.968061,14.768453\H,0,10.667483,8.318435,15.960416\H,0,10
 .040719,8.582247,14.286169\N,0,13.880392,9.668066,13.884937\C,0,14.681
 323,10.860533,13.601814\H,0,15.691953,10.717184,14.049426\H,0,14.21213
 2,11.739681,14.110209\C,0,14.811109,11.14551,12.087824\H,0,15.753402,1
 1.708007,11.922217\H,0,14.937165,10.189252,11.529317\C,0,13.646809,11.
 936798,11.50239\H,0,13.831339,12.160308,10.436197\H,0,13.531922,12.915
 099,11.998018\S,0,12.08515,11.023759,11.64179\O,0,11.152739,11.564715,
 10.639504\O,0,12.493082,9.608985,11.381433\O,0,11.702353,11.233616,13.
 058693\P,0,10.095917,7.006538,11.296277\O,0,10.614643,6.208537,12.4072
 17\O,0,9.184088,8.176025,11.864852\H,0,9.002549,8.905827,11.143513\O,0
 ,11.102335,7.633407,10.254473\H,0,11.702962,8.390108,10.73155\O,0,9.16
 3202,6.107958,10.359215\H,0,9.128078,6.527746,9.425385\\Version=ES64L-
 G16RevA.03\HF=-644.1403747\RMSD=7.747e-09\Dipole=2.2538425,0.7295781,1
 .6505053\Quadrupole=42.6919674,-57.6993686,15.0074013,59.920638,93.376
 4626,49.3995061\PG=C01 [X(C7H15N2O7P1S1)]\\@


 THE WORLD OF CHEMICAL REACTIONS IS LIKE A STAGE,
 ON WHICH SCENE AFTER SCENE IS CEASELESSLY PLAYED.
 THE ACTORS ON IT ARE THE ELEMENTS.
   -- CLEMENS WINKLER   BER. 30,13(1897)
 (DISCOVERER OF GERMANIUM, FEB 6, 1886)
 Job cpu time:       0 days  3 hours  0 minutes  8.4 seconds.
 Elapsed time:       0 days  0 hours  7 minutes 33.8 seconds.
 File lengths (MBytes):  RWF=    264 Int=      0 D2E=      0 Chk=     79 Scr=      1
 Normal termination of Gaussian 16 at Sun Feb 19 13:20:06 2023.
