 Entering Gaussian System, Link 0=g16
 Initial command:
 /data0/home/software/g16/l1.exe "/data0/home/software/g16/scratch/Gau-351722.inp" -scrdir="/data0/home/software/g16/scratch/"
 Default is to use a total of  22 processors:
                               22 via shared-memory
                                1 via Linda
 Entering Link 1 = /data0/home/software/g16/l1.exe PID=    351723.
  
 Copyright (c) 1988,1990,1992,1993,1995,1998,2003,2009,2016,
            Gaussian, Inc.  All Rights Reserved.
  
 This is part of the Gaussian(R) 16 program.  It is based on
 the Gaussian(R) 09 system (copyright 2009, Gaussian, Inc.),
 the Gaussian(R) 03 system (copyright 2003, Gaussian, Inc.),
 the Gaussian(R) 98 system (copyright 1998, Gaussian, Inc.),
 the Gaussian(R) 94 system (copyright 1995, Gaussian, Inc.),
 the Gaussian 92(TM) system (copyright 1992, Gaussian, Inc.),
 the Gaussian 90(TM) system (copyright 1990, Gaussian, Inc.),
 the Gaussian 88(TM) system (copyright 1988, Gaussian, Inc.),
 the Gaussian 86(TM) system (copyright 1986, Carnegie Mellon
 University), and the Gaussian 82(TM) system (copyright 1983,
 Carnegie Mellon University). Gaussian is a federally registered
 trademark of Gaussian, Inc.
  
 This software contains proprietary and confidential information,
 including trade secrets, belonging to Gaussian, Inc.
  
 This software is provided under written license and may be
 used, copied, transmitted, or stored only in accord with that
 written license.
  
 The following legend is applicable only to US Government
 contracts under FAR:
  
                    RESTRICTED RIGHTS LEGEND
  
 Use, reproduction and disclosure by the US Government is
 subject to restrictions as set forth in subparagraphs (a)
 and (c) of the Commercial Computer Software - Restricted
 Rights clause in FAR 52.227-19.
  
 Gaussian, Inc.
 340 Quinnipiac St., Bldg. 40, Wallingford CT 06492
  
  
 ---------------------------------------------------------------
 Warning -- This program may not be used in any manner that
 competes with the business of Gaussian, Inc. or will provide
 assistance to any competitor of Gaussian, Inc.  The licensee
 of this program is prohibited from giving any competitor of
 Gaussian, Inc. access to this program.  By using this program,
 the user acknowledges that Gaussian, Inc. is engaged in the
 business of creating and licensing software in the field of
 computational chemistry and represents and warrants to the
 licensee that it is not a competitor of Gaussian, Inc. and that
 it will not use this program in any manner prohibited above.
 ---------------------------------------------------------------
  

 Cite this work as:
 Gaussian 16, Revision A.03,
 M. J. Frisch, G. W. Trucks, H. B. Schlegel, G. E. Scuseria, 
 M. A. Robb, J. R. Cheeseman, G. Scalmani, V. Barone, 
 G. A. Petersson, H. Nakatsuji, X. Li, M. Caricato, A. V. Marenich, 
 J. Bloino, B. G. Janesko, R. Gomperts, B. Mennucci, H. P. Hratchian, 
 J. V. Ortiz, A. F. Izmaylov, J. L. Sonnenberg, D. Williams-Young, 
 F. Ding, F. Lipparini, F. Egidi, J. Goings, B. Peng, A. Petrone, 
 T. Henderson, D. Ranasinghe, V. G. Zakrzewski, J. Gao, N. Rega, 
 G. Zheng, W. Liang, M. Hada, M. Ehara, K. Toyota, R. Fukuda, 
 J. Hasegawa, M. Ishida, T. Nakajima, Y. Honda, O. Kitao, H. Nakai, 
 T. Vreven, K. Throssell, J. A. Montgomery, Jr., J. E. Peralta, 
 F. Ogliaro, M. J. Bearpark, J. J. Heyd, E. N. Brothers, K. N. Kudin, 
 V. N. Staroverov, T. A. Keith, R. Kobayashi, J. Normand, 
 K. Raghavachari, A. P. Rendell, J. C. Burant, S. S. Iyengar, 
 J. Tomasi, M. Cossi, J. M. Millam, M. Klene, C. Adamo, R. Cammi, 
 J. W. Ochterski, R. L. Martin, K. Morokuma, O. Farkas, 
 J. B. Foresman, and D. J. Fox, Gaussian, Inc., Wallingford CT, 2016.
 
 ******************************************
 Gaussian 16:  ES64L-G16RevA.03 25-Dec-2016
                20-Feb-2023 
 ******************************************
 %nproc=24
 Will use up to   24 processors via shared memory.
 %mem=50GB
 ---------------------------------------------------
 #p M062X/6-311+G(2d,p) nosymm em=GD3 counterpoise=2
 ---------------------------------------------------
 1/38=1,62=2,172=1/1;
 2/12=2,15=1,17=6,18=5,40=1/2;
 1/38=1,53=2,62=2,63=1/22;
 3/5=4,6=6,7=112,11=2,25=1,30=1,74=-55,124=31/1,2,3;
 4//1;
 5/5=2,38=5/2;
 6/7=2,8=2,9=2,10=2,28=1/1;
 1/53=2,62=2,63=1/22;
 3/5=7,6=11,7=112,11=2,25=1,30=1,74=-55,82=7,124=31/1,2,3;
 4//1;
 5/5=2,38=5/2;
 6/7=2,8=2,9=2,10=2,28=1/1;
 1/53=2,62=2,63=1/22(-4);
 99/5=1,9=1/99;
 Leave Link    1 at Mon Feb 20 00:48:08 2023, MaxMem=  6710886400 cpu:               0.7 elap:               0.0
 (Enter /data0/home/software/g16/l101.exe)
 -------------------
 Title Card Required
 -------------------
 Symbolic Z-matrix:
 Charge =  0 Multiplicity = 1 in supermolecule
 Charge =  0 Multiplicity = 1 in fragment      1.
 Charge =  0 Multiplicity = 1 in fragment      2.
 C                     11.57097   10.90281   11.9342    
 H                     12.3415   11.17179   11.17734    
 H                     11.92716   11.20464   12.92671    
 H                     11.49349   9.79582   11.91455    
 C                     9.21853   11.11322   12.5921    
 H                     8.22392   11.50927   12.33082    
 H                     9.13549   10.00099   12.60292    
 H                     9.47371   11.43974   13.61038    
 C                     10.42945   13.03368   11.66012    
 H                     9.47696   13.56666   11.52173    
 H                     10.8627   13.34673   12.62109    
 H                     11.1227   13.37309   10.84903    
 C                     9.83952   11.09233   10.20614    
 H                     9.41815   10.05645   10.27544    
 H                     10.77585   10.99456   9.5959     
 C                     8.86158   12.02216   9.48275    
 H                     9.36087   12.98086   9.21992    
 H                     7.9879    12.26921   10.10953    
 C                     8.39619   11.34632   8.18829    
 H                     7.91957   12.0779   7.51107    
 H                     7.63441   10.56898   8.39366    
 N                     10.25184   11.5467   11.59501    
 C                     9.60198   10.72874   7.47094    
 O                     10.55222   11.47424   7.17342    
 O                     9.57346   9.49112   7.2874     
 P                     12.80904   8.96751   8.32281    
 O                     12.37231   9.04777   9.72189    
 O                     14.24342   8.2879    8.23047    
 H                     14.50426   8.26539   7.22881    
 O                     11.91062   8.12233   7.33518    
 H                     10.97382   8.63118   7.22143    
 O                     13.02902   10.38833   7.63656    
 H                     12.09787   10.76249   7.30488    
 
 ITRead=  0  0  0  0  0  0  0  0  0  0  0  0  0  0  0  0  0  0  0  0
 ITRead=  0  0  0  0  0  0  0  0  0  0  0  0  0
 MicOpt= -1 -1 -1 -1 -1 -1 -1 -1 -1 -1 -1 -1 -1 -1 -1 -1 -1 -1 -1 -1
 MicOpt= -1 -1 -1 -1 -1 -1 -1 -1 -1 -1 -1 -1 -1
 NAtoms=     33 NQM=       33 NQMF=       0 NMMI=      0 NMMIF=      0
                NMic=       0 NMicF=      0.
                    Isotopes and Nuclear Properties:
 (Nuclear quadrupole moments (NQMom) in fm**2, nuclear magnetic moments (NMagM)
  in nuclear magnetons)

  Atom         1           2           3           4           5           6           7           8           9          10
 IAtWgt=          12           1           1           1          12           1           1           1          12           1
 AtmWgt=  12.0000000   1.0078250   1.0078250   1.0078250  12.0000000   1.0078250   1.0078250   1.0078250  12.0000000   1.0078250
 NucSpn=           0           1           1           1           0           1           1           1           0           1
 AtZEff=  -0.0000000  -0.0000000  -0.0000000  -0.0000000  -0.0000000  -0.0000000  -0.0000000  -0.0000000  -0.0000000  -0.0000000
 NQMom=    0.0000000   0.0000000   0.0000000   0.0000000   0.0000000   0.0000000   0.0000000   0.0000000   0.0000000   0.0000000
 NMagM=    0.0000000   2.7928460   2.7928460   2.7928460   0.0000000   2.7928460   2.7928460   2.7928460   0.0000000   2.7928460
 AtZNuc=   6.0000000   1.0000000   1.0000000   1.0000000   6.0000000   1.0000000   1.0000000   1.0000000   6.0000000   1.0000000

  Atom        11          12          13          14          15          16          17          18          19          20
 IAtWgt=           1           1          12           1           1          12           1           1          12           1
 AtmWgt=   1.0078250   1.0078250  12.0000000   1.0078250   1.0078250  12.0000000   1.0078250   1.0078250  12.0000000   1.0078250
 NucSpn=           1           1           0           1           1           0           1           1           0           1
 AtZEff=  -0.0000000  -0.0000000  -0.0000000  -0.0000000  -0.0000000  -0.0000000  -0.0000000  -0.0000000  -0.0000000  -0.0000000
 NQMom=    0.0000000   0.0000000   0.0000000   0.0000000   0.0000000   0.0000000   0.0000000   0.0000000   0.0000000   0.0000000
 NMagM=    2.7928460   2.7928460   0.0000000   2.7928460   2.7928460   0.0000000   2.7928460   2.7928460   0.0000000   2.7928460
 AtZNuc=   1.0000000   1.0000000   6.0000000   1.0000000   1.0000000   6.0000000   1.0000000   1.0000000   6.0000000   1.0000000

  Atom        21          22          23          24          25          26          27          28          29          30
 IAtWgt=           1          14          12          16          16          31          16          16           1          16
 AtmWgt=   1.0078250  14.0030740  12.0000000  15.9949146  15.9949146  30.9737634  15.9949146  15.9949146   1.0078250  15.9949146
 NucSpn=           1           2           0           0           0           1           0           0           1           0
 AtZEff=  -0.0000000  -0.0000000  -0.0000000  -0.0000000  -0.0000000  -0.0000000  -0.0000000  -0.0000000  -0.0000000  -0.0000000
 NQMom=    0.0000000   2.0440000   0.0000000   0.0000000   0.0000000   0.0000000   0.0000000   0.0000000   0.0000000   0.0000000
 NMagM=    2.7928460   0.4037610   0.0000000   0.0000000   0.0000000   1.1316000   0.0000000   0.0000000   2.7928460   0.0000000
 AtZNuc=   1.0000000   7.0000000   6.0000000   8.0000000   8.0000000  15.0000000   8.0000000   8.0000000   1.0000000   8.0000000

  Atom        31          32          33
 IAtWgt=           1          16           1
 AtmWgt=   1.0078250  15.9949146   1.0078250
 NucSpn=           1           0           1
 AtZEff=  -0.0000000  -0.0000000  -0.0000000
 NQMom=    0.0000000   0.0000000   0.0000000
 NMagM=    2.7928460   0.0000000   2.7928460
 AtZNuc=   1.0000000   8.0000000   1.0000000
 Leave Link  101 at Mon Feb 20 00:48:08 2023, MaxMem=  6710886400 cpu:               2.2 elap:               0.1
 (Enter /data0/home/software/g16/l202.exe)
                          Input orientation:                          
 ---------------------------------------------------------------------
 Center     Atomic      Atomic             Coordinates (Angstroms)
 Number     Number       Type             X           Y           Z
 ---------------------------------------------------------------------
      1          6           0       11.570971   10.902812   11.934201
      2          1           0       12.341504   11.171792   11.177340
      3          1           0       11.927156   11.204639   12.926712
      4          1           0       11.493492    9.795823   11.914552
      5          6           0        9.218533   11.113216   12.592101
      6          1           0        8.223918   11.509268   12.330819
      7          1           0        9.135490   10.000989   12.602921
      8          1           0        9.473712   11.439739   13.610380
      9          6           0       10.429446   13.033683   11.660123
     10          1           0        9.476955   13.566655   11.521734
     11          1           0       10.862696   13.346728   12.621094
     12          1           0       11.122705   13.373090   10.849025
     13          6           0        9.839524   11.092332   10.206138
     14          1           0        9.418151   10.056452   10.275437
     15          1           0       10.775855   10.994555    9.595897
     16          6           0        8.861580   12.022159    9.482750
     17          1           0        9.360869   12.980861    9.219924
     18          1           0        7.987904   12.269212   10.109530
     19          6           0        8.396190   11.346324    8.188291
     20          1           0        7.919568   12.077897    7.511075
     21          1           0        7.634408   10.568984    8.393658
     22          7           0       10.251838   11.546696   11.595012
     23          6           0        9.601984   10.728739    7.470939
     24          8           0       10.552222   11.474242    7.173417
     25          8           0        9.573459    9.491118    7.287399
     26         15           0       12.809037    8.967506    8.322808
     27          8           0       12.372310    9.047767    9.721893
     28          8           0       14.243419    8.287898    8.230468
     29          1           0       14.504264    8.265394    7.228808
     30          8           0       11.910620    8.122325    7.335179
     31          1           0       10.973822    8.631180    7.221430
     32          8           0       13.029020   10.388335    7.636556
     33          1           0       12.097869   10.762486    7.304882
 ---------------------------------------------------------------------
                    Distance matrix (angstroms):
                    1          2          3          4          5
     1  C    0.000000
     2  H    1.113063   0.000000
     3  H    1.096834   1.798073   0.000000
     4  H    1.109871   1.776484   1.788098   0.000000
     5  C    2.451748   3.428983   2.730744   2.714781   0.000000
     6  H    3.424596   4.289396   3.763225   3.714739   1.101991
     7  H    2.681798   3.698863   3.057289   2.464978   1.115375
     8  H    2.737948   3.770373   2.557745   3.107701   1.099375
     9  C    2.432860   2.712136   2.681937   3.417699   2.454198
    10  H    3.413370   3.749616   3.681924   4.294171   2.689206
    11  H    2.635565   3.000274   2.411436   3.675055   2.773570
    12  H    2.735109   2.537513   3.109036   3.750956   3.430920
    13  C    2.453575   2.685042   3.431085   2.708362   2.465540
    14  H    2.846482   3.256287   3.826578   2.657379   2.554120
    15  H    2.471496   2.232405   3.530433   2.707050   3.378842
    16  C    3.821433   3.962907   4.682624   4.218672   3.259088
    17  H    4.070643   3.998549   4.845727   4.685463   3.857452
    18  H    4.246745   4.615017   4.958582   4.654557   3.002321
    19  C    4.930292   4.952815   5.911043   5.087470   4.485993
    20  H    5.854709   5.815156   6.793561   6.113216   5.332424
    21  H    5.305037   5.501728   6.275374   5.280815   4.520239
    22  N    1.506568   2.163725   2.167284   2.170108   1.499937
    23  C    4.881385   4.630192   5.949652   4.918723   5.149870
    24  O    4.901984   4.395953   5.921447   5.116780   5.592066
    25  O    5.251257   5.061460   6.346487   5.018956   5.558510
    26  P    4.280231   3.636732   5.194075   3.913744   5.976843
    27  O    2.996271   2.575026   3.888589   2.477834   4.738194
    28  O    5.262831   4.540725   5.993927   4.838224   7.228813
    29  H    6.140106   5.358692   6.909903   5.776085   8.050711
    30  O    5.384930   4.924136   6.384839   4.893388   6.620271
    31  H    5.265654   4.896375   6.331017   4.863316   6.171357
    32  O    4.567313   3.691021   5.464998   4.583685   6.293067
    33  H    4.661320   3.901643   5.641774   4.748554   6.030611
                    6          7          8          9         10
     6  H    0.000000
     7  H    1.783230   0.000000
     8  H    1.789999   1.788678   0.000000
     9  C    2.763698   3.429347   2.693991   0.000000
    10  H    2.541173   3.741596   2.980977   1.100204   0.000000
    11  H    3.228571   3.765307   2.558236   1.099622   1.782481
    12  H    3.751335   4.289084   3.752613   1.119681   1.788434
    13  C    2.701534   2.726034   3.441420   2.496182   2.825690
    14  H    2.785940   2.345241   3.610875   3.435692   3.725351
    15  H    3.775859   3.566534   4.243800   2.922169   3.465788
    16  C    2.963303   3.727683   4.213223   2.867462   2.630895
    17  H    3.624350   4.513879   4.654449   2.664436   2.378016
    18  H    2.359522   3.560729   3.892506   2.991635   2.427952
    19  C    4.149309   4.673912   5.528908   4.362904   4.148465
    20  H    4.862705   5.631954   6.326463   4.942430   4.552718
    21  H    4.090586   4.504860   5.599593   4.955479   4.708064
    22  N    2.157608   2.156693   2.163014   1.498971   2.164728
    23  C    5.111431   5.204275   6.181805   4.852497   4.947559
    24  O    5.658712   5.801475   6.526781   4.751575   4.943911
    25  O    5.597345   5.357850   6.617187   5.692380   5.877832
    26  P    6.599093   5.734318   6.722704   5.773554   6.518287
    27  O    5.484035   4.436886   5.407747   4.839316   5.660641
    28  O    7.963950   6.938585   7.850329   6.987947   7.836893
    29  H    8.717567   7.792119   8.723954   7.679666   8.473867
    30  O    7.072452   6.243383   7.504792   6.709728   7.286336
    31  H    6.476976   5.849469   7.138418   6.275378   6.715068
    32  O    6.810404   6.322531   7.030806   5.472179   6.149268
    33  H    6.389462   6.117580   6.863248   5.187494   5.702139
                   11         12         13         14         15
    11  H    0.000000
    12  H    1.791236   0.000000
    13  C    3.458496   2.694757   0.000000
    14  H    4.291239   3.772876   1.120449   0.000000
    15  H    3.833024   2.710731   1.121905   1.784705   0.000000
    16  C    3.950715   2.967222   1.531092   2.191376   2.175597
    17  H    3.735947   2.431436   2.183637   3.109591   2.467580
    18  H    3.966538   3.404758   2.196105   2.639969   3.108254
    19  C    5.452982   4.315225   2.493879   2.657885   2.787096
    20  H    6.031934   4.804115   3.452671   3.738140   3.698444
    21  H    6.000743   5.104905   2.901984   2.643013   3.390454
    22  N    2.160117   2.156530   1.518361   2.158041   2.139139
    23  C    5.913320   4.551555   2.769465   2.889805   2.442146
    24  O    5.768863   4.176263   3.138661   3.594270   2.479621
    25  O    6.706427   5.491361   3.339718   3.045011   3.005868
    26  P    6.437476   5.351136   4.108506   4.061609   3.140623
    27  O    5.400497   4.641159   3.290858   3.170317   2.520819
    28  O    7.503242   6.515741   5.582330   5.531084   4.605908
    29  H    8.255769   7.115439   6.214167   6.193414   5.191576
    30  O    7.505560   6.366982   4.620907   4.312582   3.827302
    31  H    7.169736   5.972212   4.031424   3.711936   3.356013
    32  O    6.187945   4.781501   4.155869   4.484664   3.046846
    33  H    6.038714   4.508564   3.691369   4.062459   2.655245
                   16         17         18         19         20
    16  C    0.000000
    17  H    1.112419   0.000000
    18  H    1.103267   1.784062   0.000000
    19  C    1.532633   2.160228   2.170156   0.000000
    20  H    2.185863   2.410987   2.606384   1.104984   0.000000
    21  H    2.191755   3.079048   2.441301   1.107585   1.771182
    22  N    2.573040   2.914052   2.802514   3.884498   4.732885
    23  C    2.503701   2.861667   3.455499   1.532953   2.156933
    24  O    2.914018   2.806673   3.978500   2.386379   2.721999
    25  O    3.425275   3.994766   4.265702   2.374733   3.078443
    26  P    5.124333   5.366721   6.110398   5.014986   5.851525
    27  O    4.607540   4.978954   5.454446   4.841986   5.822054
    28  O    6.669116   6.844138   7.649392   6.598927   7.407612
    29  H    7.143768   7.256355   8.172641   6.908061   7.614005
    30  O    5.396055   5.801626   6.346763   4.844914   5.621920
    31  H    4.590629   5.051269   5.521966   3.866654   4.614349
    32  O    4.842042   4.762728   5.921668   4.762905   5.383016
    33  H    4.099201   4.009955   5.198854   3.850157   4.385319
                   21         22         23         24         25
    21  H    0.000000
    22  N    4.249180   0.000000
    23  C    2.179057   4.254332   0.000000
    24  O    3.289699   4.432379   1.243884   0.000000
    25  O    2.479017   4.820905   1.251482   2.214441   0.000000
    26  P    5.417244   4.888641   3.756702   3.563431   3.437325
    27  O    5.150342   3.774867   3.945525   3.961721   3.735892
    28  O    6.993498   6.154075   5.298821   4.989497   4.913822
    29  H    7.338823   6.921980   5.491725   5.091013   5.081208
    30  O    5.039098   5.711747   3.484483   3.620326   2.708911
    31  H    4.034958   5.305630   2.518720   2.874553   1.644646
    32  O    5.450475   4.972315   3.447880   2.743760   3.587173
    33  H    4.598408   4.735824   2.501631   1.706723   2.826540
                   26         27         28         29         30
    26  P    0.000000
    27  O    1.467859   0.000000
    28  O    1.589920   2.510537   0.000000
    29  H    2.136257   3.372359   1.035311   0.000000
    30  O    1.580157   2.601154   2.504178   2.599764   0.000000
    31  H    2.166602   2.895104   3.438934   3.549348   1.072130
    32  O    1.593138   2.564570   2.497865   2.617151   2.544887
    33  H    2.182633   2.976159   3.403481   3.468716   2.646966
                   31         32         33
    31  H    0.000000
    32  O    2.735647   0.000000
    33  H    2.410998   1.056901   0.000000
 Symmetry turned off by external request.
 Stoichiometry    C7H18NO6P
 Framework group  C1[X(C7H18NO6P)]
 Deg. of freedom    93
 Full point group                 C1      NOp   1
 Rotational constants (GHZ):           0.6851953           0.3546279           0.2720819
 Leave Link  202 at Mon Feb 20 00:48:08 2023, MaxMem=  6710886400 cpu:               0.1 elap:               0.0
 (Enter /data0/home/software/g16/l122.exe)
 Counterpoise: doing full-system calculation.
 Leave Link  122 at Mon Feb 20 00:48:08 2023, MaxMem=  6710886400 cpu:               0.0 elap:               0.0
 (Enter /data0/home/software/g16/l301.exe)
 Standard basis: 6-311+G(2d,p) (5D, 7F)
 Ernie: Thresh=  0.10000D-02 Tol=  0.10000D-05 Strict=F.
   521 basis functions,   788 primitive gaussians,   551 cartesian basis functions
    65 alpha electrons       65 beta electrons
       nuclear repulsion energy      1324.6801461470 Hartrees.
 IExCor= 4336 DFT=T Ex+Corr=M062X ExCW=0 ScaHFX=  0.540000
 ScaDFX=  1.000000  1.000000  1.000000  1.000000 ScalE2=  1.000000  1.000000
 IRadAn=      5 IRanWt=     -1 IRanGd=            0 ICorTp=0 IEmpDi=131
 NAtoms=   33 NActive=   33 NUniq=   33 SFac= 1.00D+00 NAtFMM=   60 NAOKFM=F Big=F
 Integral buffers will be    131072 words long.
 Raffenetti 2 integral format.
 Two-electron integral symmetry is turned off.
 R6Disp:  Grimme-D3 Dispersion energy=       -0.0020925730 Hartrees.
 Nuclear repulsion after empirical dispersion term =     1324.6780535740 Hartrees.
 Leave Link  301 at Mon Feb 20 00:48:08 2023, MaxMem=  6710886400 cpu:               1.1 elap:               0.1
 (Enter /data0/home/software/g16/l302.exe)
 NPDir=0 NMtPBC=     1 NCelOv=     1 NCel=       1 NClECP=     1 NCelD=      1
         NCelK=      1 NCelE2=     1 NClLst=     1 CellRange=     0.0.
 One-electron integrals computed using PRISM.
 NBasis=   521 RedAO= T EigKep=  1.14D-05  NBF=   521
 NBsUse=   521 1.00D-06 EigRej= -1.00D+00 NBFU=   521
 Precomputing XC quadrature grid using
 IXCGrd= 4 IRadAn=           5 IRanWt=          -1 IRanGd=           0 AccXCQ= 0.00D+00.
 Generated NRdTot=       0 NPtTot=           0 NUsed=           0 NTot=          32
 NSgBfM=   551   551   551   551   551 MxSgAt=    33 MxSgA2=    33.
 Leave Link  302 at Mon Feb 20 00:48:08 2023, MaxMem=  6710886400 cpu:              12.6 elap:               0.5
 (Enter /data0/home/software/g16/l303.exe)
 DipDrv:  MaxL=1.
 Leave Link  303 at Mon Feb 20 00:48:08 2023, MaxMem=  6710886400 cpu:               1.3 elap:               0.1
 (Enter /data0/home/software/g16/l401.exe)
 ExpMin= 3.48D-02 ExpMax= 7.75D+04 ExpMxC= 2.65D+03 IAcc=3 IRadAn=         5 AccDes= 0.00D+00
 Harris functional with IExCor= 1009 and IRadAn=       5 diagonalized for initial guess.
 HarFok:  IExCor= 1009 AccDes= 0.00D+00 IRadAn=         5 IDoV= 1 UseB2=F ITyADJ=14
 ICtDFT=  3500011 ScaDFX=  1.000000  1.000000  1.000000  1.000000
 FoFCou: FMM=F IPFlag=           0 FMFlag=      100000 FMFlg1=           0
         NFxFlg=           0 DoJE=T BraDBF=F KetDBF=T FulRan=T
         wScrn=  0.000000 ICntrl=       500 IOpCl=  0 I1Cent=   200000004 NGrid=           0
         NMat0=    1 NMatS0=      1 NMatT0=    0 NMatD0=    1 NMtDS0=    0 NMtDT0=    0
 Symmetry not used in FoFCou.
 Harris En= -1124.67976313924    
 JPrj=0 DoOrth=F DoCkMO=F.
 Leave Link  401 at Mon Feb 20 00:48:10 2023, MaxMem=  6710886400 cpu:              49.8 elap:               2.1
 (Enter /data0/home/software/g16/l502.exe)
 Two-electron integral symmetry not used.
 Closed shell SCF:
 Using DIIS extrapolation, IDIIS=  1040.
 NGot=  6710886400 LenX=  6710262024 LenY=  6709957872
 Requested convergence on RMS density matrix=1.00D-08 within 128 cycles.
 Requested convergence on MAX density matrix=1.00D-06.
 Requested convergence on             energy=1.00D-06.
 No special actions if energy rises.
 Fock matrices will be formed incrementally for  20 cycles.

 Cycle   1  Pass 1  IDiag  1:
 FoFJK:  IHMeth= 1 ICntrl=       0 DoSepK=F KAlg= 0 I1Cent=           0 FoldK=F
 IRaf= 860000000 NMat=       1 IRICut=       1 DoRegI=T DoRafI=F ISym2E= 0 IDoP0=0 IntGTp=1.
 FoFCou: FMM=F IPFlag=           0 FMFlag=      100000 FMFlg1=           0
         NFxFlg=           0 DoJE=F BraDBF=F KetDBF=F FulRan=T
         wScrn=  0.000000 ICntrl=         0 IOpCl=  0 I1Cent=           0 NGrid=           0
         NMat0=    1 NMatS0=      1 NMatT0=    0 NMatD0=    1 NMtDS0=    0 NMtDT0=    0
 Symmetry not used in FoFCou.
 E= -1124.48038043896    
 DIIS: error= 2.85D-02 at cycle   1 NSaved=   1.
 NSaved= 1 IEnMin= 1 EnMin= -1124.48038043896     IErMin= 1 ErrMin= 2.85D-02
 ErrMax= 2.85D-02  0.00D+00 EMaxC= 1.00D-01 BMatC= 9.49D-01 BMatP= 9.49D-01
 IDIUse=3 WtCom= 7.15D-01 WtEn= 2.85D-01
 Coeff-Com:  0.100D+01
 Coeff-En:   0.100D+01
 Coeff:      0.100D+01
 Gap=     0.329 Goal=   None    Shift=    0.000
 GapD=    0.329 DampG=1.000 DampE=0.500 DampFc=0.5000 IDamp=-1.
 Damping current iteration by 5.00D-01
 RMSDP=5.41D-03 MaxDP=8.62D-01              OVMax= 2.02D-01

 Cycle   2  Pass 1  IDiag  1:
 RMSU=  2.68D-03    CP:  1.04D+00
 E= -1124.75695568244     Delta-E=       -0.276575243481 Rises=F Damp=T
 DIIS: error= 4.92D-03 at cycle   2 NSaved=   2.
 NSaved= 2 IEnMin= 2 EnMin= -1124.75695568244     IErMin= 2 ErrMin= 4.92D-03
 ErrMax= 4.92D-03  0.00D+00 EMaxC= 1.00D-01 BMatC= 5.53D-02 BMatP= 9.49D-01
 IDIUse=3 WtCom= 9.51D-01 WtEn= 4.92D-02
 Coeff-Com:  0.138D-01 0.986D+00
 Coeff-En:   0.661D-01 0.934D+00
 Coeff:      0.164D-01 0.984D+00
 Gap=     0.287 Goal=   None    Shift=    0.000
 RMSDP=1.77D-03 MaxDP=3.06D-01 DE=-2.77D-01 OVMax= 1.34D-01

 Cycle   3  Pass 1  IDiag  1:
 RMSU=  1.58D-03    CP:  9.65D-01  9.19D-01
 E= -1125.06823789688     Delta-E=       -0.311282214438 Rises=F Damp=F
 DIIS: error= 3.99D-03 at cycle   3 NSaved=   3.
 NSaved= 3 IEnMin= 3 EnMin= -1125.06823789688     IErMin= 3 ErrMin= 3.99D-03
 ErrMax= 3.99D-03  0.00D+00 EMaxC= 1.00D-01 BMatC= 1.79D-02 BMatP= 5.53D-02
 IDIUse=3 WtCom= 9.60D-01 WtEn= 3.99D-02
 Coeff-Com: -0.482D-01 0.328D+00 0.720D+00
 Coeff-En:   0.000D+00 0.000D+00 0.100D+01
 Coeff:     -0.462D-01 0.315D+00 0.732D+00
 Gap=     0.282 Goal=   None    Shift=    0.000
 RMSDP=3.59D-04 MaxDP=2.07D-02 DE=-3.11D-01 OVMax= 4.01D-02

 Cycle   4  Pass 1  IDiag  1:
 RMSU=  3.51D-04    CP:  9.65D-01  9.44D-01  9.77D-01
 E= -1125.07727661489     Delta-E=       -0.009038718014 Rises=F Damp=F
 DIIS: error= 2.89D-03 at cycle   4 NSaved=   4.
 NSaved= 4 IEnMin= 4 EnMin= -1125.07727661489     IErMin= 4 ErrMin= 2.89D-03
 ErrMax= 2.89D-03  0.00D+00 EMaxC= 1.00D-01 BMatC= 5.37D-03 BMatP= 1.79D-02
 IDIUse=3 WtCom= 9.71D-01 WtEn= 2.89D-02
 Coeff-Com: -0.255D-01 0.722D-01 0.393D+00 0.561D+00
 Coeff-En:   0.000D+00 0.000D+00 0.218D+00 0.782D+00
 Coeff:     -0.248D-01 0.701D-01 0.388D+00 0.567D+00
 Gap=     0.278 Goal=   None    Shift=    0.000
 RMSDP=1.62D-04 MaxDP=1.74D-02 DE=-9.04D-03 OVMax= 1.52D-02

 Cycle   5  Pass 1  IDiag  1:
 RMSU=  9.98D-05    CP:  9.62D-01  9.26D-01  9.92D-01  6.85D-01
 E= -1125.08106342522     Delta-E=       -0.003786810331 Rises=F Damp=F
 DIIS: error= 4.60D-04 at cycle   5 NSaved=   5.
 NSaved= 5 IEnMin= 5 EnMin= -1125.08106342522     IErMin= 5 ErrMin= 4.60D-04
 ErrMax= 4.60D-04  0.00D+00 EMaxC= 1.00D-01 BMatC= 1.51D-04 BMatP= 5.37D-03
 IDIUse=3 WtCom= 9.95D-01 WtEn= 4.60D-03
 Coeff-Com: -0.742D-02 0.136D-01 0.124D+00 0.238D+00 0.632D+00
 Coeff-En:   0.000D+00 0.000D+00 0.000D+00 0.000D+00 0.100D+01
 Coeff:     -0.738D-02 0.135D-01 0.123D+00 0.237D+00 0.634D+00
 Gap=     0.277 Goal=   None    Shift=    0.000
 RMSDP=2.94D-05 MaxDP=2.36D-03 DE=-3.79D-03 OVMax= 2.24D-03

 Cycle   6  Pass 1  IDiag  1:
 RMSU=  2.46D-05    CP:  9.61D-01  9.25D-01  9.94D-01  7.16D-01  9.06D-01
 E= -1125.08116519375     Delta-E=       -0.000101768525 Rises=F Damp=F
 DIIS: error= 1.78D-04 at cycle   6 NSaved=   6.
 NSaved= 6 IEnMin= 6 EnMin= -1125.08116519375     IErMin= 6 ErrMin= 1.78D-04
 ErrMax= 1.78D-04  0.00D+00 EMaxC= 1.00D-01 BMatC= 1.10D-05 BMatP= 1.51D-04
 IDIUse=3 WtCom= 9.98D-01 WtEn= 1.78D-03
 Coeff-Com: -0.895D-03 0.766D-04 0.176D-01 0.488D-01 0.262D+00 0.673D+00
 Coeff-En:   0.000D+00 0.000D+00 0.000D+00 0.000D+00 0.000D+00 0.100D+01
 Coeff:     -0.893D-03 0.765D-04 0.176D-01 0.487D-01 0.261D+00 0.673D+00
 Gap=     0.277 Goal=   None    Shift=    0.000
 RMSDP=1.46D-05 MaxDP=2.25D-03 DE=-1.02D-04 OVMax= 5.25D-04

 Cycle   7  Pass 1  IDiag  1:
 RMSU=  1.24D-05    CP:  9.61D-01  9.26D-01  9.95D-01  7.20D-01  8.92D-01
                    CP:  7.77D-01
 E= -1125.08117498669     Delta-E=       -0.000009792939 Rises=F Damp=F
 DIIS: error= 2.71D-05 at cycle   7 NSaved=   7.
 NSaved= 7 IEnMin= 7 EnMin= -1125.08117498669     IErMin= 7 ErrMin= 2.71D-05
 ErrMax= 2.71D-05  0.00D+00 EMaxC= 1.00D-01 BMatC= 6.03D-07 BMatP= 1.10D-05
 IDIUse=1 WtCom= 1.00D+00 WtEn= 0.00D+00
 Coeff-Com:  0.406D-03-0.131D-02-0.582D-02-0.682D-02 0.210D-01 0.182D+00
 Coeff-Com:  0.810D+00
 Coeff:      0.406D-03-0.131D-02-0.582D-02-0.682D-02 0.210D-01 0.182D+00
 Coeff:      0.810D+00
 Gap=     0.278 Goal=   None    Shift=    0.000
 RMSDP=4.98D-06 MaxDP=9.10D-04 DE=-9.79D-06 OVMax= 2.05D-04

 Cycle   8  Pass 1  IDiag  1:
 RMSU=  2.47D-06    CP:  9.61D-01  9.25D-01  9.95D-01  7.22D-01  9.12D-01
                    CP:  8.34D-01  9.72D-01
 E= -1125.08117548144     Delta-E=       -0.000000494759 Rises=F Damp=F
 DIIS: error= 1.62D-05 at cycle   8 NSaved=   8.
 NSaved= 8 IEnMin= 8 EnMin= -1125.08117548144     IErMin= 8 ErrMin= 1.62D-05
 ErrMax= 1.62D-05  0.00D+00 EMaxC= 1.00D-01 BMatC= 1.96D-07 BMatP= 6.03D-07
 IDIUse=1 WtCom= 1.00D+00 WtEn= 0.00D+00
 Coeff-Com:  0.319D-03-0.599D-03-0.521D-02-0.987D-02-0.228D-01 0.731D-02
 Coeff-Com:  0.404D+00 0.627D+00
 Coeff:      0.319D-03-0.599D-03-0.521D-02-0.987D-02-0.228D-01 0.731D-02
 Coeff:      0.404D+00 0.627D+00
 Gap=     0.278 Goal=   None    Shift=    0.000
 RMSDP=1.24D-06 MaxDP=9.30D-05 DE=-4.95D-07 OVMax= 7.49D-05

 Cycle   9  Pass 1  IDiag  1:
 RMSU=  9.65D-07    CP:  9.61D-01  9.25D-01  9.95D-01  7.22D-01  9.14D-01
                    CP:  8.43D-01  1.01D+00  1.05D+00
 E= -1125.08117563057     Delta-E=       -0.000000149124 Rises=F Damp=F
 DIIS: error= 3.35D-06 at cycle   9 NSaved=   9.
 NSaved= 9 IEnMin= 9 EnMin= -1125.08117563057     IErMin= 9 ErrMin= 3.35D-06
 ErrMax= 3.35D-06  0.00D+00 EMaxC= 1.00D-01 BMatC= 8.72D-09 BMatP= 1.96D-07
 IDIUse=1 WtCom= 1.00D+00 WtEn= 0.00D+00
 Coeff-Com:  0.665D-04-0.984D-04-0.123D-02-0.262D-02-0.865D-02-0.863D-02
 Coeff-Com:  0.694D-01 0.204D+00 0.747D+00
 Coeff:      0.665D-04-0.984D-04-0.123D-02-0.262D-02-0.865D-02-0.863D-02
 Coeff:      0.694D-01 0.204D+00 0.747D+00
 Gap=     0.278 Goal=   None    Shift=    0.000
 RMSDP=3.58D-07 MaxDP=1.92D-05 DE=-1.49D-07 OVMax= 3.81D-05

 Cycle  10  Pass 1  IDiag  1:
 RMSU=  2.92D-07    CP:  9.61D-01  9.24D-01  9.95D-01  7.22D-01  9.14D-01
                    CP:  8.44D-01  1.01D+00  1.13D+00  1.02D+00
 E= -1125.08117563695     Delta-E=       -0.000000006381 Rises=F Damp=F
 DIIS: error= 2.00D-06 at cycle  10 NSaved=  10.
 NSaved=10 IEnMin=10 EnMin= -1125.08117563695     IErMin=10 ErrMin= 2.00D-06
 ErrMax= 2.00D-06  0.00D+00 EMaxC= 1.00D-01 BMatC= 2.71D-09 BMatP= 8.72D-09
 IDIUse=1 WtCom= 1.00D+00 WtEn= 0.00D+00
 Coeff-Com: -0.115D-04 0.327D-04 0.957D-04 0.112D-04-0.157D-02-0.586D-02
 Coeff-Com: -0.228D-01 0.126D-01 0.385D+00 0.632D+00
 Coeff:     -0.115D-04 0.327D-04 0.957D-04 0.112D-04-0.157D-02-0.586D-02
 Coeff:     -0.228D-01 0.126D-01 0.385D+00 0.632D+00
 Gap=     0.278 Goal=   None    Shift=    0.000
 RMSDP=1.95D-07 MaxDP=1.76D-05 DE=-6.38D-09 OVMax= 1.58D-05

 Cycle  11  Pass 1  IDiag  1:
 RMSU=  1.17D-07    CP:  9.61D-01  9.24D-01  9.95D-01  7.22D-01  9.14D-01
                    CP:  8.45D-01  1.01D+00  1.16D+00  1.15D+00  9.27D-01
 E= -1125.08117563898     Delta-E=       -0.000000002030 Rises=F Damp=F
 DIIS: error= 6.97D-07 at cycle  11 NSaved=  11.
 NSaved=11 IEnMin=11 EnMin= -1125.08117563898     IErMin=11 ErrMin= 6.97D-07
 ErrMax= 6.97D-07  0.00D+00 EMaxC= 1.00D-01 BMatC= 3.73D-10 BMatP= 2.71D-09
 IDIUse=1 WtCom= 1.00D+00 WtEn= 0.00D+00
 Coeff-Com: -0.145D-04 0.301D-04 0.217D-03 0.356D-03 0.400D-03-0.151D-02
 Coeff-Com: -0.208D-01-0.247D-01 0.864D-01 0.325D+00 0.635D+00
 Coeff:     -0.145D-04 0.301D-04 0.217D-03 0.356D-03 0.400D-03-0.151D-02
 Coeff:     -0.208D-01-0.247D-01 0.864D-01 0.325D+00 0.635D+00
 Gap=     0.278 Goal=   None    Shift=    0.000
 RMSDP=6.50D-08 MaxDP=5.34D-06 DE=-2.03D-09 OVMax= 6.73D-06

 Cycle  12  Pass 1  IDiag  1:
 RMSU=  4.36D-08    CP:  9.61D-01  9.24D-01  9.95D-01  7.22D-01  9.14D-01
                    CP:  8.45D-01  1.01D+00  1.17D+00  1.17D+00  9.74D-01
                    CP:  9.05D-01
 E= -1125.08117563924     Delta-E=       -0.000000000261 Rises=F Damp=F
 DIIS: error= 1.17D-07 at cycle  12 NSaved=  12.
 NSaved=12 IEnMin=12 EnMin= -1125.08117563924     IErMin=12 ErrMin= 1.17D-07
 ErrMax= 1.17D-07  0.00D+00 EMaxC= 1.00D-01 BMatC= 1.84D-11 BMatP= 3.73D-10
 IDIUse=1 WtCom= 1.00D+00 WtEn= 0.00D+00
 Coeff-Com: -0.355D-05 0.694D-05 0.663D-04 0.118D-03 0.285D-03 0.448D-04
 Coeff-Com: -0.477D-02-0.103D-01-0.666D-02 0.478D-01 0.219D+00 0.755D+00
 Coeff:     -0.355D-05 0.694D-05 0.663D-04 0.118D-03 0.285D-03 0.448D-04
 Coeff:     -0.477D-02-0.103D-01-0.666D-02 0.478D-01 0.219D+00 0.755D+00
 Gap=     0.278 Goal=   None    Shift=    0.000
 RMSDP=1.90D-08 MaxDP=2.27D-06 DE=-2.61D-10 OVMax= 1.24D-06

 Cycle  13  Pass 1  IDiag  1:
 RMSU=  1.17D-08    CP:  9.61D-01  9.24D-01  9.95D-01  7.22D-01  9.14D-01
                    CP:  8.45D-01  1.01D+00  1.17D+00  1.18D+00  9.92D-01
                    CP:  9.72D-01  9.52D-01
 E= -1125.08117563924     Delta-E=        0.000000000003 Rises=F Damp=F
 DIIS: error= 3.84D-08 at cycle  13 NSaved=  13.
 NSaved=13 IEnMin=12 EnMin= -1125.08117563924     IErMin=13 ErrMin= 3.84D-08
 ErrMax= 3.84D-08  0.00D+00 EMaxC= 1.00D-01 BMatC= 1.90D-12 BMatP= 1.84D-11
 IDIUse=1 WtCom= 1.00D+00 WtEn= 0.00D+00
 Coeff-Com:  0.480D-06-0.103D-05-0.560D-07 0.138D-05 0.566D-04 0.177D-03
 Coeff-Com:  0.613D-03-0.115D-02-0.115D-01-0.200D-01 0.111D-01 0.276D+00
 Coeff-Com:  0.745D+00
 Coeff:      0.480D-06-0.103D-05-0.560D-07 0.138D-05 0.566D-04 0.177D-03
 Coeff:      0.613D-03-0.115D-02-0.115D-01-0.200D-01 0.111D-01 0.276D+00
 Coeff:      0.745D+00
 Gap=     0.278 Goal=   None    Shift=    0.000
 RMSDP=6.35D-09 MaxDP=7.79D-07 DE= 3.18D-12 OVMax= 3.32D-07

 SCF Done:  E(RM062X) =  -1125.08117564     A.U. after   13 cycles
            NFock= 13  Conv=0.64D-08     -V/T= 2.0035
 KE= 1.121135048744D+03 PE=-5.299454781220D+03 EE= 1.728560503263D+03
 Leave Link  502 at Mon Feb 20 00:49:47 2023, MaxMem=  6710886400 cpu:            2299.5 elap:              96.1
 (Enter /data0/home/software/g16/l601.exe)
 Copying SCF densities to generalized density rwf, IOpCl= 0 IROHF=0.

 **********************************************************************

            Population analysis using the SCF density.

 **********************************************************************

 Alpha  occ. eigenvalues --  -78.11377 -19.63197 -19.60160 -19.59925 -19.56012
 Alpha  occ. eigenvalues --  -19.55942 -19.54693 -14.92625 -10.64841 -10.64596
 Alpha  occ. eigenvalues --  -10.62386 -10.62106 -10.61997 -10.57426 -10.54121
 Alpha  occ. eigenvalues --   -6.92103  -5.04046  -5.03969  -5.03818  -1.18019
 Alpha  occ. eigenvalues --   -1.17267  -1.15548  -1.10603  -1.08821  -1.05303
 Alpha  occ. eigenvalues --   -1.04963  -0.92456  -0.89205  -0.87952  -0.83691
 Alpha  occ. eigenvalues --   -0.76270  -0.71426  -0.66353  -0.64317  -0.64082
 Alpha  occ. eigenvalues --   -0.62784  -0.59644  -0.58724  -0.57829  -0.56273
 Alpha  occ. eigenvalues --   -0.54647  -0.53985  -0.52644  -0.51956  -0.51208
 Alpha  occ. eigenvalues --   -0.50847  -0.50488  -0.49705  -0.49532  -0.48294
 Alpha  occ. eigenvalues --   -0.47034  -0.46773  -0.45329  -0.44918  -0.43834
 Alpha  occ. eigenvalues --   -0.42067  -0.41449  -0.40865  -0.39793  -0.37962
 Alpha  occ. eigenvalues --   -0.34641  -0.32838  -0.31516  -0.31255  -0.30717
 Alpha virt. eigenvalues --   -0.02958  -0.00587  -0.00574   0.01116   0.01794
 Alpha virt. eigenvalues --    0.02279   0.02810   0.03014   0.03363   0.03526
 Alpha virt. eigenvalues --    0.05398   0.06013   0.06672   0.07135   0.07374
 Alpha virt. eigenvalues --    0.08010   0.08622   0.08873   0.09174   0.09903
 Alpha virt. eigenvalues --    0.10266   0.10715   0.11345   0.11420   0.11617
 Alpha virt. eigenvalues --    0.12416   0.12524   0.13802   0.14127   0.14411
 Alpha virt. eigenvalues --    0.14955   0.15306   0.15783   0.15923   0.16336
 Alpha virt. eigenvalues --    0.16894   0.17390   0.17967   0.18402   0.19239
 Alpha virt. eigenvalues --    0.19675   0.20391   0.20736   0.21204   0.21313
 Alpha virt. eigenvalues --    0.21882   0.22327   0.22714   0.22736   0.23518
 Alpha virt. eigenvalues --    0.23621   0.24378   0.24801   0.25183   0.26032
 Alpha virt. eigenvalues --    0.26312   0.26982   0.27269   0.27636   0.28050
 Alpha virt. eigenvalues --    0.28835   0.29004   0.29440   0.29714   0.30136
 Alpha virt. eigenvalues --    0.30349   0.31288   0.31408   0.31768   0.32381
 Alpha virt. eigenvalues --    0.32695   0.33894   0.34050   0.34496   0.34760
 Alpha virt. eigenvalues --    0.35412   0.35595   0.36430   0.36635   0.37161
 Alpha virt. eigenvalues --    0.38248   0.38324   0.39693   0.40701   0.41190
 Alpha virt. eigenvalues --    0.41411   0.43182   0.43512   0.44210   0.44682
 Alpha virt. eigenvalues --    0.45484   0.45821   0.46100   0.47574   0.48834
 Alpha virt. eigenvalues --    0.49503   0.49838   0.50342   0.51625   0.51991
 Alpha virt. eigenvalues --    0.52563   0.53060   0.53446   0.55136   0.55678
 Alpha virt. eigenvalues --    0.57010   0.57145   0.57921   0.58545   0.58995
 Alpha virt. eigenvalues --    0.60046   0.60415   0.61193   0.61486   0.61806
 Alpha virt. eigenvalues --    0.62343   0.63675   0.65624   0.66257   0.66879
 Alpha virt. eigenvalues --    0.67346   0.67765   0.67825   0.68596   0.69138
 Alpha virt. eigenvalues --    0.70200   0.71447   0.72219   0.72671   0.73447
 Alpha virt. eigenvalues --    0.74567   0.74642   0.75604   0.75928   0.76912
 Alpha virt. eigenvalues --    0.77972   0.78586   0.79405   0.81424   0.82600
 Alpha virt. eigenvalues --    0.84321   0.84941   0.85474   0.85706   0.87420
 Alpha virt. eigenvalues --    0.88398   0.88937   0.89415   0.90530   0.91956
 Alpha virt. eigenvalues --    0.93589   0.93844   0.94853   0.96117   0.99037
 Alpha virt. eigenvalues --    1.00864   1.03242   1.05519   1.09348   1.10113
 Alpha virt. eigenvalues --    1.11024   1.11724   1.11838   1.12540   1.13549
 Alpha virt. eigenvalues --    1.14835   1.15368   1.16034   1.17376   1.18031
 Alpha virt. eigenvalues --    1.18764   1.19653   1.20469   1.20717   1.22454
 Alpha virt. eigenvalues --    1.22691   1.23073   1.24846   1.25472   1.25786
 Alpha virt. eigenvalues --    1.26301   1.27032   1.27299   1.27817   1.27933
 Alpha virt. eigenvalues --    1.29951   1.30203   1.31057   1.32258   1.32880
 Alpha virt. eigenvalues --    1.34217   1.34519   1.34999   1.35546   1.37055
 Alpha virt. eigenvalues --    1.37233   1.38508   1.39054   1.39747   1.41760
 Alpha virt. eigenvalues --    1.42430   1.42952   1.44339   1.45416   1.45607
 Alpha virt. eigenvalues --    1.46528   1.48039   1.50084   1.51798   1.52111
 Alpha virt. eigenvalues --    1.52706   1.55708   1.55954   1.58794   1.59958
 Alpha virt. eigenvalues --    1.61013   1.61919   1.64665   1.65797   1.66743
 Alpha virt. eigenvalues --    1.67823   1.69714   1.70800   1.72519   1.73153
 Alpha virt. eigenvalues --    1.74208   1.75244   1.75763   1.76534   1.76879
 Alpha virt. eigenvalues --    1.77078   1.77812   1.78569   1.80026   1.81605
 Alpha virt. eigenvalues --    1.81987   1.82660   1.85015   1.86281   1.87114
 Alpha virt. eigenvalues --    1.88311   1.89922   1.90477   1.91156   1.92041
 Alpha virt. eigenvalues --    1.93172   1.94493   1.95331   1.96934   1.97851
 Alpha virt. eigenvalues --    2.00001   2.01126   2.02632   2.05477   2.06675
 Alpha virt. eigenvalues --    2.07871   2.10162   2.10864   2.15113   2.15277
 Alpha virt. eigenvalues --    2.16649   2.18073   2.18409   2.19243   2.19489
 Alpha virt. eigenvalues --    2.21623   2.22008   2.22636   2.23146   2.25002
 Alpha virt. eigenvalues --    2.26247   2.27901   2.29503   2.30345   2.30472
 Alpha virt. eigenvalues --    2.32392   2.32697   2.33357   2.34001   2.35018
 Alpha virt. eigenvalues --    2.35838   2.36865   2.37611   2.38410   2.39014
 Alpha virt. eigenvalues --    2.41097   2.41328   2.42000   2.42907   2.45385
 Alpha virt. eigenvalues --    2.46456   2.48915   2.50077   2.51430   2.56112
 Alpha virt. eigenvalues --    2.57173   2.59831   2.60995   2.65456   2.66255
 Alpha virt. eigenvalues --    2.66639   2.67861   2.69572   2.70115   2.70458
 Alpha virt. eigenvalues --    2.76469   2.77372   2.79095   2.80462   2.81539
 Alpha virt. eigenvalues --    2.83705   2.85197   2.86522   2.87492   2.89488
 Alpha virt. eigenvalues --    2.91197   2.95135   2.95967   2.99380   3.00744
 Alpha virt. eigenvalues --    3.02606   3.04434   3.06009   3.08534   3.09588
 Alpha virt. eigenvalues --    3.11866   3.14426   3.17055   3.17857   3.19755
 Alpha virt. eigenvalues --    3.22211   3.24329   3.28509   3.30004   3.32221
 Alpha virt. eigenvalues --    3.34394   3.35628   3.35890   3.37048   3.38303
 Alpha virt. eigenvalues --    3.40298   3.44117   3.48957   3.49542   3.50971
 Alpha virt. eigenvalues --    3.51483   3.53112   3.56312   3.58193   3.58622
 Alpha virt. eigenvalues --    3.60484   3.61689   3.62430   3.64716   3.64976
 Alpha virt. eigenvalues --    3.66278   3.69423   3.69941   3.72388   3.72555
 Alpha virt. eigenvalues --    3.74798   3.79958   3.80474   3.81361   3.83446
 Alpha virt. eigenvalues --    3.89693   3.95224   4.00992   4.04775   4.11236
 Alpha virt. eigenvalues --    4.11737   4.12963   4.14393   4.15939   4.17618
 Alpha virt. eigenvalues --    4.18698   4.22892   4.28425   4.35967   4.43368
 Alpha virt. eigenvalues --    4.49895   4.77615   4.77879   4.80162   5.11792
 Alpha virt. eigenvalues --    5.12620   5.16075   5.17707   5.22109   5.23019
 Alpha virt. eigenvalues --    5.23376   5.24554   5.30062   5.31097   5.32667
 Alpha virt. eigenvalues --    5.36418   5.42118   5.44152   5.44324   5.46544
 Alpha virt. eigenvalues --    5.48678   5.50473   5.57610   5.63731   5.66715
 Alpha virt. eigenvalues --    5.97415   6.24755   6.79275   6.80796   6.82215
 Alpha virt. eigenvalues --    6.83216   6.86572   6.86994   6.87579   6.88925
 Alpha virt. eigenvalues --    6.91612   6.94251   6.97365   6.98004   7.01889
 Alpha virt. eigenvalues --    7.02436   7.05372   7.07240   7.07888   7.09241
 Alpha virt. eigenvalues --    7.09461   7.17148   7.20889   7.22960   7.30619
 Alpha virt. eigenvalues --    7.32712   7.33432   7.34995   7.39521   7.40922
 Alpha virt. eigenvalues --    7.44465   7.47816   7.74439  14.30178  14.34114
 Alpha virt. eigenvalues --   14.42714  23.91933  23.97828  24.03820  24.05190
 Alpha virt. eigenvalues --   24.08407  24.09302  24.25183  35.50608  50.06498
 Alpha virt. eigenvalues --   50.10920  50.12897  50.16493  50.20126  50.22026
 Alpha virt. eigenvalues --  163.99385
          Condensed to atoms (all electrons):
               1          2          3          4          5          6
     1  C    5.725109   0.406230   0.376915   0.414387  -0.088253   0.028115
     2  H    0.406230   0.405707  -0.017386  -0.007589   0.022026  -0.000212
     3  H    0.376915  -0.017386   0.466324  -0.018916  -0.018704   0.000006
     4  H    0.414387  -0.007589  -0.018916   0.401232  -0.015216  -0.000023
     5  C   -0.088253   0.022026  -0.018704  -0.015216   5.622630   0.421059
     6  H    0.028115  -0.000212   0.000006  -0.000023   0.421059   0.448461
     7  H   -0.018659   0.000282   0.000394   0.002081   0.420053  -0.018920
     8  H   -0.024665   0.000058  -0.001744  -0.000028   0.374078  -0.019884
     9  C   -0.149551  -0.008385  -0.036044   0.024924  -0.170982  -0.018568
    10  H    0.020756   0.000094   0.000180  -0.000226  -0.000390   0.001139
    11  H   -0.019608  -0.000077  -0.001076   0.000436  -0.026693   0.000492
    12  H   -0.015525   0.001015  -0.000093   0.000240   0.014030   0.000181
    13  C   -0.743687  -0.018218   0.074739  -0.036840  -0.633801  -0.084708
    14  H   -0.028075   0.000083   0.000041  -0.001192  -0.022203  -0.002223
    15  H   -0.017068   0.004094   0.001384   0.000800   0.000648  -0.000180
    16  C    0.136900  -0.012357  -0.002225   0.009269   0.071618   0.022708
    17  H   -0.011030  -0.000026  -0.000020   0.000023  -0.007172  -0.000170
    18  H    0.009014   0.000072   0.000031   0.000007   0.004734  -0.001542
    19  C   -0.057296   0.000206   0.002561  -0.003623  -0.038356   0.003088
    20  H    0.000682   0.000002  -0.000001   0.000001   0.001073   0.000022
    21  H   -0.000204  -0.000003  -0.000001   0.000004  -0.000093  -0.000051
    22  N    0.507747  -0.017439  -0.031515  -0.012378   0.432435   0.012390
    23  C   -0.011724  -0.001087  -0.000353   0.000947  -0.020575  -0.001382
    24  O    0.003481  -0.000570  -0.000039  -0.000153  -0.001190  -0.000055
    25  O   -0.000757   0.000059   0.000010   0.000087   0.001244   0.000023
    26  P   -0.008557   0.004842   0.000537  -0.003885  -0.000769  -0.000148
    27  O   -0.047566  -0.001258   0.003548  -0.003920  -0.007700   0.000052
    28  O   -0.000965  -0.000225   0.000000   0.000152   0.000201  -0.000000
    29  H    0.000362  -0.000002  -0.000000  -0.000017   0.000012  -0.000000
    30  O   -0.000787   0.000169   0.000001  -0.000077  -0.000072  -0.000001
    31  H   -0.000090   0.000024  -0.000000   0.000018   0.000045   0.000000
    32  O   -0.000218  -0.000957  -0.000012  -0.000279  -0.001036   0.000001
    33  H   -0.002363  -0.000005   0.000009   0.000005  -0.000525   0.000001
               7          8          9         10         11         12
     1  C   -0.018659  -0.024665  -0.149551   0.020756  -0.019608  -0.015525
     2  H    0.000282   0.000058  -0.008385   0.000094  -0.000077   0.001015
     3  H    0.000394  -0.001744  -0.036044   0.000180  -0.001076  -0.000093
     4  H    0.002081  -0.000028   0.024924  -0.000226   0.000436   0.000240
     5  C    0.420053   0.374078  -0.170982  -0.000390  -0.026693   0.014030
     6  H   -0.018920  -0.019884  -0.018568   0.001139   0.000492   0.000181
     7  H    0.438215  -0.017683   0.019357   0.000148   0.000170  -0.000260
     8  H   -0.017683   0.455316  -0.012871  -0.000027  -0.000185   0.000009
     9  C    0.019357  -0.012871   5.681529   0.392425   0.396516   0.423405
    10  H    0.000148  -0.000027   0.392425   0.450486  -0.021184  -0.018735
    11  H    0.000170  -0.000185   0.396516  -0.021184   0.455037  -0.014801
    12  H   -0.000260   0.000009   0.423405  -0.018735  -0.014801   0.415287
    13  C   -0.033144   0.093401  -0.315675  -0.043514   0.049142   0.012373
    14  H    0.000820   0.000519   0.009647  -0.000007   0.000021  -0.000100
    15  H    0.000145  -0.000212  -0.013702  -0.000262   0.000267   0.000887
    16  C    0.009246  -0.013865   0.019965   0.004269   0.008104  -0.020451
    17  H    0.000022   0.000025   0.004405  -0.003190   0.000690  -0.000301
    18  H   -0.000099  -0.000057  -0.014906  -0.003274  -0.000298   0.000128
    19  C    0.002087  -0.000002  -0.101945   0.006343   0.002735  -0.007101
    20  H   -0.000001   0.000000   0.002084   0.000031  -0.000000   0.000030
    21  H    0.000021  -0.000002  -0.000619  -0.000012   0.000003  -0.000000
    22  N   -0.023991  -0.037901   0.256691   0.001985  -0.036490  -0.030275
    23  C   -0.001318   0.000605   0.006614  -0.001345  -0.000086  -0.001002
    24  O   -0.000002   0.000001   0.003855   0.000172  -0.000049  -0.000344
    25  O    0.000072   0.000007  -0.000283  -0.000001   0.000003  -0.000007
    26  P   -0.000161   0.000100  -0.000209  -0.000085   0.000077  -0.000154
    27  O   -0.000472   0.000004  -0.013842   0.000056  -0.000022   0.000153
    28  O   -0.000001  -0.000000  -0.000009   0.000000   0.000000   0.000004
    29  H    0.000000   0.000000  -0.000009  -0.000000  -0.000000  -0.000000
    30  O    0.000007   0.000000  -0.000255   0.000001  -0.000000  -0.000007
    31  H   -0.000004  -0.000000   0.000064  -0.000000   0.000000   0.000001
    32  O    0.000001  -0.000001   0.000267   0.000012  -0.000008  -0.000129
    33  H   -0.000001   0.000000  -0.000379  -0.000005   0.000003   0.000045
              13         14         15         16         17         18
     1  C   -0.743687  -0.028075  -0.017068   0.136900  -0.011030   0.009014
     2  H   -0.018218   0.000083   0.004094  -0.012357  -0.000026   0.000072
     3  H    0.074739   0.000041   0.001384  -0.002225  -0.000020   0.000031
     4  H   -0.036840  -0.001192   0.000800   0.009269   0.000023   0.000007
     5  C   -0.633801  -0.022203   0.000648   0.071618  -0.007172   0.004734
     6  H   -0.084708  -0.002223  -0.000180   0.022708  -0.000170  -0.001542
     7  H   -0.033144   0.000820   0.000145   0.009246   0.000022  -0.000099
     8  H    0.093401   0.000519  -0.000212  -0.013865   0.000025  -0.000057
     9  C   -0.315675   0.009647  -0.013702   0.019965   0.004405  -0.014906
    10  H   -0.043514  -0.000007  -0.000262   0.004269  -0.003190  -0.003274
    11  H    0.049142   0.000021   0.000267   0.008104   0.000690  -0.000298
    12  H    0.012373  -0.000100   0.000887  -0.020451  -0.000301   0.000128
    13  C    9.242034   0.521638   0.405312  -1.346819   0.021036  -0.144199
    14  H    0.521638   0.423993  -0.019066  -0.104144   0.005100  -0.005361
    15  H    0.405312  -0.019066   0.453539  -0.022217  -0.003777   0.002647
    16  C   -1.346819  -0.104144  -0.022217   6.935997   0.391981   0.460381
    17  H    0.021036   0.005100  -0.003777   0.391981   0.507903  -0.040586
    18  H   -0.144199  -0.005361   0.002647   0.460381  -0.040586   0.535170
    19  C    0.516173   0.009582   0.016335  -0.790573  -0.003046  -0.047344
    20  H    0.037816  -0.000302  -0.000267  -0.030048  -0.008506  -0.001571
    21  H   -0.012882   0.001677  -0.000183  -0.018270   0.005319  -0.009418
    22  N   -1.013511  -0.046815  -0.056129   0.274613  -0.052079   0.076927
    23  C   -0.316624   0.014499   0.012229   0.147287   0.012795   0.019861
    24  O    0.009000   0.000763   0.002974   0.060265  -0.006160   0.000584
    25  O    0.036846  -0.000387  -0.011708  -0.003377   0.000527  -0.001659
    26  P    0.013792   0.002253   0.001209  -0.022422   0.001666  -0.000347
    27  O    0.030914  -0.001554   0.023558   0.034530  -0.000051  -0.000071
    28  O   -0.000159  -0.000039  -0.000460   0.001283   0.000003  -0.000000
    29  H   -0.000171   0.000001  -0.000099  -0.000447  -0.000000   0.000000
    30  O    0.013498   0.000416  -0.001412  -0.017282   0.000023  -0.000008
    31  H   -0.018853  -0.000015   0.000923   0.004527  -0.000055   0.000010
    32  O    0.007958  -0.000024   0.011517  -0.012298  -0.000175   0.000004
    33  H   -0.006877  -0.000047   0.000030  -0.000089   0.000187  -0.000012
              19         20         21         22         23         24
     1  C   -0.057296   0.000682  -0.000204   0.507747  -0.011724   0.003481
     2  H    0.000206   0.000002  -0.000003  -0.017439  -0.001087  -0.000570
     3  H    0.002561  -0.000001  -0.000001  -0.031515  -0.000353  -0.000039
     4  H   -0.003623   0.000001   0.000004  -0.012378   0.000947  -0.000153
     5  C   -0.038356   0.001073  -0.000093   0.432435  -0.020575  -0.001190
     6  H    0.003088   0.000022  -0.000051   0.012390  -0.001382  -0.000055
     7  H    0.002087  -0.000001   0.000021  -0.023991  -0.001318  -0.000002
     8  H   -0.000002   0.000000  -0.000002  -0.037901   0.000605   0.000001
     9  C   -0.101945   0.002084  -0.000619   0.256691   0.006614   0.003855
    10  H    0.006343   0.000031  -0.000012   0.001985  -0.001345   0.000172
    11  H    0.002735  -0.000000   0.000003  -0.036490  -0.000086  -0.000049
    12  H   -0.007101   0.000030  -0.000000  -0.030275  -0.001002  -0.000344
    13  C    0.516173   0.037816  -0.012882  -1.013511  -0.316624   0.009000
    14  H    0.009582  -0.000302   0.001677  -0.046815   0.014499   0.000763
    15  H    0.016335  -0.000267  -0.000183  -0.056129   0.012229   0.002974
    16  C   -0.790573  -0.030048  -0.018270   0.274613   0.147287   0.060265
    17  H   -0.003046  -0.008506   0.005319  -0.052079   0.012795  -0.006160
    18  H   -0.047344  -0.001571  -0.009418   0.076927   0.019861   0.000584
    19  C    6.775485   0.426895   0.453333  -0.177904  -0.201671  -0.213189
    20  H    0.426895   0.510327  -0.031793   0.001894  -0.094521  -0.002836
    21  H    0.453333  -0.031793   0.497649  -0.001725  -0.066166   0.005701
    22  N   -0.177904   0.001894  -0.001725   7.152179   0.009165  -0.001303
    23  C   -0.201671  -0.094521  -0.066166   0.009165   5.399144   0.431432
    24  O   -0.213189  -0.002836   0.005701  -0.001303   0.431432   8.308643
    25  O   -0.114093   0.006619  -0.010839  -0.000581   0.424175  -0.087699
    26  P   -0.007879  -0.000211   0.000385  -0.001907   0.040956   0.003184
    27  O    0.003948  -0.000036   0.000018  -0.037006  -0.003883  -0.016658
    28  O   -0.001897   0.000002   0.000003   0.000407  -0.000327   0.001098
    29  H   -0.000013  -0.000000  -0.000000   0.000047  -0.001193   0.000435
    30  O    0.016750  -0.000010   0.000107  -0.002289  -0.011313  -0.014861
    31  H   -0.008456  -0.000034  -0.000343   0.000501   0.024141   0.012811
    32  O   -0.001310   0.000030  -0.000036  -0.005261   0.003515  -0.015547
    33  H    0.002754  -0.000091   0.000053  -0.002089   0.014103   0.058730
              25         26         27         28         29         30
     1  C   -0.000757  -0.008557  -0.047566  -0.000965   0.000362  -0.000787
     2  H    0.000059   0.004842  -0.001258  -0.000225  -0.000002   0.000169
     3  H    0.000010   0.000537   0.003548   0.000000  -0.000000   0.000001
     4  H    0.000087  -0.003885  -0.003920   0.000152  -0.000017  -0.000077
     5  C    0.001244  -0.000769  -0.007700   0.000201   0.000012  -0.000072
     6  H    0.000023  -0.000148   0.000052  -0.000000  -0.000000  -0.000001
     7  H    0.000072  -0.000161  -0.000472  -0.000001   0.000000   0.000007
     8  H    0.000007   0.000100   0.000004  -0.000000   0.000000   0.000000
     9  C   -0.000283  -0.000209  -0.013842  -0.000009  -0.000009  -0.000255
    10  H   -0.000001  -0.000085   0.000056   0.000000  -0.000000   0.000001
    11  H    0.000003   0.000077  -0.000022   0.000000  -0.000000  -0.000000
    12  H   -0.000007  -0.000154   0.000153   0.000004  -0.000000  -0.000007
    13  C    0.036846   0.013792   0.030914  -0.000159  -0.000171   0.013498
    14  H   -0.000387   0.002253  -0.001554  -0.000039   0.000001   0.000416
    15  H   -0.011708   0.001209   0.023558  -0.000460  -0.000099  -0.001412
    16  C   -0.003377  -0.022422   0.034530   0.001283  -0.000447  -0.017282
    17  H    0.000527   0.001666  -0.000051   0.000003  -0.000000   0.000023
    18  H   -0.001659  -0.000347  -0.000071  -0.000000   0.000000  -0.000008
    19  C   -0.114093  -0.007879   0.003948  -0.001897  -0.000013   0.016750
    20  H    0.006619  -0.000211  -0.000036   0.000002  -0.000000  -0.000010
    21  H   -0.010839   0.000385   0.000018   0.000003  -0.000000   0.000107
    22  N   -0.000581  -0.001907  -0.037006   0.000407   0.000047  -0.002289
    23  C    0.424175   0.040956  -0.003883  -0.000327  -0.001193  -0.011313
    24  O   -0.087699   0.003184  -0.016658   0.001098   0.000435  -0.014861
    25  O    8.218083   0.040753  -0.002707   0.003386   0.000141  -0.052346
    26  P    0.040753  12.440919   0.457161   0.191513   0.013989   0.279102
    27  O   -0.002707   0.457161   8.343961  -0.015768  -0.009159  -0.000968
    28  O    0.003386   0.191513  -0.015768   8.080164   0.234952  -0.013764
    29  H    0.000141   0.013989  -0.009159   0.234952   0.463674  -0.005354
    30  O   -0.052346   0.279102  -0.000968  -0.013764  -0.005354   8.199110
    31  H    0.083335   0.020087   0.000252   0.000310   0.000313   0.218455
    32  O   -0.022426   0.288012  -0.036079   0.008335  -0.006545   0.007065
    33  H    0.007548   0.030581   0.000322  -0.000760   0.000054  -0.010126
              31         32         33
     1  C   -0.000090  -0.000218  -0.002363
     2  H    0.000024  -0.000957  -0.000005
     3  H   -0.000000  -0.000012   0.000009
     4  H    0.000018  -0.000279   0.000005
     5  C    0.000045  -0.001036  -0.000525
     6  H    0.000000   0.000001   0.000001
     7  H   -0.000004   0.000001  -0.000001
     8  H   -0.000000  -0.000001   0.000000
     9  C    0.000064   0.000267  -0.000379
    10  H   -0.000000   0.000012  -0.000005
    11  H    0.000000  -0.000008   0.000003
    12  H    0.000001  -0.000129   0.000045
    13  C   -0.018853   0.007958  -0.006877
    14  H   -0.000015  -0.000024  -0.000047
    15  H    0.000923   0.011517   0.000030
    16  C    0.004527  -0.012298  -0.000089
    17  H   -0.000055  -0.000175   0.000187
    18  H    0.000010   0.000004  -0.000012
    19  C   -0.008456  -0.001310   0.002754
    20  H   -0.000034   0.000030  -0.000091
    21  H   -0.000343  -0.000036   0.000053
    22  N    0.000501  -0.005261  -0.002089
    23  C    0.024141   0.003515   0.014103
    24  O    0.012811  -0.015547   0.058730
    25  O    0.083335  -0.022426   0.007548
    26  P    0.020087   0.288012   0.030581
    27  O    0.000252  -0.036079   0.000322
    28  O    0.000310   0.008335  -0.000760
    29  H    0.000313  -0.006545   0.000054
    30  O    0.218455   0.007065  -0.010126
    31  H    0.242191  -0.008123   0.005563
    32  O   -0.008123   8.182555   0.227844
    33  H    0.005563   0.227844   0.286977
 Mulliken charges:
               1
     1  C   -0.383049
     2  H    0.240836
     3  H    0.201449
     4  H    0.249750
     5  C   -0.332156
     6  H    0.210331
     7  H    0.221594
     8  H    0.205004
     9  C   -0.383516
    10  H    0.214164
    11  H    0.206881
    12  H    0.241500
    13  C   -0.315992
    14  H    0.240500
    15  H    0.208246
    16  C   -0.176057
    17  H    0.184638
    18  H    0.161181
    19  C   -0.462575
    20  H    0.182721
    21  H    0.188366
    22  N   -0.138393
    23  C    0.173103
    24  O   -0.542471
    25  O   -0.514046
    26  P    1.215617
    27  O   -0.699755
    28  O   -0.487439
    29  H    0.309029
    30  O   -0.603773
    31  H    0.422404
    32  O   -0.626650
    33  H    0.388560
 Sum of Mulliken charges =  -0.00000
 Mulliken charges with hydrogens summed into heavy atoms:
               1
     1  C    0.308985
     5  C    0.304773
     9  C    0.279029
    13  C    0.132754
    16  C    0.169762
    19  C   -0.091488
    22  N   -0.138393
    23  C    0.173103
    24  O   -0.542471
    25  O   -0.514046
    26  P    1.215617
    27  O   -0.699755
    28  O   -0.178410
    30  O   -0.181370
    32  O   -0.238090
         Mulliken charges condensed to fragments:
      1      0.082008
      2     -0.082008
 Electronic spatial extent (au):  <R**2>=         150040.1801
 Charge=             -0.0000 electrons
 Dipole moment (field-independent basis, Debye):
    X=             -4.4627    Y=              7.0236    Z=             11.5702  Tot=             14.2519
 Quadrupole moment (field-independent basis, Debye-Ang):
   XX=           -194.3446   YY=             45.9784   ZZ=            132.4465
   XY=             26.9174   XZ=             71.9660   YZ=            198.2914
 Traceless Quadrupole moment (field-independent basis, Debye-Ang):
   XX=           -189.0381   YY=             51.2850   ZZ=            137.7531
   XY=             26.9174   XZ=             71.9660   YZ=            198.2914
 Octapole moment (field-independent basis, Debye-Ang**2):
  XXX=          -4792.1409  YYY=           -817.0494  ZZZ=            794.6967  XYY=            -62.3640
  XXY=          -1252.5241  XXZ=           -709.8632  XZZ=            820.3298  YZZ=           2234.6422
  YYZ=           1975.0680  XYZ=           1585.2793
 Hexadecapole moment (field-independent basis, Debye-Ang**3):
 XXXX=         -95324.1621 YYYY=         -33530.2366 ZZZZ=          -3887.4546 XXXY=         -41312.5900
 XXXZ=         -34017.7528 YYYX=         -14912.0835 YYYZ=          10202.5543 ZZZX=           1855.1312
 ZZZY=          17303.8659 XXYY=         -17747.3339 XXZZ=          -6836.0489 YYZZ=          23570.3298
 XXYZ=           1565.5718 YYXZ=          15311.9013 ZZXY=          18011.5876
 N-N= 1.324678053574D+03 E-N=-5.299454772551D+03  KE= 1.121135048744D+03
 No NMR shielding tensors so no spin-rotation constants.
 Leave Link  601 at Mon Feb 20 00:49:47 2023, MaxMem=  6710886400 cpu:               3.7 elap:               0.2
 (Enter /data0/home/software/g16/l122.exe)
 CPIOFr:  IOpCl= 0 IRwI=-1 IRwCP=  731 ICalc= -1 LCPTot=      418338 Len1MO=     1096859 IndFrg=      418338
 CPIOFr:  IOpCl= 0 IRwI=-1 IRwCP=  731 ICalc=  0 LCPTot=      418338 Len1MO=     1096859 IndFrg=     1515197
 Counterpoise: doing calculation for fragment   1 using the basis set of the full-system, NewBq=T
 Leave Link  122 at Mon Feb 20 00:49:47 2023, MaxMem=  6710886400 cpu:               0.4 elap:               0.0
 (Enter /data0/home/software/g16/l301.exe)
 Basis read from rwf:  (5D, 7F)
 No pseudopotential information found on rwf file.
   521 basis functions,   788 primitive gaussians,   551 cartesian basis functions
    40 alpha electrons       40 beta electrons
       nuclear repulsion energy       578.7721082847 Hartrees.
 IExCor= 4336 DFT=T Ex+Corr=M062X ExCW=0 ScaHFX=  0.540000
 ScaDFX=  1.000000  1.000000  1.000000  1.000000 ScalE2=  1.000000  1.000000
 IRadAn=      5 IRanWt=     -1 IRanGd=            0 ICorTp=0 IEmpDi=131
 NAtoms=   33 NActive=   33 NUniq=   33 SFac= 1.00D+00 NAtFMM=   60 NAOKFM=F Big=F
 Integral buffers will be    131072 words long.
 Raffenetti 2 integral format.
 Two-electron integral symmetry is turned off.
 R6Disp:  Grimme-D3 Dispersion energy=       -0.0010227323 Hartrees.
 Nuclear repulsion after empirical dispersion term =      578.7710855524 Hartrees.
 No density basis found on file   718.
 Leave Link  301 at Mon Feb 20 00:49:47 2023, MaxMem=  6710886400 cpu:               1.3 elap:               0.1
 (Enter /data0/home/software/g16/l302.exe)
 NPDir=0 NMtPBC=     1 NCelOv=     1 NCel=       1 NClECP=     1 NCelD=      1
         NCelK=      1 NCelE2=     1 NClLst=     1 CellRange=     0.0.
 One-electron integrals computed using PRISM.
 NBasis=   521 RedAO= T EigKep=  1.14D-05  NBF=   521
 NBsUse=   521 1.00D-06 EigRej= -1.00D+00 NBFU=   521
 Precomputing XC quadrature grid using
 IXCGrd= 4 IRadAn=           5 IRanWt=          -1 IRanGd=           0 AccXCQ= 0.00D+00.
 Generated NRdTot=       0 NPtTot=           0 NUsed=           0 NTot=          32
 NSgBfM=   551   551   551   551   551 MxSgAt=    33 MxSgA2=    33.
 Leave Link  302 at Mon Feb 20 00:49:47 2023, MaxMem=  6710886400 cpu:              12.5 elap:               0.5
 (Enter /data0/home/software/g16/l303.exe)
 DipDrv:  MaxL=1.
 Leave Link  303 at Mon Feb 20 00:49:48 2023, MaxMem=  6710886400 cpu:               1.3 elap:               0.1
 (Enter /data0/home/software/g16/l401.exe)
 ExpMin= 3.48D-02 ExpMax= 7.75D+04 ExpMxC= 2.65D+03 IAcc=3 IRadAn=         5 AccDes= 0.00D+00
 Harris functional with IExCor= 1009 and IRadAn=       5 diagonalized for initial guess.
 HarFok:  IExCor= 1009 AccDes= 0.00D+00 IRadAn=         5 IDoV= 1 UseB2=F ITyADJ=14
 ICtDFT=  3500011 ScaDFX=  1.000000  1.000000  1.000000  1.000000
 FoFCou: FMM=F IPFlag=           0 FMFlag=      100000 FMFlg1=           0
         NFxFlg=           0 DoJE=T BraDBF=F KetDBF=T FulRan=T
         wScrn=  0.000000 ICntrl=       500 IOpCl=  0 I1Cent=   200000004 NGrid=           0
         NMat0=    1 NMatS0=      1 NMatT0=    0 NMatD0=    1 NMtDS0=    0 NMtDT0=    0
 Symmetry not used in FoFCou.
 Harris En= -480.727006115417    
 JPrj=0 DoOrth=F DoCkMO=F.
 Leave Link  401 at Mon Feb 20 00:49:50 2023, MaxMem=  6710886400 cpu:              48.6 elap:               2.1
 (Enter /data0/home/software/g16/l502.exe)
 Two-electron integral symmetry not used.
 Closed shell SCF:
 Using DIIS extrapolation, IDIIS=  1040.
 NGot=  6710886400 LenX=  6710262024 LenY=  6709957872
 Requested convergence on RMS density matrix=1.00D-08 within 128 cycles.
 Requested convergence on MAX density matrix=1.00D-06.
 Requested convergence on             energy=1.00D-06.
 No special actions if energy rises.
 Fock matrices will be formed incrementally for  20 cycles.

 Cycle   1  Pass 1  IDiag  1:
 FoFJK:  IHMeth= 1 ICntrl=       0 DoSepK=F KAlg= 0 I1Cent=           0 FoldK=F
 IRaf= 860000000 NMat=       1 IRICut=       1 DoRegI=T DoRafI=F ISym2E= 0 IDoP0=0 IntGTp=1.
 FoFCou: FMM=F IPFlag=           0 FMFlag=      100000 FMFlg1=           0
         NFxFlg=           0 DoJE=F BraDBF=F KetDBF=F FulRan=T
         wScrn=  0.000000 ICntrl=         0 IOpCl=  0 I1Cent=           0 NGrid=           0
         NMat0=    1 NMatS0=      1 NMatT0=    0 NMatD0=    1 NMtDS0=    0 NMtDT0=    0
 Symmetry not used in FoFCou.
 E= -480.462765518429    
 DIIS: error= 2.57D-02 at cycle   1 NSaved=   1.
 NSaved= 1 IEnMin= 1 EnMin= -480.462765518429     IErMin= 1 ErrMin= 2.57D-02
 ErrMax= 2.57D-02  0.00D+00 EMaxC= 1.00D-01 BMatC= 4.97D-01 BMatP= 4.97D-01
 IDIUse=3 WtCom= 7.43D-01 WtEn= 2.57D-01
 Coeff-Com:  0.100D+01
 Coeff-En:   0.100D+01
 Coeff:      0.100D+01
 Gap=     0.301 Goal=   None    Shift=    0.000
 GapD=    0.301 DampG=1.000 DampE=0.500 DampFc=0.5000 IDamp=-1.
 Damping current iteration by 5.00D-01
 RMSDP=1.18D-01 MaxDP=1.74D+01              OVMax= 9.80D-01

 Cycle   2  Pass 1  IDiag  1:
 RMSU=  5.79D-02    CP:  2.52D+00
 E= -480.286419692042     Delta-E=        0.176345826387 Rises=F Damp=T
 DIIS: error= 1.50D-02 at cycle   2 NSaved=   2.
 NSaved= 2 IEnMin= 1 EnMin= -480.462765518429     IErMin= 2 ErrMin= 1.50D-02
 ErrMax= 1.50D-02  0.00D+00 EMaxC= 1.00D-01 BMatC= 1.21D-01 BMatP= 4.97D-01
 IDIUse=3 WtCom= 8.50D-01 WtEn= 1.50D-01
 Coeff-Com:  0.245D+00 0.755D+00
 Coeff-En:   0.658D+00 0.342D+00
 Coeff:      0.307D+00 0.693D+00
 Gap=    -0.300 Goal=   None    Shift=    0.000
 RMSDP=5.89D-02 MaxDP=8.95D+00 DE= 1.76D-01 OVMax= 8.11D-01

 Cycle   3  Pass 1  IDiag  1:
 RMSU=  2.08D-03    CP:  9.30D-01  6.41D-03
 E= -480.728242814687     Delta-E=       -0.441823122645 Rises=F Damp=F
 DIIS: error= 1.37D-02 at cycle   3 NSaved=   3.
 NSaved= 3 IEnMin= 3 EnMin= -480.728242814687     IErMin= 3 ErrMin= 1.37D-02
 ErrMax= 1.37D-02  0.00D+00 EMaxC= 1.00D-01 BMatC= 1.20D-01 BMatP= 1.21D-01
 IDIUse=3 WtCom= 8.63D-01 WtEn= 1.37D-01
 Coeff-Com:  0.365D-01 0.491D+00 0.472D+00
 Coeff-En:   0.000D+00 0.000D+00 0.100D+01
 Coeff:      0.315D-01 0.424D+00 0.545D+00
 Gap=     0.254 Goal=   None    Shift=    0.000
 RMSDP=8.38D-04 MaxDP=8.27D-02 DE=-4.42D-01 OVMax= 7.52D-02

 Cycle   4  Pass 1  IDiag  1:
 RMSU=  8.30D-04    CP:  9.35D-01  7.98D-03  1.03D+00
 E= -480.826253129954     Delta-E=       -0.098010315266 Rises=F Damp=F
 DIIS: error= 4.45D-03 at cycle   4 NSaved=   4.
 NSaved= 4 IEnMin= 4 EnMin= -480.826253129954     IErMin= 4 ErrMin= 4.45D-03
 ErrMax= 4.45D-03  0.00D+00 EMaxC= 1.00D-01 BMatC= 1.34D-02 BMatP= 1.20D-01
 IDIUse=3 WtCom= 9.56D-01 WtEn= 4.45D-02
 Coeff-Com: -0.614D-01 0.223D+00 0.170D+00 0.669D+00
 Coeff-En:   0.000D+00 0.000D+00 0.000D+00 0.100D+01
 Coeff:     -0.587D-01 0.213D+00 0.162D+00 0.683D+00
 Gap=     0.210 Goal=   None    Shift=    0.000
 RMSDP=4.82D-04 MaxDP=5.71D-02 DE=-9.80D-02 OVMax= 3.06D-02

 Cycle   5  Pass 1  IDiag  1:
 RMSU=  3.79D-04    CP:  9.39D-01  1.02D-02  1.10D+00  1.27D+00
 E= -480.835528698652     Delta-E=       -0.009275568698 Rises=F Damp=F
 DIIS: error= 2.67D-03 at cycle   5 NSaved=   5.
 NSaved= 5 IEnMin= 5 EnMin= -480.835528698652     IErMin= 5 ErrMin= 2.67D-03
 ErrMax= 2.67D-03  0.00D+00 EMaxC= 1.00D-01 BMatC= 6.15D-03 BMatP= 1.34D-02
 IDIUse=3 WtCom= 9.73D-01 WtEn= 2.67D-02
 Coeff-Com: -0.519D-01 0.109D+00-0.254D-01 0.363D+00 0.605D+00
 Coeff-En:   0.000D+00 0.000D+00 0.000D+00 0.000D+00 0.100D+01
 Coeff:     -0.505D-01 0.106D+00-0.247D-01 0.353D+00 0.616D+00
 Gap=     0.200 Goal=   None    Shift=    0.000
 RMSDP=2.33D-04 MaxDP=2.94D-02 DE=-9.28D-03 OVMax= 2.14D-02

 Cycle   6  Pass 1  IDiag  1:
 RMSU=  1.27D-04    CP:  9.41D-01  1.10D-02  1.12D+00  1.48D+00  1.16D+00
 E= -480.840302577819     Delta-E=       -0.004773879167 Rises=F Damp=F
 DIIS: error= 1.66D-03 at cycle   6 NSaved=   6.
 NSaved= 6 IEnMin= 6 EnMin= -480.840302577819     IErMin= 6 ErrMin= 1.66D-03
 ErrMax= 1.66D-03  0.00D+00 EMaxC= 1.00D-01 BMatC= 9.71D-04 BMatP= 6.15D-03
 IDIUse=3 WtCom= 9.83D-01 WtEn= 1.66D-02
 Coeff-Com: -0.115D-01 0.204D-01-0.794D-01-0.623D-01 0.215D+00 0.918D+00
 Coeff-En:   0.000D+00 0.000D+00 0.000D+00 0.000D+00 0.000D+00 0.100D+01
 Coeff:     -0.113D-01 0.201D-01-0.781D-01-0.613D-01 0.212D+00 0.919D+00
 Gap=     0.192 Goal=   None    Shift=    0.000
 RMSDP=2.21D-04 MaxDP=3.69D-02 DE=-4.77D-03 OVMax= 8.62D-03

 Cycle   7  Pass 1  IDiag  1:
 RMSU=  7.36D-05    CP:  9.46D-01  1.22D-02  1.14D+00  1.65D+00  1.47D+00
                    CP:  1.31D+00
 E= -480.841363640106     Delta-E=       -0.001061062286 Rises=F Damp=F
 DIIS: error= 2.79D-04 at cycle   7 NSaved=   7.
 NSaved= 7 IEnMin= 7 EnMin= -480.841363640106     IErMin= 7 ErrMin= 2.79D-04
 ErrMax= 2.79D-04  0.00D+00 EMaxC= 1.00D-01 BMatC= 6.50D-05 BMatP= 9.71D-04
 IDIUse=3 WtCom= 9.97D-01 WtEn= 2.79D-03
 Coeff-Com:  0.920D-05 0.243D-02-0.358D-01-0.728D-01 0.262D-01 0.429D+00
 Coeff-Com:  0.651D+00
 Coeff-En:   0.000D+00 0.000D+00 0.000D+00 0.000D+00 0.000D+00 0.000D+00
 Coeff-En:   0.100D+01
 Coeff:      0.917D-05 0.242D-02-0.357D-01-0.726D-01 0.261D-01 0.428D+00
 Coeff:      0.652D+00
 Gap=     0.191 Goal=   None    Shift=    0.000
 RMSDP=5.85D-05 MaxDP=1.10D-02 DE=-1.06D-03 OVMax= 2.43D-03

 Cycle   8  Pass 1  IDiag  1:
 RMSU=  2.30D-05    CP:  9.48D-01  1.25D-02  1.14D+00  1.68D+00  1.54D+00
                    CP:  1.48D+00  1.19D+00
 E= -480.841431944845     Delta-E=       -0.000068304739 Rises=F Damp=F
 DIIS: error= 9.21D-05 at cycle   8 NSaved=   8.
 NSaved= 8 IEnMin= 8 EnMin= -480.841431944845     IErMin= 8 ErrMin= 9.21D-05
 ErrMax= 9.21D-05  0.00D+00 EMaxC= 1.00D-01 BMatC= 5.11D-06 BMatP= 6.50D-05
 IDIUse=1 WtCom= 1.00D+00 WtEn= 0.00D+00
 Coeff-Com:  0.817D-03 0.140D-03-0.175D-02-0.134D-01-0.142D-01 0.145D-01
 Coeff-Com:  0.249D+00 0.765D+00
 Coeff:      0.817D-03 0.140D-03-0.175D-02-0.134D-01-0.142D-01 0.145D-01
 Coeff:      0.249D+00 0.765D+00
 Gap=     0.192 Goal=   None    Shift=    0.000
 RMSDP=1.44D-05 MaxDP=1.83D-03 DE=-6.83D-05 OVMax= 5.95D-04

 Cycle   9  Pass 1  IDiag  1:
 RMSU=  1.23D-05    CP:  9.47D-01  1.25D-02  1.14D+00  1.68D+00  1.55D+00
                    CP:  1.50D+00  1.24D+00  1.06D+00
 E= -480.841436873057     Delta-E=       -0.000004928212 Rises=F Damp=F
 DIIS: error= 2.58D-05 at cycle   9 NSaved=   9.
 NSaved= 9 IEnMin= 9 EnMin= -480.841436873057     IErMin= 9 ErrMin= 2.58D-05
 ErrMax= 2.58D-05  0.00D+00 EMaxC= 1.00D-01 BMatC= 2.40D-07 BMatP= 5.11D-06
 IDIUse=1 WtCom= 1.00D+00 WtEn= 0.00D+00
 Coeff-Com: -0.468D-04 0.366D-03 0.181D-02 0.248D-02-0.152D-02-0.256D-01
 Coeff-Com:  0.194D-02 0.166D+00 0.855D+00
 Coeff:     -0.468D-04 0.366D-03 0.181D-02 0.248D-02-0.152D-02-0.256D-01
 Coeff:      0.194D-02 0.166D+00 0.855D+00
 Gap=     0.192 Goal=   None    Shift=    0.000
 RMSDP=4.25D-06 MaxDP=5.04D-04 DE=-4.93D-06 OVMax= 1.77D-04

 Cycle  10  Pass 1  IDiag  1:
 RMSU=  2.24D-06    CP:  9.47D-01  1.25D-02  1.14D+00  1.68D+00  1.55D+00
                    CP:  1.51D+00  1.27D+00  1.15D+00  1.12D+00
 E= -480.841437136253     Delta-E=       -0.000000263196 Rises=F Damp=F
 DIIS: error= 8.19D-06 at cycle  10 NSaved=  10.
 NSaved=10 IEnMin=10 EnMin= -480.841437136253     IErMin=10 ErrMin= 8.19D-06
 ErrMax= 8.19D-06  0.00D+00 EMaxC= 1.00D-01 BMatC= 6.33D-08 BMatP= 2.40D-07
 IDIUse=1 WtCom= 1.00D+00 WtEn= 0.00D+00
 Coeff-Com: -0.105D-03 0.741D-04 0.866D-03 0.215D-02 0.885D-03-0.142D-01
 Coeff-Com: -0.245D-01-0.403D-02 0.365D+00 0.674D+00
 Coeff:     -0.105D-03 0.741D-04 0.866D-03 0.215D-02 0.885D-03-0.142D-01
 Coeff:     -0.245D-01-0.403D-02 0.365D+00 0.674D+00
 Gap=     0.192 Goal=   None    Shift=    0.000
 RMSDP=1.68D-06 MaxDP=1.87D-04 DE=-2.63D-07 OVMax= 9.34D-05

 Cycle  11  Pass 1  IDiag  1:
 RMSU=  5.72D-07    CP:  9.47D-01  1.25D-02  1.14D+00  1.68D+00  1.55D+00
                    CP:  1.51D+00  1.27D+00  1.18D+00  1.20D+00  1.12D+00
 E= -480.841437210973     Delta-E=       -0.000000074720 Rises=F Damp=F
 DIIS: error= 1.92D-06 at cycle  11 NSaved=  11.
 NSaved=11 IEnMin=11 EnMin= -480.841437210973     IErMin=11 ErrMin= 1.92D-06
 ErrMax= 1.92D-06  0.00D+00 EMaxC= 1.00D-01 BMatC= 3.66D-09 BMatP= 6.33D-08
 IDIUse=1 WtCom= 1.00D+00 WtEn= 0.00D+00
 Coeff-Com: -0.282D-04 0.339D-04 0.310D-04 0.162D-03 0.545D-03-0.115D-02
 Coeff-Com: -0.483D-02-0.183D-01-0.570D-02 0.141D+00 0.888D+00
 Coeff:     -0.282D-04 0.339D-04 0.310D-04 0.162D-03 0.545D-03-0.115D-02
 Coeff:     -0.483D-02-0.183D-01-0.570D-02 0.141D+00 0.888D+00
 Gap=     0.192 Goal=   None    Shift=    0.000
 RMSDP=5.14D-07 MaxDP=5.45D-05 DE=-7.47D-08 OVMax= 3.65D-05

 Cycle  12  Pass 1  IDiag  1:
 RMSU=  2.13D-07    CP:  9.47D-01  1.25D-02  1.14D+00  1.68D+00  1.55D+00
                    CP:  1.51D+00  1.27D+00  1.19D+00  1.22D+00  1.23D+00
                    CP:  1.21D+00
 E= -480.841437216275     Delta-E=       -0.000000005302 Rises=F Damp=F
 DIIS: error= 5.86D-07 at cycle  12 NSaved=  12.
 NSaved=12 IEnMin=12 EnMin= -480.841437216275     IErMin=12 ErrMin= 5.86D-07
 ErrMax= 5.86D-07  0.00D+00 EMaxC= 1.00D-01 BMatC= 4.54D-10 BMatP= 3.66D-09
 IDIUse=1 WtCom= 1.00D+00 WtEn= 0.00D+00
 Coeff-Com:  0.363D-05-0.150D-05-0.711D-04-0.180D-03 0.101D-03 0.800D-03
 Coeff-Com:  0.105D-02-0.567D-02-0.403D-01-0.323D-01 0.273D+00 0.803D+00
 Coeff:      0.363D-05-0.150D-05-0.711D-04-0.180D-03 0.101D-03 0.800D-03
 Coeff:      0.105D-02-0.567D-02-0.403D-01-0.323D-01 0.273D+00 0.803D+00
 Gap=     0.192 Goal=   None    Shift=    0.000
 RMSDP=1.74D-07 MaxDP=1.53D-05 DE=-5.30D-09 OVMax= 1.43D-05

 Cycle  13  Pass 1  IDiag  1:
 RMSU=  5.98D-08    CP:  9.47D-01  1.25D-02  1.14D+00  1.68D+00  1.55D+00
                    CP:  1.51D+00  1.28D+00  1.19D+00  1.23D+00  1.26D+00
                    CP:  1.31D+00  1.10D+00
 E= -480.841437216945     Delta-E=       -0.000000000670 Rises=F Damp=F
 DIIS: error= 2.11D-07 at cycle  13 NSaved=  13.
 NSaved=13 IEnMin=13 EnMin= -480.841437216945     IErMin=13 ErrMin= 2.11D-07
 ErrMax= 2.11D-07  0.00D+00 EMaxC= 1.00D-01 BMatC= 4.30D-11 BMatP= 4.54D-10
 IDIUse=1 WtCom= 1.00D+00 WtEn= 0.00D+00
 Coeff-Com:  0.271D-05-0.438D-06-0.238D-04-0.669D-04 0.589D-05 0.345D-03
 Coeff-Com:  0.838D-03 0.508D-04-0.110D-01-0.232D-01-0.100D-01 0.242D+00
 Coeff-Com:  0.801D+00
 Coeff:      0.271D-05-0.438D-06-0.238D-04-0.669D-04 0.589D-05 0.345D-03
 Coeff:      0.838D-03 0.508D-04-0.110D-01-0.232D-01-0.100D-01 0.242D+00
 Coeff:      0.801D+00
 Gap=     0.192 Goal=   None    Shift=    0.000
 RMSDP=3.95D-08 MaxDP=3.15D-06 DE=-6.70D-10 OVMax= 3.91D-06

 Cycle  14  Pass 1  IDiag  1:
 RMSU=  2.36D-08    CP:  9.47D-01  1.25D-02  1.14D+00  1.68D+00  1.55D+00
                    CP:  1.51D+00  1.28D+00  1.19D+00  1.23D+00  1.26D+00
                    CP:  1.32D+00  1.16D+00  1.17D+00
 E= -480.841437217022     Delta-E=       -0.000000000077 Rises=F Damp=F
 DIIS: error= 5.50D-08 at cycle  14 NSaved=  14.
 NSaved=14 IEnMin=14 EnMin= -480.841437217022     IErMin=14 ErrMin= 5.50D-08
 ErrMax= 5.50D-08  0.00D+00 EMaxC= 1.00D-01 BMatC= 4.47D-12 BMatP= 4.30D-11
 IDIUse=1 WtCom= 1.00D+00 WtEn= 0.00D+00
 Coeff-Com:  0.279D-06-0.177D-06 0.488D-05 0.947D-05-0.900D-05-0.433D-04
 Coeff-Com:  0.101D-03 0.842D-03 0.280D-02-0.170D-02-0.425D-01-0.436D-01
 Coeff-Com:  0.227D+00 0.857D+00
 Coeff:      0.279D-06-0.177D-06 0.488D-05 0.947D-05-0.900D-05-0.433D-04
 Coeff:      0.101D-03 0.842D-03 0.280D-02-0.170D-02-0.425D-01-0.436D-01
 Coeff:      0.227D+00 0.857D+00
 Gap=     0.192 Goal=   None    Shift=    0.000
 RMSDP=1.92D-08 MaxDP=2.52D-06 DE=-7.66D-11 OVMax= 1.56D-06

 Cycle  15  Pass 1  IDiag  1:
 RMSU=  7.97D-09    CP:  9.47D-01  1.25D-02  1.14D+00  1.68D+00  1.55D+00
                    CP:  1.51D+00  1.28D+00  1.19D+00  1.23D+00  1.26D+00
                    CP:  1.31D+00  1.19D+00  1.27D+00  1.13D+00
 E= -480.841437217005     Delta-E=        0.000000000016 Rises=F Damp=F
 DIIS: error= 1.13D-08 at cycle  15 NSaved=  15.
 NSaved=15 IEnMin=14 EnMin= -480.841437217022     IErMin=15 ErrMin= 1.13D-08
 ErrMax= 1.13D-08  0.00D+00 EMaxC= 1.00D-01 BMatC= 1.54D-13 BMatP= 4.47D-12
 IDIUse=1 WtCom= 1.00D+00 WtEn= 0.00D+00
 Coeff-Com: -0.177D-06 0.983D-07 0.155D-05 0.439D-05 0.761D-06-0.219D-04
 Coeff-Com: -0.241D-04 0.845D-04 0.924D-03 0.109D-02-0.500D-02-0.187D-01
 Coeff-Com: -0.169D-01 0.103D+00 0.935D+00
 Coeff:     -0.177D-06 0.983D-07 0.155D-05 0.439D-05 0.761D-06-0.219D-04
 Coeff:     -0.241D-04 0.845D-04 0.924D-03 0.109D-02-0.500D-02-0.187D-01
 Coeff:     -0.169D-01 0.103D+00 0.935D+00
 Gap=     0.192 Goal=   None    Shift=    0.000
 RMSDP=5.26D-09 MaxDP=6.63D-07 DE= 1.61D-11 OVMax= 3.07D-07

 SCF Done:  E(RM062X) =  -480.841437217     A.U. after   15 cycles
            NFock= 15  Conv=0.53D-08     -V/T= 2.0048
 KE= 4.785306018983D+02 PE=-2.278582438732D+03 EE= 7.404393140646D+02
 Leave Link  502 at Mon Feb 20 00:51:37 2023, MaxMem=  6710886400 cpu:            2566.3 elap:             107.3
 (Enter /data0/home/software/g16/l601.exe)
 Copying SCF densities to generalized density rwf, IOpCl= 0 IROHF=0.

 **********************************************************************

            Population analysis using the SCF density.

 **********************************************************************

 Alpha  occ. eigenvalues --  -19.48447 -19.48049 -14.93492 -10.65522 -10.65244
 Alpha  occ. eigenvalues --  -10.65069 -10.61966 -10.55707 -10.54957 -10.50353
 Alpha  occ. eigenvalues --   -1.18179  -1.07725  -0.97511  -0.91324  -0.89920
 Alpha  occ. eigenvalues --   -0.89493  -0.82870  -0.75795  -0.69565  -0.65154
 Alpha  occ. eigenvalues --   -0.64711  -0.63190  -0.57329  -0.55969  -0.53944
 Alpha  occ. eigenvalues --   -0.52576  -0.52131  -0.51825  -0.51686  -0.50909
[...]
 One-electron integrals computed using PRISM.
 NBasis=   161 RedAO= T EigKep=  5.81D-04  NBF=   161
 NBsUse=   161 1.00D-06 EigRej= -1.00D+00 NBFU=   161
 Precomputing XC quadrature grid using
 IXCGrd= 4 IRadAn=           5 IRanWt=          -1 IRanGd=           0 AccXCQ= 0.00D+00.
 Generated NRdTot=       0 NPtTot=           0 NUsed=           0 NTot=          32
 NSgBfM=   171   171   171   171   171 MxSgAt=     8 MxSgA2=     8.
 Leave Link  302 at Mon Feb 20 00:53:52 2023, MaxMem=  6710886400 cpu:               2.9 elap:               0.1
 (Enter /data0/home/software/g16/l303.exe)
 DipDrv:  MaxL=1.
 Leave Link  303 at Mon Feb 20 00:53:52 2023, MaxMem=  6710886400 cpu:               0.5 elap:               0.0
 (Enter /data0/home/software/g16/l401.exe)
 ExpMin= 3.48D-02 ExpMax= 7.75D+04 ExpMxC= 2.65D+03 IAcc=3 IRadAn=         5 AccDes= 0.00D+00
 Harris functional with IExCor= 1009 and IRadAn=       5 diagonalized for initial guess.
 HarFok:  IExCor= 1009 AccDes= 0.00D+00 IRadAn=         5 IDoV= 1 UseB2=F ITyADJ=14
 ICtDFT=  3500011 ScaDFX=  1.000000  1.000000  1.000000  1.000000
 FoFCou: FMM=F IPFlag=           0 FMFlag=      100000 FMFlg1=           0
         NFxFlg=           0 DoJE=T BraDBF=F KetDBF=T FulRan=T
         wScrn=  0.000000 ICntrl=       500 IOpCl=  0 I1Cent=   200000004 NGrid=           0
         NMat0=    1 NMatS0=      1 NMatT0=    0 NMatD0=    1 NMtDS0=    0 NMtDT0=    0
 Symmetry not used in FoFCou.
 Harris En= -643.937908169622    
 JPrj=0 DoOrth=F DoCkMO=F.
 Leave Link  401 at Mon Feb 20 00:53:52 2023, MaxMem=  6710886400 cpu:               6.1 elap:               0.3
 (Enter /data0/home/software/g16/l502.exe)
 Keep R1 ints in memory in canonical form, NReq=108966253.
 FoFCou: FMM=F IPFlag=           0 FMFlag=           0 FMFlg1=           0
         NFxFlg=           0 DoJE=F BraDBF=F KetDBF=F FulRan=T
         wScrn=  0.000000 ICntrl=       600 IOpCl=  0 I1Cent=           0 NGrid=           0
         NMat0=    1 NMatS0=  13041 NMatT0=    0 NMatD0=    1 NMtDS0=    0 NMtDT0=    0
 Symmetry not used in FoFCou.
 Two-electron integral symmetry not used.
 Closed shell SCF:
 Using DIIS extrapolation, IDIIS=  1040.
 NGot=  6710886400 LenX=  6625781403 LenY=  6625751721
 Requested convergence on RMS density matrix=1.00D-08 within 128 cycles.
 Requested convergence on MAX density matrix=1.00D-06.
 Requested convergence on             energy=1.00D-06.
 No special actions if energy rises.

 Cycle   1  Pass 1  IDiag  1:
 E= -643.839465349103    
 DIIS: error= 4.98D-02 at cycle   1 NSaved=   1.
 NSaved= 1 IEnMin= 1 EnMin= -643.839465349103     IErMin= 1 ErrMin= 4.98D-02
 ErrMax= 4.98D-02  0.00D+00 EMaxC= 1.00D-01 BMatC= 5.13D-01 BMatP= 5.13D-01
 IDIUse=3 WtCom= 5.02D-01 WtEn= 4.98D-01
 Coeff-Com:  0.100D+01
 Coeff-En:   0.100D+01
 Coeff:      0.100D+01
 Gap=     0.225 Goal=   None    Shift=    0.000
 GapD=    0.225 DampG=1.000 DampE=0.500 DampFc=0.5000 IDamp=-1.
 Damping current iteration by 5.00D-01
 RMSDP=8.13D-03 MaxDP=2.18D-01              OVMax= 2.79D-01

 Cycle   2  Pass 1  IDiag  1:
 E= -643.956218289328     Delta-E=       -0.116752940225 Rises=F Damp=T
 DIIS: error= 1.07D-02 at cycle   2 NSaved=   2.
 NSaved= 2 IEnMin= 2 EnMin= -643.956218289328     IErMin= 2 ErrMin= 1.07D-02
 ErrMax= 1.07D-02  0.00D+00 EMaxC= 1.00D-01 BMatC= 2.84D-02 BMatP= 5.13D-01
 IDIUse=3 WtCom= 8.93D-01 WtEn= 1.07D-01
 Coeff-Com:  0.795D-01 0.920D+00
 Coeff-En:   0.216D+00 0.784D+00
 Coeff:      0.941D-01 0.906D+00
 Gap=     0.332 Goal=   None    Shift=    0.000
 RMSDP=1.97D-03 MaxDP=7.48D-02 DE=-1.17D-01 OVMax= 1.84D-01

 Cycle   3  Pass 1  IDiag  1:
 E= -644.128453963098     Delta-E=       -0.172235673770 Rises=F Damp=F
 DIIS: error= 7.51D-03 at cycle   3 NSaved=   3.
 NSaved= 3 IEnMin= 3 EnMin= -644.128453963098     IErMin= 3 ErrMin= 7.51D-03
 ErrMax= 7.51D-03  0.00D+00 EMaxC= 1.00D-01 BMatC= 1.07D-02 BMatP= 2.84D-02
 IDIUse=3 WtCom= 9.25D-01 WtEn= 7.51D-02
 Coeff-Com: -0.112D-01 0.341D+00 0.671D+00
 Coeff-En:   0.000D+00 0.000D+00 0.100D+01
 Coeff:     -0.103D-01 0.315D+00 0.695D+00
 Gap=     0.322 Goal=   None    Shift=    0.000
 RMSDP=6.93D-04 MaxDP=1.54D-02 DE=-1.72D-01 OVMax= 3.60D-02

 Cycle   4  Pass 1  IDiag  1:
 E= -644.133247648693     Delta-E=       -0.004793685595 Rises=F Damp=F
 DIIS: error= 4.28D-03 at cycle   4 NSaved=   4.
 NSaved= 4 IEnMin= 4 EnMin= -644.133247648693     IErMin= 4 ErrMin= 4.28D-03
 ErrMax= 4.28D-03  0.00D+00 EMaxC= 1.00D-01 BMatC= 4.12D-03 BMatP= 1.07D-02
 IDIUse=3 WtCom= 9.57D-01 WtEn= 4.28D-02
 Coeff-Com: -0.205D-01 0.463D-01 0.403D+00 0.571D+00
 Coeff-En:   0.000D+00 0.000D+00 0.279D+00 0.721D+00
 Coeff:     -0.196D-01 0.443D-01 0.398D+00 0.578D+00
 Gap=     0.328 Goal=   None    Shift=    0.000
 RMSDP=2.74D-04 MaxDP=6.39D-03 DE=-4.79D-03 OVMax= 1.17D-02

 Cycle   5  Pass 1  IDiag  1:
 E= -644.135974521177     Delta-E=       -0.002726872484 Rises=F Damp=F
 DIIS: error= 2.45D-04 at cycle   5 NSaved=   5.
 NSaved= 5 IEnMin= 5 EnMin= -644.135974521177     IErMin= 5 ErrMin= 2.45D-04
 ErrMax= 2.45D-04  0.00D+00 EMaxC= 1.00D-01 BMatC= 1.70D-05 BMatP= 4.12D-03
 IDIUse=3 WtCom= 9.98D-01 WtEn= 2.45D-03
 Coeff-Com: -0.222D-02-0.506D-03 0.564D-01 0.117D+00 0.829D+00
 Coeff-En:   0.000D+00 0.000D+00 0.000D+00 0.000D+00 0.100D+01
 Coeff:     -0.221D-02-0.504D-03 0.563D-01 0.117D+00 0.830D+00
 Gap=     0.327 Goal=   None    Shift=    0.000
 RMSDP=2.93D-05 MaxDP=7.32D-04 DE=-2.73D-03 OVMax= 8.01D-04

 Cycle   6  Pass 1  IDiag  1:
 E= -644.135985658257     Delta-E=       -0.000011137080 Rises=F Damp=F
 DIIS: error= 8.28D-05 at cycle   6 NSaved=   6.
 NSaved= 6 IEnMin= 6 EnMin= -644.135985658257     IErMin= 6 ErrMin= 8.28D-05
 ErrMax= 8.28D-05  0.00D+00 EMaxC= 1.00D-01 BMatC= 1.68D-06 BMatP= 1.70D-05
 IDIUse=1 WtCom= 1.00D+00 WtEn= 0.00D+00
 Coeff-Com: -0.708D-05-0.175D-02 0.324D-02 0.149D-01 0.260D+00 0.723D+00
 Coeff:     -0.708D-05-0.175D-02 0.324D-02 0.149D-01 0.260D+00 0.723D+00
 Gap=     0.327 Goal=   None    Shift=    0.000
 RMSDP=1.10D-05 MaxDP=2.39D-04 DE=-1.11D-05 OVMax= 2.85D-04

 Cycle   7  Pass 1  IDiag  1:
 E= -644.135986751408     Delta-E=       -0.000001093151 Rises=F Damp=F
 DIIS: error= 4.61D-05 at cycle   7 NSaved=   7.
 NSaved= 7 IEnMin= 7 EnMin= -644.135986751408     IErMin= 7 ErrMin= 4.61D-05
 ErrMax= 4.61D-05  0.00D+00 EMaxC= 1.00D-01 BMatC= 3.97D-07 BMatP= 1.68D-06
 IDIUse=1 WtCom= 1.00D+00 WtEn= 0.00D+00
 Coeff-Com:  0.376D-03-0.640D-03-0.895D-02-0.144D-01-0.227D-01 0.326D+00
 Coeff-Com:  0.721D+00
 Coeff:      0.376D-03-0.640D-03-0.895D-02-0.144D-01-0.227D-01 0.326D+00
 Coeff:      0.721D+00
 Gap=     0.327 Goal=   None    Shift=    0.000
 RMSDP=4.67D-06 MaxDP=9.94D-05 DE=-1.09D-06 OVMax= 1.38D-04

 Cycle   8  Pass 1  IDiag  1:
 E= -644.135987025775     Delta-E=       -0.000000274366 Rises=F Damp=F
 DIIS: error= 1.03D-05 at cycle   8 NSaved=   8.
 NSaved= 8 IEnMin= 8 EnMin= -644.135987025775     IErMin= 8 ErrMin= 1.03D-05
 ErrMax= 1.03D-05  0.00D+00 EMaxC= 1.00D-01 BMatC= 2.95D-08 BMatP= 3.97D-07
 IDIUse=1 WtCom= 1.00D+00 WtEn= 0.00D+00
 Coeff-Com:  0.135D-03-0.160D-03-0.373D-02-0.602D-02-0.170D-01 0.916D-01
 Coeff-Com:  0.298D+00 0.637D+00
 Coeff:      0.135D-03-0.160D-03-0.373D-02-0.602D-02-0.170D-01 0.916D-01
 Coeff:      0.298D+00 0.637D+00
 Gap=     0.327 Goal=   None    Shift=    0.000
 RMSDP=8.80D-07 MaxDP=2.65D-05 DE=-2.74D-07 OVMax= 3.48D-05

 Cycle   9  Pass 1  IDiag  1:
 E= -644.135987048772     Delta-E=       -0.000000022997 Rises=F Damp=F
 DIIS: error= 1.84D-06 at cycle   9 NSaved=   9.
 NSaved= 9 IEnMin= 9 EnMin= -644.135987048772     IErMin= 9 ErrMin= 1.84D-06
 ErrMax= 1.84D-06  0.00D+00 EMaxC= 1.00D-01 BMatC= 9.55D-10 BMatP= 2.95D-08
 IDIUse=1 WtCom= 1.00D+00 WtEn= 0.00D+00
 Coeff-Com: -0.271D-04 0.537D-04 0.264D-03 0.579D-03-0.835D-03-0.195D-01
 Coeff-Com: -0.289D-01 0.789D-01 0.970D+00
 Coeff:     -0.271D-04 0.537D-04 0.264D-03 0.579D-03-0.835D-03-0.195D-01
 Coeff:     -0.289D-01 0.789D-01 0.970D+00
 Gap=     0.327 Goal=   None    Shift=    0.000
 RMSDP=3.76D-07 MaxDP=9.84D-06 DE=-2.30D-08 OVMax= 1.29D-05

 Cycle  10  Pass 1  IDiag  1:
 E= -644.135987049950     Delta-E=       -0.000000001178 Rises=F Damp=F
 DIIS: error= 3.34D-07 at cycle  10 NSaved=  10.
 NSaved=10 IEnMin=10 EnMin= -644.135987049950     IErMin=10 ErrMin= 3.34D-07
 ErrMax= 3.34D-07  0.00D+00 EMaxC= 1.00D-01 BMatC= 2.30D-11 BMatP= 9.55D-10
 IDIUse=1 WtCom= 1.00D+00 WtEn= 0.00D+00
 Coeff-Com: -0.378D-05 0.629D-05 0.116D-03 0.192D-03 0.485D-03-0.426D-02
 Coeff-Com: -0.127D-01-0.157D-01 0.510D-01 0.981D+00
 Coeff:     -0.378D-05 0.629D-05 0.116D-03 0.192D-03 0.485D-03-0.426D-02
 Coeff:     -0.127D-01-0.157D-01 0.510D-01 0.981D+00
 Gap=     0.327 Goal=   None    Shift=    0.000
 RMSDP=7.44D-08 MaxDP=1.17D-06 DE=-1.18D-09 OVMax= 3.29D-06

 Cycle  11  Pass 1  IDiag  1:
 E= -644.135987050002     Delta-E=       -0.000000000052 Rises=F Damp=F
 DIIS: error= 2.62D-07 at cycle  11 NSaved=  11.
 NSaved=11 IEnMin=11 EnMin= -644.135987050002     IErMin=11 ErrMin= 2.62D-07
 ErrMax= 2.62D-07  0.00D+00 EMaxC= 1.00D-01 BMatC= 1.29D-11 BMatP= 2.30D-11
 IDIUse=1 WtCom= 1.00D+00 WtEn= 0.00D+00
 Coeff-Com:  0.338D-06-0.112D-05 0.375D-04 0.510D-04 0.295D-03-0.728D-03
 Coeff-Com: -0.409D-02-0.128D-01-0.464D-01 0.494D+00 0.570D+00
 Coeff:      0.338D-06-0.112D-05 0.375D-04 0.510D-04 0.295D-03-0.728D-03
 Coeff:     -0.409D-02-0.128D-01-0.464D-01 0.494D+00 0.570D+00
 Gap=     0.327 Goal=   None    Shift=    0.000
 RMSDP=2.02D-08 MaxDP=5.28D-07 DE=-5.21D-11 OVMax= 7.50D-07

 Cycle  12  Pass 1  IDiag  1:
 E= -644.135987050000     Delta-E=        0.000000000002 Rises=F Damp=F
 DIIS: error= 5.60D-08 at cycle  12 NSaved=  12.
 NSaved=12 IEnMin=11 EnMin= -644.135987050002     IErMin=12 ErrMin= 5.60D-08
 ErrMax= 5.60D-08  0.00D+00 EMaxC= 1.00D-01 BMatC= 7.30D-13 BMatP= 1.29D-11
 IDIUse=1 WtCom= 1.00D+00 WtEn= 0.00D+00
 Coeff-Com:  0.712D-06-0.135D-05-0.558D-05-0.122D-04 0.117D-04 0.407D-03
 Coeff-Com:  0.842D-03-0.105D-02-0.227D-01-0.243D-02 0.182D+00 0.843D+00
 Coeff:      0.712D-06-0.135D-05-0.558D-05-0.122D-04 0.117D-04 0.407D-03
 Coeff:      0.842D-03-0.105D-02-0.227D-01-0.243D-02 0.182D+00 0.843D+00
 Gap=     0.327 Goal=   None    Shift=    0.000
 RMSDP=8.63D-09 MaxDP=1.48D-07 DE= 1.82D-12 OVMax= 3.59D-07

 SCF Done:  E(RM062X) =  -644.135987050     A.U. after   12 cycles
            NFock= 12  Conv=0.86D-08     -V/T= 2.0025
 KE= 6.425052835167D+02 PE=-2.087488058386D+03 EE= 5.209049145182D+02
 Leave Link  502 at Mon Feb 20 00:53:59 2023, MaxMem=  6710886400 cpu:             110.2 elap:               6.3
 (Enter /data0/home/software/g16/l601.exe)
 Copying SCF densities to generalized density rwf, IOpCl= 0 IROHF=0.

 **********************************************************************

            Population analysis using the SCF density.

 **********************************************************************

 Alpha  occ. eigenvalues --  -78.16828 -19.69888 -19.68873 -19.68221 -19.57927
 Alpha  occ. eigenvalues --   -6.97626  -5.09545  -5.09531  -5.09276  -1.24707
 Alpha  occ. eigenvalues --   -1.17456  -1.16813  -1.08294  -0.72768  -0.65873
 Alpha  occ. eigenvalues --   -0.63893  -0.59009  -0.53620  -0.51716  -0.50003
 Alpha  occ. eigenvalues --   -0.46305  -0.45533  -0.45042  -0.37821  -0.36806
 Alpha virt. eigenvalues --   -0.04081   0.00844   0.02948   0.04648   0.08160
 Alpha virt. eigenvalues --    0.08920   0.10568   0.12956   0.15901   0.17033
 Alpha virt. eigenvalues --    0.17608   0.18408   0.19408   0.19793   0.21185
 Alpha virt. eigenvalues --    0.22481   0.24368   0.25744   0.25932   0.27395
 Alpha virt. eigenvalues --    0.27885   0.29185   0.30215   0.31995   0.32710
 Alpha virt. eigenvalues --    0.34161   0.36465   0.37933   0.40062   0.42962
 Alpha virt. eigenvalues --    0.44630   0.45186   0.52265   0.55737   0.57428
 Alpha virt. eigenvalues --    0.73447   0.75943   0.76464   0.85998   0.97977
 Alpha virt. eigenvalues --    0.99818   1.00108   1.04894   1.05945   1.11545
 Alpha virt. eigenvalues --    1.14252   1.15090   1.18385   1.19027   1.20292
 Alpha virt. eigenvalues --    1.21635   1.23585   1.26184   1.27173   1.32234
 Alpha virt. eigenvalues --    1.33000   1.41858   1.43072   1.49361   1.51119
 Alpha virt. eigenvalues --    1.52657   1.54842   1.57975   1.59661   1.63911
 Alpha virt. eigenvalues --    1.66980   1.68016   1.70776   1.72432   1.82537
 Alpha virt. eigenvalues --    1.82865   1.84721   1.87427   1.89105   1.97218
 Alpha virt. eigenvalues --    1.99703   2.03815   2.09613   2.11626   2.14143
 Alpha virt. eigenvalues --    2.18725   2.21732   2.25775   2.36676   2.42618
 Alpha virt. eigenvalues --    2.44285   2.57222   2.61622   2.62357   2.70327
 Alpha virt. eigenvalues --    2.72624   2.81091   2.86082   2.90338   2.94047
 Alpha virt. eigenvalues --    5.01150   5.02988   5.05998   5.06618   5.10689
 Alpha virt. eigenvalues --    5.13673   5.17268   5.23351   5.35108   5.42895
 Alpha virt. eigenvalues --    5.46538   5.51201   6.71920   6.73710   6.74756
 Alpha virt. eigenvalues --    6.76486   6.79226   6.80628   6.83084   6.85431
 Alpha virt. eigenvalues --    6.91076   6.92211   6.94036   6.98110   6.99386
 Alpha virt. eigenvalues --    7.02243   7.10543   7.24621   7.25650   7.27901
 Alpha virt. eigenvalues --    7.31559   7.40298   7.64130  14.23199  14.24021
 Alpha virt. eigenvalues --   14.34101  49.97218  49.99207  50.00354  50.10663
 Alpha virt. eigenvalues --  163.85611
          Condensed to atoms (all electrons):
              26         27         28         29         30         31
    26  P   12.481418   0.561177   0.166552   0.043938   0.226061  -0.002008
    27  O    0.561177   8.125485  -0.036171   0.002586  -0.005907  -0.014471
    28  O    0.166552  -0.036171   8.127341   0.221307   0.004274  -0.000261
    29  H    0.043938   0.002586   0.221307   0.451946  -0.014020   0.001543
    30  O    0.226061  -0.005907   0.004274  -0.014020   8.061451   0.257579
    31  H   -0.002008  -0.014471  -0.000261   0.001543   0.257579   0.448165
    32  O    0.236262  -0.007350   0.005249  -0.014068   0.032423  -0.004572
    33  H    0.005213  -0.013965  -0.000897   0.002145  -0.004476  -0.003221
              32         33
    26  P    0.236262   0.005213
    27  O   -0.007350  -0.013965
    28  O    0.005249  -0.000897
    29  H   -0.014068   0.002145
    30  O    0.032423  -0.004476
    31  H   -0.004572  -0.003221
    32  O    8.047737   0.252639
    33  H    0.252639   0.461336
 Mulliken charges:
               1
     1  C    0.000000
     2  H    0.000000
     3  H    0.000000
     4  H    0.000000
     5  C    0.000000
     6  H    0.000000
     7  H    0.000000
     8  H    0.000000
     9  C    0.000000
    10  H    0.000000
    11  H    0.000000
    12  H    0.000000
    13  C    0.000000
    14  H    0.000000
    15  H    0.000000
    16  C    0.000000
    17  H    0.000000
    18  H    0.000000
    19  C    0.000000
    20  H    0.000000
    21  H    0.000000
    22  N    0.000000
    23  C    0.000000
    24  O    0.000000
    25  O    0.000000
    26  P    1.281387
    27  O   -0.611383
    28  O   -0.487394
    29  H    0.304623
    30  O   -0.557384
    31  H    0.317246
    32  O   -0.548320
    33  H    0.301227
 Sum of Mulliken charges =  -0.00000
 Mulliken charges with hydrogens summed into heavy atoms:
               1
     1  C    0.000000
     5  C    0.000000
     9  C    0.000000
    13  C    0.000000
    16  C    0.000000
    19  C    0.000000
    22  N    0.000000
    23  C    0.000000
    24  O    0.000000
    25  O    0.000000
    26  P    1.281387
    27  O   -0.611383
    28  O   -0.182771
    30  O   -0.240139
    32  O   -0.247094
         Mulliken charges condensed to fragments:
      1      0.000000
      2     -0.000000
 Electronic spatial extent (au):  <R**2>=          56338.1529
 Charge=             -0.0000 electrons
 Dipole moment (field-independent basis, Debye):
    X=             -1.7689    Y=              1.1162    Z=             -5.3705  Tot=              5.7634
 Quadrupole moment (field-independent basis, Debye-Ang):
   XX=            -74.4600   YY=            -15.7261   ZZ=           -127.3189
   XY=             -5.6217   XZ=            -81.2336   YZ=            -40.2538
 Traceless Quadrupole moment (field-independent basis, Debye-Ang):
   XX=             -1.9583   YY=             56.7756   ZZ=            -54.8172
   XY=             -5.6217   XZ=            -81.2336   YZ=            -40.2538
 Octapole moment (field-independent basis, Debye-Ang**2):
  XXX=          -2003.5464  YYY=           -687.8748  ZZZ=          -2062.8904  XYY=           -422.2213
  XXY=           -587.7968  XXZ=          -1452.9720  XZZ=          -1713.5725  YZZ=          -1087.1042
  YYZ=           -586.7553  XYZ=           -654.2090
 Hexadecapole moment (field-independent basis, Debye-Ang**3):
 XXXX=         -44352.0916 YYYY=         -14013.2701 ZZZZ=         -28316.4190 XXXY=         -17590.8008
 XXXZ=         -27239.5372 YYYX=         -11231.5900 YYYZ=          -9917.7081 ZZZX=         -26921.8901
 ZZZY=         -18135.8691 XXYY=         -10616.7691 XXZZ=         -25242.1047 YYZZ=         -11770.8708
 XXYZ=         -12415.2632 YYXZ=          -9045.7973 ZZXY=         -14842.0529
 N-N= 2.799418733013D+02 E-N=-2.087488062663D+03  KE= 6.425052835167D+02
 No NMR shielding tensors so no spin-rotation constants.
 Leave Link  601 at Mon Feb 20 00:53:59 2023, MaxMem=  6710886400 cpu:               2.0 elap:               0.1
 (Enter /data0/home/software/g16/l122.exe)
 CPIOFr:  IOpCl= 0 IRwI=-1 IRwCP=  731 ICalc=  4 LCPTot=      418338 Len1MO=     1096859 IndFrg=     5902633
 Restoring MOs from calculation   1 to rwf.
 CPIOFr:  IOpCl= 0 IRwI=-2 IRwCP=  731 ICalc=  0 LCPTot=      418338 Len1MO=     1096859 IndFrg=     1515197
 Counterpoise corrected energy =   -1125.078862654884
                   BSSE energy =       0.002312984353
              sum of fragments =   -1124.976644432712
           complexation energy =     -65.59 kcal/mole (raw)
           complexation energy =     -64.14 kcal/mole (corrected)
 Leave Link  122 at Mon Feb 20 00:53:59 2023, MaxMem=  6710886400 cpu:               0.4 elap:               0.0
 (Enter /data0/home/software/g16/l9999.exe)
 1\1\GINC-LOCALHOST\SP\RM062X\6-311+G(2d,p)\C7H18N1O6P1\WUHANYU\20-Feb-
 2023\0\\#p M062X/6-311+G(2d,p) nosymm em=GD3 counterpoise=2\\Title Car
 d Required\\0,1\C,0,11.570971,10.902812,11.934201\H,0,12.341504,11.171
 792,11.17734\H,0,11.927156,11.204639,12.926712\H,0,11.493492,9.795823,
 11.914552\C,0,9.218533,11.113216,12.592101\H,0,8.223918,11.509268,12.3
 30819\H,0,9.13549,10.000989,12.602921\H,0,9.473712,11.439739,13.61038\
 C,0,10.429446,13.033683,11.660123\H,0,9.476955,13.566655,11.521734\H,0
 ,10.862696,13.346728,12.621094\H,0,11.122705,13.37309,10.849025\C,0,9.
 839524,11.092332,10.206138\H,0,9.418151,10.056452,10.275437\H,0,10.775
 855,10.994555,9.595897\C,0,8.86158,12.022159,9.48275\H,0,9.360869,12.9
 80861,9.219924\H,0,7.987904,12.269212,10.10953\C,0,8.39619,11.346324,8
 .188291\H,0,7.919568,12.077897,7.511075\H,0,7.634408,10.568984,8.39365
 8\N,0,10.251838,11.546696,11.595012\C,0,9.601984,10.728739,7.470939\O,
 0,10.552222,11.474242,7.173417\O,0,9.573459,9.491118,7.287399\P,0,12.8
 09037,8.967506,8.322808\O,0,12.37231,9.047767,9.721893\O,0,14.243419,8
 .287898,8.230468\H,0,14.504264,8.265394,7.228808\O,0,11.91062,8.122325
 ,7.335179\H,0,10.973822,8.63118,7.22143\O,0,13.02902,10.388335,7.63655
 6\H,0,12.097869,10.762486,7.304882\\Version=ES64L-G16RevA.03\HF=-644.1
 359871\RMSD=8.629e-09\Dipole=-1.7808738,2.7803061,4.5643334\Quadrupole
 =-141.5952726,38.7651279,102.8301447,19.8965547,53.3617071,147.936124\
 PG=C01 [X(C7H18N1O6P1)]\\@


 MEMORIES ARE LIKE AN ENGLISH GRAMMER LESSON -
 PRESENT TENSE, AND PAST PERFECT.
 Job cpu time:       0 days  2 hours 19 minutes  2.6 seconds.
 Elapsed time:       0 days  0 hours  5 minutes 51.2 seconds.
 File lengths (MBytes):  RWF=    206 Int=      0 D2E=      0 Chk=     61 Scr=      1
 Normal termination of Gaussian 16 at Mon Feb 20 00:53:59 2023.
