 Entering Gaussian System, Link 0=g16
 Initial command:
 /data0/home/software/g16/l1.exe "/data0/home/software/g16/scratch/Gau-1674316.inp" -scrdir="/data0/home/software/g16/scratch/"
 Default is to use a total of  22 processors:
                               22 via shared-memory
                                1 via Linda
 Entering Link 1 = /data0/home/software/g16/l1.exe PID=   1674317.
  
 Copyright (c) 1988,1990,1992,1993,1995,1998,2003,2009,2016,
            Gaussian, Inc.  All Rights Reserved.
  
 This is part of the Gaussian(R) 16 program.  It is based on
 the Gaussian(R) 09 system (copyright 2009, Gaussian, Inc.),
 the Gaussian(R) 03 system (copyright 2003, Gaussian, Inc.),
 the Gaussian(R) 98 system (copyright 1998, Gaussian, Inc.),
 the Gaussian(R) 94 system (copyright 1995, Gaussian, Inc.),
 the Gaussian 92(TM) system (copyright 1992, Gaussian, Inc.),
 the Gaussian 90(TM) system (copyright 1990, Gaussian, Inc.),
 the Gaussian 88(TM) system (copyright 1988, Gaussian, Inc.),
 the Gaussian 86(TM) system (copyright 1986, Carnegie Mellon
 University), and the Gaussian 82(TM) system (copyright 1983,
 Carnegie Mellon University). Gaussian is a federally registered
 trademark of Gaussian, Inc.
  
 This software contains proprietary and confidential information,
 including trade secrets, belonging to Gaussian, Inc.
  
 This software is provided under written license and may be
 used, copied, transmitted, or stored only in accord with that
 written license.
  
 The following legend is applicable only to US Government
 contracts under FAR:
  
                    RESTRICTED RIGHTS LEGEND
  
 Use, reproduction and disclosure by the US Government is
 subject to restrictions as set forth in subparagraphs (a)
 and (c) of the Commercial Computer Software - Restricted
 Rights clause in FAR 52.227-19.
  
 Gaussian, Inc.
 340 Quinnipiac St., Bldg. 40, Wallingford CT 06492
  
  
 ---------------------------------------------------------------
 Warning -- This program may not be used in any manner that
 competes with the business of Gaussian, Inc. or will provide
 assistance to any competitor of Gaussian, Inc.  The licensee
 of this program is prohibited from giving any competitor of
 Gaussian, Inc. access to this program.  By using this program,
 the user acknowledges that Gaussian, Inc. is engaged in the
 business of creating and licensing software in the field of
 computational chemistry and represents and warrants to the
 licensee that it is not a competitor of Gaussian, Inc. and that
 it will not use this program in any manner prohibited above.
 ---------------------------------------------------------------
  

 Cite this work as:
 Gaussian 16, Revision A.03,
 M. J. Frisch, G. W. Trucks, H. B. Schlegel, G. E. Scuseria, 
 M. A. Robb, J. R. Cheeseman, G. Scalmani, V. Barone, 
 G. A. Petersson, H. Nakatsuji, X. Li, M. Caricato, A. V. Marenich, 
 J. Bloino, B. G. Janesko, R. Gomperts, B. Mennucci, H. P. Hratchian, 
 J. V. Ortiz, A. F. Izmaylov, J. L. Sonnenberg, D. Williams-Young, 
 F. Ding, F. Lipparini, F. Egidi, J. Goings, B. Peng, A. Petrone, 
 T. Henderson, D. Ranasinghe, V. G. Zakrzewski, J. Gao, N. Rega, 
 G. Zheng, W. Liang, M. Hada, M. Ehara, K. Toyota, R. Fukuda, 
 J. Hasegawa, M. Ishida, T. Nakajima, Y. Honda, O. Kitao, H. Nakai, 
 T. Vreven, K. Throssell, J. A. Montgomery, Jr., J. E. Peralta, 
 F. Ogliaro, M. J. Bearpark, J. J. Heyd, E. N. Brothers, K. N. Kudin, 
 V. N. Staroverov, T. A. Keith, R. Kobayashi, J. Normand, 
 K. Raghavachari, A. P. Rendell, J. C. Burant, S. S. Iyengar, 
 J. Tomasi, M. Cossi, J. M. Millam, M. Klene, C. Adamo, R. Cammi, 
 J. W. Ochterski, R. L. Martin, K. Morokuma, O. Farkas, 
 J. B. Foresman, and D. J. Fox, Gaussian, Inc., Wallingford CT, 2016.
 
 ******************************************
 Gaussian 16:  ES64L-G16RevA.03 25-Dec-2016
                12-Dec-2022 
 ******************************************
 %nprocshared=24
 Will use up to   24 processors via shared memory.
 %mem=50GB
 -------------------------------------------------------------
 #p M062X/6-311+G(2d,p) nosymm em=GD3 scrf=(smd,solvent=water)
 -------------------------------------------------------------
 1/38=1,172=1/1;
 2/12=2,15=1,17=6,18=5,40=1/2;
 3/5=4,6=6,7=112,11=2,25=1,30=1,70=32201,72=1,74=-55,124=31/1,2,3;
 4//1;
 5/5=2,38=5,53=1/2;
 6/7=2,8=2,9=2,10=2,28=1/1;
 99/5=1,9=1/99;
 Leave Link    1 at Mon Dec 12 20:01:58 2022, MaxMem=  6710886400 cpu:               1.3 elap:               0.1
 (Enter /data0/home/software/g16/l101.exe)
 -------------------
 Title Card Required
 -------------------
 Symbolic Z-matrix:
 Charge =  0 Multiplicity = 1
 C                     2.8519    0.67382   0.06469 
 C                     1.67192  -0.04241  -0.17716 
 C                     1.66754  -1.4321   -0.25397 
 C                     2.88627  -2.06825  -0.07887 
 C                     4.06947  -1.34644   0.1641 
 C                     4.07589   0.03753   0.24058 
 H                     0.75582  -1.98373  -0.44048 
 H                     2.93075  -3.14887  -0.13001 
 H                     4.99846  -1.88697   0.29493 
 H                     4.98287   0.59713   0.4277 
 H                     3.09859   2.80689   0.22563 
 C                     1.17487   2.10426  -0.1439 
 H                     0.62232   3.02803  -0.18623 
 N                     2.48642   2.01441   0.07541 
 N                     0.65383   0.89639  -0.30012 
 P                    -2.93122  -0.1268    0.12447 
 O                    -2.56717  -0.17486   1.57559 
 O                    -4.37233   0.59844  -0.0971 
 H                    -4.2827    1.55855  -0.18799 
 O                    -1.94353   0.4656   -0.85767 
 H                    -0.36546   0.70464  -0.48336 
 O                    -3.32499  -1.63724  -0.30229 
 H                    -3.47721  -1.72344  -1.25541 
 
 ITRead=  0  0  0  0  0  0  0  0  0  0  0  0  0  0  0  0  0  0  0  0
 ITRead=  0  0  0
 MicOpt= -1 -1 -1 -1 -1 -1 -1 -1 -1 -1 -1 -1 -1 -1 -1 -1 -1 -1 -1 -1
 MicOpt= -1 -1 -1
 NAtoms=     23 NQM=       23 NQMF=       0 NMMI=      0 NMMIF=      0
                NMic=       0 NMicF=      0.
                    Isotopes and Nuclear Properties:
 (Nuclear quadrupole moments (NQMom) in fm**2, nuclear magnetic moments (NMagM)
  in nuclear magnetons)

  Atom         1           2           3           4           5           6           7           8           9          10
 IAtWgt=          12          12          12          12          12          12           1           1           1           1
 AtmWgt=  12.0000000  12.0000000  12.0000000  12.0000000  12.0000000  12.0000000   1.0078250   1.0078250   1.0078250   1.0078250
 NucSpn=           0           0           0           0           0           0           1           1           1           1
 AtZEff=  -0.0000000  -0.0000000  -0.0000000  -0.0000000  -0.0000000  -0.0000000  -0.0000000  -0.0000000  -0.0000000  -0.0000000
 NQMom=    0.0000000   0.0000000   0.0000000   0.0000000   0.0000000   0.0000000   0.0000000   0.0000000   0.0000000   0.0000000
 NMagM=    0.0000000   0.0000000   0.0000000   0.0000000   0.0000000   0.0000000   2.7928460   2.7928460   2.7928460   2.7928460
 AtZNuc=   6.0000000   6.0000000   6.0000000   6.0000000   6.0000000   6.0000000   1.0000000   1.0000000   1.0000000   1.0000000

  Atom        11          12          13          14          15          16          17          18          19          20
 IAtWgt=           1          12           1          14          14          31          16          16           1          16
 AtmWgt=   1.0078250  12.0000000   1.0078250  14.0030740  14.0030740  30.9737634  15.9949146  15.9949146   1.0078250  15.9949146
 NucSpn=           1           0           1           2           2           1           0           0           1           0
 AtZEff=  -0.0000000  -0.0000000  -0.0000000  -0.0000000  -0.0000000  -0.0000000  -0.0000000  -0.0000000  -0.0000000  -0.0000000
 NQMom=    0.0000000   0.0000000   0.0000000   2.0440000   2.0440000   0.0000000   0.0000000   0.0000000   0.0000000   0.0000000
 NMagM=    2.7928460   0.0000000   2.7928460   0.4037610   0.4037610   1.1316000   0.0000000   0.0000000   2.7928460   0.0000000
 AtZNuc=   1.0000000   6.0000000   1.0000000   7.0000000   7.0000000  15.0000000   8.0000000   8.0000000   1.0000000   8.0000000

  Atom        21          22          23
 IAtWgt=           1          16           1
 AtmWgt=   1.0078250  15.9949146   1.0078250
 NucSpn=           1           0           1
 AtZEff=  -0.0000000  -0.0000000  -0.0000000
 NQMom=    0.0000000   0.0000000   0.0000000
 NMagM=    2.7928460   0.0000000   2.7928460
 AtZNuc=   1.0000000   8.0000000   1.0000000
 Leave Link  101 at Mon Dec 12 20:01:58 2022, MaxMem=  6710886400 cpu:               2.2 elap:               0.1
 (Enter /data0/home/software/g16/l202.exe)
                          Input orientation:                          
 ---------------------------------------------------------------------
 Center     Atomic      Atomic             Coordinates (Angstroms)
 Number     Number       Type             X           Y           Z
 ---------------------------------------------------------------------
      1          6           0        2.851900    0.673823    0.064687
      2          6           0        1.671924   -0.042406   -0.177155
      3          6           0        1.667535   -1.432099   -0.253968
      4          6           0        2.886274   -2.068248   -0.078872
      5          6           0        4.069471   -1.346436    0.164095
      6          6           0        4.075891    0.037530    0.240577
      7          1           0        0.755815   -1.983725   -0.440481
      8          1           0        2.930749   -3.148869   -0.130013
      9          1           0        4.998458   -1.886974    0.294928
     10          1           0        4.982866    0.597134    0.427697
     11          1           0        3.098590    2.806894    0.225627
     12          6           0        1.174867    2.104257   -0.143902
     13          1           0        0.622319    3.028030   -0.186226
     14          7           0        2.486419    2.014407    0.075408
     15          7           0        0.653831    0.896388   -0.300118
     16         15           0       -2.931215   -0.126795    0.124473
     17          8           0       -2.567173   -0.174858    1.575591
     18          8           0       -4.372331    0.598440   -0.097097
     19          1           0       -4.282701    1.558552   -0.187988
     20          8           0       -1.943526    0.465603   -0.857665
     21          1           0       -0.365456    0.704642   -0.483355
     22          8           0       -3.324988   -1.637236   -0.302288
     23          1           0       -3.477205   -1.723439   -1.255407
 ---------------------------------------------------------------------
                    Distance matrix (angstroms):
                    1          2          3          4          5
     1  C    0.000000
     2  C    1.401362   0.000000
     3  C    2.437041   1.391821   0.000000
     4  C    2.746042   2.363967   1.385882   0.000000
     5  C    2.360891   2.750487   2.439551   1.407125   0.000000
     6  C    1.390669   2.441300   2.864361   2.439577   1.386093
     7  H    3.422182   2.162710   1.081809   2.162582   3.428114
     8  H    3.828459   3.352160   2.135035   1.082744   2.152197
     9  H    3.349389   3.832900   3.406354   2.152651   1.082735
    10  H    2.163024   3.425959   3.946375   3.428786   2.163618
    11  H    2.153311   3.211872   4.499666   4.889254   4.265741
    12  C    2.214067   2.203709   3.572205   4.510315   4.514518
    13  H    3.252119   3.244893   4.581464   5.577550   5.580460
    14  N    1.389553   2.226583   3.557733   4.105089   3.716071
    15  N    2.239224   1.390312   2.539996   3.717771   4.112463
    16  P    5.838577   4.613783   4.795366   6.136267   7.106244
    17  O    5.689415   4.589075   4.781286   6.005186   6.885489
    18  O    7.226436   6.078660   6.373985   7.732975   8.666879
    19  H    7.193686   6.166096   6.659854   8.034911   8.849955
    20  O    4.887760   3.713845   4.123771   5.509436   6.362673
    21  H    3.263844   2.191519   2.958265   4.292584   4.928964
    22  O    6.605271   5.246739   4.996969   6.230206   7.414857
    23  H    6.895439   5.522864   5.249391   6.480509   7.688266
                    6          7          8          9         10
     6  C    0.000000
     7  H    3.946165   0.000000
     8  H    3.406145   2.486823   0.000000
     9  H    2.134900   4.306995   2.459344   0.000000
    10  H    1.082023   5.028173   4.307524   2.487702   0.000000
    11  H    2.936787   5.374228   5.968732   5.064257   2.911077
    12  C    3.582614   4.120092   5.538831   5.544578   4.135094
    13  H    4.588291   5.019976   6.594398   6.598437   5.029963
    14  N    2.541996   4.387048   5.186429   4.645353   2.892234
    15  N    3.569381   2.885334   4.645148   5.193936   4.399979
    16  P    7.009994   4.166720   6.600024   8.124469   7.952905
    17  O    6.779209   4.287050   6.479273   7.861947   7.675723
    18  O    8.473553   5.751815   8.208434   9.702714   9.369905
    19  H    8.506658   6.164262   8.613770   9.911850   9.335637
    20  O    6.133740   3.668745   6.111664   7.419854   7.045876
    21  H    4.549140   2.913143   5.083244   6.007809   5.426428
    22  O    7.607401   4.097817   6.438087   8.348580   8.633987
    23  H    7.898623   4.318601   6.660348   8.617839   8.932564
                   11         12         13         14         15
    11  H    0.000000
    12  C    2.081096   0.000000
    13  H    2.520008   1.077245   0.000000
    14  N    1.012598   1.332794   2.137932   0.000000
    15  N    3.146949   1.324700   2.134915   2.179304   0.000000
    16  P    6.706364   4.680761   4.762044   5.825625   3.752297
    17  O    6.543250   4.706791   4.851325   5.708084   3.878237
    18  O    7.797184   5.748137   5.554942   7.005510   5.039077
    19  H    7.497526   5.484960   5.120409   6.789563   4.982006
    20  O    5.663753   3.594304   3.687875   4.784750   2.691226
    21  H    4.113603   2.108731   2.542069   3.187615   1.053228
    22  O    7.828879   5.854276   6.112234   6.873835   4.717018
    23  H    8.121481   6.126049   6.365980   7.162916   4.984128
                   16         17         18         19         20
    16  P    0.000000
    17  O    1.496857   0.000000
    18  O    1.628458   2.579626   0.000000
    19  H    2.182783   3.009644   0.968561   0.000000
    20  O    1.513625   2.592269   2.548569   2.667348   0.000000
    21  H    2.764753   3.140117   4.026850   4.020101   1.639376
    22  O    1.618213   2.497852   2.477353   3.338164   2.576589
    23  H    2.179781   3.352732   2.744823   3.543963   2.702272
                   21         22         23
    21  H    0.000000
    22  O    3.778360   0.000000
    23  H    4.021769   0.969039   0.000000
 Symmetry turned off by external request.
 Stoichiometry    C7H9N2O4P
 Framework group  C1[X(C7H9N2O4P)]
 Deg. of freedom    63
 Full point group                 C1      NOp   1
 Rotational constants (GHZ):           1.3360848           0.2738033           0.2401482
 Leave Link  202 at Mon Dec 12 20:01:58 2022, MaxMem=  6710886400 cpu:               0.1 elap:               0.0
 (Enter /data0/home/software/g16/l301.exe)
 Standard basis: 6-311+G(2d,p) (5D, 7F)
 Ernie: Thresh=  0.10000D-02 Tol=  0.10000D-05 Strict=F.
   440 basis functions,   674 primitive gaussians,   468 cartesian basis functions
    56 alpha electrons       56 beta electrons
       nuclear repulsion energy       988.5454900833 Hartrees.
 IExCor= 4336 DFT=T Ex+Corr=M062X ExCW=0 ScaHFX=  0.540000
 ScaDFX=  1.000000  1.000000  1.000000  1.000000 ScalE2=  1.000000  1.000000
 IRadAn=      5 IRanWt=     -1 IRanGd=            0 ICorTp=0 IEmpDi=131
 NAtoms=   23 NActive=   23 NUniq=   23 SFac= 1.00D+00 NAtFMM=   60 NAOKFM=F Big=F
 Integral buffers will be    131072 words long.
 Raffenetti 2 integral format.
 Two-electron integral symmetry is turned off.
 R6Disp:  Grimme-D3 Dispersion energy=       -0.0009764019 Hartrees.
 Nuclear repulsion after empirical dispersion term =      988.5445136814 Hartrees.
 ------------------------------------------------------------------------------
 Polarizable Continuum Model (PCM)
 =================================
 Model                : PCM.
 Atomic radii         : SMD-Coulomb.
 Polarization charges : Total charges.
 Charge compensation  : None.
 Solution method      : On-the-fly selection.
 Cavity type          : VdW (van der Waals Surface) (Alpha=1.000).
 Cavity algorithm     : GePol (No added spheres)
                        Default sphere list used, NSphG=   23.
                        Lebedev-Laikov grids with approx.  5.0 points / Ang**2.
                        Smoothing algorithm: York/Karplus (Gamma=1.0000).
                        Polarization charges: spherical gaussians, with
                                              point-specific exponents (IZeta= 3).
                        Self-potential: point-specific (ISelfS= 7).
                        Self-field    : sphere-specific E.n sum rule (ISelfD= 2).
 Solvent              : Water, Eps=  78.355300 Eps(inf)=   1.777849
 ------------------------------------------------------------------------------
 GePol: Number of generator spheres                  =      23
 GePol: Total number of spheres                      =      23
 GePol: Number of exposed spheres                    =      23 (100.00%)
 GePol: Number of points                             =    1860
 GePol: Average weight of points                     =       0.12
 GePol: Minimum weight of points                     =   0.42D-10
 GePol: Maximum weight of points                     =    0.21991
 GePol: Number of points with low weight             =     109
 GePol: Fraction of low-weight points (<1% of avg)   =       5.86%
 GePol: Cavity surface area                          =    225.030 Ang**2
 GePol: Cavity volume                                =    191.589 Ang**3
 ------------------------------------------------------------------------------
 Atomic radii for non-electrostatic terms: SMD-CDS.
 ------------------------------------------------------------------------------
 PCM non-electrostatic energy =         0.0131480039 Hartrees.
 Nuclear repulsion after PCM non-electrostatic terms =      988.5576616854 Hartrees.
 Leave Link  301 at Mon Dec 12 20:01:58 2022, MaxMem=  6710886400 cpu:               2.1 elap:               0.1
 (Enter /data0/home/software/g16/l302.exe)
 NPDir=0 NMtPBC=     1 NCelOv=     1 NCel=       1 NClECP=     1 NCelD=      1
         NCelK=      1 NCelE2=     1 NClLst=     1 CellRange=     0.0.
 One-electron integrals computed using PRISM.
 NBasis=   440 RedAO= T EigKep=  1.22D-06  NBF=   440
 NBsUse=   439 1.00D-06 EigRej=  8.70D-07 NBFU=   439
 Precomputing XC quadrature grid using
 IXCGrd= 4 IRadAn=           5 IRanWt=          -1 IRanGd=           0 AccXCQ= 0.00D+00.
 Generated NRdTot=       0 NPtTot=           0 NUsed=           0 NTot=          32
 NSgBfM=   468   468   468   468   468 MxSgAt=    23 MxSgA2=    23.
 Leave Link  302 at Mon Dec 12 20:01:58 2022, MaxMem=  6710886400 cpu:              11.7 elap:               0.5
 (Enter /data0/home/software/g16/l303.exe)
 DipDrv:  MaxL=1.
 Leave Link  303 at Mon Dec 12 20:01:59 2022, MaxMem=  6710886400 cpu:               1.3 elap:               0.1
 (Enter /data0/home/software/g16/l401.exe)
 ExpMin= 3.48D-02 ExpMax= 7.75D+04 ExpMxC= 2.65D+03 IAcc=3 IRadAn=         5 AccDes= 0.00D+00
 Harris functional with IExCor= 1009 and IRadAn=       5 diagonalized for initial guess.
 HarFok:  IExCor= 1009 AccDes= 0.00D+00 IRadAn=         5 IDoV= 1 UseB2=F ITyADJ=14
 ICtDFT=  3500011 ScaDFX=  1.000000  1.000000  1.000000  1.000000
 FoFCou: FMM=F IPFlag=           0 FMFlag=      100000 FMFlg1=           0
         NFxFlg=           0 DoJE=T BraDBF=F KetDBF=T FulRan=T
         wScrn=  0.000000 ICntrl=       500 IOpCl=  0 I1Cent=   200000004 NGrid=           0
         NMat0=    1 NMatS0=      1 NMatT0=    0 NMatD0=    1 NMtDS0=    0 NMtDT0=    0
 Symmetry not used in FoFCou.
 Harris En= -1023.60270021115    
 JPrj=0 DoOrth=F DoCkMO=F.
 Leave Link  401 at Mon Dec 12 20:02:00 2022, MaxMem=  6710886400 cpu:              44.5 elap:               1.9
 (Enter /data0/home/software/g16/l502.exe)
 Two-electron integral symmetry not used.
 Closed shell SCF:
 Using DIIS extrapolation, IDIIS=  1040.
 NGot=  6710886400 LenX=  6710433895 LenY=  6710214403
 Requested convergence on RMS density matrix=1.00D-08 within 128 cycles.
 Requested convergence on MAX density matrix=1.00D-06.
 Requested convergence on             energy=1.00D-06.
 No special actions if energy rises.
 Fock matrices will be formed incrementally for  20 cycles.

 Cycle   1  Pass 1  IDiag  1:
 FoFJK:  IHMeth= 1 ICntrl=       0 DoSepK=F KAlg= 0 I1Cent=           0 FoldK=F
 IRaf= 820000000 NMat=       1 IRICut=       1 DoRegI=T DoRafI=F ISym2E= 0 IDoP0=0 IntGTp=1.
 FoFCou: FMM=F IPFlag=           0 FMFlag=      100000 FMFlg1=           0
         NFxFlg=           0 DoJE=F BraDBF=F KetDBF=F FulRan=T
         wScrn=  0.000000 ICntrl=         0 IOpCl=  0 I1Cent=           0 NGrid=           0
         NMat0=    1 NMatS0=      1 NMatT0=    0 NMatD0=    1 NMtDS0=    0 NMtDT0=    0
 Symmetry not used in FoFCou.
 Inv3:  Mode=1 IEnd=    10378800.
 Iteration    1 A*A^-1 deviation from unit magnitude is 7.11D-15 for    896.
 Iteration    1 A*A^-1 deviation from orthogonality  is 1.67D-15 for   1304    249.
 Iteration    1 A^-1*A deviation from unit magnitude is 7.11D-15 for    896.
 Iteration    1 A^-1*A deviation from orthogonality  is 5.36D-14 for    899    829.
 E= -1023.57963129881    
 DIIS: error= 3.55D-02 at cycle   1 NSaved=   1.
 NSaved= 1 IEnMin= 1 EnMin= -1023.57963129881     IErMin= 1 ErrMin= 3.55D-02
 ErrMax= 3.55D-02  0.00D+00 EMaxC= 1.00D-01 BMatC= 7.75D-01 BMatP= 7.75D-01
 IDIUse=3 WtCom= 6.45D-01 WtEn= 3.55D-01
 Coeff-Com:  0.100D+01
 Coeff-En:   0.100D+01
 Coeff:      0.100D+01
 Gap=     0.321 Goal=   None    Shift=    0.000
 GapD=    0.321 DampG=1.000 DampE=0.500 DampFc=0.5000 IDamp=-1.
 Damping current iteration by 5.00D-01
 RMSDP=4.80D-03 MaxDP=2.35D-01              OVMax= 1.91D-01

 Cycle   2  Pass 1  IDiag  1:
 RMSU=  2.36D-03    CP:  9.80D-01
 E= -1023.79984352009     Delta-E=       -0.220212221279 Rises=F Damp=T
 DIIS: error= 8.76D-03 at cycle   2 NSaved=   2.
 NSaved= 2 IEnMin= 2 EnMin= -1023.79984352009     IErMin= 2 ErrMin= 8.76D-03
 ErrMax= 8.76D-03  0.00D+00 EMaxC= 1.00D-01 BMatC= 4.61D-02 BMatP= 7.75D-01
 IDIUse=3 WtCom= 9.12D-01 WtEn= 8.76D-02
 Coeff-Com: -0.366D-02 0.100D+01
 Coeff-En:   0.541D-01 0.946D+00
 Coeff:      0.139D-02 0.999D+00
 Gap=     0.366 Goal=   None    Shift=    0.000
 RMSDP=6.05D-03 MaxDP=8.42D-01 DE=-2.20D-01 OVMax= 1.18D-01

 Cycle   3  Pass 1  IDiag  1:
 RMSU=  3.12D-03    CP:  7.39D-01  9.96D-01
 E= -1024.04736645687     Delta-E=       -0.247522936777 Rises=F Damp=F
 DIIS: error= 5.45D-03 at cycle   3 NSaved=   3.
 NSaved= 3 IEnMin= 3 EnMin= -1024.04736645687     IErMin= 3 ErrMin= 5.45D-03
 ErrMax= 5.45D-03  0.00D+00 EMaxC= 1.00D-01 BMatC= 1.17D-02 BMatP= 4.61D-02
 IDIUse=3 WtCom= 9.45D-01 WtEn= 5.45D-02
 Coeff-Com: -0.619D-01 0.296D+00 0.766D+00
 Coeff-En:   0.000D+00 0.000D+00 0.100D+01
 Coeff:     -0.585D-01 0.280D+00 0.778D+00
 Gap=     0.292 Goal=   None    Shift=    0.000
 RMSDP=5.91D-04 MaxDP=5.15D-02 DE=-2.48D-01 OVMax= 2.21D-02

 Cycle   4  Pass 1  IDiag  1:
 RMSU=  5.35D-04    CP:  7.28D-01  9.96D-01  9.68D-01
 E= -1024.05376717454     Delta-E=       -0.006400717675 Rises=F Damp=F
 DIIS: error= 2.31D-03 at cycle   4 NSaved=   4.
 NSaved= 4 IEnMin= 4 EnMin= -1024.05376717454     IErMin= 4 ErrMin= 2.31D-03
 ErrMax= 2.31D-03  0.00D+00 EMaxC= 1.00D-01 BMatC= 2.60D-03 BMatP= 1.17D-02
 IDIUse=3 WtCom= 9.77D-01 WtEn= 2.31D-02
 Coeff-Com: -0.287D-01 0.770D-01 0.388D+00 0.564D+00
 Coeff-En:   0.000D+00 0.000D+00 0.118D+00 0.882D+00
 Coeff:     -0.280D-01 0.752D-01 0.382D+00 0.571D+00
 Gap=     0.290 Goal=   None    Shift=    0.000
 RMSDP=2.03D-04 MaxDP=1.49D-02 DE=-6.40D-03 OVMax= 8.05D-03

 Cycle   5  Pass 1  IDiag  1:
 RMSU=  1.36D-04    CP:  7.23D-01  9.72D-01  9.87D-01  8.83D-01
 E= -1024.05552584341     Delta-E=       -0.001758668863 Rises=F Damp=F
 DIIS: error= 4.29D-04 at cycle   5 NSaved=   5.
 NSaved= 5 IEnMin= 5 EnMin= -1024.05552584341     IErMin= 5 ErrMin= 4.29D-04
 ErrMax= 4.29D-04  0.00D+00 EMaxC= 1.00D-01 BMatC= 9.40D-05 BMatP= 2.60D-03
 IDIUse=3 WtCom= 9.96D-01 WtEn= 4.29D-03
 Coeff-Com: -0.791D-02 0.146D-01 0.115D+00 0.239D+00 0.639D+00
 Coeff-En:   0.000D+00 0.000D+00 0.000D+00 0.000D+00 0.100D+01
 Coeff:     -0.787D-02 0.145D-01 0.114D+00 0.238D+00 0.641D+00
 Gap=     0.291 Goal=   None    Shift=    0.000
 RMSDP=3.90D-05 MaxDP=2.35D-03 DE=-1.76D-03 OVMax= 1.34D-03

 Cycle   6  Pass 1  IDiag  1:
 RMSU=  3.78D-05    CP:  7.23D-01  9.70D-01  9.87D-01  8.97D-01  9.70D-01
 E= -1024.05559169241     Delta-E=       -0.000065849004 Rises=F Damp=F
 DIIS: error= 9.04D-05 at cycle   6 NSaved=   6.
 NSaved= 6 IEnMin= 6 EnMin= -1024.05559169241     IErMin= 6 ErrMin= 9.04D-05
 ErrMax= 9.04D-05  0.00D+00 EMaxC= 1.00D-01 BMatC= 3.56D-06 BMatP= 9.40D-05
 IDIUse=1 WtCom= 1.00D+00 WtEn= 0.00D+00
 Coeff-Com: -0.559D-03 0.305D-04 0.109D-01 0.356D-01 0.195D+00 0.759D+00
 Coeff:     -0.559D-03 0.305D-04 0.109D-01 0.356D-01 0.195D+00 0.759D+00
 Gap=     0.291 Goal=   None    Shift=    0.000
 RMSDP=2.02D-05 MaxDP=1.68D-03 DE=-6.58D-05 OVMax= 9.35D-04

 Cycle   7  Pass 1  IDiag  1:
 RMSU=  1.29D-05    CP:  7.23D-01  9.68D-01  9.89D-01  9.07D-01  9.97D-01
                    CP:  1.19D+00
 E= -1024.05559552115     Delta-E=       -0.000003828739 Rises=F Damp=F
 DIIS: error= 3.49D-05 at cycle   7 NSaved=   7.
 NSaved= 7 IEnMin= 7 EnMin= -1024.05559552115     IErMin= 7 ErrMin= 3.49D-05
 ErrMax= 3.49D-05  0.00D+00 EMaxC= 1.00D-01 BMatC= 2.13D-07 BMatP= 3.56D-06
 IDIUse=1 WtCom= 1.00D+00 WtEn= 0.00D+00
 Coeff-Com:  0.622D-03-0.134D-02-0.849D-02-0.159D-01-0.262D-01 0.108D+00
 Coeff-Com:  0.943D+00
 Coeff:      0.622D-03-0.134D-02-0.849D-02-0.159D-01-0.262D-01 0.108D+00
 Coeff:      0.943D+00
 Gap=     0.291 Goal=   None    Shift=    0.000
 RMSDP=6.35D-06 MaxDP=3.33D-04 DE=-3.83D-06 OVMax= 4.76D-04

 Cycle   8  Pass 1  IDiag  1:
 RMSU=  2.50D-06    CP:  7.22D-01  9.66D-01  9.88D-01  9.12D-01  1.02D+00
                    CP:  1.26D+00  1.12D+00
 E= -1024.05559592847     Delta-E=       -0.000000407324 Rises=F Damp=F
 DIIS: error= 1.53D-05 at cycle   8 NSaved=   8.
 NSaved= 8 IEnMin= 8 EnMin= -1024.05559592847     IErMin= 8 ErrMin= 1.53D-05
 ErrMax= 1.53D-05  0.00D+00 EMaxC= 1.00D-01 BMatC= 8.14D-08 BMatP= 2.13D-07
 IDIUse=1 WtCom= 1.00D+00 WtEn= 0.00D+00
 Coeff-Com:  0.336D-03-0.627D-03-0.487D-02-0.103D-01-0.271D-01-0.341D-02
 Coeff-Com:  0.457D+00 0.589D+00
 Coeff:      0.336D-03-0.627D-03-0.487D-02-0.103D-01-0.271D-01-0.341D-02
 Coeff:      0.457D+00 0.589D+00
 Gap=     0.291 Goal=   None    Shift=    0.000
 RMSDP=1.21D-06 MaxDP=4.30D-05 DE=-4.07D-07 OVMax= 1.70D-04

 Cycle   9  Pass 1  IDiag  1:
 RMSU=  9.83D-07    CP:  7.22D-01  9.66D-01  9.88D-01  9.12D-01  1.02D+00
                    CP:  1.27D+00  1.14D+00  1.14D+00
 E= -1024.05559602165     Delta-E=       -0.000000093173 Rises=F Damp=F
 DIIS: error= 7.21D-06 at cycle   9 NSaved=   9.
 NSaved= 9 IEnMin= 9 EnMin= -1024.05559602165     IErMin= 9 ErrMin= 7.21D-06
 ErrMax= 7.21D-06  0.00D+00 EMaxC= 1.00D-01 BMatC= 5.08D-09 BMatP= 8.14D-08
 IDIUse=1 WtCom= 1.00D+00 WtEn= 0.00D+00
 Coeff-Com: -0.539D-04 0.118D-03 0.629D-03 0.101D-02-0.203D-03-0.166D-01
 Coeff-Com: -0.903D-01 0.986D-01 0.101D+01
 Coeff:     -0.539D-04 0.118D-03 0.629D-03 0.101D-02-0.203D-03-0.166D-01
 Coeff:     -0.903D-01 0.986D-01 0.101D+01
 Gap=     0.291 Goal=   None    Shift=    0.000
 RMSDP=8.46D-07 MaxDP=8.18D-05 DE=-9.32D-08 OVMax= 1.07D-04

 Cycle  10  Pass 1  IDiag  1:
 RMSU=  3.54D-07    CP:  7.22D-01  9.66D-01  9.88D-01  9.12D-01  1.02D+00
                    CP:  1.27D+00  1.16D+00  1.35D+00  1.22D+00
 E= -1024.05559603702     Delta-E=       -0.000000015370 Rises=F Damp=F
 DIIS: error= 2.03D-06 at cycle  10 NSaved=  10.
 NSaved=10 IEnMin=10 EnMin= -1024.05559603702     IErMin=10 ErrMin= 2.03D-06
 ErrMax= 2.03D-06  0.00D+00 EMaxC= 1.00D-01 BMatC= 1.11D-09 BMatP= 5.08D-09
 IDIUse=1 WtCom= 1.00D+00 WtEn= 0.00D+00
 Coeff-Com: -0.514D-04 0.104D-03 0.692D-03 0.132D-02 0.209D-02-0.701D-02
 Coeff-Com: -0.786D-01-0.207D-01 0.425D+00 0.677D+00
 Coeff:     -0.514D-04 0.104D-03 0.692D-03 0.132D-02 0.209D-02-0.701D-02
 Coeff:     -0.786D-01-0.207D-01 0.425D+00 0.677D+00
 Gap=     0.291 Goal=   None    Shift=    0.000
 RMSDP=1.97D-07 MaxDP=1.39D-05 DE=-1.54D-08 OVMax= 3.20D-05

 Cycle  11  Pass 1  IDiag  1:
 RMSU=  1.20D-07    CP:  7.22D-01  9.66D-01  9.88D-01  9.12D-01  1.02D+00
                    CP:  1.27D+00  1.16D+00  1.38D+00  1.30D+00  1.02D+00
 E= -1024.05559603889     Delta-E=       -0.000000001878 Rises=F Damp=F
 DIIS: error= 9.78D-07 at cycle  11 NSaved=  11.
 NSaved=11 IEnMin=11 EnMin= -1024.05559603889     IErMin=11 ErrMin= 9.78D-07
 ErrMax= 9.78D-07  0.00D+00 EMaxC= 1.00D-01 BMatC= 1.67D-10 BMatP= 1.11D-09
 IDIUse=1 WtCom= 1.00D+00 WtEn= 0.00D+00
 Coeff-Com: -0.593D-05 0.116D-04 0.114D-03 0.246D-03 0.607D-03 0.330D-03
 Coeff-Com: -0.966D-02-0.295D-01-0.283D-01 0.253D+00 0.814D+00
 Coeff:     -0.593D-05 0.116D-04 0.114D-03 0.246D-03 0.607D-03 0.330D-03
 Coeff:     -0.966D-02-0.295D-01-0.283D-01 0.253D+00 0.814D+00
 Gap=     0.291 Goal=   None    Shift=    0.000
 RMSDP=9.18D-08 MaxDP=4.76D-06 DE=-1.88D-09 OVMax= 1.36D-05

 Cycle  12  Pass 1  IDiag  1:
 RMSU=  5.39D-08    CP:  7.22D-01  9.66D-01  9.88D-01  9.12D-01  1.02D+00
                    CP:  1.27D+00  1.16D+00  1.39D+00  1.31D+00  1.14D+00
                    CP:  1.18D+00
 E= -1024.05559603924     Delta-E=       -0.000000000344 Rises=F Damp=F
 DIIS: error= 4.03D-07 at cycle  12 NSaved=  12.
 NSaved=12 IEnMin=12 EnMin= -1024.05559603924     IErMin=12 ErrMin= 4.03D-07
 ErrMax= 4.03D-07  0.00D+00 EMaxC= 1.00D-01 BMatC= 1.46D-11 BMatP= 1.67D-10
 IDIUse=1 WtCom= 1.00D+00 WtEn= 0.00D+00
 Coeff-Com:  0.488D-05-0.994D-05-0.466D-04-0.803D-04-0.390D-04 0.110D-02
 Coeff-Com:  0.698D-02-0.980D-02-0.654D-01-0.705D-02 0.225D+00 0.849D+00
 Coeff:      0.488D-05-0.994D-05-0.466D-04-0.803D-04-0.390D-04 0.110D-02
 Coeff:      0.698D-02-0.980D-02-0.654D-01-0.705D-02 0.225D+00 0.849D+00
 Gap=     0.291 Goal=   None    Shift=    0.000
 RMSDP=3.99D-08 MaxDP=3.46D-06 DE=-3.44D-10 OVMax= 5.79D-06

 Cycle  13  Pass 1  IDiag  1:
 RMSU=  1.67D-08    CP:  7.22D-01  9.66D-01  9.88D-01  9.12D-01  1.02D+00
                    CP:  1.27D+00  1.16D+00  1.39D+00  1.32D+00  1.17D+00
                    CP:  1.37D+00  1.16D+00
 E= -1024.05559603927     Delta-E=       -0.000000000035 Rises=F Damp=F
 DIIS: error= 7.50D-08 at cycle  13 NSaved=  13.
 NSaved=13 IEnMin=13 EnMin= -1024.05559603927     IErMin=13 ErrMin= 7.50D-08
 ErrMax= 7.50D-08  0.00D+00 EMaxC= 1.00D-01 BMatC= 3.72D-12 BMatP= 1.46D-11
 IDIUse=1 WtCom= 1.00D+00 WtEn= 0.00D+00
 Coeff-Com:  0.290D-05-0.576D-05-0.342D-04-0.657D-04-0.906D-04 0.483D-03
 Coeff-Com:  0.459D-02-0.702D-03-0.224D-01-0.329D-01-0.142D-01 0.388D+00
 Coeff-Com:  0.677D+00
 Coeff:      0.290D-05-0.576D-05-0.342D-04-0.657D-04-0.906D-04 0.483D-03
 Coeff:      0.459D-02-0.702D-03-0.224D-01-0.329D-01-0.142D-01 0.388D+00
 Coeff:      0.677D+00
 Gap=     0.291 Goal=   None    Shift=    0.000
 RMSDP=1.18D-08 MaxDP=7.00D-07 DE=-3.55D-11 OVMax= 1.16D-06

 Cycle  14  Pass 1  IDiag  1:
 RMSU=  6.45D-09    CP:  7.22D-01  9.66D-01  9.88D-01  9.12D-01  1.02D+00
                    CP:  1.27D+00  1.16D+00  1.39D+00  1.32D+00  1.17D+00
                    CP:  1.40D+00  1.25D+00  1.07D+00
 E= -1024.05559603927     Delta-E=        0.000000000003 Rises=F Damp=F
 DIIS: error= 3.73D-08 at cycle  14 NSaved=  14.
 NSaved=14 IEnMin=13 EnMin= -1024.05559603927     IErMin=14 ErrMin= 3.73D-08
 ErrMax= 3.73D-08  0.00D+00 EMaxC= 1.00D-01 BMatC= 2.59D-13 BMatP= 3.72D-12
 IDIUse=1 WtCom= 1.00D+00 WtEn= 0.00D+00
 Coeff-Com:  0.394D-07-0.114D-06-0.257D-05-0.609D-05-0.219D-04-0.354D-04
 Coeff-Com:  0.263D-03 0.755D-03 0.320D-02-0.732D-02-0.399D-01 0.150D-02
 Coeff-Com:  0.202D+00 0.840D+00
 Coeff:      0.394D-07-0.114D-06-0.257D-05-0.609D-05-0.219D-04-0.354D-04
 Coeff:      0.263D-03 0.755D-03 0.320D-02-0.732D-02-0.399D-01 0.150D-02
 Coeff:      0.202D+00 0.840D+00
 Gap=     0.291 Goal=   None    Shift=    0.000
 RMSDP=5.21D-09 MaxDP=5.64D-07 DE= 2.96D-12 OVMax= 4.04D-07

 Error on total polarization charges =  0.05659
 SCF Done:  E(RM062X) =  -1024.05559604     A.U. after   14 cycles
            NFock= 14  Conv=0.52D-08     -V/T= 2.0030
 KE= 1.021009214011D+03 PE=-4.389269517961D+03 EE= 1.355647046226D+03
 SMD-CDS (non-electrostatic) energy       (kcal/mol) =       8.25
 (included in total energy above)
 Leave Link  502 at Mon Dec 12 20:03:51 2022, MaxMem=  6710886400 cpu:            2614.5 elap:             110.5
 (Enter /data0/home/software/g16/l601.exe)
 Copying SCF densities to generalized density rwf, IOpCl= 0 IROHF=0.

 **********************************************************************

            Population analysis using the SCF density.

 **********************************************************************

 Alpha  occ. eigenvalues --  -78.13578 -19.64241 -19.63994 -19.58532 -19.57599
 Alpha  occ. eigenvalues --  -14.83604 -14.82276 -10.65902 -10.60540 -10.60300
 Alpha  occ. eigenvalues --  -10.56099 -10.56030 -10.55334 -10.55243  -6.94182
 Alpha  occ. eigenvalues --   -5.06146  -5.06055  -5.05893  -1.19770  -1.18693
 Alpha  occ. eigenvalues --   -1.13752  -1.09224  -1.06228  -1.04302  -0.97624
 Alpha  occ. eigenvalues --   -0.86765  -0.86255  -0.76665  -0.74378  -0.71988
 Alpha  occ. eigenvalues --   -0.69363  -0.65134  -0.61661  -0.60949  -0.60194
 Alpha  occ. eigenvalues --   -0.57884  -0.56636  -0.55443  -0.52683  -0.52174
 Alpha  occ. eigenvalues --   -0.52041  -0.50811  -0.49392  -0.46706  -0.44362
 Alpha  occ. eigenvalues --   -0.44263  -0.43799  -0.42959  -0.42644  -0.41913
 Alpha  occ. eigenvalues --   -0.40468  -0.38369  -0.36695  -0.35180  -0.31052
 Alpha  occ. eigenvalues --   -0.30855
 Alpha virt. eigenvalues --   -0.01777   0.00708   0.01926   0.02372   0.02535
 Alpha virt. eigenvalues --    0.03578   0.03662   0.03822   0.04098   0.04922
 Alpha virt. eigenvalues --    0.05705   0.06196   0.06313   0.08141   0.08554
 Alpha virt. eigenvalues --    0.08833   0.09665   0.10479   0.10809   0.12139
 Alpha virt. eigenvalues --    0.12727   0.13187   0.13723   0.14697   0.15034
 Alpha virt. eigenvalues --    0.15492   0.15814   0.16377   0.17141   0.17718
 Alpha virt. eigenvalues --    0.18370   0.18517   0.18750   0.18822   0.19728
 Alpha virt. eigenvalues --    0.19924   0.20002   0.20754   0.20883   0.21424
 Alpha virt. eigenvalues --    0.21943   0.22118   0.22734   0.23090   0.23548
 Alpha virt. eigenvalues --    0.23982   0.24198   0.24808   0.25034   0.25145
 Alpha virt. eigenvalues --    0.25715   0.25870   0.26632   0.26713   0.27120
 Alpha virt. eigenvalues --    0.27595   0.28420   0.29144   0.29371   0.29739
 Alpha virt. eigenvalues --    0.30166   0.30922   0.31318   0.31696   0.32012
 Alpha virt. eigenvalues --    0.33299   0.33889   0.34528   0.35668   0.36215
 Alpha virt. eigenvalues --    0.36299   0.37508   0.37625   0.38391   0.39502
 Alpha virt. eigenvalues --    0.40000   0.41043   0.41612   0.44403   0.45186
 Alpha virt. eigenvalues --    0.46007   0.48087   0.50346   0.50505   0.51167
 Alpha virt. eigenvalues --    0.52585   0.54371   0.54881   0.55292   0.55547
 Alpha virt. eigenvalues --    0.56085   0.56955   0.57406   0.58058   0.59792
 Alpha virt. eigenvalues --    0.60055   0.60988   0.62033   0.63137   0.64022
 Alpha virt. eigenvalues --    0.64937   0.65776   0.66732   0.67189   0.68857
 Alpha virt. eigenvalues --    0.69872   0.70262   0.71100   0.71975   0.73060
 Alpha virt. eigenvalues --    0.75228   0.75672   0.76050   0.76416   0.77997
 Alpha virt. eigenvalues --    0.78779   0.79500   0.79879   0.81892   0.82961
 Alpha virt. eigenvalues --    0.83899   0.83978   0.84711   0.85670   0.86097
 Alpha virt. eigenvalues --    0.87151   0.87500   0.88061   0.88526   0.89738
 Alpha virt. eigenvalues --    0.89937   0.90572   0.91527   0.91856   0.93633
 Alpha virt. eigenvalues --    0.94766   0.99010   1.00799   1.01001   1.03299
 Alpha virt. eigenvalues --    1.04299   1.05415   1.09212   1.11304   1.12284
 Alpha virt. eigenvalues --    1.12768   1.15965   1.16210   1.16648   1.17716
 Alpha virt. eigenvalues --    1.19089   1.20300   1.21261   1.22141   1.22853
 Alpha virt. eigenvalues --    1.23543   1.24334   1.25232   1.26223   1.27750
 Alpha virt. eigenvalues --    1.29256   1.30993   1.31838   1.33141   1.33196
 Alpha virt. eigenvalues --    1.34123   1.34679   1.35794   1.36722   1.37186
 Alpha virt. eigenvalues --    1.39494   1.40734   1.41421   1.42577   1.43447
 Alpha virt. eigenvalues --    1.43899   1.45212   1.46779   1.48010   1.48979
 Alpha virt. eigenvalues --    1.51401   1.52708   1.53074   1.54824   1.56107
 Alpha virt. eigenvalues --    1.57446   1.57616   1.58724   1.60383   1.61290
 Alpha virt. eigenvalues --    1.62330   1.63363   1.64343   1.66495   1.67964
 Alpha virt. eigenvalues --    1.68575   1.70516   1.73100   1.73719   1.74423
 Alpha virt. eigenvalues --    1.74898   1.75271   1.78386   1.79490   1.81406
 Alpha virt. eigenvalues --    1.81687   1.86137   1.87040   1.89349   1.90356
 Alpha virt. eigenvalues --    1.92234   1.93344   1.94084   1.96398   1.98499
 Alpha virt. eigenvalues --    1.99746   2.00630   2.02412   2.02640   2.06526
 Alpha virt. eigenvalues --    2.08683   2.11987   2.13945   2.15967   2.19393
 Alpha virt. eigenvalues --    2.20771   2.21497   2.28148   2.29235   2.29755
 Alpha virt. eigenvalues --    2.31156   2.34285   2.35557   2.43022   2.45288
 Alpha virt. eigenvalues --    2.46451   2.49380   2.53135   2.56683   2.62474
 Alpha virt. eigenvalues --    2.63774   2.64841   2.66224   2.67584   2.69091
 Alpha virt. eigenvalues --    2.69569   2.73225   2.75007   2.78237   2.78500
 Alpha virt. eigenvalues --    2.79539   2.82371   2.82917   2.85724   2.86116
 Alpha virt. eigenvalues --    2.87818   2.89456   2.90781   2.92357   2.92412
 Alpha virt. eigenvalues --    2.96444   2.99179   2.99470   3.07197   3.07640
 Alpha virt. eigenvalues --    3.08095   3.09762   3.14735   3.15615   3.16660
 Alpha virt. eigenvalues --    3.21671   3.24173   3.26969   3.27845   3.28627
 Alpha virt. eigenvalues --    3.29709   3.30632   3.35896   3.36288   3.38004
 Alpha virt. eigenvalues --    3.40653   3.41083   3.42683   3.45441   3.47376
 Alpha virt. eigenvalues --    3.49067   3.49664   3.56264   3.57906   3.58160
 Alpha virt. eigenvalues --    3.58314   3.58485   3.61717   3.64075   3.65680
 Alpha virt. eigenvalues --    3.69375   3.72820   3.74219   3.74845   3.77645
 Alpha virt. eigenvalues --    3.78938   3.81275   3.88901   3.94472   3.95451
 Alpha virt. eigenvalues --    3.96503   3.97255   3.97381   4.00143   4.03506
 Alpha virt. eigenvalues --    4.03892   4.07384   4.13651   4.28772   4.44892
 Alpha virt. eigenvalues --    4.58800   4.70230   4.76285   4.86897   4.97286
 Alpha virt. eigenvalues --    4.99417   5.00105   5.01250   5.04869   5.08369
 Alpha virt. eigenvalues --    5.11014   5.12779   5.13794   5.14897   5.16218
 Alpha virt. eigenvalues --    5.17789   5.23635   5.24590   5.26558   5.27939
 Alpha virt. eigenvalues --    5.33907   5.34756   5.35716   5.44296   5.50618
 Alpha virt. eigenvalues --    5.57336   5.68507   5.71918   5.72038   5.81773
 Alpha virt. eigenvalues --    6.75657   6.75896   6.77131   6.80212   6.82255
 Alpha virt. eigenvalues --    6.83141   6.85035   6.87305   6.91082   6.95595
 Alpha virt. eigenvalues --    6.98257   7.00880   7.04506   7.11460   7.12420
 Alpha virt. eigenvalues --    7.23862   7.28269   7.33760   7.38455   7.41739
 Alpha virt. eigenvalues --    7.67900  14.24518  14.32506  14.36518  23.78219
 Alpha virt. eigenvalues --   24.05330  24.09533  24.13450  24.18626  24.28416
 Alpha virt. eigenvalues --   24.29776  35.72838  35.81199  50.05553  50.06459
 Alpha virt. eigenvalues --   50.10261  50.12817 163.90413
          Condensed to atoms (all electrons):
               1          2          3          4          5          6
     1  C    8.035266  -0.231407   1.120782  -1.168318   0.338509  -3.055947
     2  C   -0.231407   6.468856  -1.014316   0.142410  -0.447817   0.695121
     3  C    1.120782  -1.014316   7.457039  -0.631404   0.508244  -1.364414
     4  C   -1.168318   0.142410  -0.631404   6.427135   0.111363   1.164812
     5  C    0.338509  -0.447817   0.508244   0.111363   5.164843   0.077005
     6  C   -3.055947   0.695121  -1.364414   1.164812   0.077005   9.465934
     7  H    0.009939  -0.055105   0.414567  -0.018922   0.008890  -0.008093
     8  H   -0.000766   0.036765  -0.048955   0.395382  -0.042717   0.012079
     9  H    0.034633  -0.001180   0.015150  -0.050060   0.420902  -0.067385
    10  H   -0.089153   0.008705  -0.010312   0.016496  -0.028197   0.456278
    11  H   -0.009845   0.013409  -0.004391  -0.001007   0.000563  -0.013197
    12  C   -0.008171  -0.150588  -0.004661  -0.030345   0.006843  -0.310097
    13  H    0.009373   0.004709   0.004826   0.000612   0.000419   0.004325
    14  N    0.391271  -0.005117  -0.011109  -0.024034   0.003582  -0.205521
    15  N    0.016478   0.151243  -0.076814  -0.012543  -0.003508  -0.090825
    16  P   -0.005482  -0.004924   0.007521   0.006464   0.001932  -0.006351
    17  O   -0.009736   0.032508   0.001928  -0.005784   0.001760  -0.006082
    18  O    0.000102  -0.000109   0.000100   0.000001  -0.000007   0.000041
    19  H   -0.000266   0.000902  -0.000098   0.000000   0.000004  -0.000034
    20  O    0.027228  -0.023839  -0.054196   0.015735  -0.002752   0.013785
    21  H    0.000892  -0.009076   0.036212  -0.007898   0.005313  -0.037071
    22  O    0.001536  -0.004711  -0.003742   0.006193  -0.000612   0.000962
    23  H    0.000449  -0.001421   0.001073   0.000152  -0.000086   0.000158
               7          8          9         10         11         12
     1  C    0.009939  -0.000766   0.034633  -0.089153  -0.009845  -0.008171
     2  C   -0.055105   0.036765  -0.001180   0.008705   0.013409  -0.150588
     3  C    0.414567  -0.048955   0.015150  -0.010312  -0.004391  -0.004661
     4  C   -0.018922   0.395382  -0.050060   0.016496  -0.001007  -0.030345
     5  C    0.008890  -0.042717   0.420902  -0.028197   0.000563   0.006843
     6  C   -0.008093   0.012079  -0.067385   0.456278  -0.013197  -0.310097
     7  H    0.456514  -0.003574  -0.000168   0.000044   0.000014   0.002510
     8  H   -0.003574   0.482375  -0.003966  -0.000169  -0.000001   0.000260
     9  H   -0.000168  -0.003966   0.481974  -0.003732  -0.000006   0.000227
    10  H    0.000044  -0.000169  -0.003732   0.459205   0.001207   0.002186
    11  H    0.000014  -0.000001  -0.000006   0.001207   0.281025  -0.027382
    12  C    0.002510   0.000260   0.000227   0.002186  -0.027382   5.020361
    13  H    0.000002  -0.000000  -0.000000   0.000001  -0.002582   0.411497
    14  N   -0.000726   0.000303  -0.000214   0.001093   0.356866   0.439185
    15  N   -0.001481  -0.000173   0.000235  -0.000873   0.001104   0.416197
    16  P   -0.000138  -0.000014   0.000004  -0.000000  -0.000019   0.002509
    17  O   -0.000449   0.000002  -0.000000   0.000000  -0.000003  -0.000100
    18  O   -0.000018   0.000000  -0.000000  -0.000000  -0.000000   0.000021
    19  H   -0.000001   0.000000  -0.000000   0.000000   0.000000  -0.000188
    20  O    0.000503  -0.000002   0.000000  -0.000002  -0.000038  -0.004952
    21  H    0.001679  -0.000008  -0.000001   0.000020  -0.000006  -0.027833
    22  O    0.000411  -0.000001   0.000000  -0.000000   0.000000  -0.000669
    23  H   -0.000121   0.000000   0.000000  -0.000000  -0.000000  -0.000263
              13         14         15         16         17         18
     1  C    0.009373   0.391271   0.016478  -0.005482  -0.009736   0.000102
     2  C    0.004709  -0.005117   0.151243  -0.004924   0.032508  -0.000109
     3  C    0.004826  -0.011109  -0.076814   0.007521   0.001928   0.000100
     4  C    0.000612  -0.024034  -0.012543   0.006464  -0.005784   0.000001
     5  C    0.000419   0.003582  -0.003508   0.001932   0.001760  -0.000007
     6  C    0.004325  -0.205521  -0.090825  -0.006351  -0.006082   0.000041
     7  H    0.000002  -0.000726  -0.001481  -0.000138  -0.000449  -0.000018
     8  H   -0.000000   0.000303  -0.000173  -0.000014   0.000002   0.000000
     9  H   -0.000000  -0.000214   0.000235   0.000004  -0.000000  -0.000000
    10  H    0.000001   0.001093  -0.000873  -0.000000   0.000000  -0.000000
    11  H   -0.002582   0.356866   0.001104  -0.000019  -0.000003  -0.000000
    12  C    0.411497   0.439185   0.416197   0.002509  -0.000100   0.000021
    13  H    0.400280  -0.025994  -0.037420  -0.000655  -0.000094   0.000009
    14  N   -0.025994   6.390256   0.007091  -0.000943  -0.000065  -0.000011
    15  N   -0.037420   0.007091   6.694210  -0.019830  -0.019112   0.000798
    16  P   -0.000655  -0.000943  -0.019830  12.191646   0.542458   0.236145
    17  O   -0.000094  -0.000065  -0.019112   0.542458   8.432804  -0.009271
    18  O    0.000009  -0.000011   0.000798   0.236145  -0.009271   8.130694
    19  H    0.000009   0.000017  -0.000667   0.000303  -0.005354   0.287291
    20  O    0.000047   0.002670   0.084355   0.388804  -0.069024  -0.001174
    21  H   -0.001837  -0.003092   0.250762   0.023136   0.015945  -0.000064
    22  O    0.000003   0.000001  -0.001040   0.231571  -0.037602   0.011398
    23  H   -0.000000   0.000000   0.001360   0.011036   0.004810  -0.011888
              19         20         21         22         23
     1  C   -0.000266   0.027228   0.000892   0.001536   0.000449
     2  C    0.000902  -0.023839  -0.009076  -0.004711  -0.001421
     3  C   -0.000098  -0.054196   0.036212  -0.003742   0.001073
     4  C    0.000000   0.015735  -0.007898   0.006193   0.000152
     5  C    0.000004  -0.002752   0.005313  -0.000612  -0.000086
     6  C   -0.000034   0.013785  -0.037071   0.000962   0.000158
     7  H   -0.000001   0.000503   0.001679   0.000411  -0.000121
     8  H    0.000000  -0.000002  -0.000008  -0.000001   0.000000
     9  H   -0.000000   0.000000  -0.000001   0.000000   0.000000
    10  H    0.000000  -0.000002   0.000020  -0.000000  -0.000000
    11  H    0.000000  -0.000038  -0.000006   0.000000  -0.000000
    12  C   -0.000188  -0.004952  -0.027833  -0.000669  -0.000263
    13  H    0.000009   0.000047  -0.001837   0.000003  -0.000000
    14  N    0.000017   0.002670  -0.003092   0.000001   0.000000
    15  N   -0.000667   0.084355   0.250762  -0.001040   0.001360
    16  P    0.000303   0.388804   0.023136   0.231571   0.011036
    17  O   -0.005354  -0.069024   0.015945  -0.037602   0.004810
    18  O    0.287291  -0.001174  -0.000064   0.011398  -0.011888
    19  H    0.358989  -0.008215   0.000238   0.001646   0.001323
    20  O   -0.008215   8.585106  -0.038996  -0.000684  -0.013417
    21  H    0.000238  -0.038996   0.296373   0.001169  -0.000881
    22  O    0.001646  -0.000684   0.001169   8.117912   0.280611
    23  H    0.001323  -0.013417  -0.000881   0.280611   0.373203
 Mulliken charges:
               1
     1  C    0.592630
     2  C    0.394983
     3  C   -0.343033
     4  C   -0.336441
     5  C   -0.124476
     6  C   -0.725481
     7  H    0.193723
     8  H    0.173181
     9  H    0.173587
    10  H    0.187204
    11  H    0.404289
    12  C    0.263454
    13  H    0.232472
    14  N   -0.315509
    15  N   -0.359548
    16  P    1.394829
    17  O   -0.869538
    18  O   -0.644058
    19  H    0.364102
    20  O   -0.900943
    21  H    0.495023
    22  O   -0.604350
    23  H    0.353901
 Sum of Mulliken charges =  -0.00000
 Mulliken charges with hydrogens summed into heavy atoms:
               1
     1  C    0.592630
     2  C    0.394983
     3  C   -0.149310
     4  C   -0.163260
     5  C    0.049111
     6  C   -0.538277
    12  C    0.495926
    14  N    0.088780
    15  N    0.135474
    16  P    1.394829
    17  O   -0.869538
    18  O   -0.279956
    20  O   -0.900943
    22  O   -0.250450
 Electronic spatial extent (au):  <R**2>=           4281.5307
 Charge=             -0.0000 electrons
 Dipole moment (field-independent basis, Debye):
    X=             16.0966    Y=              7.8097    Z=             -4.6646  Tot=             18.4892
 Quadrupole moment (field-independent basis, Debye-Ang):
   XX=            -81.9392   YY=            -57.0846   ZZ=           -100.2788
   XY=              4.8387   XZ=             17.9054   YZ=              6.1075
 Traceless Quadrupole moment (field-independent basis, Debye-Ang):
   XX=             -2.1717   YY=             22.6830   ZZ=            -20.5113
   XY=              4.8387   XZ=             17.9054   YZ=              6.1075
 Octapole moment (field-independent basis, Debye-Ang**2):
  XXX=            170.9990  YYY=             69.6733  ZZZ=            -20.9114  XYY=             33.6479
  XXY=             63.8299  XXZ=            -34.5065  XZZ=             -5.2617  YZZ=             -0.1896
  YYZ=             -8.0045  XYZ=            -12.0119
 Hexadecapole moment (field-independent basis, Debye-Ang**3):
 XXXX=          -4177.2474 YYYY=           -629.7387 ZZZZ=           -268.3650 XXXY=            -11.9927
 XXXZ=            240.9716 YYYX=             60.6005 YYYZ=             21.0587 ZZZX=             60.9741
 ZZZY=             15.6718 XXYY=           -631.0011 XXZZ=           -852.3219 YYZZ=           -189.9392
 XXYZ=             57.1314 YYXZ=             39.9213 ZZXY=             40.3520
 N-N= 9.885576616854D+02 E-N=-4.389269520835D+03  KE= 1.021009214011D+03
 No NMR shielding tensors so no spin-rotation constants.
 Leave Link  601 at Mon Dec 12 20:03:51 2022, MaxMem=  6710886400 cpu:               4.1 elap:               0.2
 (Enter /data0/home/software/g16/l9999.exe)
 1\1\GINC-LOCALHOST\SP\RM062X\6-311+G(2d,p)\C7H9N2O4P1\WUHANYU\12-Dec-2
 022\0\\#p M062X/6-311+G(2d,p) nosymm em=GD3 scrf=(smd,solvent=water)\\
 Title Card Required\\0,1\C,0,2.8519,0.673823,0.064687\C,0,1.671924,-0.
 042406,-0.177155\C,0,1.667535,-1.432099,-0.253968\C,0,2.886274,-2.0682
 48,-0.078872\C,0,4.069471,-1.346436,0.164095\C,0,4.075891,0.03753,0.24
 0577\H,0,0.755815,-1.983725,-0.440481\H,0,2.930749,-3.148869,-0.130013
 \H,0,4.998458,-1.886974,0.294928\H,0,4.982866,0.597134,0.427697\H,0,3.
 09859,2.806894,0.225627\C,0,1.174867,2.104257,-0.143902\H,0,0.622319,3
 .02803,-0.186226\N,0,2.486419,2.014407,0.075408\N,0,0.653831,0.896388,
 -0.300118\P,0,-2.931215,-0.126795,0.124473\O,0,-2.567173,-0.174858,1.5
 75591\O,0,-4.372331,0.59844,-0.097097\H,0,-4.282701,1.558552,-0.187988
 \O,0,-1.943526,0.465603,-0.857665\H,0,-0.365456,0.704642,-0.483355\O,0
 ,-3.324988,-1.637236,-0.302288\H,0,-3.477205,-1.723439,-1.255407\\Vers
 ion=ES64L-G16RevA.03\HF=-1024.055596\RMSD=5.213e-09\Dipole=6.3328875,3
 .0725879,-1.8351911\Quadrupole=-1.6146002,16.8642419,-15.2496417,3.597
 4607,13.3122041,4.5407845\PG=C01 [X(C7H9N2O4P1)]\\@


 Change starts when someone sees the next step.
                            -- William Drayton
 Job cpu time:       0 days  0 hours 44 minutes 42.8 seconds.
 Elapsed time:       0 days  0 hours  1 minutes 53.5 seconds.
 File lengths (MBytes):  RWF=    162 Int=      0 D2E=      0 Chk=     13 Scr=      1
 Normal termination of Gaussian 16 at Mon Dec 12 20:03:51 2022.
