 Entering Gaussian System, Link 0=g16
 Initial command:
 /data0/home/software/g16/l1.exe "/data0/home/software/g16/scratch/Gau-1674832.inp" -scrdir="/data0/home/software/g16/scratch/"
 Default is to use a total of  22 processors:
                               22 via shared-memory
                                1 via Linda
 Entering Link 1 = /data0/home/software/g16/l1.exe PID=   1674833.
  
 Copyright (c) 1988,1990,1992,1993,1995,1998,2003,2009,2016,
            Gaussian, Inc.  All Rights Reserved.
  
 This is part of the Gaussian(R) 16 program.  It is based on
 the Gaussian(R) 09 system (copyright 2009, Gaussian, Inc.),
 the Gaussian(R) 03 system (copyright 2003, Gaussian, Inc.),
 the Gaussian(R) 98 system (copyright 1998, Gaussian, Inc.),
 the Gaussian(R) 94 system (copyright 1995, Gaussian, Inc.),
 the Gaussian 92(TM) system (copyright 1992, Gaussian, Inc.),
 the Gaussian 90(TM) system (copyright 1990, Gaussian, Inc.),
 the Gaussian 88(TM) system (copyright 1988, Gaussian, Inc.),
 the Gaussian 86(TM) system (copyright 1986, Carnegie Mellon
 University), and the Gaussian 82(TM) system (copyright 1983,
 Carnegie Mellon University). Gaussian is a federally registered
 trademark of Gaussian, Inc.
  
 This software contains proprietary and confidential information,
 including trade secrets, belonging to Gaussian, Inc.
  
 This software is provided under written license and may be
 used, copied, transmitted, or stored only in accord with that
 written license.
  
 The following legend is applicable only to US Government
 contracts under FAR:
  
                    RESTRICTED RIGHTS LEGEND
  
 Use, reproduction and disclosure by the US Government is
 subject to restrictions as set forth in subparagraphs (a)
 and (c) of the Commercial Computer Software - Restricted
 Rights clause in FAR 52.227-19.
  
 Gaussian, Inc.
 340 Quinnipiac St., Bldg. 40, Wallingford CT 06492
  
  
 ---------------------------------------------------------------
 Warning -- This program may not be used in any manner that
 competes with the business of Gaussian, Inc. or will provide
 assistance to any competitor of Gaussian, Inc.  The licensee
 of this program is prohibited from giving any competitor of
 Gaussian, Inc. access to this program.  By using this program,
 the user acknowledges that Gaussian, Inc. is engaged in the
 business of creating and licensing software in the field of
 computational chemistry and represents and warrants to the
 licensee that it is not a competitor of Gaussian, Inc. and that
 it will not use this program in any manner prohibited above.
 ---------------------------------------------------------------
  

 Cite this work as:
 Gaussian 16, Revision A.03,
 M. J. Frisch, G. W. Trucks, H. B. Schlegel, G. E. Scuseria, 
 M. A. Robb, J. R. Cheeseman, G. Scalmani, V. Barone, 
 G. A. Petersson, H. Nakatsuji, X. Li, M. Caricato, A. V. Marenich, 
 J. Bloino, B. G. Janesko, R. Gomperts, B. Mennucci, H. P. Hratchian, 
 J. V. Ortiz, A. F. Izmaylov, J. L. Sonnenberg, D. Williams-Young, 
 F. Ding, F. Lipparini, F. Egidi, J. Goings, B. Peng, A. Petrone, 
 T. Henderson, D. Ranasinghe, V. G. Zakrzewski, J. Gao, N. Rega, 
 G. Zheng, W. Liang, M. Hada, M. Ehara, K. Toyota, R. Fukuda, 
 J. Hasegawa, M. Ishida, T. Nakajima, Y. Honda, O. Kitao, H. Nakai, 
 T. Vreven, K. Throssell, J. A. Montgomery, Jr., J. E. Peralta, 
 F. Ogliaro, M. J. Bearpark, J. J. Heyd, E. N. Brothers, K. N. Kudin, 
 V. N. Staroverov, T. A. Keith, R. Kobayashi, J. Normand, 
 K. Raghavachari, A. P. Rendell, J. C. Burant, S. S. Iyengar, 
 J. Tomasi, M. Cossi, J. M. Millam, M. Klene, C. Adamo, R. Cammi, 
 J. W. Ochterski, R. L. Martin, K. Morokuma, O. Farkas, 
 J. B. Foresman, and D. J. Fox, Gaussian, Inc., Wallingford CT, 2016.
 
 ******************************************
 Gaussian 16:  ES64L-G16RevA.03 25-Dec-2016
                12-Dec-2022 
 ******************************************
 %nprocshared=24
 Will use up to   24 processors via shared memory.
 %mem=50GB
 -------------------------------------------------------------
 #p M062X/6-311+G(2d,p) nosymm em=GD3 scrf=(smd,solvent=water)
 -------------------------------------------------------------
 1/38=1,172=1/1;
 2/12=2,15=1,17=6,18=5,40=1/2;
 3/5=4,6=6,7=112,11=2,25=1,30=1,70=32201,72=1,74=-55,124=31/1,2,3;
 4//1;
 5/5=2,38=5,53=1/2;
 6/7=2,8=2,9=2,10=2,28=1/1;
 99/5=1,9=1/99;
 Leave Link    1 at Mon Dec 12 20:11:12 2022, MaxMem=  6710886400 cpu:               1.4 elap:               0.1
 (Enter /data0/home/software/g16/l101.exe)
 -------------------
 Title Card Required
 -------------------
 Symbolic Z-matrix:
 Charge =  0 Multiplicity = 1
 C                     2.8519    0.67382   0.06469 
 C                     1.67192  -0.04241  -0.17716 
 C                     1.66754  -1.4321   -0.25397 
 C                     2.88627  -2.06825  -0.07887 
 C                     4.06947  -1.34644   0.1641 
 C                     4.07589   0.03753   0.24058 
 H                     0.75582  -1.98373  -0.44048 
 H                     2.93075  -3.14887  -0.13001 
 H                     4.99846  -1.88697   0.29493 
 H                     4.98287   0.59713   0.4277 
 H                     3.09859   2.80689   0.22563 
 C                     1.17487   2.10426  -0.1439 
 H                     0.62232   3.02803  -0.18623 
 N                     2.48642   2.01441   0.07541 
 N                     0.65383   0.89639  -0.30012 
 
 ITRead=  0  0  0  0  0  0  0  0  0  0  0  0  0  0  0
 MicOpt= -1 -1 -1 -1 -1 -1 -1 -1 -1 -1 -1 -1 -1 -1 -1
 NAtoms=     15 NQM=       15 NQMF=       0 NMMI=      0 NMMIF=      0
                NMic=       0 NMicF=      0.
                    Isotopes and Nuclear Properties:
 (Nuclear quadrupole moments (NQMom) in fm**2, nuclear magnetic moments (NMagM)
  in nuclear magnetons)

  Atom         1           2           3           4           5           6           7           8           9          10
 IAtWgt=          12          12          12          12          12          12           1           1           1           1
 AtmWgt=  12.0000000  12.0000000  12.0000000  12.0000000  12.0000000  12.0000000   1.0078250   1.0078250   1.0078250   1.0078250
 NucSpn=           0           0           0           0           0           0           1           1           1           1
 AtZEff=  -0.0000000  -0.0000000  -0.0000000  -0.0000000  -0.0000000  -0.0000000  -0.0000000  -0.0000000  -0.0000000  -0.0000000
 NQMom=    0.0000000   0.0000000   0.0000000   0.0000000   0.0000000   0.0000000   0.0000000   0.0000000   0.0000000   0.0000000
 NMagM=    0.0000000   0.0000000   0.0000000   0.0000000   0.0000000   0.0000000   2.7928460   2.7928460   2.7928460   2.7928460
 AtZNuc=   6.0000000   6.0000000   6.0000000   6.0000000   6.0000000   6.0000000   1.0000000   1.0000000   1.0000000   1.0000000

  Atom        11          12          13          14          15
 IAtWgt=           1          12           1          14          14
 AtmWgt=   1.0078250  12.0000000   1.0078250  14.0030740  14.0030740
 NucSpn=           1           0           1           2           2
 AtZEff=  -0.0000000  -0.0000000  -0.0000000  -0.0000000  -0.0000000
 NQMom=    0.0000000   0.0000000   0.0000000   2.0440000   2.0440000
 NMagM=    2.7928460   0.0000000   2.7928460   0.4037610   0.4037610
 AtZNuc=   1.0000000   6.0000000   1.0000000   7.0000000   7.0000000
 Leave Link  101 at Mon Dec 12 20:11:12 2022, MaxMem=  6710886400 cpu:               2.1 elap:               0.1
 (Enter /data0/home/software/g16/l202.exe)
                          Input orientation:                          
 ---------------------------------------------------------------------
 Center     Atomic      Atomic             Coordinates (Angstroms)
 Number     Number       Type             X           Y           Z
 ---------------------------------------------------------------------
      1          6           0        2.851900    0.673823    0.064687
      2          6           0        1.671924   -0.042406   -0.177155
      3          6           0        1.667535   -1.432099   -0.253968
      4          6           0        2.886274   -2.068248   -0.078872
      5          6           0        4.069471   -1.346436    0.164095
      6          6           0        4.075891    0.037530    0.240577
      7          1           0        0.755815   -1.983725   -0.440481
      8          1           0        2.930749   -3.148869   -0.130013
      9          1           0        4.998458   -1.886974    0.294928
     10          1           0        4.982866    0.597134    0.427697
     11          1           0        3.098590    2.806894    0.225627
     12          6           0        1.174867    2.104257   -0.143902
     13          1           0        0.622319    3.028030   -0.186226
     14          7           0        2.486419    2.014407    0.075408
     15          7           0        0.653831    0.896388   -0.300118
 ---------------------------------------------------------------------
                    Distance matrix (angstroms):
                    1          2          3          4          5
     1  C    0.000000
     2  C    1.401362   0.000000
     3  C    2.437041   1.391821   0.000000
     4  C    2.746042   2.363967   1.385882   0.000000
     5  C    2.360891   2.750487   2.439551   1.407125   0.000000
     6  C    1.390669   2.441300   2.864361   2.439577   1.386093
     7  H    3.422182   2.162710   1.081809   2.162582   3.428114
     8  H    3.828459   3.352160   2.135035   1.082744   2.152197
     9  H    3.349389   3.832900   3.406354   2.152651   1.082735
    10  H    2.163024   3.425959   3.946375   3.428786   2.163618
    11  H    2.153311   3.211872   4.499666   4.889254   4.265741
    12  C    2.214067   2.203709   3.572205   4.510315   4.514518
    13  H    3.252119   3.244893   4.581464   5.577550   5.580460
    14  N    1.389553   2.226583   3.557733   4.105089   3.716071
    15  N    2.239224   1.390312   2.539996   3.717771   4.112463
                    6          7          8          9         10
     6  C    0.000000
     7  H    3.946165   0.000000
     8  H    3.406145   2.486823   0.000000
     9  H    2.134900   4.306995   2.459344   0.000000
    10  H    1.082023   5.028173   4.307524   2.487702   0.000000
    11  H    2.936787   5.374228   5.968732   5.064257   2.911077
    12  C    3.582614   4.120092   5.538831   5.544578   4.135094
    13  H    4.588291   5.019976   6.594398   6.598437   5.029963
    14  N    2.541996   4.387048   5.186429   4.645353   2.892234
    15  N    3.569381   2.885334   4.645148   5.193936   4.399979
                   11         12         13         14         15
    11  H    0.000000
    12  C    2.081096   0.000000
    13  H    2.520008   1.077245   0.000000
    14  N    1.012598   1.332794   2.137932   0.000000
    15  N    3.146949   1.324700   2.134915   2.179304   0.000000
 Symmetry turned off by external request.
 Stoichiometry    C7H6N2
 Framework group  C1[X(C7H6N2)]
 Deg. of freedom    39
 Full point group                 C1      NOp   1
 Rotational constants (GHZ):           4.0107696           1.6735717           1.1808424
 Leave Link  202 at Mon Dec 12 20:11:12 2022, MaxMem=  6710886400 cpu:               0.1 elap:               0.0
 (Enter /data0/home/software/g16/l301.exe)
 Standard basis: 6-311+G(2d,p) (5D, 7F)
 Ernie: Thresh=  0.10000D-02 Tol=  0.10000D-05 Strict=F.
   279 basis functions,   426 primitive gaussians,   297 cartesian basis functions
    31 alpha electrons       31 beta electrons
       nuclear repulsion energy       405.3810547585 Hartrees.
 IExCor= 4336 DFT=T Ex+Corr=M062X ExCW=0 ScaHFX=  0.540000
 ScaDFX=  1.000000  1.000000  1.000000  1.000000 ScalE2=  1.000000  1.000000
 IRadAn=      5 IRanWt=     -1 IRanGd=            0 ICorTp=0 IEmpDi=131
 NAtoms=   15 NActive=   15 NUniq=   15 SFac= 1.00D+00 NAtFMM=   60 NAOKFM=F Big=F
 Integral buffers will be    131072 words long.
 Raffenetti 2 integral format.
 Two-electron integral symmetry is turned off.
 R6Disp:  Grimme-D3 Dispersion energy=       -0.0002865656 Hartrees.
 Nuclear repulsion after empirical dispersion term =      405.3807681929 Hartrees.
 ------------------------------------------------------------------------------
 Polarizable Continuum Model (PCM)
 =================================
 Model                : PCM.
 Atomic radii         : SMD-Coulomb.
 Polarization charges : Total charges.
 Charge compensation  : None.
 Solution method      : On-the-fly selection.
 Cavity type          : VdW (van der Waals Surface) (Alpha=1.000).
 Cavity algorithm     : GePol (No added spheres)
                        Default sphere list used, NSphG=   15.
                        Lebedev-Laikov grids with approx.  5.0 points / Ang**2.
                        Smoothing algorithm: York/Karplus (Gamma=1.0000).
                        Polarization charges: spherical gaussians, with
                                              point-specific exponents (IZeta= 3).
                        Self-potential: point-specific (ISelfS= 7).
                        Self-field    : sphere-specific E.n sum rule (ISelfD= 2).
 Solvent              : Water, Eps=  78.355300 Eps(inf)=   1.777849
 ------------------------------------------------------------------------------
 Spheres list:
 ISph  on   Nord     Re0    Alpha      Xe            Ye            Ze
    1   C      1    1.8500  1.000      2.851900      0.673823      0.064687
    2   C      2    1.8500  1.000      1.671924     -0.042406     -0.177155
    3   C      3    1.8500  1.000      1.667535     -1.432099     -0.253968
    4   C      4    1.8500  1.000      2.886274     -2.068248     -0.078872
    5   C      5    1.8500  1.000      4.069471     -1.346436      0.164095
    6   C      6    1.8500  1.000      4.075891      0.037530      0.240577
    7   H      7    1.2000  1.000      0.755815     -1.983725     -0.440481
    8   H      8    1.2000  1.000      2.930749     -3.148869     -0.130013
    9   H      9    1.2000  1.000      4.998458     -1.886974      0.294928
   10   H     10    1.2000  1.000      4.982866      0.597134      0.427697
   11   H     11    1.2000  1.000      3.098590      2.806894      0.225627
   12   C     12    1.8500  1.000      1.174867      2.104257     -0.143902
   13   H     13    1.2000  1.000      0.622319      3.028030     -0.186226
   14   N     14    1.8900  1.000      2.486419      2.014407      0.075408
   15   N     15    1.8900  1.000      0.653831      0.896388     -0.300118
 ------------------------------------------------------------------------------
 GePol: Number of generator spheres                  =      15
 GePol: Total number of spheres                      =      15
 GePol: Number of exposed spheres                    =      15 (100.00%)
 GePol: Number of points                             =    1307
 GePol: Average weight of points                     =       0.11
 GePol: Minimum weight of points                     =   0.42D-10
 GePol: Maximum weight of points                     =    0.17992
 GePol: Number of points with low weight             =      74
 GePol: Fraction of low-weight points (<1% of avg)   =       5.66%
 GePol: Cavity surface area                          =    143.131 Ang**2
 GePol: Cavity volume                                =    126.197 Ang**3
 ------------------------------------------------------------------------------
 Atomic radii for non-electrostatic terms: SMD-CDS.
 ------------------------------------------------------------------------------
 PCM non-electrostatic energy =         0.0024508753 Hartrees.
 Nuclear repulsion after PCM non-electrostatic terms =      405.3832190682 Hartrees.
 Leave Link  301 at Mon Dec 12 20:11:12 2022, MaxMem=  6710886400 cpu:               1.8 elap:               0.1
 (Enter /data0/home/software/g16/l302.exe)
 NPDir=0 NMtPBC=     1 NCelOv=     1 NCel=       1 NClECP=     1 NCelD=      1
         NCelK=      1 NCelE2=     1 NClLst=     1 CellRange=     0.0.
 One-electron integrals computed using PRISM.
 NBasis=   279 RedAO= T EigKep=  1.33D-06  NBF=   279
 NBsUse=   279 1.00D-06 EigRej= -1.00D+00 NBFU=   279
 Precomputing XC quadrature grid using
 IXCGrd= 4 IRadAn=           5 IRanWt=          -1 IRanGd=           0 AccXCQ= 0.00D+00.
 Generated NRdTot=       0 NPtTot=           0 NUsed=           0 NTot=          32
 NSgBfM=   297   297   297   297   297 MxSgAt=    15 MxSgA2=    15.
 Leave Link  302 at Mon Dec 12 20:11:13 2022, MaxMem=  6710886400 cpu:               5.8 elap:               0.3
 (Enter /data0/home/software/g16/l303.exe)
 DipDrv:  MaxL=1.
 Leave Link  303 at Mon Dec 12 20:11:13 2022, MaxMem=  6710886400 cpu:               0.7 elap:               0.0
 (Enter /data0/home/software/g16/l401.exe)
 ExpMin= 4.38D-02 ExpMax= 6.29D+03 ExpMxC= 9.49D+02 IAcc=3 IRadAn=         5 AccDes= 0.00D+00
 Harris functional with IExCor= 1009 and IRadAn=       5 diagonalized for initial guess.
 HarFok:  IExCor= 1009 AccDes= 0.00D+00 IRadAn=         5 IDoV= 1 UseB2=F ITyADJ=14
 ICtDFT=  3500011 ScaDFX=  1.000000  1.000000  1.000000  1.000000
 FoFCou: FMM=F IPFlag=           0 FMFlag=      100000 FMFlg1=           0
         NFxFlg=           0 DoJE=T BraDBF=F KetDBF=T FulRan=T
         wScrn=  0.000000 ICntrl=       500 IOpCl=  0 I1Cent=   200000004 NGrid=           0
         NMat0=    1 NMatS0=      1 NMatT0=    0 NMatD0=    1 NMtDS0=    0 NMtDT0=    0
 Symmetry not used in FoFCou.
 Harris En= -379.618569230445    
 JPrj=0 DoOrth=F DoCkMO=F.
 Leave Link  401 at Mon Dec 12 20:11:14 2022, MaxMem=  6710886400 cpu:              21.9 elap:               0.9
 (Enter /data0/home/software/g16/l502.exe)
 Two-electron integral symmetry not used.
 Closed shell SCF:
 Using DIIS extrapolation, IDIIS=  1040.
 NGot=  6710886400 LenX=  6710700762 LenY=  6710612112
 Requested convergence on RMS density matrix=1.00D-08 within 128 cycles.
 Requested convergence on MAX density matrix=1.00D-06.
 Requested convergence on             energy=1.00D-06.
 No special actions if energy rises.
 Fock matrices will be formed incrementally for  20 cycles.

 Cycle   1  Pass 1  IDiag  1:
 FoFJK:  IHMeth= 1 ICntrl=       0 DoSepK=F KAlg= 0 I1Cent=           0 FoldK=F
 IRaf= 960000000 NMat=       1 IRICut=       1 DoRegI=T DoRafI=F ISym2E= 0 IDoP0=0 IntGTp=1.
 FoFCou: FMM=F IPFlag=           0 FMFlag=      100000 FMFlg1=           0
         NFxFlg=           0 DoJE=F BraDBF=F KetDBF=F FulRan=T
         wScrn=  0.000000 ICntrl=         0 IOpCl=  0 I1Cent=           0 NGrid=           0
         NMat0=    1 NMatS0=      1 NMatT0=    0 NMatD0=    1 NMtDS0=    0 NMtDT0=    0
 Symmetry not used in FoFCou.
 Inv3:  Mode=1 IEnd=     5124747.
 Iteration    1 A*A^-1 deviation from unit magnitude is 3.33D-15 for   1279.
 Iteration    1 A*A^-1 deviation from orthogonality  is 1.53D-15 for    377    192.
 Iteration    1 A^-1*A deviation from unit magnitude is 3.55D-15 for   1291.
 Iteration    1 A^-1*A deviation from orthogonality  is 3.88D-14 for    760    719.
 E= -379.647093222866    
 DIIS: error= 3.33D-02 at cycle   1 NSaved=   1.
 NSaved= 1 IEnMin= 1 EnMin= -379.647093222866     IErMin= 1 ErrMin= 3.33D-02
 ErrMax= 3.33D-02  0.00D+00 EMaxC= 1.00D-01 BMatC= 2.38D-01 BMatP= 2.38D-01
 IDIUse=3 WtCom= 6.67D-01 WtEn= 3.33D-01
 Coeff-Com:  0.100D+01
 Coeff-En:   0.100D+01
 Coeff:      0.100D+01
 Gap=     0.299 Goal=   None    Shift=    0.000
 GapD=    0.299 DampG=1.000 DampE=0.500 DampFc=0.5000 IDamp=-1.
 Damping current iteration by 5.00D-01
 RMSDP=1.07D-02 MaxDP=8.60D-01              OVMax= 1.74D-01

 Cycle   2  Pass 1  IDiag  1:
 RMSU=  5.05D-03    CP:  9.23D-01
 E= -379.744522934880     Delta-E=       -0.097429712014 Rises=F Damp=T
 DIIS: error= 8.74D-03 at cycle   2 NSaved=   2.
 NSaved= 2 IEnMin= 2 EnMin= -379.744522934880     IErMin= 2 ErrMin= 8.74D-03
 ErrMax= 8.74D-03  0.00D+00 EMaxC= 1.00D-01 BMatC= 2.38D-02 BMatP= 2.38D-01
 IDIUse=3 WtCom= 9.13D-01 WtEn= 8.74D-02
 Coeff-Com: -0.215D+00 0.122D+01
 Coeff-En:   0.000D+00 0.100D+01
 Coeff:     -0.196D+00 0.120D+01
 Gap=     0.306 Goal=   None    Shift=    0.000
 RMSDP=5.47D-03 MaxDP=5.97D-01 DE=-9.74D-02 OVMax= 1.03D-01

 Cycle   3  Pass 1  IDiag  1:
 RMSU=  2.94D-03    CP:  7.44D-01  1.40D+00
 E= -379.829113069073     Delta-E=       -0.084590134192 Rises=F Damp=F
 DIIS: error= 4.65D-03 at cycle   3 NSaved=   3.
 NSaved= 3 IEnMin= 3 EnMin= -379.829113069073     IErMin= 3 ErrMin= 4.65D-03
 ErrMax= 4.65D-03  0.00D+00 EMaxC= 1.00D-01 BMatC= 7.05D-03 BMatP= 2.38D-02
 IDIUse=3 WtCom= 9.53D-01 WtEn= 4.65D-02
 Coeff-Com: -0.147D+00 0.476D+00 0.672D+00
 Coeff-En:   0.000D+00 0.000D+00 0.100D+01
 Coeff:     -0.140D+00 0.453D+00 0.687D+00
 Gap=     0.282 Goal=   None    Shift=    0.000
 RMSDP=1.01D-03 MaxDP=1.04D-01 DE=-8.46D-02 OVMax= 3.30D-02

 Cycle   4  Pass 1  IDiag  1:
 RMSU=  7.31D-04    CP:  7.15D-01  1.38D+00  9.54D-01
 E= -379.834332334967     Delta-E=       -0.005219265894 Rises=F Damp=F
 DIIS: error= 2.37D-03 at cycle   4 NSaved=   4.
 NSaved= 4 IEnMin= 4 EnMin= -379.834332334967     IErMin= 4 ErrMin= 2.37D-03
 ErrMax= 2.37D-03  0.00D+00 EMaxC= 1.00D-01 BMatC= 1.32D-03 BMatP= 7.05D-03
 IDIUse=3 WtCom= 9.76D-01 WtEn= 2.37D-02
 Coeff-Com: -0.543D-01 0.130D+00 0.357D+00 0.567D+00
 Coeff-En:   0.000D+00 0.000D+00 0.899D-01 0.910D+00
 Coeff:     -0.530D-01 0.127D+00 0.351D+00 0.575D+00
 Gap=     0.283 Goal=   None    Shift=    0.000
 RMSDP=2.69D-04 MaxDP=2.22D-02 DE=-5.22D-03 OVMax= 8.95D-03

 Cycle   5  Pass 1  IDiag  1:
 RMSU=  1.84D-04    CP:  7.16D-01  1.34D+00  9.50D-01  9.58D-01
 E= -379.835407512644     Delta-E=       -0.001075177677 Rises=F Damp=F
 DIIS: error= 3.48D-04 at cycle   5 NSaved=   5.
 NSaved= 5 IEnMin= 5 EnMin= -379.835407512644     IErMin= 5 ErrMin= 3.48D-04
 ErrMax= 3.48D-04  0.00D+00 EMaxC= 1.00D-01 BMatC= 2.95D-05 BMatP= 1.32D-03
 IDIUse=3 WtCom= 9.97D-01 WtEn= 3.48D-03
 Coeff-Com: -0.136D-01 0.276D-01 0.101D+00 0.213D+00 0.673D+00
 Coeff-En:   0.000D+00 0.000D+00 0.000D+00 0.000D+00 0.100D+01
 Coeff:     -0.135D-01 0.275D-01 0.100D+00 0.212D+00 0.674D+00
 Gap=     0.283 Goal=   None    Shift=    0.000
 RMSDP=7.90D-05 MaxDP=5.61D-03 DE=-1.08D-03 OVMax= 1.67D-03

 Cycle   6  Pass 1  IDiag  1:
 RMSU=  6.35D-05    CP:  7.15D-01  1.34D+00  9.50D-01  1.00D+00  1.05D+00
 E= -379.835432955787     Delta-E=       -0.000025443143 Rises=F Damp=F
 DIIS: error= 1.21D-04 at cycle   6 NSaved=   6.
 NSaved= 6 IEnMin= 6 EnMin= -379.835432955787     IErMin= 6 ErrMin= 1.21D-04
 ErrMax= 1.21D-04  0.00D+00 EMaxC= 1.00D-01 BMatC= 3.56D-06 BMatP= 2.95D-05
 IDIUse=3 WtCom= 9.99D-01 WtEn= 1.21D-03
 Coeff-Com: -0.137D-02 0.161D-02 0.151D-01 0.400D-01 0.285D+00 0.659D+00
 Coeff-En:   0.000D+00 0.000D+00 0.000D+00 0.000D+00 0.000D+00 0.100D+01
 Coeff:     -0.137D-02 0.160D-02 0.151D-01 0.400D-01 0.285D+00 0.660D+00
 Gap=     0.283 Goal=   None    Shift=    0.000
 RMSDP=4.01D-05 MaxDP=3.18D-03 DE=-2.54D-05 OVMax= 9.98D-04

 Cycle   7  Pass 1  IDiag  1:
 RMSU=  1.75D-05    CP:  7.15D-01  1.33D+00  9.51D-01  1.01D+00  1.10D+00
                    CP:  1.20D+00
 E= -379.835436945741     Delta-E=       -0.000003989955 Rises=F Damp=F
 DIIS: error= 4.22D-05 at cycle   7 NSaved=   7.
 NSaved= 7 IEnMin= 7 EnMin= -379.835436945741     IErMin= 7 ErrMin= 4.22D-05
 ErrMax= 4.22D-05  0.00D+00 EMaxC= 1.00D-01 BMatC= 2.01D-07 BMatP= 3.56D-06
 IDIUse=1 WtCom= 1.00D+00 WtEn= 0.00D+00
 Coeff-Com:  0.162D-02-0.352D-02-0.936D-02-0.228D-01-0.427D-01 0.102D+00
 Coeff-Com:  0.975D+00
 Coeff:      0.162D-02-0.352D-02-0.936D-02-0.228D-01-0.427D-01 0.102D+00
 Coeff:      0.975D+00
 Gap=     0.283 Goal=   None    Shift=    0.000
 RMSDP=1.87D-05 MaxDP=1.34D-03 DE=-3.99D-06 OVMax= 3.37D-04

 Cycle   8  Pass 1  IDiag  1:
 RMSU=  4.68D-06    CP:  7.14D-01  1.33D+00  9.51D-01  1.02D+00  1.15D+00
                    CP:  1.33D+00  1.04D+00
 E= -379.835437354345     Delta-E=       -0.000000408604 Rises=F Damp=F
 DIIS: error= 1.74D-05 at cycle   8 NSaved=   8.
 NSaved= 8 IEnMin= 8 EnMin= -379.835437354345     IErMin= 8 ErrMin= 1.74D-05
 ErrMax= 1.74D-05  0.00D+00 EMaxC= 1.00D-01 BMatC= 3.83D-08 BMatP= 2.01D-07
 IDIUse=1 WtCom= 1.00D+00 WtEn= 0.00D+00
 Coeff-Com:  0.788D-03-0.161D-02-0.471D-02-0.126D-01-0.365D-01 0.740D-02
 Coeff-Com:  0.418D+00 0.630D+00
 Coeff:      0.788D-03-0.161D-02-0.471D-02-0.126D-01-0.365D-01 0.740D-02
 Coeff:      0.418D+00 0.630D+00
 Gap=     0.283 Goal=   None    Shift=    0.000
 RMSDP=2.36D-06 MaxDP=1.95D-04 DE=-4.09D-07 OVMax= 1.30D-04

 Cycle   9  Pass 1  IDiag  1:
 RMSU=  1.34D-06    CP:  7.14D-01  1.33D+00  9.51D-01  1.02D+00  1.15D+00
                    CP:  1.34D+00  1.04D+00  1.20D+00
 E= -379.835437406545     Delta-E=       -0.000000052200 Rises=F Damp=F
 DIIS: error= 8.52D-06 at cycle   9 NSaved=   9.
 NSaved= 9 IEnMin= 9 EnMin= -379.835437406545     IErMin= 9 ErrMin= 8.52D-06
 ErrMax= 8.52D-06  0.00D+00 EMaxC= 1.00D-01 BMatC= 4.01D-09 BMatP= 3.83D-08
 IDIUse=1 WtCom= 1.00D+00 WtEn= 0.00D+00
 Coeff-Com: -0.166D-03 0.367D-03 0.113D-02 0.196D-02 0.123D-02-0.153D-01
 Coeff-Com: -0.126D+00 0.140D+00 0.997D+00
 Coeff:     -0.166D-03 0.367D-03 0.113D-02 0.196D-02 0.123D-02-0.153D-01
 Coeff:     -0.126D+00 0.140D+00 0.997D+00
 Gap=     0.283 Goal=   None    Shift=    0.000
 RMSDP=1.81D-06 MaxDP=1.40D-04 DE=-5.22D-08 OVMax= 8.13D-05

 Cycle  10  Pass 1  IDiag  1:
 RMSU=  4.97D-07    CP:  7.14D-01  1.33D+00  9.51D-01  1.02D+00  1.15D+00
                    CP:  1.34D+00  1.01D+00  1.44D+00  1.24D+00
 E= -379.835437418210     Delta-E=       -0.000000011666 Rises=F Damp=F
 DIIS: error= 1.94D-06 at cycle  10 NSaved=  10.
 NSaved=10 IEnMin=10 EnMin= -379.835437418210     IErMin=10 ErrMin= 1.94D-06
 ErrMax= 1.94D-06  0.00D+00 EMaxC= 1.00D-01 BMatC= 2.28D-10 BMatP= 4.01D-09
 IDIUse=1 WtCom= 1.00D+00 WtEn= 0.00D+00
 Coeff-Com: -0.737D-04 0.157D-03 0.500D-03 0.110D-02 0.240D-02-0.149D-02
 Coeff-Com: -0.474D-01-0.391D-01 0.144D+00 0.940D+00
 Coeff:     -0.737D-04 0.157D-03 0.500D-03 0.110D-02 0.240D-02-0.149D-02
 Coeff:     -0.474D-01-0.391D-01 0.144D+00 0.940D+00
 Gap=     0.283 Goal=   None    Shift=    0.000
 RMSDP=2.94D-07 MaxDP=1.74D-05 DE=-1.17D-08 OVMax= 2.33D-05

 Cycle  11  Pass 1  IDiag  1:
 RMSU=  1.45D-07    CP:  7.14D-01  1.33D+00  9.51D-01  1.02D+00  1.15D+00
                    CP:  1.34D+00  1.01D+00  1.47D+00  1.34D+00  1.14D+00
 E= -379.835437418999     Delta-E=       -0.000000000789 Rises=F Damp=F
 DIIS: error= 5.42D-07 at cycle  11 NSaved=  11.
 NSaved=11 IEnMin=11 EnMin= -379.835437418999     IErMin=11 ErrMin= 5.42D-07
 ErrMax= 5.42D-07  0.00D+00 EMaxC= 1.00D-01 BMatC= 4.18D-11 BMatP= 2.28D-10
 IDIUse=1 WtCom= 1.00D+00 WtEn= 0.00D+00
 Coeff-Com: -0.575D-05 0.113D-04 0.444D-04 0.159D-03 0.606D-03 0.109D-02
 Coeff-Com: -0.364D-02-0.327D-01-0.494D-01 0.306D+00 0.778D+00
 Coeff:     -0.575D-05 0.113D-04 0.444D-04 0.159D-03 0.606D-03 0.109D-02
 Coeff:     -0.364D-02-0.327D-01-0.494D-01 0.306D+00 0.778D+00
 Gap=     0.283 Goal=   None    Shift=    0.000
 RMSDP=1.59D-07 MaxDP=1.19D-05 DE=-7.89D-10 OVMax= 6.66D-06

 Cycle  12  Pass 1  IDiag  1:
 RMSU=  6.63D-08    CP:  7.14D-01  1.33D+00  9.51D-01  1.02D+00  1.15D+00
                    CP:  1.34D+00  1.01D+00  1.47D+00  1.35D+00  1.24D+00
                    CP:  1.39D+00
 E= -379.835437419098     Delta-E=       -0.000000000098 Rises=F Damp=F
 DIIS: error= 2.70D-07 at cycle  12 NSaved=  12.
 NSaved=12 IEnMin=12 EnMin= -379.835437419098     IErMin=12 ErrMin= 2.70D-07
 ErrMax= 2.70D-07  0.00D+00 EMaxC= 1.00D-01 BMatC= 5.95D-12 BMatP= 4.18D-11
 IDIUse=1 WtCom= 1.00D+00 WtEn= 0.00D+00
 Coeff-Com:  0.972D-05-0.207D-04-0.650D-04-0.121D-03-0.190D-03 0.722D-03
 Coeff-Com:  0.700D-02-0.567D-02-0.356D-01-0.573D-01 0.262D+00 0.829D+00
 Coeff:      0.972D-05-0.207D-04-0.650D-04-0.121D-03-0.190D-03 0.722D-03
 Coeff:      0.700D-02-0.567D-02-0.356D-01-0.573D-01 0.262D+00 0.829D+00
 Gap=     0.283 Goal=   None    Shift=    0.000
 RMSDP=7.21D-08 MaxDP=6.51D-06 DE=-9.85D-11 OVMax= 2.42D-06

 Cycle  13  Pass 1  IDiag  1:
 RMSU=  2.24D-08    CP:  7.14D-01  1.33D+00  9.51D-01  1.02D+00  1.15D+00
                    CP:  1.34D+00  1.01D+00  1.47D+00  1.36D+00  1.28D+00
                    CP:  1.56D+00  1.27D+00
 E= -379.835437419108     Delta-E=       -0.000000000011 Rises=F Damp=F
 DIIS: error= 6.61D-08 at cycle  13 NSaved=  13.
 NSaved=13 IEnMin=13 EnMin= -379.835437419108     IErMin=13 ErrMin= 6.61D-08
 ErrMax= 6.61D-08  0.00D+00 EMaxC= 1.00D-01 BMatC= 2.87D-13 BMatP= 5.95D-12
 IDIUse=1 WtCom= 1.00D+00 WtEn= 0.00D+00
 Coeff-Com:  0.728D-06-0.170D-05-0.679D-05-0.139D-04-0.608D-04-0.488D-04
 Coeff-Com:  0.531D-03 0.182D-02 0.433D-02-0.277D-01-0.662D-01 0.365D-01
 Coeff-Com:  0.105D+01
 Coeff:      0.728D-06-0.170D-05-0.679D-05-0.139D-04-0.608D-04-0.488D-04
 Coeff:      0.531D-03 0.182D-02 0.433D-02-0.277D-01-0.662D-01 0.365D-01
 Coeff:      0.105D+01
 Gap=     0.283 Goal=   None    Shift=    0.000
 RMSDP=1.93D-08 MaxDP=1.83D-06 DE=-1.08D-11 OVMax= 7.41D-07

 Cycle  14  Pass 1  IDiag  1:
 RMSU=  5.47D-09    CP:  7.14D-01  1.33D+00  9.51D-01  1.02D+00  1.15D+00
                    CP:  1.34D+00  1.01D+00  1.47D+00  1.36D+00  1.28D+00
                    CP:  1.60D+00  1.33D+00  1.24D+00
 E= -379.835437419107     Delta-E=        0.000000000002 Rises=F Damp=F
 DIIS: error= 2.17D-08 at cycle  14 NSaved=  14.
 NSaved=14 IEnMin=13 EnMin= -379.835437419108     IErMin=14 ErrMin= 2.17D-08
 ErrMax= 2.17D-08  0.00D+00 EMaxC= 1.00D-01 BMatC= 4.16D-14 BMatP= 2.87D-13
 IDIUse=1 WtCom= 1.00D+00 WtEn= 0.00D+00
 Coeff-Com: -0.232D-06 0.412D-06 0.455D-06 0.945D-06-0.166D-04-0.527D-04
 Coeff-Com: -0.122D-03 0.853D-03 0.353D-02-0.732D-02-0.379D-01-0.250D-01
 Coeff-Com:  0.402D+00 0.664D+00
 Coeff:     -0.232D-06 0.412D-06 0.455D-06 0.945D-06-0.166D-04-0.527D-04
 Coeff:     -0.122D-03 0.853D-03 0.353D-02-0.732D-02-0.379D-01-0.250D-01
 Coeff:      0.402D+00 0.664D+00
 Gap=     0.283 Goal=   None    Shift=    0.000
 RMSDP=3.62D-09 MaxDP=3.41D-07 DE= 1.71D-12 OVMax= 8.34D-08

 Error on total polarization charges =  0.04077
 SCF Done:  E(RM062X) =  -379.835437419     A.U. after   14 cycles
            NFock= 14  Conv=0.36D-08     -V/T= 2.0039
 KE= 3.783612337139D+02 PE=-1.694226022036D+03 EE= 5.306461318345D+02
 SMD-CDS (non-electrostatic) energy       (kcal/mol) =       1.54
 (included in total energy above)
 Leave Link  502 at Mon Dec 12 20:11:57 2022, MaxMem=  6710886400 cpu:            1029.1 elap:              43.5
 (Enter /data0/home/software/g16/l601.exe)
 Copying SCF densities to generalized density rwf, IOpCl= 0 IROHF=0.

 **********************************************************************

            Population analysis using the SCF density.

 **********************************************************************

 Alpha  occ. eigenvalues --  -14.80030 -14.73420 -10.60831 -10.57970 -10.56616
 Alpha  occ. eigenvalues --  -10.54748 -10.54389 -10.54094 -10.53969  -1.13851
 Alpha  occ. eigenvalues --   -0.97922  -0.95456  -0.84677  -0.83753  -0.72127
 Alpha  occ. eigenvalues --   -0.69899  -0.68264  -0.62589  -0.57528  -0.55546
 Alpha  occ. eigenvalues --   -0.52778  -0.51267  -0.50800  -0.48326  -0.42822
 Alpha  occ. eigenvalues --   -0.42162  -0.42052  -0.37234  -0.34449  -0.29165
 Alpha  occ. eigenvalues --   -0.28195
 Alpha virt. eigenvalues --    0.00116   0.01725   0.02860   0.03399   0.04033
 Alpha virt. eigenvalues --    0.04815   0.05015   0.05603   0.06014   0.06913
 Alpha virt. eigenvalues --    0.07678   0.08998   0.09556   0.09705   0.10751
 Alpha virt. eigenvalues --    0.11164   0.13421   0.13712   0.13894   0.14606
 Alpha virt. eigenvalues --    0.15350   0.16823   0.17353   0.18056   0.18719
 Alpha virt. eigenvalues --    0.19360   0.19810   0.20203   0.21377   0.22120
 Alpha virt. eigenvalues --    0.22483   0.22528   0.23195   0.23354   0.23875
 Alpha virt. eigenvalues --    0.24878   0.25668   0.26304   0.26784   0.26929
 Alpha virt. eigenvalues --    0.26932   0.27712   0.28333   0.29812   0.31245
 Alpha virt. eigenvalues --    0.32080   0.34657   0.35836   0.37373   0.38674
 Alpha virt. eigenvalues --    0.39802   0.45719   0.47298   0.48551   0.50676
 Alpha virt. eigenvalues --    0.52214   0.54667   0.55392   0.55445   0.56166
 Alpha virt. eigenvalues --    0.56246   0.57671   0.58078   0.59590   0.60719
 Alpha virt. eigenvalues --    0.61391   0.61530   0.64627   0.65079   0.66637
 Alpha virt. eigenvalues --    0.67020   0.68132   0.70145   0.71037   0.71924
 Alpha virt. eigenvalues --    0.73599   0.74288   0.75847   0.76796   0.77594
 Alpha virt. eigenvalues --    0.77921   0.79046   0.82017   0.83256   0.84237
 Alpha virt. eigenvalues --    0.85585   0.86004   0.86134   0.86399   0.87338
 Alpha virt. eigenvalues --    0.87420   0.89125   0.89346   0.90985   0.93662
 Alpha virt. eigenvalues --    0.93993   0.95675   0.96454   0.97241   1.00115
 Alpha virt. eigenvalues --    1.02870   1.03507   1.08163   1.12126   1.15254
 Alpha virt. eigenvalues --    1.17494   1.18263   1.21062   1.23201   1.23764
 Alpha virt. eigenvalues --    1.27004   1.27149   1.34227   1.35104   1.35483
 Alpha virt. eigenvalues --    1.36023   1.37587   1.38172   1.42581   1.45023
 Alpha virt. eigenvalues --    1.45133   1.45508   1.47581   1.51188   1.54415
 Alpha virt. eigenvalues --    1.54972   1.57422   1.58903   1.61201   1.63248
 Alpha virt. eigenvalues --    1.64867   1.68811   1.69330   1.70850   1.75716
 Alpha virt. eigenvalues --    1.76247   1.80776   1.86381   1.87910   1.90090
 Alpha virt. eigenvalues --    1.94333   1.97677   2.00500   2.01259   2.04927
 Alpha virt. eigenvalues --    2.11339   2.12996   2.13740   2.21822   2.31493
 Alpha virt. eigenvalues --    2.34250   2.38307   2.49768   2.52506   2.62362
 Alpha virt. eigenvalues --    2.66584   2.66907   2.69328   2.70403   2.73686
 Alpha virt. eigenvalues --    2.78506   2.78942   2.81759   2.83799   2.85549
 Alpha virt. eigenvalues --    2.88054   2.90562   2.91697   2.93748   2.96582
 Alpha virt. eigenvalues --    2.99602   3.08794   3.08936   3.09114   3.15095
 Alpha virt. eigenvalues --    3.17074   3.17148   3.23646   3.28932   3.29070
 Alpha virt. eigenvalues --    3.29419   3.29871   3.32034   3.36776   3.37460
 Alpha virt. eigenvalues --    3.38207   3.38928   3.39107   3.41745   3.45264
 Alpha virt. eigenvalues --    3.48499   3.49468   3.49850   3.53567   3.56723
 Alpha virt. eigenvalues --    3.59136   3.59329   3.59889   3.59920   3.63169
 Alpha virt. eigenvalues --    3.66649   3.67218   3.70708   3.73754   3.75895
 Alpha virt. eigenvalues --    3.77794   3.78878   3.81171   3.89636   3.93915
 Alpha virt. eigenvalues --    3.95020   3.96598   3.97708   4.00496   4.01112
 Alpha virt. eigenvalues --    4.01898   4.06318   4.09323   4.11763   4.29953
 Alpha virt. eigenvalues --    4.46269   4.59418   4.67686   4.72921   4.77418
 Alpha virt. eigenvalues --    4.91645   5.00365   5.01782   5.02625   5.06581
 Alpha virt. eigenvalues --    5.10998   5.20792   5.26579   5.33529   5.34003
 Alpha virt. eigenvalues --    5.44583   5.48844   5.64442   5.77862  23.78548
 Alpha virt. eigenvalues --   24.07488  24.09895  24.13994  24.19989  24.27592
 Alpha virt. eigenvalues --   24.30248  35.75033  35.85492
          Condensed to atoms (all electrons):
               1          2          3          4          5          6
     1  C    7.939117  -1.723592  -0.986041  -0.293835  -0.045975   0.320428
     2  C   -1.723592   8.305033  -0.627961   0.116400  -0.530416  -0.468158
     3  C   -0.986041  -0.627961   8.078895   0.365012   0.411846  -0.458020
     4  C   -0.293835   0.116400   0.365012   5.054939   0.437827   0.181554
     5  C   -0.045975  -0.530416   0.411846   0.437827   5.121741   0.484498
     6  C    0.320428  -0.468158  -0.458020   0.181554   0.484498   6.475221
     7  H    0.002804  -0.080986   0.447611  -0.023087   0.017542  -0.013512
     8  H   -0.006312   0.041614  -0.071947   0.420148  -0.050550   0.017679
     9  H    0.040626  -0.001949   0.015737  -0.051955   0.420251  -0.071690
    10  H   -0.089625  -0.034226  -0.017015   0.024769  -0.010440   0.479887
    11  H   -0.082444   0.089552   0.012915  -0.000307  -0.005216  -0.035002
    12  C   -0.361597   0.000326   0.063829  -0.001490  -0.002413  -0.044934
    13  H   -0.005827   0.014992   0.016118  -0.000100   0.000921   0.003058
    14  N    0.462075  -0.081273  -0.043894  -0.005131   0.005157  -0.216609
    15  N    0.324449   0.452006  -0.706097  -0.013016  -0.019307   0.034025
               7          8          9         10         11         12
     1  C    0.002804  -0.006312   0.040626  -0.089625  -0.082444  -0.361597
     2  C   -0.080986   0.041614  -0.001949  -0.034226   0.089552   0.000326
     3  C    0.447611  -0.071947   0.015737  -0.017015   0.012915   0.063829
     4  C   -0.023087   0.420148  -0.051955   0.024769  -0.000307  -0.001490
     5  C    0.017542  -0.050550   0.420251  -0.010440  -0.005216  -0.002413
     6  C   -0.013512   0.017679  -0.071690   0.479887  -0.035002  -0.044934
     7  H    0.473173  -0.003805  -0.000192   0.000058   0.000008   0.001408
     8  H   -0.003805   0.493971  -0.004054  -0.000198  -0.000001   0.000448
     9  H   -0.000192  -0.004054   0.492937  -0.003833  -0.000008   0.000232
    10  H    0.000058  -0.000198  -0.003833   0.473335   0.000757   0.001211
    11  H    0.000008  -0.000001  -0.000008   0.000757   0.314571  -0.028157
    12  C    0.001408   0.000448   0.000232   0.001211  -0.028157   4.970678
    13  H   -0.000019  -0.000000  -0.000000  -0.000012  -0.001957   0.425720
    14  N   -0.000626   0.000336  -0.000316  -0.000256   0.378352   0.400882
    15  N    0.006959  -0.000350   0.000229   0.000143  -0.002756   0.395147
              13         14         15
     1  C   -0.005827   0.462075   0.324449
     2  C    0.014992  -0.081273   0.452006
     3  C    0.016118  -0.043894  -0.706097
     4  C   -0.000100  -0.005131  -0.013016
     5  C    0.000921   0.005157  -0.019307
     6  C    0.003058  -0.216609   0.034025
     7  H   -0.000019  -0.000626   0.006959
     8  H   -0.000000   0.000336  -0.000350
     9  H   -0.000000  -0.000316   0.000229
    10  H   -0.000012  -0.000256   0.000143
    11  H   -0.001957   0.378352  -0.002756
    12  C    0.425720   0.400882   0.395147
    13  H    0.443160  -0.038966  -0.054108
    14  N   -0.038966   6.433802   0.019522
    15  N   -0.054108   0.019522   7.058422
 Mulliken charges:
               1
     1  C    0.505750
     2  C    0.528637
     3  C   -0.500986
     4  C   -0.211728
     5  C   -0.235465
     6  C   -0.688424
     7  H    0.172664
     8  H    0.163023
     9  H    0.163984
    10  H    0.175446
    11  H    0.359692
    12  C    0.178711
    13  H    0.197019
    14  N   -0.313055
    15  N   -0.495268
 Sum of Mulliken charges =  -0.00000
 Mulliken charges with hydrogens summed into heavy atoms:
               1
     1  C    0.505750
     2  C    0.528637
     3  C   -0.328322
     4  C   -0.048705
     5  C   -0.071480
     6  C   -0.512978
    12  C    0.375730
    14  N    0.046637
    15  N   -0.495268
 Electronic spatial extent (au):  <R**2>=           2250.4051
 Charge=             -0.0000 electrons
 Dipole moment (field-independent basis, Debye):
    X=              3.9120    Y=              3.6038    Z=              0.8775  Tot=              5.3908
 Quadrupole moment (field-independent basis, Debye-Ang):
   XX=            -35.2731   YY=            -31.9719   ZZ=            -57.0255
   XY=             10.9368   XZ=              2.5718   YZ=              1.6095
 Traceless Quadrupole moment (field-independent basis, Debye-Ang):
   XX=              6.1504   YY=              9.4516   ZZ=            -15.6020
   XY=             10.9368   XZ=              2.5718   YZ=              1.6095
 Octapole moment (field-independent basis, Debye-Ang**2):
  XXX=           -291.9525  YYY=             29.8322  ZZZ=              7.4446  XYY=            -79.2889
  XXY=             27.3812  XXZ=             15.4801  XZZ=           -137.8297  YZZ=             -1.2752
  YYZ=              2.9567  XYZ=              3.1389
 Hexadecapole moment (field-independent basis, Debye-Ang**3):
 XXXX=          -1902.7981 YYYY=           -539.8969 ZZZZ=            -79.9627 XXXY=            169.7249
 XXXZ=             47.9647 YYYX=            152.0734 YYYZ=              7.5064 ZZZX=            -20.0164
 ZZZY=             -0.4069 XXYY=           -363.0900 XXZZ=           -443.2508 YYZZ=           -149.8098
 XXYZ=              8.6809 YYXZ=              4.4090 ZZXY=             37.0258
 N-N= 4.053832190682D+02 E-N=-1.694226021974D+03  KE= 3.783612337139D+02
 No NMR shielding tensors so no spin-rotation constants.
 Leave Link  601 at Mon Dec 12 20:11:57 2022, MaxMem=  6710886400 cpu:               3.1 elap:               0.2
 (Enter /data0/home/software/g16/l9999.exe)
 1\1\GINC-LOCALHOST\SP\RM062X\6-311+G(2d,p)\C7H6N2\WUHANYU\12-Dec-2022\
 0\\#p M062X/6-311+G(2d,p) nosymm em=GD3 scrf=(smd,solvent=water)\\Titl
 e Card Required\\0,1\C,0,2.8519,0.673823,0.064687\C,0,1.671924,-0.0424
 06,-0.177155\C,0,1.667535,-1.432099,-0.253968\C,0,2.886274,-2.068248,-
 0.078872\C,0,4.069471,-1.346436,0.164095\C,0,4.075891,0.03753,0.240577
 \H,0,0.755815,-1.983725,-0.440481\H,0,2.930749,-3.148869,-0.130013\H,0
 ,4.998458,-1.886974,0.294928\H,0,4.982866,0.597134,0.427697\H,0,3.0985
 9,2.806894,0.225627\C,0,1.174867,2.104257,-0.143902\H,0,0.622319,3.028
 03,-0.186226\N,0,2.486419,2.014407,0.075408\N,0,0.653831,0.896388,-0.3
 00118\\Version=ES64L-G16RevA.03\HF=-379.8354374\RMSD=3.618e-09\Dipole=
 1.5390857,1.4178369,0.3452163\Quadrupole=4.5726822,7.027047,-11.599729
 2,8.1312115,1.9120546,1.196657\PG=C01 [X(C7H6N2)]\\@


 Discoveries are often made by not following instructions,
 by going off the main road, by trying the untried.
 -- Frank Tyger
 Job cpu time:       0 days  0 hours 17 minutes 46.7 seconds.
 Elapsed time:       0 days  0 hours  0 minutes 45.3 seconds.
 File lengths (MBytes):  RWF=     74 Int=      0 D2E=      0 Chk=      6 Scr=      1
 Normal termination of Gaussian 16 at Mon Dec 12 20:11:58 2022.
