 Entering Gaussian System, Link 0=g16
 Initial command:
 /data0/home/software/g16/l1.exe "/data0/home/software/g16/scratch/Gau-1675589.inp" -scrdir="/data0/home/software/g16/scratch/"
 Default is to use a total of  22 processors:
                               22 via shared-memory
                                1 via Linda
 Entering Link 1 = /data0/home/software/g16/l1.exe PID=   1675590.
  
 Copyright (c) 1988,1990,1992,1993,1995,1998,2003,2009,2016,
            Gaussian, Inc.  All Rights Reserved.
  
 This is part of the Gaussian(R) 16 program.  It is based on
 the Gaussian(R) 09 system (copyright 2009, Gaussian, Inc.),
 the Gaussian(R) 03 system (copyright 2003, Gaussian, Inc.),
 the Gaussian(R) 98 system (copyright 1998, Gaussian, Inc.),
 the Gaussian(R) 94 system (copyright 1995, Gaussian, Inc.),
 the Gaussian 92(TM) system (copyright 1992, Gaussian, Inc.),
 the Gaussian 90(TM) system (copyright 1990, Gaussian, Inc.),
 the Gaussian 88(TM) system (copyright 1988, Gaussian, Inc.),
 the Gaussian 86(TM) system (copyright 1986, Carnegie Mellon
 University), and the Gaussian 82(TM) system (copyright 1983,
 Carnegie Mellon University). Gaussian is a federally registered
 trademark of Gaussian, Inc.
  
 This software contains proprietary and confidential information,
 including trade secrets, belonging to Gaussian, Inc.
  
 This software is provided under written license and may be
 used, copied, transmitted, or stored only in accord with that
 written license.
  
 The following legend is applicable only to US Government
 contracts under FAR:
  
                    RESTRICTED RIGHTS LEGEND
  
 Use, reproduction and disclosure by the US Government is
 subject to restrictions as set forth in subparagraphs (a)
 and (c) of the Commercial Computer Software - Restricted
 Rights clause in FAR 52.227-19.
  
 Gaussian, Inc.
 340 Quinnipiac St., Bldg. 40, Wallingford CT 06492
  
  
 ---------------------------------------------------------------
 Warning -- This program may not be used in any manner that
 competes with the business of Gaussian, Inc. or will provide
 assistance to any competitor of Gaussian, Inc.  The licensee
 of this program is prohibited from giving any competitor of
 Gaussian, Inc. access to this program.  By using this program,
 the user acknowledges that Gaussian, Inc. is engaged in the
 business of creating and licensing software in the field of
 computational chemistry and represents and warrants to the
 licensee that it is not a competitor of Gaussian, Inc. and that
 it will not use this program in any manner prohibited above.
 ---------------------------------------------------------------
  

 Cite this work as:
 Gaussian 16, Revision A.03,
 M. J. Frisch, G. W. Trucks, H. B. Schlegel, G. E. Scuseria, 
 M. A. Robb, J. R. Cheeseman, G. Scalmani, V. Barone, 
 G. A. Petersson, H. Nakatsuji, X. Li, M. Caricato, A. V. Marenich, 
 J. Bloino, B. G. Janesko, R. Gomperts, B. Mennucci, H. P. Hratchian, 
 J. V. Ortiz, A. F. Izmaylov, J. L. Sonnenberg, D. Williams-Young, 
 F. Ding, F. Lipparini, F. Egidi, J. Goings, B. Peng, A. Petrone, 
 T. Henderson, D. Ranasinghe, V. G. Zakrzewski, J. Gao, N. Rega, 
 G. Zheng, W. Liang, M. Hada, M. Ehara, K. Toyota, R. Fukuda, 
 J. Hasegawa, M. Ishida, T. Nakajima, Y. Honda, O. Kitao, H. Nakai, 
 T. Vreven, K. Throssell, J. A. Montgomery, Jr., J. E. Peralta, 
 F. Ogliaro, M. J. Bearpark, J. J. Heyd, E. N. Brothers, K. N. Kudin, 
 V. N. Staroverov, T. A. Keith, R. Kobayashi, J. Normand, 
 K. Raghavachari, A. P. Rendell, J. C. Burant, S. S. Iyengar, 
 J. Tomasi, M. Cossi, J. M. Millam, M. Klene, C. Adamo, R. Cammi, 
 J. W. Ochterski, R. L. Martin, K. Morokuma, O. Farkas, 
 J. B. Foresman, and D. J. Fox, Gaussian, Inc., Wallingford CT, 2016.
 
 ******************************************
 Gaussian 16:  ES64L-G16RevA.03 25-Dec-2016
                12-Dec-2022 
 ******************************************
 %nprocshared=24
 Will use up to   24 processors via shared memory.
 %mem=50GB
 ---------------------------------------------------
 #p M062X/6-311+G(2d,p) nosymm em=GD3 counterpoise=2
 ---------------------------------------------------
 1/38=1,62=2,172=1/1;
 2/12=2,15=1,17=6,18=5,40=1/2;
 1/38=1,53=2,62=2,63=1/22;
 3/5=4,6=6,7=112,11=2,25=1,30=1,74=-55,124=31/1,2,3;
 4//1;
 5/5=2,38=5/2;
 6/7=2,8=2,9=2,10=2,28=1/1;
 1/53=2,62=2,63=1/22;
 3/5=7,6=11,7=112,11=2,25=1,30=1,74=-55,82=7,124=31/1,2,3;
 4//1;
 5/5=2,38=5/2;
 6/7=2,8=2,9=2,10=2,28=1/1;
 1/53=2,62=2,63=1/22(-4);
 99/5=1,9=1/99;
 Leave Link    1 at Mon Dec 12 20:16:20 2022, MaxMem=  6710886400 cpu:               1.1 elap:               0.0
 (Enter /data0/home/software/g16/l101.exe)
 -------------------
 Title Card Required
 -------------------
 Symbolic Z-matrix:
 Charge =  0 Multiplicity = 1 in supermolecule
 Charge =  0 Multiplicity = 1 in fragment      1.
 Charge =  0 Multiplicity = 1 in fragment      2.
 C                     2.8519    0.67382   0.06469    
 C                     1.67192  -0.04241  -0.17716    
 C                     1.66754  -1.4321   -0.25397    
 C                     2.88627  -2.06825  -0.07887    
 C                     4.06947  -1.34644   0.1641     
 C                     4.07589   0.03753   0.24058    
 H                     0.75582  -1.98373  -0.44048    
 H                     2.93075  -3.14887  -0.13001    
 H                     4.99846  -1.88697   0.29493    
 H                     4.98287   0.59713   0.4277     
 H                     3.09859   2.80689   0.22563    
 C                     1.17487   2.10426  -0.1439     
 H                     0.62232   3.02803  -0.18623    
 N                     2.48642   2.01441   0.07541    
 N                     0.65383   0.89639  -0.30012    
 P                    -2.93122  -0.1268    0.12447    
 O                    -2.56717  -0.17486   1.57559    
 O                    -4.37233   0.59844  -0.0971     
 H                    -4.2827    1.55855  -0.18799    
 O                    -1.94353   0.4656   -0.85767    
 H                    -0.36546   0.70464  -0.48336    
 O                    -3.32499  -1.63724  -0.30229    
 H                    -3.47721  -1.72344  -1.25541    
 
 ITRead=  0  0  0  0  0  0  0  0  0  0  0  0  0  0  0  0  0  0  0  0
 ITRead=  0  0  0
 MicOpt= -1 -1 -1 -1 -1 -1 -1 -1 -1 -1 -1 -1 -1 -1 -1 -1 -1 -1 -1 -1
 MicOpt= -1 -1 -1
 NAtoms=     23 NQM=       23 NQMF=       0 NMMI=      0 NMMIF=      0
                NMic=       0 NMicF=      0.
                    Isotopes and Nuclear Properties:
 (Nuclear quadrupole moments (NQMom) in fm**2, nuclear magnetic moments (NMagM)
  in nuclear magnetons)

  Atom         1           2           3           4           5           6           7           8           9          10
 IAtWgt=          12          12          12          12          12          12           1           1           1           1
 AtmWgt=  12.0000000  12.0000000  12.0000000  12.0000000  12.0000000  12.0000000   1.0078250   1.0078250   1.0078250   1.0078250
 NucSpn=           0           0           0           0           0           0           1           1           1           1
 AtZEff=  -0.0000000  -0.0000000  -0.0000000  -0.0000000  -0.0000000  -0.0000000  -0.0000000  -0.0000000  -0.0000000  -0.0000000
 NQMom=    0.0000000   0.0000000   0.0000000   0.0000000   0.0000000   0.0000000   0.0000000   0.0000000   0.0000000   0.0000000
 NMagM=    0.0000000   0.0000000   0.0000000   0.0000000   0.0000000   0.0000000   2.7928460   2.7928460   2.7928460   2.7928460
 AtZNuc=   6.0000000   6.0000000   6.0000000   6.0000000   6.0000000   6.0000000   1.0000000   1.0000000   1.0000000   1.0000000

  Atom        11          12          13          14          15          16          17          18          19          20
 IAtWgt=           1          12           1          14          14          31          16          16           1          16
 AtmWgt=   1.0078250  12.0000000   1.0078250  14.0030740  14.0030740  30.9737634  15.9949146  15.9949146   1.0078250  15.9949146
 NucSpn=           1           0           1           2           2           1           0           0           1           0
 AtZEff=  -0.0000000  -0.0000000  -0.0000000  -0.0000000  -0.0000000  -0.0000000  -0.0000000  -0.0000000  -0.0000000  -0.0000000
 NQMom=    0.0000000   0.0000000   0.0000000   2.0440000   2.0440000   0.0000000   0.0000000   0.0000000   0.0000000   0.0000000
 NMagM=    2.7928460   0.0000000   2.7928460   0.4037610   0.4037610   1.1316000   0.0000000   0.0000000   2.7928460   0.0000000
 AtZNuc=   1.0000000   6.0000000   1.0000000   7.0000000   7.0000000  15.0000000   8.0000000   8.0000000   1.0000000   8.0000000

  Atom        21          22          23
 IAtWgt=           1          16           1
 AtmWgt=   1.0078250  15.9949146   1.0078250
 NucSpn=           1           0           1
 AtZEff=  -0.0000000  -0.0000000  -0.0000000
 NQMom=    0.0000000   0.0000000   0.0000000
 NMagM=    2.7928460   0.0000000   2.7928460
 AtZNuc=   1.0000000   8.0000000   1.0000000
 Leave Link  101 at Mon Dec 12 20:16:20 2022, MaxMem=  6710886400 cpu:               2.3 elap:               0.1
 (Enter /data0/home/software/g16/l202.exe)
                          Input orientation:                          
 ---------------------------------------------------------------------
 Center     Atomic      Atomic             Coordinates (Angstroms)
 Number     Number       Type             X           Y           Z
 ---------------------------------------------------------------------
      1          6           0        2.851900    0.673823    0.064687
      2          6           0        1.671924   -0.042406   -0.177155
      3          6           0        1.667535   -1.432099   -0.253968
      4          6           0        2.886274   -2.068248   -0.078872
      5          6           0        4.069471   -1.346436    0.164095
      6          6           0        4.075891    0.037530    0.240577
      7          1           0        0.755815   -1.983725   -0.440481
      8          1           0        2.930749   -3.148869   -0.130013
      9          1           0        4.998458   -1.886974    0.294928
     10          1           0        4.982866    0.597134    0.427697
     11          1           0        3.098590    2.806894    0.225627
     12          6           0        1.174867    2.104257   -0.143902
     13          1           0        0.622319    3.028030   -0.186226
     14          7           0        2.486419    2.014407    0.075408
     15          7           0        0.653831    0.896388   -0.300118
     16         15           0       -2.931215   -0.126795    0.124473
     17          8           0       -2.567173   -0.174858    1.575591
     18          8           0       -4.372331    0.598440   -0.097097
     19          1           0       -4.282701    1.558552   -0.187988
     20          8           0       -1.943526    0.465603   -0.857665
     21          1           0       -0.365456    0.704642   -0.483355
     22          8           0       -3.324988   -1.637236   -0.302288
     23          1           0       -3.477205   -1.723439   -1.255407
 ---------------------------------------------------------------------
                    Distance matrix (angstroms):
                    1          2          3          4          5
     1  C    0.000000
     2  C    1.401362   0.000000
     3  C    2.437041   1.391821   0.000000
     4  C    2.746042   2.363967   1.385882   0.000000
     5  C    2.360891   2.750487   2.439551   1.407125   0.000000
     6  C    1.390669   2.441300   2.864361   2.439577   1.386093
     7  H    3.422182   2.162710   1.081809   2.162582   3.428114
     8  H    3.828459   3.352160   2.135035   1.082744   2.152197
     9  H    3.349389   3.832900   3.406354   2.152651   1.082735
    10  H    2.163024   3.425959   3.946375   3.428786   2.163618
    11  H    2.153311   3.211872   4.499666   4.889254   4.265741
    12  C    2.214067   2.203709   3.572205   4.510315   4.514518
    13  H    3.252119   3.244893   4.581464   5.577550   5.580460
    14  N    1.389553   2.226583   3.557733   4.105089   3.716071
    15  N    2.239224   1.390312   2.539996   3.717771   4.112463
    16  P    5.838577   4.613783   4.795366   6.136267   7.106244
    17  O    5.689415   4.589075   4.781286   6.005186   6.885489
    18  O    7.226436   6.078660   6.373985   7.732975   8.666879
    19  H    7.193686   6.166096   6.659854   8.034911   8.849955
    20  O    4.887760   3.713845   4.123771   5.509436   6.362673
    21  H    3.263844   2.191519   2.958265   4.292584   4.928964
    22  O    6.605271   5.246739   4.996969   6.230206   7.414857
    23  H    6.895439   5.522864   5.249391   6.480509   7.688266
                    6          7          8          9         10
     6  C    0.000000
     7  H    3.946165   0.000000
     8  H    3.406145   2.486823   0.000000
     9  H    2.134900   4.306995   2.459344   0.000000
    10  H    1.082023   5.028173   4.307524   2.487702   0.000000
    11  H    2.936787   5.374228   5.968732   5.064257   2.911077
    12  C    3.582614   4.120092   5.538831   5.544578   4.135094
    13  H    4.588291   5.019976   6.594398   6.598437   5.029963
    14  N    2.541996   4.387048   5.186429   4.645353   2.892234
    15  N    3.569381   2.885334   4.645148   5.193936   4.399979
    16  P    7.009994   4.166720   6.600024   8.124469   7.952905
    17  O    6.779209   4.287050   6.479273   7.861947   7.675723
    18  O    8.473553   5.751815   8.208434   9.702714   9.369905
    19  H    8.506658   6.164262   8.613770   9.911850   9.335637
    20  O    6.133740   3.668745   6.111664   7.419854   7.045876
    21  H    4.549140   2.913143   5.083244   6.007809   5.426428
    22  O    7.607401   4.097817   6.438087   8.348580   8.633987
    23  H    7.898623   4.318601   6.660348   8.617839   8.932564
                   11         12         13         14         15
    11  H    0.000000
    12  C    2.081096   0.000000
    13  H    2.520008   1.077245   0.000000
    14  N    1.012598   1.332794   2.137932   0.000000
    15  N    3.146949   1.324700   2.134915   2.179304   0.000000
    16  P    6.706364   4.680761   4.762044   5.825625   3.752297
    17  O    6.543250   4.706791   4.851325   5.708084   3.878237
    18  O    7.797184   5.748137   5.554942   7.005510   5.039077
    19  H    7.497526   5.484960   5.120409   6.789563   4.982006
    20  O    5.663753   3.594304   3.687875   4.784750   2.691226
    21  H    4.113603   2.108731   2.542069   3.187615   1.053228
    22  O    7.828879   5.854276   6.112234   6.873835   4.717018
    23  H    8.121481   6.126049   6.365980   7.162916   4.984128
                   16         17         18         19         20
    16  P    0.000000
    17  O    1.496857   0.000000
    18  O    1.628458   2.579626   0.000000
    19  H    2.182783   3.009644   0.968561   0.000000
    20  O    1.513625   2.592269   2.548569   2.667348   0.000000
    21  H    2.764753   3.140117   4.026850   4.020101   1.639376
    22  O    1.618213   2.497852   2.477353   3.338164   2.576589
    23  H    2.179781   3.352732   2.744823   3.543963   2.702272
                   21         22         23
    21  H    0.000000
    22  O    3.778360   0.000000
    23  H    4.021769   0.969039   0.000000
 Symmetry turned off by external request.
 Stoichiometry    C7H9N2O4P
 Framework group  C1[X(C7H9N2O4P)]
 Deg. of freedom    63
 Full point group                 C1      NOp   1
 Rotational constants (GHZ):           1.3360848           0.2738033           0.2401482
 Leave Link  202 at Mon Dec 12 20:16:20 2022, MaxMem=  6710886400 cpu:               0.1 elap:               0.0
 (Enter /data0/home/software/g16/l122.exe)
 Counterpoise: doing full-system calculation.
 Leave Link  122 at Mon Dec 12 20:16:20 2022, MaxMem=  6710886400 cpu:               0.1 elap:               0.0
 (Enter /data0/home/software/g16/l301.exe)
 Standard basis: 6-311+G(2d,p) (5D, 7F)
 Ernie: Thresh=  0.10000D-02 Tol=  0.10000D-05 Strict=F.
   440 basis functions,   674 primitive gaussians,   468 cartesian basis functions
    56 alpha electrons       56 beta electrons
       nuclear repulsion energy       988.5454900833 Hartrees.
 IExCor= 4336 DFT=T Ex+Corr=M062X ExCW=0 ScaHFX=  0.540000
 ScaDFX=  1.000000  1.000000  1.000000  1.000000 ScalE2=  1.000000  1.000000
 IRadAn=      5 IRanWt=     -1 IRanGd=            0 ICorTp=0 IEmpDi=131
 NAtoms=   23 NActive=   23 NUniq=   23 SFac= 1.00D+00 NAtFMM=   60 NAOKFM=F Big=F
 Integral buffers will be    131072 words long.
 Raffenetti 2 integral format.
 Two-electron integral symmetry is turned off.
 R6Disp:  Grimme-D3 Dispersion energy=       -0.0009764019 Hartrees.
 Nuclear repulsion after empirical dispersion term =      988.5445136814 Hartrees.
 Leave Link  301 at Mon Dec 12 20:16:20 2022, MaxMem=  6710886400 cpu:               1.2 elap:               0.1
 (Enter /data0/home/software/g16/l302.exe)
 NPDir=0 NMtPBC=     1 NCelOv=     1 NCel=       1 NClECP=     1 NCelD=      1
         NCelK=      1 NCelE2=     1 NClLst=     1 CellRange=     0.0.
 One-electron integrals computed using PRISM.
 NBasis=   440 RedAO= T EigKep=  1.22D-06  NBF=   440
 NBsUse=   439 1.00D-06 EigRej=  8.70D-07 NBFU=   439
 Precomputing XC quadrature grid using
 IXCGrd= 4 IRadAn=           5 IRanWt=          -1 IRanGd=           0 AccXCQ= 0.00D+00.
 Generated NRdTot=       0 NPtTot=           0 NUsed=           0 NTot=          32
 NSgBfM=   468   468   468   468   468 MxSgAt=    23 MxSgA2=    23.
 Leave Link  302 at Mon Dec 12 20:16:21 2022, MaxMem=  6710886400 cpu:              11.8 elap:               0.5
 (Enter /data0/home/software/g16/l303.exe)
 DipDrv:  MaxL=1.
 Leave Link  303 at Mon Dec 12 20:16:21 2022, MaxMem=  6710886400 cpu:               1.3 elap:               0.1
 (Enter /data0/home/software/g16/l401.exe)
 ExpMin= 3.48D-02 ExpMax= 7.75D+04 ExpMxC= 2.65D+03 IAcc=3 IRadAn=         5 AccDes= 0.00D+00
 Harris functional with IExCor= 1009 and IRadAn=       5 diagonalized for initial guess.
 HarFok:  IExCor= 1009 AccDes= 0.00D+00 IRadAn=         5 IDoV= 1 UseB2=F ITyADJ=14
 ICtDFT=  3500011 ScaDFX=  1.000000  1.000000  1.000000  1.000000
 FoFCou: FMM=F IPFlag=           0 FMFlag=      100000 FMFlg1=           0
         NFxFlg=           0 DoJE=T BraDBF=F KetDBF=T FulRan=T
         wScrn=  0.000000 ICntrl=       500 IOpCl=  0 I1Cent=   200000004 NGrid=           0
         NMat0=    1 NMatS0=      1 NMatT0=    0 NMatD0=    1 NMtDS0=    0 NMtDT0=    0
 Symmetry not used in FoFCou.
 Harris En= -1023.61584821507    
 JPrj=0 DoOrth=F DoCkMO=F.
 Leave Link  401 at Mon Dec 12 20:16:23 2022, MaxMem=  6710886400 cpu:              45.8 elap:               1.9
 (Enter /data0/home/software/g16/l502.exe)
 Two-electron integral symmetry not used.
 Closed shell SCF:
 Using DIIS extrapolation, IDIIS=  1040.
 NGot=  6710886400 LenX=  6710433895 LenY=  6710214403
 Requested convergence on RMS density matrix=1.00D-08 within 128 cycles.
 Requested convergence on MAX density matrix=1.00D-06.
 Requested convergence on             energy=1.00D-06.
 No special actions if energy rises.
 Fock matrices will be formed incrementally for  20 cycles.

 Cycle   1  Pass 1  IDiag  1:
 FoFJK:  IHMeth= 1 ICntrl=       0 DoSepK=F KAlg= 0 I1Cent=           0 FoldK=F
 IRaf= 820000000 NMat=       1 IRICut=       1 DoRegI=T DoRafI=F ISym2E= 0 IDoP0=0 IntGTp=1.
 FoFCou: FMM=F IPFlag=           0 FMFlag=      100000 FMFlg1=           0
         NFxFlg=           0 DoJE=F BraDBF=F KetDBF=F FulRan=T
         wScrn=  0.000000 ICntrl=         0 IOpCl=  0 I1Cent=           0 NGrid=           0
         NMat0=    1 NMatS0=      1 NMatT0=    0 NMatD0=    1 NMtDS0=    0 NMtDT0=    0
 Symmetry not used in FoFCou.
 E= -1023.46214791453    
 DIIS: error= 3.58D-02 at cycle   1 NSaved=   1.
 NSaved= 1 IEnMin= 1 EnMin= -1023.46214791453     IErMin= 1 ErrMin= 3.58D-02
 ErrMax= 3.58D-02  0.00D+00 EMaxC= 1.00D-01 BMatC= 8.10D-01 BMatP= 8.10D-01
 IDIUse=3 WtCom= 6.42D-01 WtEn= 3.58D-01
 Coeff-Com:  0.100D+01
 Coeff-En:   0.100D+01
 Coeff:      0.100D+01
 Gap=     0.324 Goal=   None    Shift=    0.000
 GapD=    0.324 DampG=1.000 DampE=0.500 DampFc=0.5000 IDamp=-1.
 Damping current iteration by 5.00D-01
 RMSDP=4.39D-02 MaxDP=6.16D+00              OVMax= 2.46D-01

 Cycle   2  Pass 1  IDiag  1:
 RMSU=  1.36D-02    CP:  1.80D+00
 E= -1023.68552338924     Delta-E=       -0.223375474714 Rises=F Damp=T
 DIIS: error= 8.74D-03 at cycle   2 NSaved=   2.
 NSaved= 2 IEnMin= 2 EnMin= -1023.68552338924     IErMin= 2 ErrMin= 8.74D-03
 ErrMax= 8.74D-03  0.00D+00 EMaxC= 1.00D-01 BMatC= 5.34D-02 BMatP= 8.10D-01
 IDIUse=3 WtCom= 9.13D-01 WtEn= 8.74D-02
 Coeff-Com:  0.341D-01 0.966D+00
 Coeff-En:   0.133D+00 0.867D+00
 Coeff:      0.427D-01 0.957D+00
 Gap=     0.252 Goal=   None    Shift=    0.000
 RMSDP=1.80D-02 MaxDP=2.56D+00 DE=-2.23D-01 OVMax= 1.51D-01

 Cycle   3  Pass 1  IDiag  1:
 RMSU=  4.13D-03    CP:  1.12D+00  2.94D-01
 E= -1023.96928067977     Delta-E=       -0.283757290523 Rises=F Damp=F
 DIIS: error= 7.52D-03 at cycle   3 NSaved=   3.
 NSaved= 3 IEnMin= 3 EnMin= -1023.96928067977     IErMin= 3 ErrMin= 7.52D-03
 ErrMax= 7.52D-03  0.00D+00 EMaxC= 1.00D-01 BMatC= 1.80D-02 BMatP= 5.34D-02
 IDIUse=3 WtCom= 9.25D-01 WtEn= 7.52D-02
 Coeff-Com: -0.501D-01 0.333D+00 0.717D+00
 Coeff-En:   0.000D+00 0.000D+00 0.100D+01
 Coeff:     -0.464D-01 0.308D+00 0.738D+00
 Gap=     0.209 Goal=   None    Shift=    0.000
 RMSDP=1.19D-03 MaxDP=9.25D-02 DE=-2.84D-01 OVMax= 3.86D-02

 Cycle   4  Pass 1  IDiag  1:
 RMSU=  8.38D-04    CP:  1.14D+00  3.39D-01  9.19D-01
 E= -1023.97936186336     Delta-E=       -0.010081183590 Rises=F Damp=F
 DIIS: error= 3.47D-03 at cycle   4 NSaved=   4.
 NSaved= 4 IEnMin= 4 EnMin= -1023.97936186336     IErMin= 4 ErrMin= 3.47D-03
 ErrMax= 3.47D-03  0.00D+00 EMaxC= 1.00D-01 BMatC= 5.13D-03 BMatP= 1.80D-02
 IDIUse=3 WtCom= 9.65D-01 WtEn= 3.47D-02
 Coeff-Com: -0.288D-01 0.832D-01 0.397D+00 0.548D+00
 Coeff-En:   0.000D+00 0.000D+00 0.187D+00 0.813D+00
 Coeff:     -0.278D-01 0.803D-01 0.390D+00 0.557D+00
 Gap=     0.218 Goal=   None    Shift=    0.000
 RMSDP=4.72D-04 MaxDP=3.80D-02 DE=-1.01D-02 OVMax= 1.42D-02

 Cycle   5  Pass 1  IDiag  1:
 RMSU=  2.60D-04    CP:  1.13D+00  3.25D-01  9.55D-01  7.01D-01
 E= -1023.98290700788     Delta-E=       -0.003545144528 Rises=F Damp=F
 DIIS: error= 5.41D-04 at cycle   5 NSaved=   5.
 NSaved= 5 IEnMin= 5 EnMin= -1023.98290700788     IErMin= 5 ErrMin= 5.41D-04
 ErrMax= 5.41D-04  0.00D+00 EMaxC= 1.00D-01 BMatC= 1.65D-04 BMatP= 5.13D-03
 IDIUse=3 WtCom= 9.95D-01 WtEn= 5.41D-03
 Coeff-Com: -0.852D-02 0.150D-01 0.119D+00 0.237D+00 0.638D+00
 Coeff-En:   0.000D+00 0.000D+00 0.000D+00 0.000D+00 0.100D+01
 Coeff:     -0.848D-02 0.149D-01 0.118D+00 0.235D+00 0.640D+00
 Gap=     0.218 Goal=   None    Shift=    0.000
 RMSDP=1.10D-04 MaxDP=1.13D-02 DE=-3.55D-03 OVMax= 2.55D-03

 Cycle   6  Pass 1  IDiag  1:
 RMSU=  7.35D-05    CP:  1.13D+00  3.22D-01  9.51D-01  7.35D-01  8.39D-01
 E= -1023.98302485364     Delta-E=       -0.000117845761 Rises=F Damp=F
 DIIS: error= 1.28D-04 at cycle   6 NSaved=   6.
 NSaved= 6 IEnMin= 6 EnMin= -1023.98302485364     IErMin= 6 ErrMin= 1.28D-04
 ErrMax= 1.28D-04  0.00D+00 EMaxC= 1.00D-01 BMatC= 1.21D-05 BMatP= 1.65D-04
 IDIUse=3 WtCom= 9.99D-01 WtEn= 1.28D-03
 Coeff-Com: -0.113D-02 0.191D-04 0.172D-01 0.514D-01 0.261D+00 0.671D+00
 Coeff-En:   0.000D+00 0.000D+00 0.000D+00 0.000D+00 0.000D+00 0.100D+01
 Coeff:     -0.113D-02 0.191D-04 0.172D-01 0.514D-01 0.261D+00 0.672D+00
 Gap=     0.218 Goal=   None    Shift=    0.000
 RMSDP=3.74D-05 MaxDP=2.60D-03 DE=-1.18D-04 OVMax= 1.16D-03

 Cycle   7  Pass 1  IDiag  1:
 RMSU=  2.59D-05    CP:  1.13D+00  3.21D-01  9.53D-01  7.26D-01  9.06D-01
                    CP:  1.03D+00
 E= -1023.98303508258     Delta-E=       -0.000010228938 Rises=F Damp=F
 DIIS: error= 5.96D-05 at cycle   7 NSaved=   7.
 NSaved= 7 IEnMin= 7 EnMin= -1023.98303508258     IErMin= 7 ErrMin= 5.96D-05
 ErrMax= 5.96D-05  0.00D+00 EMaxC= 1.00D-01 BMatC= 1.64D-06 BMatP= 1.21D-05
 IDIUse=1 WtCom= 1.00D+00 WtEn= 0.00D+00
 Coeff-Com:  0.508D-03-0.173D-02-0.625D-02-0.590D-02 0.364D-01 0.281D+00
 Coeff-Com:  0.696D+00
 Coeff:      0.508D-03-0.173D-02-0.625D-02-0.590D-02 0.364D-01 0.281D+00
 Coeff:      0.696D+00
 Gap=     0.218 Goal=   None    Shift=    0.000
 RMSDP=2.26D-05 MaxDP=2.56D-03 DE=-1.02D-05 OVMax= 4.03D-04

 Cycle   8  Pass 1  IDiag  1:
 RMSU=  6.96D-06    CP:  1.13D+00  3.20D-01  9.53D-01  7.30D-01  9.05D-01
                    CP:  1.13D+00  1.02D+00
 E= -1023.98303662158     Delta-E=       -0.000001538996 Rises=F Damp=F
 DIIS: error= 2.45D-05 at cycle   8 NSaved=   8.
 NSaved= 8 IEnMin= 8 EnMin= -1023.98303662158     IErMin= 8 ErrMin= 2.45D-05
 ErrMax= 2.45D-05  0.00D+00 EMaxC= 1.00D-01 BMatC= 2.87D-07 BMatP= 1.64D-06
 IDIUse=1 WtCom= 1.00D+00 WtEn= 0.00D+00
 Coeff-Com:  0.439D-03-0.822D-03-0.599D-02-0.120D-01-0.295D-01 0.712D-02
 Coeff-Com:  0.322D+00 0.718D+00
 Coeff:      0.439D-03-0.822D-03-0.599D-02-0.120D-01-0.295D-01 0.712D-02
 Coeff:      0.322D+00 0.718D+00
 Gap=     0.219 Goal=   None    Shift=    0.000
 RMSDP=5.47D-06 MaxDP=3.86D-04 DE=-1.54D-06 OVMax= 3.06D-04

 Cycle   9  Pass 1  IDiag  1:
 RMSU=  2.38D-06    CP:  1.13D+00  3.20D-01  9.53D-01  7.29D-01  9.14D-01
                    CP:  1.14D+00  1.11D+00  8.92D-01
 E= -1023.98303694895     Delta-E=       -0.000000327369 Rises=F Damp=F
 DIIS: error= 1.21D-05 at cycle   9 NSaved=   9.
 NSaved= 9 IEnMin= 9 EnMin= -1023.98303694895     IErMin= 9 ErrMin= 1.21D-05
 ErrMax= 1.21D-05  0.00D+00 EMaxC= 1.00D-01 BMatC= 9.75D-09 BMatP= 2.87D-07
 IDIUse=1 WtCom= 1.00D+00 WtEn= 0.00D+00
 Coeff-Com:  0.430D-04-0.493D-04-0.678D-03-0.166D-02-0.669D-02-0.131D-01
 Coeff-Com:  0.114D-01 0.120D+00 0.891D+00
 Coeff:      0.430D-04-0.493D-04-0.678D-03-0.166D-02-0.669D-02-0.131D-01
 Coeff:      0.114D-01 0.120D+00 0.891D+00
 Gap=     0.219 Goal=   None    Shift=    0.000
 RMSDP=1.19D-06 MaxDP=1.38D-04 DE=-3.27D-07 OVMax= 1.00D-04

 Cycle  10  Pass 1  IDiag  1:
 RMSU=  8.40D-07    CP:  1.13D+00  3.20D-01  9.53D-01  7.29D-01  9.13D-01
                    CP:  1.15D+00  1.12D+00  9.24D-01  1.28D+00
 E= -1023.98303697016     Delta-E=       -0.000000021212 Rises=F Damp=F
 DIIS: error= 5.53D-06 at cycle  10 NSaved=  10.
 NSaved=10 IEnMin=10 EnMin= -1023.98303697016     IErMin=10 ErrMin= 5.53D-06
 ErrMax= 5.53D-06  0.00D+00 EMaxC= 1.00D-01 BMatC= 4.96D-09 BMatP= 9.75D-09
 IDIUse=1 WtCom= 1.00D+00 WtEn= 0.00D+00
 Coeff-Com: -0.588D-04 0.127D-03 0.742D-03 0.129D-02 0.163D-02-0.790D-02
 Coeff-Com: -0.516D-01-0.672D-01 0.462D+00 0.661D+00
 Coeff:     -0.588D-04 0.127D-03 0.742D-03 0.129D-02 0.163D-02-0.790D-02
 Coeff:     -0.516D-01-0.672D-01 0.462D+00 0.661D+00
 Gap=     0.219 Goal=   None    Shift=    0.000
 RMSDP=5.08D-07 MaxDP=3.52D-05 DE=-2.12D-08 OVMax= 4.70D-05

 Cycle  11  Pass 1  IDiag  1:
 RMSU=  2.68D-07    CP:  1.13D+00  3.20D-01  9.53D-01  7.29D-01  9.13D-01
                    CP:  1.15D+00  1.13D+00  9.45D-01  1.37D+00  9.09D-01
 E= -1023.98303697755     Delta-E=       -0.000000007387 Rises=F Damp=F
 DIIS: error= 1.40D-06 at cycle  11 NSaved=  11.
 NSaved=11 IEnMin=11 EnMin= -1023.98303697755     IErMin=11 ErrMin= 1.40D-06
 ErrMax= 1.40D-06  0.00D+00 EMaxC= 1.00D-01 BMatC= 1.55D-10 BMatP= 4.96D-09
 IDIUse=1 WtCom= 1.00D+00 WtEn= 0.00D+00
 Coeff-Com: -0.118D-04 0.226D-04 0.186D-03 0.357D-03 0.806D-03-0.321D-03
 Coeff-Com: -0.107D-01-0.250D-01-0.113D-01 0.103D+00 0.943D+00
 Coeff:     -0.118D-04 0.226D-04 0.186D-03 0.357D-03 0.806D-03-0.321D-03
 Coeff:     -0.107D-01-0.250D-01-0.113D-01 0.103D+00 0.943D+00
 Gap=     0.219 Goal=   None    Shift=    0.000
 RMSDP=1.73D-07 MaxDP=1.63D-05 DE=-7.39D-09 OVMax= 1.93D-05

 Cycle  12  Pass 1  IDiag  1:
 RMSU=  8.59D-08    CP:  1.13D+00  3.20D-01  9.53D-01  7.29D-01  9.12D-01
                    CP:  1.15D+00  1.13D+00  9.48D-01  1.40D+00  9.45D-01
                    CP:  1.17D+00
 E= -1023.98303697818     Delta-E=       -0.000000000636 Rises=F Damp=F
 DIIS: error= 4.52D-07 at cycle  12 NSaved=  12.
 NSaved=12 IEnMin=12 EnMin= -1023.98303697818     IErMin=12 ErrMin= 4.52D-07
 ErrMax= 4.52D-07  0.00D+00 EMaxC= 1.00D-01 BMatC= 2.64D-11 BMatP= 1.55D-10
 IDIUse=1 WtCom= 1.00D+00 WtEn= 0.00D+00
 Coeff-Com:  0.371D-05-0.807D-05-0.273D-04-0.439D-04 0.406D-04 0.856D-03
 Coeff-Com:  0.288D-02 0.431D-03-0.507D-01-0.500D-01 0.223D+00 0.874D+00
 Coeff:      0.371D-05-0.807D-05-0.273D-04-0.439D-04 0.406D-04 0.856D-03
 Coeff:      0.288D-02 0.431D-03-0.507D-01-0.500D-01 0.223D+00 0.874D+00
 Gap=     0.219 Goal=   None    Shift=    0.000
 RMSDP=4.90D-08 MaxDP=4.36D-06 DE=-6.36D-10 OVMax= 6.78D-06

 Cycle  13  Pass 1  IDiag  1:
 RMSU=  3.27D-08    CP:  1.13D+00  3.20D-01  9.53D-01  7.29D-01  9.12D-01
                    CP:  1.15D+00  1.13D+00  9.47D-01  1.40D+00  9.56D-01
                    CP:  1.23D+00  1.23D+00
 E= -1023.98303697823     Delta-E=       -0.000000000046 Rises=F Damp=F
 DIIS: error= 1.78D-07 at cycle  13 NSaved=  13.
 NSaved=13 IEnMin=13 EnMin= -1023.98303697823     IErMin=13 ErrMin= 1.78D-07
 ErrMax= 1.78D-07  0.00D+00 EMaxC= 1.00D-01 BMatC= 9.84D-12 BMatP= 2.64D-11
 IDIUse=1 WtCom= 1.00D+00 WtEn= 0.00D+00
 Coeff-Com:  0.353D-05-0.720D-05-0.384D-04-0.714D-04-0.925D-04 0.518D-03
 Coeff-Com:  0.298D-02 0.365D-02-0.225D-01-0.397D-01-0.102D-01 0.461D+00
 Coeff-Com:  0.604D+00
 Coeff:      0.353D-05-0.720D-05-0.384D-04-0.714D-04-0.925D-04 0.518D-03
 Coeff:      0.298D-02 0.365D-02-0.225D-01-0.397D-01-0.102D-01 0.461D+00
 Coeff:      0.604D+00
 Gap=     0.219 Goal=   None    Shift=    0.000
 RMSDP=2.09D-08 MaxDP=1.57D-06 DE=-4.62D-11 OVMax= 1.91D-06

 Cycle  14  Pass 1  IDiag  1:
 RMSU=  1.40D-08    CP:  1.13D+00  3.20D-01  9.53D-01  7.29D-01  9.12D-01
                    CP:  1.15D+00  1.13D+00  9.47D-01  1.40D+00  9.50D-01
                    CP:  1.25D+00  1.30D+00  9.36D-01
 E= -1023.98303697825     Delta-E=       -0.000000000020 Rises=F Damp=F
 DIIS: error= 6.14D-08 at cycle  14 NSaved=  14.
 NSaved=14 IEnMin=14 EnMin= -1023.98303697825     IErMin=14 ErrMin= 6.14D-08
 ErrMax= 6.14D-08  0.00D+00 EMaxC= 1.00D-01 BMatC= 8.08D-13 BMatP= 9.84D-12
 IDIUse=1 WtCom= 1.00D+00 WtEn= 0.00D+00
 Coeff-Com:  0.138D-06-0.280D-06-0.398D-05-0.960D-05-0.328D-04-0.511D-05
 Coeff-Com:  0.218D-03 0.703D-03 0.317D-02-0.321D-02-0.423D-01-0.330D-01
 Coeff-Com:  0.200D+00 0.874D+00
 Coeff:      0.138D-06-0.280D-06-0.398D-05-0.960D-05-0.328D-04-0.511D-05
 Coeff:      0.218D-03 0.703D-03 0.317D-02-0.321D-02-0.423D-01-0.330D-01
 Coeff:      0.200D+00 0.874D+00
 Gap=     0.219 Goal=   None    Shift=    0.000
 RMSDP=1.26D-08 MaxDP=1.41D-06 DE=-2.02D-11 OVMax= 1.05D-06

 Cycle  15  Pass 1  IDiag  1:
 RMSU=  5.16D-09    CP:  1.13D+00  3.20D-01  9.53D-01  7.29D-01  9.12D-01
                    CP:  1.15D+00  1.13D+00  9.47D-01  1.39D+00  9.46D-01
                    CP:  1.25D+00  1.33D+00  1.08D+00  1.21D+00
 E= -1023.98303697825     Delta-E=        0.000000000002 Rises=F Damp=F
 DIIS: error= 2.14D-08 at cycle  15 NSaved=  15.
 NSaved=15 IEnMin=14 EnMin= -1023.98303697825     IErMin=15 ErrMin= 2.14D-08
 ErrMax= 2.14D-08  0.00D+00 EMaxC= 1.00D-01 BMatC= 1.45D-13 BMatP= 8.08D-13
 IDIUse=1 WtCom= 1.00D+00 WtEn= 0.00D+00
 Coeff-Com: -0.231D-06 0.451D-06 0.992D-06 0.140D-05-0.600D-05-0.372D-04
 Coeff-Com: -0.146D-03-0.508D-05 0.333D-02 0.170D-02-0.171D-01-0.618D-01
 Coeff-Com:  0.306D-01 0.410D+00 0.634D+00
 Coeff:     -0.231D-06 0.451D-06 0.992D-06 0.140D-05-0.600D-05-0.372D-04
 Coeff:     -0.146D-03-0.508D-05 0.333D-02 0.170D-02-0.171D-01-0.618D-01
 Coeff:      0.306D-01 0.410D+00 0.634D+00
 Gap=     0.219 Goal=   None    Shift=    0.000
 RMSDP=4.10D-09 MaxDP=4.85D-07 DE= 1.82D-12 OVMax= 1.92D-07

 SCF Done:  E(RM062X) =  -1023.98303698     A.U. after   15 cycles
            NFock= 15  Conv=0.41D-08     -V/T= 2.0029
 KE= 1.020999435532D+03 PE=-4.388522789273D+03 EE= 1.354995803082D+03
 Leave Link  502 at Mon Dec 12 20:18:09 2022, MaxMem=  6710886400 cpu:            2537.6 elap:             106.2
 (Enter /data0/home/software/g16/l601.exe)
 Copying SCF densities to generalized density rwf, IOpCl= 0 IROHF=0.

 **********************************************************************

            Population analysis using the SCF density.

 **********************************************************************

 Alpha  occ. eigenvalues --  -78.07131 -19.59054 -19.58853 -19.53602 -19.49519
 Alpha  occ. eigenvalues --  -14.88860 -14.85672 -10.70462 -10.64661 -10.63880
 Alpha  occ. eigenvalues --  -10.60249 -10.59383 -10.59271 -10.58805  -6.87763
 Alpha  occ. eigenvalues --   -4.99734  -4.99642  -4.99441  -1.23052  -1.14214
 Alpha  occ. eigenvalues --   -1.08752  -1.08581  -1.03471  -1.01364  -0.98475
 Alpha  occ. eigenvalues --   -0.90816  -0.89969  -0.81055  -0.78594  -0.75961
 Alpha  occ. eigenvalues --   -0.69323  -0.65020  -0.64436  -0.63274  -0.62323
 Alpha  occ. eigenvalues --   -0.60869  -0.56459  -0.56334  -0.56032  -0.55067
 Alpha  occ. eigenvalues --   -0.49997  -0.48113  -0.47399  -0.46445  -0.46151
 Alpha  occ. eigenvalues --   -0.45933  -0.42999  -0.40725  -0.38478  -0.36457
 Alpha  occ. eigenvalues --   -0.34784  -0.34548  -0.34272  -0.32704  -0.28751
 Alpha  occ. eigenvalues --   -0.27609
 Alpha virt. eigenvalues --   -0.05754  -0.03544  -0.00971  -0.00826   0.00008
 Alpha virt. eigenvalues --    0.00571   0.01522   0.02064   0.02859   0.03077
 Alpha virt. eigenvalues --    0.04801   0.04844   0.05792   0.06758   0.07486
 Alpha virt. eigenvalues --    0.07514   0.07832   0.09184   0.09397   0.10214
 Alpha virt. eigenvalues --    0.10803   0.11385   0.11991   0.13216   0.13548
 Alpha virt. eigenvalues --    0.14101   0.14258   0.14806   0.15421   0.15929
 Alpha virt. eigenvalues --    0.16453   0.16839   0.17425   0.17765   0.18589
 Alpha virt. eigenvalues --    0.18762   0.19384   0.19468   0.20242   0.20550
 Alpha virt. eigenvalues --    0.20838   0.21801   0.22166   0.22321   0.22797
 Alpha virt. eigenvalues --    0.23363   0.23541   0.24006   0.24368   0.24682
 Alpha virt. eigenvalues --    0.25393   0.25609   0.26032   0.26727   0.27381
 Alpha virt. eigenvalues --    0.28872   0.29375   0.30006   0.30188   0.30978
 Alpha virt. eigenvalues --    0.31618   0.32551   0.33057   0.33559   0.34013
 Alpha virt. eigenvalues --    0.34350   0.34936   0.35353   0.36276   0.37127
 Alpha virt. eigenvalues --    0.38048   0.38633   0.39418   0.40048   0.41144
 Alpha virt. eigenvalues --    0.41592   0.41903   0.42844   0.43810   0.45029
 Alpha virt. eigenvalues --    0.45733   0.47666   0.48120   0.50748   0.50997
 Alpha virt. eigenvalues --    0.51612   0.52050   0.52677   0.53403   0.53889
 Alpha virt. eigenvalues --    0.54253   0.54605   0.56264   0.56606   0.57057
 Alpha virt. eigenvalues --    0.57628   0.59018   0.59473   0.61889   0.62422
 Alpha virt. eigenvalues --    0.63470   0.63708   0.64911   0.65780   0.66423
 Alpha virt. eigenvalues --    0.67523   0.67709   0.68513   0.68994   0.69773
 Alpha virt. eigenvalues --    0.71868   0.72517   0.72589   0.73171   0.75146
 Alpha virt. eigenvalues --    0.75708   0.77871   0.80254   0.80363   0.80602
 Alpha virt. eigenvalues --    0.81713   0.82574   0.82693   0.83192   0.83552
 Alpha virt. eigenvalues --    0.84162   0.84902   0.85422   0.86392   0.86974
 Alpha virt. eigenvalues --    0.87569   0.88239   0.89595   0.90943   0.93175
 Alpha virt. eigenvalues --    0.94669   0.96662   0.97547   0.99619   1.01325
 Alpha virt. eigenvalues --    1.06146   1.06802   1.08578   1.11008   1.12775
 Alpha virt. eigenvalues --    1.12939   1.14590   1.16778   1.16986   1.18011
 Alpha virt. eigenvalues --    1.20081   1.21251   1.22319   1.22590   1.24628
 Alpha virt. eigenvalues --    1.26166   1.27304   1.29053   1.29100   1.29513
 Alpha virt. eigenvalues --    1.29809   1.30275   1.30532   1.31924   1.32698
 Alpha virt. eigenvalues --    1.32777   1.34237   1.35221   1.36254   1.37296
 Alpha virt. eigenvalues --    1.38570   1.38811   1.39478   1.41080   1.42620
 Alpha virt. eigenvalues --    1.43084   1.45066   1.46671   1.49268   1.49724
 Alpha virt. eigenvalues --    1.51532   1.52658   1.54160   1.54703   1.55343
 Alpha virt. eigenvalues --    1.57661   1.58615   1.58625   1.60084   1.61373
 Alpha virt. eigenvalues --    1.61907   1.64016   1.64267   1.66481   1.68823
 Alpha virt. eigenvalues --    1.69553   1.71094   1.71207   1.73313   1.75561
 Alpha virt. eigenvalues --    1.76513   1.77769   1.78469   1.80016   1.82409
 Alpha virt. eigenvalues --    1.82867   1.84767   1.86197   1.88311   1.90455
 Alpha virt. eigenvalues --    1.95085   1.95263   1.95492   1.96491   1.97949
 Alpha virt. eigenvalues --    1.98449   1.99149   2.02804   2.04240   2.05383
 Alpha virt. eigenvalues --    2.11022   2.12646   2.16650   2.17552   2.19012
 Alpha virt. eigenvalues --    2.22924   2.24723   2.24868   2.29770   2.31372
 Alpha virt. eigenvalues --    2.33490   2.34652   2.37010   2.40882   2.41782
 Alpha virt. eigenvalues --    2.48692   2.51774   2.54926   2.56807   2.59820
 Alpha virt. eigenvalues --    2.60167   2.62582   2.63641   2.65612   2.68789
 Alpha virt. eigenvalues --    2.69239   2.73423   2.73550   2.74134   2.75979
 Alpha virt. eigenvalues --    2.78226   2.78786   2.79623   2.81719   2.85816
 Alpha virt. eigenvalues --    2.86835   2.87118   2.88657   2.91668   2.92795
 Alpha virt. eigenvalues --    2.95244   2.95434   3.03283   3.03508   3.04870
 Alpha virt. eigenvalues --    3.06164   3.11039   3.12101   3.12547   3.12971
 Alpha virt. eigenvalues --    3.17975   3.20625   3.23064   3.24094   3.24488
 Alpha virt. eigenvalues --    3.25846   3.26371   3.31845   3.32199   3.34225
 Alpha virt. eigenvalues --    3.37018   3.37192   3.38947   3.41670   3.42936
 Alpha virt. eigenvalues --    3.44943   3.46032   3.52402   3.54145   3.54617
 Alpha virt. eigenvalues --    3.54669   3.54839   3.57960   3.60107   3.62042
 Alpha virt. eigenvalues --    3.64853   3.68779   3.70547   3.70975   3.73944
 Alpha virt. eigenvalues --    3.74919   3.77326   3.85173   3.90584   3.91267
 Alpha virt. eigenvalues --    3.92706   3.92748   3.93392   3.96247   3.99649
 Alpha virt. eigenvalues --    4.00120   4.03028   4.09815   4.24893   4.41018
 Alpha virt. eigenvalues --    4.55107   4.66377   4.72542   4.82439   4.92293
 Alpha virt. eigenvalues --    4.93919   4.96081   4.97714   5.02028   5.09365
 Alpha virt. eigenvalues --    5.13944   5.16474   5.18500   5.19242   5.20724
 Alpha virt. eigenvalues --    5.21498   5.24163   5.24782   5.28495   5.31082
 Alpha virt. eigenvalues --    5.32414   5.34314   5.42415   5.45083   5.50171
 Alpha virt. eigenvalues --    5.52823   5.67820   5.73444   5.76916   5.77752
 Alpha virt. eigenvalues --    6.81552   6.82597   6.84094   6.86405   6.88397
 Alpha virt. eigenvalues --    6.88804   6.91484   6.93586   6.97183   7.01844
 Alpha virt. eigenvalues --    7.04242   7.06978   7.10537   7.17274   7.18298
 Alpha virt. eigenvalues --    7.30053   7.34633   7.39979   7.44095   7.48821
 Alpha virt. eigenvalues --    7.74170  14.30924  14.38913  14.42963  23.74349
 Alpha virt. eigenvalues --   24.01082  24.05803  24.09657  24.14788  24.24339
 Alpha virt. eigenvalues --   24.26039  35.68317  35.77077  50.10683  50.11630
 Alpha virt. eigenvalues --   50.16157  50.19925 163.96854
          Condensed to atoms (all electrons):
               1          2          3          4          5          6
     1  C   10.508557  -1.059033   2.298095  -1.962083   0.781747  -5.669419
     2  C   -1.059033   7.651517  -2.189112   0.557553  -0.764244   1.616750
     3  C    2.298095  -2.189112   9.320720  -1.716527   0.969867  -2.792298
     4  C   -1.962083   0.557553  -1.716527   7.245112  -0.149824   2.045321
     5  C    0.781747  -0.764244   0.969867  -0.149824   5.238906  -0.406488
     6  C   -5.669419   1.616750  -2.792298   2.045321  -0.406488  12.482105
     7  H    0.007822  -0.032290   0.389495  -0.017491   0.006775  -0.004929
     8  H   -0.001946   0.046261  -0.043038   0.372714  -0.042472   0.015797
     9  H    0.035999   0.004182   0.005831  -0.027387   0.389081  -0.061331
    10  H   -0.038654   0.005083   0.000359   0.003597   0.018527   0.353974
    11  H   -0.011665   0.015591  -0.005887  -0.000676   0.001671  -0.017354
    12  C    0.110020  -0.289028   0.138942  -0.054342   0.041299  -0.626609
    13  H    0.003195   0.011135   0.013180   0.000314   0.000982  -0.003755
    14  N    0.301833   0.045000  -0.081273  -0.009359  -0.005972  -0.102288
    15  N    0.120628   0.009185  -0.007074  -0.014613   0.011652  -0.144011
    16  P   -0.010610   0.002849   0.038171  -0.008942   0.005772  -0.019970
    17  O   -0.014231   0.055256   0.008485  -0.017614   0.002737  -0.009881
    18  O   -0.000017   0.001369  -0.000544  -0.000280   0.000003   0.000012
    19  H   -0.000471   0.001795  -0.000106  -0.000023   0.000008  -0.000069
    20  O    0.038595  -0.069817  -0.066990   0.038314  -0.004934   0.023673
    21  H   -0.001153   0.010246   0.040522  -0.010140   0.007156  -0.053228
    22  O    0.002235  -0.004735  -0.009125   0.009420  -0.000954   0.001589
    23  H    0.000563   0.000567  -0.000431   0.000201  -0.000132   0.000264
               7          8          9         10         11         12
     1  C    0.007822  -0.001946   0.035999  -0.038654  -0.011665   0.110020
     2  C   -0.032290   0.046261   0.004182   0.005083   0.015591  -0.289028
     3  C    0.389495  -0.043038   0.005831   0.000359  -0.005887   0.138942
     4  C   -0.017491   0.372714  -0.027387   0.003597  -0.000676  -0.054342
     5  C    0.006775  -0.042472   0.389081   0.018527   0.001671   0.041299
     6  C   -0.004929   0.015797  -0.061331   0.353974  -0.017354  -0.626609
     7  H    0.465054  -0.003547  -0.000186   0.000049   0.000019   0.002629
     8  H   -0.003547   0.517021  -0.004407  -0.000232  -0.000002   0.000263
     9  H   -0.000186  -0.004407   0.522457  -0.004259  -0.000009   0.000354
    10  H    0.000049  -0.000232  -0.004259   0.515902   0.002348   0.005433
    11  H    0.000019  -0.000002  -0.000009   0.002348   0.357939  -0.031276
    12  C    0.002629   0.000263   0.000354   0.005433  -0.031276   5.223734
    13  H    0.000004  -0.000000  -0.000000   0.000005  -0.003111   0.419908
    14  N   -0.001054   0.000398  -0.000314  -0.000137   0.371299   0.411982
    15  N   -0.000394  -0.000331   0.000242  -0.001272  -0.000895   0.410018
    16  P   -0.001783  -0.000024   0.000005   0.000003  -0.000060   0.004867
    17  O   -0.000644   0.000003  -0.000000   0.000000  -0.000003  -0.001353
    18  O   -0.000049   0.000000  -0.000000  -0.000000   0.000000   0.000465
    19  H   -0.000003   0.000000  -0.000000   0.000000   0.000000  -0.000387
    20  O    0.001694  -0.000006   0.000000  -0.000002  -0.000035  -0.007700
    21  H    0.001386  -0.000012  -0.000001   0.000017   0.000149   0.005660
    22  O    0.001161  -0.000004   0.000000  -0.000000  -0.000000  -0.000906
    23  H   -0.000222   0.000000  -0.000000   0.000000   0.000000  -0.000415
              13         14         15         16         17         18
     1  C    0.003195   0.301833   0.120628  -0.010610  -0.014231  -0.000017
     2  C    0.011135   0.045000   0.009185   0.002849   0.055256   0.001369
     3  C    0.013180  -0.081273  -0.007074   0.038171   0.008485  -0.000544
     4  C    0.000314  -0.009359  -0.014613  -0.008942  -0.017614  -0.000280
     5  C    0.000982  -0.005972   0.011652   0.005772   0.002737   0.000003
     6  C   -0.003755  -0.102288  -0.144011  -0.019970  -0.009881   0.000012
     7  H    0.000004  -0.001054  -0.000394  -0.001783  -0.000644  -0.000049
     8  H   -0.000000   0.000398  -0.000331  -0.000024   0.000003   0.000000
     9  H   -0.000000  -0.000314   0.000242   0.000005  -0.000000  -0.000000
    10  H    0.000005  -0.000137  -0.001272   0.000003   0.000000  -0.000000
    11  H   -0.003111   0.371299  -0.000895  -0.000060  -0.000003   0.000000
    12  C    0.419908   0.411982   0.410018   0.004867  -0.001353   0.000465
    13  H    0.445456  -0.036418  -0.038667  -0.000703  -0.000164   0.000024
    14  N   -0.036418   6.426466  -0.014473  -0.000831   0.000222   0.000036
    15  N   -0.038667  -0.014473   6.781054  -0.035066  -0.022845   0.000718
    16  P   -0.000703  -0.000831  -0.035066  12.494760   0.600481   0.184169
    17  O   -0.000164   0.000222  -0.022845   0.600481   8.251981  -0.018566
    18  O    0.000024   0.000036   0.000718   0.184169  -0.018566   8.115929
    19  H    0.000014   0.000024  -0.001314  -0.000950  -0.005458   0.257304
    20  O   -0.000219   0.002284   0.102693   0.318295  -0.119399   0.016698
    21  H    0.000504  -0.004009   0.160274   0.028709   0.014364   0.000951
    22  O   -0.000001  -0.000083  -0.001403   0.142701  -0.032602   0.017083
    23  H    0.000000   0.000017   0.001827   0.021100   0.005446  -0.012508
              19         20         21         22         23
     1  C   -0.000471   0.038595  -0.001153   0.002235   0.000563
     2  C    0.001795  -0.069817   0.010246  -0.004735   0.000567
     3  C   -0.000106  -0.066990   0.040522  -0.009125  -0.000431
     4  C   -0.000023   0.038314  -0.010140   0.009420   0.000201
     5  C    0.000008  -0.004934   0.007156  -0.000954  -0.000132
     6  C   -0.000069   0.023673  -0.053228   0.001589   0.000264
     7  H   -0.000003   0.001694   0.001386   0.001161  -0.000222
     8  H    0.000000  -0.000006  -0.000012  -0.000004   0.000000
     9  H   -0.000000   0.000000  -0.000001   0.000000  -0.000000
    10  H    0.000000  -0.000002   0.000017  -0.000000   0.000000
    11  H    0.000000  -0.000035   0.000149  -0.000000   0.000000
    12  C   -0.000387  -0.007700   0.005660  -0.000906  -0.000415
    13  H    0.000014  -0.000219   0.000504  -0.000001   0.000000
    14  N    0.000024   0.002284  -0.004009  -0.000083   0.000017
    15  N   -0.001314   0.102693   0.160274  -0.001403   0.001827
    16  P   -0.000950   0.318295   0.028709   0.142701   0.021100
    17  O   -0.005458  -0.119399   0.014364  -0.032602   0.005446
    18  O    0.257304   0.016698   0.000951   0.017083  -0.012508
    19  H    0.477796  -0.013904   0.000534  -0.000940   0.002620
    20  O   -0.013904   8.583183   0.017219   0.008036  -0.017650
    21  H    0.000534   0.017219   0.285764   0.003075  -0.001190
    22  O   -0.000940   0.008036   0.003075   8.162752   0.223834
    23  H    0.002620  -0.017650  -0.001190   0.223834   0.506603
 Mulliken charges:
               1
     1  C    0.559993
     2  C    0.373919
     3  C   -0.311260
     4  C   -0.283246
     5  C   -0.101163
     6  C   -0.627860
     7  H    0.186503
     8  H    0.143560
     9  H    0.139744
    10  H    0.139259
    11  H    0.321957
    12  C    0.236439
    13  H    0.188318
    14  N   -0.303351
    15  N   -0.315932
    16  P    1.237059
    17  O   -0.696215
    18  O   -0.562797
    19  H    0.283529
    20  O   -0.850030
    21  H    0.493203
    22  O   -0.521132
    23  H    0.269504
 Sum of Mulliken charges =  -0.00000
 Mulliken charges with hydrogens summed into heavy atoms:
               1
     1  C    0.559993
     2  C    0.373919
     3  C   -0.124757
     4  C   -0.139685
     5  C    0.038580
     6  C   -0.488600
    12  C    0.424756
    14  N    0.018606
    15  N    0.177271
    16  P    1.237059
    17  O   -0.696215
    18  O   -0.279268
    20  O   -0.850030
    22  O   -0.251628
         Mulliken charges condensed to fragments:
      1      0.346879
      2     -0.346879
 Electronic spatial extent (au):  <R**2>=           4287.1479
 Charge=             -0.0000 electrons
 Dipole moment (field-independent basis, Debye):
    X=             14.3942    Y=              5.4458    Z=             -3.4859  Tot=             15.7797
 Quadrupole moment (field-independent basis, Debye-Ang):
   XX=            -86.2060   YY=            -61.7244   ZZ=            -98.9275
   XY=              2.1281   XZ=             13.9026   YZ=              5.0648
 Traceless Quadrupole moment (field-independent basis, Debye-Ang):
   XX=             -3.9200   YY=             20.5615   ZZ=            -16.6415
   XY=              2.1281   XZ=             13.9026   YZ=              5.0648
 Octapole moment (field-independent basis, Debye-Ang**2):
  XXX=            140.9000  YYY=             53.5832  ZZZ=            -15.9279  XYY=             28.1017
  XXY=             43.9165  XXZ=            -23.7894  XZZ=             -7.6772  YZZ=             -1.4315
  YYZ=             -5.8607  XYZ=             -9.7005
 Hexadecapole moment (field-independent basis, Debye-Ang**3):
 XXXX=          -4289.9490 YYYY=           -676.5767 ZZZZ=           -260.2765 XXXY=            -24.1094
 XXXZ=            187.1750 YYYX=             38.5475 YYYZ=             17.5069 ZZZX=             46.3900
 ZZZY=             12.7259 XXYY=           -674.7744 XXZZ=           -846.6017 YYZZ=           -191.9611
 XXYZ=             45.8364 YYXZ=             32.3422 ZZXY=             35.2926
 N-N= 9.885445136814D+02 E-N=-4.388522786654D+03  KE= 1.020999435532D+03
 No NMR shielding tensors so no spin-rotation constants.
 Leave Link  601 at Mon Dec 12 20:18:09 2022, MaxMem=  6710886400 cpu:               4.1 elap:               0.2
 (Enter /data0/home/software/g16/l122.exe)
 CPIOFr:  IOpCl= 0 IRwI=-1 IRwCP=  731 ICalc= -1 LCPTot=      297221 Len1MO=      782694 IndFrg=      297221
 CPIOFr:  IOpCl= 0 IRwI=-1 IRwCP=  731 ICalc=  0 LCPTot=      297221 Len1MO=      782694 IndFrg=     1079915
 Counterpoise: doing calculation for fragment   1 using the basis set of the full-system, NewBq=T
 Leave Link  122 at Mon Dec 12 20:18:09 2022, MaxMem=  6710886400 cpu:               0.4 elap:               0.0
 (Enter /data0/home/software/g16/l301.exe)
 Basis read from rwf:  (5D, 7F)
 No pseudopotential information found on rwf file.
   440 basis functions,   674 primitive gaussians,   468 cartesian basis functions
    31 alpha electrons       31 beta electrons
       nuclear repulsion energy       405.3810547585 Hartrees.
 IExCor= 4336 DFT=T Ex+Corr=M062X ExCW=0 ScaHFX=  0.540000
 ScaDFX=  1.000000  1.000000  1.000000  1.000000 ScalE2=  1.000000  1.000000
 IRadAn=      5 IRanWt=     -1 IRanGd=            0 ICorTp=0 IEmpDi=131
 NAtoms=   23 NActive=   23 NUniq=   23 SFac= 1.00D+00 NAtFMM=   60 NAOKFM=F Big=F
 Integral buffers will be    131072 words long.
 Raffenetti 2 integral format.
 Two-electron integral symmetry is turned off.
 R6Disp:  Grimme-D3 Dispersion energy=       -0.0002865656 Hartrees.
 Nuclear repulsion after empirical dispersion term =      405.3807681929 Hartrees.
 No density basis found on file   718.
 Leave Link  301 at Mon Dec 12 20:18:09 2022, MaxMem=  6710886400 cpu:               1.3 elap:               0.1
 (Enter /data0/home/software/g16/l302.exe)
 NPDir=0 NMtPBC=     1 NCelOv=     1 NCel=       1 NClECP=     1 NCelD=      1
         NCelK=      1 NCelE2=     1 NClLst=     1 CellRange=     0.0.
 One-electron integrals computed using PRISM.
 NBasis=   440 RedAO= T EigKep=  1.22D-06  NBF=   440
 NBsUse=   439 1.00D-06 EigRej=  8.70D-07 NBFU=   439
 Precomputing XC quadrature grid using
 IXCGrd= 4 IRadAn=           5 IRanWt=          -1 IRanGd=           0 AccXCQ= 0.00D+00.
 Generated NRdTot=       0 NPtTot=           0 NUsed=           0 NTot=          32
 NSgBfM=   468   468   468   468   468 MxSgAt=    23 MxSgA2=    23.
 Leave Link  302 at Mon Dec 12 20:18:10 2022, MaxMem=  6710886400 cpu:              11.6 elap:               0.5
 (Enter /data0/home/software/g16/l303.exe)
 DipDrv:  MaxL=1.
 Leave Link  303 at Mon Dec 12 20:18:10 2022, MaxMem=  6710886400 cpu:               1.3 elap:               0.1
 (Enter /data0/home/software/g16/l401.exe)
 ExpMin= 3.48D-02 ExpMax= 7.75D+04 ExpMxC= 2.65D+03 IAcc=3 IRadAn=         5 AccDes= 0.00D+00
 Harris functional with IExCor= 1009 and IRadAn=       5 diagonalized for initial guess.
 HarFok:  IExCor= 1009 AccDes= 0.00D+00 IRadAn=         5 IDoV= 1 UseB2=F ITyADJ=14
 ICtDFT=  3500011 ScaDFX=  1.000000  1.000000  1.000000  1.000000
 FoFCou: FMM=F IPFlag=           0 FMFlag=      100000 FMFlg1=           0
         NFxFlg=           0 DoJE=T BraDBF=F KetDBF=T FulRan=T
         wScrn=  0.000000 ICntrl=       500 IOpCl=  0 I1Cent=   200000004 NGrid=           0
         NMat0=    1 NMatS0=      1 NMatT0=    0 NMatD0=    1 NMtDS0=    0 NMtDT0=    0
 Symmetry not used in FoFCou.
 Harris En= -379.621535769489    
 JPrj=0 DoOrth=F DoCkMO=F.
 Leave Link  401 at Mon Dec 12 20:18:12 2022, MaxMem=  6710886400 cpu:              47.2 elap:               2.0
 (Enter /data0/home/software/g16/l502.exe)
 Two-electron integral symmetry not used.
 Closed shell SCF:
 Using DIIS extrapolation, IDIIS=  1040.
 NGot=  6710886400 LenX=  6710433895 LenY=  6710214403
 Requested convergence on RMS density matrix=1.00D-08 within 128 cycles.
 Requested convergence on MAX density matrix=1.00D-06.
 Requested convergence on             energy=1.00D-06.
 No special actions if energy rises.
 Fock matrices will be formed incrementally for  20 cycles.

 Cycle   1  Pass 1  IDiag  1:
 FoFJK:  IHMeth= 1 ICntrl=       0 DoSepK=F KAlg= 0 I1Cent=           0 FoldK=F
 IRaf= 820000000 NMat=       1 IRICut=       1 DoRegI=T DoRafI=F ISym2E= 0 IDoP0=0 IntGTp=1.
 FoFCou: FMM=F IPFlag=           0 FMFlag=      100000 FMFlg1=           0
         NFxFlg=           0 DoJE=F BraDBF=F KetDBF=F FulRan=T
         wScrn=  0.000000 ICntrl=         0 IOpCl=  0 I1Cent=           0 NGrid=           0
         NMat0=    1 NMatS0=      1 NMatT0=    0 NMatD0=    1 NMtDS0=    0 NMtDT0=    0
 Symmetry not used in FoFCou.
 E= -379.606546677778    
 DIIS: error= 2.51D-02 at cycle   1 NSaved=   1.
 NSaved= 1 IEnMin= 1 EnMin= -379.606546677778     IErMin= 1 ErrMin= 2.51D-02
 ErrMax= 2.51D-02  0.00D+00 EMaxC= 1.00D-01 BMatC= 2.56D-01 BMatP= 2.56D-01
 IDIUse=3 WtCom= 7.49D-01 WtEn= 2.51D-01
 Coeff-Com:  0.100D+01
 Coeff-En:   0.100D+01
 Coeff:      0.100D+01
 Gap=     0.297 Goal=   None    Shift=    0.000
 GapD=    0.297 DampG=1.000 DampE=0.500 DampFc=0.5000 IDamp=-1.
 Damping current iteration by 5.00D-01
 RMSDP=4.49D-03 MaxDP=3.04D-01              OVMax= 2.11D-01

 Cycle   2  Pass 1  IDiag  1:
 RMSU=  2.24D-03    CP:  9.95D-01
 E= -379.707790477525     Delta-E=       -0.101243799747 Rises=F Damp=T
 DIIS: error= 5.96D-03 at cycle   2 NSaved=   2.
 NSaved= 2 IEnMin= 2 EnMin= -379.707790477525     IErMin= 2 ErrMin= 5.96D-03
 ErrMax= 5.96D-03  0.00D+00 EMaxC= 1.00D-01 BMatC= 2.62D-02 BMatP= 2.56D-01
 IDIUse=3 WtCom= 9.40D-01 WtEn= 5.96D-02
 Coeff-Com: -0.113D+00 0.111D+01
 Coeff-En:   0.000D+00 0.100D+01
 Coeff:     -0.107D+00 0.111D+01
 Gap=     0.294 Goal=   None    Shift=    0.000
 RMSDP=3.34D-03 MaxDP=4.17D-01 DE=-1.01D-01 OVMax= 1.69D-01

 Cycle   3  Pass 1  IDiag  1:
 RMSU=  2.56D-03    CP:  7.76D-01  1.01D+00
 E= -379.801787791939     Delta-E=       -0.093997314414 Rises=F Damp=F
 DIIS: error= 7.32D-03 at cycle   3 NSaved=   3.
 NSaved= 3 IEnMin= 3 EnMin= -379.801787791939     IErMin= 2 ErrMin= 5.96D-03
 ErrMax= 7.32D-03  0.00D+00 EMaxC= 1.00D-01 BMatC= 1.64D-02 BMatP= 2.62D-02
 IDIUse=3 WtCom= 9.27D-01 WtEn= 7.32D-02
 Coeff-Com: -0.141D+00 0.539D+00 0.602D+00
 Coeff-En:   0.000D+00 0.000D+00 0.100D+01
 Coeff:     -0.131D+00 0.499D+00 0.631D+00
 Gap=     0.279 Goal=   None    Shift=    0.000
 RMSDP=5.58D-04 MaxDP=5.79D-02 DE=-9.40D-02 OVMax= 5.87D-02

 Cycle   4  Pass 1  IDiag  1:
 RMSU=  5.11D-04    CP:  7.58D-01  9.79D-01  9.54D-01
 E= -379.814876520033     Delta-E=       -0.013088728094 Rises=F Damp=F
 DIIS: error= 3.07D-03 at cycle   4 NSaved=   4.
 NSaved= 4 IEnMin= 4 EnMin= -379.814876520033     IErMin= 4 ErrMin= 3.07D-03
 ErrMax= 3.07D-03  0.00D+00 EMaxC= 1.00D-01 BMatC= 2.64D-03 BMatP= 1.64D-02
 IDIUse=3 WtCom= 9.69D-01 WtEn= 3.07D-02
 Coeff-Com: -0.570D-01 0.146D+00 0.340D+00 0.571D+00
 Coeff-En:   0.000D+00 0.000D+00 0.985D-01 0.901D+00
 Coeff:     -0.552D-01 0.141D+00 0.333D+00 0.581D+00
 Gap=     0.279 Goal=   None    Shift=    0.000
 RMSDP=1.46D-04 MaxDP=6.25D-03 DE=-1.31D-02 OVMax= 1.53D-02

 Cycle   5  Pass 1  IDiag  1:
 RMSU=  1.29D-04    CP:  7.59D-01  9.71D-01  9.48D-01  8.77D-01
 E= -379.817131218529     Delta-E=       -0.002254698496 Rises=F Damp=F
 DIIS: error= 5.07D-04 at cycle   5 NSaved=   5.
 NSaved= 5 IEnMin= 5 EnMin= -379.817131218529     IErMin= 5 ErrMin= 5.07D-04
 ErrMax= 5.07D-04  0.00D+00 EMaxC= 1.00D-01 BMatC= 7.45D-05 BMatP= 2.64D-03
 IDIUse=3 WtCom= 9.95D-01 WtEn= 5.07D-03
 Coeff-Com: -0.177D-01 0.376D-01 0.111D+00 0.244D+00 0.626D+00
 Coeff-En:   0.000D+00 0.000D+00 0.000D+00 0.000D+00 0.100D+01
 Coeff:     -0.176D-01 0.374D-01 0.110D+00 0.243D+00 0.628D+00
 Gap=     0.277 Goal=   None    Shift=    0.000
 RMSDP=5.17D-05 MaxDP=5.86D-03 DE=-2.25D-03 OVMax= 3.59D-03

 Cycle   6  Pass 1  IDiag  1:
 RMSU=  4.22D-05    CP:  7.61D-01  9.70D-01  9.48D-01  8.54D-01  8.27D-01
 E= -379.817197025237     Delta-E=       -0.000065806708 Rises=F Damp=F
 DIIS: error= 1.94D-04 at cycle   6 NSaved=   6.
 NSaved= 6 IEnMin= 6 EnMin= -379.817197025237     IErMin= 6 ErrMin= 1.94D-04
 ErrMax= 1.94D-04  0.00D+00 EMaxC= 1.00D-01 BMatC= 1.05D-05 BMatP= 7.45D-05
 IDIUse=3 WtCom= 9.98D-01 WtEn= 1.94D-03
 Coeff-Com: -0.289D-02 0.394D-02 0.200D-01 0.569D-01 0.313D+00 0.610D+00
 Coeff-En:   0.000D+00 0.000D+00 0.000D+00 0.000D+00 0.502D-01 0.950D+00
 Coeff:     -0.289D-02 0.393D-02 0.199D-01 0.567D-01 0.312D+00 0.610D+00
 Gap=     0.277 Goal=   None    Shift=    0.000
 RMSDP=2.24D-05 MaxDP=1.44D-03 DE=-6.58D-05 OVMax= 1.51D-03

 Cycle   7  Pass 1  IDiag  1:
 RMSU=  1.74D-05    CP:  7.61D-01  9.65D-01  9.50D-01  8.53D-01  8.52D-01
                    CP:  1.07D+00
 E= -379.817208314713     Delta-E=       -0.000011289476 Rises=F Damp=F
 DIIS: error= 4.70D-05 at cycle   7 NSaved=   7.
 NSaved= 7 IEnMin= 7 EnMin= -379.817208314713     IErMin= 7 ErrMin= 4.70D-05
 ErrMax= 4.70D-05  0.00D+00 EMaxC= 1.00D-01 BMatC= 3.45D-07 BMatP= 1.05D-05
 IDIUse=1 WtCom= 1.00D+00 WtEn= 0.00D+00
 Coeff-Com:  0.126D-02-0.312D-02-0.621D-02-0.150D-01-0.242D-02 0.980D-01
 Coeff-Com:  0.927D+00
 Coeff:      0.126D-02-0.312D-02-0.621D-02-0.150D-01-0.242D-02 0.980D-01
 Coeff:      0.927D+00
 Gap=     0.277 Goal=   None    Shift=    0.000
 RMSDP=7.23D-06 MaxDP=3.58D-04 DE=-1.13D-05 OVMax= 4.30D-04

 Cycle   8  Pass 1  IDiag  1:
 RMSU=  2.72D-06    CP:  7.61D-01  9.63D-01  9.51D-01  8.52D-01  8.69D-01
                    CP:  1.17D+00  1.14D+00
 E= -379.817208825376     Delta-E=       -0.000000510663 Rises=F Damp=F
 DIIS: error= 2.20D-05 at cycle   8 NSaved=   8.
 NSaved= 8 IEnMin= 8 EnMin= -379.817208825376     IErMin= 8 ErrMin= 2.20D-05
 ErrMax= 2.20D-05  0.00D+00 EMaxC= 1.00D-01 BMatC= 1.31D-07 BMatP= 3.45D-07
 IDIUse=1 WtCom= 1.00D+00 WtEn= 0.00D+00
 Coeff-Com:  0.919D-03-0.192D-02-0.479D-02-0.134D-01-0.317D-01-0.124D-01
 Coeff-Com:  0.475D+00 0.588D+00
 Coeff:      0.919D-03-0.192D-02-0.479D-02-0.134D-01-0.317D-01-0.124D-01
 Coeff:      0.475D+00 0.588D+00
 Gap=     0.277 Goal=   None    Shift=    0.000
 RMSDP=2.31D-06 MaxDP=1.28D-04 DE=-5.11D-07 OVMax= 2.16D-04

 Cycle   9  Pass 1  IDiag  1:
 RMSU=  1.52D-06    CP:  7.60D-01  9.63D-01  9.51D-01  8.50D-01  8.70D-01
                    CP:  1.19D+00  1.18D+00  1.15D+00
 E= -379.817208978653     Delta-E=       -0.000000153278 Rises=F Damp=F
 DIIS: error= 1.11D-05 at cycle   9 NSaved=   9.
 NSaved= 9 IEnMin= 9 EnMin= -379.817208978653     IErMin= 9 ErrMin= 1.11D-05
 ErrMax= 1.11D-05  0.00D+00 EMaxC= 1.00D-01 BMatC= 7.58D-09 BMatP= 1.31D-07
 IDIUse=1 WtCom= 1.00D+00 WtEn= 0.00D+00
 Coeff-Com: -0.535D-05 0.570D-04 0.205D-03-0.306D-03-0.395D-02-0.147D-01
 Coeff-Com: -0.496D-01 0.125D+00 0.943D+00
 Coeff:     -0.535D-05 0.570D-04 0.205D-03-0.306D-03-0.395D-02-0.147D-01
 Coeff:     -0.496D-01 0.125D+00 0.943D+00
 Gap=     0.277 Goal=   None    Shift=    0.000
 RMSDP=9.39D-07 MaxDP=5.15D-05 DE=-1.53D-07 OVMax= 7.68D-05

 Cycle  10  Pass 1  IDiag  1:
 RMSU=  4.41D-07    CP:  7.60D-01  9.63D-01  9.51D-01  8.50D-01  8.70D-01
                    CP:  1.18D+00  1.19D+00  1.33D+00  1.18D+00
 E= -379.817208995104     Delta-E=       -0.000000016451 Rises=F Damp=F
 DIIS: error= 2.41D-06 at cycle  10 NSaved=  10.
 NSaved=10 IEnMin=10 EnMin= -379.817208995104     IErMin=10 ErrMin= 2.41D-06
 ErrMax= 2.41D-06  0.00D+00 EMaxC= 1.00D-01 BMatC= 1.17D-09 BMatP= 7.58D-09
 IDIUse=1 WtCom= 1.00D+00 WtEn= 0.00D+00
 Coeff-Com: -0.879D-04 0.201D-03 0.581D-03 0.114D-02 0.143D-02-0.410D-02
 Coeff-Com: -0.649D-01-0.135D-01 0.346D+00 0.733D+00
 Coeff:     -0.879D-04 0.201D-03 0.581D-03 0.114D-02 0.143D-02-0.410D-02
 Coeff:     -0.649D-01-0.135D-01 0.346D+00 0.733D+00
 Gap=     0.277 Goal=   None    Shift=    0.000
 RMSDP=2.50D-07 MaxDP=1.10D-05 DE=-1.65D-08 OVMax= 2.96D-05

 Cycle  11  Pass 1  IDiag  1:
 RMSU=  1.22D-07    CP:  7.60D-01  9.63D-01  9.51D-01  8.49D-01  8.70D-01
                    CP:  1.18D+00  1.19D+00  1.38D+00  1.26D+00  1.03D+00
 E= -379.817208997125     Delta-E=       -0.000000002021 Rises=F Damp=F
 DIIS: error= 1.61D-06 at cycle  11 NSaved=  11.
 NSaved=11 IEnMin=11 EnMin= -379.817208997125     IErMin=11 ErrMin= 1.61D-06
 ErrMax= 1.61D-06  0.00D+00 EMaxC= 1.00D-01 BMatC= 2.46D-10 BMatP= 1.17D-09
 IDIUse=1 WtCom= 1.00D+00 WtEn= 0.00D+00
 Coeff-Com: -0.320D-04 0.682D-04 0.215D-03 0.509D-03 0.110D-02 0.636D-03
 Coeff-Com: -0.202D-01-0.302D-01-0.927D-02 0.339D+00 0.719D+00
 Coeff:     -0.320D-04 0.682D-04 0.215D-03 0.509D-03 0.110D-02 0.636D-03
 Coeff:     -0.202D-01-0.302D-01-0.927D-02 0.339D+00 0.719D+00
 Gap=     0.277 Goal=   None    Shift=    0.000
 RMSDP=9.50D-08 MaxDP=5.87D-06 DE=-2.02D-09 OVMax= 1.28D-05

 Cycle  12  Pass 1  IDiag  1:
 RMSU=  5.72D-08    CP:  7.60D-01  9.63D-01  9.51D-01  8.49D-01  8.70D-01
                    CP:  1.18D+00  1.18D+00  1.39D+00  1.28D+00  1.09D+00
                    CP:  1.15D+00
 E= -379.817208997526     Delta-E=       -0.000000000401 Rises=F Damp=F
 DIIS: error= 2.60D-07 at cycle  12 NSaved=  12.
 NSaved=12 IEnMin=12 EnMin= -379.817208997526     IErMin=12 ErrMin= 2.60D-07
 ErrMax= 2.60D-07  0.00D+00 EMaxC= 1.00D-01 BMatC= 1.01D-11 BMatP= 2.46D-10
 IDIUse=1 WtCom= 1.00D+00 WtEn= 0.00D+00
 Coeff-Com:  0.637D-05-0.146D-04-0.379D-04-0.563D-04-0.365D-04 0.692D-03
 Coeff-Com:  0.496D-02-0.540D-02-0.435D-01-0.251D-01 0.101D+00 0.968D+00
 Coeff:      0.637D-05-0.146D-04-0.379D-04-0.563D-04-0.365D-04 0.692D-03
 Coeff:      0.496D-02-0.540D-02-0.435D-01-0.251D-01 0.101D+00 0.968D+00
 Gap=     0.277 Goal=   None    Shift=    0.000
 RMSDP=5.78D-08 MaxDP=4.37D-06 DE=-4.01D-10 OVMax= 5.09D-06

 Cycle  13  Pass 1  IDiag  1:
 RMSU=  2.40D-08    CP:  7.60D-01  9.63D-01  9.51D-01  8.49D-01  8.70D-01
                    CP:  1.18D+00  1.18D+00  1.39D+00  1.27D+00  1.10D+00
                    CP:  1.32D+00  1.35D+00
 E= -379.817208997553     Delta-E=       -0.000000000026 Rises=F Damp=F
 DIIS: error= 1.28D-07 at cycle  13 NSaved=  13.
 NSaved=13 IEnMin=13 EnMin= -379.817208997553     IErMin=13 ErrMin= 1.28D-07
 ErrMax= 1.28D-07  0.00D+00 EMaxC= 1.00D-01 BMatC= 2.50D-12 BMatP= 1.01D-11
 IDIUse=1 WtCom= 1.00D+00 WtEn= 0.00D+00
 Coeff-Com:  0.471D-05-0.105D-04-0.311D-04-0.577D-04-0.102D-03 0.248D-03
 Coeff-Com:  0.350D-02-0.522D-04-0.147D-01-0.313D-01-0.234D-01 0.368D+00
 Coeff-Com:  0.698D+00
 Coeff:      0.471D-05-0.105D-04-0.311D-04-0.577D-04-0.102D-03 0.248D-03
 Coeff:      0.350D-02-0.522D-04-0.147D-01-0.313D-01-0.234D-01 0.368D+00
 Coeff:      0.698D+00
 Gap=     0.277 Goal=   None    Shift=    0.000
 RMSDP=1.45D-08 MaxDP=1.28D-06 DE=-2.65D-11 OVMax= 1.38D-06

 Cycle  14  Pass 1  IDiag  1:
 RMSU=  5.96D-09    CP:  7.60D-01  9.63D-01  9.51D-01  8.49D-01  8.70D-01
                    CP:  1.18D+00  1.18D+00  1.39D+00  1.27D+00  1.10D+00
                    CP:  1.34D+00  1.44D+00  1.13D+00
 E= -379.817208997584     Delta-E=       -0.000000000031 Rises=F Damp=F
 DIIS: error= 4.70D-08 at cycle  14 NSaved=  14.
 NSaved=14 IEnMin=14 EnMin= -379.817208997584     IErMin=14 ErrMin= 4.70D-08
 ErrMax= 4.70D-08  0.00D+00 EMaxC= 1.00D-01 BMatC= 5.82D-13 BMatP= 2.50D-12
 IDIUse=1 WtCom= 1.00D+00 WtEn= 0.00D+00
 Coeff-Com:  0.251D-06-0.596D-06-0.395D-05-0.730D-05-0.334D-04-0.463D-04
 Coeff-Com:  0.202D-03 0.103D-02 0.474D-02-0.538D-02-0.406D-01-0.918D-01
 Coeff-Com:  0.316D+00 0.816D+00
 Coeff:      0.251D-06-0.596D-06-0.395D-05-0.730D-05-0.334D-04-0.463D-04
 Coeff:      0.202D-03 0.103D-02 0.474D-02-0.538D-02-0.406D-01-0.918D-01
 Coeff:      0.316D+00 0.816D+00
 Gap=     0.277 Goal=   None    Shift=    0.000
 RMSDP=6.65D-09 MaxDP=3.50D-07 DE=-3.12D-11 OVMax= 7.25D-07

 SCF Done:  E(RM062X) =  -379.817208998     A.U. after   14 cycles
            NFock= 14  Conv=0.67D-08     -V/T= 2.0039
 KE= 3.783485099692D+02 PE=-1.693819003670D+03 EE= 5.302725165101D+02
 Leave Link  502 at Mon Dec 12 20:19:50 2022, MaxMem=  6710886400 cpu:            2342.2 elap:              98.1
 (Enter /data0/home/software/g16/l601.exe)
 Copying SCF densities to generalized density rwf, IOpCl= 0 IROHF=0.

 **********************************************************************

            Population analysis using the SCF density.

 **********************************************************************

 Alpha  occ. eigenvalues --  -14.81043 -14.72885 -10.61123 -10.58167 -10.56363
 Alpha  occ. eigenvalues --  -10.55164 -10.54386 -10.54301 -10.54036  -1.14207
 Alpha  occ. eigenvalues --   -0.98054  -0.95397  -0.84867  -0.83773  -0.72538
 Alpha  occ. eigenvalues --   -0.70584  -0.68498  -0.63244  -0.57905  -0.56039
 Alpha  occ. eigenvalues --   -0.52880  -0.51546  -0.51147  -0.48717  -0.43090
 Alpha  occ. eigenvalues --   -0.42408  -0.41890  -0.36878  -0.33339  -0.29091
 Alpha  occ. eigenvalues --   -0.27870
 Alpha virt. eigenvalues --   -0.00134   0.00081   0.01740   0.02229   0.03550
 Alpha virt. eigenvalues --    0.03748   0.04138   0.04809   0.05454   0.06052
 Alpha virt. eigenvalues --    0.06187   0.06543   0.07162   0.08508   0.08910
 Alpha virt. eigenvalues --    0.09401   0.10416   0.10577   0.10656   0.12739
 Alpha virt. eigenvalues --    0.13215   0.13643   0.14218   0.14641   0.15493
 Alpha virt. eigenvalues --    0.15865   0.16434   0.16742   0.17940   0.18293
 Alpha virt. eigenvalues --    0.18498   0.19221   0.19569   0.20429   0.20703
 Alpha virt. eigenvalues --    0.20964   0.21266   0.21571   0.21965   0.22839
 Alpha virt. eigenvalues --    0.23310   0.23944   0.24323   0.24562   0.24923
 Alpha virt. eigenvalues --    0.25460   0.25790   0.25939   0.26340   0.26977
 Alpha virt. eigenvalues --    0.27290   0.27743   0.28471   0.29431   0.29841
 Alpha virt. eigenvalues --    0.29882   0.30934   0.31630   0.31913   0.33479
 Alpha virt. eigenvalues --    0.34182   0.34612   0.35273   0.36127   0.36760
 Alpha virt. eigenvalues --    0.37316   0.38156   0.38549   0.39205   0.39592
 Alpha virt. eigenvalues --    0.40425   0.41682   0.43062   0.44535   0.45574
 Alpha virt. eigenvalues --    0.46315   0.47081   0.48608   0.50640   0.51483
 Alpha virt. eigenvalues --    0.52699   0.54683   0.55836   0.55872   0.56090
 Alpha virt. eigenvalues --    0.57600   0.58244   0.59049   0.59884   0.60655
 Alpha virt. eigenvalues --    0.61807   0.62238   0.63216   0.65603   0.66757
 Alpha virt. eigenvalues --    0.67404   0.68113   0.68532   0.69853   0.70903
 Alpha virt. eigenvalues --    0.71315   0.72139   0.73008   0.73896   0.74309
 Alpha virt. eigenvalues --    0.74604   0.75335   0.76536   0.77334   0.77991
 Alpha virt. eigenvalues --    0.78501   0.78666   0.79537   0.80777   0.81457
 Alpha virt. eigenvalues --    0.82133   0.82427   0.84907   0.85456   0.86036
 Alpha virt. eigenvalues --    0.86421   0.86869   0.87688   0.88595   0.88696
 Alpha virt. eigenvalues --    0.89138   0.89204   0.89639   0.90553   0.92074
 Alpha virt. eigenvalues --    0.92670   0.93318   0.94644   0.94990   0.97124
 Alpha virt. eigenvalues --    0.97928   0.99127   0.99857   1.00925   1.01463
 Alpha virt. eigenvalues --    1.03596   1.05348   1.08176   1.09888   1.10906
 Alpha virt. eigenvalues --    1.12821   1.14138   1.16018   1.17241   1.17983
 Alpha virt. eigenvalues --    1.18259   1.18770   1.21409   1.23781   1.24357
 Alpha virt. eigenvalues --    1.24602   1.26367   1.28103   1.28493   1.30025
 Alpha virt. eigenvalues --    1.33126   1.34897   1.35235   1.35646   1.35931
 Alpha virt. eigenvalues --    1.37289   1.38122   1.39342   1.41533   1.44415
 Alpha virt. eigenvalues --    1.44687   1.45150   1.45722   1.46936   1.48199
 Alpha virt. eigenvalues --    1.51107   1.54654   1.55204   1.56566   1.57252
 Alpha virt. eigenvalues --    1.59125   1.60708   1.62035   1.63806   1.66990
 Alpha virt. eigenvalues --    1.69135   1.70575   1.74686   1.75337   1.76120
 Alpha virt. eigenvalues --    1.81597   1.84940   1.85495   1.89863   1.93971
 Alpha virt. eigenvalues --    1.96311   1.99703   1.99868   2.02151   2.02677
 Alpha virt. eigenvalues --    2.05266   2.06401   2.08680   2.09482   2.12409
 Alpha virt. eigenvalues --    2.14371   2.16355   2.19112   2.21540   2.22885
 Alpha virt. eigenvalues --    2.26024   2.30982   2.31372   2.34897   2.37339
 Alpha virt. eigenvalues --    2.38899   2.39106   2.40906   2.45583   2.47430
 Alpha virt. eigenvalues --    2.49776   2.50680   2.51469   2.52645   2.55081
 Alpha virt. eigenvalues --    2.58127   2.62201   2.62878   2.66578   2.67565
 Alpha virt. eigenvalues --    2.69920   2.70249   2.70855   2.71455   2.72025
 Alpha virt. eigenvalues --    2.73843   2.76025   2.76745   2.77309   2.78262
 Alpha virt. eigenvalues --    2.79143   2.81965   2.83530   2.84330   2.86568
 Alpha virt. eigenvalues --    2.87849   2.88973   2.90654   2.91088   2.92975
 Alpha virt. eigenvalues --    2.93951   2.94498   2.95344   2.96100   2.98169
 Alpha virt. eigenvalues --    2.99514   3.01030   3.01616   3.04331   3.06681
 Alpha virt. eigenvalues --    3.09481   3.10592   3.10983   3.12413   3.16512
 Alpha virt. eigenvalues --    3.17207   3.17415   3.17785   3.17963   3.22469
 Alpha virt. eigenvalues --    3.24219   3.24763   3.25894   3.28653   3.28977
 Alpha virt. eigenvalues --    3.29445   3.29913   3.30799   3.31412   3.33876
 Alpha virt. eigenvalues --    3.34476   3.38186   3.38280   3.39705   3.40771
 Alpha virt. eigenvalues --    3.41313   3.42912   3.43571   3.46467   3.49419
 Alpha virt. eigenvalues --    3.50103   3.51378   3.53407   3.58332   3.59166
 Alpha virt. eigenvalues --    3.59563   3.60557   3.60917   3.61621   3.63829
 Alpha virt. eigenvalues --    3.68110   3.71313   3.73037   3.73819   3.74653
 Alpha virt. eigenvalues --    3.76245   3.76756   3.78800   3.80491   3.82975
 Alpha virt. eigenvalues --    3.90062   3.95333   3.96827   3.98208   3.99576
 Alpha virt. eigenvalues --    4.01022   4.01328   4.05952   4.10420   4.11035
 Alpha virt. eigenvalues --    4.15757   4.31493   4.40962   4.44558   4.45439
 Alpha virt. eigenvalues --    4.46900   4.53234   4.59920   4.66385   4.72235
 Alpha virt. eigenvalues --    4.77992   4.81203   4.87645   4.91350   5.00033
 Alpha virt. eigenvalues --    5.01541   5.02837   5.06950   5.09955   5.12059
 Alpha virt. eigenvalues --    5.20051   5.26424   5.26513   5.35862   5.40518
 Alpha virt. eigenvalues --    5.46977   5.60478   5.65441   5.79288   6.02496
 Alpha virt. eigenvalues --    9.59932   9.65688   9.75838   9.90673   9.93206
 Alpha virt. eigenvalues --    9.94389  10.07502  10.08794  10.14265  10.19555
 Alpha virt. eigenvalues --   10.21247  10.22728  10.23294  10.29859  10.33180
 Alpha virt. eigenvalues --   10.34609  10.41430  10.43492  10.53983  10.57288
 Alpha virt. eigenvalues --   10.63400  10.75027  10.78111  12.60059  12.69156
 Alpha virt. eigenvalues --   12.91344  13.11297  13.12770  13.33521  13.39241
 Alpha virt. eigenvalues --   13.42608  13.50483  13.56008  13.90115  14.02576
 Alpha virt. eigenvalues --   14.06453  17.30571  18.03971  18.46857  18.48984
 Alpha virt. eigenvalues --   23.80249  24.08341  24.10805  24.15263  24.21587
 Alpha virt. eigenvalues --   24.30846  24.32083  35.77339  35.88727  51.86792
 Alpha virt. eigenvalues --   51.89737  52.01694  69.27313 129.09339 137.69678
 Alpha virt. eigenvalues --  139.53154 139.59476 474.10122
          Condensed to atoms (all electrons):
               1          2          3          4          5          6
     1  C    5.519442   0.267288   0.337968  -0.229657  -0.024649  -0.569730
     2  C    0.267288   5.851875  -0.613711  -0.075991  -0.309893   0.243143
     3  C    0.337968  -0.613711   6.222859   0.503430   0.178779  -0.373669
     4  C   -0.229657  -0.075991   0.503430   5.132922   0.535573   0.134157
     5  C   -0.024649  -0.309893   0.178779   0.535573   4.889652   0.498755
     6  C   -0.569730   0.243143  -0.373669   0.134157   0.498755   6.719884
     7  H    0.011421  -0.013946   0.388789  -0.039858   0.011034  -0.011447
     8  H   -0.005851   0.048415  -0.057227   0.377551  -0.041811   0.020741
     9  H    0.046569  -0.000038   0.013400  -0.036691   0.389923  -0.070697
    10  H   -0.051903   0.015165  -0.008033   0.011546   0.009093   0.365683
    11  H   -0.020436   0.014177  -0.004502  -0.000040   0.002003  -0.017629
    12  C   -0.205417  -0.024283  -0.107649  -0.000845  -0.007941  -0.103877
    13  H   -0.000212   0.019456   0.018362  -0.000490   0.001404  -0.006840
    14  N    0.419365  -0.075832  -0.031187  -0.012374  -0.003585  -0.177734
    15  N   -0.014590   0.268227  -0.166191  -0.029487  -0.008549  -0.009290
    16  P   -0.000676   0.000460  -0.001090  -0.001220  -0.000080   0.000123
    17  O    0.000181  -0.000472  -0.000519  -0.000279  -0.000020   0.000128
    18  O    0.000094  -0.000112   0.000147   0.000012  -0.000001   0.000012
    19  H   -0.000009   0.000063   0.000006   0.000002   0.000000  -0.000001
    20  O    0.001064  -0.002984  -0.003241  -0.001110  -0.000247   0.001124
    21  H   -0.010899   0.018882   0.041980   0.006141   0.002732  -0.017748
    22  O   -0.000269  -0.000199   0.001011   0.000233   0.000064  -0.000104
    23  H    0.000018   0.000026  -0.000043   0.000028  -0.000005   0.000003
               7          8          9         10         11         12
     1  C    0.011421  -0.005851   0.046569  -0.051903  -0.020436  -0.205417
     2  C   -0.013946   0.048415  -0.000038   0.015165   0.014177  -0.024283
     3  C    0.388789  -0.057227   0.013400  -0.008033  -0.004502  -0.107649
     4  C   -0.039858   0.377551  -0.036691   0.011546  -0.000040  -0.000845
     5  C    0.011034  -0.041811   0.389923   0.009093   0.002003  -0.007941
     6  C   -0.011447   0.020741  -0.070697   0.365683  -0.017629  -0.103877
     7  H    0.512164  -0.004254  -0.000260   0.000079   0.000022   0.000370
     8  H   -0.004254   0.544698  -0.004829  -0.000291  -0.000002   0.000573
     9  H   -0.000260  -0.004829   0.544852  -0.004618  -0.000009   0.000506
    10  H    0.000079  -0.000291  -0.004618   0.539585   0.002151   0.003666
    11  H    0.000022  -0.000002  -0.000009   0.002151   0.396880  -0.024088
    12  C    0.000370   0.000573   0.000506   0.003666  -0.024088   5.065187
    13  H   -0.000019  -0.000001  -0.000000  -0.000014  -0.002341   0.429480
    14  N   -0.000672   0.000442  -0.000399  -0.002151   0.364079   0.362750
    15  N    0.002625  -0.000078   0.000290  -0.002258   0.003108   0.400491
    16  P    0.000080   0.000027   0.000002   0.000006  -0.000048  -0.000970
    17  O   -0.000025   0.000001  -0.000000  -0.000000  -0.000002  -0.000100
    18  O   -0.000001  -0.000000  -0.000000  -0.000000  -0.000000  -0.000248
    19  H   -0.000000  -0.000000  -0.000000  -0.000000   0.000000   0.000016
    20  O   -0.000022   0.000003  -0.000000  -0.000000  -0.000057  -0.002610
    21  H   -0.000325  -0.000010   0.000000  -0.000016   0.000538   0.021783
    22  O    0.000046   0.000001  -0.000000  -0.000000   0.000000   0.000415
    23  H   -0.000025  -0.000000   0.000000  -0.000000  -0.000000  -0.000014
              13         14         15         16         17         18
     1  C   -0.000212   0.419365  -0.014590  -0.000676   0.000181   0.000094
     2  C    0.019456  -0.075832   0.268227   0.000460  -0.000472  -0.000112
     3  C    0.018362  -0.031187  -0.166191  -0.001090  -0.000519   0.000147
     4  C   -0.000490  -0.012374  -0.029487  -0.001220  -0.000279   0.000012
     5  C    0.001404  -0.003585  -0.008549  -0.000080  -0.000020  -0.000001
     6  C   -0.006840  -0.177734  -0.009290   0.000123   0.000128   0.000012
     7  H   -0.000019  -0.000672   0.002625   0.000080  -0.000025  -0.000001
     8  H   -0.000001   0.000442  -0.000078   0.000027   0.000001  -0.000000
     9  H   -0.000000  -0.000399   0.000290   0.000002  -0.000000  -0.000000
    10  H   -0.000014  -0.002151  -0.002258   0.000006  -0.000000  -0.000000
    11  H   -0.002341   0.364079   0.003108  -0.000048  -0.000002  -0.000000
    12  C    0.429480   0.362750   0.400491  -0.000970  -0.000100  -0.000248
    13  H    0.501052  -0.054366  -0.050617  -0.000240  -0.000028  -0.000009
    14  N   -0.054366   6.528464   0.021816   0.000299   0.000053   0.000003
    15  N   -0.050617   0.021816   7.337644  -0.000238   0.006137   0.000511
    16  P   -0.000240   0.000299  -0.000238   0.005661  -0.000792  -0.000836
    17  O   -0.000028   0.000053   0.006137  -0.000792   0.002107   0.000008
    18  O   -0.000009   0.000003   0.000511  -0.000836   0.000008   0.000687
    19  H    0.000002  -0.000002  -0.000221  -0.000060  -0.000063  -0.000048
    20  O   -0.000604   0.001569   0.050179  -0.001644   0.000704   0.000384
    21  H    0.004815  -0.017382  -0.297113   0.000248  -0.002090  -0.000284
    22  O    0.000013  -0.000058  -0.004494  -0.001813  -0.000905  -0.000199
    23  H   -0.000000   0.000001   0.000180  -0.000003   0.000018   0.000084
              19         20         21         22         23
     1  C   -0.000009   0.001064  -0.010899  -0.000269   0.000018
     2  C    0.000063  -0.002984   0.018882  -0.000199   0.000026
     3  C    0.000006  -0.003241   0.041980   0.001011  -0.000043
     4  C    0.000002  -0.001110   0.006141   0.000233   0.000028
     5  C    0.000000  -0.000247   0.002732   0.000064  -0.000005
     6  C   -0.000001   0.001124  -0.017748  -0.000104   0.000003
     7  H   -0.000000  -0.000022  -0.000325   0.000046  -0.000025
     8  H   -0.000000   0.000003  -0.000010   0.000001  -0.000000
     9  H   -0.000000  -0.000000   0.000000  -0.000000   0.000000
    10  H   -0.000000  -0.000000  -0.000016  -0.000000  -0.000000
    11  H    0.000000  -0.000057   0.000538   0.000000  -0.000000
    12  C    0.000016  -0.002610   0.021783   0.000415  -0.000014
    13  H    0.000002  -0.000604   0.004815   0.000013  -0.000000
    14  N   -0.000002   0.001569  -0.017382  -0.000058   0.000001
    15  N   -0.000221   0.050179  -0.297113  -0.004494   0.000180
    16  P   -0.000060  -0.001644   0.000248  -0.001813  -0.000003
    17  O   -0.000063   0.000704  -0.002090  -0.000905   0.000018
    18  O   -0.000048   0.000384  -0.000284  -0.000199   0.000084
    19  H    0.000060   0.000006   0.000092   0.000071  -0.000002
    20  O    0.000006   0.005817  -0.013388  -0.000693   0.000009
    21  H    0.000092  -0.013388   0.066810   0.002005  -0.000093
    22  O    0.000071  -0.000693   0.002005   0.003220  -0.000470
    23  H   -0.000002   0.000009  -0.000093  -0.000470   0.000322
 Mulliken charges:
               1
     1  C    0.530889
     2  C    0.370284
     3  C   -0.339672
     4  C   -0.273553
     5  C   -0.122229
     6  C   -0.624987
     7  H    0.144225
     8  H    0.121903
     9  H    0.122000
    10  H    0.122311
    11  H    0.286196
    12  C    0.192807
    13  H    0.141196
    14  N   -0.323098
    15  N   -0.508081
    16  P    0.002804
    17  O   -0.004042
    18  O   -0.000202
    19  H    0.000086
    20  O   -0.034256
    21  H    0.193324
    22  O    0.002127
    23  H   -0.000032
 Sum of Mulliken charges =  -0.00000
 Mulliken charges with hydrogens summed into heavy atoms:
               1
     1  C    0.530889
     2  C    0.370284
     3  C   -0.195447
     4  C   -0.151650
     5  C   -0.000230
     6  C   -0.502676
[...]
 IDIUse=2 WtCom= 0.00D+00 WtEn= 1.00D+00
 Coeff-En:   0.000D+00 0.178D+00 0.822D+00
 Coeff:      0.000D+00 0.178D+00 0.822D+00
 Gap=     0.294 Goal=   None    Shift=    0.000
 RMSDP=8.03D-03 MaxDP=3.41D-01 DE=-1.23D-01 OVMax= 9.76D-01

 Cycle   4  Pass 1  IDiag  1:
 E= -642.303291869685     Delta-E=        1.559508064111 Rises=F Damp=F
 DIIS: error= 8.64D-02 at cycle   4 NSaved=   4.
 NSaved= 4 IEnMin= 3 EnMin= -643.862799933796     IErMin= 2 ErrMin= 1.76D-02
 ErrMax= 8.64D-02  0.00D+00 EMaxC= 1.00D-01 BMatC= 1.12D+00 BMatP= 1.19D-01
 IDIUse=2 WtCom= 0.00D+00 WtEn= 1.00D+00
 Coeff-En:   0.000D+00 0.000D+00 0.881D+00 0.119D+00
 Coeff:      0.000D+00 0.000D+00 0.881D+00 0.119D+00
 Gap=     0.028 Goal=   None    Shift=    0.000
 RMSDP=7.07D-03 MaxDP=3.46D-01 DE= 1.56D+00 OVMax= 9.85D-01

 Cycle   5  Pass 1  IDiag  1:
 E= -643.942516270663     Delta-E=       -1.639224400978 Rises=F Damp=F
 DIIS: error= 2.28D-02 at cycle   5 NSaved=   5.
 NSaved= 5 IEnMin= 5 EnMin= -643.942516270663     IErMin= 2 ErrMin= 1.76D-02
 ErrMax= 2.28D-02  0.00D+00 EMaxC= 1.00D-01 BMatC= 1.04D-01 BMatP= 1.19D-01
 IDIUse=3 WtCom= 7.72D-01 WtEn= 2.28D-01
 Coeff-Com: -0.199D+00 0.413D+00 0.397D+00 0.153D-02 0.387D+00
 Coeff-En:   0.000D+00 0.000D+00 0.322D+00 0.000D+00 0.678D+00
 Coeff:     -0.153D+00 0.319D+00 0.380D+00 0.118D-02 0.453D+00
 Gap=     0.173 Goal=   None    Shift=    0.000
 RMSDP=1.53D-03 MaxDP=3.98D-02 DE=-1.64D+00 OVMax= 7.17D-02

 Cycle   6  Pass 1  IDiag  1:
 E= -644.009281247291     Delta-E=       -0.066764976628 Rises=F Damp=F
 DIIS: error= 6.50D-03 at cycle   6 NSaved=   6.
 NSaved= 6 IEnMin= 6 EnMin= -644.009281247291     IErMin= 6 ErrMin= 6.50D-03
 ErrMax= 6.50D-03  0.00D+00 EMaxC= 1.00D-01 BMatC= 8.29D-03 BMatP= 1.04D-01
 IDIUse=3 WtCom= 9.35D-01 WtEn= 6.50D-02
 Coeff-Com: -0.664D-01 0.973D-01 0.556D-01 0.342D-02 0.216D+00 0.694D+00
 Coeff-En:   0.000D+00 0.000D+00 0.000D+00 0.000D+00 0.256D-01 0.974D+00
 Coeff:     -0.621D-01 0.909D-01 0.520D-01 0.319D-02 0.204D+00 0.712D+00
 Gap=     0.179 Goal=   None    Shift=    0.000
 RMSDP=5.15D-04 MaxDP=1.06D-02 DE=-6.68D-02 OVMax= 2.01D-02

 Cycle   7  Pass 1  IDiag  1:
 E= -644.015754767343     Delta-E=       -0.006473520052 Rises=F Damp=F
 DIIS: error= 1.36D-03 at cycle   7 NSaved=   7.
 NSaved= 7 IEnMin= 7 EnMin= -644.015754767343     IErMin= 7 ErrMin= 1.36D-03
 ErrMax= 1.36D-03  0.00D+00 EMaxC= 1.00D-01 BMatC= 3.86D-04 BMatP= 8.29D-03
 IDIUse=3 WtCom= 9.86D-01 WtEn= 1.36D-02
 Coeff-Com: -0.194D-01 0.303D-01-0.582D-01-0.244D-03-0.128D-01 0.255D+00
 Coeff-Com:  0.805D+00
 Coeff-En:   0.000D+00 0.000D+00 0.000D+00 0.000D+00 0.000D+00 0.000D+00
 Coeff-En:   0.100D+01
 Coeff:     -0.191D-01 0.299D-01-0.574D-01-0.241D-03-0.126D-01 0.252D+00
 Coeff:      0.808D+00
 Gap=     0.188 Goal=   None    Shift=    0.000
 RMSDP=1.34D-04 MaxDP=2.99D-03 DE=-6.47D-03 OVMax= 9.05D-03

 Cycle   8  Pass 1  IDiag  1:
 E= -644.016218035954     Delta-E=       -0.000463268611 Rises=F Damp=F
 DIIS: error= 7.12D-04 at cycle   8 NSaved=   8.
 NSaved= 8 IEnMin= 8 EnMin= -644.016218035954     IErMin= 8 ErrMin= 7.12D-04
 ErrMax= 7.12D-04  0.00D+00 EMaxC= 1.00D-01 BMatC= 9.62D-05 BMatP= 3.86D-04
 IDIUse=3 WtCom= 9.93D-01 WtEn= 7.12D-03
 Coeff-Com: -0.368D-02 0.606D-02-0.353D-01 0.892D-03-0.248D-01 0.566D-01
 Coeff-Com:  0.424D+00 0.576D+00
 Coeff-En:   0.000D+00 0.000D+00 0.000D+00 0.000D+00 0.000D+00 0.000D+00
 Coeff-En:   0.000D+00 0.100D+01
 Coeff:     -0.365D-02 0.601D-02-0.350D-01 0.886D-03-0.246D-01 0.562D-01
 Coeff:      0.421D+00 0.579D+00
 Gap=     0.189 Goal=   None    Shift=    0.000
 RMSDP=6.05D-05 MaxDP=1.01D-03 DE=-4.63D-04 OVMax= 2.59D-03

 Cycle   9  Pass 1  IDiag  1:
 E= -644.016299954567     Delta-E=       -0.000081918614 Rises=F Damp=F
 DIIS: error= 2.05D-04 at cycle   9 NSaved=   9.
 NSaved= 9 IEnMin= 9 EnMin= -644.016299954567     IErMin= 9 ErrMin= 2.05D-04
 ErrMax= 2.05D-04  0.00D+00 EMaxC= 1.00D-01 BMatC= 8.95D-06 BMatP= 9.62D-05
 IDIUse=3 WtCom= 9.98D-01 WtEn= 2.05D-03
 Coeff-Com:  0.472D-04 0.476D-03-0.132D-04-0.448D-04-0.319D-02-0.419D-01
 Coeff-Com: -0.422D-01 0.144D+00 0.943D+00
 Coeff-En:   0.000D+00 0.000D+00 0.000D+00 0.000D+00 0.000D+00 0.000D+00
 Coeff-En:   0.000D+00 0.000D+00 0.100D+01
 Coeff:      0.471D-04 0.475D-03-0.132D-04-0.447D-04-0.318D-02-0.419D-01
 Coeff:     -0.421D-01 0.144D+00 0.943D+00
 Gap=     0.189 Goal=   None    Shift=    0.000
 RMSDP=3.27D-05 MaxDP=6.86D-04 DE=-8.19D-05 OVMax= 2.67D-03

 Cycle  10  Pass 1  IDiag  1:
 E= -644.016313368617     Delta-E=       -0.000013414049 Rises=F Damp=F
 DIIS: error= 2.47D-05 at cycle  10 NSaved=  10.
 NSaved=10 IEnMin=10 EnMin= -644.016313368617     IErMin=10 ErrMin= 2.47D-05
 ErrMax= 2.47D-05  0.00D+00 EMaxC= 1.00D-01 BMatC= 2.19D-07 BMatP= 8.95D-06
 IDIUse=1 WtCom= 1.00D+00 WtEn= 0.00D+00
 Coeff-Com: -0.875D-04 0.230D-03 0.149D-02-0.724D-04 0.452D-03-0.101D-01
 Coeff-Com: -0.271D-01 0.934D-02 0.165D+00 0.861D+00
 Coeff:     -0.875D-04 0.230D-03 0.149D-02-0.724D-04 0.452D-03-0.101D-01
 Coeff:     -0.271D-01 0.934D-02 0.165D+00 0.861D+00
 Gap=     0.189 Goal=   None    Shift=    0.000
 RMSDP=7.99D-06 MaxDP=2.27D-04 DE=-1.34D-05 OVMax= 1.06D-03

 Cycle  11  Pass 1  IDiag  1:
 E= -644.016314232137     Delta-E=       -0.000000863521 Rises=F Damp=F
 DIIS: error= 1.67D-05 at cycle  11 NSaved=  11.
 NSaved=11 IEnMin=11 EnMin= -644.016314232137     IErMin=11 ErrMin= 1.67D-05
 ErrMax= 1.67D-05  0.00D+00 EMaxC= 1.00D-01 BMatC= 9.97D-08 BMatP= 2.19D-07
 IDIUse=1 WtCom= 1.00D+00 WtEn= 0.00D+00
 Coeff-Com: -0.988D-04 0.162D-03 0.511D-03-0.515D-04 0.355D-03 0.459D-03
 Coeff-Com: -0.692D-02-0.917D-02-0.349D-01 0.387D+00 0.662D+00
 Coeff:     -0.988D-04 0.162D-03 0.511D-03-0.515D-04 0.355D-03 0.459D-03
 Coeff:     -0.692D-02-0.917D-02-0.349D-01 0.387D+00 0.662D+00
 Gap=     0.189 Goal=   None    Shift=    0.000
 RMSDP=3.57D-06 MaxDP=1.07D-04 DE=-8.64D-07 OVMax= 5.10D-04

 Cycle  12  Pass 1  IDiag  1:
 E= -644.016314481134     Delta-E=       -0.000000248997 Rises=F Damp=F
 DIIS: error= 7.34D-06 at cycle  12 NSaved=  12.
 NSaved=12 IEnMin=12 EnMin= -644.016314481134     IErMin=12 ErrMin= 7.34D-06
 ErrMax= 7.34D-06  0.00D+00 EMaxC= 1.00D-01 BMatC= 1.56D-08 BMatP= 9.97D-08
 IDIUse=1 WtCom= 1.00D+00 WtEn= 0.00D+00
 Coeff-Com:  0.198D-04-0.525D-04-0.223D-03-0.860D-05-0.769D-04 0.274D-02
 Coeff-Com:  0.369D-02-0.575D-02-0.517D-01-0.117D+00 0.211D+00 0.957D+00
 Coeff:      0.198D-04-0.525D-04-0.223D-03-0.860D-05-0.769D-04 0.274D-02
 Coeff:      0.369D-02-0.575D-02-0.517D-01-0.117D+00 0.211D+00 0.957D+00
 Gap=     0.189 Goal=   None    Shift=    0.000
 RMSDP=3.08D-06 MaxDP=1.00D-04 DE=-2.49D-07 OVMax= 4.77D-04

 Cycle  13  Pass 1  IDiag  1:
 E= -644.016314579573     Delta-E=       -0.000000098439 Rises=F Damp=F
 DIIS: error= 3.19D-06 at cycle  13 NSaved=  13.
 NSaved=13 IEnMin=13 EnMin= -644.016314579573     IErMin=13 ErrMin= 3.19D-06
 ErrMax= 3.19D-06  0.00D+00 EMaxC= 1.00D-01 BMatC= 1.16D-09 BMatP= 1.56D-08
 IDIUse=1 WtCom= 1.00D+00 WtEn= 0.00D+00
 Coeff-Com: -0.101D-04 0.143D-04-0.674D-04-0.442D-05-0.282D-04 0.596D-07
 Coeff-Com:  0.705D-03 0.919D-03 0.911D-02-0.332D-01-0.106D+00-0.136D+00
 Coeff-Com:  0.127D+01
 Coeff:     -0.101D-04 0.143D-04-0.674D-04-0.442D-05-0.282D-04 0.596D-07
 Coeff:      0.705D-03 0.919D-03 0.911D-02-0.332D-01-0.106D+00-0.136D+00
 Coeff:      0.127D+01
 Gap=     0.189 Goal=   None    Shift=    0.000
 RMSDP=1.36D-06 MaxDP=4.32D-05 DE=-9.84D-08 OVMax= 2.09D-04

 Cycle  14  Pass 1  IDiag  1:
 E= -644.016314592155     Delta-E=       -0.000000012582 Rises=F Damp=F
 DIIS: error= 8.06D-07 at cycle  14 NSaved=  14.
 NSaved=14 IEnMin=14 EnMin= -644.016314592155     IErMin=14 ErrMin= 8.06D-07
 ErrMax= 8.06D-07  0.00D+00 EMaxC= 1.00D-01 BMatC= 9.90D-11 BMatP= 1.16D-09
 IDIUse=1 WtCom= 1.00D+00 WtEn= 0.00D+00
 Coeff-Com: -0.142D-04 0.236D-04 0.133D-04-0.234D-05-0.832D-06-0.188D-03
 Coeff-Com: -0.353D-03 0.673D-03 0.352D-02 0.135D-01-0.138D-01-0.822D-01
 Coeff-Com: -0.146D-01 0.109D+01
 Coeff:     -0.142D-04 0.236D-04 0.133D-04-0.234D-05-0.832D-06-0.188D-03
 Coeff:     -0.353D-03 0.673D-03 0.352D-02 0.135D-01-0.138D-01-0.822D-01
 Coeff:     -0.146D-01 0.109D+01
 Gap=     0.189 Goal=   None    Shift=    0.000
 RMSDP=2.35D-07 MaxDP=6.14D-06 DE=-1.26D-08 OVMax= 2.97D-05

 Cycle  15  Pass 1  IDiag  1:
 E= -644.016314592633     Delta-E=       -0.000000000478 Rises=F Damp=F
 DIIS: error= 2.25D-07 at cycle  15 NSaved=  15.
 NSaved=15 IEnMin=15 EnMin= -644.016314592633     IErMin=15 ErrMin= 2.25D-07
 ErrMax= 2.25D-07  0.00D+00 EMaxC= 1.00D-01 BMatC= 1.19D-11 BMatP= 9.90D-11
 IDIUse=1 WtCom= 1.00D+00 WtEn= 0.00D+00
 Coeff-Com: -0.271D-05 0.446D-05 0.483D-05 0.121D-06-0.305D-07-0.182D-04
 Coeff-Com: -0.164D-03-0.472D-04-0.576D-03 0.550D-02 0.980D-02 0.590D-02
 Coeff-Com: -0.130D+00 0.363D-01 0.107D+01
 Coeff:     -0.271D-05 0.446D-05 0.483D-05 0.121D-06-0.305D-07-0.182D-04
 Coeff:     -0.164D-03-0.472D-04-0.576D-03 0.550D-02 0.980D-02 0.590D-02
 Coeff:     -0.130D+00 0.363D-01 0.107D+01
 Gap=     0.189 Goal=   None    Shift=    0.000
 RMSDP=5.91D-08 MaxDP=1.07D-06 DE=-4.78D-10 OVMax= 5.25D-06

 Cycle  16  Pass 1  IDiag  1:
 E= -644.016314592676     Delta-E=       -0.000000000043 Rises=F Damp=F
 DIIS: error= 6.19D-08 at cycle  16 NSaved=  16.
 NSaved=16 IEnMin=16 EnMin= -644.016314592676     IErMin=16 ErrMin= 6.19D-08
 ErrMax= 6.19D-08  0.00D+00 EMaxC= 1.00D-01 BMatC= 9.33D-13 BMatP= 1.19D-11
 IDIUse=1 WtCom= 1.00D+00 WtEn= 0.00D+00
 Coeff-Com:  0.917D-06-0.144D-05-0.176D-05 0.237D-06 0.935D-06 0.145D-04
 Coeff-Com:  0.138D-04-0.771D-04-0.858D-04-0.109D-02-0.335D-04 0.376D-02
 Coeff-Com:  0.180D-01-0.820D-01-0.115D+00 0.118D+01
 Coeff:      0.917D-06-0.144D-05-0.176D-05 0.237D-06 0.935D-06 0.145D-04
 Coeff:      0.138D-04-0.771D-04-0.858D-04-0.109D-02-0.335D-04 0.376D-02
 Coeff:      0.180D-01-0.820D-01-0.115D+00 0.118D+01
 Gap=     0.189 Goal=   None    Shift=    0.000
 RMSDP=1.90D-08 MaxDP=4.71D-07 DE=-4.29D-11 OVMax= 1.99D-06

 Cycle  17  Pass 1  IDiag  1:
 E= -644.016314592690     Delta-E=       -0.000000000014 Rises=F Damp=F
 DIIS: error= 1.12D-08 at cycle  17 NSaved=  17.
 NSaved=17 IEnMin=17 EnMin= -644.016314592690     IErMin=17 ErrMin= 1.12D-08
 ErrMax= 1.12D-08  0.00D+00 EMaxC= 1.00D-01 BMatC= 3.76D-14 BMatP= 9.33D-13
 IDIUse=1 WtCom= 1.00D+00 WtEn= 0.00D+00
 Coeff-Com:  0.178D-06-0.265D-06 0.199D-06 0.231D-07 0.307D-06 0.966D-06
 Coeff-Com:  0.577D-05 0.461D-05 0.234D-04-0.174D-03-0.478D-03-0.310D-03
 Coeff-Com:  0.586D-02 0.538D-03-0.536D-01-0.162D-01 0.106D+01
 Coeff:      0.178D-06-0.265D-06 0.199D-06 0.231D-07 0.307D-06 0.966D-06
 Coeff:      0.577D-05 0.461D-05 0.234D-04-0.174D-03-0.478D-03-0.310D-03
 Coeff:      0.586D-02 0.538D-03-0.536D-01-0.162D-01 0.106D+01
 Gap=     0.189 Goal=   None    Shift=    0.000
 RMSDP=5.27D-09 MaxDP=1.54D-07 DE=-1.39D-11 OVMax= 6.49D-07

 SCF Done:  E(RM062X) =  -644.016314593     A.U. after   17 cycles
            NFock= 17  Conv=0.53D-08     -V/T= 2.0026
 KE= 6.423221510187D+02 PE=-2.081192652035D+03 EE= 5.183490388223D+02
 Leave Link  502 at Mon Dec 12 20:22:02 2022, MaxMem=  6710886400 cpu:             143.5 elap:               7.8
 (Enter /data0/home/software/g16/l601.exe)
 Copying SCF densities to generalized density rwf, IOpCl= 0 IROHF=0.

 **********************************************************************

            Population analysis using the SCF density.

 **********************************************************************

 Alpha  occ. eigenvalues --  -78.15755 -19.70319 -19.66468 -19.65625 -19.56076
 Alpha  occ. eigenvalues --   -6.96427  -5.08348  -5.08316  -5.08110  -1.22601
 Alpha  occ. eigenvalues --   -1.15485  -1.15269  -1.05409  -0.71342  -0.63119
 Alpha  occ. eigenvalues --   -0.61864  -0.54371  -0.52682  -0.49437  -0.47224
 Alpha  occ. eigenvalues --   -0.44822  -0.43265  -0.42520  -0.35382  -0.34688
 Alpha virt. eigenvalues --   -0.15799  -0.00006   0.02341   0.04684   0.05460
 Alpha virt. eigenvalues --    0.12231   0.12985   0.15015   0.15788   0.17002
 Alpha virt. eigenvalues --    0.17981   0.19205   0.19521   0.20467   0.22456
 Alpha virt. eigenvalues --    0.23802   0.25466   0.25981   0.26891   0.27928
 Alpha virt. eigenvalues --    0.28461   0.30002   0.30559   0.32094   0.33801
 Alpha virt. eigenvalues --    0.35550   0.36360   0.36872   0.38355   0.40377
 Alpha virt. eigenvalues --    0.45271   0.49059   0.51492   0.59472   0.60779
 Alpha virt. eigenvalues --    0.75141   0.76082   0.79855   0.86207   0.99141
 Alpha virt. eigenvalues --    1.02329   1.03680   1.05159   1.09104   1.10285
 Alpha virt. eigenvalues --    1.13805   1.14866   1.19660   1.20651   1.21688
 Alpha virt. eigenvalues --    1.23416   1.25390   1.27214   1.29709   1.32200
 Alpha virt. eigenvalues --    1.34003   1.37768   1.41845   1.45675   1.48600
 Alpha virt. eigenvalues --    1.49094   1.53277   1.55250   1.56249   1.58841
 Alpha virt. eigenvalues --    1.64987   1.67323   1.69538   1.71455   1.76053
 Alpha virt. eigenvalues --    1.77595   1.83892   1.87107   1.88515   1.92510
 Alpha virt. eigenvalues --    1.96154   2.03140   2.05407   2.08956   2.14532
 Alpha virt. eigenvalues --    2.17864   2.22746   2.25306   2.29312   2.40567
 Alpha virt. eigenvalues --    2.44736   2.49375   2.50384   2.61956   2.66462
 Alpha virt. eigenvalues --    2.70643   2.77552   2.86842   2.96875   3.04732
 Alpha virt. eigenvalues --    5.01727   5.06217   5.06831   5.09054   5.09217
 Alpha virt. eigenvalues --    5.14391   5.18213   5.20226   5.27910   5.34090
 Alpha virt. eigenvalues --    5.66131   5.69801   6.69497   6.73964   6.75318
 Alpha virt. eigenvalues --    6.75830   6.78604   6.79682   6.81210   6.85953
 Alpha virt. eigenvalues --    6.87792   6.92966   6.96718   6.97297   6.99918
 Alpha virt. eigenvalues --    7.06213   7.07007   7.20803   7.26992   7.28232
 Alpha virt. eigenvalues --    7.31338   7.40584   7.64215  14.21614  14.28256
 Alpha virt. eigenvalues --   14.33663  49.96224  50.02612  50.04002  50.11795
 Alpha virt. eigenvalues --  163.84880
          Condensed to atoms (all electrons):
              16         17         18         19         20         21
    16  P   12.466127   0.554786   0.225005  -0.001068   0.275054  -0.013505
    17  O    0.554786   8.212681  -0.021589  -0.009198  -0.043272  -0.011383
    18  O    0.225005  -0.021589   8.044853   0.270648   0.019258   0.002296
    19  H   -0.001068  -0.009198   0.270648   0.450190  -0.013303   0.000305
    20  O    0.275054  -0.043272   0.019258  -0.013303   8.247068   0.178613
    21  H   -0.013505  -0.011383   0.002296   0.000305   0.178613   0.384996
    22  O    0.159784  -0.024155  -0.009330  -0.001678   0.012339  -0.001236
    23  H    0.040972   0.005761  -0.011795   0.002311  -0.016993   0.000417
              22         23
    16  P    0.159784   0.040972
    17  O   -0.024155   0.005761
    18  O   -0.009330  -0.011795
    19  H   -0.001678   0.002311
    20  O    0.012339  -0.016993
    21  H   -0.001236   0.000417
    22  O    8.127384   0.228885
    23  H    0.228885   0.470846
 Mulliken charges:
               1
     1  C    0.000000
     2  C    0.000000
     3  C    0.000000
     4  C    0.000000
     5  C    0.000000
     6  C    0.000000
     7  H    0.000000
     8  H    0.000000
     9  H    0.000000
    10  H    0.000000
    11  H    0.000000
    12  C    0.000000
    13  H    0.000000
    14  N    0.000000
    15  N    0.000000
    16  P    1.292847
    17  O   -0.663631
    18  O   -0.519346
    19  H    0.301792
    20  O   -0.658764
    21  H    0.459497
    22  O   -0.491992
    23  H    0.279597
 Sum of Mulliken charges =  -0.00000
 Mulliken charges with hydrogens summed into heavy atoms:
               1
     1  C    0.000000
     2  C    0.000000
     3  C    0.000000
     4  C    0.000000
     5  C    0.000000
     6  C    0.000000
    12  C    0.000000
    14  N    0.000000
    15  N    0.459497
    16  P    1.292847
    17  O   -0.663631
    18  O   -0.217553
    20  O   -0.658764
    22  O   -0.212395
         Mulliken charges condensed to fragments:
      1      0.000000
      2     -0.000000
 Electronic spatial extent (au):  <R**2>=           2031.8667
 Charge=             -0.0000 electrons
 Dipole moment (field-independent basis, Debye):
    X=              2.9591    Y=              2.5608    Z=             -4.7671  Tot=              6.1676
 Quadrupole moment (field-independent basis, Debye-Ang):
   XX=            -42.3575   YY=            -32.2054   ZZ=            -41.4660
   XY=             -5.9170   XZ=             12.5797   YZ=              3.2848
 Traceless Quadrupole moment (field-independent basis, Debye-Ang):
   XX=             -3.6812   YY=              6.4709   ZZ=             -2.7897
   XY=             -5.9170   XZ=             12.5797   YZ=              3.2848
 Octapole moment (field-independent basis, Debye-Ang**2):
  XXX=            343.4390  YYY=             26.0522  ZZZ=            -21.9882  XYY=             92.0534
  XXY=             30.2729  XXZ=            -41.8327  XZZ=            118.0751  YZZ=              0.1057
  YYZ=             -8.9047  XYZ=            -11.7396
 Hexadecapole moment (field-independent basis, Debye-Ang**3):
 XXXX=          -2218.9071 YYYY=           -154.0961 ZZZZ=           -174.3682 XXXY=           -156.8812
 XXXZ=            145.8918 YYYX=            -88.6269 YYYZ=             11.2455 ZZZX=             64.8141
 ZZZY=             12.7584 XXYY=           -305.0136 XXZZ=           -392.7960 YYZZ=            -45.8470
 XXYZ=             37.4891 YYXZ=             30.1240 ZZXY=              2.0569
 N-N= 2.765051476012D+02 E-N=-2.081192653312D+03  KE= 6.423221510187D+02
 No NMR shielding tensors so no spin-rotation constants.
 Leave Link  601 at Mon Dec 12 20:22:02 2022, MaxMem=  6710886400 cpu:               2.0 elap:               0.1
 (Enter /data0/home/software/g16/l122.exe)
 CPIOFr:  IOpCl= 0 IRwI=-1 IRwCP=  731 ICalc=  4 LCPTot=      297221 Len1MO=      782694 IndFrg=     4210691
 Restoring MOs from calculation   1 to rwf.
 CPIOFr:  IOpCl= 0 IRwI=-2 IRwCP=  731 ICalc=  0 LCPTot=      297221 Len1MO=      782694 IndFrg=     1079915
 Counterpoise corrected energy =   -1023.981632595443
                   BSSE energy =       0.001404382802
              sum of fragments =   -1023.833123791914
           complexation energy =     -94.07 kcal/mole (raw)
           complexation energy =     -93.19 kcal/mole (corrected)
 Leave Link  122 at Mon Dec 12 20:22:02 2022, MaxMem=  6710886400 cpu:               0.3 elap:               0.0
 (Enter /data0/home/software/g16/l9999.exe)
 1\1\GINC-LOCALHOST\SP\RM062X\6-311+G(2d,p)\C7H9N2O4P1\WUHANYU\12-Dec-2
 022\0\\#p M062X/6-311+G(2d,p) nosymm em=GD3 counterpoise=2\\Title Card
  Required\\0,1\C,0,2.8519,0.673823,0.064687\C,0,1.671924,-0.042406,-0.
 177155\C,0,1.667535,-1.432099,-0.253968\C,0,2.886274,-2.068248,-0.0788
 72\C,0,4.069471,-1.346436,0.164095\C,0,4.075891,0.03753,0.240577\H,0,0
 .755815,-1.983725,-0.440481\H,0,2.930749,-3.148869,-0.130013\H,0,4.998
 458,-1.886974,0.294928\H,0,4.982866,0.597134,0.427697\H,0,3.09859,2.80
 6894,0.225627\C,0,1.174867,2.104257,-0.143902\H,0,0.622319,3.02803,-0.
 186226\N,0,2.486419,2.014407,0.075408\N,0,0.653831,0.896388,-0.300118\
 P,0,-2.931215,-0.126795,0.124473\O,0,-2.567173,-0.174858,1.575591\O,0,
 -4.372331,0.59844,-0.097097\H,0,-4.282701,1.558552,-0.187988\O,0,-1.94
 3526,0.465603,-0.857665\H,0,-0.365456,0.704642,-0.483355\O,0,-3.324988
 ,-1.637236,-0.302288\H,0,-3.477205,-1.723439,-1.255407\\Version=ES64L-
 G16RevA.03\HF=-644.0163146\RMSD=5.270e-09\Dipole=5.6760938,2.1475469,-
 1.3723507\Quadrupole=-2.9422241,15.313923,-12.3716989,1.5741439,10.343
 9844,3.7720675\PG=C01 [X(C7H9N2O4P1)]\\@


 Any fool can criticize, condemn, and complain -- and most do.
 -- Dale Carnegie
 Job cpu time:       0 days  2 hours 15 minutes  7.7 seconds.
 Elapsed time:       0 days  0 hours  5 minutes 42.0 seconds.
 File lengths (MBytes):  RWF=    149 Int=      0 D2E=      0 Chk=     44 Scr=      1
 Normal termination of Gaussian 16 at Mon Dec 12 20:22:02 2022.
