 Entering Gaussian System, Link 0=g16
 Initial command:
 /data0/home/software/g16/l1.exe "/data0/home/software/g16/scratch/Gau-1675330.inp" -scrdir="/data0/home/software/g16/scratch/"
 Default is to use a total of  22 processors:
                               22 via shared-memory
                                1 via Linda
 Entering Link 1 = /data0/home/software/g16/l1.exe PID=   1675331.
  
 Copyright (c) 1988,1990,1992,1993,1995,1998,2003,2009,2016,
            Gaussian, Inc.  All Rights Reserved.
  
 This is part of the Gaussian(R) 16 program.  It is based on
 the Gaussian(R) 09 system (copyright 2009, Gaussian, Inc.),
 the Gaussian(R) 03 system (copyright 2003, Gaussian, Inc.),
 the Gaussian(R) 98 system (copyright 1998, Gaussian, Inc.),
 the Gaussian(R) 94 system (copyright 1995, Gaussian, Inc.),
 the Gaussian 92(TM) system (copyright 1992, Gaussian, Inc.),
 the Gaussian 90(TM) system (copyright 1990, Gaussian, Inc.),
 the Gaussian 88(TM) system (copyright 1988, Gaussian, Inc.),
 the Gaussian 86(TM) system (copyright 1986, Carnegie Mellon
 University), and the Gaussian 82(TM) system (copyright 1983,
 Carnegie Mellon University). Gaussian is a federally registered
 trademark of Gaussian, Inc.
  
 This software contains proprietary and confidential information,
 including trade secrets, belonging to Gaussian, Inc.
  
 This software is provided under written license and may be
 used, copied, transmitted, or stored only in accord with that
 written license.
  
 The following legend is applicable only to US Government
 contracts under FAR:
  
                    RESTRICTED RIGHTS LEGEND
  
 Use, reproduction and disclosure by the US Government is
 subject to restrictions as set forth in subparagraphs (a)
 and (c) of the Commercial Computer Software - Restricted
 Rights clause in FAR 52.227-19.
  
 Gaussian, Inc.
 340 Quinnipiac St., Bldg. 40, Wallingford CT 06492
  
  
 ---------------------------------------------------------------
 Warning -- This program may not be used in any manner that
 competes with the business of Gaussian, Inc. or will provide
 assistance to any competitor of Gaussian, Inc.  The licensee
 of this program is prohibited from giving any competitor of
 Gaussian, Inc. access to this program.  By using this program,
 the user acknowledges that Gaussian, Inc. is engaged in the
 business of creating and licensing software in the field of
 computational chemistry and represents and warrants to the
 licensee that it is not a competitor of Gaussian, Inc. and that
 it will not use this program in any manner prohibited above.
 ---------------------------------------------------------------
  

 Cite this work as:
 Gaussian 16, Revision A.03,
 M. J. Frisch, G. W. Trucks, H. B. Schlegel, G. E. Scuseria, 
 M. A. Robb, J. R. Cheeseman, G. Scalmani, V. Barone, 
 G. A. Petersson, H. Nakatsuji, X. Li, M. Caricato, A. V. Marenich, 
 J. Bloino, B. G. Janesko, R. Gomperts, B. Mennucci, H. P. Hratchian, 
 J. V. Ortiz, A. F. Izmaylov, J. L. Sonnenberg, D. Williams-Young, 
 F. Ding, F. Lipparini, F. Egidi, J. Goings, B. Peng, A. Petrone, 
 T. Henderson, D. Ranasinghe, V. G. Zakrzewski, J. Gao, N. Rega, 
 G. Zheng, W. Liang, M. Hada, M. Ehara, K. Toyota, R. Fukuda, 
 J. Hasegawa, M. Ishida, T. Nakajima, Y. Honda, O. Kitao, H. Nakai, 
 T. Vreven, K. Throssell, J. A. Montgomery, Jr., J. E. Peralta, 
 F. Ogliaro, M. J. Bearpark, J. J. Heyd, E. N. Brothers, K. N. Kudin, 
 V. N. Staroverov, T. A. Keith, R. Kobayashi, J. Normand, 
 K. Raghavachari, A. P. Rendell, J. C. Burant, S. S. Iyengar, 
 J. Tomasi, M. Cossi, J. M. Millam, M. Klene, C. Adamo, R. Cammi, 
 J. W. Ochterski, R. L. Martin, K. Morokuma, O. Farkas, 
 J. B. Foresman, and D. J. Fox, Gaussian, Inc., Wallingford CT, 2016.
 
 ******************************************
 Gaussian 16:  ES64L-G16RevA.03 25-Dec-2016
                12-Dec-2022 
 ******************************************
 %nprocshared=24
 Will use up to   24 processors via shared memory.
 %mem=50GB
 -------------------------------------------------------------
 #p M062X/6-311+G(2d,p) nosymm em=GD3 scrf=(smd,solvent=water)
 -------------------------------------------------------------
 1/38=1,172=1/1;
 2/12=2,15=1,17=6,18=5,40=1/2;
 3/5=4,6=6,7=112,11=2,25=1,30=1,70=32201,72=1,74=-55,124=31/1,2,3;
 4//1;
 5/5=2,38=5,53=1/2;
 6/7=2,8=2,9=2,10=2,28=1/1;
 99/5=1,9=1/99;
 Leave Link    1 at Mon Dec 12 20:15:28 2022, MaxMem=  6710886400 cpu:               1.3 elap:               0.1
 (Enter /data0/home/software/g16/l101.exe)
 -------------------
 Title Card Required
 -------------------
 Symbolic Z-matrix:
 Charge =  0 Multiplicity = 1
 P                    -2.93122  -0.1268    0.12447 
 O                    -2.56717  -0.17486   1.57559 
 O                    -4.37233   0.59844  -0.0971 
 H                    -4.2827    1.55855  -0.18799 
 O                    -1.94353   0.4656   -0.85767 
 H                    -0.36546   0.70464  -0.48336 
 O                    -3.32499  -1.63724  -0.30229 
 H                    -3.47721  -1.72344  -1.25541 
 
 ITRead=  0  0  0  0  0  0  0  0
 MicOpt= -1 -1 -1 -1 -1 -1 -1 -1
 NAtoms=      8 NQM=        8 NQMF=       0 NMMI=      0 NMMIF=      0
                NMic=       0 NMicF=      0.
                    Isotopes and Nuclear Properties:
 (Nuclear quadrupole moments (NQMom) in fm**2, nuclear magnetic moments (NMagM)
  in nuclear magnetons)

  Atom         1           2           3           4           5           6           7           8
 IAtWgt=          31          16          16           1          16           1          16           1
 AtmWgt=  30.9737634  15.9949146  15.9949146   1.0078250  15.9949146   1.0078250  15.9949146   1.0078250
 NucSpn=           1           0           0           1           0           1           0           1
 AtZEff=  -0.0000000  -0.0000000  -0.0000000  -0.0000000  -0.0000000  -0.0000000  -0.0000000  -0.0000000
 NQMom=    0.0000000   0.0000000   0.0000000   0.0000000   0.0000000   0.0000000   0.0000000   0.0000000
 NMagM=    1.1316000   0.0000000   0.0000000   2.7928460   0.0000000   2.7928460   0.0000000   2.7928460
 AtZNuc=  15.0000000   8.0000000   8.0000000   1.0000000   8.0000000   1.0000000   8.0000000   1.0000000
 Leave Link  101 at Mon Dec 12 20:15:28 2022, MaxMem=  6710886400 cpu:               2.0 elap:               0.1
 (Enter /data0/home/software/g16/l202.exe)
                          Input orientation:                          
 ---------------------------------------------------------------------
 Center     Atomic      Atomic             Coordinates (Angstroms)
 Number     Number       Type             X           Y           Z
 ---------------------------------------------------------------------
      1         15           0       -2.931215   -0.126795    0.124473
      2          8           0       -2.567173   -0.174858    1.575591
      3          8           0       -4.372331    0.598440   -0.097097
      4          1           0       -4.282701    1.558552   -0.187988
      5          8           0       -1.943526    0.465603   -0.857665
      6          1           0       -0.365456    0.704642   -0.483355
      7          8           0       -3.324988   -1.637236   -0.302288
      8          1           0       -3.477205   -1.723439   -1.255407
 ---------------------------------------------------------------------
                    Distance matrix (angstroms):
                    1          2          3          4          5
     1  P    0.000000
     2  O    1.496857   0.000000
     3  O    1.628458   2.579626   0.000000
     4  H    2.182783   3.009644   0.968561   0.000000
     5  O    1.513625   2.592269   2.548569   2.667348   0.000000
     6  H    2.764753   3.140117   4.026850   4.020101   1.639376
     7  O    1.618213   2.497852   2.477353   3.338164   2.576589
     8  H    2.179781   3.352732   2.744823   3.543963   2.702272
                    6          7          8
     6  H    0.000000
     7  O    3.778360   0.000000
     8  H    4.021769   0.969039   0.000000
 Symmetry turned off by external request.
 Stoichiometry    H3O4P
 Framework group  C1[X(H3O4P)]
 Deg. of freedom    18
 Full point group                 C1      NOp   1
 Rotational constants (GHZ):           4.5730336           4.3424399           4.2283097
 Leave Link  202 at Mon Dec 12 20:15:28 2022, MaxMem=  6710886400 cpu:               0.1 elap:               0.0
 (Enter /data0/home/software/g16/l301.exe)
 Standard basis: 6-311+G(2d,p) (5D, 7F)
 Ernie: Thresh=  0.10000D-02 Tol=  0.10000D-05 Strict=F.
   161 basis functions,   248 primitive gaussians,   171 cartesian basis functions
    25 alpha electrons       25 beta electrons
       nuclear repulsion energy       276.5052461999 Hartrees.
 IExCor= 4336 DFT=T Ex+Corr=M062X ExCW=0 ScaHFX=  0.540000
 ScaDFX=  1.000000  1.000000  1.000000  1.000000 ScalE2=  1.000000  1.000000
 IRadAn=      5 IRanWt=     -1 IRanGd=            0 ICorTp=0 IEmpDi=131
 NAtoms=    8 NActive=    8 NUniq=    8 SFac= 1.00D+00 NAtFMM=   60 NAOKFM=F Big=F
 Integral buffers will be    131072 words long.
 Raffenetti 2 integral format.
 Two-electron integral symmetry is turned off.
 R6Disp:  Grimme-D3 Dispersion energy=       -0.0000985986 Hartrees.
 Nuclear repulsion after empirical dispersion term =      276.5051476012 Hartrees.
 ------------------------------------------------------------------------------
 Polarizable Continuum Model (PCM)
 =================================
 Model                : PCM.
 Atomic radii         : SMD-Coulomb.
 Polarization charges : Total charges.
 Charge compensation  : None.
 Solution method      : On-the-fly selection.
 Cavity type          : VdW (van der Waals Surface) (Alpha=1.000).
 Cavity algorithm     : GePol (No added spheres)
                        Default sphere list used, NSphG=    8.
                        Lebedev-Laikov grids with approx.  5.0 points / Ang**2.
                        Smoothing algorithm: York/Karplus (Gamma=1.0000).
                        Polarization charges: spherical gaussians, with
                                              point-specific exponents (IZeta= 3).
                        Self-potential: point-specific (ISelfS= 7).
                        Self-field    : sphere-specific E.n sum rule (ISelfD= 2).
 Solvent              : Water, Eps=  78.355300 Eps(inf)=   1.777849
 ------------------------------------------------------------------------------
 Spheres list:
 ISph  on   Nord     Re0    Alpha      Xe            Ye            Ze
    1   P      1    2.1200  1.000     -2.931215     -0.126795      0.124473
    2   O      2    1.5200  1.000     -2.567173     -0.174858      1.575591
    3   O      3    1.5200  1.000     -4.372331      0.598440     -0.097097
    4   H      4    1.2000  1.000     -4.282701      1.558552     -0.187988
    5   O      5    1.5200  1.000     -1.943526      0.465603     -0.857665
    6   H      6    1.2000  1.000     -0.365456      0.704642     -0.483355
    7   O      7    1.5200  1.000     -3.324988     -1.637236     -0.302288
    8   H      8    1.2000  1.000     -3.477205     -1.723439     -1.255407
 ------------------------------------------------------------------------------
 GePol: Number of generator spheres                  =       8
 GePol: Total number of spheres                      =       8
 GePol: Number of exposed spheres                    =       8 (100.00%)
 GePol: Number of points                             =     641
 GePol: Average weight of points                     =       0.15
 GePol: Minimum weight of points                     =   0.12D-07
 GePol: Maximum weight of points                     =    0.21991
 GePol: Number of points with low weight             =      26
 GePol: Fraction of low-weight points (<1% of avg)   =       4.06%
 GePol: Cavity surface area                          =     99.150 Ang**2
 GePol: Cavity volume                                =     71.846 Ang**3
 ------------------------------------------------------------------------------
 Atomic radii for non-electrostatic terms: SMD-CDS.
 ------------------------------------------------------------------------------
 PCM non-electrostatic energy =         0.0098493510 Hartrees.
 Nuclear repulsion after PCM non-electrostatic terms =      276.5149969522 Hartrees.
 Leave Link  301 at Mon Dec 12 20:15:28 2022, MaxMem=  6710886400 cpu:               1.6 elap:               0.1
 (Enter /data0/home/software/g16/l302.exe)
 NPDir=0 NMtPBC=     1 NCelOv=     1 NCel=       1 NClECP=     1 NCelD=      1
         NCelK=      1 NCelE2=     1 NClLst=     1 CellRange=     0.0.
 One-electron integrals computed using PRISM.
 NBasis=   161 RedAO= T EigKep=  5.94D-04  NBF=   161
 NBsUse=   161 1.00D-06 EigRej= -1.00D+00 NBFU=   161
 Precomputing XC quadrature grid using
 IXCGrd= 4 IRadAn=           5 IRanWt=          -1 IRanGd=           0 AccXCQ= 0.00D+00.
 Generated NRdTot=       0 NPtTot=           0 NUsed=           0 NTot=          32
 NSgBfM=   171   171   171   171   171 MxSgAt=     8 MxSgA2=     8.
 Leave Link  302 at Mon Dec 12 20:15:28 2022, MaxMem=  6710886400 cpu:               3.9 elap:               0.2
 (Enter /data0/home/software/g16/l303.exe)
 DipDrv:  MaxL=1.
 Leave Link  303 at Mon Dec 12 20:15:28 2022, MaxMem=  6710886400 cpu:               0.6 elap:               0.0
 (Enter /data0/home/software/g16/l401.exe)
 ExpMin= 3.48D-02 ExpMax= 7.75D+04 ExpMxC= 2.65D+03 IAcc=3 IRadAn=         5 AccDes= 0.00D+00
 Harris functional with IExCor= 1009 and IRadAn=       5 diagonalized for initial guess.
 HarFok:  IExCor= 1009 AccDes= 0.00D+00 IRadAn=         5 IDoV= 1 UseB2=F ITyADJ=14
 ICtDFT=  3500011 ScaDFX=  1.000000  1.000000  1.000000  1.000000
 FoFCou: FMM=F IPFlag=           0 FMFlag=      100000 FMFlg1=           0
         NFxFlg=           0 DoJE=T BraDBF=F KetDBF=T FulRan=T
         wScrn=  0.000000 ICntrl=       500 IOpCl=  0 I1Cent=   200000004 NGrid=           0
         NMat0=    1 NMatS0=      1 NMatT0=    0 NMatD0=    1 NMtDS0=    0 NMtDT0=    0
 Symmetry not used in FoFCou.
 Harris En= -643.858912413721    
 JPrj=0 DoOrth=F DoCkMO=F.
 Leave Link  401 at Mon Dec 12 20:15:29 2022, MaxMem=  6710886400 cpu:               8.7 elap:               0.4
 (Enter /data0/home/software/g16/l502.exe)
 Keep R1 ints in memory in canonical form, NReq=108959828.
 FoFCou: FMM=F IPFlag=           0 FMFlag=           0 FMFlg1=           0
         NFxFlg=           0 DoJE=F BraDBF=F KetDBF=F FulRan=T
         wScrn=  0.000000 ICntrl=       600 IOpCl=  0 I1Cent=           0 NGrid=           0
         NMat0=    1 NMatS0=  13041 NMatT0=    0 NMatD0=    1 NMtDS0=    0 NMtDT0=    0
 Symmetry not used in FoFCou.
 Two-electron integral symmetry not used.
 Closed shell SCF:
 Using DIIS extrapolation, IDIIS=  1040.
 NGot=  6710886400 LenX=  6625782178 LenY=  6625752496
 Requested convergence on RMS density matrix=1.00D-08 within 128 cycles.
 Requested convergence on MAX density matrix=1.00D-06.
 Requested convergence on             energy=1.00D-06.
 No special actions if energy rises.

 Cycle   1  Pass 1  IDiag  1:
 Inv3:  Mode=1 IEnd=     1232643.
 Iteration    1 A*A^-1 deviation from unit magnitude is 2.66D-15 for     68.
 Iteration    1 A*A^-1 deviation from orthogonality  is 1.53D-15 for    580    256.
 Iteration    1 A^-1*A deviation from unit magnitude is 2.66D-15 for    616.
 Iteration    1 A^-1*A deviation from orthogonality  is 1.29D-15 for    604    251.
 E= -643.769605803406    
 DIIS: error= 4.31D-02 at cycle   1 NSaved=   1.
 NSaved= 1 IEnMin= 1 EnMin= -643.769605803406     IErMin= 1 ErrMin= 4.31D-02
 ErrMax= 4.31D-02  0.00D+00 EMaxC= 1.00D-01 BMatC= 5.27D-01 BMatP= 5.27D-01
 IDIUse=3 WtCom= 5.69D-01 WtEn= 4.31D-01
 Coeff-Com:  0.100D+01
 Coeff-En:   0.100D+01
 Coeff:      0.100D+01
 Gap=     0.131 Goal=   None    Shift=    0.000
 GapD=    0.131 DampG=1.000 DampE=0.500 DampFc=0.5000 IDamp=-1.
 Damping current iteration by 5.00D-01
 RMSDP=4.73D-03 MaxDP=1.28D-01              OVMax= 2.06D-01

 Cycle   2  Pass 1  IDiag  1:
 E= -643.896613364284     Delta-E=       -0.127007560878 Rises=F Damp=T
 DIIS: error= 8.99D-03 at cycle   2 NSaved=   2.
 NSaved= 2 IEnMin= 2 EnMin= -643.896613364284     IErMin= 2 ErrMin= 8.99D-03
 ErrMax= 8.99D-03  0.00D+00 EMaxC= 1.00D-01 BMatC= 2.30D-02 BMatP= 5.27D-01
 IDIUse=3 WtCom= 9.10D-01 WtEn= 8.99D-02
 Coeff-Com:  0.536D-01 0.946D+00
 Coeff-En:   0.165D+00 0.835D+00
 Coeff:      0.636D-01 0.936D+00
 Gap=     0.272 Goal=   None    Shift=    0.000
 RMSDP=1.03D-03 MaxDP=2.94D-02 DE=-1.27D-01 OVMax= 1.25D-01

 Cycle   3  Pass 1  IDiag  1:
 E= -644.063735590927     Delta-E=       -0.167122226642 Rises=F Damp=F
 DIIS: error= 4.89D-03 at cycle   3 NSaved=   3.
 NSaved= 3 IEnMin= 3 EnMin= -644.063735590927     IErMin= 3 ErrMin= 4.89D-03
 ErrMax= 4.89D-03  0.00D+00 EMaxC= 1.00D-01 BMatC= 3.78D-03 BMatP= 2.30D-02
 IDIUse=3 WtCom= 9.51D-01 WtEn= 4.89D-02
 Coeff-Com: -0.267D-01 0.210D+00 0.816D+00
 Coeff-En:   0.000D+00 0.000D+00 0.100D+01
 Coeff:     -0.254D-01 0.200D+00 0.825D+00
 Gap=     0.280 Goal=   None    Shift=    0.000
 RMSDP=3.26D-04 MaxDP=8.35D-03 DE=-1.67D-01 OVMax= 1.54D-02

 Cycle   4  Pass 1  IDiag  1:
 E= -644.065065367573     Delta-E=       -0.001329776647 Rises=F Damp=F
 DIIS: error= 2.29D-03 at cycle   4 NSaved=   4.
 NSaved= 4 IEnMin= 4 EnMin= -644.065065367573     IErMin= 4 ErrMin= 2.29D-03
 ErrMax= 2.29D-03  0.00D+00 EMaxC= 1.00D-01 BMatC= 1.93D-03 BMatP= 3.78D-03
 IDIUse=3 WtCom= 9.77D-01 WtEn= 2.29D-02
 Coeff-Com: -0.176D-01 0.419D-01 0.460D+00 0.516D+00
 Coeff-En:   0.000D+00 0.000D+00 0.324D+00 0.676D+00
 Coeff:     -0.172D-01 0.410D-01 0.457D+00 0.519D+00
 Gap=     0.282 Goal=   None    Shift=    0.000
 RMSDP=1.49D-04 MaxDP=4.24D-03 DE=-1.33D-03 OVMax= 6.73D-03

 Cycle   5  Pass 1  IDiag  1:
 E= -644.066306311095     Delta-E=       -0.001240943522 Rises=F Damp=F
 DIIS: error= 1.94D-04 at cycle   5 NSaved=   5.
 NSaved= 5 IEnMin= 5 EnMin= -644.066306311095     IErMin= 5 ErrMin= 1.94D-04
 ErrMax= 1.94D-04  0.00D+00 EMaxC= 1.00D-01 BMatC= 1.34D-05 BMatP= 1.93D-03
 IDIUse=3 WtCom= 9.98D-01 WtEn= 1.94D-03
 Coeff-Com: -0.149D-02-0.418D-03 0.723D-01 0.121D+00 0.809D+00
 Coeff-En:   0.000D+00 0.000D+00 0.000D+00 0.000D+00 0.100D+01
 Coeff:     -0.149D-02-0.417D-03 0.722D-01 0.120D+00 0.809D+00
 Gap=     0.282 Goal=   None    Shift=    0.000
 RMSDP=1.85D-05 MaxDP=3.97D-04 DE=-1.24D-03 OVMax= 1.00D-03

 Cycle   6  Pass 1  IDiag  1:
 E= -644.066315809431     Delta-E=       -0.000009498335 Rises=F Damp=F
 DIIS: error= 7.93D-05 at cycle   6 NSaved=   6.
 NSaved= 6 IEnMin= 6 EnMin= -644.066315809431     IErMin= 6 ErrMin= 7.93D-05
 ErrMax= 7.93D-05  0.00D+00 EMaxC= 1.00D-01 BMatC= 1.53D-06 BMatP= 1.34D-05
 IDIUse=1 WtCom= 1.00D+00 WtEn= 0.00D+00
 Coeff-Com:  0.289D-03-0.184D-02 0.738D-02 0.174D-01 0.256D+00 0.721D+00
 Coeff:      0.289D-03-0.184D-02 0.738D-02 0.174D-01 0.256D+00 0.721D+00
 Gap=     0.282 Goal=   None    Shift=    0.000
 RMSDP=8.03D-06 MaxDP=2.58D-04 DE=-9.50D-06 OVMax= 3.61D-04

 Cycle   7  Pass 1  IDiag  1:
 E= -644.066316895374     Delta-E=       -0.000001085943 Rises=F Damp=F
 DIIS: error= 5.44D-05 at cycle   7 NSaved=   7.
 NSaved= 7 IEnMin= 7 EnMin= -644.066316895374     IErMin= 7 ErrMin= 5.44D-05
 ErrMax= 5.44D-05  0.00D+00 EMaxC= 1.00D-01 BMatC= 5.78D-07 BMatP= 1.53D-06
 IDIUse=1 WtCom= 1.00D+00 WtEn= 0.00D+00
 Coeff-Com:  0.632D-03-0.988D-03-0.161D-01-0.250D-01-0.802D-01 0.413D+00
 Coeff-Com:  0.709D+00
 Coeff:      0.632D-03-0.988D-03-0.161D-01-0.250D-01-0.802D-01 0.413D+00
 Coeff:      0.709D+00
 Gap=     0.282 Goal=   None    Shift=    0.000
 RMSDP=4.16D-06 MaxDP=9.86D-05 DE=-1.09D-06 OVMax= 2.76D-04

 Cycle   8  Pass 1  IDiag  1:
 E= -644.066317456853     Delta-E=       -0.000000561479 Rises=F Damp=F
 DIIS: error= 7.63D-06 at cycle   8 NSaved=   8.
 NSaved= 8 IEnMin= 8 EnMin= -644.066317456853     IErMin= 8 ErrMin= 7.63D-06
 ErrMax= 7.63D-06  0.00D+00 EMaxC= 1.00D-01 BMatC= 1.50D-08 BMatP= 5.78D-07
 IDIUse=1 WtCom= 1.00D+00 WtEn= 0.00D+00
 Coeff-Com:  0.101D-03-0.141D-03-0.304D-02-0.462D-02-0.190D-01 0.261D-01
 Coeff-Com:  0.142D+00 0.858D+00
 Coeff:      0.101D-03-0.141D-03-0.304D-02-0.462D-02-0.190D-01 0.261D-01
 Coeff:      0.142D+00 0.858D+00
 Gap=     0.282 Goal=   None    Shift=    0.000
 RMSDP=1.05D-06 MaxDP=2.18D-05 DE=-5.61D-07 OVMax= 6.09D-05

 Cycle   9  Pass 1  IDiag  1:
 E= -644.066317478186     Delta-E=       -0.000000021333 Rises=F Damp=F
 DIIS: error= 2.31D-06 at cycle   9 NSaved=   9.
 NSaved= 9 IEnMin= 9 EnMin= -644.066317478186     IErMin= 9 ErrMin= 2.31D-06
 ErrMax= 2.31D-06  0.00D+00 EMaxC= 1.00D-01 BMatC= 3.19D-09 BMatP= 1.50D-08
 IDIUse=1 WtCom= 1.00D+00 WtEn= 0.00D+00
 Coeff-Com: -0.512D-04 0.814D-04 0.106D-02 0.158D-02 0.197D-02-0.562D-01
 Coeff-Com: -0.405D-01 0.308D+00 0.784D+00
 Coeff:     -0.512D-04 0.814D-04 0.106D-02 0.158D-02 0.197D-02-0.562D-01
 Coeff:     -0.405D-01 0.308D+00 0.784D+00
 Gap=     0.282 Goal=   None    Shift=    0.000
 RMSDP=4.87D-07 MaxDP=1.04D-05 DE=-2.13D-08 OVMax= 2.88D-05

 Cycle  10  Pass 1  IDiag  1:
 E= -644.066317482441     Delta-E=       -0.000000004255 Rises=F Damp=F
 DIIS: error= 1.31D-06 at cycle  10 NSaved=  10.
 NSaved=10 IEnMin=10 EnMin= -644.066317482441     IErMin=10 ErrMin= 1.31D-06
 ErrMax= 1.31D-06  0.00D+00 EMaxC= 1.00D-01 BMatC= 4.64D-10 BMatP= 3.19D-09
 IDIUse=1 WtCom= 1.00D+00 WtEn= 0.00D+00
 Coeff-Com: -0.267D-04 0.420D-04 0.673D-03 0.969D-03 0.176D-02-0.292D-01
 Coeff-Com: -0.273D-01 0.780D-01 0.362D+00 0.613D+00
 Coeff:     -0.267D-04 0.420D-04 0.673D-03 0.969D-03 0.176D-02-0.292D-01
 Coeff:     -0.273D-01 0.780D-01 0.362D+00 0.613D+00
 Gap=     0.282 Goal=   None    Shift=    0.000
 RMSDP=1.19D-07 MaxDP=2.96D-06 DE=-4.25D-09 OVMax= 6.53D-06

 Cycle  11  Pass 1  IDiag  1:
 E= -644.066317482893     Delta-E=       -0.000000000451 Rises=F Damp=F
 DIIS: error= 2.73D-07 at cycle  11 NSaved=  11.
 NSaved=11 IEnMin=11 EnMin= -644.066317482893     IErMin=11 ErrMin= 2.73D-07
 ErrMax= 2.73D-07  0.00D+00 EMaxC= 1.00D-01 BMatC= 3.40D-11 BMatP= 4.64D-10
 IDIUse=1 WtCom= 1.00D+00 WtEn= 0.00D+00
 Coeff-Com:  0.790D-05-0.133D-04-0.569D-04-0.999D-04 0.279D-03 0.468D-02
 Coeff-Com:  0.290D-02-0.459D-01-0.826D-01 0.101D+00 0.102D+01
 Coeff:      0.790D-05-0.133D-04-0.569D-04-0.999D-04 0.279D-03 0.468D-02
 Coeff:      0.290D-02-0.459D-01-0.826D-01 0.101D+00 0.102D+01
 Gap=     0.282 Goal=   None    Shift=    0.000
 RMSDP=6.93D-08 MaxDP=1.51D-06 DE=-4.51D-10 OVMax= 5.83D-06

 Cycle  12  Pass 1  IDiag  1:
 E= -644.066317482965     Delta-E=       -0.000000000072 Rises=F Damp=F
 DIIS: error= 7.78D-08 at cycle  12 NSaved=  12.
 NSaved=12 IEnMin=12 EnMin= -644.066317482965     IErMin=12 ErrMin= 7.78D-08
 ErrMax= 7.78D-08  0.00D+00 EMaxC= 1.00D-01 BMatC= 9.82D-13 BMatP= 3.40D-11
 IDIUse=1 WtCom= 1.00D+00 WtEn= 0.00D+00
 Coeff-Com:  0.850D-06-0.152D-05-0.266D-04-0.401D-04-0.763D-04 0.142D-02
 Coeff-Com:  0.160D-02-0.919D-03-0.213D-01-0.547D-01-0.359D-01 0.111D+01
 Coeff:      0.850D-06-0.152D-05-0.266D-04-0.401D-04-0.763D-04 0.142D-02
 Coeff:      0.160D-02-0.919D-03-0.213D-01-0.547D-01-0.359D-01 0.111D+01
 Gap=     0.282 Goal=   None    Shift=    0.000
 RMSDP=1.64D-08 MaxDP=3.12D-07 DE=-7.22D-11 OVMax= 1.50D-06

 Cycle  13  Pass 1  IDiag  1:
 E= -644.066317482968     Delta-E=       -0.000000000003 Rises=F Damp=F
 DIIS: error= 1.25D-08 at cycle  13 NSaved=  13.
 NSaved=13 IEnMin=13 EnMin= -644.066317482968     IErMin=13 ErrMin= 1.25D-08
 ErrMax= 1.25D-08  0.00D+00 EMaxC= 1.00D-01 BMatC= 5.54D-14 BMatP= 9.82D-13
 IDIUse=1 WtCom= 1.00D+00 WtEn= 0.00D+00
 Coeff-Com: -0.677D-06 0.106D-05 0.426D-05 0.867D-05-0.676D-05-0.435D-03
 Coeff-Com: -0.307D-03 0.301D-02 0.674D-02-0.207D-02-0.555D-01-0.572D-01
 Coeff-Com:  0.111D+01
 Coeff:     -0.677D-06 0.106D-05 0.426D-05 0.867D-05-0.676D-05-0.435D-03
 Coeff:     -0.307D-03 0.301D-02 0.674D-02-0.207D-02-0.555D-01-0.572D-01
 Coeff:      0.111D+01
 Gap=     0.282 Goal=   None    Shift=    0.000
 RMSDP=3.34D-09 MaxDP=5.48D-08 DE=-3.07D-12 OVMax= 2.30D-07

 Error on total polarization charges =  0.04212
 SCF Done:  E(RM062X) =  -644.066317483     A.U. after   13 cycles
            NFock= 13  Conv=0.33D-08     -V/T= 2.0028
 KE= 6.422714111738D+02 PE=-2.081885408199D+03 EE= 5.190326825900D+02
 SMD-CDS (non-electrostatic) energy       (kcal/mol) =       6.18
 (included in total energy above)
 Leave Link  502 at Mon Dec 12 20:15:40 2022, MaxMem=  6710886400 cpu:             225.5 elap:              11.0
 (Enter /data0/home/software/g16/l601.exe)
 Copying SCF densities to generalized density rwf, IOpCl= 0 IROHF=0.

 **********************************************************************

            Population analysis using the SCF density.

 **********************************************************************

 Alpha  occ. eigenvalues --  -78.16359 -19.66624 -19.65705 -19.65503 -19.58772
 Alpha  occ. eigenvalues --   -6.96956  -5.08874  -5.08833  -5.08704  -1.21827
 Alpha  occ. eigenvalues --   -1.15049  -1.13356  -1.08190  -0.70962  -0.62871
 Alpha  occ. eigenvalues --   -0.60008  -0.54287  -0.51857  -0.49303  -0.46352
 Alpha  occ. eigenvalues --   -0.45288  -0.44423  -0.41882  -0.38548  -0.37428
 Alpha virt. eigenvalues --   -0.09184   0.01399   0.03641   0.04010   0.05463
 Alpha virt. eigenvalues --    0.14000   0.14482   0.16042   0.16282   0.17922
 Alpha virt. eigenvalues --    0.18568   0.19079   0.19797   0.20636   0.22063
 Alpha virt. eigenvalues --    0.23696   0.24121   0.25357   0.26541   0.27411
 Alpha virt. eigenvalues --    0.27813   0.28981   0.30420   0.31800   0.34007
 Alpha virt. eigenvalues --    0.34598   0.36155   0.37743   0.38146   0.40761
 Alpha virt. eigenvalues --    0.44880   0.49318   0.51692   0.60548   0.61368
 Alpha virt. eigenvalues --    0.74975   0.76024   0.80538   0.84405   0.98480
 Alpha virt. eigenvalues --    1.02098   1.04310   1.05585   1.10524   1.11129
 Alpha virt. eigenvalues --    1.14027   1.15371   1.17923   1.18792   1.20832
 Alpha virt. eigenvalues --    1.21706   1.26755   1.29032   1.29853   1.33303
 Alpha virt. eigenvalues --    1.36928   1.38720   1.42706   1.45415   1.48703
 Alpha virt. eigenvalues --    1.49600   1.53417   1.54947   1.56849   1.59152
 Alpha virt. eigenvalues --    1.63920   1.66951   1.69247   1.71510   1.76443
 Alpha virt. eigenvalues --    1.76995   1.84464   1.86971   1.88351   1.92648
 Alpha virt. eigenvalues --    1.95732   2.04476   2.08016   2.10076   2.14460
 Alpha virt. eigenvalues --    2.17775   2.23066   2.25847   2.28760   2.40754
 Alpha virt. eigenvalues --    2.46149   2.50810   2.53584   2.62032   2.67707
 Alpha virt. eigenvalues --    2.71828   2.78810   2.84390   2.97260   3.04967
 Alpha virt. eigenvalues --    5.03394   5.06515   5.07802   5.09214   5.10456
 Alpha virt. eigenvalues --    5.13683   5.17578   5.18928   5.29253   5.32072
 Alpha virt. eigenvalues --    5.66688   5.70322   6.70975   6.74303   6.75318
 Alpha virt. eigenvalues --    6.76294   6.77982   6.79646   6.81177   6.85006
 Alpha virt. eigenvalues --    6.86765   6.92395   6.96167   6.97420   7.00429
 Alpha virt. eigenvalues --    7.05866   7.06935   7.20431   7.26462   7.27831
 Alpha virt. eigenvalues --    7.32568   7.38119   7.63796  14.21073  14.27732
 Alpha virt. eigenvalues --   14.33125  49.99534  50.03339  50.04417  50.09236
 Alpha virt. eigenvalues --  163.84286
          Condensed to atoms (all electrons):
               1          2          3          4          5          6
     1  P   12.115845   0.512563   0.272403   0.000522   0.372966  -0.003222
     2  O    0.512563   8.417479  -0.011116  -0.006594  -0.021274  -0.004870
     3  O    0.272403  -0.011116   8.080938   0.291599  -0.003139   0.001102
     4  H    0.000522  -0.006594   0.291599   0.350204  -0.008386   0.000251
     5  O    0.372966  -0.021274  -0.003139  -0.008386   8.270342   0.155136
     6  H   -0.003222  -0.004870   0.001102   0.000251   0.155136   0.209985
     7  O    0.243317  -0.023994  -0.005661   0.000854  -0.003298  -0.001346
     8  H    0.019488   0.004742  -0.010970   0.001198  -0.010783   0.000174
               7          8
     1  P    0.243317   0.019488
     2  O   -0.023994   0.004742
     3  O   -0.005661  -0.010970
     4  H    0.000854   0.001198
     5  O   -0.003298  -0.010783
     6  H   -0.001346   0.000174
     7  O    8.114007   0.280475
     8  H    0.280475   0.356927
 Mulliken charges:
               1
     1  P    1.466118
     2  O   -0.866937
     3  O   -0.615156
     4  H    0.370353
     5  O   -0.751564
     6  H    0.642791
     7  O   -0.604353
     8  H    0.358748
 Sum of Mulliken charges =  -0.00000
 Mulliken charges with hydrogens summed into heavy atoms:
               1
     1  P    1.466118
     2  O   -0.866937
     3  O   -0.244803
     5  O   -0.108774
     7  O   -0.245605
 Electronic spatial extent (au):  <R**2>=           2037.4155
 Charge=             -0.0000 electrons
 Dipole moment (field-independent basis, Debye):
    X=              4.7070    Y=              3.5336    Z=             -6.3239  Tot=              8.6391
 Quadrupole moment (field-independent basis, Debye-Ang):
   XX=            -48.4234   YY=            -31.7859   ZZ=            -43.2830
   XY=             -7.8179   XZ=             16.5637   YZ=              4.0567
 Traceless Quadrupole moment (field-independent basis, Debye-Ang):
   XX=             -7.2593   YY=              9.3782   ZZ=             -2.1189
   XY=             -7.8179   XZ=             16.5637   YZ=              4.0567
 Octapole moment (field-independent basis, Debye-Ang**2):
  XXX=            367.2207  YYY=             29.1038  ZZZ=            -28.2778  XYY=             91.6360
  XXY=             37.2893  XXZ=            -55.1857  XZZ=            123.2383  YZZ=              0.2110
  YYZ=            -11.0144  XYZ=            -14.6311
 Hexadecapole moment (field-independent basis, Debye-Ang**3):
 XXXX=          -2322.6830 YYYY=           -153.8873 ZZZZ=           -186.2166 XXXY=           -184.5262
 XXXZ=            193.6148 YYYX=            -97.5660 YYYZ=             13.8235 ZZZX=             81.8504
 ZZZY=             15.7235 XXYY=           -301.7679 XXZZ=           -406.3756 YYZZ=            -45.4959
 XXYZ=             46.4009 YYXZ=             36.4792 ZZXY=              2.8357
 N-N= 2.765149969522D+02 E-N=-2.081885406898D+03  KE= 6.422714111738D+02
 No NMR shielding tensors so no spin-rotation constants.
 Leave Link  601 at Mon Dec 12 20:15:40 2022, MaxMem=  6710886400 cpu:               2.7 elap:               0.1
 (Enter /data0/home/software/g16/l9999.exe)
 1\1\GINC-LOCALHOST\SP\RM062X\6-311+G(2d,p)\H3O4P1\WUHANYU\12-Dec-2022\
 0\\#p M062X/6-311+G(2d,p) nosymm em=GD3 scrf=(smd,solvent=water)\\Titl
 e Card Required\\0,1\P,0,-2.931215,-0.126795,0.124473\O,0,-2.567173,-0
 .174858,1.575591\O,0,-4.372331,0.59844,-0.097097\H,0,-4.282701,1.55855
 2,-0.187988\O,0,-1.943526,0.465603,-0.857665\H,0,-0.365456,0.704642,-0
 .483355\O,0,-3.324988,-1.637236,-0.302288\H,0,-3.477205,-1.723439,-1.2
 55407\\Version=ES64L-G16RevA.03\HF=-644.0663175\RMSD=3.340e-09\Dipole=
 1.8518742,1.3902162,-2.4880182\Quadrupole=-5.3971444,6.9724684,-1.5753
 24,-5.8123834,12.3147285,3.0160549\PG=C01 [X(H3O4P1)]\\@


 THE SOLUTION TO A PROBLEM CHANGES THE PROBLEM.

                                 -- JOHN PEERS
           PAUL DICKSON'S "THE OFFICIAL RULES"
 Job cpu time:       0 days  0 hours  4 minutes  7.0 seconds.
 Elapsed time:       0 days  0 hours  0 minutes 12.0 seconds.
 File lengths (MBytes):  RWF=     23 Int=      0 D2E=      0 Chk=      3 Scr=      1
 Normal termination of Gaussian 16 at Mon Dec 12 20:15:40 2022.
