          36
 G =       -0.463707 Gcorr = 0.224108 a.u. Nimag =   0 Frame:     1 Step:     1 Geom:     1
C          16.95158600      6.26878100      4.03970700
H          17.38200600      5.60708800      3.27136000
H          16.02407000      5.82396800      4.42366500
H          16.67697800      7.21524000      3.50650100
C          18.14353700      5.28434000      5.93170400
H          18.56608400      4.48802100      5.29553700
H          18.84801900      5.45526900      6.76713200
H          17.19808700      4.91646500      6.36126500
C          19.24810600      6.98306300      4.55746100
H          19.33733300      8.09565300      4.53861200
H          20.11318300      6.62342700      5.13845000
H          19.36101400      6.66588700      3.50652200
C          17.33073600      7.61838700      6.04085900
H          16.37858200      7.23753800      6.46387200
H          17.04211100      8.48121200      5.37762000
C          18.26811700      8.08567800      7.16137900
H          19.32886400      7.84027600      6.93992100
H          18.03842000      7.55686500      8.10525200
C          18.16225200      9.59654300      7.38274800
H          18.94571500      9.94359500      8.08080100
H          17.19223500      9.87199600      7.83368100
N          17.93492300      6.54666300      5.14420300
C          18.33165700     10.33635400      6.04498900
O          17.32234800     10.87245900      5.56951300
O          19.46038400     10.29123000      5.50332400
P          18.09277100      9.98984500      2.30247000
O          17.92299200      8.54772700      2.53424500
O          19.47374900     10.59367400      2.79416100
H          19.49691700     10.55658400      3.86274000
O          18.07999000     10.29122900      0.73716200
H          18.20902200     11.31131900      0.62555800
O          16.94939500     10.92152100      2.87728600
H          17.07730100     10.99106900      3.93814300
O          21.42038200      8.49287700      5.96049000
H          20.71624700      9.18064000      5.84961000
H          22.22492100      8.94753600      5.74206100
          36
 G =       -0.463771 Gcorr = 0.224043 a.u. Nimag =   0 Frame:     2 Step:     2 Geom:     2
C          16.81098100      6.36869300      3.92346700
H          17.22371200      5.69871300      3.15267300
H          15.85757600      5.96164900      4.28535400
H          16.58909600      7.33437300      3.40023800
C          17.92644900      5.30252400      5.81778400
H          18.32387800      4.49838600      5.17530800
H          18.62391000      5.42861900      6.66697700
H          16.95867500      4.97032200      6.22617900
C          19.12769500      6.97232000      4.48985200
H          19.26688900      8.07996800      4.49307500
H          19.96626300      6.56381100      5.07728300
H          19.24323800      6.66932200      3.43501400
C          17.21568200      7.66839700      5.95274700
H          16.24012700      7.32408000      6.35318700
H          16.97781600      8.55410700      5.29962600
C          18.15338500      8.07430400      7.09667000
H          19.20580000      7.78535300      6.88842700
H          17.88399900      7.54051100      8.02719300
C          18.11104000      9.58440900      7.34290100
H          18.89712100      9.88408200      8.05973100
H          17.14665300      9.89531100      7.78279100
N          17.78691600      6.58521600      5.04813400
C          18.33611900     10.33873400      6.02147300
O          17.35992400     10.92809800      5.53979000
O          19.47057800     10.25206300      5.49725700
P          18.14444300     10.06638100      2.27101700
O          17.90768300      8.62966100      2.47599800
O          19.54276000     10.60062600      2.79346600
H          19.54845600     10.54331000      3.86118800
O          18.17000700     10.39321900      0.71096600
H          18.34453100     11.40851200      0.61863600
O          17.03449300     11.03856500      2.84401300
H          17.14788600     11.08439200      3.90794200
O          21.34039700      8.35989600      5.95398400
H          20.66865100      9.07953000      5.84453300
H          22.16720500      8.78255300      5.75512900
          36
 G =       -0.462770 Gcorr = 0.224765 a.u. Nimag =   0 Frame:     3 Step:     3 Geom:     3
C          17.09700800      6.22457800      4.01041000
H          17.59086000      5.57450300      3.27058600
H          16.15559500      5.75991800      4.33148500
H          16.84045300      7.16665500      3.46085900
C          18.18751100      5.26005400      5.97423500
H          18.67628500      4.47909900      5.36694300
H          18.82731500      5.44644000      6.85695400
H          17.22516200      4.86376700      6.33524800
C          19.33639200      6.98657400      4.67654600
H          19.37457300      8.09817100      4.59603800
H          20.16606300      6.71164800      5.35176400
H          19.55470700      6.61294300      3.66240200
C          17.31437100      7.57480200      6.03503000
H          16.35216700      7.16517900      6.40529200
H          17.03670800      8.42696900      5.35381000
C          18.17114400      8.07476900      7.20498600
H          19.24582700      7.83386000      7.06183100
H          17.88237400      7.56266200      8.14214100
C          18.03925500      9.58857200      7.38957900
H          18.77531300      9.95601500      8.12771800
H          17.04096300      9.86235000      7.77557300
N          17.99974000      6.51962600      5.17758900
C          18.28270800     10.30824300      6.05215200
O          17.29544400     10.81296000      5.50126500
O          19.44566000     10.28251500      5.58785100
P          18.28866800      9.93445600      2.29162400
O          18.12615600      8.48901600      2.50549100
O          19.62595300     10.55660900      2.87480600
H          19.57690100     10.53093100      3.94116800
O          18.37591300     10.24384900      0.73036900
H          18.49797500     11.26608000      0.63183100
O          17.09677700     10.84729300      2.79299500
H          17.15643300     10.92065300      3.85965400
O          21.36699400      8.46575800      6.13543300
H          20.67743400      9.16388100      5.99433300
H          22.18723200      8.90861400      5.95401200
          36
 G =       -0.466173 Gcorr = 0.221630 a.u. Nimag =   0 Frame:     4 Step:     4 Geom:     4
C          16.96728700      6.21614600      4.12488100
H          17.39438600      5.53484200      3.37215500
H          16.05591900      5.76855600      4.54311000
H          16.66432400      7.13840000      3.56576700
C          18.21796600      5.31820800      6.02180100
H          18.63953200      4.50874600      5.40206800
H          18.93999400      5.52978700      6.83307900
H          17.29043700      4.94886100      6.48743900
C          19.25831300      6.99453600      4.57105600
H          19.33494500      8.10794500      4.54002400
H          20.14265800      6.65034300      5.13195700
H          19.34520000      6.66788000      3.52058600
C          17.35841400      7.63750500      6.07350900
H          16.41591100      7.25599400      6.51702000
H          17.05273700      8.47890500      5.39077800
C          18.30211600      8.14461900      7.17036300
H          19.36749000      7.92039300      6.93498400
H          18.10199400      7.62700600      8.12665200
C          18.16400700      9.65619400      7.36625000
H          18.94581100     10.03244100      8.05089400
H          17.19224300      9.91817900      7.82125800
N          17.96685500      6.54983800      5.19893600
C          18.30579300     10.37411200      6.01368300
O          17.28613200     10.89414400      5.54380600
O          19.42776200     10.32748400      5.45556700
P          18.00848500      9.93725500      2.28717400
O          17.85377200      8.50126000      2.56293200
O          19.39456200     10.56289100      2.73595700
H          19.43888800     10.55215200      3.80387200
O          17.96533500     10.19414000      0.71448900
H          18.08432800     11.21166000      0.57191100
O          16.87005300     10.87840900      2.85606600
H          17.01281800     10.97246800      3.91293900
O          21.30685200      8.53034700      6.11264700
H          20.63508200      9.23259500      5.90028700
H          22.14163300      8.97577300      6.04410700
          36
 G =       -0.479993 Gcorr = 0.210280 a.u. Nimag =   0 Frame:     5 Step:     5 Geom:     5
C          17.06539300      6.01690500      4.18535300
H          17.42755800      5.14083400      3.62849200
H          16.06469100      5.80337500      4.58409100
H          16.95595400      6.84762100      3.42998500
C          18.17841400      5.32004000      6.27527300
H          18.47107700      4.37424700      5.78872400
H          18.95588700      5.55551300      7.02480000
H          17.23513900      5.14224500      6.81787800
C          19.37482900      6.72405300      4.63679000
H          19.24406600      7.37379600      3.72809400
H          20.03901000      7.33282600      5.30564300
H          19.90503100      5.81644800      4.33311600
C          17.47316700      7.69274100      5.94748200
H          16.46495300      7.47279100      6.35470900
H          17.30507200      8.46195200      5.13159500
C          18.38760800      8.26170200      7.03759500
H          19.45517600      8.25120300      6.68903200
H          18.34789000      7.64611100      7.95457400
C          18.00643300      9.70602900      7.37604100
H          18.68095900     10.10958700      8.15633900
H          16.97961800      9.77143700      7.78627100
N          18.03619500      6.44103400      5.26830000
C          18.10639100     10.56492300      6.11838900
O          17.01496200     10.83431300      5.53932200
O          19.24247700     10.89207200      5.69114200
P          18.17354800     10.01053000      2.64921700
O          17.85322800      8.61238700      3.05609400
O          19.63125600     10.50060700      3.21397000
H          19.59533600     11.08102000      4.10323100
O          18.32982800     10.15467300      1.02399400
H          18.45094600     11.08069200      0.67891300
O          17.17752700     11.19173900      3.04818600
H          16.97108800     11.30961700      4.16023400
O          21.01212000      9.05386700      5.40844800
H          20.69633800      9.80032500      5.96778700
H          20.88087400      9.38075000      4.50089800
          36
 G =       -0.463683 Gcorr = 0.224131 a.u. Nimag =   0 Frame:     6 Step:     6 Geom:     6
C          16.94311800      6.18086600      4.26824600
H          17.38582300      5.47440300      3.54829600
H          16.03453400      5.73916000      4.69831500
H          16.63260500      7.07368700      3.66659700
C          18.18948900      5.38438500      6.21296400
H          18.63270900      4.55626400      5.63401800
H          18.89626200      5.64244600      7.02371400
H          17.26179500      5.01887500      6.68148300
C          19.22012000      7.00739500      4.69714000
H          19.27147700      8.11753500      4.59179800
H          20.10358000      6.72213000      5.29155400
H          19.33138400      6.61403400      3.67207500
C          17.29988400      7.69215100      6.15481500
H          16.36646000      7.31385600      6.61979400
H          16.97412700      8.49122400      5.43165200
C          18.23428200      8.27523300      7.22230100
H          19.29993000      8.04765500      7.00541100
H          18.03337900      7.81425300      8.20745200
C          18.08079000      9.79450600      7.32782300
H          18.86050000     10.21973300      7.98574000
H          17.10753500     10.07264400      7.77009100
N          17.92933300      6.57485500      5.33423500
C          18.20964100     10.43352300      5.93475400
O          17.17723000     10.89726400      5.43339600
O          19.33303400     10.38421400      5.38249300
P          17.94109800      9.79157500      2.23324600
O          17.82206700      8.36690700      2.57725300
O          19.30680500     10.47572400      2.65791200
H          19.34297200     10.52246900      3.72575400
O          17.90058300      9.97086700      0.64978600
H          17.99387000     10.98309100      0.45864100
O          16.77412200     10.72756000      2.75070700
H          16.91112900     10.88209700      3.80142100
O          21.35670400      8.69044800      5.94927200
H          20.62876600      9.34450200      5.79577000
H          22.14289200      9.15247800      5.68408400
          36
 G =       -0.466113 Gcorr = 0.221690 a.u. Nimag =   0 Frame:     7 Step:     7 Geom:     7
C          17.05429200      6.11793300      4.29171100
H          17.51963000      5.39489900      3.60335800
H          16.14318100      5.67750800      4.71807900
H          16.74380400      6.98786600      3.65787600
C          18.27569200      5.39616900      6.28068400
H          18.73577200      4.55642400      5.73282500
H          18.96912900      5.68666100      7.09249900
H          17.34592000      5.03499700      6.74826600
C          19.31027200      6.99241700      4.73831300
H          19.35813300      8.10249300      4.62879200
H          20.18778900      6.71442200      5.34476000
H          19.43444800      6.59399700      3.71671500
C          17.35289700      7.68729400      6.14061100
H          16.40913600      7.31180100      6.58657700
H          17.04351200      8.46783400      5.39055800
C          18.25189100      8.29957800      7.22124400
H          19.32894300      8.08865500      7.03100500
H          18.03852400      7.84780600      8.20757300
C          18.06909700      9.81695200      7.30153600
H          18.82158300     10.26388400      7.97647200
H          17.07860500     10.08410000      7.71088300
N          18.01439700      6.55722100      5.36379200
C          18.22948800     10.43806500      5.90386100
O          17.20939300     10.89179500      5.37038800
O          19.36773500     10.38442900      5.38051800
P          18.04870200      9.72475700      2.21302800
O          17.92340600      8.30893900      2.58956100
O          19.40510900     10.41975200      2.65054900
H          19.41958400     10.48831900      3.71697800
O          18.04336500      9.86491400      0.62504500
H          18.14248800     10.87187200      0.41104900
O          16.87119100     10.67322300      2.68110300
H          16.98094100     10.84617900      3.73216800
O          21.27367700      8.69271000      6.21683900
H          20.59019700      9.35858600      5.93573700
H          22.09811100      9.15556100      6.13905200
          36
 G =       -0.463808 Gcorr = 0.224007 a.u. Nimag =   0 Frame:     8 Step:     8 Geom:     8
C          16.94538800      6.22138100      4.28415300
H          17.37963300      5.50231500      3.57156900
H          16.02288400      5.80164200      4.70654600
H          16.66088800      7.11838900      3.67591700
C          18.15433800      5.40515800      6.24419300
H          18.58445300      4.56517800      5.67250000
H          18.85898000      5.65051100      7.06073300
H          17.21431100      5.06223000      6.70514900
C          19.23542400      6.99979400      4.73339900
H          19.31257900      8.10824400      4.62561500
H          20.10634100      6.69667700      5.33738900
H          19.34802800      6.60118200      3.71051400
C          17.31595300      7.73153100      6.16895600
H          16.36956900      7.37558400      6.62528500
H          17.01552800      8.53500600      5.43970600
C          18.25180700      8.29756200      7.24428200
H          19.31444600      8.04639000      7.03896100
H          18.03100100      7.84408700      8.22864800
C          18.13012100      9.82012100      7.34380000
H          18.91187200     10.23051600      8.00862300
H          17.15851200     10.12059700      7.77498300
N          17.92912700      6.59776100      5.35874200
C          18.28727200     10.45166500      5.95019500
O          17.27032700     10.93612200      5.43689100
O          19.41492100     10.37613500      5.40980300
P          18.04161300      9.80406000      2.24876200
O          17.88776200      8.38358400      2.59633400
O          19.41784400     10.45942400      2.68484900
H          19.44431400     10.50909800      3.75275600
O          18.02097600      9.97837100      0.66432100
H          18.14029300     10.98729400      0.47055900
O          16.89065800     10.76755000      2.75118100
H          17.01973000     10.92181500      3.80314600
O          21.39528300      8.64011300      6.00128300
H          20.68391000      9.31021500      5.83986400
H          22.19394900      9.08271200      5.74039800
          36
 G =       -0.465593 Gcorr = 0.221959 a.u. Nimag =   0 Frame:     9 Step:     9 Geom:     9
C          17.01560000      6.21424600      4.26406100
H          17.46765600      5.49672800      3.56096000
H          16.09349900      5.78496600      4.67757800
H          16.72858600      7.10422500      3.64730600
C          18.22083700      5.42282500      6.23804600
H          18.67465400      4.59124300      5.67261500
H          18.91264500      5.68429600      7.06095700
H          17.28340000      5.06202000      6.69010500
C          19.28490900      7.03273000      4.73367400
H          19.32101000      8.13643100      4.57713700
H          20.15398600      6.79893000      5.37420800
H          19.43803000      6.59001400      3.73556700
C          17.33979500      7.73355600      6.14987600
H          16.39656400      7.35989100      6.59862100
H          17.03092400      8.52952800      5.41614200
C          18.25382700      8.32075900      7.23197500
H          19.32444300      8.07659100      7.04703900
H          18.02344700      7.87655000      8.21809100
C          18.11732600      9.84312100      7.31151500
H          18.88286200     10.26713400      7.98653400
H          17.13534400     10.13971600      7.72143000
N          17.98138700      6.60915100      5.34828000
C          18.29517700     10.46113100      5.91454700
O          17.28473500     10.93276800      5.37756400
O          19.43400500     10.38989100      5.39532500
P          18.10208000      9.79635100      2.20008000
O          17.94395800      8.37468000      2.53908200
O          19.47336400     10.44931700      2.65809300
H          19.48360100     10.50722400      3.72323500
O          18.10684300      9.97803000      0.61642000
H          18.22573900     10.98829200      0.42916700
O          16.94526500     10.75982400      2.68830200
H          17.06031700     10.91433200      3.74175300
O          21.26304900      8.58826400      6.17222600
H          20.61135200      9.29566600      5.91421500
H          22.10982200      9.00959300      6.09828400
          36
 G =       -0.480007 Gcorr = 0.210266 a.u. Nimag =   0 Frame:    10 Step:    10 Geom:    10
C          17.20266100      5.93432700      4.22666200
H          17.62105900      5.05686400      3.71300600
H          16.18967600      5.69800500      4.57877100
H          17.10704800      6.74158000      3.44450500
C          18.22512300      5.32776900      6.38971300
H          18.57263000      4.37990200      5.94504300
H          18.95411700      5.60755200      7.17202100
H          17.26049400      5.13320300      6.88711800
C          19.46202500      6.72745700      4.77779100
H          19.35916500      7.34872300      3.84595400
H          20.07070500      7.37457000      5.46338000
H          20.03567900      5.83008700      4.52729900
C          17.46488400      7.66718700      5.96111000
H          16.44372600      7.42533700      6.32101400
H          17.31665500      8.40955800      5.11705400
C          18.30236400      8.29279000      7.08158400
H          19.38666300      8.30770600      6.78962400
H          18.23295500      7.69986300      8.01166100
C          17.85957400      9.73226200      7.36041200
H          18.47872700     10.17670800      8.16407000
H          16.81074300      9.77517500      7.71394500
N          18.10142000      6.41735700      5.34649300
C          18.00060000     10.56201800      6.08725000
O          16.93366800     10.78208000      5.44482900
O          19.14718600     10.91439700      5.71160600
P          18.26765200      9.92105400      2.64223400
O          17.96829400      8.52404700      3.06855900
O          19.67834700     10.46944500      3.26991800
H          19.57752400     11.07257500      4.13869700
O          18.50549200     10.02974400      1.02410800
H          18.61254900     10.95044200      0.66086100
O          17.21762600     11.08026300      2.95737300
H          16.94940400     11.21994700      4.05465500
O          20.98467100      9.12708400      5.57080800
H          20.61753100      9.87755100      6.09202700
H          20.89139400      9.42538200      4.64884700
          36
 G =       -0.480008 Gcorr = 0.210266 a.u. Nimag =   0 Frame:    11 Step:    11 Geom:    11
C          17.05298200      6.03870600      4.18752100
H          17.42173200      5.14219500      3.66882200
H          16.02822300      5.85737700      4.53827500
H          17.00272000      6.85473400      3.41024300
C          18.03950500      5.36317200      6.34687500
H          18.33281100      4.39985400      5.89642900
H          18.78343600      5.59682000      7.13028200
H          17.06564500      5.22039100      6.84387200
C          19.35299900      6.70118100      4.74316300
H          19.28517300      7.33372800      3.81564200
H          19.99688700      7.30819200      5.43296800
H          19.87501100      5.77464000      4.48600900
C          17.41102800      7.74388000      5.93225000
H          16.37801600      7.55721400      6.29110500
H          17.30425200      8.49822400      5.09251900
C          18.28207700      8.31540300      7.05599800
H          19.36554800      8.27185800      6.76351000
H          18.18021700      7.72164600      7.98250800
C          17.91989900      9.77549300      7.34364600
H          18.56363800     10.18044900      8.14882900
H          16.87546600      9.87419500      7.69912300
N          17.97699200      6.46415000      5.31017400
C          18.10465200     10.60358000      6.07499100
O          17.05145700     10.88428300      5.43406100
O          19.26874300     10.89608800      5.70101700
P          18.33650100      9.96921400      2.62648200
O          17.96164000      8.58830100      3.04539400
O          19.77438900     10.43723700      3.25668600
H          19.70681500     11.03804800      4.13077500
O          18.57968500     10.07379600      1.00899400
H          18.73843500     10.98920600      0.65104900
O          17.34995500     11.18186700      2.94751900
H          17.09014400     11.33046100      4.04405900
O          21.00491100      9.00984200      5.55116700
H          20.67945100      9.77631900      6.07682500
H          20.92900500      9.31827100      4.63122300
          36
 G =       -0.463768 Gcorr = 0.224047 a.u. Nimag =   0 Frame:    12 Step:    12 Geom:    12
C          17.04488800      6.25180900      4.04034500
H          17.54419200      5.58680400      3.31796100
H          16.11040600      5.78454100      4.37805100
H          16.77282800      7.17492900      3.46649000
C          18.15077000      5.35508500      6.02591600
H          18.63970800      4.56035800      5.43708900
H          18.79551400      5.57069000      6.89842700
H          17.19387700      4.96291800      6.40578200
C          19.27846600      7.06090800      4.67939600
H          19.33018600      8.17538000      4.63949000
H          20.11804700      6.74514200      5.32008400
H          19.46654300      6.72540000      3.64499900
C          17.25182200      7.66005500      6.02645400
H          16.28869700      7.25503300      6.39914500
H          16.97600700      8.49675100      5.32531700
C          18.10058400      8.18582200      7.19078700
H          19.18100000      7.97403600      7.04127300
H          17.83093500      7.67020600      8.13144600
C          17.92865500      9.69638400      7.36809900
H          18.65446700     10.08711700      8.10438900
H          16.92336100      9.94652300      7.75149800
N          17.94748600      6.59056500      5.19564200
C          18.15552600     10.41200000      6.02561000
O          17.15982100     10.90095400      5.47620900
O          19.31659600     10.39542400      5.55559000
P          18.16185800      9.97400300      2.28549100
O          18.02825500      8.53230800      2.54217900
O          19.48826400     10.63832800      2.84506600
H          19.44682100     10.62578600      3.91342200
O          18.23535000     10.23932800      0.71532200
H          18.33377000     11.26081300      0.58657300
O          16.95383100     10.87656700      2.76670600
H          17.01369100     10.97432700      3.83159200
O          21.30564200      8.67862500      6.17610200
H          20.58630500      9.33763100      6.00543400
H          22.10586400      9.15746300      5.99662600
          36
 G =       -0.460561 Gcorr = 0.226713 a.u. Nimag =   0 Frame:    13 Step:    13 Geom:    13
C          17.04812300      6.28320200      4.07764800
H          17.61098500      5.86229900      3.22406400
H          16.23650800      5.59798800      4.35281300
H          16.58779500      7.21887300      3.68340000
C          18.22893200      5.29967400      5.98488900
H          18.76021700      4.57992200      5.33806200
H          18.86668500      5.48969100      6.86843000
H          17.29977800      4.82517800      6.33756900
C          19.25463200      7.13545700      4.75039700
H          19.20719200      8.24663600      4.64073400
H          20.09373100      6.94143700      5.44329600
H          19.52245600      6.74711200      3.75315500
C          17.21768300      7.54932700      6.16183800
H          16.34306800      7.02554100      6.59971500
H          16.78830100      8.36255200      5.51440000
C          18.08944700      8.15878800      7.26717000
H          19.15855600      7.88059200      7.15478200
H          17.79541300      7.75088200      8.25364600
C          17.98373700      9.68628700      7.30146300
H          18.75096500     10.11152700      7.97502200
H          17.00380000     10.01122800      7.69562400
N          17.95283300      6.57858800      5.24572500
C          18.18428500     10.27678600      5.89620700
O          17.18339000     10.72024200      5.32033700
O          19.33731100     10.21409100      5.40696200
P          18.22746000      9.78862000      2.09147900
O          18.18362400      8.33438600      2.28431200
O          19.50103900     10.52480100      2.68649200
H          19.45769800     10.47962400      3.74954200
O          18.28768700     10.13283800      0.53640300
H          18.31654100     11.16312000      0.45477100
O          16.95582600     10.58707500      2.60061100
H          17.03484300     10.72134300      3.65396000
O          21.28776900      8.59624800      6.30863800
H          20.58702500      9.24075500      6.03120300
H          22.10469300      9.04730100      6.13524400
          36
 G =       -0.465723 Gcorr = 0.221922 a.u. Nimag =   0 Frame:    14 Step:    14 Geom:    14
C          17.07264800      6.30119000      3.99031200
H          17.62387100      5.76671200      3.19822400
H          16.18754300      5.71959400      4.27670600
H          16.71919200      7.24890600      3.50988200
C          18.19833000      5.32395800      5.92921200
H          18.73274200      4.59152500      5.29986900
H          18.81998700      5.51238100      6.82434300
H          17.25514900      4.86553800      6.26575600
C          19.27003100      7.14423300      4.70133300
H          19.25150400      8.26091600      4.64481100
H          20.10409900      6.89608000      5.38169000
H          19.52260800      6.80018600      3.68422000
C          17.21051700      7.58768900      6.06312500
H          16.29177900      7.09803500      6.44630900
H          16.85210300      8.42693900      5.40438100
C          18.05158400      8.13804400      7.22235600
H          19.12324700      7.86415100      7.12211600
H          17.73025500      7.68320700      8.17884600
C          17.94930400      9.66227100      7.32645500
H          18.70446300     10.05443900      8.03229600
H          16.96273600      9.97269500      7.71577700
N          17.95351700      6.59948400      5.17361800
C          18.17844700     10.30988500      5.95134100
O          17.19376200     10.80834500      5.39249700
O          19.33181400     10.23160600      5.46505900
P          18.16857200      9.89084400      2.17379100
O          18.01915100      8.44640300      2.39995100
O          19.50211800     10.53157300      2.74739700
H          19.46274800     10.49830400      3.81231700
O          18.24452600     10.19360300      0.61096900
H          18.35387300     11.21680300      0.50667500
O          16.97101700     10.79662400      2.67718900
H          17.04215800     10.88523600      3.73998700
O          21.27121500      8.56717700      6.31404100
H          20.57391800      9.22374900      6.05749100
H          22.08949500      9.03168900      6.18966200
          36
 G =       -0.463741 Gcorr = 0.224073 a.u. Nimag =   0 Frame:    15 Step:    15 Geom:    15
C          17.02136400      6.27238600      4.01903000
H          17.51629400      5.60076900      3.29974200
H          16.07397700      5.82215300      4.34355100
H          16.77432700      7.20286200      3.44567600
C          18.08367700      5.34708700      6.01528400
H          18.56468500      4.54453900      5.43053200
H          18.72053100      5.54712700      6.89721000
H          17.11404400      4.97286500      6.38067900
C          19.26329000      7.03259600      4.68805700
H          19.33859500      8.14567700      4.65137400
H          20.08802500      6.69840800      5.33879000
H          19.45754000      6.69500700      3.65554300