 Entering Gaussian System, Link 0=g16
 Initial command:
 /data0/hywu0/study/g16/l1.exe "/data0/hywu0/study/g16/scratch/Gau-483825.inp" -scrdir="/data0/hywu0/study/g16/scratch/"
 Default is to use a total of   8 processors:
                                8 via shared-memory
                                1 via Linda
 Entering Link 1 = /data0/hywu0/study/g16/l1.exe PID=    483826.
  
 Copyright (c) 1988,1990,1992,1993,1995,1998,2003,2009,2016,
            Gaussian, Inc.  All Rights Reserved.
  
 This is part of the Gaussian(R) 16 program.  It is based on
 the Gaussian(R) 09 system (copyright 2009, Gaussian, Inc.),
 the Gaussian(R) 03 system (copyright 2003, Gaussian, Inc.),
 the Gaussian(R) 98 system (copyright 1998, Gaussian, Inc.),
 the Gaussian(R) 94 system (copyright 1995, Gaussian, Inc.),
 the Gaussian 92(TM) system (copyright 1992, Gaussian, Inc.),
 the Gaussian 90(TM) system (copyright 1990, Gaussian, Inc.),
 the Gaussian 88(TM) system (copyright 1988, Gaussian, Inc.),
 the Gaussian 86(TM) system (copyright 1986, Carnegie Mellon
 University), and the Gaussian 82(TM) system (copyright 1983,
 Carnegie Mellon University). Gaussian is a federally registered
 trademark of Gaussian, Inc.
  
 This software contains proprietary and confidential information,
 including trade secrets, belonging to Gaussian, Inc.
  
 This software is provided under written license and may be
 used, copied, transmitted, or stored only in accord with that
 written license.
  
 The following legend is applicable only to US Government
 contracts under FAR:
  
                    RESTRICTED RIGHTS LEGEND
  
 Use, reproduction and disclosure by the US Government is
 subject to restrictions as set forth in subparagraphs (a)
 and (c) of the Commercial Computer Software - Restricted
 Rights clause in FAR 52.227-19.
  
 Gaussian, Inc.
 340 Quinnipiac St., Bldg. 40, Wallingford CT 06492
  
  
 ---------------------------------------------------------------
 Warning -- This program may not be used in any manner that
 competes with the business of Gaussian, Inc. or will provide
 assistance to any competitor of Gaussian, Inc.  The licensee
 of this program is prohibited from giving any competitor of
 Gaussian, Inc. access to this program.  By using this program,
 the user acknowledges that Gaussian, Inc. is engaged in the
 business of creating and licensing software in the field of
 computational chemistry and represents and warrants to the
 licensee that it is not a competitor of Gaussian, Inc. and that
 it will not use this program in any manner prohibited above.
 ---------------------------------------------------------------
  

 Cite this work as:
 Gaussian 16, Revision A.03,
 M. J. Frisch, G. W. Trucks, H. B. Schlegel, G. E. Scuseria, 
 M. A. Robb, J. R. Cheeseman, G. Scalmani, V. Barone, 
 G. A. Petersson, H. Nakatsuji, X. Li, M. Caricato, A. V. Marenich, 
 J. Bloino, B. G. Janesko, R. Gomperts, B. Mennucci, H. P. Hratchian, 
 J. V. Ortiz, A. F. Izmaylov, J. L. Sonnenberg, D. Williams-Young, 
 F. Ding, F. Lipparini, F. Egidi, J. Goings, B. Peng, A. Petrone, 
 T. Henderson, D. Ranasinghe, V. G. Zakrzewski, J. Gao, N. Rega, 
 G. Zheng, W. Liang, M. Hada, M. Ehara, K. Toyota, R. Fukuda, 
 J. Hasegawa, M. Ishida, T. Nakajima, Y. Honda, O. Kitao, H. Nakai, 
 T. Vreven, K. Throssell, J. A. Montgomery, Jr., J. E. Peralta, 
 F. Ogliaro, M. J. Bearpark, J. J. Heyd, E. N. Brothers, K. N. Kudin, 
 V. N. Staroverov, T. A. Keith, R. Kobayashi, J. Normand, 
 K. Raghavachari, A. P. Rendell, J. C. Burant, S. S. Iyengar, 
 J. Tomasi, M. Cossi, J. M. Millam, M. Klene, C. Adamo, R. Cammi, 
 J. W. Ochterski, R. L. Martin, K. Morokuma, O. Farkas, 
 J. B. Foresman, and D. J. Fox, Gaussian, Inc., Wallingford CT, 2016.
 
 ******************************************
 Gaussian 16:  ES64L-G16RevA.03 25-Dec-2016
                20-Feb-2023 
 ******************************************
 %nproc=24
 Will use up to   24 processors via shared memory.
 %mem=50GB
 ---------------------------------------------------
 #p M062X/6-311+G(2d,p) nosymm em=GD3 counterpoise=2
 ---------------------------------------------------
 1/38=1,62=2,172=1/1;
 2/12=2,15=1,17=6,18=5,40=1/2;
 1/38=1,53=2,62=2,63=1/22;
 3/5=4,6=6,7=112,11=2,25=1,30=1,74=-55,124=31/1,2,3;
 4//1;
 5/5=2,38=5/2;
 6/7=2,8=2,9=2,10=2,28=1/1;
 1/53=2,62=2,63=1/22;
 3/5=7,6=11,7=112,11=2,25=1,30=1,74=-55,82=7,124=31/1,2,3;
 4//1;
 5/5=2,38=5/2;
 6/7=2,8=2,9=2,10=2,28=1/1;
 1/53=2,62=2,63=1/22(-4);
 99/5=1,9=1/99;
 Leave Link    1 at Mon Feb 20 01:33:12 2023, MaxMem=  6710886400 cpu:               0.8 elap:               0.0
 (Enter /data0/hywu0/study/g16/l101.exe)
 -------------------
 Title Card Required
 -------------------
 Symbolic Z-matrix:
 Charge =  0 Multiplicity = 1 in supermolecule
 Charge =  0 Multiplicity = 1 in fragment      1.
 Charge =  0 Multiplicity = 1 in fragment      2.
 C                     8.88921   8.45695   9.84496    
 C                     8.05744   9.24734   9.05393    
 C                     7.88438   10.60139   9.38389    
 C                     8.55709   11.12065   10.48538    
 C                     9.38745   10.30142   11.25177    
 H                     7.2473    11.24268   8.76278    
 H                     9.06967   7.39917   9.60168    
 H                     8.49554   12.18851   10.72003    
 H                     9.95345   10.69812   12.10793    
 C                     7.39923   8.66343   7.85865    
 H                     7.91259   7.75855   7.49096    
 H                     6.35092   8.3994    8.05027    
 H                     7.40757   9.37414   7.00781    
 N                     9.52683   8.98455   10.93405    
 C                     10.37487   8.09467   11.76298    
 H                     9.83965   7.90991   12.724     
 H                     10.47454   7.10597   11.25132    
 C                     11.78054   8.65137   12.04484    
 H                     11.7272   9.65835   12.51241    
 H                     12.26304   8.00116   12.80434    
 C                     12.65335   8.71687   10.79782    
 H                     13.71749   8.86453   11.06953    
 H                     12.62264   7.7741    10.22079    
 C                     12.26214   9.88082   9.87895    
 O                     11.62841   10.82775   10.38618    
 O                     12.58938   9.76751   8.68268    
 O                     10.50986   8.06273   7.80025    
 H                     10.05303   8.78874   7.35864    
 H                     11.36478   8.47094   8.02609    
 
 ITRead=  0  0  0  0  0  0  0  0  0  0  0  0  0  0  0  0  0  0  0  0
 ITRead=  0  0  0  0  0  0  0  0  0
 MicOpt= -1 -1 -1 -1 -1 -1 -1 -1 -1 -1 -1 -1 -1 -1 -1 -1 -1 -1 -1 -1
 MicOpt= -1 -1 -1 -1 -1 -1 -1 -1 -1
 NAtoms=     29 NQM=       29 NQMF=       0 NMMI=      0 NMMIF=      0
                NMic=       0 NMicF=      0.
                    Isotopes and Nuclear Properties:
 (Nuclear quadrupole moments (NQMom) in fm**2, nuclear magnetic moments (NMagM)
  in nuclear magnetons)

  Atom         1           2           3           4           5           6           7           8           9          10
 IAtWgt=          12          12          12          12          12           1           1           1           1          12
 AtmWgt=  12.0000000  12.0000000  12.0000000  12.0000000  12.0000000   1.0078250   1.0078250   1.0078250   1.0078250  12.0000000
 NucSpn=           0           0           0           0           0           1           1           1           1           0
 AtZEff=  -0.0000000  -0.0000000  -0.0000000  -0.0000000  -0.0000000  -0.0000000  -0.0000000  -0.0000000  -0.0000000  -0.0000000
 NQMom=    0.0000000   0.0000000   0.0000000   0.0000000   0.0000000   0.0000000   0.0000000   0.0000000   0.0000000   0.0000000
 NMagM=    0.0000000   0.0000000   0.0000000   0.0000000   0.0000000   2.7928460   2.7928460   2.7928460   2.7928460   0.0000000
 AtZNuc=   6.0000000   6.0000000   6.0000000   6.0000000   6.0000000   1.0000000   1.0000000   1.0000000   1.0000000   6.0000000

  Atom        11          12          13          14          15          16          17          18          19          20
 IAtWgt=           1           1           1          14          12           1           1          12           1           1
 AtmWgt=   1.0078250   1.0078250   1.0078250  14.0030740  12.0000000   1.0078250   1.0078250  12.0000000   1.0078250   1.0078250
 NucSpn=           1           1           1           2           0           1           1           0           1           1
 AtZEff=  -0.0000000  -0.0000000  -0.0000000  -0.0000000  -0.0000000  -0.0000000  -0.0000000  -0.0000000  -0.0000000  -0.0000000
 NQMom=    0.0000000   0.0000000   0.0000000   2.0440000   0.0000000   0.0000000   0.0000000   0.0000000   0.0000000   0.0000000
 NMagM=    2.7928460   2.7928460   2.7928460   0.4037610   0.0000000   2.7928460   2.7928460   0.0000000   2.7928460   2.7928460
 AtZNuc=   1.0000000   1.0000000   1.0000000   7.0000000   6.0000000   1.0000000   1.0000000   6.0000000   1.0000000   1.0000000

  Atom        21          22          23          24          25          26          27          28          29
 IAtWgt=          12           1           1          12          16          16          16           1           1
 AtmWgt=  12.0000000   1.0078250   1.0078250  12.0000000  15.9949146  15.9949146  15.9949146   1.0078250   1.0078250
 NucSpn=           0           1           1           0           0           0           0           1           1
 AtZEff=  -0.0000000  -0.0000000  -0.0000000  -0.0000000  -0.0000000  -0.0000000  -0.0000000  -0.0000000  -0.0000000
 NQMom=    0.0000000   0.0000000   0.0000000   0.0000000   0.0000000   0.0000000   0.0000000   0.0000000   0.0000000
 NMagM=    0.0000000   2.7928460   2.7928460   0.0000000   0.0000000   0.0000000   0.0000000   2.7928460   2.7928460
 AtZNuc=   6.0000000   1.0000000   1.0000000   6.0000000   8.0000000   8.0000000   8.0000000   1.0000000   1.0000000
 Leave Link  101 at Mon Feb 20 01:33:12 2023, MaxMem=  6710886400 cpu:               3.5 elap:               0.2
 (Enter /data0/hywu0/study/g16/l202.exe)
                          Input orientation:                          
 ---------------------------------------------------------------------
 Center     Atomic      Atomic             Coordinates (Angstroms)
 Number     Number       Type             X           Y           Z
 ---------------------------------------------------------------------
      1          6           0        8.889206    8.456952    9.844959
      2          6           0        8.057443    9.247340    9.053931
      3          6           0        7.884379   10.601387    9.383892
      4          6           0        8.557090   11.120654   10.485378
      5          6           0        9.387453   10.301424   11.251765
      6          1           0        7.247305   11.242681    8.762780
      7          1           0        9.069671    7.399166    9.601678
      8          1           0        8.495539   12.188513   10.720027
      9          1           0        9.953448   10.698119   12.107926
     10          6           0        7.399234    8.663431    7.858645
     11          1           0        7.912587    7.758549    7.490959
     12          1           0        6.350917    8.399405    8.050268
     13          1           0        7.407571    9.374135    7.007814
     14          7           0        9.526829    8.984549   10.934053
     15          6           0       10.374871    8.094665   11.762979
     16          1           0        9.839646    7.909910   12.724004
     17          1           0       10.474542    7.105972   11.251318
     18          6           0       11.780538    8.651373   12.044836
     19          1           0       11.727197    9.658348   12.512409
     20          1           0       12.263036    8.001163   12.804335
     21          6           0       12.653351    8.716866   10.797823
     22          1           0       13.717491    8.864534   11.069533
     23          1           0       12.622642    7.774101   10.220789
     24          6           0       12.262141    9.880825    9.878947
     25          8           0       11.628407   10.827752   10.386177
     26          8           0       12.589380    9.767514    8.682678
     27          8           0       10.509860    8.062725    7.800251
     28          1           0       10.053028    8.788740    7.358635
     29          1           0       11.364776    8.470937    8.026094
 ---------------------------------------------------------------------
                    Distance matrix (angstroms):
                    1          2          3          4          5
     1  C    0.000000
     2  C    1.393653   0.000000
     3  C    2.412646   1.404375   0.000000
     4  C    2.759664   2.409978   1.391204   0.000000
     5  C    2.372642   2.776778   2.416228   1.395704   0.000000
     6  H    3.409873   2.173126   1.096769   2.167434   3.414856
     7  H    1.100302   2.177241   3.421486   3.859163   3.353636
     8  H    3.852955   3.408563   2.162809   1.095067   2.153918
     9  H    3.358044   3.876400   3.422099   2.181975   1.100331
    10  C    2.491605   1.484216   2.513447   3.778664   4.260199
    11  H    2.642512   2.163415   3.415512   4.548151   4.773375
    12  H    3.109202   2.153733   2.996462   4.266398   4.804978
    13  H    3.329543   2.150583   2.716476   4.057730   4.773983
    14  N    1.367862   2.400628   2.777554   2.388440   1.361810
    15  C    2.453009   3.746742   4.259843   3.754091   2.471056
    16  H    3.080826   4.293530   4.714177   4.118892   2.844522
    17  H    2.513222   3.905936   4.734358   4.514527   3.375304
    18  C    3.638277   4.812705   5.105216   4.349698   3.013053
    19  H    4.075885   5.059357   5.044224   4.036926   2.734442
    20  H    4.510918   5.771092   6.134593   5.370551   3.996330
    21  C    3.891567   4.944182   5.319184   4.759745   3.658275
    22  H    4.997804   6.020410   6.315318   5.662248   4.565861
    23  H    3.813932   4.936905   5.580778   5.272394   4.232815
    24  C    3.661319   4.331448   4.464201   3.953775   3.213310
    25  O    3.662899   4.126059   3.882469   3.086846   2.459296
    26  O    4.093868   4.576774   4.829501   4.619532   4.139759
    27  O    2.638705   2.998229   3.980688   4.513773   4.264331
    28  H    2.765207   2.658327   3.477124   4.177580   4.229381
    29  H    3.071956   3.549324   4.300651   4.577355   4.203028
                    6          7          8          9         10
     6  H    0.000000
     7  H    4.335594   0.000000
     8  H    2.506691   4.951583   0.000000
     9  H    4.337022   4.236205   2.504603   0.000000
    10  C    2.737348   2.725232   4.670717   5.359137   0.000000
    11  H    3.768196   2.433749   5.512830   5.841453   1.103420
    12  H    3.065192   3.286179   5.107285   5.892954   1.097906
    13  H    2.568473   3.659400   4.783819   5.851971   1.108640
    14  N    3.874250   2.120768   3.372648   2.120449   3.753387
    15  C    5.356572   2.618871   4.623768   2.659804   4.941835
    16  H    5.789550   3.256170   4.912127   2.857729   5.495009
    17  H    5.806913   2.186535   5.480050   3.729455   4.836675
    18  C    6.167412   3.858218   5.005766   2.744341   6.059717
    19  H    6.053037   4.542984   4.478614   2.095451   6.432623
    20  H    7.211045   4.562564   6.006020   3.618391   6.968143
    21  C    6.304481   4.001232   5.417175   3.595999   6.020579
    22  H    7.269113   5.089610   6.199982   4.313735   7.090177
    23  H    6.561333   3.625945   6.063765   4.385860   5.801260
    24  C    5.314985   4.053070   4.496680   3.311553   5.404769
    25  O    4.690590   4.349456   3.431907   2.405559   5.381320
    26  O    5.542590   4.340736   5.174124   4.421141   5.369883
    27  O    4.656484   2.399915   5.441021   5.080449   3.168636
    28  H    3.983156   2.815874   5.028239   5.119708   2.703393
    29  H    5.017852   2.983063   5.413887   4.859376   3.973741
                   11         12         13         14         15
    11  H    0.000000
    12  H    1.778296   0.000000
    13  H    1.760281   1.775761   0.000000
    14  N    3.995466   4.329553   4.478659   0.000000
    15  C    4.942264   5.483548   5.749218   1.482628   0.000000
    16  H    5.578640   5.852747   6.382301   2.111073   1.115423
    17  H    4.596713   5.378101   5.705979   2.127879   1.117696
    18  C    6.041190   6.745431   6.709457   2.534571   1.537942
    19  H    6.586004   7.099298   7.002893   2.790490   2.198985
    20  H    6.871480   7.596901   7.685067   3.457142   2.158317
    21  C    5.859058   6.882624   6.504950   3.140916   2.551496
    22  H    6.908423   7.974880   7.521459   4.194569   3.499525
    23  H    5.443972   6.666086   6.330899   3.399704   2.744738
    24  C    5.396773   6.362487   5.662772   3.065696   3.209631
    25  O    5.622243   6.261409   5.598374   2.848543   3.307068
    26  O    5.227669   6.417950   5.459951   3.880843   4.146170
    27  O    2.633251   4.180032   3.460051   3.411279   3.965155
    28  H    2.379137   3.786233   2.732070   3.619232   4.470299
    29  H    3.565316   5.014428   4.184750   3.478228   3.884045
                   16         17         18         19         20
    16  H    0.000000
    17  H    1.793938   0.000000
    18  C    2.185886   2.173375   0.000000
    19  H    2.581600   3.110324   1.111516   0.000000
    20  H    2.426438   2.532181   1.110142   1.765958   0.000000
    21  C    3.504039   2.747334   1.523527   2.164245   2.165795
    22  H    4.322761   3.693549   2.179092   2.583274   2.422888
    23  H    3.745610   2.474413   2.192235   3.098989   2.618317
    24  C    4.224611   3.574734   2.536645   2.696439   3.477215
    25  O    4.144744   3.991431   2.740606   2.428606   3.773572
    26  O    5.229153   4.260781   3.633745   3.927100   4.496060
    27  O    4.971507   3.581409   4.469634   5.121753   5.302667
    28  H    5.441053   4.261732   4.996363   5.488210   5.929592
    29  H    4.971029   3.613546   4.044218   4.654924   4.884582
                   21         22         23         24         25
    21  C    0.000000
    22  H    1.108163   0.000000
    23  H    1.105765   1.762982   0.000000
    24  C    1.533681   2.137378   2.164510   0.000000
    25  O    2.382394   2.947113   3.215687   1.247226   0.000000
    26  O    2.362582   2.790176   2.518052   1.245385   2.224743
    27  O    3.742712   4.649731   3.225857   3.270620   3.947599
    28  H    4.312176   5.215822   3.977981   3.524883   3.975601
    29  H    3.066494   3.866873   2.623832   2.495218   3.345754
                   26         27         28         29
    26  O    0.000000
    27  O    2.830086   0.000000
    28  H    3.023933   0.964789   0.000000
    29  H    1.900492   0.973922   1.505717   0.000000
 Symmetry turned off by external request.
 Stoichiometry    C10H15NO3
 Framework group  C1[X(C10H15NO3)]
 Deg. of freedom    81
 Full point group                 C1      NOp   1
 Rotational constants (GHZ):           0.9559522           0.5699922           0.5017159
 Leave Link  202 at Mon Feb 20 01:33:12 2023, MaxMem=  6710886400 cpu:               0.5 elap:               0.0
 (Enter /data0/hywu0/study/g16/l122.exe)
 Counterpoise: doing full-system calculation.
 Leave Link  122 at Mon Feb 20 01:33:13 2023, MaxMem=  6710886400 cpu:               0.0 elap:               0.0
 (Enter /data0/hywu0/study/g16/l301.exe)
 Standard basis: 6-311+G(2d,p) (5D, 7F)
 Ernie: Thresh=  0.10000D-02 Tol=  0.10000D-05 Strict=F.
   468 basis functions,   708 primitive gaussians,   496 cartesian basis functions
    53 alpha electrons       53 beta electrons
       nuclear repulsion energy       961.6750477089 Hartrees.
 IExCor= 4336 DFT=T Ex+Corr=M062X ExCW=0 ScaHFX=  0.540000
 ScaDFX=  1.000000  1.000000  1.000000  1.000000 ScalE2=  1.000000  1.000000
 IRadAn=      5 IRanWt=     -1 IRanGd=            0 ICorTp=0 IEmpDi=131
 NAtoms=   29 NActive=   29 NUniq=   29 SFac= 1.00D+00 NAtFMM=   60 NAOKFM=F Big=F
 Integral buffers will be    131072 words long.
 Raffenetti 2 integral format.
 Two-electron integral symmetry is turned off.
 R6Disp:  Grimme-D3 Dispersion energy=       -0.0016298689 Hartrees.
 Nuclear repulsion after empirical dispersion term =      961.6734178399 Hartrees.
 Leave Link  301 at Mon Feb 20 01:33:13 2023, MaxMem=  6710886400 cpu:               1.9 elap:               0.1
 (Enter /data0/hywu0/study/g16/l302.exe)
 NPDir=0 NMtPBC=     1 NCelOv=     1 NCel=       1 NClECP=     1 NCelD=      1
         NCelK=      1 NCelE2=     1 NClLst=     1 CellRange=     0.0.
 One-electron integrals computed using PRISM.
 NBasis=   468 RedAO= T EigKep=  2.80D-06  NBF=   468
 NBsUse=   468 1.00D-06 EigRej= -1.00D+00 NBFU=   468
 Precomputing XC quadrature grid using
 IXCGrd= 4 IRadAn=           5 IRanWt=          -1 IRanGd=           0 AccXCQ= 0.00D+00.
 Generated NRdTot=       0 NPtTot=           0 NUsed=           0 NTot=          32
 NSgBfM=   496   496   496   496   496 MxSgAt=    29 MxSgA2=    29.
 Leave Link  302 at Mon Feb 20 01:33:13 2023, MaxMem=  6710886400 cpu:              11.5 elap:               0.5
 (Enter /data0/hywu0/study/g16/l303.exe)
 DipDrv:  MaxL=1.
 Leave Link  303 at Mon Feb 20 01:33:14 2023, MaxMem=  6710886400 cpu:               2.2 elap:               0.1
 (Enter /data0/hywu0/study/g16/l401.exe)
 ExpMin= 4.38D-02 ExpMax= 8.59D+03 ExpMxC= 1.30D+03 IAcc=3 IRadAn=         5 AccDes= 0.00D+00
 Harris functional with IExCor= 1009 and IRadAn=       5 diagonalized for initial guess.
 HarFok:  IExCor= 1009 AccDes= 0.00D+00 IRadAn=         5 IDoV= 1 UseB2=F ITyADJ=14
 ICtDFT=  3500011 ScaDFX=  1.000000  1.000000  1.000000  1.000000
 FoFCou: FMM=F IPFlag=           0 FMFlag=      100000 FMFlg1=           0
         NFxFlg=           0 DoJE=T BraDBF=F KetDBF=T FulRan=T
         wScrn=  0.000000 ICntrl=       500 IOpCl=  0 I1Cent=   200000004 NGrid=           0
         NMat0=    1 NMatS0=      1 NMatT0=    0 NMatD0=    1 NMtDS0=    0 NMtDT0=    0
 Symmetry not used in FoFCou.
 Harris En= -670.180407592608    
 JPrj=0 DoOrth=F DoCkMO=F.
 Leave Link  401 at Mon Feb 20 01:33:16 2023, MaxMem=  6710886400 cpu:              47.9 elap:               2.0
 (Enter /data0/hywu0/study/g16/l502.exe)
 Two-electron integral symmetry not used.
 Closed shell SCF:
 Using DIIS extrapolation, IDIIS=  1040.
 NGot=  6710886400 LenX=  6710378913 LenY=  6710132401
 Requested convergence on RMS density matrix=1.00D-08 within 128 cycles.
 Requested convergence on MAX density matrix=1.00D-06.
 Requested convergence on             energy=1.00D-06.
 No special actions if energy rises.
 Fock matrices will be formed incrementally for  20 cycles.

 Cycle   1  Pass 1  IDiag  1:
 FoFJK:  IHMeth= 1 ICntrl=       0 DoSepK=F KAlg= 0 I1Cent=           0 FoldK=F
 IRaf= 910000000 NMat=       1 IRICut=       1 DoRegI=T DoRafI=F ISym2E= 0 IDoP0=0 IntGTp=1.
 FoFCou: FMM=F IPFlag=           0 FMFlag=      100000 FMFlg1=           0
         NFxFlg=           0 DoJE=F BraDBF=F KetDBF=F FulRan=T
         wScrn=  0.000000 ICntrl=         0 IOpCl=  0 I1Cent=           0 NGrid=           0
         NMat0=    1 NMatS0=      1 NMatT0=    0 NMatD0=    1 NMtDS0=    0 NMtDT0=    0
 Symmetry not used in FoFCou.
 E= -669.968215106857    
 DIIS: error= 2.11D-02 at cycle   1 NSaved=   1.
 NSaved= 1 IEnMin= 1 EnMin= -669.968215106857     IErMin= 1 ErrMin= 2.11D-02
 ErrMax= 2.11D-02  0.00D+00 EMaxC= 1.00D-01 BMatC= 6.30D-01 BMatP= 6.30D-01
 IDIUse=3 WtCom= 7.89D-01 WtEn= 2.11D-01
 Coeff-Com:  0.100D+01
 Coeff-En:   0.100D+01
 Coeff:      0.100D+01
 Gap=     0.224 Goal=   None    Shift=    0.000
 GapD=    0.224 DampG=1.000 DampE=0.500 DampFc=0.5000 IDamp=-1.
 Damping current iteration by 5.00D-01
 RMSDP=1.43D-02 MaxDP=1.84D+00              OVMax= 2.17D-01

 Cycle   2  Pass 1  IDiag  1:
 RMSU=  6.66D-03    CP:  1.15D+00
 E= -670.175002543080     Delta-E=       -0.206787436223 Rises=F Damp=T
 DIIS: error= 5.37D-03 at cycle   2 NSaved=   2.
 NSaved= 2 IEnMin= 2 EnMin= -670.175002543080     IErMin= 2 ErrMin= 5.37D-03
 ErrMax= 5.37D-03  0.00D+00 EMaxC= 1.00D-01 BMatC= 4.68D-02 BMatP= 6.30D-01
 IDIUse=3 WtCom= 9.46D-01 WtEn= 5.37D-02
 Coeff-Com:  0.891D-02 0.991D+00
 Coeff-En:   0.560D-01 0.944D+00
 Coeff:      0.114D-01 0.989D+00
 Gap=     0.235 Goal=   None    Shift=    0.000
 RMSDP=6.00D-03 MaxDP=6.77D-01 DE=-2.07D-01 OVMax= 1.61D-01

 Cycle   3  Pass 1  IDiag  1:
 RMSU=  3.93D-03    CP:  9.27D-01  6.58D-01
 E= -670.409207839236     Delta-E=       -0.234205296156 Rises=F Damp=F
 DIIS: error= 4.00D-03 at cycle   3 NSaved=   3.
 NSaved= 3 IEnMin= 3 EnMin= -670.409207839236     IErMin= 3 ErrMin= 4.00D-03
 ErrMax= 4.00D-03  0.00D+00 EMaxC= 1.00D-01 BMatC= 2.11D-02 BMatP= 4.68D-02
 IDIUse=3 WtCom= 9.60D-01 WtEn= 4.00D-02
 Coeff-Com: -0.680D-01 0.395D+00 0.673D+00
 Coeff-En:   0.000D+00 0.000D+00 0.100D+01
 Coeff:     -0.652D-01 0.379D+00 0.686D+00
 Gap=     0.204 Goal=   None    Shift=    0.000
 RMSDP=1.19D-03 MaxDP=1.72D-01 DE=-2.34D-01 OVMax= 3.73D-02

 Cycle   4  Pass 1  IDiag  1:
 RMSU=  1.11D-03    CP:  9.47D-01  6.96D-01  1.01D+00
 E= -670.422617667461     Delta-E=       -0.013409828225 Rises=F Damp=F
 DIIS: error= 1.71D-03 at cycle   4 NSaved=   4.
 NSaved= 4 IEnMin= 4 EnMin= -670.422617667461     IErMin= 4 ErrMin= 1.71D-03
 ErrMax= 1.71D-03  0.00D+00 EMaxC= 1.00D-01 BMatC= 4.01D-03 BMatP= 2.11D-02
 IDIUse=3 WtCom= 9.83D-01 WtEn= 1.71D-02
 Coeff-Com: -0.338D-01 0.954D-01 0.354D+00 0.585D+00
 Coeff-En:   0.000D+00 0.000D+00 0.143D+00 0.857D+00
 Coeff:     -0.332D-01 0.937D-01 0.350D+00 0.589D+00
 Gap=     0.201 Goal=   None    Shift=    0.000
 RMSDP=3.93D-04 MaxDP=3.57D-02 DE=-1.34D-02 OVMax= 1.29D-02

 Cycle   5  Pass 1  IDiag  1:
 RMSU=  2.72D-04    CP:  9.41D-01  6.92D-01  1.01D+00  7.65D-01
 E= -670.426069811163     Delta-E=       -0.003452143702 Rises=F Damp=F
 DIIS: error= 4.65D-04 at cycle   5 NSaved=   5.
 NSaved= 5 IEnMin= 5 EnMin= -670.426069811163     IErMin= 5 ErrMin= 4.65D-04
 ErrMax= 4.65D-04  0.00D+00 EMaxC= 1.00D-01 BMatC= 2.08D-04 BMatP= 4.01D-03
 IDIUse=3 WtCom= 9.95D-01 WtEn= 4.65D-03
 Coeff-Com: -0.116D-01 0.229D-01 0.120D+00 0.272D+00 0.597D+00
 Coeff-En:   0.000D+00 0.000D+00 0.000D+00 0.000D+00 0.100D+01
 Coeff:     -0.116D-01 0.228D-01 0.119D+00 0.270D+00 0.599D+00
 Gap=     0.203 Goal=   None    Shift=    0.000
 RMSDP=1.45D-04 MaxDP=1.87D-02 DE=-3.45D-03 OVMax= 3.68D-03

 Cycle   6  Pass 1  IDiag  1:
 RMSU=  9.46D-05    CP:  9.41D-01  6.83D-01  1.02D+00  8.28D-01  7.99D-01
 E= -670.426243735703     Delta-E=       -0.000173924540 Rises=F Damp=F
 DIIS: error= 1.04D-04 at cycle   6 NSaved=   6.
 NSaved= 6 IEnMin= 6 EnMin= -670.426243735703     IErMin= 6 ErrMin= 1.04D-04
 ErrMax= 1.04D-04  0.00D+00 EMaxC= 1.00D-01 BMatC= 1.59D-05 BMatP= 2.08D-04
 IDIUse=3 WtCom= 9.99D-01 WtEn= 1.04D-03
 Coeff-Com: -0.160D-02 0.568D-03 0.155D-01 0.567D-01 0.254D+00 0.675D+00
 Coeff-En:   0.000D+00 0.000D+00 0.000D+00 0.000D+00 0.000D+00 0.100D+01
 Coeff:     -0.160D-02 0.568D-03 0.155D-01 0.566D-01 0.254D+00 0.675D+00
 Gap=     0.203 Goal=   None    Shift=    0.000
 RMSDP=4.17D-05 MaxDP=5.57D-03 DE=-1.74D-04 OVMax= 1.21D-03

 Cycle   7  Pass 1  IDiag  1:
 RMSU=  3.03D-05    CP:  9.42D-01  6.84D-01  1.02D+00  8.38D-01  8.46D-01
                    CP:  1.02D+00
 E= -670.426258828880     Delta-E=       -0.000015093178 Rises=F Damp=F
 DIIS: error= 3.37D-05 at cycle   7 NSaved=   7.
 NSaved= 7 IEnMin= 7 EnMin= -670.426258828880     IErMin= 7 ErrMin= 3.37D-05
 ErrMax= 3.37D-05  0.00D+00 EMaxC= 1.00D-01 BMatC= 1.57D-06 BMatP= 1.59D-05
 IDIUse=1 WtCom= 1.00D+00 WtEn= 0.00D+00
 Coeff-Com:  0.988D-03-0.277D-02-0.996D-02-0.137D-01 0.210D-01 0.253D+00
 Coeff-Com:  0.751D+00
 Coeff:      0.988D-03-0.277D-02-0.996D-02-0.137D-01 0.210D-01 0.253D+00
 Coeff:      0.751D+00
 Gap=     0.203 Goal=   None    Shift=    0.000
 RMSDP=1.34D-05 MaxDP=6.84D-04 DE=-1.51D-05 OVMax= 6.08D-04

 Cycle   8  Pass 1  IDiag  1:
 RMSU=  1.12D-05    CP:  9.42D-01  6.83D-01  1.02D+00  8.41D-01  8.60D-01
                    CP:  1.04D+00  1.06D+00
 E= -670.426260683371     Delta-E=       -0.000001854490 Rises=F Damp=F
 DIIS: error= 1.29D-05 at cycle   8 NSaved=   8.
 NSaved= 8 IEnMin= 8 EnMin= -670.426260683371     IErMin= 8 ErrMin= 1.29D-05
 ErrMax= 1.29D-05  0.00D+00 EMaxC= 1.00D-01 BMatC= 2.40D-07 BMatP= 1.57D-06
 IDIUse=1 WtCom= 1.00D+00 WtEn= 0.00D+00
 Coeff-Com:  0.593D-03-0.122D-02-0.606D-02-0.125D-01-0.198D-01 0.308D-01
 Coeff-Com:  0.326D+00 0.682D+00
 Coeff:      0.593D-03-0.122D-02-0.606D-02-0.125D-01-0.198D-01 0.308D-01
 Coeff:      0.326D+00 0.682D+00
 Gap=     0.203 Goal=   None    Shift=    0.000
 RMSDP=5.63D-06 MaxDP=8.51D-04 DE=-1.85D-06 OVMax= 3.05D-04

 Cycle   9  Pass 1  IDiag  1:
 RMSU=  3.21D-06    CP:  9.42D-01  6.83D-01  1.02D+00  8.41D-01  8.57D-01
                    CP:  1.07D+00  1.05D+00  1.06D+00
 E= -670.426260968092     Delta-E=       -0.000000284722 Rises=F Damp=F
 DIIS: error= 5.04D-06 at cycle   9 NSaved=   9.
 NSaved= 9 IEnMin= 9 EnMin= -670.426260968092     IErMin= 9 ErrMin= 5.04D-06
 ErrMax= 5.04D-06  0.00D+00 EMaxC= 1.00D-01 BMatC= 3.31D-08 BMatP= 2.40D-07
 IDIUse=1 WtCom= 1.00D+00 WtEn= 0.00D+00
 Coeff-Com:  0.150D-03-0.258D-03-0.172D-02-0.412D-02-0.104D-01-0.973D-02
 Coeff-Com:  0.677D-01 0.308D+00 0.650D+00
 Coeff:      0.150D-03-0.258D-03-0.172D-02-0.412D-02-0.104D-01-0.973D-02
 Coeff:      0.677D-01 0.308D+00 0.650D+00
 Gap=     0.203 Goal=   None    Shift=    0.000
 RMSDP=2.04D-06 MaxDP=2.70D-04 DE=-2.85D-07 OVMax= 1.20D-04

 Cycle  10  Pass 1  IDiag  1:
 RMSU=  1.28D-06    CP:  9.42D-01  6.83D-01  1.02D+00  8.40D-01  8.56D-01
                    CP:  1.06D+00  1.07D+00  1.13D+00  1.11D+00
 E= -670.426261006679     Delta-E=       -0.000000038587 Rises=F Damp=F
 DIIS: error= 2.03D-06 at cycle  10 NSaved=  10.
 NSaved=10 IEnMin=10 EnMin= -670.426261006679     IErMin=10 ErrMin= 2.03D-06
 ErrMax= 2.03D-06  0.00D+00 EMaxC= 1.00D-01 BMatC= 5.98D-09 BMatP= 3.31D-08
 IDIUse=1 WtCom= 1.00D+00 WtEn= 0.00D+00
 Coeff-Com: -0.404D-04 0.105D-03 0.219D-03 0.245D-03-0.133D-02-0.949D-02
 Coeff-Com: -0.301D-01 0.225D-01 0.309D+00 0.709D+00
 Coeff:     -0.404D-04 0.105D-03 0.219D-03 0.245D-03-0.133D-02-0.949D-02
 Coeff:     -0.301D-01 0.225D-01 0.309D+00 0.709D+00
 Gap=     0.203 Goal=   None    Shift=    0.000
 RMSDP=9.84D-07 MaxDP=7.56D-05 DE=-3.86D-08 OVMax= 7.59D-05

 Cycle  11  Pass 1  IDiag  1:
 RMSU=  4.42D-07    CP:  9.42D-01  6.83D-01  1.02D+00  8.40D-01  8.55D-01
                    CP:  1.06D+00  1.07D+00  1.17D+00  1.24D+00  1.15D+00
 E= -670.426261016320     Delta-E=       -0.000000009641 Rises=F Damp=F
 DIIS: error= 8.78D-07 at cycle  11 NSaved=  11.
 NSaved=11 IEnMin=11 EnMin= -670.426261016320     IErMin=11 ErrMin= 8.78D-07
 ErrMax= 8.78D-07  0.00D+00 EMaxC= 1.00D-01 BMatC= 1.13D-09 BMatP= 5.98D-09
 IDIUse=1 WtCom= 1.00D+00 WtEn= 0.00D+00
 Coeff-Com: -0.456D-04 0.944D-04 0.371D-03 0.785D-03 0.944D-03-0.335D-02
 Coeff-Com: -0.279D-01-0.375D-01 0.539D-01 0.358D+00 0.655D+00
 Coeff:     -0.456D-04 0.944D-04 0.371D-03 0.785D-03 0.944D-03-0.335D-02
 Coeff:     -0.279D-01-0.375D-01 0.539D-01 0.358D+00 0.655D+00
 Gap=     0.203 Goal=   None    Shift=    0.000
 RMSDP=3.86D-07 MaxDP=3.46D-05 DE=-9.64D-09 OVMax= 3.18D-05

 Cycle  12  Pass 1  IDiag  1:
 RMSU=  2.23D-07    CP:  9.42D-01  6.83D-01  1.02D+00  8.40D-01  8.55D-01
                    CP:  1.06D+00  1.07D+00  1.19D+00  1.28D+00  1.21D+00
                    CP:  1.16D+00
 E= -670.426261018070     Delta-E=       -0.000000001749 Rises=F Damp=F
 DIIS: error= 3.64D-07 at cycle  12 NSaved=  12.
 NSaved=12 IEnMin=12 EnMin= -670.426261018070     IErMin=12 ErrMin= 3.64D-07
 ErrMax= 3.64D-07  0.00D+00 EMaxC= 1.00D-01 BMatC= 1.10D-10 BMatP= 1.13D-09
 IDIUse=1 WtCom= 1.00D+00 WtEn= 0.00D+00
 Coeff-Com: -0.864D-05 0.168D-04 0.829D-04 0.221D-03 0.496D-03 0.581D-03
 Coeff-Com: -0.422D-02-0.147D-01-0.304D-01-0.268D-04 0.230D+00 0.818D+00
 Coeff:     -0.864D-05 0.168D-04 0.829D-04 0.221D-03 0.496D-03 0.581D-03
 Coeff:     -0.422D-02-0.147D-01-0.304D-01-0.268D-04 0.230D+00 0.818D+00
 Gap=     0.203 Goal=   None    Shift=    0.000
 RMSDP=1.80D-07 MaxDP=2.07D-05 DE=-1.75D-09 OVMax= 1.45D-05

 Cycle  13  Pass 1  IDiag  1:
 RMSU=  7.22D-08    CP:  9.42D-01  6.83D-01  1.02D+00  8.40D-01  8.56D-01
                    CP:  1.06D+00  1.07D+00  1.19D+00  1.29D+00  1.25D+00
                    CP:  1.30D+00  1.18D+00
 E= -670.426261018356     Delta-E=       -0.000000000286 Rises=F Damp=F
 DIIS: error= 9.49D-08 at cycle  13 NSaved=  13.
 NSaved=13 IEnMin=13 EnMin= -670.426261018356     IErMin=13 ErrMin= 9.49D-08
 ErrMax= 9.49D-08  0.00D+00 EMaxC= 1.00D-01 BMatC= 1.28D-11 BMatP= 1.10D-10
 IDIUse=1 WtCom= 1.00D+00 WtEn= 0.00D+00
 Coeff-Com:  0.423D-05-0.909D-05-0.276D-04-0.418D-04-0.781D-05 0.657D-03
 Coeff-Com:  0.246D-02 0.722D-03-0.159D-01-0.520D-01-0.276D-01 0.226D+00
 Coeff-Com:  0.865D+00
 Coeff:      0.423D-05-0.909D-05-0.276D-04-0.418D-04-0.781D-05 0.657D-03
 Coeff:      0.246D-02 0.722D-03-0.159D-01-0.520D-01-0.276D-01 0.226D+00
 Coeff:      0.865D+00
 Gap=     0.203 Goal=   None    Shift=    0.000
 RMSDP=9.31D-08 MaxDP=1.35D-05 DE=-2.86D-10 OVMax= 5.11D-06

 Cycle  14  Pass 1  IDiag  1:
 RMSU=  3.82D-08    CP:  9.42D-01  6.83D-01  1.02D+00  8.40D-01  8.56D-01
                    CP:  1.06D+00  1.07D+00  1.19D+00  1.29D+00  1.25D+00
                    CP:  1.37D+00  1.31D+00  1.28D+00
 E= -670.426261018396     Delta-E=       -0.000000000040 Rises=F Damp=F
 DIIS: error= 5.71D-08 at cycle  14 NSaved=  14.
 NSaved=14 IEnMin=14 EnMin= -670.426261018396     IErMin=14 ErrMin= 5.71D-08
 ErrMax= 5.71D-08  0.00D+00 EMaxC= 1.00D-01 BMatC= 2.17D-12 BMatP= 1.28D-11
 IDIUse=1 WtCom= 1.00D+00 WtEn= 0.00D+00
 Coeff-Com:  0.232D-05-0.483D-05-0.177D-04-0.348D-04-0.525D-04 0.202D-03
 Coeff-Com:  0.134D-02 0.169D-02-0.205D-02-0.182D-01-0.312D-01-0.603D-02
 Coeff-Com:  0.328D+00 0.727D+00
 Coeff:      0.232D-05-0.483D-05-0.177D-04-0.348D-04-0.525D-04 0.202D-03
 Coeff:      0.134D-02 0.169D-02-0.205D-02-0.182D-01-0.312D-01-0.603D-02
 Coeff:      0.328D+00 0.727D+00
 Gap=     0.203 Goal=   None    Shift=    0.000
 RMSDP=1.91D-08 MaxDP=1.69D-06 DE=-4.00D-11 OVMax= 1.36D-06

 Cycle  15  Pass 1  IDiag  1:
 RMSU=  1.09D-08    CP:  9.42D-01  6.83D-01  1.02D+00  8.40D-01  8.56D-01
                    CP:  1.06D+00  1.07D+00  1.19D+00  1.29D+00  1.25D+00
                    CP:  1.38D+00  1.34D+00  1.35D+00  9.38D-01
 E= -670.426261018375     Delta-E=        0.000000000021 Rises=F Damp=F
 DIIS: error= 2.56D-08 at cycle  15 NSaved=  15.
 NSaved=15 IEnMin=14 EnMin= -670.426261018396     IErMin=15 ErrMin= 2.56D-08
 ErrMax= 2.56D-08  0.00D+00 EMaxC= 1.00D-01 BMatC= 5.42D-13 BMatP= 2.17D-12
 IDIUse=1 WtCom= 1.00D+00 WtEn= 0.00D+00
 Coeff-Com:  0.270D-06-0.565D-06-0.343D-05-0.845D-05-0.225D-04-0.167D-04
 Coeff-Com:  0.211D-03 0.641D-03 0.192D-02 0.667D-03-0.103D-01-0.477D-01
 Coeff-Com: -0.120D-01 0.339D+00 0.727D+00
 Coeff:      0.270D-06-0.565D-06-0.343D-05-0.845D-05-0.225D-04-0.167D-04
 Coeff:      0.211D-03 0.641D-03 0.192D-02 0.667D-03-0.103D-01-0.477D-01
 Coeff:     -0.120D-01 0.339D+00 0.727D+00
 Gap=     0.203 Goal=   None    Shift=    0.000
 RMSDP=1.45D-08 MaxDP=2.19D-06 DE= 2.11D-11 OVMax= 3.91D-07

 Cycle  16  Pass 1  IDiag  1:
 RMSU=  5.22D-09    CP:  9.42D-01  6.83D-01  1.02D+00  8.40D-01  8.56D-01
                    CP:  1.06D+00  1.07D+00  1.19D+00  1.29D+00  1.25D+00
                    CP:  1.38D+00  1.36D+00  1.41D+00  1.08D+00  9.86D-01
 E= -670.426261018420     Delta-E=       -0.000000000046 Rises=F Damp=F
 DIIS: error= 1.22D-08 at cycle  16 NSaved=  16.
 NSaved=16 IEnMin=16 EnMin= -670.426261018420     IErMin=16 ErrMin= 1.22D-08
 ErrMax= 1.22D-08  0.00D+00 EMaxC= 1.00D-01 BMatC= 4.65D-14 BMatP= 5.42D-13
 IDIUse=1 WtCom= 1.00D+00 WtEn= 0.00D+00
 Coeff-Com: -0.283D-06 0.555D-06 0.134D-05 0.234D-05 0.164D-06-0.395D-04
 Coeff-Com: -0.135D-03-0.503D-04 0.940D-03 0.300D-02 0.182D-02-0.140D-01
 Coeff-Com: -0.555D-01 0.150D-01 0.257D+00 0.792D+00
 Coeff:     -0.283D-06 0.555D-06 0.134D-05 0.234D-05 0.164D-06-0.395D-04
 Coeff:     -0.135D-03-0.503D-04 0.940D-03 0.300D-02 0.182D-02-0.140D-01
 Coeff:     -0.555D-01 0.150D-01 0.257D+00 0.792D+00
 Gap=     0.203 Goal=   None    Shift=    0.000
 RMSDP=3.44D-09 MaxDP=6.10D-07 DE=-4.59D-11 OVMax= 2.19D-07

 SCF Done:  E(RM062X) =  -670.426261018     A.U. after   16 cycles
            NFock= 16  Conv=0.34D-08     -V/T= 2.0043
 KE= 6.675252048523D+02 PE=-3.488696119193D+03 EE= 1.189071235482D+03
 Leave Link  502 at Mon Feb 20 01:34:55 2023, MaxMem=  6710886400 cpu:            2383.7 elap:              99.8
 (Enter /data0/hywu0/study/g16/l601.exe)
 Copying SCF densities to generalized density rwf, IOpCl= 0 IROHF=0.

 **********************************************************************

            Population analysis using the SCF density.

 **********************************************************************

 Alpha  occ. eigenvalues --  -19.59564 -19.52263 -19.51656 -14.88136 -10.64500
 Alpha  occ. eigenvalues --  -10.64348 -10.62124 -10.60670 -10.60178 -10.59326
 Alpha  occ. eigenvalues --  -10.58421 -10.56925 -10.55115 -10.51528  -1.15573
 Alpha  occ. eigenvalues --   -1.11609  -1.10548  -1.01770  -0.98183  -0.92868
 Alpha  occ. eigenvalues --   -0.90025  -0.84011  -0.81727  -0.76421  -0.74633
 Alpha  occ. eigenvalues --   -0.69221  -0.64631  -0.62534  -0.59307  -0.58493
 Alpha  occ. eigenvalues --   -0.58130  -0.56100  -0.55446  -0.54066  -0.52702
 Alpha  occ. eigenvalues --   -0.50300  -0.49549  -0.49188  -0.48501  -0.47386
 Alpha  occ. eigenvalues --   -0.46668  -0.45806  -0.44801  -0.44422  -0.42818
 Alpha  occ. eigenvalues --   -0.40752  -0.39490  -0.38861  -0.37318  -0.33747
 Alpha  occ. eigenvalues --   -0.27645  -0.27510  -0.26638
 Alpha virt. eigenvalues --   -0.06365  -0.02611  -0.00716   0.00364   0.00967
 Alpha virt. eigenvalues --    0.02111   0.02451   0.02929   0.03773   0.04303
 Alpha virt. eigenvalues --    0.04919   0.05432   0.06159   0.06387   0.07545
 Alpha virt. eigenvalues --    0.08234   0.08404   0.08930   0.09716   0.10226
 Alpha virt. eigenvalues --    0.10574   0.11305   0.11525   0.12054   0.12864
 Alpha virt. eigenvalues --    0.12988   0.13245   0.13750   0.13835   0.14068
 Alpha virt. eigenvalues --    0.15074   0.15668   0.16476   0.16921   0.17246
 Alpha virt. eigenvalues --    0.17525   0.17843   0.17989   0.18589   0.18755
 Alpha virt. eigenvalues --    0.19231   0.20103   0.20315   0.20837   0.21140
 Alpha virt. eigenvalues --    0.21546   0.21919   0.22369   0.23031   0.23436
 Alpha virt. eigenvalues --    0.23861   0.24313   0.24873   0.25590   0.26167
 Alpha virt. eigenvalues --    0.26452   0.27180   0.27534   0.27947   0.28567
 Alpha virt. eigenvalues --    0.28898   0.29500   0.29667   0.30245   0.31007
 Alpha virt. eigenvalues --    0.31624   0.31796   0.32829   0.33547   0.34724
 Alpha virt. eigenvalues --    0.34884   0.35040   0.35348   0.36560   0.37414
 Alpha virt. eigenvalues --    0.37858   0.39307   0.39662   0.40775   0.41064
 Alpha virt. eigenvalues --    0.41934   0.43310   0.44635   0.46379   0.46981
 Alpha virt. eigenvalues --    0.47519   0.47697   0.48211   0.49949   0.51712
 Alpha virt. eigenvalues --    0.51779   0.52610   0.52934   0.54244   0.54612
 Alpha virt. eigenvalues --    0.55368   0.56278   0.56772   0.57820   0.59138
 Alpha virt. eigenvalues --    0.59359   0.60299   0.60889   0.61730   0.62479
 Alpha virt. eigenvalues --    0.63078   0.63826   0.64195   0.64492   0.65430
 Alpha virt. eigenvalues --    0.66164   0.66506   0.66783   0.67923   0.68447
 Alpha virt. eigenvalues --    0.69089   0.70004   0.70291   0.70547   0.70831
 Alpha virt. eigenvalues --    0.72223   0.72812   0.73536   0.74800   0.75203
 Alpha virt. eigenvalues --    0.76200   0.77066   0.77620   0.78479   0.79193
 Alpha virt. eigenvalues --    0.79379   0.80796   0.81399   0.82511   0.83315
 Alpha virt. eigenvalues --    0.83862   0.84367   0.85370   0.85951   0.87490
 Alpha virt. eigenvalues --    0.88128   0.89311   0.90449   0.90782   0.92204
 Alpha virt. eigenvalues --    0.93233   0.94907   0.95423   0.97155   0.99778
 Alpha virt. eigenvalues --    1.00858   1.02458   1.02667   1.04188   1.04790
 Alpha virt. eigenvalues --    1.05936   1.08124   1.09864   1.10773   1.13023
 Alpha virt. eigenvalues --    1.13568   1.15513   1.16511   1.18436   1.19638
 Alpha virt. eigenvalues --    1.20051   1.21322   1.21863   1.22768   1.24245
 Alpha virt. eigenvalues --    1.24758   1.25355   1.27242   1.28536   1.29109
 Alpha virt. eigenvalues --    1.29697   1.30786   1.31933   1.32502   1.33277
 Alpha virt. eigenvalues --    1.33588   1.35259   1.35601   1.37578   1.38187
 Alpha virt. eigenvalues --    1.38650   1.39833   1.40358   1.41219   1.41606
 Alpha virt. eigenvalues --    1.42201   1.43628   1.43679   1.45231   1.46343
 Alpha virt. eigenvalues --    1.47050   1.47336   1.48958   1.51754   1.52817
 Alpha virt. eigenvalues --    1.53050   1.54103   1.55844   1.58187   1.59405
 Alpha virt. eigenvalues --    1.60295   1.61954   1.66613   1.68150   1.69214
 Alpha virt. eigenvalues --    1.70467   1.71569   1.72220   1.73693   1.76328
 Alpha virt. eigenvalues --    1.77540   1.78918   1.80015   1.81256   1.82614
 Alpha virt. eigenvalues --    1.84429   1.85322   1.86057   1.87187   1.88257
 Alpha virt. eigenvalues --    1.91639   1.91995   1.93299   1.93931   1.95522
 Alpha virt. eigenvalues --    1.99207   2.01339   2.02679   2.03554   2.05646
 Alpha virt. eigenvalues --    2.09407   2.09673   2.11057   2.15362   2.15551
 Alpha virt. eigenvalues --    2.17600   2.19303   2.20020   2.21943   2.23443
 Alpha virt. eigenvalues --    2.25569   2.27444   2.29227   2.29475   2.30834
 Alpha virt. eigenvalues --    2.32402   2.34024   2.34437   2.35696   2.36883
 Alpha virt. eigenvalues --    2.37861   2.39046   2.41340   2.43827   2.46555
 Alpha virt. eigenvalues --    2.48087   2.51501   2.53149   2.54858   2.57359
 Alpha virt. eigenvalues --    2.59634   2.64271   2.65282   2.66211   2.68518
 Alpha virt. eigenvalues --    2.70099   2.72716   2.73003   2.75575   2.76040
 Alpha virt. eigenvalues --    2.77688   2.79583   2.80231   2.82270   2.84765
 Alpha virt. eigenvalues --    2.86616   2.87589   2.89370   2.90764   2.91529
 Alpha virt. eigenvalues --    2.94013   2.94456   2.95852   2.99689   3.01550
 Alpha virt. eigenvalues --    3.03630   3.06010   3.07683   3.10151   3.12132
 Alpha virt. eigenvalues --    3.13567   3.14647   3.15707   3.18515   3.18632
 Alpha virt. eigenvalues --    3.21539   3.22615   3.25558   3.29555   3.30405
 Alpha virt. eigenvalues --    3.31497   3.32815   3.35905   3.37259   3.37865
 Alpha virt. eigenvalues --    3.39862   3.41358   3.41456   3.43069   3.43628
 Alpha virt. eigenvalues --    3.45588   3.47508   3.47964   3.49223   3.50002
 Alpha virt. eigenvalues --    3.51712   3.52504   3.54515   3.56964   3.57443
 Alpha virt. eigenvalues --    3.58232   3.60010   3.60555   3.61592   3.62102
 Alpha virt. eigenvalues --    3.63455   3.64003   3.65191   3.66135   3.66817
 Alpha virt. eigenvalues --    3.68617   3.69940   3.71473   3.73615   3.74468
 Alpha virt. eigenvalues --    3.75651   3.77172   3.77655   3.79460   3.82265
 Alpha virt. eigenvalues --    3.83032   3.87093   3.90079   3.91761   3.92679
 Alpha virt. eigenvalues --    3.95417   3.99046   4.02066   4.04116   4.05814
 Alpha virt. eigenvalues --    4.09498   4.14185   4.18084   4.20200   4.20833
 Alpha virt. eigenvalues --    4.21803   4.26241   4.27804   4.41040   4.41342
 Alpha virt. eigenvalues --    4.51159   4.57219   4.62769   4.70929   4.96527
 Alpha virt. eigenvalues --    5.04557   5.06960   5.12483   5.25414   5.30372
 Alpha virt. eigenvalues --    5.38840   5.40352   5.44449   5.46211   5.51739
 Alpha virt. eigenvalues --    5.57841   5.65374   5.77292   5.97332   6.02545
 Alpha virt. eigenvalues --    6.30186   6.84739   6.88513   6.90294   6.95440
 Alpha virt. eigenvalues --    6.96304   6.97282   7.01836   7.03498   7.14920
 Alpha virt. eigenvalues --    7.18803   7.20692   7.22763   7.34134   7.35341
 Alpha virt. eigenvalues --    7.42353  23.83313  23.95918  23.97912  24.03871
 Alpha virt. eigenvalues --   24.07517  24.09123  24.09953  24.11650  24.23650
 Alpha virt. eigenvalues --   24.28845  35.68817  50.09036  50.21079  50.25554
          Condensed to atoms (all electrons):
               1          2          3          4          5          6
     1  C   11.636492  -4.235956   0.363419  -0.791108  -0.366795  -0.002988
     2  C   -4.235956  10.804034  -2.021058   1.237770  -0.591934   0.001463
     3  C    0.363419  -2.021058   8.380005  -0.791267   0.697328   0.333667
     4  C   -0.791108   1.237770  -0.791267   7.107402  -1.176749   0.002266
     5  C   -0.366795  -0.591934   0.697328  -1.176749   7.247371   0.008006
     6  H   -0.002988   0.001463   0.333667   0.002266   0.008006   0.502443
     7  H    0.437300  -0.021046   0.026037  -0.010642  -0.001710  -0.000153
     8  H   -0.006007   0.002096  -0.002751   0.323599   0.017401  -0.004173
     9  H    0.000267   0.015026  -0.020606   0.008809   0.389175  -0.000197
    10  C    0.313243  -0.420486  -0.201503  -0.069647  -0.021823  -0.001228
    11  H    0.193470  -0.191106  -0.070201  -0.003961  -0.001435   0.000077
    12  H    0.001873   0.001668  -0.044014  -0.003249  -0.005921   0.000379
    13  H   -0.106631  -0.080149   0.128706   0.011727   0.015012   0.001417
    14  N   -0.350610   0.471154  -0.270448   0.172226   0.078610   0.000764
    15  C   -0.168875  -0.005860  -0.089814   0.081556  -0.228835   0.000321
    16  H    0.005311  -0.010623   0.004228  -0.001443  -0.006473  -0.000001
    17  H    0.022457   0.025929  -0.013195   0.013258  -0.026261  -0.000004
    18  C   -0.040723   0.093401  -0.040312   0.062596  -0.042280  -0.000058
    19  H    0.000837   0.003294  -0.007026   0.019795  -0.030337  -0.000000
    20  H    0.001218   0.000291   0.001755  -0.007000   0.007167   0.000000
    21  C    0.092448  -0.141035   0.052833  -0.136698   0.237705   0.000204
    22  H    0.005249  -0.000979  -0.000147   0.003015   0.003502   0.000000
    23  H   -0.017256   0.005946  -0.003178  -0.002252  -0.007752   0.000000
    24  C   -0.001445  -0.004765   0.008031   0.033911  -0.179583  -0.000245
    25  O   -0.069903  -0.002991   0.044000  -0.165241   0.215606  -0.000026
    26  O    0.029833  -0.024315  -0.004904  -0.011224   0.009279  -0.000006
    27  O   -0.158781   0.192112  -0.155455   0.003117   0.062006   0.000123
    28  H   -0.009394   0.033880  -0.010005   0.011013  -0.016726  -0.000032
    29  H    0.040534  -0.044538   0.010160   0.006121  -0.018819  -0.000006
               7          8          9         10         11         12
     1  C    0.437300  -0.006007   0.000267   0.313243   0.193470   0.001873
     2  C   -0.021046   0.002096   0.015026  -0.420486  -0.191106   0.001668
     3  C    0.026037  -0.002751  -0.020606  -0.201503  -0.070201  -0.044014
     4  C   -0.010642   0.323599   0.008809  -0.069647  -0.003961  -0.003249
     5  C   -0.001710   0.017401   0.389175  -0.021823  -0.001435  -0.005921
     6  H   -0.000153  -0.004173  -0.000197  -0.001228   0.000077   0.000379
     7  H    0.461958   0.000036  -0.000125  -0.007012   0.002770   0.000213
     8  H    0.000036   0.507753  -0.003214   0.001696   0.000010   0.000007
     9  H   -0.000125  -0.003214   0.475984   0.001606  -0.000001  -0.000001
    10  C   -0.007012   0.001696   0.001606   6.001900   0.436281   0.413861
    11  H    0.002770   0.000010  -0.000001   0.436281   0.476191  -0.021739
    12  H    0.000213   0.000007  -0.000001   0.413861  -0.021739   0.490097
    13  H   -0.000207  -0.000016  -0.000002   0.396222  -0.023215  -0.026450
    14  N   -0.058515   0.008486  -0.050440  -0.057455   0.000696  -0.000704
    15  C   -0.009369   0.001166   0.029501  -0.005983   0.004267  -0.001052
    16  H    0.000670  -0.000012   0.000581  -0.001294  -0.000000  -0.000004
    17  H    0.005943   0.000013   0.000048   0.004773  -0.000001   0.000003
    18  C    0.005227   0.001187  -0.015150  -0.009074  -0.000450   0.000209
    19  H    0.000041   0.000051   0.005181   0.000590  -0.000000  -0.000000
    20  H   -0.000044  -0.000001  -0.000422  -0.000042  -0.000000  -0.000000
    21  C   -0.005931  -0.000438   0.000672   0.017574   0.000368  -0.000031
    22  H   -0.000009  -0.000002  -0.000065   0.000036  -0.000000  -0.000000
    23  H   -0.000040   0.000003   0.000077   0.000901  -0.000005  -0.000000
    24  C    0.003752   0.001384   0.004201  -0.007416   0.000556  -0.000047
    25  O    0.000255  -0.000695  -0.022784  -0.002257  -0.000033   0.000018
    26  O   -0.000040  -0.000048  -0.000366   0.002667  -0.000069  -0.000001
    27  O   -0.024294  -0.000047  -0.000115  -0.011450   0.002155  -0.000106
    28  H    0.001909   0.000015   0.000008   0.010047  -0.001517   0.000155
    29  H    0.001880   0.000011   0.000049   0.004500   0.000763   0.000009
              13         14         15         16         17         18
     1  C   -0.106631  -0.350610  -0.168875   0.005311   0.022457  -0.040723
     2  C   -0.080149   0.471154  -0.005860  -0.010623   0.025929   0.093401
     3  C    0.128706  -0.270448  -0.089814   0.004228  -0.013195  -0.040312
     4  C    0.011727   0.172226   0.081556  -0.001443   0.013258   0.062596
     5  C    0.015012   0.078610  -0.228835  -0.006473  -0.026261  -0.042280
     6  H    0.001417   0.000764   0.000321  -0.000001  -0.000004  -0.000058
     7  H   -0.000207  -0.058515  -0.009369   0.000670   0.005943   0.005227
     8  H   -0.000016   0.008486   0.001166  -0.000012   0.000013   0.001187
     9  H   -0.000002  -0.050440   0.029501   0.000581   0.000048  -0.015150
    10  C    0.396222  -0.057455  -0.005983  -0.001294   0.004773  -0.009074
    11  H   -0.023215   0.000696   0.004267  -0.000000  -0.000001  -0.000450
    12  H   -0.026450  -0.000704  -0.001052  -0.000004   0.000003   0.000209
    13  H    0.503763  -0.000413  -0.000130  -0.000001  -0.000004  -0.000042
    14  N   -0.000413   6.514379   0.143169  -0.053536  -0.072203  -0.023913
    15  C   -0.000130   0.143169   5.879875   0.436793   0.437584  -0.066926
    16  H   -0.000001  -0.053536   0.436793   0.499553  -0.024825  -0.034074
    17  H   -0.000004  -0.072203   0.437584  -0.024825   0.486051  -0.021067
    18  C   -0.000042  -0.023913  -0.066926  -0.034074  -0.021067   5.629040
    19  H   -0.000000  -0.005947  -0.057708  -0.003135   0.004858   0.487184
    20  H    0.000000   0.010410  -0.036214  -0.006057  -0.004358   0.419176
    21  C    0.000114  -0.045173  -0.107174   0.007096  -0.028564  -0.094011
    22  H   -0.000000   0.001911   0.013581  -0.000205   0.000232  -0.058994
    23  H    0.000000   0.000019   0.011325  -0.000339   0.000846  -0.043239
    24  C   -0.000179   0.051734   0.049951   0.002960   0.003321   0.108259
    25  O   -0.000062  -0.012446  -0.009039  -0.000775  -0.001332  -0.075943
    26  O    0.000039   0.004620   0.008944   0.000026   0.000056   0.017823
    27  O   -0.000660   0.060084  -0.014750   0.000082  -0.000142   0.010209
    28  H   -0.001402  -0.005528  -0.002608  -0.000011   0.000030   0.003620
    29  H   -0.000032   0.000409   0.007600  -0.000080  -0.000626  -0.007048
              19         20         21         22         23         24
     1  C    0.000837   0.001218   0.092448   0.005249  -0.017256  -0.001445
     2  C    0.003294   0.000291  -0.141035  -0.000979   0.005946  -0.004765
     3  C   -0.007026   0.001755   0.052833  -0.000147  -0.003178   0.008031
     4  C    0.019795  -0.007000  -0.136698   0.003015  -0.002252   0.033911
     5  C   -0.030337   0.007167   0.237705   0.003502  -0.007752  -0.179583
     6  H   -0.000000   0.000000   0.000204   0.000000   0.000000  -0.000245
     7  H    0.000041  -0.000044  -0.005931  -0.000009  -0.000040   0.003752
     8  H    0.000051  -0.000001  -0.000438  -0.000002   0.000003   0.001384
     9  H    0.005181  -0.000422   0.000672  -0.000065   0.000077   0.004201
    10  C    0.000590  -0.000042   0.017574   0.000036   0.000901  -0.007416
    11  H   -0.000000  -0.000000   0.000368  -0.000000  -0.000005   0.000556
    12  H   -0.000000  -0.000000  -0.000031  -0.000000  -0.000000  -0.000047
    13  H   -0.000000   0.000000   0.000114  -0.000000   0.000000  -0.000179
    14  N   -0.005947   0.010410  -0.045173   0.001911   0.000019   0.051734
    15  C   -0.057708  -0.036214  -0.107174   0.013581   0.011325   0.049951
    16  H   -0.003135  -0.006057   0.007096  -0.000205  -0.000339   0.002960
    17  H    0.004858  -0.004358  -0.028564   0.000232   0.000846   0.003321
    18  C    0.487184   0.419176  -0.094011  -0.058994  -0.043239   0.108259
    19  H    0.498790  -0.033110  -0.051573  -0.002200   0.004999   0.000909
    20  H   -0.033110   0.523560  -0.042171  -0.004944  -0.003977   0.010769
    21  C   -0.051573  -0.042171   5.928677   0.454874   0.445744  -0.204050
    22  H   -0.002200  -0.004944   0.454874   0.507484  -0.025756  -0.073855
    23  H    0.004999  -0.003977   0.445744  -0.025756   0.498952  -0.025791
    24  C    0.000909   0.010769  -0.204050  -0.073855  -0.025791   5.264247
    25  O   -0.006402   0.002311   0.028993   0.000138   0.006755   0.228483
    26  O   -0.000415  -0.001121  -0.181512   0.005254  -0.017591   0.488742
    27  O   -0.000142   0.000083   0.001714   0.000067   0.001313  -0.017747
    28  H    0.000010  -0.000003  -0.004145   0.000000  -0.000007  -0.003423
    29  H    0.000011  -0.000026  -0.013654   0.000218  -0.000647   0.034558
              25         26         27         28         29
     1  C   -0.069903   0.029833  -0.158781  -0.009394   0.040534
     2  C   -0.002991  -0.024315   0.192112   0.033880  -0.044538
     3  C    0.044000  -0.004904  -0.155455  -0.010005   0.010160
     4  C   -0.165241  -0.011224   0.003117   0.011013   0.006121
     5  C    0.215606   0.009279   0.062006  -0.016726  -0.018819
     6  H   -0.000026  -0.000006   0.000123  -0.000032  -0.000006
     7  H    0.000255  -0.000040  -0.024294   0.001909   0.001880
     8  H   -0.000695  -0.000048  -0.000047   0.000015   0.000011
     9  H   -0.022784  -0.000366  -0.000115   0.000008   0.000049
    10  C   -0.002257   0.002667  -0.011450   0.010047   0.004500
    11  H   -0.000033  -0.000069   0.002155  -0.001517   0.000763
    12  H    0.000018  -0.000001  -0.000106   0.000155   0.000009
    13  H   -0.000062   0.000039  -0.000660  -0.001402  -0.000032
    14  N   -0.012446   0.004620   0.060084  -0.005528   0.000409
    15  C   -0.009039   0.008944  -0.014750  -0.002608   0.007600
    16  H   -0.000775   0.000026   0.000082  -0.000011  -0.000080
    17  H   -0.001332   0.000056  -0.000142   0.000030  -0.000626
    18  C   -0.075943   0.017823   0.010209   0.003620  -0.007048
    19  H   -0.006402  -0.000415  -0.000142   0.000010   0.000011
    20  H    0.002311  -0.001121   0.000083  -0.000003  -0.000026
    21  C    0.028993  -0.181512   0.001714  -0.004145  -0.013654
    22  H    0.000138   0.005254   0.000067   0.000000   0.000218
    23  H    0.006755  -0.017591   0.001313  -0.000007  -0.000647
    24  C    0.228483   0.488742  -0.017747  -0.003423   0.034558
    25  O    8.450040  -0.082712   0.003953  -0.000460  -0.006484
    26  O   -0.082712   8.296984  -0.037750   0.002750   0.069988
    27  O    0.003953  -0.037750   8.011457   0.320072   0.271250
    28  H   -0.000460   0.002750   0.320072   0.431148  -0.012881
    29  H   -0.006484   0.069988   0.271250  -0.012881   0.341010
 Mulliken charges:
               1
     1  C   -0.817478
     2  C    0.908779
     3  C   -0.304286
     4  C    0.072298
     5  C   -0.264736
     6  H    0.157989
     7  H    0.191147
     8  H    0.152488
     9  H    0.182304
    10  C   -0.789226
    11  H    0.196131
    12  H    0.194825
    13  H    0.182596
    14  N    0.488662
    15  C   -0.301297
    16  H    0.185588
    17  H    0.187178
    18  C   -0.264628
    19  H    0.171445
    20  H    0.162749
    21  C   -0.212857
    22  H    0.171596
    23  H    0.170948
    24  C    0.222776
    25  O   -0.520963
    26  O   -0.574928
    27  O   -0.518356
    28  H    0.253485
    29  H    0.315772
 Sum of Mulliken charges =  -0.00000
 Mulliken charges with hydrogens summed into heavy atoms:
               1
     1  C   -0.626331
     2  C    0.908779
     3  C   -0.146297
     4  C    0.224786
     5  C   -0.082432
    10  C   -0.215674
    14  N    0.488662
    15  C    0.071469
    18  C    0.069566
    21  C    0.129687
    24  C    0.222776
    25  O   -0.520963
    26  O   -0.574928
    27  O    0.050900
         Mulliken charges condensed to fragments:
      1     -0.050900
      2      0.050900
 Electronic spatial extent (au):  <R**2>=         112203.0861
 Charge=             -0.0000 electrons
 Dipole moment (field-independent basis, Debye):
    X=             -8.8358    Y=             -2.2966    Z=              4.0962  Tot=             10.0063
 Quadrupole moment (field-independent basis, Debye-Ang):
   XX=           -267.3333   YY=           -126.7963   ZZ=              1.3918
   XY=           -115.5634   XZ=            -32.4274   YZ=             11.9082
 Traceless Quadrupole moment (field-independent basis, Debye-Ang):
   XX=           -136.4207   YY=              4.1163   ZZ=            132.3044
   XY=           -115.5634   XZ=            -32.4274   YZ=             11.9082
 Octapole moment (field-independent basis, Debye-Ang**2):
  XXX=          -5438.0326  YYY=          -2946.5636  ZZZ=          -1173.3375  XYY=          -2262.3046
  XXY=          -2937.7591  XXZ=          -1954.9259  XZZ=           -601.9184  YZZ=           -275.2928
  YYZ=           -959.9999  XYZ=           -667.3847
 Hexadecapole moment (field-independent basis, Debye-Ang**3):
 XXXX=         -94264.0133 YYYY=         -51838.9582 ZZZZ=         -32430.4724 XXXY=         -56386.7421
 XXXZ=         -45604.8046 YYYX=         -40288.3388 YYYZ=         -26663.5047 ZZZX=         -17185.5363
 ZZZY=         -14053.9586 XXYY=         -41060.1340 XXZZ=         -21537.8293 YYZZ=         -13678.1481
 XXYZ=         -23020.2540 YYXZ=         -18301.3805 ZZXY=          -9506.5756
 N-N= 9.616734178399D+02 E-N=-3.488696118625D+03  KE= 6.675252048523D+02
 No NMR shielding tensors so no spin-rotation constants.
 Leave Link  601 at Mon Feb 20 01:34:56 2023, MaxMem=  6710886400 cpu:               3.2 elap:               0.2
 (Enter /data0/hywu0/study/g16/l122.exe)
 CPIOFr:  IOpCl= 0 IRwI=-1 IRwCP=  731 ICalc= -1 LCPTot=      337852 Len1MO=      885816 IndFrg=      337852
 CPIOFr:  IOpCl= 0 IRwI=-1 IRwCP=  731 ICalc=  0 LCPTot=      337852 Len1MO=      885816 IndFrg=     1223668
 Counterpoise: doing calculation for fragment   1 using the basis set of the full-system, NewBq=T
 Leave Link  122 at Mon Feb 20 01:34:56 2023, MaxMem=  6710886400 cpu:               0.3 elap:               0.0
 (Enter /data0/hywu0/study/g16/l301.exe)
 Basis read from rwf:  (5D, 7F)
 No pseudopotential information found on rwf file.
   468 basis functions,   708 primitive gaussians,   496 cartesian basis functions
    48 alpha electrons       48 beta electrons
       nuclear repulsion energy       809.4203504216 Hartrees.
 IExCor= 4336 DFT=T Ex+Corr=M062X ExCW=0 ScaHFX=  0.540000
 ScaDFX=  1.000000  1.000000  1.000000  1.000000 ScalE2=  1.000000  1.000000
 IRadAn=      5 IRanWt=     -1 IRanGd=            0 ICorTp=0 IEmpDi=131
 NAtoms=   29 NActive=   29 NUniq=   29 SFac= 1.00D+00 NAtFMM=   60 NAOKFM=F Big=F
 Integral buffers will be    131072 words long.
 Raffenetti 2 integral format.
 Two-electron integral symmetry is turned off.
 R6Disp:  Grimme-D3 Dispersion energy=       -0.0012184268 Hartrees.
 Nuclear repulsion after empirical dispersion term =      809.4191319948 Hartrees.
 No density basis found on file   718.
 Leave Link  301 at Mon Feb 20 01:34:56 2023, MaxMem=  6710886400 cpu:               1.4 elap:               0.1
 (Enter /data0/hywu0/study/g16/l302.exe)
 NPDir=0 NMtPBC=     1 NCelOv=     1 NCel=       1 NClECP=     1 NCelD=      1
         NCelK=      1 NCelE2=     1 NClLst=     1 CellRange=     0.0.
 One-electron integrals computed using PRISM.
 NBasis=   468 RedAO= T EigKep=  2.80D-06  NBF=   468
 NBsUse=   468 1.00D-06 EigRej= -1.00D+00 NBFU=   468
 Precomputing XC quadrature grid using
 IXCGrd= 4 IRadAn=           5 IRanWt=          -1 IRanGd=           0 AccXCQ= 0.00D+00.
 Generated NRdTot=       0 NPtTot=           0 NUsed=           0 NTot=          32
 NSgBfM=   496   496   496   496   496 MxSgAt=    29 MxSgA2=    29.
 Leave Link  302 at Mon Feb 20 01:34:56 2023, MaxMem=  6710886400 cpu:              11.8 elap:               0.5
 (Enter /data0/hywu0/study/g16/l303.exe)
 DipDrv:  MaxL=1.
 Leave Link  303 at Mon Feb 20 01:34:56 2023, MaxMem=  6710886400 cpu:               1.7 elap:               0.1
 (Enter /data0/hywu0/study/g16/l401.exe)
 ExpMin= 4.38D-02 ExpMax= 8.59D+03 ExpMxC= 1.30D+03 IAcc=3 IRadAn=         5 AccDes= 0.00D+00
 Harris functional with IExCor= 1009 and IRadAn=       5 diagonalized for initial guess.
 HarFok:  IExCor= 1009 AccDes= 0.00D+00 IRadAn=         5 IDoV= 1 UseB2=F ITyADJ=14
 ICtDFT=  3500011 ScaDFX=  1.000000  1.000000  1.000000  1.000000
 FoFCou: FMM=F IPFlag=           0 FMFlag=      100000 FMFlg1=           0
         NFxFlg=           0 DoJE=T BraDBF=F KetDBF=T FulRan=T
         wScrn=  0.000000 ICntrl=       500 IOpCl=  0 I1Cent=   200000004 NGrid=           0
         NMat0=    1 NMatS0=      1 NMatT0=    0 NMatD0=    1 NMtDS0=    0 NMtDT0=    0
 Symmetry not used in FoFCou.
 Harris En= -593.771405185036    
 JPrj=0 DoOrth=F DoCkMO=F.
 Leave Link  401 at Mon Feb 20 01:34:58 2023, MaxMem=  6710886400 cpu:              46.7 elap:               2.0
 (Enter /data0/hywu0/study/g16/l502.exe)
 Two-electron integral symmetry not used.
 Closed shell SCF:
 Using DIIS extrapolation, IDIIS=  1040.
 NGot=  6710886400 LenX=  6710378913 LenY=  6710132401
 Requested convergence on RMS density matrix=1.00D-08 within 128 cycles.
 Requested convergence on MAX density matrix=1.00D-06.
 Requested convergence on             energy=1.00D-06.
 No special actions if energy rises.
 Fock matrices will be formed incrementally for  20 cycles.

 Cycle   1  Pass 1  IDiag  1:
 FoFJK:  IHMeth= 1 ICntrl=       0 DoSepK=F KAlg= 0 I1Cent=           0 FoldK=F
 IRaf= 910000000 NMat=       1 IRICut=       1 DoRegI=T DoRafI=F ISym2E= 0 IDoP0=0 IntGTp=1.
 FoFCou: FMM=F IPFlag=           0 FMFlag=      100000 FMFlg1=           0
         NFxFlg=           0 DoJE=F BraDBF=F KetDBF=F FulRan=T
         wScrn=  0.000000 ICntrl=         0 IOpCl=  0 I1Cent=           0 NGrid=           0
         NMat0=    1 NMatS0=      1 NMatT0=    0 NMatD0=    1 NMtDS0=    0 NMtDT0=    0
 Symmetry not used in FoFCou.
 E= -593.570966475035    
 DIIS: error= 2.00D-02 at cycle   1 NSaved=   1.
 NSaved= 1 IEnMin= 1 EnMin= -593.570966475035     IErMin= 1 ErrMin= 2.00D-02
 ErrMax= 2.00D-02  0.00D+00 EMaxC= 1.00D-01 BMatC= 5.32D-01 BMatP= 5.32D-01
 IDIUse=3 WtCom= 8.00D-01 WtEn= 2.00D-01
 Coeff-Com:  0.100D+01
 Coeff-En:   0.100D+01
 Coeff:      0.100D+01
 Gap=     0.218 Goal=   None    Shift=    0.000
 GapD=    0.218 DampG=1.000 DampE=0.500 DampFc=0.5000 IDamp=-1.
 Damping current iteration by 5.00D-01
 RMSDP=5.05D-02 MaxDP=5.12D+00              OVMax= 7.86D-01

 Cycle   2  Pass 1  IDiag  1:
 RMSU=  2.40D-02    CP:  1.53D+00
 E= -593.553472031345     Delta-E=        0.017494443689 Rises=F Damp=T
 DIIS: error= 9.63D-03 at cycle   2 NSaved=   2.
 NSaved= 2 IEnMin= 1 EnMin= -593.570966475035     IErMin= 2 ErrMin= 9.63D-03
 ErrMax= 9.63D-03  0.00D+00 EMaxC= 1.00D-01 BMatC= 1.15D-01 BMatP= 5.32D-01
 IDIUse=3 WtCom= 9.04D-01 WtEn= 9.63D-02
 Coeff-Com:  0.195D+00 0.805D+00
 Coeff-En:   0.521D+00 0.479D+00
 Coeff:      0.227D+00 0.773D+00
 Gap=    -0.053 Goal=   None    Shift=    0.000
 RMSDP=2.54D-02 MaxDP=2.59D+00 DE= 1.75D-02 OVMax= 6.55D-01

 Cycle   3  Pass 1  IDiag  1:
 RMSU=  3.89D-03    CP:  8.78D-01  3.61D-02
 E= -593.859426315625     Delta-E=       -0.305954284280 Rises=F Damp=F
 DIIS: error= 1.22D-02 at cycle   3 NSaved=   3.
 NSaved= 3 IEnMin= 3 EnMin= -593.859426315625     IErMin= 2 ErrMin= 9.63D-03
 ErrMax= 1.22D-02  0.00D+00 EMaxC= 1.00D-01 BMatC= 1.30D-01 BMatP= 1.15D-01
 IDIUse=2 WtCom= 0.00D+00 WtEn= 1.00D+00
 Coeff-En:   0.000D+00 0.167D-01 0.983D+00
 Coeff:      0.000D+00 0.167D-01 0.983D+00
 Gap=     0.269 Goal=   None    Shift=    0.000
 RMSDP=9.80D-03 MaxDP=1.83D+00 DE=-3.06D-01 OVMax= 7.47D-01

 Cycle   4  Pass 1  IDiag  1:
 RMSU=  9.04D-03    CP:  1.08D+00  1.27D-01  1.11D+00
 E= -591.964623367559     Delta-E=        1.894802948066 Rises=F Damp=F
 DIIS: error= 3.56D-02 at cycle   4 NSaved=   4.
 NSaved= 4 IEnMin= 3 EnMin= -593.859426315625     IErMin= 2 ErrMin= 9.63D-03
 ErrMax= 3.56D-02  0.00D+00 EMaxC= 1.00D-01 BMatC= 1.37D+00 BMatP= 1.15D-01
 IDIUse=2 WtCom= 0.00D+00 WtEn= 1.00D+00
 Coeff-En:   0.000D+00 0.000D+00 0.912D+00 0.877D-01
 Coeff:      0.000D+00 0.000D+00 0.912D+00 0.877D-01
 Gap=     0.082 Goal=   None    Shift=    0.000
 RMSDP=8.38D-03 MaxDP=1.33D+00 DE= 1.89D+00 OVMax= 9.82D-01

 Cycle   5  Pass 1  IDiag  1:
 RMSU=  3.58D-03    CP:  1.03D+00  9.75D-02  1.04D+00  1.72D-01
 E= -593.926944880319     Delta-E=       -1.962321512760 Rises=F Damp=F
 DIIS: error= 7.57D-03 at cycle   5 NSaved=   5.
 NSaved= 5 IEnMin= 5 EnMin= -593.926944880319     IErMin= 5 ErrMin= 7.57D-03
 ErrMax= 7.57D-03  0.00D+00 EMaxC= 1.00D-01 BMatC= 6.85D-02 BMatP= 1.15D-01
 IDIUse=3 WtCom= 9.24D-01 WtEn= 7.57D-02
 Coeff-Com:  0.934D-02 0.582D-01 0.426D+00 0.152D-01 0.491D+00
 Coeff-En:   0.000D+00 0.000D+00 0.305D+00 0.000D+00 0.695D+00
 Coeff:      0.864D-02 0.538D-01 0.417D+00 0.140D-01 0.506D+00
 Gap=     0.167 Goal=   None    Shift=    0.000
 RMSDP=2.13D-03 MaxDP=2.31D-01 DE=-1.96D+00 OVMax= 8.43D-02

 Cycle   6  Pass 1  IDiag  1:
 RMSU=  1.02D-03    CP:  9.59D-01  6.31D-02  1.08D+00  1.56D-01  6.25D-01
 E= -593.975776993285     Delta-E=       -0.048832112966 Rises=F Damp=F
 DIIS: error= 1.91D-03 at cycle   6 NSaved=   6.
 NSaved= 6 IEnMin= 6 EnMin= -593.975776993285     IErMin= 6 ErrMin= 1.91D-03
 ErrMax= 1.91D-03  0.00D+00 EMaxC= 1.00D-01 BMatC= 3.59D-03 BMatP= 6.85D-02
 IDIUse=3 WtCom= 9.81D-01 WtEn= 1.91D-02
 Coeff-Com: -0.602D-02 0.415D-02 0.130D+00 0.467D-02 0.260D+00 0.607D+00
 Coeff-En:   0.000D+00 0.000D+00 0.000D+00 0.000D+00 0.000D+00 0.100D+01
 Coeff:     -0.590D-02 0.407D-02 0.128D+00 0.458D-02 0.255D+00 0.615D+00
 Gap=     0.169 Goal=   None    Shift=    0.000
 RMSDP=3.98D-04 MaxDP=7.31D-02 DE=-4.88D-02 OVMax= 1.97D-02

 Cycle   7  Pass 1  IDiag  1:
 RMSU=  2.27D-04    CP:  9.72D-01  6.55D-02  1.09D+00  1.74D-01  6.73D-01
                    CP:  1.06D+00
 E= -593.978729569632     Delta-E=       -0.002952576348 Rises=F Damp=F
 DIIS: error= 4.15D-04 at cycle   7 NSaved=   7.
 NSaved= 7 IEnMin= 7 EnMin= -593.978729569632     IErMin= 7 ErrMin= 4.15D-04
 ErrMax= 4.15D-04  0.00D+00 EMaxC= 1.00D-01 BMatC= 1.72D-04 BMatP= 3.59D-03
 IDIUse=3 WtCom= 9.96D-01 WtEn= 4.15D-03
 Coeff-Com: -0.423D-02 0.179D-02-0.172D-01 0.930D-03 0.526D-02 0.217D+00
 Coeff-Com:  0.797D+00
 Coeff-En:   0.000D+00 0.000D+00 0.000D+00 0.000D+00 0.000D+00 0.000D+00
 Coeff-En:   0.100D+01
 Coeff:     -0.421D-02 0.178D-02-0.172D-01 0.926D-03 0.524D-02 0.216D+00
 Coeff:      0.797D+00
 Gap=     0.173 Goal=   None    Shift=    0.000
 RMSDP=1.40D-04 MaxDP=1.68D-02 DE=-2.95D-03 OVMax= 8.43D-03

 Cycle   8  Pass 1  IDiag  1:
 RMSU=  8.26D-05    CP:  9.71D-01  6.41D-02  1.10D+00  1.77D-01  6.78D-01
                    CP:  1.16D+00  1.08D+00
 E= -593.978921184478     Delta-E=       -0.000191614846 Rises=F Damp=F
 DIIS: error= 1.90D-04 at cycle   8 NSaved=   8.
 NSaved= 8 IEnMin= 8 EnMin= -593.978921184478     IErMin= 8 ErrMin= 1.90D-04
 ErrMax= 1.90D-04  0.00D+00 EMaxC= 1.00D-01 BMatC= 4.15D-05 BMatP= 1.72D-04
 IDIUse=3 WtCom= 9.98D-01 WtEn= 1.90D-03
 Coeff-Com: -0.169D-02 0.564D-03-0.205D-01 0.114D-02-0.211D-01 0.638D-01
 Coeff-Com:  0.421D+00 0.556D+00
 Coeff-En:   0.000D+00 0.000D+00 0.000D+00 0.000D+00 0.000D+00 0.000D+00
 Coeff-En:   0.000D+00 0.100D+01
 Coeff:     -0.169D-02 0.563D-03-0.205D-01 0.114D-02-0.211D-01 0.637D-01
 Coeff:      0.421D+00 0.557D+00
 Gap=     0.174 Goal=   None    Shift=    0.000
 RMSDP=5.14D-05 MaxDP=6.25D-03 DE=-1.92D-04 OVMax= 3.31D-03

 Cycle   9  Pass 1  IDiag  1:
 RMSU=  3.80D-05    CP:  9.71D-01  6.37D-02  1.10D+00  1.78D-01  6.79D-01
                    CP:  1.19D+00  1.14D+00  1.08D+00
 E= -593.978966585899     Delta-E=       -0.000045401421 Rises=F Damp=F
 DIIS: error= 7.42D-05 at cycle   9 NSaved=   9.
 NSaved= 9 IEnMin= 9 EnMin= -593.978966585899     IErMin= 9 ErrMin= 7.42D-05
 ErrMax= 7.42D-05  0.00D+00 EMaxC= 1.00D-01 BMatC= 4.38D-06 BMatP= 4.15D-05
 IDIUse=1 WtCom= 1.00D+00 WtEn= 0.00D+00
 Coeff-Com: -0.155D-03-0.233D-03-0.573D-02 0.528D-03-0.671D-02-0.133D-01
 Coeff-Com: -0.162D-01 0.155D+00 0.887D+00
 Coeff:     -0.155D-03-0.233D-03-0.573D-02 0.528D-03-0.671D-02-0.133D-01
 Coeff:     -0.162D-01 0.155D+00 0.887D+00
 Gap=     0.174 Goal=   None    Shift=    0.000
 RMSDP=3.76D-05 MaxDP=4.68D-03 DE=-4.54D-05 OVMax= 2.69D-03

 Cycle  10  Pass 1  IDiag  1:
 RMSU=  1.54D-05    CP:  9.71D-01  6.33D-02  1.10D+00  1.78D-01  6.80D-01
                    CP:  1.21D+00  1.18D+00  1.27D+00  1.34D+00
 E= -593.978975099747     Delta-E=       -0.000008513848 Rises=F Damp=F
 DIIS: error= 2.34D-05 at cycle  10 NSaved=  10.
 NSaved=10 IEnMin=10 EnMin= -593.978975099747     IErMin=10 ErrMin= 2.34D-05
 ErrMax= 2.34D-05  0.00D+00 EMaxC= 1.00D-01 BMatC= 6.84D-07 BMatP= 4.38D-06
 IDIUse=1 WtCom= 1.00D+00 WtEn= 0.00D+00
 Coeff-Com: -0.384D-05 0.377D-03-0.707D-03 0.532D-04-0.795D-03-0.132D-01
 Coeff-Com: -0.547D-01 0.148D-02 0.360D+00 0.707D+00
 Coeff:     -0.384D-05 0.377D-03-0.707D-03 0.532D-04-0.795D-03-0.132D-01
 Coeff:     -0.547D-01 0.148D-02 0.360D+00 0.707D+00
 Gap=     0.174 Goal=   None    Shift=    0.000
 RMSDP=1.30D-05 MaxDP=1.55D-03 DE=-8.51D-06 OVMax= 8.95D-04

 Cycle  11  Pass 1  IDiag  1:
 RMSU=  4.84D-06    CP:  9.71D-01  6.32D-02  1.10D+00  1.78D-01  6.80D-01
                    CP:  1.21D+00  1.20D+00  1.34D+00  1.47D+00  1.20D+00
 E= -593.978976236880     Delta-E=       -0.000001137133 Rises=F Damp=F
 DIIS: error= 9.07D-06 at cycle  11 NSaved=  11.
 NSaved=11 IEnMin=11 EnMin= -593.978976236880     IErMin=11 ErrMin= 9.07D-06
 ErrMax= 9.07D-06  0.00D+00 EMaxC= 1.00D-01 BMatC= 8.02D-08 BMatP= 6.84D-07
 IDIUse=1 WtCom= 1.00D+00 WtEn= 0.00D+00
 Coeff-Com:  0.112D-04-0.177D-04 0.492D-03 0.123D-04 0.743D-03-0.241D-02
 Coeff-Com: -0.187D-01-0.264D-01-0.879D-02 0.263D+00 0.792D+00
 Coeff:      0.112D-04-0.177D-04 0.492D-03 0.123D-04 0.743D-03-0.241D-02
 Coeff:     -0.187D-01-0.264D-01-0.879D-02 0.263D+00 0.792D+00
 Gap=     0.174 Goal=   None    Shift=    0.000
 RMSDP=5.94D-06 MaxDP=6.92D-04 DE=-1.14D-06 OVMax= 4.32D-04

 Cycle  12  Pass 1  IDiag  1:
 RMSU=  1.73D-06    CP:  9.71D-01  6.31D-02  1.10D+00  1.78D-01  6.81D-01
                    CP:  1.22D+00  1.20D+00  1.37D+00  1.54D+00  1.37D+00
                    CP:  1.07D+00
 E= -593.978976415172     Delta-E=       -0.000000178291 Rises=F Damp=F
 DIIS: error= 1.91D-06 at cycle  12 NSaved=  12.
 NSaved=12 IEnMin=12 EnMin= -593.978976415172     IErMin=12 ErrMin= 1.91D-06
 ErrMax= 1.91D-06  0.00D+00 EMaxC= 1.00D-01 BMatC= 7.24D-09 BMatP= 8.02D-08
 IDIUse=1 WtCom= 1.00D+00 WtEn= 0.00D+00
 Coeff-Com:  0.817D-05-0.256D-04 0.224D-03 0.839D-05 0.115D-03 0.833D-03
 Coeff-Com:  0.225D-02-0.448D-02-0.375D-01-0.382D-01 0.182D+00 0.894D+00
 Coeff:      0.817D-05-0.256D-04 0.224D-03 0.839D-05 0.115D-03 0.833D-03
 Coeff:      0.225D-02-0.448D-02-0.375D-01-0.382D-01 0.182D+00 0.894D+00
 Gap=     0.174 Goal=   None    Shift=    0.000
 RMSDP=1.85D-06 MaxDP=2.16D-04 DE=-1.78D-07 OVMax= 1.30D-04

 Cycle  13  Pass 1  IDiag  1:
 RMSU=  5.92D-07    CP:  9.71D-01  6.31D-02  1.10D+00  1.78D-01  6.81D-01
                    CP:  1.22D+00  1.20D+00  1.38D+00  1.56D+00  1.41D+00
                    CP:  1.20D+00  1.07D+00
 E= -593.978976431116     Delta-E=       -0.000000015944 Rises=F Damp=F
 DIIS: error= 7.41D-07 at cycle  13 NSaved=  13.
 NSaved=13 IEnMin=13 EnMin= -593.978976431116     IErMin=13 ErrMin= 7.41D-07
 ErrMax= 7.41D-07  0.00D+00 EMaxC= 1.00D-01 BMatC= 1.03D-09 BMatP= 7.24D-09
 IDIUse=1 WtCom= 1.00D+00 WtEn= 0.00D+00
 Coeff-Com:  0.406D-05-0.924D-05 0.590D-04-0.154D-05-0.384D-05 0.523D-03
 Coeff-Com:  0.238D-02 0.652D-03-0.132D-01-0.399D-01-0.586D-02 0.331D+00
 Coeff-Com:  0.724D+00
 Coeff:      0.406D-05-0.924D-05 0.590D-04-0.154D-05-0.384D-05 0.523D-03
 Coeff:      0.238D-02 0.652D-03-0.132D-01-0.399D-01-0.586D-02 0.331D+00
 Coeff:      0.724D+00
 Gap=     0.174 Goal=   None    Shift=    0.000
 RMSDP=4.13D-07 MaxDP=5.60D-05 DE=-1.59D-08 OVMax= 3.04D-05

 Cycle  14  Pass 1  IDiag  1:
 RMSU=  2.10D-07    CP:  9.71D-01  6.31D-02  1.10D+00  1.78D-01  6.81D-01
                    CP:  1.22D+00  1.20D+00  1.38D+00  1.56D+00  1.42D+00
                    CP:  1.22D+00  1.14D+00  1.17D+00
 E= -593.978976432971     Delta-E=       -0.000000001855 Rises=F Damp=F
 DIIS: error= 2.98D-07 at cycle  14 NSaved=  14.
 NSaved=14 IEnMin=14 EnMin= -593.978976432971     IErMin=14 ErrMin= 2.98D-07
 ErrMax= 2.98D-07  0.00D+00 EMaxC= 1.00D-01 BMatC= 1.43D-10 BMatP= 1.03D-09
 IDIUse=1 WtCom= 1.00D+00 WtEn= 0.00D+00
 Coeff-Com:  0.121D-05-0.619D-06-0.262D-06-0.109D-05-0.637D-05-0.838D-05
 Coeff-Com:  0.690D-04 0.794D-03 0.280D-02-0.335D-02-0.298D-01-0.624D-01
 Coeff-Com:  0.191D+00 0.901D+00
 Coeff:      0.121D-05-0.619D-06-0.262D-06-0.109D-05-0.637D-05-0.838D-05
 Coeff:      0.690D-04 0.794D-03 0.280D-02-0.335D-02-0.298D-01-0.624D-01
 Coeff:      0.191D+00 0.901D+00
 Gap=     0.174 Goal=   None    Shift=    0.000
 RMSDP=1.66D-07 MaxDP=1.35D-05 DE=-1.85D-09 OVMax= 1.45D-05

 Cycle  15  Pass 1  IDiag  1:
 RMSU=  8.25D-08    CP:  9.71D-01  6.31D-02  1.10D+00  1.78D-01  6.81D-01
                    CP:  1.22D+00  1.20D+00  1.38D+00  1.56D+00  1.42D+00
                    CP:  1.23D+00  1.17D+00  1.32D+00  1.11D+00
 E= -593.978976433320     Delta-E=       -0.000000000350 Rises=F Damp=F
 DIIS: error= 1.15D-07 at cycle  15 NSaved=  15.
 NSaved=15 IEnMin=15 EnMin= -593.978976433320     IErMin=15 ErrMin= 1.15D-07
 ErrMax= 1.15D-07  0.00D+00 EMaxC= 1.00D-01 BMatC= 1.93D-11 BMatP= 1.43D-10
 IDIUse=1 WtCom= 1.00D+00 WtEn= 0.00D+00
 Coeff-Com: -0.217D-06 0.152D-05-0.525D-05-0.400D-06-0.770D-06-0.645D-04
 Coeff-Com: -0.260D-03 0.226D-03 0.256D-02 0.376D-02-0.923D-02-0.609D-01
 Coeff-Com: -0.238D-01 0.308D+00 0.780D+00
 Coeff:     -0.217D-06 0.152D-05-0.525D-05-0.400D-06-0.770D-06-0.645D-04
 Coeff:     -0.260D-03 0.226D-03 0.256D-02 0.376D-02-0.923D-02-0.609D-01
 Coeff:     -0.238D-01 0.308D+00 0.780D+00
 Gap=     0.174 Goal=   None    Shift=    0.000
 RMSDP=5.99D-08 MaxDP=7.80D-06 DE=-3.50D-10 OVMax= 4.99D-06

 Cycle  16  Pass 1  IDiag  1:
 RMSU=  3.32D-08    CP:  9.71D-01  6.31D-02  1.10D+00  1.78D-01  6.81D-01
                    CP:  1.22D+00  1.20D+00  1.38D+00  1.56D+00  1.42D+00
                    CP:  1.23D+00  1.16D+00  1.36D+00  1.21D+00  1.12D+00
 E= -593.978976433390     Delta-E=       -0.000000000070 Rises=F Damp=F
 DIIS: error= 4.41D-08 at cycle  16 NSaved=  16.
 NSaved=16 IEnMin=16 EnMin= -593.978976433390     IErMin=16 ErrMin= 4.41D-08
 ErrMax= 4.41D-08  0.00D+00 EMaxC= 1.00D-01 BMatC= 2.75D-12 BMatP= 1.93D-11
 IDIUse=1 WtCom= 1.00D+00 WtEn= 0.00D+00
 Coeff-Com: -0.260D-06 0.180D-06-0.234D-05-0.238D-08 0.129D-05-0.159D-04
 Coeff-Com: -0.862D-04-0.493D-04 0.267D-03 0.185D-02 0.180D-02-0.887D-02
 Coeff-Com: -0.409D-01-0.476D-01 0.256D+00 0.838D+00
 Coeff:     -0.260D-06 0.180D-06-0.234D-05-0.238D-08 0.129D-05-0.159D-04
 Coeff:     -0.862D-04-0.493D-04 0.267D-03 0.185D-02 0.180D-02-0.887D-02
 Coeff:     -0.409D-01-0.476D-01 0.256D+00 0.838D+00
 Gap=     0.174 Goal=   None    Shift=    0.000
 RMSDP=2.08D-08 MaxDP=2.26D-06 DE=-7.00D-11 OVMax= 2.19D-06

 Cycle  17  Pass 1  IDiag  1:
 RMSU=  1.15D-08    CP:  9.71D-01  6.31D-02  1.10D+00  1.78D-01  6.81D-01
                    CP:  1.22D+00  1.20D+00  1.38D+00  1.56D+00  1.42D+00
                    CP:  1.23D+00  1.16D+00  1.37D+00  1.23D+00  1.24D+00
                    CP:  1.16D+00
 E= -593.978976433371     Delta-E=        0.000000000019 Rises=F Damp=F
 DIIS: error= 1.20D-08 at cycle  17 NSaved=  17.
 NSaved=17 IEnMin=16 EnMin= -593.978976433390     IErMin=17 ErrMin= 1.20D-08
 ErrMax= 1.20D-08  0.00D+00 EMaxC= 1.00D-01 BMatC= 1.92D-13 BMatP= 2.75D-12
 IDIUse=1 WtCom= 1.00D+00 WtEn= 0.00D+00
 Coeff-Com: -0.640D-07 0.226D-06-0.586D-06 0.238D-08-0.553D-06 0.334D-05
 Coeff-Com:  0.164D-04-0.254D-04-0.210D-03-0.124D-04 0.115D-02 0.504D-02
 Coeff-Com: -0.557D-02-0.422D-01-0.383D-01 0.157D+00 0.923D+00
 Coeff:     -0.640D-07 0.226D-06-0.586D-06 0.238D-08-0.553D-06 0.334D-05
 Coeff:      0.164D-04-0.254D-04-0.210D-03-0.124D-04 0.115D-02 0.504D-02
 Coeff:     -0.557D-02-0.422D-01-0.383D-01 0.157D+00 0.923D+00
 Gap=     0.174 Goal=   None    Shift=    0.000
 RMSDP=7.79D-09 MaxDP=5.58D-07 DE= 1.91D-11 OVMax= 6.85D-07

 SCF Done:  E(RM062X) =  -593.978976433     A.U. after   17 cycles
            NFock= 17  Conv=0.78D-08     -V/T= 2.0046
 KE= 5.912620067806D+02 PE=-3.003273325968D+03 EE= 1.008613210760D+03
 Leave Link  502 at Mon Feb 20 01:36:45 2023, MaxMem=  6710886400 cpu:            2546.9 elap:             106.6
 (Enter /data0/hywu0/study/g16/l601.exe)
 Copying SCF densities to generalized density rwf, IOpCl= 0 IROHF=0.

 **********************************************************************

            Population analysis using the SCF density.

 **********************************************************************

 Alpha  occ. eigenvalues --  -19.50849 -19.49496 -14.88641 -10.64992 -10.64882
 Alpha  occ. eigenvalues --  -10.62274 -10.61082 -10.60875 -10.59856 -10.57373
 Alpha  occ. eigenvalues --  -10.56627 -10.54764 -10.50626  -1.15969  -1.09651
 Alpha  occ. eigenvalues --   -0.99765  -0.98600  -0.93360  -0.89946  -0.84379
 Alpha  occ. eigenvalues --   -0.81521  -0.76860  -0.74732  -0.68961  -0.65006
 Alpha  occ. eigenvalues --   -0.62896  -0.59640  -0.58651  -0.56343  -0.54810
 Alpha  occ. eigenvalues --   -0.54163  -0.53101  -0.50361  -0.49724  -0.48662
 Alpha  occ. eigenvalues --   -0.47816  -0.47318  -0.46303  -0.44328  -0.43771
 Alpha  occ. eigenvalues --   -0.41765  -0.40208  -0.39023  -0.37255  -0.35038
 Alpha  occ. eigenvalues --   -0.26172  -0.25637  -0.24401
 Alpha virt. eigenvalues --   -0.07015  -0.03142  -0.01138   0.00257   0.00536
 Alpha virt. eigenvalues --    0.01847   0.02259   0.02473   0.03904   0.04527
 Alpha virt. eigenvalues --    0.04750   0.05269   0.05788   0.06448   0.07686
 Alpha virt. eigenvalues --    0.08262   0.08335   0.08474   0.09700   0.10390
 Alpha virt. eigenvalues --    0.10658   0.11397   0.11782   0.11855   0.12934
 Alpha virt. eigenvalues --    0.12969   0.13434   0.13530   0.14242   0.14939
 Alpha virt. eigenvalues --    0.15149   0.15521   0.16360   0.16650   0.17179
 Alpha virt. eigenvalues --    0.17451   0.17580   0.18053   0.18749   0.18979
 Alpha virt. eigenvalues --    0.19191   0.19700   0.20087   0.20638   0.21139
 Alpha virt. eigenvalues --    0.21556   0.21937   0.22389   0.22792   0.23538
 Alpha virt. eigenvalues --    0.23839   0.24067   0.24731   0.25556   0.25876
 Alpha virt. eigenvalues --    0.26378   0.27352   0.27714   0.28105   0.28598
 Alpha virt. eigenvalues --    0.28891   0.29384   0.29878   0.30575   0.31293
 Alpha virt. eigenvalues --    0.31727   0.31916   0.32630   0.33953   0.34759
 Alpha virt. eigenvalues --    0.35073   0.35585   0.36797   0.37089   0.38304
 Alpha virt. eigenvalues --    0.38791   0.40067   0.41335   0.41692   0.42284
 Alpha virt. eigenvalues --    0.42659   0.43549   0.45000   0.46388   0.47030
 Alpha virt. eigenvalues --    0.47650   0.47916   0.48391   0.49763   0.50894
 Alpha virt. eigenvalues --    0.52186   0.52567   0.53502   0.54177   0.54983
[...]
     7  H    0.158453
     8  H    0.155834
     9  H    0.184615
    10  C   -0.857637
    11  H    0.172672
    12  H    0.190915
    13  H    0.182693
    14  N    0.487720
    15  C   -0.352710
    16  H    0.186387
    17  H    0.173764
    18  C   -0.237966
    19  H    0.169815
    20  H    0.160587
    21  C   -0.220671
    22  H    0.164844
    23  H    0.163820
    24  C    0.214050
    25  O   -0.547281
    26  O   -0.542070
    27  O    0.000000
    28  H    0.000000
    29  H    0.000000
 Sum of Mulliken charges =  -0.00000
 Mulliken charges with hydrogens summed into heavy atoms:
               1
     1  C   -0.337400
     2  C    0.814592
     3  C   -0.152703
     4  C    0.260053
     5  C   -0.093472
    10  C   -0.311358
    14  N    0.487720
    15  C    0.007441
    18  C    0.092436
    21  C    0.107993
    24  C    0.214050
    25  O   -0.547281
    26  O   -0.542070
    27  O    0.000000
         Mulliken charges condensed to fragments:
      1     -0.000000
      2      0.000000
 Electronic spatial extent (au):  <R**2>=         103699.4816
 Charge=             -0.0000 electrons
 Dipole moment (field-independent basis, Debye):
    X=            -10.0792    Y=             -3.8800    Z=              4.0690  Tot=             11.5412
 Quadrupole moment (field-independent basis, Debye-Ang):
   XX=           -288.1514   YY=           -145.5688   ZZ=              7.3359
   XY=           -143.8550   XZ=            -44.2948   YZ=              0.5718
 Traceless Quadrupole moment (field-independent basis, Debye-Ang):
   XX=           -146.0233   YY=             -3.4407   ZZ=            149.4640
   XY=           -143.8550   XZ=            -44.2948   YZ=              0.5718
 Octapole moment (field-independent basis, Debye-Ang**2):
  XXX=          -5686.7528  YYY=          -3088.4966  ZZZ=          -1031.8382  XYY=          -2570.8107
  XXY=          -3312.6984  XXZ=          -2161.3721  XZZ=           -648.1524  YZZ=           -302.1970
  YYZ=          -1087.1105  XYZ=           -895.9450
 Hexadecapole moment (field-independent basis, Debye-Ang**3):
 XXXX=         -96688.9959 YYYY=         -52398.0491 ZZZZ=         -30239.0027 XXXY=         -60717.7538
 XXXZ=         -48253.3127 YYYX=         -42864.1970 YYYZ=         -27510.3119 ZZZX=         -16732.6672
 ZZZY=         -13378.9113 XXYY=         -45087.2341 XXZZ=         -22865.8461 YYZZ=         -14062.4096
 XXYZ=         -26232.6552 YYXZ=         -20691.0432 ZZXY=         -10826.2466
 N-N= 8.094191319948D+02 E-N=-3.003274230696D+03  KE= 5.912648794099D+02
 No NMR shielding tensors so no spin-rotation constants.
 Leave Link  601 at Mon Feb 20 01:39:05 2023, MaxMem=  6710886400 cpu:               2.8 elap:               0.2
 (Enter /data0/hywu0/study/g16/l122.exe)
 CPIOFr:  IOpCl= 0 IRwI=-1 IRwCP=  731 ICalc=  3 LCPTot=      337852 Len1MO=      885816 IndFrg=     3881116
 Counterpoise: doing calculation for fragment   2 using the basis set of the fragment.
 Leave Link  122 at Mon Feb 20 01:39:05 2023, MaxMem=  6710886400 cpu:               0.3 elap:               0.0
 (Enter /data0/hywu0/study/g16/l301.exe)
 Basis read from rwf:  (5D, 7F)
 No pseudopotential information found on rwf file.
    39 basis functions,    58 primitive gaussians,    41 cartesian basis functions
     5 alpha electrons        5 beta electrons
       nuclear repulsion energy         9.0861400280 Hartrees.
 IExCor= 4336 DFT=T Ex+Corr=M062X ExCW=0 ScaHFX=  0.540000
 ScaDFX=  1.000000  1.000000  1.000000  1.000000 ScalE2=  1.000000  1.000000
 IRadAn=      5 IRanWt=     -1 IRanGd=            0 ICorTp=0 IEmpDi=131
 NAtoms=   29 NActive=    3 NUniq=    3 SFac= 1.00D+00 NAtFMM=   60 NAOKFM=F Big=F
 Integral buffers will be    131072 words long.
 Raffenetti 2 integral format.
 Two-electron integral symmetry is turned off.
 R6Disp:  Grimme-D3 Dispersion energy=       -0.0000000070 Hartrees.
 Nuclear repulsion after empirical dispersion term =        9.0861400210 Hartrees.
 No density basis found on file   718.
 Leave Link  301 at Mon Feb 20 01:39:05 2023, MaxMem=  6710886400 cpu:               1.3 elap:               0.1
 (Enter /data0/hywu0/study/g16/l302.exe)
 NPDir=0 NMtPBC=     1 NCelOv=     1 NCel=       1 NClECP=     1 NCelD=      1
         NCelK=      1 NCelE2=     1 NClLst=     1 CellRange=     0.0.
 One-electron integrals computed using PRISM.
 NBasis=    39 RedAO= T EigKep=  2.97D-03  NBF=    39
 NBsUse=    39 1.00D-06 EigRej= -1.00D+00 NBFU=    39
 Precomputing XC quadrature grid using
 IXCGrd= 4 IRadAn=           5 IRanWt=          -1 IRanGd=           0 AccXCQ= 0.00D+00.
 Generated NRdTot=       0 NPtTot=           0 NUsed=           0 NTot=          32
 NSgBfM=    41    41    41    41    41 MxSgAt=     3 MxSgA2=     3.
 Leave Link  302 at Mon Feb 20 01:39:05 2023, MaxMem=  6710886400 cpu:               2.6 elap:               0.1
 (Enter /data0/hywu0/study/g16/l303.exe)
 DipDrv:  MaxL=1.
 Leave Link  303 at Mon Feb 20 01:39:05 2023, MaxMem=  6710886400 cpu:               1.2 elap:               0.1
 (Enter /data0/hywu0/study/g16/l401.exe)
 ExpMin= 8.45D-02 ExpMax= 8.59D+03 ExpMxC= 1.30D+03 IAcc=3 IRadAn=         5 AccDes= 0.00D+00
 Harris functional with IExCor= 1009 and IRadAn=       5 diagonalized for initial guess.
 HarFok:  IExCor= 1009 AccDes= 0.00D+00 IRadAn=         5 IDoV= 1 UseB2=F ITyADJ=14
 ICtDFT=  3500011 ScaDFX=  1.000000  1.000000  1.000000  1.000000
 FoFCou: FMM=F IPFlag=           0 FMFlag=      100000 FMFlg1=           0
         NFxFlg=           0 DoJE=T BraDBF=F KetDBF=T FulRan=T
         wScrn=  0.000000 ICntrl=       500 IOpCl=  0 I1Cent=   200000004 NGrid=           0
         NMat0=    1 NMatS0=      1 NMatT0=    0 NMatD0=    1 NMtDS0=    0 NMtDT0=    0
 Symmetry not used in FoFCou.
 Harris En= -76.4160211961580    
 JPrj=0 DoOrth=F DoCkMO=F.
 Leave Link  401 at Mon Feb 20 01:39:06 2023, MaxMem=  6710886400 cpu:               2.9 elap:               0.1
 (Enter /data0/hywu0/study/g16/l502.exe)
 Keep R1 ints in memory in canonical form, NReq=21041686.
 FoFCou: FMM=F IPFlag=           0 FMFlag=           0 FMFlg1=           0
         NFxFlg=           0 DoJE=F BraDBF=F KetDBF=F FulRan=T
         wScrn=  0.000000 ICntrl=       600 IOpCl=  0 I1Cent=           0 NGrid=           0
         NMat0=    1 NMatS0=    780 NMatT0=    0 NMatD0=    1 NMtDS0=    0 NMtDT0=    0
 Symmetry not used in FoFCou.
 Two-electron integral symmetry not used.
 Closed shell SCF:
 Using DIIS extrapolation, IDIIS=  1040.
 NGot=  6710886400 LenX=  6710576188 LenY=  6710574066
 Requested convergence on RMS density matrix=1.00D-08 within 128 cycles.
 Requested convergence on MAX density matrix=1.00D-06.
 Requested convergence on             energy=1.00D-06.
 No special actions if energy rises.
 Integral accuracy reduced to 1.0D-05 until final iterations.

 Cycle   1  Pass 0  IDiag  1:
 E= -76.3467387837998    
 DIIS: error= 6.96D-02 at cycle   1 NSaved=   1.
 NSaved= 1 IEnMin= 1 EnMin= -76.3467387837998     IErMin= 1 ErrMin= 6.96D-02
 ErrMax= 6.96D-02  0.00D+00 EMaxC= 1.00D-01 BMatC= 1.20D-01 BMatP= 1.20D-01
 IDIUse=3 WtCom= 3.04D-01 WtEn= 6.96D-01
 Coeff-Com:  0.100D+01
 Coeff-En:   0.100D+01
 Coeff:      0.100D+01
 Gap=     0.325 Goal=   None    Shift=    0.000
 GapD=    0.325 DampG=1.000 DampE=0.500 DampFc=0.5000 IDamp=-1.
 Damping current iteration by 5.00D-01
 RMSDP=8.02D-03 MaxDP=1.00D-01              OVMax= 1.67D-01

 Cycle   2  Pass 0  IDiag  1:
 E= -76.3778666515227     Delta-E=       -0.031127867723 Rises=F Damp=T
 DIIS: error= 1.12D-02 at cycle   2 NSaved=   2.
 NSaved= 2 IEnMin= 2 EnMin= -76.3778666515227     IErMin= 2 ErrMin= 1.12D-02
 ErrMax= 1.12D-02  0.00D+00 EMaxC= 1.00D-01 BMatC= 4.85D-03 BMatP= 1.20D-01
 IDIUse=3 WtCom= 8.88D-01 WtEn= 1.12D-01
 Coeff-Com:  0.838D-01 0.916D+00
 Coeff-En:   0.190D+00 0.810D+00
 Coeff:      0.957D-01 0.904D+00
 Gap=     0.457 Goal=   None    Shift=    0.000
 RMSDP=9.56D-04 MaxDP=1.42D-02 DE=-3.11D-02 OVMax= 1.00D-01

 Cycle   3  Pass 0  IDiag  1:
 E= -76.4215600038063     Delta-E=       -0.043693352284 Rises=F Damp=F
 DIIS: error= 2.15D-03 at cycle   3 NSaved=   3.
 NSaved= 3 IEnMin= 3 EnMin= -76.4215600038063     IErMin= 3 ErrMin= 2.15D-03
 ErrMax= 2.15D-03  0.00D+00 EMaxC= 1.00D-01 BMatC= 8.98D-05 BMatP= 4.85D-03
 IDIUse=3 WtCom= 9.79D-01 WtEn= 2.15D-02
 Coeff-Com: -0.199D-01 0.388D-01 0.981D+00
 Coeff-En:   0.000D+00 0.000D+00 0.100D+01
 Coeff:     -0.195D-01 0.379D-01 0.982D+00
 Gap=     0.461 Goal=   None    Shift=    0.000
 RMSDP=1.14D-04 MaxDP=1.00D-03 DE=-4.37D-02 OVMax= 3.32D-03

 Cycle   4  Pass 0  IDiag  1:
 E= -76.4216368363045     Delta-E=       -0.000076832498 Rises=F Damp=F
 DIIS: error= 4.14D-04 at cycle   4 NSaved=   4.
 NSaved= 4 IEnMin= 4 EnMin= -76.4216368363045     IErMin= 4 ErrMin= 4.14D-04
 ErrMax= 4.14D-04  0.00D+00 EMaxC= 1.00D-01 BMatC= 3.23D-06 BMatP= 8.98D-05
 IDIUse=3 WtCom= 9.96D-01 WtEn= 4.14D-03
 Coeff-Com: -0.184D-02-0.235D-02 0.160D+00 0.844D+00
 Coeff-En:   0.000D+00 0.000D+00 0.000D+00 0.100D+01
 Coeff:     -0.184D-02-0.234D-02 0.159D+00 0.845D+00
 Gap=     0.462 Goal=   None    Shift=    0.000
 RMSDP=2.22D-05 MaxDP=3.56D-04 DE=-7.68D-05 OVMax= 5.40D-04

 Cycle   5  Pass 0  IDiag  1:
 E= -76.4216388486383     Delta-E=       -0.000002012334 Rises=F Damp=F
 DIIS: error= 8.82D-05 at cycle   5 NSaved=   5.
 NSaved= 5 IEnMin= 5 EnMin= -76.4216388486383     IErMin= 5 ErrMin= 8.82D-05
 ErrMax= 8.82D-05  0.00D+00 EMaxC= 1.00D-01 BMatC= 8.17D-08 BMatP= 3.23D-06
 IDIUse=1 WtCom= 1.00D+00 WtEn= 0.00D+00
 Coeff-Com:  0.118D-02-0.180D-02-0.370D-01-0.605D-01 0.110D+01
 Coeff:      0.118D-02-0.180D-02-0.370D-01-0.605D-01 0.110D+01
 Gap=     0.462 Goal=   None    Shift=    0.000
 RMSDP=9.00D-06 MaxDP=1.01D-04 DE=-2.01D-06 OVMax= 2.03D-04

 Initial convergence to 1.0D-05 achieved.  Increase integral accuracy.
 Cycle   6  Pass 1  IDiag  1:
 E= -76.4216309387768     Delta-E=        0.000007909861 Rises=F Damp=F
 DIIS: error= 1.51D-05 at cycle   1 NSaved=   1.
 NSaved= 1 IEnMin= 1 EnMin= -76.4216309387768     IErMin= 1 ErrMin= 1.51D-05
 ErrMax= 1.51D-05  0.00D+00 EMaxC= 1.00D-01 BMatC= 1.29D-08 BMatP= 1.29D-08
 IDIUse=1 WtCom= 1.00D+00 WtEn= 0.00D+00
 Coeff-Com:  0.100D+01
 Coeff:      0.100D+01
 Gap=     0.462 Goal=   None    Shift=    0.000
 RMSDP=9.00D-06 MaxDP=1.01D-04 DE= 7.91D-06 OVMax= 4.70D-05

 Cycle   7  Pass 1  IDiag  1:
 E= -76.4216309490376     Delta-E=       -0.000000010261 Rises=F Damp=F
 DIIS: error= 1.22D-05 at cycle   2 NSaved=   2.
 NSaved= 2 IEnMin= 2 EnMin= -76.4216309490376     IErMin= 2 ErrMin= 1.22D-05
 ErrMax= 1.22D-05  0.00D+00 EMaxC= 1.00D-01 BMatC= 2.27D-09 BMatP= 1.29D-08
 IDIUse=1 WtCom= 1.00D+00 WtEn= 0.00D+00
 Coeff-Com:  0.166D+00 0.834D+00
 Coeff:      0.166D+00 0.834D+00
 Gap=     0.462 Goal=   None    Shift=    0.000
 RMSDP=9.14D-07 MaxDP=1.50D-05 DE=-1.03D-08 OVMax= 2.37D-05

 Cycle   8  Pass 1  IDiag  1:
 E= -76.4216309497857     Delta-E=       -0.000000000748 Rises=F Damp=F
 DIIS: error= 7.34D-06 at cycle   3 NSaved=   3.
 NSaved= 3 IEnMin= 3 EnMin= -76.4216309497857     IErMin= 3 ErrMin= 7.34D-06
 ErrMax= 7.34D-06  0.00D+00 EMaxC= 1.00D-01 BMatC= 1.45D-09 BMatP= 2.27D-09
 IDIUse=1 WtCom= 1.00D+00 WtEn= 0.00D+00
 Coeff-Com: -0.555D-01 0.452D+00 0.604D+00
 Coeff:     -0.555D-01 0.452D+00 0.604D+00
 Gap=     0.462 Goal=   None    Shift=    0.000
 RMSDP=4.30D-07 MaxDP=5.85D-06 DE=-7.48D-10 OVMax= 1.06D-05

 Cycle   9  Pass 1  IDiag  1:
 E= -76.4216309507570     Delta-E=       -0.000000000971 Rises=F Damp=F
 DIIS: error= 5.01D-07 at cycle   4 NSaved=   4.
 NSaved= 4 IEnMin= 4 EnMin= -76.4216309507570     IErMin= 4 ErrMin= 5.01D-07
 ErrMax= 5.01D-07  0.00D+00 EMaxC= 1.00D-01 BMatC= 3.79D-12 BMatP= 1.45D-09
 IDIUse=1 WtCom= 1.00D+00 WtEn= 0.00D+00
 Coeff-Com: -0.212D-02-0.187D-01-0.117D-01 0.103D+01
 Coeff:     -0.212D-02-0.187D-01-0.117D-01 0.103D+01
 Gap=     0.462 Goal=   None    Shift=    0.000
 RMSDP=6.89D-08 MaxDP=6.08D-07 DE=-9.71D-10 OVMax= 1.46D-06

 Cycle  10  Pass 1  IDiag  1:
 E= -76.4216309507644     Delta-E=       -0.000000000007 Rises=F Damp=F
 DIIS: error= 8.92D-08 at cycle   5 NSaved=   5.
 NSaved= 5 IEnMin= 5 EnMin= -76.4216309507644     IErMin= 5 ErrMin= 8.92D-08
 ErrMax= 8.92D-08  0.00D+00 EMaxC= 1.00D-01 BMatC= 2.80D-13 BMatP= 3.79D-12
 IDIUse=1 WtCom= 1.00D+00 WtEn= 0.00D+00
 Coeff-Com:  0.331D-02-0.342D-01-0.421D-01 0.104D+00 0.969D+00
 Coeff:      0.331D-02-0.342D-01-0.421D-01 0.104D+00 0.969D+00
 Gap=     0.462 Goal=   None    Shift=    0.000
 RMSDP=2.20D-08 MaxDP=1.78D-07 DE=-7.36D-12 OVMax= 5.04D-07

 Cycle  11  Pass 1  IDiag  1:
 E= -76.4216309507648     Delta-E=       -0.000000000000 Rises=F Damp=F
 DIIS: error= 1.74D-08 at cycle   6 NSaved=   6.
 NSaved= 6 IEnMin= 6 EnMin= -76.4216309507648     IErMin= 6 ErrMin= 1.74D-08
 ErrMax= 1.74D-08  0.00D+00 EMaxC= 1.00D-01 BMatC= 4.90D-15 BMatP= 2.80D-13
 IDIUse=1 WtCom= 1.00D+00 WtEn= 0.00D+00
 Coeff-Com: -0.146D-03 0.246D-02 0.378D-02-0.339D-01-0.621D-01 0.109D+01
 Coeff:     -0.146D-03 0.246D-02 0.378D-02-0.339D-01-0.621D-01 0.109D+01
 Gap=     0.462 Goal=   None    Shift=    0.000
 RMSDP=3.26D-09 MaxDP=2.33D-08 DE=-4.26D-13 OVMax= 6.12D-08

 SCF Done:  E(RM062X) =  -76.4216309508     A.U. after   11 cycles
            NFock= 11  Conv=0.33D-08     -V/T= 2.0030
 KE= 7.619091944979D+01 PE=-1.990173029101D+02 EE= 3.731861248850D+01
 Leave Link  502 at Mon Feb 20 01:39:06 2023, MaxMem=  6710886400 cpu:               9.7 elap:               0.4
 (Enter /data0/hywu0/study/g16/l601.exe)
 Copying SCF densities to generalized density rwf, IOpCl= 0 IROHF=0.

 **********************************************************************

            Population analysis using the SCF density.

 **********************************************************************

 Alpha  occ. eigenvalues --  -19.62734  -1.13398  -0.60234  -0.47905  -0.40019
 Alpha virt. eigenvalues --    0.06180   0.13301   0.17438   0.17937   0.18878
 Alpha virt. eigenvalues --    0.23500   0.50759   0.53424   0.98270   1.00273
 Alpha virt. eigenvalues --    1.05985   1.16693   1.20370   1.31556   1.34080
 Alpha virt. eigenvalues --    1.71160   1.74465   1.74991   2.07013   2.09972
 Alpha virt. eigenvalues --    2.35741   2.39149   2.55316   2.87361   3.01358
 Alpha virt. eigenvalues --    5.05589   5.49604   5.89549   6.78649   6.79866
 Alpha virt. eigenvalues --    6.87279   6.91990   7.09390  49.95364
          Condensed to atoms (all electrons):
              27         28         29
    27  O    7.919647   0.315836   0.314338
    28  H    0.315836   0.433206  -0.023295
    29  H    0.314338  -0.023295   0.433387
 Mulliken charges:
               1
     1  C    0.000000
     2  C    0.000000
     3  C    0.000000
     4  C    0.000000
     5  C    0.000000
     6  H    0.000000
     7  H    0.000000
     8  H    0.000000
     9  H    0.000000
    10  C    0.000000
    11  H    0.000000
    12  H    0.000000
    13  H    0.000000
    14  N    0.000000
    15  C    0.000000
    16  H    0.000000
    17  H    0.000000
    18  C    0.000000
    19  H    0.000000
    20  H    0.000000
    21  C    0.000000
    22  H    0.000000
    23  H    0.000000
    24  C    0.000000
    25  O    0.000000
    26  O    0.000000
    27  O   -0.549821
    28  H    0.274252
    29  H    0.275569
 Sum of Mulliken charges =   0.00000
 Mulliken charges with hydrogens summed into heavy atoms:
               1
     1  C    0.000000
     2  C    0.000000
     3  C    0.000000
     4  C    0.000000
     5  C    0.000000
    10  C    0.000000
    14  N    0.000000
    15  C    0.000000
    18  C    0.000000
    21  C    0.000000
    24  C    0.000000
    25  O    0.000000
    26  O    0.000000
    27  O    0.000000
         Mulliken charges condensed to fragments:
      1      0.000000
      2      0.000000
 Electronic spatial extent (au):  <R**2>=           8511.5631
 Charge=              0.0000 electrons
 Dipole moment (field-independent basis, Debye):
    X=              0.6969    Y=              2.0010    Z=             -0.3830  Tot=              2.1533
 Quadrupole moment (field-independent basis, Debye-Ang):
   XX=              9.5851   YY=             26.3695   ZZ=            -13.0128
   XY=             26.6388   XZ=              2.5565   YZ=             11.8896
 Traceless Quadrupole moment (field-independent basis, Debye-Ang):
   XX=              1.9378   YY=             18.7223   ZZ=            -20.6600
   XY=             26.6388   XZ=              2.5565   YZ=             11.8896
 Octapole moment (field-independent basis, Debye-Ang**2):
  XXX=             71.8095  YYY=            246.9871  ZZZ=           -234.4762  XYY=            321.8832
  XXY=            298.4942  XXZ=             56.7824  XZZ=            -76.7619  YZZ=              6.8178
  YYZ=            170.3143  XYZ=            178.3970
 Hexadecapole moment (field-independent basis, Debye-Ang**3):
 XXXX=           -104.0031 YYYY=           1868.1994 ZZZZ=          -3299.7742 XXXY=           2911.7228
 XXXZ=            503.0675 YYYX=           2949.2680 YYYZ=           1595.2068 ZZZX=          -1930.8768
 ZZZY=          -1060.0164 XXYY=           3528.5378 XXZZ=           -482.8655 YYZZ=            589.9929
 XXYZ=           2123.2834 YYXZ=           2221.1290 ZZXY=            561.7604
 N-N= 9.086140021023D+00 E-N=-1.990173031638D+02  KE= 7.619091944979D+01
 No NMR shielding tensors so no spin-rotation constants.
 Leave Link  601 at Mon Feb 20 01:39:06 2023, MaxMem=  6710886400 cpu:               1.7 elap:               0.1
 (Enter /data0/hywu0/study/g16/l122.exe)
 CPIOFr:  IOpCl= 0 IRwI=-1 IRwCP=  731 ICalc=  4 LCPTot=      337852 Len1MO=      885816 IndFrg=     4766932
 Restoring MOs from calculation   1 to rwf.
 CPIOFr:  IOpCl= 0 IRwI=-2 IRwCP=  731 ICalc=  0 LCPTot=      337852 Len1MO=      885816 IndFrg=     1223668
 Counterpoise corrected energy =    -670.424462346029
                   BSSE energy =       0.001798672392
              sum of fragments =    -670.400261987198
           complexation energy =     -16.31 kcal/mole (raw)
           complexation energy =     -15.19 kcal/mole (corrected)
 Leave Link  122 at Mon Feb 20 01:39:06 2023, MaxMem=  6710886400 cpu:               0.4 elap:               0.0
 (Enter /data0/hywu0/study/g16/l9999.exe)
 1\1\GINC-LOCALHOST\SP\RM062X\6-311+G(2d,p)\C10H15N1O3\HYWU0\20-Feb-202
 3\0\\#p M062X/6-311+G(2d,p) nosymm em=GD3 counterpoise=2\\Title Card R
 equired\\0,1\C,0,8.889206,8.456952,9.844959\C,0,8.057443,9.24734,9.053
 931\C,0,7.884379,10.601387,9.383892\C,0,8.55709,11.120654,10.485378\C,
 0,9.387453,10.301424,11.251765\H,0,7.247305,11.242681,8.76278\H,0,9.06
 9671,7.399166,9.601678\H,0,8.495539,12.188513,10.720027\H,0,9.953448,1
 0.698119,12.107926\C,0,7.399234,8.663431,7.858645\H,0,7.912587,7.75854
 9,7.490959\H,0,6.350917,8.399405,8.050268\H,0,7.407571,9.374135,7.0078
 14\N,0,9.526829,8.984549,10.934053\C,0,10.374871,8.094665,11.762979\H,
 0,9.839646,7.90991,12.724004\H,0,10.474542,7.105972,11.251318\C,0,11.7
 80538,8.651373,12.044836\H,0,11.727197,9.658348,12.512409\H,0,12.26303
 6,8.001163,12.804335\C,0,12.653351,8.716866,10.797823\H,0,13.717491,8.
 864534,11.069533\H,0,12.622642,7.774101,10.220789\C,0,12.262141,9.8808
 25,9.878947\O,0,11.628407,10.827752,10.386177\O,0,12.58938,9.767514,8.
 682678\O,0,10.50986,8.062725,7.800251\H,0,10.053028,8.78874,7.358635\H
 ,0,11.364776,8.470937,8.026094\\Version=ES64L-G16RevA.03\HF=-76.421631
 \RMSD=3.257e-09\Dipole=-3.4594976,-0.863398,1.6048865\Quadrupole=-101.
 3184715,3.7244521,97.5940194,-84.8790711,-23.9726608,9.3612902\PG=C01 
 [X(C10H15N1O3)]\\@


 CONTRAIWISE...CONTINUED TWEEDLEDEE, IF IT WAS SO, IT MIGHT BE,
 AND IF IT WERE SO, IT WOULD BE.....
 BUT AS IT ISN'T, IT AIN'T....
 THAT'S LOGIC.....
 ALICE THROUGH THE LOOKING GLASS
 Job cpu time:       0 days  2 hours 20 minutes 26.8 seconds.
 Elapsed time:       0 days  0 hours  5 minutes 53.2 seconds.
 File lengths (MBytes):  RWF=    174 Int=      0 D2E=      0 Chk=     49 Scr=      1
 Normal termination of Gaussian 16 at Mon Feb 20 01:39:06 2023.
