 Entering Gaussian System, Link 0=g16
 Initial command:
 /data0/home/software/g16/l1.exe "/data0/home/software/g16/scratch/Gau-3353330.inp" -scrdir="/data0/home/software/g16/scratch/"
 Default is to use a total of  22 processors:
                               22 via shared-memory
                                1 via Linda
 Entering Link 1 = /data0/home/software/g16/l1.exe PID=   3353331.
  
 Copyright (c) 1988,1990,1992,1993,1995,1998,2003,2009,2016,
            Gaussian, Inc.  All Rights Reserved.
  
 This is part of the Gaussian(R) 16 program.  It is based on
 the Gaussian(R) 09 system (copyright 2009, Gaussian, Inc.),
 the Gaussian(R) 03 system (copyright 2003, Gaussian, Inc.),
 the Gaussian(R) 98 system (copyright 1998, Gaussian, Inc.),
 the Gaussian(R) 94 system (copyright 1995, Gaussian, Inc.),
 the Gaussian 92(TM) system (copyright 1992, Gaussian, Inc.),
 the Gaussian 90(TM) system (copyright 1990, Gaussian, Inc.),
 the Gaussian 88(TM) system (copyright 1988, Gaussian, Inc.),
 the Gaussian 86(TM) system (copyright 1986, Carnegie Mellon
 University), and the Gaussian 82(TM) system (copyright 1983,
 Carnegie Mellon University). Gaussian is a federally registered
 trademark of Gaussian, Inc.
  
 This software contains proprietary and confidential information,
 including trade secrets, belonging to Gaussian, Inc.
  
 This software is provided under written license and may be
 used, copied, transmitted, or stored only in accord with that
 written license.
  
 The following legend is applicable only to US Government
 contracts under FAR:
  
                    RESTRICTED RIGHTS LEGEND
  
 Use, reproduction and disclosure by the US Government is
 subject to restrictions as set forth in subparagraphs (a)
 and (c) of the Commercial Computer Software - Restricted
 Rights clause in FAR 52.227-19.
  
 Gaussian, Inc.
 340 Quinnipiac St., Bldg. 40, Wallingford CT 06492
  
  
 ---------------------------------------------------------------
 Warning -- This program may not be used in any manner that
 competes with the business of Gaussian, Inc. or will provide
 assistance to any competitor of Gaussian, Inc.  The licensee
 of this program is prohibited from giving any competitor of
 Gaussian, Inc. access to this program.  By using this program,
 the user acknowledges that Gaussian, Inc. is engaged in the
 business of creating and licensing software in the field of
 computational chemistry and represents and warrants to the
 licensee that it is not a competitor of Gaussian, Inc. and that
 it will not use this program in any manner prohibited above.
 ---------------------------------------------------------------
  

 Cite this work as:
 Gaussian 16, Revision A.03,
 M. J. Frisch, G. W. Trucks, H. B. Schlegel, G. E. Scuseria, 
 M. A. Robb, J. R. Cheeseman, G. Scalmani, V. Barone, 
 G. A. Petersson, H. Nakatsuji, X. Li, M. Caricato, A. V. Marenich, 
 J. Bloino, B. G. Janesko, R. Gomperts, B. Mennucci, H. P. Hratchian, 
 J. V. Ortiz, A. F. Izmaylov, J. L. Sonnenberg, D. Williams-Young, 
 F. Ding, F. Lipparini, F. Egidi, J. Goings, B. Peng, A. Petrone, 
 T. Henderson, D. Ranasinghe, V. G. Zakrzewski, J. Gao, N. Rega, 
 G. Zheng, W. Liang, M. Hada, M. Ehara, K. Toyota, R. Fukuda, 
 J. Hasegawa, M. Ishida, T. Nakajima, Y. Honda, O. Kitao, H. Nakai, 
 T. Vreven, K. Throssell, J. A. Montgomery, Jr., J. E. Peralta, 
 F. Ogliaro, M. J. Bearpark, J. J. Heyd, E. N. Brothers, K. N. Kudin, 
 V. N. Staroverov, T. A. Keith, R. Kobayashi, J. Normand, 
 K. Raghavachari, A. P. Rendell, J. C. Burant, S. S. Iyengar, 
 J. Tomasi, M. Cossi, J. M. Millam, M. Klene, C. Adamo, R. Cammi, 
 J. W. Ochterski, R. L. Martin, K. Morokuma, O. Farkas, 
 J. B. Foresman, and D. J. Fox, Gaussian, Inc., Wallingford CT, 2016.
 
 ******************************************
 Gaussian 16:  ES64L-G16RevA.03 25-Dec-2016
                15-Dec-2022 
 ******************************************
 %nproc=24
 Will use up to   24 processors via shared memory.
 %mem=100GB
 ---------------------------------------------------
 #p M062X/6-311+G(2d,p) nosymm em=GD3 counterpoise=3
 ---------------------------------------------------
 1/38=1,62=3,172=1/1;
 2/12=2,15=1,17=6,18=5,40=1/2;
 1/38=1,53=2,62=3,63=1/22;
 3/5=4,6=6,7=112,11=2,25=1,30=1,74=-55,124=31/1,2,3;
 4//1;
 5/5=2,38=5/2;
 6/7=2,8=2,9=2,10=2,28=1/1;
 1/53=2,62=3,63=1/22;
 3/5=7,6=11,7=112,11=2,25=1,30=1,74=-55,82=7,124=31/1,2,3;
 4//1;
 5/5=2,38=5/2;
 6/7=2,8=2,9=2,10=2,28=1/1;
 1/53=2,62=3,63=1/22(-4);
 99/5=1,9=1/99;
 Leave Link    1 at Thu Dec 15 11:27:01 2022, MaxMem= 13421772800 cpu:               0.7 elap:               0.0
 (Enter /data0/home/software/g16/l101.exe)
 -------------------
 Title Card Required
 -------------------
 Symbolic Z-matrix:
 Charge =  0 Multiplicity = 1 in supermolecule
 Charge =  0 Multiplicity = 1 in fragment      1.
 Charge =  0 Multiplicity = 1 in fragment      2.
 Charge =  0 Multiplicity = 1 in fragment      3.
 C                     8.88921   8.45695   9.84496    
 C                     8.05744   9.24734   9.05393    
 C                     7.88438   10.60139   9.38389    
 C                     8.55709   11.12065   10.48538    
 C                     9.38745   10.30142   11.25177    
 H                     7.2473    11.24268   8.76278    
 H                     9.06967   7.39917   9.60168    
 H                     8.49554   12.18851   10.72003    
 H                     9.95345   10.69812   12.10793    
 C                     7.39923   8.66343   7.85865    
 H                     7.91259   7.75855   7.49096    
 H                     6.35092   8.3994    8.05027    
 H                     7.40757   9.37414   7.00781    
 N                     9.52683   8.98455   10.93405    
 C                     10.37487   8.09467   11.76298    
 H                     9.83965   7.90991   12.724     
 H                     10.47454   7.10597   11.25132    
 C                     11.78054   8.65137   12.04484    
 H                     11.7272   9.65835   12.51241    
 H                     12.26304   8.00116   12.80434    
 C                     12.65335   8.71687   10.79782    
 H                     13.71749   8.86453   11.06953    
 H                     12.62264   7.7741    10.22079    
 C                     12.26214   9.88082   9.87895    
 O                     11.62841   10.82775   10.38618    
 O                     12.58938   9.76751   8.68268    
 P                     10.3185   11.99564   7.36       
 O                     9.31058   10.93132   7.23832    
 O                     9.91719   13.23394   6.43817    
 H                     10.65411   13.94907   6.55396    
 O                     10.41644   12.63718   8.81062    
 H                     10.96795   11.96904   9.43951    
 O                     11.79161   11.64012   6.91351    
 H                     12.17407   10.90198   7.60103    
 O                     10.50986   8.06273   7.80025    
 H                     10.05303   8.78874   7.35864    
 H                     11.36478   8.47094   8.02609    
 
 ITRead=  0  0  0  0  0  0  0  0  0  0  0  0  0  0  0  0  0  0  0  0
 ITRead=  0  0  0  0  0  0  0  0  0  0  0  0  0  0  0  0  0
 MicOpt= -1 -1 -1 -1 -1 -1 -1 -1 -1 -1 -1 -1 -1 -1 -1 -1 -1 -1 -1 -1
 MicOpt= -1 -1 -1 -1 -1 -1 -1 -1 -1 -1 -1 -1 -1 -1 -1 -1 -1
 NAtoms=     37 NQM=       37 NQMF=       0 NMMI=      0 NMMIF=      0
                NMic=       0 NMicF=      0.
                    Isotopes and Nuclear Properties:
 (Nuclear quadrupole moments (NQMom) in fm**2, nuclear magnetic moments (NMagM)
  in nuclear magnetons)

  Atom         1           2           3           4           5           6           7           8           9          10
 IAtWgt=          12          12          12          12          12           1           1           1           1          12
 AtmWgt=  12.0000000  12.0000000  12.0000000  12.0000000  12.0000000   1.0078250   1.0078250   1.0078250   1.0078250  12.0000000
 NucSpn=           0           0           0           0           0           1           1           1           1           0
 AtZEff=  -0.0000000  -0.0000000  -0.0000000  -0.0000000  -0.0000000  -0.0000000  -0.0000000  -0.0000000  -0.0000000  -0.0000000
 NQMom=    0.0000000   0.0000000   0.0000000   0.0000000   0.0000000   0.0000000   0.0000000   0.0000000   0.0000000   0.0000000
 NMagM=    0.0000000   0.0000000   0.0000000   0.0000000   0.0000000   2.7928460   2.7928460   2.7928460   2.7928460   0.0000000
 AtZNuc=   6.0000000   6.0000000   6.0000000   6.0000000   6.0000000   1.0000000   1.0000000   1.0000000   1.0000000   6.0000000

  Atom        11          12          13          14          15          16          17          18          19          20
 IAtWgt=           1           1           1          14          12           1           1          12           1           1
 AtmWgt=   1.0078250   1.0078250   1.0078250  14.0030740  12.0000000   1.0078250   1.0078250  12.0000000   1.0078250   1.0078250
 NucSpn=           1           1           1           2           0           1           1           0           1           1
 AtZEff=  -0.0000000  -0.0000000  -0.0000000  -0.0000000  -0.0000000  -0.0000000  -0.0000000  -0.0000000  -0.0000000  -0.0000000
 NQMom=    0.0000000   0.0000000   0.0000000   2.0440000   0.0000000   0.0000000   0.0000000   0.0000000   0.0000000   0.0000000
 NMagM=    2.7928460   2.7928460   2.7928460   0.4037610   0.0000000   2.7928460   2.7928460   0.0000000   2.7928460   2.7928460
 AtZNuc=   1.0000000   1.0000000   1.0000000   7.0000000   6.0000000   1.0000000   1.0000000   6.0000000   1.0000000   1.0000000

  Atom        21          22          23          24          25          26          27          28          29          30
 IAtWgt=          12           1           1          12          16          16          31          16          16           1
 AtmWgt=  12.0000000   1.0078250   1.0078250  12.0000000  15.9949146  15.9949146  30.9737634  15.9949146  15.9949146   1.0078250
 NucSpn=           0           1           1           0           0           0           1           0           0           1
 AtZEff=  -0.0000000  -0.0000000  -0.0000000  -0.0000000  -0.0000000  -0.0000000  -0.0000000  -0.0000000  -0.0000000  -0.0000000
 NQMom=    0.0000000   0.0000000   0.0000000   0.0000000   0.0000000   0.0000000   0.0000000   0.0000000   0.0000000   0.0000000
 NMagM=    0.0000000   2.7928460   2.7928460   0.0000000   0.0000000   0.0000000   1.1316000   0.0000000   0.0000000   2.7928460
 AtZNuc=   6.0000000   1.0000000   1.0000000   6.0000000   8.0000000   8.0000000  15.0000000   8.0000000   8.0000000   1.0000000

  Atom        31          32          33          34          35          36          37
 IAtWgt=          16           1          16           1          16           1           1
 AtmWgt=  15.9949146   1.0078250  15.9949146   1.0078250  15.9949146   1.0078250   1.0078250
 NucSpn=           0           1           0           1           0           1           1
 AtZEff=  -0.0000000  -0.0000000  -0.0000000  -0.0000000  -0.0000000  -0.0000000  -0.0000000
 NQMom=    0.0000000   0.0000000   0.0000000   0.0000000   0.0000000   0.0000000   0.0000000
 NMagM=    0.0000000   2.7928460   0.0000000   2.7928460   0.0000000   2.7928460   2.7928460
 AtZNuc=   8.0000000   1.0000000   8.0000000   1.0000000   8.0000000   1.0000000   1.0000000
 Leave Link  101 at Thu Dec 15 11:27:01 2022, MaxMem= 13421772800 cpu:               2.3 elap:               0.1
 (Enter /data0/home/software/g16/l202.exe)
                          Input orientation:                          
 ---------------------------------------------------------------------
 Center     Atomic      Atomic             Coordinates (Angstroms)
 Number     Number       Type             X           Y           Z
 ---------------------------------------------------------------------
      1          6           0        8.889206    8.456952    9.844959
      2          6           0        8.057443    9.247340    9.053931
      3          6           0        7.884379   10.601387    9.383892
      4          6           0        8.557090   11.120654   10.485378
      5          6           0        9.387453   10.301424   11.251765
      6          1           0        7.247305   11.242681    8.762780
      7          1           0        9.069671    7.399166    9.601678
      8          1           0        8.495539   12.188513   10.720027
      9          1           0        9.953448   10.698119   12.107926
     10          6           0        7.399234    8.663431    7.858645
     11          1           0        7.912587    7.758549    7.490959
     12          1           0        6.350917    8.399405    8.050268
     13          1           0        7.407571    9.374135    7.007814
     14          7           0        9.526829    8.984549   10.934053
     15          6           0       10.374871    8.094665   11.762979
     16          1           0        9.839646    7.909910   12.724004
     17          1           0       10.474542    7.105972   11.251318
     18          6           0       11.780538    8.651373   12.044836
     19          1           0       11.727197    9.658348   12.512409
     20          1           0       12.263036    8.001163   12.804335
     21          6           0       12.653351    8.716866   10.797823
     22          1           0       13.717491    8.864534   11.069533
     23          1           0       12.622642    7.774101   10.220789
     24          6           0       12.262141    9.880825    9.878947
     25          8           0       11.628407   10.827752   10.386177
     26          8           0       12.589380    9.767514    8.682678
     27         15           0       10.318500   11.995640    7.360002
     28          8           0        9.310576   10.931324    7.238323
     29          8           0        9.917193   13.233943    6.438171
     30          1           0       10.654106   13.949066    6.553961
     31          8           0       10.416437   12.637184    8.810619
     32          1           0       10.967946   11.969039    9.439509
     33          8           0       11.791612   11.640117    6.913512
     34          1           0       12.174073   10.901976    7.601031
     35          8           0       10.509860    8.062725    7.800251
     36          1           0       10.053028    8.788740    7.358635
     37          1           0       11.364776    8.470937    8.026094
 ---------------------------------------------------------------------
                    Distance matrix (angstroms):
                    1          2          3          4          5
     1  C    0.000000
     2  C    1.393653   0.000000
     3  C    2.412646   1.404375   0.000000
     4  C    2.759664   2.409978   1.391204   0.000000
     5  C    2.372642   2.776778   2.416228   1.395704   0.000000
     6  H    3.409873   2.173126   1.096769   2.167434   3.414856
     7  H    1.100302   2.177241   3.421486   3.859163   3.353636
     8  H    3.852955   3.408563   2.162809   1.095067   2.153918
     9  H    3.358044   3.876400   3.422099   2.181975   1.100331
    10  C    2.491605   1.484216   2.513447   3.778664   4.260199
    11  H    2.642512   2.163415   3.415512   4.548151   4.773375
    12  H    3.109202   2.153733   2.996462   4.266398   4.804978
    13  H    3.329543   2.150583   2.716476   4.057730   4.773983
    14  N    1.367862   2.400628   2.777554   2.388440   1.361810
    15  C    2.453009   3.746742   4.259843   3.754091   2.471056
    16  H    3.080826   4.293530   4.714177   4.118892   2.844522
    17  H    2.513222   3.905936   4.734358   4.514527   3.375304
    18  C    3.638277   4.812705   5.105216   4.349698   3.013053
    19  H    4.075885   5.059357   5.044224   4.036926   2.734442
    20  H    4.510918   5.771092   6.134593   5.370551   3.996330
    21  C    3.891567   4.944182   5.319184   4.759745   3.658275
    22  H    4.997804   6.020410   6.315318   5.662248   4.565861
    23  H    3.813932   4.936905   5.580778   5.272394   4.232815
    24  C    3.661319   4.331448   4.464201   3.953775   3.213310
    25  O    3.662899   4.126059   3.882469   3.086846   2.459296
    26  O    4.093868   4.576774   4.829501   4.619532   4.139759
    27  P    4.554142   3.941437   3.459049   3.692715   4.345461
    28  O    3.618649   2.775352   2.597376   3.338705   4.063299
    29  O    5.956728   5.117995   4.442967   4.764006   5.661358
    30  H    6.641450   5.924419   5.185253   5.277635   6.081041
    31  O    4.569095   4.137039   3.299156   2.926064   3.531823
    32  H    4.101256   4.003416   3.373715   2.761490   2.926289
    33  O    5.210555   4.924509   4.737954   4.846669   5.137365
    34  H    4.669444   4.668552   4.655150   4.631398   4.631822
    35  O    2.638705   2.998229   3.980688   4.513773   4.264331
    36  H    2.765207   2.658327   3.477124   4.177580   4.229381
    37  H    3.071956   3.549324   4.300651   4.577355   4.203028
                    6          7          8          9         10
     6  H    0.000000
     7  H    4.335594   0.000000
     8  H    2.506691   4.951583   0.000000
     9  H    4.337022   4.236205   2.504603   0.000000
    10  C    2.737348   2.725232   4.670717   5.359137   0.000000
    11  H    3.768196   2.433749   5.512830   5.841453   1.103420
    12  H    3.065192   3.286179   5.107285   5.892954   1.097906
    13  H    2.568473   3.659400   4.783819   5.851971   1.108640
    14  N    3.874250   2.120768   3.372648   2.120449   3.753387
    15  C    5.356572   2.618871   4.623768   2.659804   4.941835
    16  H    5.789550   3.256170   4.912127   2.857729   5.495009
    17  H    5.806913   2.186535   5.480050   3.729455   4.836675
    18  C    6.167412   3.858218   5.005766   2.744341   6.059717
    19  H    6.053037   4.542984   4.478614   2.095451   6.432623
    20  H    7.211045   4.562564   6.006020   3.618391   6.968143
    21  C    6.304481   4.001232   5.417175   3.595999   6.020579
    22  H    7.269113   5.089610   6.199982   4.313735   7.090177
    23  H    6.561333   3.625945   6.063765   4.385860   5.801260
    24  C    5.314985   4.053070   4.496680   3.311553   5.404769
    25  O    4.690590   4.349456   3.431907   2.405559   5.381320
    26  O    5.542590   4.340736   5.174124   4.421141   5.369883
    27  P    3.459331   5.264243   3.827552   4.935545   4.458069
    28  O    2.584183   4.256715   3.790392   4.917388   3.030077
    29  O    4.061679   6.691091   4.631233   6.211106   5.408091
    30  H    4.879518   7.395959   5.011493   6.473493   6.343054
    31  O    3.462705   5.465930   2.745359   3.853124   5.079417
    32  H    3.850809   4.951110   2.792972   3.124883   5.114869
    33  O    4.922243   5.711468   5.065016   5.590004   5.389519
    34  H    5.073340   5.090145   4.991485   5.028403   5.279823
    35  O    4.656484   2.399915   5.441021   5.080449   3.168636
    36  H    3.983156   2.815874   5.028239   5.119708   2.703393
    37  H    5.017852   2.983063   5.413887   4.859376   3.973741
                   11         12         13         14         15
    11  H    0.000000
    12  H    1.778296   0.000000
    13  H    1.760281   1.775761   0.000000
    14  N    3.995466   4.329553   4.478659   0.000000
    15  C    4.942264   5.483548   5.749218   1.482628   0.000000
    16  H    5.578640   5.852747   6.382301   2.111073   1.115423
    17  H    4.596713   5.378101   5.705979   2.127879   1.117696
    18  C    6.041190   6.745431   6.709457   2.534571   1.537942
    19  H    6.586004   7.099298   7.002893   2.790490   2.198985
    20  H    6.871480   7.596901   7.685067   3.457142   2.158317
    21  C    5.859058   6.882624   6.504950   3.140916   2.551496
    22  H    6.908423   7.974880   7.521459   4.194569   3.499525
    23  H    5.443972   6.666086   6.330899   3.399704   2.744738
    24  C    5.396773   6.362487   5.662772   3.065696   3.209631
    25  O    5.622243   6.261409   5.598374   2.848543   3.307068
    26  O    5.227669   6.417950   5.459951   3.880843   4.146170
    27  P    4.874270   5.399175   3.933171   4.739963   5.882771
    28  O    3.476305   3.978624   2.469696   4.182717   5.445353
    29  O    5.925095   6.220124   4.639053   6.198604   7.414528
    30  H    6.834939   7.180189   5.628141   6.715831   7.841291
    31  O    5.640199   5.921601   4.790707   4.317652   5.417807
    32  H    5.555204   5.999103   5.032190   3.635610   4.556427
    33  O    5.517866   6.433941   4.935928   5.324099   6.172092
    34  H    5.296557   6.354040   5.040411   4.668347   5.332910
    35  O    2.633251   4.180032   3.460051   3.411279   3.965155
    36  H    2.379137   3.786233   2.732070   3.619232   4.470299
    37  H    3.565316   5.014428   4.184750   3.478228   3.884045
                   16         17         18         19         20
    16  H    0.000000
    17  H    1.793938   0.000000
    18  C    2.185886   2.173375   0.000000
    19  H    2.581600   3.110324   1.111516   0.000000
    20  H    2.426438   2.532181   1.110142   1.765958   0.000000
    21  C    3.504039   2.747334   1.523527   2.164245   2.165795
    22  H    4.322761   3.693549   2.179092   2.583274   2.422888
    23  H    3.745610   2.474413   2.192235   3.098989   2.618317
    24  C    4.224611   3.574734   2.536645   2.696439   3.477215
    25  O    4.144744   3.991431   2.740606   2.428606   3.773572
    26  O    5.229153   4.260781   3.633745   3.927100   4.496060
    27  P    6.759808   6.251043   5.938800   5.830494   7.026936
    28  O    6.285026   5.665003   5.865275   5.939403   6.948622
    29  O    8.237902   7.812109   7.477078   7.277181   8.568139
    30  H    8.672034   8.302129   7.712594   7.420572   8.776866
    31  O    6.163959   6.046048   5.311085   4.928976   6.391587
    32  H    5.342050   5.213014   4.295922   3.918988   5.361283
    33  O    7.175405   6.411685   5.938283   5.939630   6.940175
    34  H    6.375489   5.533773   4.996748   5.086054   5.957936
    35  O    4.971507   3.581409   4.469634   5.121753   5.302667
    36  H    5.441053   4.261732   4.996363   5.488210   5.929592
    37  H    4.971029   3.613546   4.044218   4.654924   4.884582
                   21         22         23         24         25
    21  C    0.000000
    22  H    1.108163   0.000000
    23  H    1.105765   1.762982   0.000000
    24  C    1.533681   2.137378   2.164510   0.000000
    25  O    2.382394   2.947113   3.215687   1.247226   0.000000
    26  O    2.362582   2.790176   2.518052   1.245385   2.224743
    27  P    5.293439   5.926009   5.595942   3.820375   3.498222
    28  O    5.361717   6.194408   5.461954   4.097338   3.910505
    29  O    6.848147   7.415087   7.171996   5.346131   4.929986
    30  H    7.027323   7.458363   7.446540   5.494715   5.037633
    31  O    4.931699   5.498412   5.523178   3.485034   2.687992
    32  H    3.906691   4.455887   4.576672   2.495733   1.623245
    33  O    4.937192   5.355874   5.155072   3.479987   3.570151
    34  H    3.901781   4.308575   4.104625   2.497880   2.839067
    35  O    3.742712   4.649731   3.225857   3.270620   3.947599
    36  H    4.312176   5.215822   3.977981   3.524883   3.975601
    37  H    3.066494   3.866873   2.623832   2.495218   3.345754
                   26         27         28         29         30
    26  O    0.000000
    27  P    3.445419   0.000000
    28  O    3.767117   1.470879   0.000000
    29  O    4.918793   1.595059   2.512027   0.000000
    30  H    5.075638   2.139674   3.373454   1.033368   0.000000
    31  O    3.601813   1.589170   2.570020   2.496773   2.621073
    32  H    2.836997   2.178724   2.944308   3.422294   3.513601
    33  O    2.696854   1.579813   2.600659   2.505928   2.598931
    34  H    1.621556   2.167336   2.886526   3.447292   3.562501
    35  O    2.830086   3.962103   3.159574   5.380336   6.018559
    36  H    3.023933   3.217870   2.270766   4.541534   5.257163
    37  H    1.900492   3.736563   3.300579   5.225249   5.716828
                   31         32         33         34         35
    31  O    0.000000
    32  H    1.070552   0.000000
    33  O    2.546422   2.677177   0.000000
    34  H    2.750152   2.444047   1.078801   0.000000
    35  O    4.685643   4.261021   3.902170   3.297065   0.000000
    36  H    4.129267   3.909145   3.369148   3.003890   0.964789
    37  H    4.344242   3.793670   3.385813   2.597228   0.973922
                   36         37
    36  H    0.000000
    37  H    1.505717   0.000000
 Symmetry turned off by external request.
 Stoichiometry    C10H18NO7P
 Framework group  C1[X(C10H18NO7P)]
 Deg. of freedom   105
 Full point group                 C1      NOp   1
 Rotational constants (GHZ):           0.4804137           0.3139398           0.2590602
 Leave Link  202 at Thu Dec 15 11:27:01 2022, MaxMem= 13421772800 cpu:               0.1 elap:               0.0
 (Enter /data0/home/software/g16/l122.exe)
 Counterpoise: doing full-system calculation.
 Leave Link  122 at Thu Dec 15 11:27:01 2022, MaxMem= 13421772800 cpu:               0.0 elap:               0.0
 (Enter /data0/home/software/g16/l301.exe)
 Standard basis: 6-311+G(2d,p) (5D, 7F)
 Ernie: Thresh=  0.10000D-02 Tol=  0.10000D-05 Strict=F.
   629 basis functions,   956 primitive gaussians,   667 cartesian basis functions
    78 alpha electrons       78 beta electrons
       nuclear repulsion energy      1891.3134002255 Hartrees.
 IExCor= 4336 DFT=T Ex+Corr=M062X ExCW=0 ScaHFX=  0.540000
 ScaDFX=  1.000000  1.000000  1.000000  1.000000 ScalE2=  1.000000  1.000000
 IRadAn=      5 IRanWt=     -1 IRanGd=            0 ICorTp=0 IEmpDi=131
 NAtoms=   37 NActive=   37 NUniq=   37 SFac= 1.00D+00 NAtFMM=   60 NAOKFM=F Big=F
 Integral buffers will be    131072 words long.
 Raffenetti 2 integral format.
 Two-electron integral symmetry is turned off.
 R6Disp:  Grimme-D3 Dispersion energy=       -0.0029934044 Hartrees.
 Nuclear repulsion after empirical dispersion term =     1891.3104068211 Hartrees.
 Leave Link  301 at Thu Dec 15 11:27:01 2022, MaxMem= 13421772800 cpu:               1.1 elap:               0.1
 (Enter /data0/home/software/g16/l302.exe)
 NPDir=0 NMtPBC=     1 NCelOv=     1 NCel=       1 NClECP=     1 NCelD=      1
         NCelK=      1 NCelE2=     1 NClLst=     1 CellRange=     0.0.
 One-electron integrals computed using PRISM.
 NBasis=   629 RedAO= T EigKep=  1.62D-06  NBF=   629
 NBsUse=   629 1.00D-06 EigRej= -1.00D+00 NBFU=   629
 Precomputing XC quadrature grid using
 IXCGrd= 4 IRadAn=           5 IRanWt=          -1 IRanGd=           0 AccXCQ= 0.00D+00.
 Generated NRdTot=       0 NPtTot=           0 NUsed=           0 NTot=          32
 NSgBfM=   666   666   666   666   666 MxSgAt=    37 MxSgA2=    37.
 Leave Link  302 at Thu Dec 15 11:27:02 2022, MaxMem= 13421772800 cpu:              17.9 elap:               0.8
 (Enter /data0/home/software/g16/l303.exe)
 DipDrv:  MaxL=1.
 Leave Link  303 at Thu Dec 15 11:27:02 2022, MaxMem= 13421772800 cpu:               1.6 elap:               0.1
 (Enter /data0/home/software/g16/l401.exe)
 ExpMin= 3.48D-02 ExpMax= 7.75D+04 ExpMxC= 2.65D+03 IAcc=3 IRadAn=         5 AccDes= 0.00D+00
 Harris functional with IExCor= 1009 and IRadAn=       5 diagonalized for initial guess.
 HarFok:  IExCor= 1009 AccDes= 0.00D+00 IRadAn=         5 IDoV= 1 UseB2=F ITyADJ=14
 ICtDFT=  3500011 ScaDFX=  1.000000  1.000000  1.000000  1.000000
 FoFCou: FMM=F IPFlag=           0 FMFlag=      100000 FMFlg1=           0
         NFxFlg=           0 DoJE=T BraDBF=F KetDBF=T FulRan=T
         wScrn=  0.000000 ICntrl=       500 IOpCl=  0 I1Cent=   200000004 NGrid=           0
         NMat0=    1 NMatS0=      1 NMatT0=    0 NMatD0=    1 NMtDS0=    0 NMtDT0=    0
 Symmetry not used in FoFCou.
 Harris En= -1314.12758962974    
 JPrj=0 DoOrth=F DoCkMO=F.
 Leave Link  401 at Thu Dec 15 11:27:05 2022, MaxMem= 13421772800 cpu:              72.3 elap:               3.0
 (Enter /data0/home/software/g16/l502.exe)
 Two-electron integral symmetry not used.
 Closed shell SCF:
 Using DIIS extrapolation, IDIIS=  1040.
 NGot= 13421772800 LenX= 13420862360 LenY= 13420416804
 Requested convergence on RMS density matrix=1.00D-08 within 128 cycles.
 Requested convergence on MAX density matrix=1.00D-06.
 Requested convergence on             energy=1.00D-06.
 No special actions if energy rises.
 Fock matrices will be formed incrementally for  20 cycles.

 Cycle   1  Pass 1  IDiag  1:
 FoFJK:  IHMeth= 1 ICntrl=       0 DoSepK=F KAlg= 0 I1Cent=           0 FoldK=F
 IRaf= 870000000 NMat=       1 IRICut=       1 DoRegI=T DoRafI=F ISym2E= 0 IDoP0=0 IntGTp=1.
 FoFCou: FMM=F IPFlag=           0 FMFlag=      100000 FMFlg1=           0
         NFxFlg=           0 DoJE=F BraDBF=F KetDBF=F FulRan=T
         wScrn=  0.000000 ICntrl=         0 IOpCl=  0 I1Cent=           0 NGrid=           0
         NMat0=    1 NMatS0=      1 NMatT0=    0 NMatD0=    1 NMtDS0=    0 NMtDT0=    0
 Symmetry not used in FoFCou.
 E= -1313.96394148158    
 DIIS: error= 1.99D-02 at cycle   1 NSaved=   1.
 NSaved= 1 IEnMin= 1 EnMin= -1313.96394148158     IErMin= 1 ErrMin= 1.99D-02
 ErrMax= 1.99D-02  0.00D+00 EMaxC= 1.00D-01 BMatC= 1.09D+00 BMatP= 1.09D+00
 IDIUse=3 WtCom= 8.01D-01 WtEn= 1.99D-01
 Coeff-Com:  0.100D+01
 Coeff-En:   0.100D+01
 Coeff:      0.100D+01
 Gap=     0.241 Goal=   None    Shift=    0.000
 GapD=    0.241 DampG=1.000 DampE=0.500 DampFc=0.5000 IDamp=-1.
 Damping current iteration by 5.00D-01
 RMSDP=1.18D-02 MaxDP=2.20D+00              OVMax= 2.29D-01

 Cycle   2  Pass 1  IDiag  1:
 RMSU=  5.26D-03    CP:  1.10D+00
 E= -1314.26958123704     Delta-E=       -0.305639755457 Rises=F Damp=T
 DIIS: error= 5.50D-03 at cycle   2 NSaved=   2.
 NSaved= 2 IEnMin= 2 EnMin= -1314.26958123704     IErMin= 2 ErrMin= 5.50D-03
 ErrMax= 5.50D-03  0.00D+00 EMaxC= 1.00D-01 BMatC= 7.25D-02 BMatP= 1.09D+00
 IDIUse=3 WtCom= 9.45D-01 WtEn= 5.50D-02
 Coeff-Com:  0.247D-01 0.975D+00
 Coeff-En:   0.109D+00 0.891D+00
 Coeff:      0.294D-01 0.971D+00
 Gap=     0.336 Goal=   None    Shift=    0.000
 RMSDP=6.58D-03 MaxDP=1.40D+00 DE=-3.06D-01 OVMax= 1.97D-01

 Cycle   3  Pass 1  IDiag  1:
 RMSU=  3.52D-03    CP:  9.00D-01  6.98D-01
 E= -1314.62698601443     Delta-E=       -0.357404777393 Rises=F Damp=F
 DIIS: error= 4.38D-03 at cycle   3 NSaved=   3.
 NSaved= 3 IEnMin= 3 EnMin= -1314.62698601443     IErMin= 3 ErrMin= 4.38D-03
 ErrMax= 4.38D-03  0.00D+00 EMaxC= 1.00D-01 BMatC= 3.72D-02 BMatP= 7.25D-02
 IDIUse=3 WtCom= 9.56D-01 WtEn= 4.38D-02
 Coeff-Com: -0.497D-01 0.405D+00 0.645D+00
 Coeff-En:   0.000D+00 0.000D+00 0.100D+01
 Coeff:     -0.475D-01 0.387D+00 0.660D+00
 Gap=     0.267 Goal=   None    Shift=    0.000
 RMSDP=1.50D-03 MaxDP=2.29D-01 DE=-3.57D-01 OVMax= 6.11D-02

 Cycle   4  Pass 1  IDiag  1:
 RMSU=  1.13D-03    CP:  9.03D-01  7.95D-01  7.62D-01
 E= -1314.65011401957     Delta-E=       -0.023128005141 Rises=F Damp=F
 DIIS: error= 2.47D-03 at cycle   4 NSaved=   4.
 NSaved= 4 IEnMin= 4 EnMin= -1314.65011401957     IErMin= 4 ErrMin= 2.47D-03
 ErrMax= 2.47D-03  0.00D+00 EMaxC= 1.00D-01 BMatC= 9.80D-03 BMatP= 3.72D-02
 IDIUse=3 WtCom= 9.75D-01 WtEn= 2.47D-02
 Coeff-Com: -0.303D-01 0.885D-01 0.373D+00 0.569D+00
 Coeff-En:   0.000D+00 0.000D+00 0.212D+00 0.788D+00
 Coeff:     -0.296D-01 0.864D-01 0.369D+00 0.574D+00
 Gap=     0.268 Goal=   None    Shift=    0.000
 RMSDP=6.04D-04 MaxDP=1.13D-01 DE=-2.31D-02 OVMax= 2.22D-02

 Cycle   5  Pass 1  IDiag  1:
 RMSU=  2.39D-04    CP:  8.97D-01  7.66D-01  8.57D-01  6.57D-01
 E= -1314.65808505906     Delta-E=       -0.007971039487 Rises=F Damp=F
 DIIS: error= 3.57D-04 at cycle   5 NSaved=   5.
 NSaved= 5 IEnMin= 5 EnMin= -1314.65808505906     IErMin= 5 ErrMin= 3.57D-04
 ErrMax= 3.57D-04  0.00D+00 EMaxC= 1.00D-01 BMatC= 2.88D-04 BMatP= 9.80D-03
 IDIUse=3 WtCom= 9.96D-01 WtEn= 3.57D-03
 Coeff-Com: -0.986D-02 0.192D-01 0.126D+00 0.248D+00 0.616D+00
 Coeff-En:   0.000D+00 0.000D+00 0.000D+00 0.000D+00 0.100D+01
 Coeff:     -0.983D-02 0.192D-01 0.126D+00 0.247D+00 0.617D+00
 Gap=     0.265 Goal=   None    Shift=    0.000
 RMSDP=9.37D-05 MaxDP=1.45D-02 DE=-7.97D-03 OVMax= 4.04D-03

 Cycle   6  Pass 1  IDiag  1:
 RMSU=  6.29D-05    CP:  8.97D-01  7.65D-01  8.47D-01  6.99D-01  8.66D-01
 E= -1314.65832134335     Delta-E=       -0.000236284290 Rises=F Damp=F
 DIIS: error= 1.17D-04 at cycle   6 NSaved=   6.
 NSaved= 6 IEnMin= 6 EnMin= -1314.65832134335     IErMin= 6 ErrMin= 1.17D-04
 ErrMax= 1.17D-04  0.00D+00 EMaxC= 1.00D-01 BMatC= 2.56D-05 BMatP= 2.88D-04
 IDIUse=3 WtCom= 9.99D-01 WtEn= 1.17D-03
 Coeff-Com: -0.183D-02 0.125D-02 0.256D-01 0.617D-01 0.278D+00 0.635D+00
 Coeff-En:   0.000D+00 0.000D+00 0.000D+00 0.000D+00 0.000D+00 0.100D+01
 Coeff:     -0.183D-02 0.125D-02 0.256D-01 0.616D-01 0.278D+00 0.635D+00
 Gap=     0.265 Goal=   None    Shift=    0.000
 RMSDP=4.05D-05 MaxDP=8.73D-03 DE=-2.36D-04 OVMax= 1.04D-03

 Cycle   7  Pass 1  IDiag  1:
 RMSU=  3.46D-05    CP:  8.97D-01  7.64D-01  8.51D-01  6.90D-01  8.54D-01
                    CP:  8.68D-01
 E= -1314.65834078122     Delta-E=       -0.000019437874 Rises=F Damp=F
 DIIS: error= 3.37D-05 at cycle   7 NSaved=   7.
 NSaved= 7 IEnMin= 7 EnMin= -1314.65834078122     IErMin= 7 ErrMin= 3.37D-05
 ErrMax= 3.37D-05  0.00D+00 EMaxC= 1.00D-01 BMatC= 3.28D-06 BMatP= 2.56D-05
 IDIUse=1 WtCom= 1.00D+00 WtEn= 0.00D+00
 Coeff-Com:  0.261D-03-0.141D-02-0.208D-02 0.417D-03 0.684D-01 0.301D+00
 Coeff-Com:  0.633D+00
 Coeff:      0.261D-03-0.141D-02-0.208D-02 0.417D-03 0.684D-01 0.301D+00
 Coeff:      0.633D+00
 Gap=     0.265 Goal=   None    Shift=    0.000
 RMSDP=1.36D-05 MaxDP=2.47D-03 DE=-1.94D-05 OVMax= 4.07D-04

 Cycle   8  Pass 1  IDiag  1:
 RMSU=  1.09D-05    CP:  8.97D-01  7.64D-01  8.51D-01  6.92D-01  8.66D-01
                    CP:  9.03D-01  1.06D+00
 E= -1314.65834311926     Delta-E=       -0.000002338037 Rises=F Damp=F
 DIIS: error= 1.50D-05 at cycle   8 NSaved=   8.
 NSaved= 8 IEnMin= 8 EnMin= -1314.65834311926     IErMin= 8 ErrMin= 1.50D-05
 ErrMax= 1.50D-05  0.00D+00 EMaxC= 1.00D-01 BMatC= 5.05D-07 BMatP= 3.28D-06
 IDIUse=1 WtCom= 1.00D+00 WtEn= 0.00D+00
 Coeff-Com:  0.421D-03-0.891D-03-0.508D-02-0.993D-02-0.974D-02 0.363D-01
 Coeff-Com:  0.312D+00 0.677D+00
 Coeff:      0.421D-03-0.891D-03-0.508D-02-0.993D-02-0.974D-02 0.363D-01
 Coeff:      0.312D+00 0.677D+00
 Gap=     0.265 Goal=   None    Shift=    0.000
 RMSDP=7.21D-06 MaxDP=1.56D-03 DE=-2.34D-06 OVMax= 1.47D-04

 Cycle   9  Pass 1  IDiag  1:
 RMSU=  3.35D-06    CP:  8.97D-01  7.63D-01  8.51D-01  6.93D-01  8.73D-01
                    CP:  9.23D-01  1.08D+00  8.73D-01
 E= -1314.65834352849     Delta-E=       -0.000000409234 Rises=F Damp=F
 DIIS: error= 3.78D-06 at cycle   9 NSaved=   9.
 NSaved= 9 IEnMin= 9 EnMin= -1314.65834352849     IErMin= 9 ErrMin= 3.78D-06
 ErrMax= 3.78D-06  0.00D+00 EMaxC= 1.00D-01 BMatC= 3.82D-08 BMatP= 5.05D-07
 IDIUse=1 WtCom= 1.00D+00 WtEn= 0.00D+00
 Coeff-Com:  0.158D-03-0.288D-03-0.205D-02-0.445D-02-0.902D-02-0.851D-02
 Coeff-Com:  0.881D-01 0.294D+00 0.642D+00
 Coeff:      0.158D-03-0.288D-03-0.205D-02-0.445D-02-0.902D-02-0.851D-02
 Coeff:      0.881D-01 0.294D+00 0.642D+00
 Gap=     0.265 Goal=   None    Shift=    0.000
 RMSDP=1.53D-06 MaxDP=2.02D-04 DE=-4.09D-07 OVMax= 3.69D-05

 Cycle  10  Pass 1  IDiag  1:
 RMSU=  1.15D-06    CP:  8.97D-01  7.63D-01  8.51D-01  6.93D-01  8.72D-01
                    CP:  9.27D-01  1.10D+00  8.66D-01  9.75D-01
 E= -1314.65834355994     Delta-E=       -0.000000031447 Rises=F Damp=F
 DIIS: error= 1.63D-06 at cycle  10 NSaved=  10.
 NSaved=10 IEnMin=10 EnMin= -1314.65834355994     IErMin=10 ErrMin= 1.63D-06
 ErrMax= 1.63D-06  0.00D+00 EMaxC= 1.00D-01 BMatC= 4.17D-09 BMatP= 3.82D-08
 IDIUse=1 WtCom= 1.00D+00 WtEn= 0.00D+00
 Coeff-Com:  0.155D-04-0.116D-04-0.269D-03-0.754D-03-0.253D-02-0.780D-02
 Coeff-Com:  0.244D-02 0.446D-01 0.264D+00 0.700D+00
 Coeff:      0.155D-04-0.116D-04-0.269D-03-0.754D-03-0.253D-02-0.780D-02
 Coeff:      0.244D-02 0.446D-01 0.264D+00 0.700D+00
 Gap=     0.265 Goal=   None    Shift=    0.000
 RMSDP=6.04D-07 MaxDP=8.54D-05 DE=-3.14D-08 OVMax= 1.92D-05

 Cycle  11  Pass 1  IDiag  1:
 RMSU=  4.01D-07    CP:  8.97D-01  7.63D-01  8.51D-01  6.93D-01  8.72D-01
                    CP:  9.26D-01  1.10D+00  8.86D-01  9.83D-01  9.36D-01
 E= -1314.65834356351     Delta-E=       -0.000000003565 Rises=F Damp=F
 DIIS: error= 7.39D-07 at cycle  11 NSaved=  11.
 NSaved=11 IEnMin=11 EnMin= -1314.65834356351     IErMin=11 ErrMin= 7.39D-07
 ErrMax= 7.39D-07  0.00D+00 EMaxC= 1.00D-01 BMatC= 9.08D-10 BMatP= 4.17D-09
 IDIUse=1 WtCom= 1.00D+00 WtEn= 0.00D+00
 Coeff-Com: -0.167D-04 0.360D-04 0.191D-03 0.318D-03 0.120D-03-0.299D-02
 Coeff-Com: -0.139D-01-0.273D-01 0.247D-01 0.354D+00 0.665D+00
 Coeff:     -0.167D-04 0.360D-04 0.191D-03 0.318D-03 0.120D-03-0.299D-02
 Coeff:     -0.139D-01-0.273D-01 0.247D-01 0.354D+00 0.665D+00
 Gap=     0.265 Goal=   None    Shift=    0.000
 RMSDP=3.57D-07 MaxDP=6.93D-05 DE=-3.56D-09 OVMax= 6.11D-06

 Cycle  12  Pass 1  IDiag  1:
 RMSU=  1.19D-07    CP:  8.97D-01  7.63D-01  8.51D-01  6.93D-01  8.72D-01
                    CP:  9.26D-01  1.10D+00  8.82D-01  1.02D+00  1.02D+00
                    CP:  8.44D-01
 E= -1314.65834356428     Delta-E=       -0.000000000776 Rises=F Damp=F
 DIIS: error= 1.25D-07 at cycle  12 NSaved=  12.
 NSaved=12 IEnMin=12 EnMin= -1314.65834356428     IErMin=12 ErrMin= 1.25D-07
 ErrMax= 1.25D-07  0.00D+00 EMaxC= 1.00D-01 BMatC= 4.44D-11 BMatP= 9.08D-10
 IDIUse=1 WtCom= 1.00D+00 WtEn= 0.00D+00
 Coeff-Com: -0.607D-05 0.123D-04 0.860D-04 0.160D-03 0.267D-03-0.244D-03
 Coeff-Com: -0.440D-02-0.121D-01-0.144D-01 0.541D-01 0.220D+00 0.757D+00
 Coeff:     -0.607D-05 0.123D-04 0.860D-04 0.160D-03 0.267D-03-0.244D-03
 Coeff:     -0.440D-02-0.121D-01-0.144D-01 0.541D-01 0.220D+00 0.757D+00
 Gap=     0.265 Goal=   None    Shift=    0.000
 RMSDP=5.47D-08 MaxDP=8.23D-06 DE=-7.76D-10 OVMax= 3.62D-06

 Cycle  13  Pass 1  IDiag  1:
 RMSU=  3.23D-08    CP:  8.97D-01  7.63D-01  8.51D-01  6.93D-01  8.72D-01
                    CP:  9.26D-01  1.10D+00  8.84D-01  1.03D+00  1.03D+00
                    CP:  9.00D-01  9.93D-01
 E= -1314.65834356430     Delta-E=       -0.000000000016 Rises=F Damp=F
 DIIS: error= 6.68D-08 at cycle  13 NSaved=  13.
 NSaved=13 IEnMin=13 EnMin= -1314.65834356430     IErMin=13 ErrMin= 6.68D-08
 ErrMax= 6.68D-08  0.00D+00 EMaxC= 1.00D-01 BMatC= 9.78D-12 BMatP= 4.44D-11
 IDIUse=1 WtCom= 1.00D+00 WtEn= 0.00D+00
 Coeff-Com: -0.292D-06 0.251D-06 0.143D-04 0.294D-04 0.977D-04 0.253D-03
 Coeff-Com: -0.258D-03-0.189D-02-0.942D-02-0.245D-01 0.388D-02 0.334D+00
 Coeff-Com:  0.697D+00
 Coeff:     -0.292D-06 0.251D-06 0.143D-04 0.294D-04 0.977D-04 0.253D-03
 Coeff:     -0.258D-03-0.189D-02-0.942D-02-0.245D-01 0.388D-02 0.334D+00
 Coeff:      0.697D+00
 Gap=     0.265 Goal=   None    Shift=    0.000
 RMSDP=2.62D-08 MaxDP=5.14D-06 DE=-1.64D-11 OVMax= 9.41D-07

 Cycle  14  Pass 1  IDiag  1:
 RMSU=  1.60D-08    CP:  8.97D-01  7.63D-01  8.51D-01  6.93D-01  8.72D-01
                    CP:  9.26D-01  1.10D+00  8.83D-01  1.03D+00  1.03D+00
                    CP:  9.18D-01  1.05D+00  9.68D-01
 E= -1314.65834356436     Delta-E=       -0.000000000063 Rises=F Damp=F
 DIIS: error= 2.26D-08 at cycle  14 NSaved=  14.
 NSaved=14 IEnMin=14 EnMin= -1314.65834356436     IErMin=14 ErrMin= 2.26D-08
 ErrMax= 2.26D-08  0.00D+00 EMaxC= 1.00D-01 BMatC= 7.35D-13 BMatP= 9.78D-12
 IDIUse=1 WtCom= 1.00D+00 WtEn= 0.00D+00
 Coeff-Com:  0.721D-06-0.152D-05-0.534D-05-0.964D-05 0.393D-05 0.135D-03
 Coeff-Com:  0.472D-03 0.893D-03-0.119D-02-0.154D-01-0.279D-01 0.212D-01
 Coeff-Com:  0.223D+00 0.799D+00
 Coeff:      0.721D-06-0.152D-05-0.534D-05-0.964D-05 0.393D-05 0.135D-03
 Coeff:      0.472D-03 0.893D-03-0.119D-02-0.154D-01-0.279D-01 0.212D-01
 Coeff:      0.223D+00 0.799D+00
 Gap=     0.265 Goal=   None    Shift=    0.000
 RMSDP=8.59D-09 MaxDP=1.03D-06 DE=-6.32D-11 OVMax= 8.56D-07

 Cycle  15  Pass 1  IDiag  1:
 RMSU=  5.07D-09    CP:  8.97D-01  7.63D-01  8.51D-01  6.93D-01  8.72D-01
                    CP:  9.26D-01  1.10D+00  8.83D-01  1.03D+00  1.03D+00
                    CP:  9.20D-01  1.07D+00  1.09D+00  1.13D+00
 E= -1314.65834356439     Delta-E=       -0.000000000025 Rises=F Damp=F
 DIIS: error= 9.71D-09 at cycle  15 NSaved=  15.
 NSaved=15 IEnMin=15 EnMin= -1314.65834356439     IErMin=15 ErrMin= 9.71D-09
 ErrMax= 9.71D-09  0.00D+00 EMaxC= 1.00D-01 BMatC= 1.36D-13 BMatP= 7.35D-13
 IDIUse=1 WtCom= 1.00D+00 WtEn= 0.00D+00
 Coeff-Com:  0.280D-06-0.566D-06-0.341D-05-0.645D-05-0.893D-05 0.224D-04
 Coeff-Com:  0.191D-03 0.531D-03 0.652D-03-0.293D-02-0.115D-01-0.318D-01
 Coeff-Com: -0.910D-02 0.309D+00 0.745D+00
 Coeff:      0.280D-06-0.566D-06-0.341D-05-0.645D-05-0.893D-05 0.224D-04
 Coeff:      0.191D-03 0.531D-03 0.652D-03-0.293D-02-0.115D-01-0.318D-01
 Coeff:     -0.910D-02 0.309D+00 0.745D+00
 Gap=     0.265 Goal=   None    Shift=    0.000
 RMSDP=3.53D-09 MaxDP=7.09D-07 DE=-2.50D-11 OVMax= 1.79D-07

 SCF Done:  E(RM062X) =  -1314.65834356     A.U. after   15 cycles
            NFock= 15  Conv=0.35D-08     -V/T= 2.0034
 KE= 1.310175521297D+03 PE=-6.876392704880D+03 EE= 2.360248433198D+03
 Leave Link  502 at Thu Dec 15 11:30:17 2022, MaxMem= 13421772800 cpu:            4589.2 elap:             191.8
 (Enter /data0/home/software/g16/l601.exe)
 Copying SCF densities to generalized density rwf, IOpCl= 0 IROHF=0.

 **********************************************************************

            Population analysis using the SCF density.

 **********************************************************************

 Alpha  occ. eigenvalues --  -78.12980 -19.64384 -19.61676 -19.61547 -19.59572
 Alpha  occ. eigenvalues --  -19.59316 -19.59261 -19.56374 -14.87683 -10.65164
 Alpha  occ. eigenvalues --  -10.63896 -10.63366 -10.63023 -10.59490 -10.58869
 Alpha  occ. eigenvalues --  -10.58331 -10.57337 -10.55386 -10.54610  -6.93689
 Alpha  occ. eigenvalues --   -5.05631  -5.05552  -5.05409  -1.19734  -1.18849
 Alpha  occ. eigenvalues --   -1.15221  -1.11931  -1.10900  -1.10341  -1.08890
 Alpha  occ. eigenvalues --   -1.06679  -0.97259  -0.92191  -0.91417  -0.83705
 Alpha  occ. eigenvalues --   -0.82482  -0.76311  -0.74706  -0.70524  -0.67910
 Alpha  occ. eigenvalues --   -0.64578  -0.62802  -0.61296  -0.60797  -0.59813
 Alpha  occ. eigenvalues --   -0.59060  -0.58524  -0.58084  -0.55991  -0.55116
 Alpha  occ. eigenvalues --   -0.53641  -0.53378  -0.52469  -0.51826  -0.51508
 Alpha  occ. eigenvalues --   -0.49414  -0.49072  -0.48260  -0.47731  -0.46894
 Alpha  occ. eigenvalues --   -0.46635  -0.45946  -0.45428  -0.45245  -0.43721
 Alpha  occ. eigenvalues --   -0.43292  -0.42569  -0.42180  -0.41746  -0.39938
 Alpha  occ. eigenvalues --   -0.38730  -0.36958  -0.36048  -0.35487  -0.34775
 Alpha  occ. eigenvalues --   -0.34102  -0.33905  -0.31916
 Alpha virt. eigenvalues --   -0.05439  -0.01665  -0.00801   0.00669   0.00962
 Alpha virt. eigenvalues --    0.01568   0.02418   0.02850   0.03169   0.03386
 Alpha virt. eigenvalues --    0.04658   0.05234   0.05494   0.05699   0.06401
 Alpha virt. eigenvalues --    0.06781   0.07210   0.07625   0.08081   0.08528
 Alpha virt. eigenvalues --    0.08677   0.09273   0.09555   0.10090   0.10734
 Alpha virt. eigenvalues --    0.11186   0.11516   0.12060   0.12664   0.13042
 Alpha virt. eigenvalues --    0.13393   0.13908   0.14223   0.14628   0.15070
 Alpha virt. eigenvalues --    0.15532   0.15854   0.16072   0.16717   0.16914
 Alpha virt. eigenvalues --    0.17335   0.17503   0.17908   0.18209   0.18646
 Alpha virt. eigenvalues --    0.19022   0.19793   0.20271   0.20588   0.20689
 Alpha virt. eigenvalues --    0.20912   0.21345   0.21603   0.22138   0.22232
 Alpha virt. eigenvalues --    0.22692   0.22993   0.23075   0.23882   0.24282
 Alpha virt. eigenvalues --    0.24717   0.24976   0.25338   0.25420   0.25778
 Alpha virt. eigenvalues --    0.26283   0.26649   0.26781   0.27347   0.27490
 Alpha virt. eigenvalues --    0.28028   0.28707   0.28778   0.29061   0.29299
 Alpha virt. eigenvalues --    0.29643   0.30065   0.30188   0.31032   0.31451
 Alpha virt. eigenvalues --    0.31518   0.31985   0.32373   0.32891   0.33156
 Alpha virt. eigenvalues --    0.33519   0.33919   0.33997   0.34461   0.34779
 Alpha virt. eigenvalues --    0.34980   0.35513   0.36421   0.36638   0.37594
 Alpha virt. eigenvalues --    0.37687   0.38141   0.38560   0.39157   0.39963
 Alpha virt. eigenvalues --    0.40203   0.40740   0.41640   0.42429   0.43127
 Alpha virt. eigenvalues --    0.44205   0.44759   0.44931   0.46185   0.46312
 Alpha virt. eigenvalues --    0.46730   0.48423   0.48646   0.49095   0.49473
 Alpha virt. eigenvalues --    0.50368   0.51363   0.52095   0.52560   0.53628
 Alpha virt. eigenvalues --    0.53868   0.54809   0.55655   0.56415   0.57442
 Alpha virt. eigenvalues --    0.57530   0.58055   0.58271   0.59050   0.59687
 Alpha virt. eigenvalues --    0.61036   0.61124   0.61877   0.62886   0.63528
 Alpha virt. eigenvalues --    0.64145   0.64805   0.65081   0.65403   0.66117
 Alpha virt. eigenvalues --    0.66222   0.67252   0.67678   0.68038   0.68494
 Alpha virt. eigenvalues --    0.68577   0.69567   0.69958   0.70012   0.71200
 Alpha virt. eigenvalues --    0.72030   0.72179   0.72953   0.73217   0.73918
 Alpha virt. eigenvalues --    0.74224   0.74783   0.75454   0.75787   0.76940
 Alpha virt. eigenvalues --    0.77909   0.78346   0.78764   0.79616   0.80137
 Alpha virt. eigenvalues --    0.81940   0.82142   0.82621   0.83237   0.83804
 Alpha virt. eigenvalues --    0.83995   0.84876   0.86081   0.86257   0.87405
 Alpha virt. eigenvalues --    0.88114   0.88847   0.89552   0.90490   0.91113
 Alpha virt. eigenvalues --    0.91823   0.92634   0.94969   0.95456   0.96129
 Alpha virt. eigenvalues --    0.97150   0.98577   0.99338   1.00210   1.01627
 Alpha virt. eigenvalues --    1.02835   1.04027   1.05452   1.06517   1.07363
 Alpha virt. eigenvalues --    1.08354   1.09443   1.10808   1.11751   1.12263
 Alpha virt. eigenvalues --    1.12633   1.13962   1.14082   1.16066   1.16377
 Alpha virt. eigenvalues --    1.17565   1.18153   1.18341   1.19372   1.20785
 Alpha virt. eigenvalues --    1.22175   1.22347   1.23003   1.23751   1.24746
 Alpha virt. eigenvalues --    1.24914   1.26100   1.26903   1.27424   1.27742
 Alpha virt. eigenvalues --    1.28719   1.30185   1.30958   1.31114   1.31903
 Alpha virt. eigenvalues --    1.32671   1.33484   1.33692   1.34418   1.34689
 Alpha virt. eigenvalues --    1.34950   1.35311   1.35777   1.37281   1.38085
 Alpha virt. eigenvalues --    1.38548   1.38926   1.39107   1.39863   1.40675
 Alpha virt. eigenvalues --    1.41098   1.42530   1.42644   1.43628   1.43853
 Alpha virt. eigenvalues --    1.44629   1.45334   1.46195   1.47086   1.47572
 Alpha virt. eigenvalues --    1.48418   1.48913   1.49664   1.49938   1.52759
 Alpha virt. eigenvalues --    1.53580   1.54467   1.55496   1.56256   1.56505
 Alpha virt. eigenvalues --    1.57186   1.58805   1.60395   1.60940   1.62053
 Alpha virt. eigenvalues --    1.62328   1.64155   1.64842   1.65446   1.67286
 Alpha virt. eigenvalues --    1.68059   1.69369   1.70079   1.71517   1.72717
 Alpha virt. eigenvalues --    1.73245   1.73911   1.75052   1.76481   1.77449
 Alpha virt. eigenvalues --    1.77662   1.78394   1.79167   1.79719   1.80836
 Alpha virt. eigenvalues --    1.82409   1.82976   1.84275   1.85116   1.86322
 Alpha virt. eigenvalues --    1.88174   1.89123   1.89650   1.92492   1.92750
 Alpha virt. eigenvalues --    1.93609   1.94207   1.95091   1.95973   1.97072
 Alpha virt. eigenvalues --    1.98386   2.00131   2.00690   2.02361   2.03225
 Alpha virt. eigenvalues --    2.03530   2.05097   2.06393   2.07996   2.08665
 Alpha virt. eigenvalues --    2.09940   2.12159   2.13935   2.15342   2.15841
 Alpha virt. eigenvalues --    2.16490   2.16805   2.18231   2.19111   2.19855
 Alpha virt. eigenvalues --    2.21411   2.22537   2.24118   2.25525   2.27409
 Alpha virt. eigenvalues --    2.28565   2.29573   2.30043   2.30723   2.32285
 Alpha virt. eigenvalues --    2.32977   2.33222   2.34109   2.35090   2.35769
 Alpha virt. eigenvalues --    2.35907   2.37068   2.40075   2.40506   2.42807
 Alpha virt. eigenvalues --    2.43902   2.45377   2.47006   2.48354   2.49579
 Alpha virt. eigenvalues --    2.50550   2.53842   2.54678   2.56179   2.59389
 Alpha virt. eigenvalues --    2.59975   2.62699   2.63369   2.66055   2.67204
 Alpha virt. eigenvalues --    2.68419   2.71280   2.72598   2.73230   2.74755
 Alpha virt. eigenvalues --    2.74970   2.76044   2.77802   2.80427   2.81719
 Alpha virt. eigenvalues --    2.82549   2.84279   2.86457   2.87572   2.88048
 Alpha virt. eigenvalues --    2.88946   2.89494   2.90661   2.91453   2.93319
 Alpha virt. eigenvalues --    2.93728   2.94604   2.95631   2.98977   3.00833
 Alpha virt. eigenvalues --    3.03030   3.03514   3.04575   3.05550   3.06448
 Alpha virt. eigenvalues --    3.09022   3.10809   3.12004   3.13224   3.15255
 Alpha virt. eigenvalues --    3.17715   3.18788   3.20500   3.22567   3.25244
 Alpha virt. eigenvalues --    3.26965   3.28220   3.28869   3.31660   3.33777
 Alpha virt. eigenvalues --    3.34885   3.35735   3.37429   3.37985   3.39006
 Alpha virt. eigenvalues --    3.41051   3.41861   3.42976   3.44166   3.44974
 Alpha virt. eigenvalues --    3.46611   3.48943   3.49702   3.50580   3.51518
 Alpha virt. eigenvalues --    3.52245   3.54740   3.55717   3.56902   3.57303
 Alpha virt. eigenvalues --    3.58865   3.60659   3.60943   3.62625   3.63452
 Alpha virt. eigenvalues --    3.65177   3.65721   3.66693   3.67924   3.69728
 Alpha virt. eigenvalues --    3.70737   3.70935   3.72927   3.73708   3.75319
 Alpha virt. eigenvalues --    3.76158   3.79294   3.81125   3.84325   3.84528
 Alpha virt. eigenvalues --    3.85412   3.86231   3.90916   3.92162   3.93948
 Alpha virt. eigenvalues --    3.97193   4.00681   4.02842   4.05643   4.09198
 Alpha virt. eigenvalues --    4.10813   4.16591   4.18847   4.19695   4.20346
 Alpha virt. eigenvalues --    4.23752   4.24252   4.30191   4.37662   4.39957
 Alpha virt. eigenvalues --    4.52886   4.55376   4.64947   4.72683   4.98164
 Alpha virt. eigenvalues --    5.05301   5.07545   5.12141   5.13464   5.14357
 Alpha virt. eigenvalues --    5.16824   5.21968   5.23490   5.28994   5.31581
 Alpha virt. eigenvalues --    5.32092   5.33563   5.37222   5.39377   5.40780
 Alpha virt. eigenvalues --    5.45909   5.48348   5.50010   5.52706   5.58180
 Alpha virt. eigenvalues --    5.59728   5.64052   5.67658   5.69400   5.78307
 Alpha virt. eigenvalues --    5.96415   6.00131   6.25207   6.78317   6.79921
 Alpha virt. eigenvalues --    6.82217   6.82945   6.85465   6.85730   6.86138
 Alpha virt. eigenvalues --    6.87293   6.89273   6.90435   6.91468   6.92753
 Alpha virt. eigenvalues --    6.96319   6.96793   6.97493   7.01606   7.02613
 Alpha virt. eigenvalues --    7.03393   7.05118   7.06039   7.07895   7.08768
 Alpha virt. eigenvalues --    7.12378   7.14012   7.20404   7.25196   7.27921
 Alpha virt. eigenvalues --    7.30716   7.32553   7.32945   7.35238   7.40425
 Alpha virt. eigenvalues --    7.40654   7.44629   7.48500   7.76036  14.31396
 Alpha virt. eigenvalues --   14.36659  14.45127  23.85445  23.94260  24.00024
 Alpha virt. eigenvalues --   24.04218  24.07415  24.10067  24.11760  24.12488
 Alpha virt. eigenvalues --   24.25446  24.26863  35.70831  50.06133  50.10371
 Alpha virt. eigenvalues --   50.11884  50.12397  50.17322  50.17932  50.20835
 Alpha virt. eigenvalues --  164.02444
          Condensed to atoms (all electrons):
               1          2          3          4          5          6
     1  C   12.045929  -3.324710  -0.349654  -0.722956  -0.993924   0.021808
     2  C   -3.324710  11.572144  -3.903722   2.834763  -1.783602   0.021724
     3  C   -0.349654  -3.903722  13.731383  -6.586811   4.039274   0.321835
     4  C   -0.722956   2.834763  -6.586811  16.393695  -6.507168   0.005402
     5  C   -0.993924  -1.783602   4.039274  -6.507168  11.386215  -0.007127
     6  H    0.021808   0.021724   0.321835   0.005402  -0.007127   0.483393
     7  H    0.398163   0.007724   0.021033  -0.005626   0.004317  -0.000145
     8  H    0.003530  -0.004930   0.053104   0.257901   0.042531  -0.004118
     9  H    0.001251   0.028148  -0.057374   0.077025   0.323756  -0.000103
    10  C    0.287492  -0.083789  -0.888149   0.147245  -0.118960  -0.009240
    11  H    0.166209  -0.193231  -0.036966  -0.013211   0.008785  -0.000067
    12  H    0.001422  -0.009604  -0.030204  -0.000145  -0.006524   0.000602
    13  H   -0.075812  -0.118070   0.145627  -0.000006   0.014219   0.000833
    14  N   -0.474077   0.271364  -0.204841   0.381705  -0.073675   0.000698
    15  C   -0.116658  -0.280615   0.128713  -0.300646   0.094816  -0.000518
    16  H   -0.000827   0.000228   0.001943  -0.001399  -0.004912  -0.000001
    17  H    0.020853   0.029909  -0.013254   0.010845  -0.028413  -0.000003
    18  C    0.124427   0.148824  -0.120472   0.235258  -0.323855   0.000048
    19  H    0.001790   0.002355  -0.005562   0.018057  -0.031273  -0.000001
    20  H   -0.000382  -0.000972   0.001802  -0.004408   0.012200   0.000000
    21  C   -0.189625  -0.054178   0.110290  -0.167216   0.491607   0.000180
    22  H    0.003960  -0.001101  -0.000039   0.001419   0.001027   0.000000
    23  H   -0.012497   0.003518  -0.000170  -0.003996  -0.001356  -0.000000
    24  C   -0.017094   0.171558  -0.258075   0.378367  -0.564773  -0.000655
    25  O    0.113532  -0.071544   0.083428  -0.206397   0.187594  -0.000075
    26  O   -0.083238   0.057016  -0.044870   0.034997  -0.009282   0.000104
    27  P    0.106023  -0.079323   0.020872  -0.010394  -0.032067   0.000373
    28  O   -0.064585  -0.050838   0.157587  -0.114898   0.046914  -0.013734
    29  O    0.003543   0.031947  -0.016180  -0.007866  -0.014740   0.000525
    30  H   -0.001656  -0.001256  -0.002602   0.003254   0.002070   0.000059
    31  O    0.019141  -0.020933  -0.060815   0.042400   0.007251   0.000100
    32  H   -0.033826   0.031201  -0.043788   0.095555  -0.037655   0.000032
    33  O   -0.038959  -0.014960  -0.007897   0.048000  -0.001520  -0.000119
    34  H    0.012194  -0.011619   0.015810  -0.020618   0.012639  -0.000046
    35  O   -0.344824   0.138228  -0.028298  -0.027892   0.113601  -0.000229
    36  H    0.044234   0.017736  -0.033607   0.010215  -0.018896   0.000157
    37  H    0.122542  -0.112432   0.040105  -0.016095  -0.008409  -0.000013
               7          8          9         10         11         12
     1  C    0.398163   0.003530   0.001251   0.287492   0.166209   0.001422
     2  C    0.007724  -0.004930   0.028148  -0.083789  -0.193231  -0.009604
     3  C    0.021033   0.053104  -0.057374  -0.888149  -0.036966  -0.030204
     4  C   -0.005626   0.257901   0.077025   0.147245  -0.013211  -0.000145
     5  C    0.004317   0.042531   0.323756  -0.118960   0.008785  -0.006524
     6  H   -0.000145  -0.004118  -0.000103  -0.009240  -0.000067   0.000602
     7  H    0.469506   0.000020  -0.000131  -0.005983   0.003993   0.000343
     8  H    0.000020   0.488291  -0.004774  -0.000558   0.000018   0.000012
     9  H   -0.000131  -0.004774   0.491638   0.002491  -0.000003  -0.000001
    10  C   -0.005983  -0.000558   0.002491   6.271387   0.422382   0.408637
    11  H    0.003993   0.000018  -0.000003   0.422382   0.488012  -0.022016
    12  H    0.000343   0.000012  -0.000001   0.408637  -0.022016   0.498173
    13  H   -0.000189   0.000004  -0.000001   0.402531  -0.017752  -0.027395
    14  N   -0.055763   0.002727  -0.037953  -0.049266   0.001258  -0.001364
    15  C   -0.012737   0.001828   0.025335  -0.004855   0.005300  -0.001205
    16  H    0.000589  -0.000011   0.000564  -0.001409  -0.000002  -0.000003
    17  H    0.005877   0.000011   0.000017   0.005571  -0.000033  -0.000001
    18  C    0.003370   0.000117  -0.009984  -0.001794  -0.001053   0.000109
    19  H    0.000033   0.000010   0.005117   0.000449  -0.000000  -0.000000
    20  H   -0.000039   0.000000  -0.000470  -0.000153   0.000000  -0.000000
    21  C   -0.004724   0.000347  -0.004195   0.005174   0.000958  -0.000141
    22  H   -0.000007  -0.000000  -0.000023   0.000095  -0.000000   0.000000
    23  H    0.000001   0.000002   0.000015   0.000533  -0.000006   0.000000
    24  C    0.002258  -0.001622   0.011620   0.000420  -0.000086  -0.000053
    25  O   -0.000762   0.000007  -0.029302   0.000105  -0.000054   0.000012
    26  O    0.000487  -0.000253  -0.000165   0.007235   0.000005  -0.000001
    27  P    0.000484  -0.001523   0.001009  -0.001771   0.000120   0.000915
    28  O   -0.000352   0.001266  -0.000206  -0.024965  -0.002242   0.000784
    29  O    0.000002  -0.000180   0.000026  -0.000335  -0.000008  -0.000000
    30  H    0.000000  -0.000021   0.000000   0.001229   0.000000   0.000000
    31  O   -0.000038  -0.011324  -0.000932   0.011993  -0.000023  -0.000014
    32  H    0.000051  -0.000536   0.000883   0.000721  -0.000000  -0.000002
    33  O    0.000053  -0.000007  -0.000023   0.002572   0.000076   0.000007
    34  H   -0.000037   0.000072  -0.000011  -0.001325   0.000005  -0.000001
    35  O   -0.024528  -0.000039  -0.000232   0.016395   0.000625  -0.000257
    36  H    0.001969   0.000012   0.000028   0.008179  -0.000789   0.000134
    37  H    0.001324   0.000020   0.000030  -0.005423   0.000768   0.000026
              13         14         15         16         17         18
     1  C   -0.075812  -0.474077  -0.116658  -0.000827   0.020853   0.124427
     2  C   -0.118070   0.271364  -0.280615   0.000228   0.029909   0.148824
     3  C    0.145627  -0.204841   0.128713   0.001943  -0.013254  -0.120472
     4  C   -0.000006   0.381705  -0.300646  -0.001399   0.010845   0.235258
     5  C    0.014219  -0.073675   0.094816  -0.004912  -0.028413  -0.323855
     6  H    0.000833   0.000698  -0.000518  -0.000001  -0.000003   0.000048
     7  H   -0.000189  -0.055763  -0.012737   0.000589   0.005877   0.003370
     8  H    0.000004   0.002727   0.001828  -0.000011   0.000011   0.000117
     9  H   -0.000001  -0.037953   0.025335   0.000564   0.000017  -0.009984
    10  C    0.402531  -0.049266  -0.004855  -0.001409   0.005571  -0.001794
    11  H   -0.017752   0.001258   0.005300  -0.000002  -0.000033  -0.001053
    12  H   -0.027395  -0.001364  -0.001205  -0.000003  -0.000001   0.000109
    13  H    0.455433  -0.000158   0.000437  -0.000000  -0.000006  -0.000001
    14  N   -0.000158   6.670244   0.193304  -0.057711  -0.068192  -0.078908
    15  C    0.000437   0.193304   5.999562   0.438008   0.432170  -0.178351
    16  H   -0.000000  -0.057711   0.438008   0.497462  -0.024496  -0.036964
    17  H   -0.000006  -0.068192   0.432170  -0.024496   0.478487  -0.017681
    18  C   -0.000001  -0.078908  -0.178351  -0.036964  -0.017681   5.828187
    19  H   -0.000000  -0.001293  -0.060945  -0.003534   0.004484   0.481945
    20  H    0.000000   0.005496  -0.030959  -0.004970  -0.003799   0.424547
    21  C   -0.000283  -0.042348  -0.144798   0.005928  -0.024267  -0.260626
    22  H   -0.000000   0.001728   0.015710  -0.000188   0.000080  -0.056815
    23  H    0.000000  -0.000186   0.005254  -0.000234   0.000808  -0.036132
    24  C    0.000116   0.094776   0.083333   0.003244   0.002070   0.186291
    25  O   -0.000079  -0.073943  -0.013939  -0.000284   0.000011  -0.077510
    26  O    0.000028   0.013400   0.008702  -0.000008   0.000116   0.020371
    27  P   -0.002794  -0.007287  -0.002507  -0.000081  -0.000128   0.002028
    28  O    0.003467   0.000343  -0.004477   0.000015  -0.000027   0.001382
    29  O   -0.000307  -0.000052  -0.000288  -0.000000   0.000001   0.000551
    30  H   -0.000011  -0.000023   0.000074  -0.000000  -0.000000  -0.000087
    31  O   -0.000106  -0.010306   0.001626  -0.000003  -0.000011  -0.008730
    32  H   -0.000003   0.004374   0.003369   0.000002  -0.000024  -0.002774
    33  O    0.000126   0.002204   0.002138  -0.000000  -0.000007  -0.000703
    34  H    0.000017  -0.003116  -0.000076   0.000001  -0.000005  -0.002289
    35  O   -0.001671   0.078610  -0.001450   0.000118  -0.000440  -0.001872
    36  H    0.000183  -0.011261  -0.002119  -0.000018  -0.000007   0.003366
    37  H    0.000035  -0.010362   0.009779  -0.000058  -0.000771  -0.015177
              19         20         21         22         23         24
     1  C    0.001790  -0.000382  -0.189625   0.003960  -0.012497  -0.017094
     2  C    0.002355  -0.000972  -0.054178  -0.001101   0.003518   0.171558
     3  C   -0.005562   0.001802   0.110290  -0.000039  -0.000170  -0.258075
     4  C    0.018057  -0.004408  -0.167216   0.001419  -0.003996   0.378367
     5  C   -0.031273   0.012200   0.491607   0.001027  -0.001356  -0.564773
     6  H   -0.000001   0.000000   0.000180   0.000000  -0.000000  -0.000655
     7  H    0.000033  -0.000039  -0.004724  -0.000007   0.000001   0.002258
     8  H    0.000010   0.000000   0.000347  -0.000000   0.000002  -0.001622
     9  H    0.005117  -0.000470  -0.004195  -0.000023   0.000015   0.011620
    10  C    0.000449  -0.000153   0.005174   0.000095   0.000533   0.000420
    11  H   -0.000000   0.000000   0.000958  -0.000000  -0.000006  -0.000086
    12  H   -0.000000  -0.000000  -0.000141   0.000000   0.000000  -0.000053
    13  H   -0.000000   0.000000  -0.000283  -0.000000   0.000000   0.000116
    14  N   -0.001293   0.005496  -0.042348   0.001728  -0.000186   0.094776
    15  C   -0.060945  -0.030959  -0.144798   0.015710   0.005254   0.083333
    16  H   -0.003534  -0.004970   0.005928  -0.000188  -0.000234   0.003244
    17  H    0.004484  -0.003799  -0.024267   0.000080   0.000808   0.002070
    18  C    0.481945   0.424547  -0.260626  -0.056815  -0.036132   0.186291
    19  H    0.493407  -0.030260  -0.042964  -0.002184   0.004387  -0.003493
    20  H   -0.030260   0.506705  -0.048696  -0.005217  -0.003631   0.010616
    21  C   -0.042964  -0.048696   6.701329   0.444250   0.457991  -0.655467
    22  H   -0.002184  -0.005217   0.444250   0.490021  -0.024156  -0.069127
    23  H    0.004387  -0.003631   0.457991  -0.024156   0.477512  -0.052683
    24  C   -0.003493   0.010616  -0.655467  -0.069127  -0.052683   5.752729
    25  O   -0.003801   0.000376  -0.000290   0.003796   0.006730   0.124947
    26  O   -0.001054  -0.000497  -0.204227   0.005151  -0.012152   0.369539
    27  P    0.000168   0.000110  -0.004926  -0.000007  -0.000617  -0.051520
    28  O   -0.000012   0.000003  -0.007105   0.000013   0.000053   0.004360
    29  O    0.000001  -0.000000  -0.002224   0.000001  -0.000001  -0.005559
    30  H    0.000000   0.000000  -0.000064  -0.000000   0.000000  -0.000745
    31  O    0.000144  -0.000005  -0.007602   0.000111  -0.000030  -0.016003
    32  H   -0.000207   0.000015   0.033052  -0.000406   0.000140   0.026245
    33  O    0.000001  -0.000001   0.010778   0.000068   0.000089   0.012337
    34  H   -0.000001  -0.000002   0.006225  -0.000237  -0.000106   0.014239
    35  O   -0.000160   0.000013  -0.006771   0.000367   0.000044  -0.017557
    36  H    0.000010   0.000001  -0.001585  -0.000018  -0.000016  -0.006813
    37  H    0.000060   0.000013   0.004436  -0.000252  -0.000605   0.050663
              25         26         27         28         29         30
     1  C    0.113532  -0.083238   0.106023  -0.064585   0.003543  -0.001656
     2  C   -0.071544   0.057016  -0.079323  -0.050838   0.031947  -0.001256
     3  C    0.083428  -0.044870   0.020872   0.157587  -0.016180  -0.002602
     4  C   -0.206397   0.034997  -0.010394  -0.114898  -0.007866   0.003254
     5  C    0.187594  -0.009282  -0.032067   0.046914  -0.014740   0.002070
     6  H   -0.000075   0.000104   0.000373  -0.013734   0.000525   0.000059
     7  H   -0.000762   0.000487   0.000484  -0.000352   0.000002   0.000000
     8  H    0.000007  -0.000253  -0.001523   0.001266  -0.000180  -0.000021
     9  H   -0.029302  -0.000165   0.001009  -0.000206   0.000026   0.000000
    10  C    0.000105   0.007235  -0.001771  -0.024965  -0.000335   0.001229
    11  H   -0.000054   0.000005   0.000120  -0.002242  -0.000008   0.000000
    12  H    0.000012  -0.000001   0.000915   0.000784  -0.000000   0.000000
    13  H   -0.000079   0.000028  -0.002794   0.003467  -0.000307  -0.000011
    14  N   -0.073943   0.013400  -0.007287   0.000343  -0.000052  -0.000023
    15  C   -0.013939   0.008702  -0.002507  -0.004477  -0.000288   0.000074
    16  H   -0.000284  -0.000008  -0.000081   0.000015  -0.000000  -0.000000
    17  H    0.000011   0.000116  -0.000128  -0.000027   0.000001  -0.000000
    18  C   -0.077510   0.020371   0.002028   0.001382   0.000551  -0.000087
    19  H   -0.003801  -0.001054   0.000168  -0.000012   0.000001   0.000000
    20  H    0.000376  -0.000497   0.000110   0.000003  -0.000000   0.000000
    21  C   -0.000290  -0.204227  -0.004926  -0.007105  -0.002224  -0.000064
    22  H    0.003796   0.005151  -0.000007   0.000013   0.000001  -0.000000
    23  H    0.006730  -0.012152  -0.000617   0.000053  -0.000001   0.000000
    24  C    0.124947   0.369539  -0.051520   0.004360  -0.005559  -0.000745
    25  O    8.518715   0.008135   0.053182  -0.011382   0.005605   0.000039
    26  O    0.008135   8.459196   0.036591   0.000127   0.006541   0.000018
    27  P    0.053182   0.036591  12.506029   0.398959   0.201684   0.009871
    28  O   -0.011382   0.000127   0.398959   8.434494  -0.010520  -0.013804
    29  O    0.005605   0.006541   0.201684  -0.010520   8.028864   0.229425
    30  H    0.000039   0.000018   0.009871  -0.013804   0.229425   0.469582
    31  O    0.002271  -0.016488   0.314442  -0.035411   0.026978  -0.004112
    32  H    0.025993  -0.010302   0.000951  -0.011611  -0.007768   0.001232
    33  O   -0.021478   0.000101   0.264063  -0.001412  -0.008346  -0.001928
    34  H    0.005422   0.014162   0.001673  -0.001788  -0.004925   0.000176
    35  O   -0.000299   0.063511  -0.030907   0.002975   0.000458   0.000040
    36  H   -0.000659   0.001895   0.015558   0.015810   0.000797  -0.000019
    37  H   -0.009357  -0.024634   0.002654  -0.002741  -0.000595   0.000005
              31         32         33         34         35         36
     1  C    0.019141  -0.033826  -0.038959   0.012194  -0.344824   0.044234
     2  C   -0.020933   0.031201  -0.014960  -0.011619   0.138228   0.017736
     3  C   -0.060815  -0.043788  -0.007897   0.015810  -0.028298  -0.033607
     4  C    0.042400   0.095555   0.048000  -0.020618  -0.027892   0.010215
     5  C    0.007251  -0.037655  -0.001520   0.012639   0.113601  -0.018896
     6  H    0.000100   0.000032  -0.000119  -0.000046  -0.000229   0.000157
     7  H   -0.000038   0.000051   0.000053  -0.000037  -0.024528   0.001969
     8  H   -0.011324  -0.000536  -0.000007   0.000072  -0.000039   0.000012
     9  H   -0.000932   0.000883  -0.000023  -0.000011  -0.000232   0.000028
    10  C    0.011993   0.000721   0.002572  -0.001325   0.016395   0.008179
    11  H   -0.000023  -0.000000   0.000076   0.000005   0.000625  -0.000789
    12  H   -0.000014  -0.000002   0.000007  -0.000001  -0.000257   0.000134
    13  H   -0.000106  -0.000003   0.000126   0.000017  -0.001671   0.000183
    14  N   -0.010306   0.004374   0.002204  -0.003116   0.078610  -0.011261
    15  C    0.001626   0.003369   0.002138  -0.000076  -0.001450  -0.002119
    16  H   -0.000003   0.000002  -0.000000   0.000001   0.000118  -0.000018
    17  H   -0.000011  -0.000024  -0.000007  -0.000005  -0.000440  -0.000007
    18  C   -0.008730  -0.002774  -0.000703  -0.002289  -0.001872   0.003366
    19  H    0.000144  -0.000207   0.000001  -0.000001  -0.000160   0.000010
    20  H   -0.000005   0.000015  -0.000001  -0.000002   0.000013   0.000001
    21  C   -0.007602   0.033052   0.010778   0.006225  -0.006771  -0.001585
    22  H    0.000111  -0.000406   0.000068  -0.000237   0.000367  -0.000018
    23  H   -0.000030   0.000140   0.000089  -0.000106   0.000044  -0.000016
    24  C   -0.016003   0.026245   0.012337   0.014239  -0.017557  -0.006813
    25  O    0.002271   0.025993  -0.021478   0.005422  -0.000299  -0.000659
    26  O   -0.016488  -0.010302   0.000101   0.014162   0.063511   0.001895
    27  P    0.314442   0.000951   0.264063   0.001673  -0.030907   0.015558
    28  O   -0.035411  -0.011611  -0.001412  -0.001788   0.002975   0.015810
    29  O    0.026978  -0.007768  -0.008346  -0.004925   0.000458   0.000797
    30  H   -0.004112   0.001232  -0.001928   0.000176   0.000040  -0.000019
    31  O    8.218775   0.182748  -0.004669  -0.007419   0.001211   0.000148
    32  H    0.182748   0.302998   0.002805   0.004877  -0.002517   0.000263
    33  O   -0.004669   0.002805   8.174634   0.212445   0.021386  -0.002001
    34  H   -0.007419   0.004877   0.212445   0.260504  -0.022567  -0.000298
    35  O    0.001211  -0.002517   0.021386  -0.022567   8.041431   0.311705
    36  H    0.000148   0.000263  -0.002001  -0.000298   0.311705   0.379096
    37  H    0.000367   0.001024  -0.010488   0.014590   0.239693  -0.012634
              37
     1  C    0.122542
     2  C   -0.112432
     3  C    0.040105
     4  C   -0.016095
     5  C   -0.008409
     6  H   -0.000013
     7  H    0.001324
     8  H    0.000020
     9  H    0.000030
    10  C   -0.005423
    11  H    0.000768
    12  H    0.000026
    13  H    0.000035
    14  N   -0.010362
    15  C    0.009779
    16  H   -0.000058
    17  H   -0.000771
    18  C   -0.015177
    19  H    0.000060
    20  H    0.000013
    21  C    0.004436
    22  H   -0.000252
    23  H   -0.000605
    24  C    0.050663
    25  O   -0.009357
    26  O   -0.024634
    27  P    0.002654
    28  O   -0.002741
    29  O   -0.000595
    30  H    0.000005
    31  O    0.000367
    32  H    0.001024
    33  O   -0.010488
    34  H    0.014590
    35  O    0.239693
    36  H   -0.012634
    37  H    0.407928
 Mulliken charges:
               1
     1  C   -0.652736
     2  C    0.753043
     3  C   -0.179456
     4  C   -0.258356
     5  C   -0.220683
     6  H    0.178322
     7  H    0.189462
     8  H    0.178064
     9  H    0.176933
    10  C   -0.804860
    11  H    0.189026
    12  H    0.187756
    13  H    0.221586
    14  N    0.539854
    15  C   -0.292317
    16  H    0.189012
    17  H    0.190251
    18  C   -0.229042
    19  H    0.174327
    20  H    0.172565
    21  C   -0.398222
    22  H    0.191979
    23  H    0.191498
    24  C    0.421596
    25  O   -0.618739
    26  O   -0.700258
    27  P    1.288091
    28  O   -0.696444
    29  O   -0.457056
    30  H    0.309252
    31  O   -0.624733
    32  H    0.432889
    33  O   -0.639366
    34  H    0.501434
    35  O   -0.517903
    36  H    0.279246
    37  H    0.333982
 Sum of Mulliken charges =  -0.00000
 Mulliken charges with hydrogens summed into heavy atoms:
               1
     1  C   -0.463274
     2  C    0.753043
     3  C   -0.001134
     4  C   -0.080292
     5  C   -0.043749
    10  C   -0.206492
    14  N    0.539854
    15  C    0.086946
    18  C    0.117851
    21  C   -0.014745
    24  C    0.421596
    25  O   -0.618739
    26  O   -0.700258
    27  P    1.288091
    28  O   -0.696444
    29  O   -0.147804
    31  O   -0.191844
    33  O   -0.137931
    35  O    0.095325
         Mulliken charges condensed to fragments:
      1     -0.209394
      2      0.114069
      3      0.095325
 Electronic spatial extent (au):  <R**2>=         167613.9528
 Charge=             -0.0000 electrons
 Dipole moment (field-independent basis, Debye):
    X=             -3.0537    Y=             -2.8484    Z=              7.6780  Tot=              8.7401
 Quadrupole moment (field-independent basis, Debye-Ang):
   XX=           -180.3096   YY=           -171.0284   ZZ=             22.6021
   XY=            -58.5056   XZ=             53.8941   YZ=             43.7333
 Traceless Quadrupole moment (field-independent basis, Debye-Ang):
   XX=            -70.7310   YY=            -61.4498   ZZ=            132.1808
   XY=            -58.5056   XZ=             53.8941   YZ=             43.7333
 Octapole moment (field-independent basis, Debye-Ang**2):
  XXX=          -4582.1759  YYY=          -4310.3864  ZZZ=          -1265.0055  XYY=          -2021.6393
  XXY=          -2104.1903  XXZ=           -777.7360  XZZ=             48.8329  YZZ=           -174.4794
  YYZ=           -932.7394  XYZ=            188.4840
 Hexadecapole moment (field-independent basis, Debye-Ang**3):
 XXXX=         -89242.8811 YYYY=         -82994.6199 ZZZZ=         -36377.1804 XXXY=         -49360.8780
 XXXZ=         -32702.4841 YYYX=         -46444.3527 YYYZ=         -33372.2874 ZZZX=         -14238.3112
 ZZZY=         -17020.4850 XXYY=         -36421.1554 XXZZ=         -11919.3669 YYZZ=         -15883.9968
 XXYZ=         -11558.8032 YYXZ=         -12253.0763 ZZXY=          -3921.2106
 N-N= 1.891310406821D+03 E-N=-6.876392704739D+03  KE= 1.310175521297D+03
 No NMR shielding tensors so no spin-rotation constants.
 Leave Link  601 at Thu Dec 15 11:30:17 2022, MaxMem= 13421772800 cpu:               4.4 elap:               0.2
 (Enter /data0/home/software/g16/l122.exe)
 CPIOFr:  IOpCl= 0 IRwI=-1 IRwCP=  731 ICalc= -1 LCPTot=      606674 Len1MO=     1595463 IndFrg=      606674
 CPIOFr:  IOpCl= 0 IRwI=-1 IRwCP=  731 ICalc=  0 LCPTot=      606674 Len1MO=     1595463 IndFrg=     2202137
 Counterpoise: doing calculation for fragment   1 using the basis set of the full-system, NewBq=T
 Leave Link  122 at Thu Dec 15 11:30:17 2022, MaxMem= 13421772800 cpu:               0.6 elap:               0.0
 (Enter /data0/home/software/g16/l301.exe)
 Basis read from rwf:  (5D, 7F)
 No pseudopotential information found on rwf file.
   629 basis functions,   956 primitive gaussians,   667 cartesian basis functions
    48 alpha electrons       48 beta electrons
       nuclear repulsion energy       809.4203504216 Hartrees.
 IExCor= 4336 DFT=T Ex+Corr=M062X ExCW=0 ScaHFX=  0.540000
 ScaDFX=  1.000000  1.000000  1.000000  1.000000 ScalE2=  1.000000  1.000000
 IRadAn=      5 IRanWt=     -1 IRanGd=            0 ICorTp=0 IEmpDi=131
 NAtoms=   37 NActive=   37 NUniq=   37 SFac= 1.00D+00 NAtFMM=   60 NAOKFM=F Big=F
 Integral buffers will be    131072 words long.
 Raffenetti 2 integral format.
 Two-electron integral symmetry is turned off.
 R6Disp:  Grimme-D3 Dispersion energy=       -0.0012184268 Hartrees.
 Nuclear repulsion after empirical dispersion term =      809.4191319948 Hartrees.
 No density basis found on file   718.
 Leave Link  301 at Thu Dec 15 11:30:17 2022, MaxMem= 13421772800 cpu:               1.3 elap:               0.1
 (Enter /data0/home/software/g16/l302.exe)
 NPDir=0 NMtPBC=     1 NCelOv=     1 NCel=       1 NClECP=     1 NCelD=      1
         NCelK=      1 NCelE2=     1 NClLst=     1 CellRange=     0.0.
 One-electron integrals computed using PRISM.
 NBasis=   629 RedAO= T EigKep=  1.62D-06  NBF=   629
 NBsUse=   629 1.00D-06 EigRej= -1.00D+00 NBFU=   629
 Precomputing XC quadrature grid using
 IXCGrd= 4 IRadAn=           5 IRanWt=          -1 IRanGd=           0 AccXCQ= 0.00D+00.
 Generated NRdTot=       0 NPtTot=           0 NUsed=           0 NTot=          32
 NSgBfM=   666   666   666   666   666 MxSgAt=    37 MxSgA2=    37.
 Leave Link  302 at Thu Dec 15 11:30:18 2022, MaxMem= 13421772800 cpu:              17.9 elap:               0.8
 (Enter /data0/home/software/g16/l303.exe)
 DipDrv:  MaxL=1.
 Leave Link  303 at Thu Dec 15 11:30:18 2022, MaxMem= 13421772800 cpu:               1.6 elap:               0.1
 (Enter /data0/home/software/g16/l401.exe)
 ExpMin= 3.48D-02 ExpMax= 7.75D+04 ExpMxC= 2.65D+03 IAcc=3 IRadAn=         5 AccDes= 0.00D+00
 Harris functional with IExCor= 1009 and IRadAn=       5 diagonalized for initial guess.
 HarFok:  IExCor= 1009 AccDes= 0.00D+00 IRadAn=         5 IDoV= 1 UseB2=F ITyADJ=14
 ICtDFT=  3500011 ScaDFX=  1.000000  1.000000  1.000000  1.000000
 FoFCou: FMM=F IPFlag=           0 FMFlag=      100000 FMFlg1=           0
         NFxFlg=           0 DoJE=T BraDBF=F KetDBF=T FulRan=T
         wScrn=  0.000000 ICntrl=       500 IOpCl=  0 I1Cent=   200000004 NGrid=           0
         NMat0=    1 NMatS0=      1 NMatT0=    0 NMatD0=    1 NMtDS0=    0 NMtDT0=    0
 Symmetry not used in FoFCou.
 Harris En= -593.772411564732    
 JPrj=0 DoOrth=F DoCkMO=F.
 Leave Link  401 at Thu Dec 15 11:30:21 2022, MaxMem= 13421772800 cpu:              70.8 elap:               3.0
 (Enter /data0/home/software/g16/l502.exe)
 Two-electron integral symmetry not used.
 Closed shell SCF:
 Using DIIS extrapolation, IDIIS=  1040.
 NGot= 13421772800 LenX= 13420862360 LenY= 13420416804
 Requested convergence on RMS density matrix=1.00D-08 within 128 cycles.
 Requested convergence on MAX density matrix=1.00D-06.
 Requested convergence on             energy=1.00D-06.
 No special actions if energy rises.
 Fock matrices will be formed incrementally for  20 cycles.

 Cycle   1  Pass 1  IDiag  1:
 FoFJK:  IHMeth= 1 ICntrl=       0 DoSepK=F KAlg= 0 I1Cent=           0 FoldK=F
 IRaf= 870000000 NMat=       1 IRICut=       1 DoRegI=T DoRafI=F ISym2E= 0 IDoP0=0 IntGTp=1.
 FoFCou: FMM=F IPFlag=           0 FMFlag=      100000 FMFlg1=           0
         NFxFlg=           0 DoJE=F BraDBF=F KetDBF=F FulRan=T
         wScrn=  0.000000 ICntrl=         0 IOpCl=  0 I1Cent=           0 NGrid=           0
         NMat0=    1 NMatS0=      1 NMatT0=    0 NMatD0=    1 NMtDS0=    0 NMtDT0=    0
 Symmetry not used in FoFCou.
 E= -593.571574882739    
 DIIS: error= 1.26D-02 at cycle   1 NSaved=   1.
 NSaved= 1 IEnMin= 1 EnMin= -593.571574882739     IErMin= 1 ErrMin= 1.26D-02
 ErrMax= 1.26D-02  0.00D+00 EMaxC= 1.00D-01 BMatC= 5.33D-01 BMatP= 5.33D-01
 IDIUse=3 WtCom= 8.74D-01 WtEn= 1.26D-01
 Coeff-Com:  0.100D+01
 Coeff-En:   0.100D+01
 Coeff:      0.100D+01
 Gap=     0.218 Goal=   None    Shift=    0.000
 GapD=    0.218 DampG=1.000 DampE=0.500 DampFc=0.5000 IDamp=-1.
 Damping current iteration by 5.00D-01
 RMSDP=2.99D-02 MaxDP=3.16D+00              OVMax= 7.91D-01

 Cycle   2  Pass 1  IDiag  1:
 RMSU=  1.46D-02    CP:  1.21D+00
 E= -593.549837724141     Delta-E=        0.021737158598 Rises=F Damp=T
 DIIS: error= 6.47D-03 at cycle   2 NSaved=   2.
 NSaved= 2 IEnMin= 1 EnMin= -593.571574882739     IErMin= 2 ErrMin= 6.47D-03
 ErrMax= 6.47D-03  0.00D+00 EMaxC= 1.00D-01 BMatC= 1.17D-01 BMatP= 5.33D-01
 IDIUse=3 WtCom= 9.35D-01 WtEn= 6.47D-02
 Coeff-Com:  0.198D+00 0.802D+00
 Coeff-En:   0.526D+00 0.474D+00
 Coeff:      0.219D+00 0.781D+00
 Gap=    -0.059 Goal=   None    Shift=    0.000
 RMSDP=1.56D-02 MaxDP=1.82D+00 DE= 2.17D-02 OVMax= 6.53D-01

 Cycle   3  Pass 1  IDiag  1:
 RMSU=  3.17D-03    CP:  7.82D-01  4.09D-02
 E= -593.853670788171     Delta-E=       -0.303833064030 Rises=F Damp=F
 DIIS: error= 8.06D-03 at cycle   3 NSaved=   3.
 NSaved= 3 IEnMin= 3 EnMin= -593.853670788171     IErMin= 2 ErrMin= 6.47D-03
 ErrMax= 8.06D-03  0.00D+00 EMaxC= 1.00D-01 BMatC= 1.38D-01 BMatP= 1.17D-01
 IDIUse=3 WtCom= 1.00D-01 WtEn= 9.00D-01
 Coeff-Com: -0.624D-02 0.527D+00 0.480D+00
 Coeff-En:   0.000D+00 0.396D-01 0.960D+00
 Coeff:     -0.625D-03 0.884D-01 0.912D+00
 Gap=     0.271 Goal=   None    Shift=    0.000
 RMSDP=6.44D-03 MaxDP=1.03D+00 DE=-3.04D-01 OVMax= 9.52D-01

 Cycle   4  Pass 1  IDiag  1:
 RMSU=  5.93D-03    CP:  9.28D-01  1.34D-01  1.14D+00
 E= -592.246521541581     Delta-E=        1.607149246590 Rises=F Damp=F
 DIIS: error= 2.91D-02 at cycle   4 NSaved=   4.
 NSaved= 4 IEnMin= 3 EnMin= -593.853670788171     IErMin= 2 ErrMin= 6.47D-03
 ErrMax= 2.91D-02  0.00D+00 EMaxC= 1.00D-01 BMatC= 1.18D+00 BMatP= 1.17D-01
 IDIUse=2 WtCom= 0.00D+00 WtEn= 1.00D+00
 Coeff-En:   0.000D+00 0.000D+00 0.895D+00 0.105D+00
 Coeff:      0.000D+00 0.000D+00 0.895D+00 0.105D+00
 Gap=    -0.041 Goal=   None    Shift=    0.000
 RMSDP=5.69D-03 MaxDP=8.20D-01 DE= 1.61D+00 OVMax= 9.61D-01

 Cycle   5  Pass 1  IDiag  1:
 RMSU=  3.01D-03    CP:  9.36D-01  9.92D-02  8.98D-01  1.99D-01
[...]
     2  C    0.000000
     3  C    0.000000
     4  C    0.000000
     5  C    0.000000
    10  C    0.000000
    14  N    0.000000
    15  C    0.000000
    18  C    0.000000
    21  C    0.000000
    24  C    0.000000
    25  O    0.000000
    26  O    0.000000
    27  P    1.280439
    28  O   -0.615413
    29  O   -0.181733
    31  O   -0.243672
    33  O   -0.239622
    35  O    0.000000
         Mulliken charges condensed to fragments:
      1      0.000000
      2     -0.000000
      3      0.000000
 Electronic spatial extent (au):  <R**2>=          55411.1143
 Charge=             -0.0000 electrons
 Dipole moment (field-independent basis, Debye):
    X=              4.9845    Y=              1.0860    Z=              2.5563  Tot=              5.7061
 Quadrupole moment (field-independent basis, Debye-Ang):
   XX=             66.8183   YY=             -7.6080   ZZ=              4.4583
   XY=             67.1836   XZ=             66.2146   YZ=             34.2974
 Traceless Quadrupole moment (field-independent basis, Debye-Ang):
   XX=             45.5954   YY=            -28.8309   ZZ=            -16.7646
   XY=             67.1836   XZ=             66.2146   YZ=             34.2974
 Octapole moment (field-independent basis, Debye-Ang**2):
  XXX=            477.0509  YYY=           -739.5381  ZZZ=           -307.3104  XYY=            556.7624
  XXY=            832.3215  XXZ=            834.4862  XZZ=            366.4444  YZZ=             41.2305
  YYZ=            203.5306  XYZ=            799.0399
 Hexadecapole moment (field-independent basis, Debye-Ang**3):
 XXXX=          -1245.1201 YYYY=         -21554.7836 ZZZZ=          -6550.3353 XXXY=           5491.2891
 XXXZ=           7502.2022 YYYX=           -332.4355 YYYZ=          -3056.5760 ZZZX=           -572.4007
 ZZZY=          -4119.3484 XXYY=           6918.4737 XXZZ=           5165.2298 YYZZ=          -1584.2835
 XXYZ=           9672.8458 YYXZ=           7114.0836 ZZXY=           3994.3709
 N-N= 2.796950658733D+02 E-N=-2.086980563760D+03  KE= 6.424718658287D+02
 No NMR shielding tensors so no spin-rotation constants.
 Leave Link  601 at Thu Dec 15 11:39:51 2022, MaxMem= 13421772800 cpu:               2.0 elap:               0.1
 (Enter /data0/home/software/g16/l122.exe)
 CPIOFr:  IOpCl= 0 IRwI=-1 IRwCP=  731 ICalc=  5 LCPTot=      606674 Len1MO=     1595463 IndFrg=    10179452
 Counterpoise: doing calculation for fragment   3 using the basis set of the fragment.
 Leave Link  122 at Thu Dec 15 11:39:51 2022, MaxMem= 13421772800 cpu:               0.3 elap:               0.0
 (Enter /data0/home/software/g16/l301.exe)
 Basis read from rwf:  (5D, 7F)
 No pseudopotential information found on rwf file.
    39 basis functions,    58 primitive gaussians,    41 cartesian basis functions
     5 alpha electrons        5 beta electrons
       nuclear repulsion energy         9.0861400280 Hartrees.
 IExCor= 4336 DFT=T Ex+Corr=M062X ExCW=0 ScaHFX=  0.540000
 ScaDFX=  1.000000  1.000000  1.000000  1.000000 ScalE2=  1.000000  1.000000
 IRadAn=      5 IRanWt=     -1 IRanGd=            0 ICorTp=0 IEmpDi=131
 NAtoms=   37 NActive=    3 NUniq=    3 SFac= 1.00D+00 NAtFMM=   60 NAOKFM=F Big=F
 Integral buffers will be    131072 words long.
 Raffenetti 2 integral format.
 Two-electron integral symmetry is turned off.
 R6Disp:  Grimme-D3 Dispersion energy=       -0.0000000070 Hartrees.
 Nuclear repulsion after empirical dispersion term =        9.0861400210 Hartrees.
 No density basis found on file   718.
 Leave Link  301 at Thu Dec 15 11:39:51 2022, MaxMem= 13421772800 cpu:               1.2 elap:               0.1
 (Enter /data0/home/software/g16/l302.exe)
 NPDir=0 NMtPBC=     1 NCelOv=     1 NCel=       1 NClECP=     1 NCelD=      1
         NCelK=      1 NCelE2=     1 NClLst=     1 CellRange=     0.0.
 One-electron integrals computed using PRISM.
 NBasis=    39 RedAO= T EigKep=  2.97D-03  NBF=    39
 NBsUse=    39 1.00D-06 EigRej= -1.00D+00 NBFU=    39
 Precomputing XC quadrature grid using
 IXCGrd= 4 IRadAn=           5 IRanWt=          -1 IRanGd=           0 AccXCQ= 0.00D+00.
 Generated NRdTot=       0 NPtTot=           0 NUsed=           0 NTot=          32
 NSgBfM=    41    41    41    41    41 MxSgAt=     3 MxSgA2=     3.
 Leave Link  302 at Thu Dec 15 11:39:51 2022, MaxMem= 13421772800 cpu:               2.3 elap:               0.1
 (Enter /data0/home/software/g16/l303.exe)
 DipDrv:  MaxL=1.
 Leave Link  303 at Thu Dec 15 11:39:51 2022, MaxMem= 13421772800 cpu:               0.4 elap:               0.0
 (Enter /data0/home/software/g16/l401.exe)
 ExpMin= 8.45D-02 ExpMax= 8.59D+03 ExpMxC= 1.30D+03 IAcc=3 IRadAn=         5 AccDes= 0.00D+00
 Harris functional with IExCor= 1009 and IRadAn=       5 diagonalized for initial guess.
 HarFok:  IExCor= 1009 AccDes= 0.00D+00 IRadAn=         5 IDoV= 1 UseB2=F ITyADJ=14
 ICtDFT=  3500011 ScaDFX=  1.000000  1.000000  1.000000  1.000000
 FoFCou: FMM=F IPFlag=           0 FMFlag=      100000 FMFlg1=           0
         NFxFlg=           0 DoJE=T BraDBF=F KetDBF=T FulRan=T
         wScrn=  0.000000 ICntrl=       500 IOpCl=  0 I1Cent=   200000004 NGrid=           0
         NMat0=    1 NMatS0=      1 NMatT0=    0 NMatD0=    1 NMtDS0=    0 NMtDT0=    0
 Symmetry not used in FoFCou.
 Harris En= -76.4160211961580    
 JPrj=0 DoOrth=F DoCkMO=F.
 Leave Link  401 at Thu Dec 15 11:39:51 2022, MaxMem= 13421772800 cpu:               2.8 elap:               0.1
 (Enter /data0/home/software/g16/l502.exe)
 Keep R1 ints in memory in canonical form, NReq=21044142.
 FoFCou: FMM=F IPFlag=           0 FMFlag=           0 FMFlg1=           0
         NFxFlg=           0 DoJE=F BraDBF=F KetDBF=F FulRan=T
         wScrn=  0.000000 ICntrl=       600 IOpCl=  0 I1Cent=           0 NGrid=           0
         NMat0=    1 NMatS0=    780 NMatT0=    0 NMatD0=    1 NMtDS0=    0 NMtDT0=    0
 Symmetry not used in FoFCou.
 Two-electron integral symmetry not used.
 Closed shell SCF:
 Using DIIS extrapolation, IDIIS=  1040.
 NGot= 13421772800 LenX= 13421462340 LenY= 13421460218
 Requested convergence on RMS density matrix=1.00D-08 within 128 cycles.
 Requested convergence on MAX density matrix=1.00D-06.
 Requested convergence on             energy=1.00D-06.
 No special actions if energy rises.
 Integral accuracy reduced to 1.0D-05 until final iterations.

 Cycle   1  Pass 0  IDiag  1:
 E= -76.3467387837998    
 DIIS: error= 6.96D-02 at cycle   1 NSaved=   1.
 NSaved= 1 IEnMin= 1 EnMin= -76.3467387837998     IErMin= 1 ErrMin= 6.96D-02
 ErrMax= 6.96D-02  0.00D+00 EMaxC= 1.00D-01 BMatC= 1.20D-01 BMatP= 1.20D-01
 IDIUse=3 WtCom= 3.04D-01 WtEn= 6.96D-01
 Coeff-Com:  0.100D+01
 Coeff-En:   0.100D+01
 Coeff:      0.100D+01
 Gap=     0.325 Goal=   None    Shift=    0.000
 GapD=    0.325 DampG=1.000 DampE=0.500 DampFc=0.5000 IDamp=-1.
 Damping current iteration by 5.00D-01
 RMSDP=8.02D-03 MaxDP=1.00D-01              OVMax= 1.67D-01

 Cycle   2  Pass 0  IDiag  1:
 E= -76.3778666515225     Delta-E=       -0.031127867723 Rises=F Damp=T
 DIIS: error= 1.12D-02 at cycle   2 NSaved=   2.
 NSaved= 2 IEnMin= 2 EnMin= -76.3778666515225     IErMin= 2 ErrMin= 1.12D-02
 ErrMax= 1.12D-02  0.00D+00 EMaxC= 1.00D-01 BMatC= 4.85D-03 BMatP= 1.20D-01
 IDIUse=3 WtCom= 8.88D-01 WtEn= 1.12D-01
 Coeff-Com:  0.838D-01 0.916D+00
 Coeff-En:   0.190D+00 0.810D+00
 Coeff:      0.957D-01 0.904D+00
 Gap=     0.457 Goal=   None    Shift=    0.000
 RMSDP=9.56D-04 MaxDP=1.42D-02 DE=-3.11D-02 OVMax= 1.00D-01

 Cycle   3  Pass 0  IDiag  1:
 E= -76.4215600038065     Delta-E=       -0.043693352284 Rises=F Damp=F
 DIIS: error= 2.15D-03 at cycle   3 NSaved=   3.
 NSaved= 3 IEnMin= 3 EnMin= -76.4215600038065     IErMin= 3 ErrMin= 2.15D-03
 ErrMax= 2.15D-03  0.00D+00 EMaxC= 1.00D-01 BMatC= 8.98D-05 BMatP= 4.85D-03
 IDIUse=3 WtCom= 9.79D-01 WtEn= 2.15D-02
 Coeff-Com: -0.199D-01 0.388D-01 0.981D+00
 Coeff-En:   0.000D+00 0.000D+00 0.100D+01
 Coeff:     -0.195D-01 0.379D-01 0.982D+00
 Gap=     0.461 Goal=   None    Shift=    0.000
 RMSDP=1.14D-04 MaxDP=1.00D-03 DE=-4.37D-02 OVMax= 3.32D-03

 Cycle   4  Pass 0  IDiag  1:
 E= -76.4216368363046     Delta-E=       -0.000076832498 Rises=F Damp=F
 DIIS: error= 4.14D-04 at cycle   4 NSaved=   4.
 NSaved= 4 IEnMin= 4 EnMin= -76.4216368363046     IErMin= 4 ErrMin= 4.14D-04
 ErrMax= 4.14D-04  0.00D+00 EMaxC= 1.00D-01 BMatC= 3.23D-06 BMatP= 8.98D-05
 IDIUse=3 WtCom= 9.96D-01 WtEn= 4.14D-03
 Coeff-Com: -0.184D-02-0.235D-02 0.160D+00 0.844D+00
 Coeff-En:   0.000D+00 0.000D+00 0.000D+00 0.100D+01
 Coeff:     -0.184D-02-0.234D-02 0.159D+00 0.845D+00
 Gap=     0.462 Goal=   None    Shift=    0.000
 RMSDP=2.22D-05 MaxDP=3.56D-04 DE=-7.68D-05 OVMax= 5.40D-04

 Cycle   5  Pass 0  IDiag  1:
 E= -76.4216388486385     Delta-E=       -0.000002012334 Rises=F Damp=F
 DIIS: error= 8.82D-05 at cycle   5 NSaved=   5.
 NSaved= 5 IEnMin= 5 EnMin= -76.4216388486385     IErMin= 5 ErrMin= 8.82D-05
 ErrMax= 8.82D-05  0.00D+00 EMaxC= 1.00D-01 BMatC= 8.17D-08 BMatP= 3.23D-06
 IDIUse=1 WtCom= 1.00D+00 WtEn= 0.00D+00
 Coeff-Com:  0.118D-02-0.180D-02-0.370D-01-0.605D-01 0.110D+01
 Coeff:      0.118D-02-0.180D-02-0.370D-01-0.605D-01 0.110D+01
 Gap=     0.462 Goal=   None    Shift=    0.000
 RMSDP=9.00D-06 MaxDP=1.01D-04 DE=-2.01D-06 OVMax= 2.03D-04

 Initial convergence to 1.0D-05 achieved.  Increase integral accuracy.
 Cycle   6  Pass 1  IDiag  1:
 E= -76.4216309387770     Delta-E=        0.000007909862 Rises=F Damp=F
 DIIS: error= 1.51D-05 at cycle   1 NSaved=   1.
 NSaved= 1 IEnMin= 1 EnMin= -76.4216309387770     IErMin= 1 ErrMin= 1.51D-05
 ErrMax= 1.51D-05  0.00D+00 EMaxC= 1.00D-01 BMatC= 1.29D-08 BMatP= 1.29D-08
 IDIUse=1 WtCom= 1.00D+00 WtEn= 0.00D+00
 Coeff-Com:  0.100D+01
 Coeff:      0.100D+01
 Gap=     0.462 Goal=   None    Shift=    0.000
 RMSDP=9.00D-06 MaxDP=1.01D-04 DE= 7.91D-06 OVMax= 4.70D-05

 Cycle   7  Pass 1  IDiag  1:
 E= -76.4216309490377     Delta-E=       -0.000000010261 Rises=F Damp=F
 DIIS: error= 1.22D-05 at cycle   2 NSaved=   2.
 NSaved= 2 IEnMin= 2 EnMin= -76.4216309490377     IErMin= 2 ErrMin= 1.22D-05
 ErrMax= 1.22D-05  0.00D+00 EMaxC= 1.00D-01 BMatC= 2.27D-09 BMatP= 1.29D-08
 IDIUse=1 WtCom= 1.00D+00 WtEn= 0.00D+00
 Coeff-Com:  0.166D+00 0.834D+00
 Coeff:      0.166D+00 0.834D+00
 Gap=     0.462 Goal=   None    Shift=    0.000
 RMSDP=9.14D-07 MaxDP=1.50D-05 DE=-1.03D-08 OVMax= 2.37D-05

 Cycle   8  Pass 1  IDiag  1:
 E= -76.4216309497859     Delta-E=       -0.000000000748 Rises=F Damp=F
 DIIS: error= 7.34D-06 at cycle   3 NSaved=   3.
 NSaved= 3 IEnMin= 3 EnMin= -76.4216309497859     IErMin= 3 ErrMin= 7.34D-06
 ErrMax= 7.34D-06  0.00D+00 EMaxC= 1.00D-01 BMatC= 1.45D-09 BMatP= 2.27D-09
 IDIUse=1 WtCom= 1.00D+00 WtEn= 0.00D+00
 Coeff-Com: -0.555D-01 0.452D+00 0.604D+00
 Coeff:     -0.555D-01 0.452D+00 0.604D+00
 Gap=     0.462 Goal=   None    Shift=    0.000
 RMSDP=4.30D-07 MaxDP=5.85D-06 DE=-7.48D-10 OVMax= 1.06D-05

 Cycle   9  Pass 1  IDiag  1:
 E= -76.4216309507574     Delta-E=       -0.000000000972 Rises=F Damp=F
 DIIS: error= 5.01D-07 at cycle   4 NSaved=   4.
 NSaved= 4 IEnMin= 4 EnMin= -76.4216309507574     IErMin= 4 ErrMin= 5.01D-07
 ErrMax= 5.01D-07  0.00D+00 EMaxC= 1.00D-01 BMatC= 3.79D-12 BMatP= 1.45D-09
 IDIUse=1 WtCom= 1.00D+00 WtEn= 0.00D+00
 Coeff-Com: -0.212D-02-0.187D-01-0.117D-01 0.103D+01
 Coeff:     -0.212D-02-0.187D-01-0.117D-01 0.103D+01
 Gap=     0.462 Goal=   None    Shift=    0.000
 RMSDP=6.89D-08 MaxDP=6.08D-07 DE=-9.72D-10 OVMax= 1.46D-06

 Cycle  10  Pass 1  IDiag  1:
 E= -76.4216309507647     Delta-E=       -0.000000000007 Rises=F Damp=F
 DIIS: error= 8.92D-08 at cycle   5 NSaved=   5.
 NSaved= 5 IEnMin= 5 EnMin= -76.4216309507647     IErMin= 5 ErrMin= 8.92D-08
 ErrMax= 8.92D-08  0.00D+00 EMaxC= 1.00D-01 BMatC= 2.80D-13 BMatP= 3.79D-12
 IDIUse=1 WtCom= 1.00D+00 WtEn= 0.00D+00
 Coeff-Com:  0.331D-02-0.342D-01-0.421D-01 0.104D+00 0.969D+00
 Coeff:      0.331D-02-0.342D-01-0.421D-01 0.104D+00 0.969D+00
 Gap=     0.462 Goal=   None    Shift=    0.000
 RMSDP=2.20D-08 MaxDP=1.78D-07 DE=-7.25D-12 OVMax= 5.04D-07

 Cycle  11  Pass 1  IDiag  1:
 E= -76.4216309507652     Delta-E=       -0.000000000001 Rises=F Damp=F
 DIIS: error= 1.74D-08 at cycle   6 NSaved=   6.
 NSaved= 6 IEnMin= 6 EnMin= -76.4216309507652     IErMin= 6 ErrMin= 1.74D-08
 ErrMax= 1.74D-08  0.00D+00 EMaxC= 1.00D-01 BMatC= 4.90D-15 BMatP= 2.80D-13
 IDIUse=1 WtCom= 1.00D+00 WtEn= 0.00D+00
 Coeff-Com: -0.146D-03 0.246D-02 0.378D-02-0.339D-01-0.621D-01 0.109D+01
 Coeff:     -0.146D-03 0.246D-02 0.378D-02-0.339D-01-0.621D-01 0.109D+01
 Gap=     0.462 Goal=   None    Shift=    0.000
 RMSDP=3.26D-09 MaxDP=2.33D-08 DE=-5.26D-13 OVMax= 6.12D-08

 SCF Done:  E(RM062X) =  -76.4216309508     A.U. after   11 cycles
            NFock= 11  Conv=0.33D-08     -V/T= 2.0030
 KE= 7.619091944979D+01 PE=-1.990173029101D+02 EE= 3.731861248850D+01
 Leave Link  502 at Thu Dec 15 11:39:51 2022, MaxMem= 13421772800 cpu:               8.5 elap:               0.4
 (Enter /data0/home/software/g16/l601.exe)
 Copying SCF densities to generalized density rwf, IOpCl= 0 IROHF=0.

 **********************************************************************

            Population analysis using the SCF density.

 **********************************************************************

 Alpha  occ. eigenvalues --  -19.62734  -1.13398  -0.60234  -0.47905  -0.40019
 Alpha virt. eigenvalues --    0.06180   0.13301   0.17438   0.17937   0.18878
 Alpha virt. eigenvalues --    0.23500   0.50759   0.53424   0.98270   1.00273
 Alpha virt. eigenvalues --    1.05985   1.16693   1.20370   1.31556   1.34080
 Alpha virt. eigenvalues --    1.71160   1.74465   1.74991   2.07013   2.09972
 Alpha virt. eigenvalues --    2.35741   2.39149   2.55316   2.87361   3.01358
 Alpha virt. eigenvalues --    5.05589   5.49604   5.89549   6.78649   6.79866
 Alpha virt. eigenvalues --    6.87279   6.91990   7.09390  49.95364
          Condensed to atoms (all electrons):
              35         36         37
    35  O    7.919647   0.315836   0.314338
    36  H    0.315836   0.433206  -0.023295
    37  H    0.314338  -0.023295   0.433387
 Mulliken charges:
               1
     1  C    0.000000
     2  C    0.000000
     3  C    0.000000
     4  C    0.000000
     5  C    0.000000
     6  H    0.000000
     7  H    0.000000
     8  H    0.000000
     9  H    0.000000
    10  C    0.000000
    11  H    0.000000
    12  H    0.000000
    13  H    0.000000
    14  N    0.000000
    15  C    0.000000
    16  H    0.000000
    17  H    0.000000
    18  C    0.000000
    19  H    0.000000
    20  H    0.000000
    21  C    0.000000
    22  H    0.000000
    23  H    0.000000
    24  C    0.000000
    25  O    0.000000
    26  O    0.000000
    27  P    0.000000
    28  O    0.000000
    29  O    0.000000
    30  H    0.000000
    31  O    0.000000
    32  H    0.000000
    33  O    0.000000
    34  H    0.000000
    35  O   -0.549821
    36  H    0.274252
    37  H    0.275569
 Sum of Mulliken charges =  -0.00000
 Mulliken charges with hydrogens summed into heavy atoms:
               1
     1  C    0.000000
     2  C    0.000000
     3  C    0.000000
     4  C    0.000000
     5  C    0.000000
    10  C    0.000000
    14  N    0.000000
    15  C    0.000000
    18  C    0.000000
    21  C    0.000000
    24  C    0.000000
    25  O    0.000000
    26  O    0.000000
    27  P    0.000000
    28  O    0.000000
    29  O    0.000000
    31  O    0.000000
    33  O    0.000000
    35  O   -0.000000
         Mulliken charges condensed to fragments:
      1      0.000000
      2      0.000000
      3     -0.000000
 Electronic spatial extent (au):  <R**2>=           8511.5631
 Charge=             -0.0000 electrons
 Dipole moment (field-independent basis, Debye):
    X=              0.6969    Y=              2.0010    Z=             -0.3830  Tot=              2.1533
 Quadrupole moment (field-independent basis, Debye-Ang):
   XX=              9.5851   YY=             26.3695   ZZ=            -13.0128
   XY=             26.6388   XZ=              2.5565   YZ=             11.8896
 Traceless Quadrupole moment (field-independent basis, Debye-Ang):
   XX=              1.9378   YY=             18.7223   ZZ=            -20.6600
   XY=             26.6388   XZ=              2.5565   YZ=             11.8896
 Octapole moment (field-independent basis, Debye-Ang**2):
  XXX=             71.8095  YYY=            246.9871  ZZZ=           -234.4762  XYY=            321.8832
  XXY=            298.4942  XXZ=             56.7824  XZZ=            -76.7619  YZZ=              6.8178
  YYZ=            170.3143  XYZ=            178.3970
 Hexadecapole moment (field-independent basis, Debye-Ang**3):
 XXXX=           -104.0031 YYYY=           1868.1994 ZZZZ=          -3299.7742 XXXY=           2911.7228
 XXXZ=            503.0675 YYYX=           2949.2680 YYYZ=           1595.2068 ZZZX=          -1930.8768
 ZZZY=          -1060.0164 XXYY=           3528.5378 XXZZ=           -482.8655 YYZZ=            589.9929
 XXYZ=           2123.2834 YYXZ=           2221.1290 ZZXY=            561.7604
 N-N= 9.086140021023D+00 E-N=-1.990173031638D+02  KE= 7.619091944979D+01
 No NMR shielding tensors so no spin-rotation constants.
 Leave Link  601 at Thu Dec 15 11:39:52 2022, MaxMem= 13421772800 cpu:               1.8 elap:               0.1
 (Enter /data0/home/software/g16/l122.exe)
 CPIOFr:  IOpCl= 0 IRwI=-1 IRwCP=  731 ICalc=  6 LCPTot=      606674 Len1MO=     1595463 IndFrg=    11774915
 Restoring MOs from calculation   1 to rwf.
 CPIOFr:  IOpCl= 0 IRwI=-2 IRwCP=  731 ICalc=  0 LCPTot=      606674 Len1MO=     1595463 IndFrg=     2202137
 Counterpoise corrected energy =   -1314.652939566248
                   BSSE energy =       0.005403998138
              sum of fragments =   -1314.533730210761
           complexation energy =     -78.20 kcal/mole (raw)
           complexation energy =     -74.80 kcal/mole (corrected)
 Leave Link  122 at Thu Dec 15 11:39:52 2022, MaxMem= 13421772800 cpu:               0.5 elap:               0.0
 (Enter /data0/home/software/g16/l9999.exe)
 1\1\GINC-LOCALHOST\SP\RM062X\6-311+G(2d,p)\C10H18N1O7P1\WUHANYU\15-Dec
 -2022\0\\#p M062X/6-311+G(2d,p) nosymm em=GD3 counterpoise=3\\Title Ca
 rd Required\\0,1\C,0,8.889206,8.456952,9.844959\C,0,8.057443,9.24734,9
 .053931\C,0,7.884379,10.601387,9.383892\C,0,8.55709,11.120654,10.48537
 8\C,0,9.387453,10.301424,11.251765\H,0,7.247305,11.242681,8.76278\H,0,
 9.069671,7.399166,9.601678\H,0,8.495539,12.188513,10.720027\H,0,9.9534
 48,10.698119,12.107926\C,0,7.399234,8.663431,7.858645\H,0,7.912587,7.7
 58549,7.490959\H,0,6.350917,8.399405,8.050268\H,0,7.407571,9.374135,7.
 007814\N,0,9.526829,8.984549,10.934053\C,0,10.374871,8.094665,11.76297
 9\H,0,9.839646,7.90991,12.724004\H,0,10.474542,7.105972,11.251318\C,0,
 11.780538,8.651373,12.044836\H,0,11.727197,9.658348,12.512409\H,0,12.2
 63036,8.001163,12.804335\C,0,12.653351,8.716866,10.797823\H,0,13.71749
 1,8.864534,11.069533\H,0,12.622642,7.774101,10.220789\C,0,12.262141,9.
 880825,9.878947\O,0,11.628407,10.827752,10.386177\O,0,12.58938,9.76751
 4,8.682678\P,0,10.3185,11.99564,7.360002\O,0,9.310576,10.931324,7.2383
 23\O,0,9.917193,13.233943,6.438171\H,0,10.654106,13.949066,6.553961\O,
 0,10.416437,12.637184,8.810619\H,0,10.967946,11.969039,9.439509\O,0,11
 .791612,11.640117,6.913512\H,0,12.174073,10.901976,7.601031\O,0,10.509
 86,8.062725,7.800251\H,0,10.053028,8.78874,7.358635\H,0,11.364776,8.47
 0937,8.026094\\Version=ES64L-G16RevA.03\HF=-76.421631\RMSD=3.257e-09\D
 ipole=-1.1724988,-1.0927647,3.0319561\Quadrupole=-52.1354337,-45.77492
 22,97.9103559,-42.4712884,40.7976903,33.1647839\PG=C01 [X(C10H18N1O7P1
 )]\\@


 THE PROBLEM WITH THE LADDER OF SUCCESS IS YOU CAN'T
 CLIMB IT WHILE YOU'RE TWIDDLING YOUR THUMBS.
 Job cpu time:       0 days  5 hours  6 minutes 15.2 seconds.
 Elapsed time:       0 days  0 hours 12 minutes 50.6 seconds.
 File lengths (MBytes):  RWF=    327 Int=      0 D2E=      0 Chk=    112 Scr=      1
 Normal termination of Gaussian 16 at Thu Dec 15 11:39:52 2022.
