 Entering Gaussian System, Link 0=g16
 Initial command:
 /data0/hywu0/study/g16/l1.exe "/data0/hywu0/study/g16/scratch/Gau-487076.inp" -scrdir="/data0/hywu0/study/g16/scratch/"
 Default is to use a total of   8 processors:
                                8 via shared-memory
                                1 via Linda
 Entering Link 1 = /data0/hywu0/study/g16/l1.exe PID=    487077.
  
 Copyright (c) 1988,1990,1992,1993,1995,1998,2003,2009,2016,
            Gaussian, Inc.  All Rights Reserved.
  
 This is part of the Gaussian(R) 16 program.  It is based on
 the Gaussian(R) 09 system (copyright 2009, Gaussian, Inc.),
 the Gaussian(R) 03 system (copyright 2003, Gaussian, Inc.),
 the Gaussian(R) 98 system (copyright 1998, Gaussian, Inc.),
 the Gaussian(R) 94 system (copyright 1995, Gaussian, Inc.),
 the Gaussian 92(TM) system (copyright 1992, Gaussian, Inc.),
 the Gaussian 90(TM) system (copyright 1990, Gaussian, Inc.),
 the Gaussian 88(TM) system (copyright 1988, Gaussian, Inc.),
 the Gaussian 86(TM) system (copyright 1986, Carnegie Mellon
 University), and the Gaussian 82(TM) system (copyright 1983,
 Carnegie Mellon University). Gaussian is a federally registered
 trademark of Gaussian, Inc.
  
 This software contains proprietary and confidential information,
 including trade secrets, belonging to Gaussian, Inc.
  
 This software is provided under written license and may be
 used, copied, transmitted, or stored only in accord with that
 written license.
  
 The following legend is applicable only to US Government
 contracts under FAR:
  
                    RESTRICTED RIGHTS LEGEND
  
 Use, reproduction and disclosure by the US Government is
 subject to restrictions as set forth in subparagraphs (a)
 and (c) of the Commercial Computer Software - Restricted
 Rights clause in FAR 52.227-19.
  
 Gaussian, Inc.
 340 Quinnipiac St., Bldg. 40, Wallingford CT 06492
  
  
 ---------------------------------------------------------------
 Warning -- This program may not be used in any manner that
 competes with the business of Gaussian, Inc. or will provide
 assistance to any competitor of Gaussian, Inc.  The licensee
 of this program is prohibited from giving any competitor of
 Gaussian, Inc. access to this program.  By using this program,
 the user acknowledges that Gaussian, Inc. is engaged in the
 business of creating and licensing software in the field of
 computational chemistry and represents and warrants to the
 licensee that it is not a competitor of Gaussian, Inc. and that
 it will not use this program in any manner prohibited above.
 ---------------------------------------------------------------
  

 Cite this work as:
 Gaussian 16, Revision A.03,
 M. J. Frisch, G. W. Trucks, H. B. Schlegel, G. E. Scuseria, 
 M. A. Robb, J. R. Cheeseman, G. Scalmani, V. Barone, 
 G. A. Petersson, H. Nakatsuji, X. Li, M. Caricato, A. V. Marenich, 
 J. Bloino, B. G. Janesko, R. Gomperts, B. Mennucci, H. P. Hratchian, 
 J. V. Ortiz, A. F. Izmaylov, J. L. Sonnenberg, D. Williams-Young, 
 F. Ding, F. Lipparini, F. Egidi, J. Goings, B. Peng, A. Petrone, 
 T. Henderson, D. Ranasinghe, V. G. Zakrzewski, J. Gao, N. Rega, 
 G. Zheng, W. Liang, M. Hada, M. Ehara, K. Toyota, R. Fukuda, 
 J. Hasegawa, M. Ishida, T. Nakajima, Y. Honda, O. Kitao, H. Nakai, 
 T. Vreven, K. Throssell, J. A. Montgomery, Jr., J. E. Peralta, 
 F. Ogliaro, M. J. Bearpark, J. J. Heyd, E. N. Brothers, K. N. Kudin, 
 V. N. Staroverov, T. A. Keith, R. Kobayashi, J. Normand, 
 K. Raghavachari, A. P. Rendell, J. C. Burant, S. S. Iyengar, 
 J. Tomasi, M. Cossi, J. M. Millam, M. Klene, C. Adamo, R. Cammi, 
 J. W. Ochterski, R. L. Martin, K. Morokuma, O. Farkas, 
 J. B. Foresman, and D. J. Fox, Gaussian, Inc., Wallingford CT, 2016.
 
 ******************************************
 Gaussian 16:  ES64L-G16RevA.03 25-Dec-2016
                20-Feb-2023 
 ******************************************
 %nproc=24
 Will use up to   24 processors via shared memory.
 %mem=50GB
 ---------------------------------------------------
 #p M062X/6-311+G(2d,p) nosymm em=GD3 counterpoise=2
 ---------------------------------------------------
 1/38=1,62=2,172=1/1;
 2/12=2,15=1,17=6,18=5,40=1/2;
 1/38=1,53=2,62=2,63=1/22;
 3/5=4,6=6,7=112,11=2,25=1,30=1,74=-55,124=31/1,2,3;
 4//1;
 5/5=2,38=5/2;
 6/7=2,8=2,9=2,10=2,28=1/1;
 1/53=2,62=2,63=1/22;
 3/5=7,6=11,7=112,11=2,25=1,30=1,74=-55,82=7,124=31/1,2,3;
 4//1;
 5/5=2,38=5/2;
 6/7=2,8=2,9=2,10=2,28=1/1;
 1/53=2,62=2,63=1/22(-4);
 99/5=1,9=1/99;
 Leave Link    1 at Mon Feb 20 01:56:26 2023, MaxMem=  6710886400 cpu:               0.8 elap:               0.0
 (Enter /data0/hywu0/study/g16/l101.exe)
 -------------------
 Title Card Required
 -------------------
 Symbolic Z-matrix:
 Charge =  0 Multiplicity = 1 in supermolecule
 Charge =  0 Multiplicity = 1 in fragment      1.
 Charge =  0 Multiplicity = 1 in fragment      2.
 P                     10.3185   11.99564   7.36       
 O                     9.31058   10.93132   7.23832    
 O                     9.91719   13.23394   6.43817    
 H                     10.65411   13.94907   6.55396    
 O                     10.41644   12.63718   8.81062    
 H                     10.96795   11.96904   9.43951    
 O                     11.79161   11.64012   6.91351    
 H                     12.17407   10.90198   7.60103    
 O                     10.50986   8.06273   7.80025    
 H                     10.05303   8.78874   7.35864    
 H                     11.36478   8.47094   8.02609    
 
 ITRead=  0  0  0  0  0  0  0  0  0  0  0
 MicOpt= -1 -1 -1 -1 -1 -1 -1 -1 -1 -1 -1
 NAtoms=     11 NQM=       11 NQMF=       0 NMMI=      0 NMMIF=      0
                NMic=       0 NMicF=      0.
                    Isotopes and Nuclear Properties:
 (Nuclear quadrupole moments (NQMom) in fm**2, nuclear magnetic moments (NMagM)
  in nuclear magnetons)

  Atom         1           2           3           4           5           6           7           8           9          10
 IAtWgt=          31          16          16           1          16           1          16           1          16           1
 AtmWgt=  30.9737634  15.9949146  15.9949146   1.0078250  15.9949146   1.0078250  15.9949146   1.0078250  15.9949146   1.0078250
 NucSpn=           1           0           0           1           0           1           0           1           0           1
 AtZEff=  -0.0000000  -0.0000000  -0.0000000  -0.0000000  -0.0000000  -0.0000000  -0.0000000  -0.0000000  -0.0000000  -0.0000000
 NQMom=    0.0000000   0.0000000   0.0000000   0.0000000   0.0000000   0.0000000   0.0000000   0.0000000   0.0000000   0.0000000
 NMagM=    1.1316000   0.0000000   0.0000000   2.7928460   0.0000000   2.7928460   0.0000000   2.7928460   0.0000000   2.7928460
 AtZNuc=  15.0000000   8.0000000   8.0000000   1.0000000   8.0000000   1.0000000   8.0000000   1.0000000   8.0000000   1.0000000

  Atom        11
 IAtWgt=           1
 AtmWgt=   1.0078250
 NucSpn=           1
 AtZEff=  -0.0000000
 NQMom=    0.0000000
 NMagM=    2.7928460
 AtZNuc=   1.0000000
 Leave Link  101 at Mon Feb 20 01:56:26 2023, MaxMem=  6710886400 cpu:               3.5 elap:               0.2
 (Enter /data0/hywu0/study/g16/l202.exe)
                          Input orientation:                          
 ---------------------------------------------------------------------
 Center     Atomic      Atomic             Coordinates (Angstroms)
 Number     Number       Type             X           Y           Z
 ---------------------------------------------------------------------
      1         15           0       10.318500   11.995640    7.360002
      2          8           0        9.310576   10.931324    7.238323
      3          8           0        9.917193   13.233943    6.438171
      4          1           0       10.654106   13.949066    6.553961
      5          8           0       10.416437   12.637184    8.810619
      6          1           0       10.967946   11.969039    9.439509
      7          8           0       11.791612   11.640117    6.913512
      8          1           0       12.174073   10.901976    7.601031
      9          8           0       10.509860    8.062725    7.800251
     10          1           0       10.053028    8.788740    7.358635
     11          1           0       11.364776    8.470937    8.026094
 ---------------------------------------------------------------------
                    Distance matrix (angstroms):
                    1          2          3          4          5
     1  P    0.000000
     2  O    1.470879   0.000000
     3  O    1.595059   2.512027   0.000000
     4  H    2.139674   3.373454   1.033368   0.000000
     5  O    1.589170   2.570020   2.496773   2.621073   0.000000
     6  H    2.178724   2.944308   3.422294   3.513601   1.070552
     7  O    1.579813   2.600659   2.505928   2.598931   2.546422
     8  H    2.167336   2.886526   3.447292   3.562501   2.750152
     9  O    3.962103   3.159574   5.380336   6.018559   4.685643
    10  H    3.217870   2.270766   4.541534   5.257163   4.129267
    11  H    3.736563   3.300579   5.225249   5.716828   4.344242
                    6          7          8          9         10
     6  H    0.000000
     7  O    2.677177   0.000000
     8  H    2.444047   1.078801   0.000000
     9  O    4.261021   3.902170   3.297065   0.000000
    10  H    3.909145   3.369148   3.003890   0.964789   0.000000
    11  H    3.793670   3.385813   2.597228   0.973922   1.505717
                   11
    11  H    0.000000
 Symmetry turned off by external request.
 Stoichiometry    H5O5P
 Framework group  C1[X(H5O5P)]
 Deg. of freedom    27
 Full point group                 C1      NOp   1
 Rotational constants (GHZ):           4.4294519           1.4342332           1.4185934
 Leave Link  202 at Mon Feb 20 01:56:26 2023, MaxMem=  6710886400 cpu:               0.0 elap:               0.0
 (Enter /data0/hywu0/study/g16/l122.exe)
 Counterpoise: doing full-system calculation.
 Leave Link  122 at Mon Feb 20 01:56:26 2023, MaxMem=  6710886400 cpu:               0.0 elap:               0.0
 (Enter /data0/hywu0/study/g16/l301.exe)
 Standard basis: 6-311+G(2d,p) (5D, 7F)
 Ernie: Thresh=  0.10000D-02 Tol=  0.10000D-05 Strict=F.
   200 basis functions,   306 primitive gaussians,   212 cartesian basis functions
    30 alpha electrons       30 beta electrons
       nuclear repulsion energy       355.5448534942 Hartrees.
 IExCor= 4336 DFT=T Ex+Corr=M062X ExCW=0 ScaHFX=  0.540000
 ScaDFX=  1.000000  1.000000  1.000000  1.000000 ScalE2=  1.000000  1.000000
 IRadAn=      5 IRanWt=     -1 IRanGd=            0 ICorTp=0 IEmpDi=131
 NAtoms=   11 NActive=   11 NUniq=   11 SFac= 1.00D+00 NAtFMM=   60 NAOKFM=F Big=F
 Integral buffers will be    131072 words long.
 Raffenetti 2 integral format.
 Two-electron integral symmetry is turned off.
 R6Disp:  Grimme-D3 Dispersion energy=       -0.0001886584 Hartrees.
 Nuclear repulsion after empirical dispersion term =      355.5446648358 Hartrees.
 Leave Link  301 at Mon Feb 20 01:56:26 2023, MaxMem=  6710886400 cpu:               1.0 elap:               0.0
 (Enter /data0/hywu0/study/g16/l302.exe)
 NPDir=0 NMtPBC=     1 NCelOv=     1 NCel=       1 NClECP=     1 NCelD=      1
         NCelK=      1 NCelE2=     1 NClLst=     1 CellRange=     0.0.
 One-electron integrals computed using PRISM.
 NBasis=   200 RedAO= T EigKep=  5.78D-04  NBF=   200
 NBsUse=   200 1.00D-06 EigRej= -1.00D+00 NBFU=   200
 Precomputing XC quadrature grid using
 IXCGrd= 4 IRadAn=           5 IRanWt=          -1 IRanGd=           0 AccXCQ= 0.00D+00.
 Generated NRdTot=       0 NPtTot=           0 NUsed=           0 NTot=          32
 NSgBfM=   212   212   212   212   212 MxSgAt=    11 MxSgA2=    11.
 Leave Link  302 at Mon Feb 20 01:56:26 2023, MaxMem=  6710886400 cpu:               3.5 elap:               0.2
 (Enter /data0/hywu0/study/g16/l303.exe)
 DipDrv:  MaxL=1.
 Leave Link  303 at Mon Feb 20 01:56:26 2023, MaxMem=  6710886400 cpu:               0.8 elap:               0.0
 (Enter /data0/hywu0/study/g16/l401.exe)
 ExpMin= 3.48D-02 ExpMax= 7.75D+04 ExpMxC= 2.65D+03 IAcc=3 IRadAn=         5 AccDes= 0.00D+00
 Harris functional with IExCor= 1009 and IRadAn=       5 diagonalized for initial guess.
 HarFok:  IExCor= 1009 AccDes= 0.00D+00 IRadAn=         5 IDoV= 1 UseB2=F ITyADJ=14
 ICtDFT=  3500011 ScaDFX=  1.000000  1.000000  1.000000  1.000000
 FoFCou: FMM=F IPFlag=           0 FMFlag=      100000 FMFlg1=           0
         NFxFlg=           0 DoJE=T BraDBF=F KetDBF=T FulRan=T
         wScrn=  0.000000 ICntrl=       500 IOpCl=  0 I1Cent=   200000004 NGrid=           0
         NMat0=    1 NMatS0=      1 NMatT0=    0 NMatD0=    1 NMtDS0=    0 NMtDT0=    0
 Symmetry not used in FoFCou.
 Harris En= -720.350467992132    
 JPrj=0 DoOrth=F DoCkMO=F.
 Leave Link  401 at Mon Feb 20 01:56:27 2023, MaxMem=  6710886400 cpu:               8.7 elap:               0.4
 (Enter /data0/hywu0/study/g16/l502.exe)
 Keep R1 ints in memory in canonical form, NReq=227026219.
 FoFCou: FMM=F IPFlag=           0 FMFlag=           0 FMFlg1=           0
         NFxFlg=           0 DoJE=F BraDBF=F KetDBF=F FulRan=T
         wScrn=  0.000000 ICntrl=       600 IOpCl=  0 I1Cent=           0 NGrid=           0
         NMat0=    1 NMatS0=  20100 NMatT0=    0 NMatD0=    1 NMtDS0=    0 NMtDT0=    0
 Symmetry not used in FoFCou.
 Two-electron integral symmetry not used.
 Closed shell SCF:
 Using DIIS extrapolation, IDIIS=  1040.
 NGot=  6710886400 LenX=  6508774801 LenY=  6508729416
 Requested convergence on RMS density matrix=1.00D-08 within 128 cycles.
 Requested convergence on MAX density matrix=1.00D-06.
 Requested convergence on             energy=1.00D-06.
 No special actions if energy rises.

 Cycle   1  Pass 1  IDiag  1:
 E= -720.193136658429    
 DIIS: error= 4.46D-02 at cycle   1 NSaved=   1.
 NSaved= 1 IEnMin= 1 EnMin= -720.193136658429     IErMin= 1 ErrMin= 4.46D-02
 ErrMax= 4.46D-02  0.00D+00 EMaxC= 1.00D-01 BMatC= 6.26D-01 BMatP= 6.26D-01
 IDIUse=3 WtCom= 5.54D-01 WtEn= 4.46D-01
 Coeff-Com:  0.100D+01
 Coeff-En:   0.100D+01
 Coeff:      0.100D+01
 Gap=     0.231 Goal=   None    Shift=    0.000
 GapD=    0.231 DampG=1.000 DampE=0.500 DampFc=0.5000 IDamp=-1.
 Damping current iteration by 5.00D-01
 RMSDP=7.42D-03 MaxDP=2.66D-01              OVMax= 2.33D-01

 Cycle   2  Pass 1  IDiag  1:
 E= -720.340828938548     Delta-E=       -0.147692280119 Rises=F Damp=T
 DIIS: error= 8.76D-03 at cycle   2 NSaved=   2.
 NSaved= 2 IEnMin= 2 EnMin= -720.340828938548     IErMin= 2 ErrMin= 8.76D-03
 ErrMax= 8.76D-03  0.00D+00 EMaxC= 1.00D-01 BMatC= 3.20D-02 BMatP= 6.26D-01
 IDIUse=3 WtCom= 9.12D-01 WtEn= 8.76D-02
 Coeff-Com:  0.773D-01 0.923D+00
 Coeff-En:   0.205D+00 0.795D+00
 Coeff:      0.885D-01 0.911D+00
 Gap=     0.334 Goal=   None    Shift=    0.000
 RMSDP=1.73D-03 MaxDP=8.12D-02 DE=-1.48D-01 OVMax= 1.70D-01

 Cycle   3  Pass 1  IDiag  1:
 E= -720.553545427418     Delta-E=       -0.212716488870 Rises=F Damp=F
 DIIS: error= 6.62D-03 at cycle   3 NSaved=   3.
 NSaved= 3 IEnMin= 3 EnMin= -720.553545427418     IErMin= 3 ErrMin= 6.62D-03
 ErrMax= 6.62D-03  0.00D+00 EMaxC= 1.00D-01 BMatC= 9.11D-03 BMatP= 3.20D-02
 IDIUse=3 WtCom= 9.34D-01 WtEn= 6.62D-02
 Coeff-Com: -0.151D-01 0.293D+00 0.723D+00
 Coeff-En:   0.000D+00 0.000D+00 0.100D+01
 Coeff:     -0.141D-01 0.273D+00 0.741D+00
 Gap=     0.331 Goal=   None    Shift=    0.000
 RMSDP=5.62D-04 MaxDP=1.52D-02 DE=-2.13D-01 OVMax= 3.33D-02

 Cycle   4  Pass 1  IDiag  1:
 E= -720.556840338263     Delta-E=       -0.003294910845 Rises=F Damp=F
 DIIS: error= 4.94D-03 at cycle   4 NSaved=   4.
 NSaved= 4 IEnMin= 4 EnMin= -720.556840338263     IErMin= 4 ErrMin= 4.94D-03
 ErrMax= 4.94D-03  0.00D+00 EMaxC= 1.00D-01 BMatC= 4.69D-03 BMatP= 9.11D-03
 IDIUse=3 WtCom= 9.51D-01 WtEn= 4.94D-02
 Coeff-Com: -0.201D-01 0.449D-01 0.442D+00 0.533D+00
 Coeff-En:   0.000D+00 0.000D+00 0.340D+00 0.660D+00
 Coeff:     -0.192D-01 0.427D-01 0.437D+00 0.539D+00
 Gap=     0.331 Goal=   None    Shift=    0.000
 RMSDP=2.49D-04 MaxDP=7.17D-03 DE=-3.29D-03 OVMax= 1.26D-02

 Cycle   5  Pass 1  IDiag  1:
 E= -720.559979340219     Delta-E=       -0.003139001956 Rises=F Damp=F
 DIIS: error= 3.43D-04 at cycle   5 NSaved=   5.
 NSaved= 5 IEnMin= 5 EnMin= -720.559979340219     IErMin= 5 ErrMin= 3.43D-04
 ErrMax= 3.43D-04  0.00D+00 EMaxC= 1.00D-01 BMatC= 2.56D-05 BMatP= 4.69D-03
 IDIUse=3 WtCom= 9.97D-01 WtEn= 3.43D-03
 Coeff-Com: -0.286D-02 0.105D-02 0.802D-01 0.132D+00 0.789D+00
 Coeff-En:   0.000D+00 0.000D+00 0.000D+00 0.000D+00 0.100D+01
 Coeff:     -0.285D-02 0.104D-02 0.799D-01 0.132D+00 0.790D+00
 Gap=     0.330 Goal=   None    Shift=    0.000
 RMSDP=3.00D-05 MaxDP=8.22D-04 DE=-3.14D-03 OVMax= 1.11D-03

 Cycle   6  Pass 1  IDiag  1:
 E= -720.559994740097     Delta-E=       -0.000015399878 Rises=F Damp=F
 DIIS: error= 1.22D-04 at cycle   6 NSaved=   6.
 NSaved= 6 IEnMin= 6 EnMin= -720.559994740097     IErMin= 6 ErrMin= 1.22D-04
 ErrMax= 1.22D-04  0.00D+00 EMaxC= 1.00D-01 BMatC= 4.03D-06 BMatP= 2.56D-05
 IDIUse=3 WtCom= 9.99D-01 WtEn= 1.22D-03
 Coeff-Com: -0.874D-04-0.191D-02 0.941D-02 0.253D-01 0.330D+00 0.638D+00
 Coeff-En:   0.000D+00 0.000D+00 0.000D+00 0.000D+00 0.000D+00 0.100D+01
 Coeff:     -0.873D-04-0.191D-02 0.940D-02 0.252D-01 0.329D+00 0.638D+00
 Gap=     0.330 Goal=   None    Shift=    0.000
 RMSDP=1.17D-05 MaxDP=3.60D-04 DE=-1.54D-05 OVMax= 3.99D-04

 Cycle   7  Pass 1  IDiag  1:
 E= -720.559997426451     Delta-E=       -0.000002686354 Rises=F Damp=F
 DIIS: error= 4.24D-05 at cycle   7 NSaved=   7.
 NSaved= 7 IEnMin= 7 EnMin= -720.559997426451     IErMin= 7 ErrMin= 4.24D-05
 ErrMax= 4.24D-05  0.00D+00 EMaxC= 1.00D-01 BMatC= 3.76D-07 BMatP= 4.03D-06
 IDIUse=1 WtCom= 1.00D+00 WtEn= 0.00D+00
 Coeff-Com:  0.392D-03-0.699D-03-0.102D-01-0.137D-01-0.202D-01 0.214D+00
 Coeff-Com:  0.831D+00
 Coeff:      0.392D-03-0.699D-03-0.102D-01-0.137D-01-0.202D-01 0.214D+00
 Coeff:      0.831D+00
 Gap=     0.330 Goal=   None    Shift=    0.000
 RMSDP=5.53D-06 MaxDP=2.09D-04 DE=-2.69D-06 OVMax= 1.37D-04

 Cycle   8  Pass 1  IDiag  1:
 E= -720.559997707479     Delta-E=       -0.000000281028 Rises=F Damp=F
 DIIS: error= 8.36D-06 at cycle   8 NSaved=   8.
 NSaved= 8 IEnMin= 8 EnMin= -720.559997707479     IErMin= 8 ErrMin= 8.36D-06
 ErrMax= 8.36D-06  0.00D+00 EMaxC= 1.00D-01 BMatC= 3.26D-08 BMatP= 3.76D-07
 IDIUse=1 WtCom= 1.00D+00 WtEn= 0.00D+00
 Coeff-Com:  0.143D-03-0.177D-03-0.439D-02-0.603D-02-0.177D-01 0.554D-01
 Coeff-Com:  0.328D+00 0.645D+00
 Coeff:      0.143D-03-0.177D-03-0.439D-02-0.603D-02-0.177D-01 0.554D-01
 Coeff:      0.328D+00 0.645D+00
 Gap=     0.330 Goal=   None    Shift=    0.000
 RMSDP=8.50D-07 MaxDP=3.31D-05 DE=-2.81D-07 OVMax= 3.66D-05

 Cycle   9  Pass 1  IDiag  1:
 E= -720.559997733079     Delta-E=       -0.000000025599 Rises=F Damp=F
 DIIS: error= 1.70D-06 at cycle   9 NSaved=   9.
 NSaved= 9 IEnMin= 9 EnMin= -720.559997733079     IErMin= 9 ErrMin= 1.70D-06
 ErrMax= 1.70D-06  0.00D+00 EMaxC= 1.00D-01 BMatC= 1.78D-09 BMatP= 3.26D-08
 IDIUse=1 WtCom= 1.00D+00 WtEn= 0.00D+00
 Coeff-Com: -0.175D-05 0.205D-04-0.374D-03-0.415D-03-0.285D-02-0.372D-02
 Coeff-Com:  0.189D-01 0.163D+00 0.825D+00
 Coeff:     -0.175D-05 0.205D-04-0.374D-03-0.415D-03-0.285D-02-0.372D-02
 Coeff:      0.189D-01 0.163D+00 0.825D+00
 Gap=     0.330 Goal=   None    Shift=    0.000
 RMSDP=3.28D-07 MaxDP=9.10D-06 DE=-2.56D-08 OVMax= 1.19D-05

 Cycle  10  Pass 1  IDiag  1:
 E= -720.559997734500     Delta-E=       -0.000000001421 Rises=F Damp=F
 DIIS: error= 1.10D-06 at cycle  10 NSaved=  10.
 NSaved=10 IEnMin=10 EnMin= -720.559997734500     IErMin=10 ErrMin= 1.10D-06
 ErrMax= 1.10D-06  0.00D+00 EMaxC= 1.00D-01 BMatC= 5.20D-10 BMatP= 1.78D-09
 IDIUse=1 WtCom= 1.00D+00 WtEn= 0.00D+00
 Coeff-Com: -0.180D-04 0.323D-04 0.301D-03 0.461D-03 0.212D-03-0.909D-02
 Coeff-Com: -0.291D-01 0.895D-02 0.417D+00 0.612D+00
 Coeff:     -0.180D-04 0.323D-04 0.301D-03 0.461D-03 0.212D-03-0.909D-02
 Coeff:     -0.291D-01 0.895D-02 0.417D+00 0.612D+00
 Gap=     0.330 Goal=   None    Shift=    0.000
 RMSDP=1.31D-07 MaxDP=3.43D-06 DE=-1.42D-09 OVMax= 4.46D-06

 Cycle  11  Pass 1  IDiag  1:
 E= -720.559997734904     Delta-E=       -0.000000000404 Rises=F Damp=F
 DIIS: error= 1.97D-07 at cycle  11 NSaved=  11.
 NSaved=11 IEnMin=11 EnMin= -720.559997734904     IErMin=11 ErrMin= 1.97D-07
 ErrMax= 1.97D-07  0.00D+00 EMaxC= 1.00D-01 BMatC= 1.08D-11 BMatP= 5.20D-10
 IDIUse=1 WtCom= 1.00D+00 WtEn= 0.00D+00
 Coeff-Com:  0.124D-06-0.562D-06 0.472D-04 0.577D-04 0.273D-03-0.495D-03
 Coeff-Com: -0.479D-02-0.130D-01-0.362D-01 0.731D-01 0.981D+00
 Coeff:      0.124D-06-0.562D-06 0.472D-04 0.577D-04 0.273D-03-0.495D-03
 Coeff:     -0.479D-02-0.130D-01-0.362D-01 0.731D-01 0.981D+00
 Gap=     0.330 Goal=   None    Shift=    0.000
 RMSDP=3.80D-08 MaxDP=8.44D-07 DE=-4.04D-10 OVMax= 1.98D-06

 Cycle  12  Pass 1  IDiag  1:
 E= -720.559997734917     Delta-E=       -0.000000000013 Rises=F Damp=F
 DIIS: error= 5.02D-08 at cycle  12 NSaved=  12.
 NSaved=12 IEnMin=12 EnMin= -720.559997734917     IErMin=12 ErrMin= 5.02D-08
 ErrMax= 5.02D-08  0.00D+00 EMaxC= 1.00D-01 BMatC= 6.98D-13 BMatP= 1.08D-11
 IDIUse=1 WtCom= 1.00D+00 WtEn= 0.00D+00
 Coeff-Com:  0.819D-06-0.152D-05-0.926D-06-0.413D-05 0.496D-04 0.273D-03
 Coeff-Com:  0.249D-03-0.274D-02-0.252D-01-0.135D-01 0.213D+00 0.828D+00
 Coeff:      0.819D-06-0.152D-05-0.926D-06-0.413D-05 0.496D-04 0.273D-03
 Coeff:      0.249D-03-0.274D-02-0.252D-01-0.135D-01 0.213D+00 0.828D+00
 Gap=     0.330 Goal=   None    Shift=    0.000
 RMSDP=7.56D-09 MaxDP=1.62D-07 DE=-1.27D-11 OVMax= 3.62D-07

 SCF Done:  E(RM062X) =  -720.559997735     A.U. after   12 cycles
            NFock= 12  Conv=0.76D-08     -V/T= 2.0026
 KE= 7.186621634402D+02 PE=-2.418893677106D+03 EE= 6.241268510948D+02
 Leave Link  502 at Mon Feb 20 01:56:37 2023, MaxMem=  6710886400 cpu:             165.6 elap:              10.5
 (Enter /data0/hywu0/study/g16/l601.exe)
 Copying SCF densities to generalized density rwf, IOpCl= 0 IROHF=0.

 **********************************************************************

            Population analysis using the SCF density.

 **********************************************************************

 Alpha  occ. eigenvalues --  -78.18433 -19.71418 -19.70262 -19.69293 -19.61638
 Alpha  occ. eigenvalues --  -19.59865  -6.99210  -5.11132  -5.11110  -5.10872
 Alpha  occ. eigenvalues --   -1.25980  -1.18743  -1.17858  -1.12348  -1.10101
 Alpha  occ. eigenvalues --   -0.73961  -0.66939  -0.64955  -0.60500  -0.59167
 Alpha  occ. eigenvalues --   -0.54758  -0.53286  -0.51323  -0.47950  -0.47271
 Alpha  occ. eigenvalues --   -0.46568  -0.46234  -0.39852  -0.38858  -0.38594
 Alpha virt. eigenvalues --   -0.05576  -0.00138   0.01590   0.03876   0.06260
 Alpha virt. eigenvalues --    0.07738   0.09306   0.10902   0.12128   0.14288
 Alpha virt. eigenvalues --    0.15093   0.16714   0.17546   0.17873   0.18565
 Alpha virt. eigenvalues --    0.19270   0.19786   0.20860   0.21341   0.22581
 Alpha virt. eigenvalues --    0.23581   0.24731   0.25016   0.26338   0.27064
 Alpha virt. eigenvalues --    0.27381   0.28056   0.30498   0.31568   0.32401
 Alpha virt. eigenvalues --    0.33787   0.35946   0.36734   0.39607   0.42355
 Alpha virt. eigenvalues --    0.42858   0.44018   0.45577   0.51397   0.54390
 Alpha virt. eigenvalues --    0.54882   0.57344   0.64114   0.73047   0.75139
 Alpha virt. eigenvalues --    0.75683   0.84482   0.96784   0.98425   0.99149
 Alpha virt. eigenvalues --    1.01395   1.03512   1.04529   1.06227   1.08462
 Alpha virt. eigenvalues --    1.10833   1.12621   1.13729   1.16777   1.18055
 Alpha virt. eigenvalues --    1.18745   1.20627   1.21548   1.22468   1.23605
 Alpha virt. eigenvalues --    1.25414   1.26267   1.31697   1.32866   1.34960
 Alpha virt. eigenvalues --    1.40029   1.41207   1.44905   1.48990   1.51427
 Alpha virt. eigenvalues --    1.53436   1.54229   1.57757   1.59228   1.62309
 Alpha virt. eigenvalues --    1.65557   1.65727   1.68403   1.71551   1.75455
 Alpha virt. eigenvalues --    1.77184   1.79938   1.81534   1.83821   1.85174
 Alpha virt. eigenvalues --    1.87293   1.90520   1.95509   1.98269   2.02398
 Alpha virt. eigenvalues --    2.08197   2.08670   2.10327   2.12383   2.13927
 Alpha virt. eigenvalues --    2.17033   2.20590   2.24159   2.35380   2.41815
 Alpha virt. eigenvalues --    2.42369   2.44989   2.47960   2.55344   2.59983
 Alpha virt. eigenvalues --    2.60890   2.63221   2.69146   2.72057   2.79931
 Alpha virt. eigenvalues --    2.84943   2.88865   2.90306   2.93389   3.07283
 Alpha virt. eigenvalues --    5.00047   5.02626   5.04720   5.05423   5.07827
 Alpha virt. eigenvalues --    5.10616   5.12607   5.19318   5.23649   5.33696
 Alpha virt. eigenvalues --    5.40289   5.43140   5.50658   5.52423   5.92072
 Alpha virt. eigenvalues --    6.70406   6.72886   6.73676   6.75519   6.77797
 Alpha virt. eigenvalues --    6.79192   6.79984   6.80906   6.81690   6.83984
 Alpha virt. eigenvalues --    6.89012   6.90173   6.91712   6.92680   6.94236
 Alpha virt. eigenvalues --    6.96761   6.98191   7.00341   7.09607   7.12171
 Alpha virt. eigenvalues --    7.23366   7.24480   7.26589   7.30393   7.39106
 Alpha virt. eigenvalues --    7.63228  14.21798  14.22732  14.32670  49.96251
 Alpha virt. eigenvalues --   49.97878  49.98681  49.99407  50.08825 163.84772
          Condensed to atoms (all electrons):
               1          2          3          4          5          6
     1  P   12.577310   0.517415   0.135072   0.040994   0.239543   0.013475
     2  O    0.517415   8.174472  -0.021165  -0.001397  -0.008601  -0.015584
     3  O    0.135072  -0.021165   8.154719   0.218957  -0.018191   0.000546
     4  H    0.040994  -0.001397   0.218957   0.453780  -0.012129   0.001909
     5  O    0.239543  -0.008601  -0.018191  -0.012129   8.031125   0.247788
     6  H    0.013475  -0.015584   0.000546   0.001909   0.247788   0.451754
     7  O    0.226604  -0.013086   0.001035  -0.010647   0.042596  -0.005969
     8  H    0.006249  -0.019713   0.001812   0.001835  -0.005579  -0.003809
     9  O    0.007542  -0.012182   0.000523  -0.000008  -0.003396  -0.000594
    10  H    0.002454   0.025096   0.000528  -0.000014  -0.000429   0.000286
    11  H    0.005926   0.000899   0.000450  -0.000008  -0.001590  -0.000263
               7          8          9         10         11
     1  P    0.226604   0.006249   0.007542   0.002454   0.005926
     2  O   -0.013086  -0.019713  -0.012182   0.025096   0.000899
     3  O    0.001035   0.001812   0.000523   0.000528   0.000450
     4  H   -0.010647   0.001835  -0.000008  -0.000014  -0.000008
     5  O    0.042596  -0.005579  -0.003396  -0.000429  -0.001590
     6  H   -0.005969  -0.003809  -0.000594   0.000286  -0.000263
     7  O    8.052941   0.249740   0.002830   0.001750   0.000080
     8  H    0.249740   0.459400   0.000056  -0.000445   0.001757
     9  O    0.002830   0.000056   7.944644   0.313921   0.283868
    10  H    0.001750  -0.000445   0.313921   0.366043  -0.023489
    11  H    0.000080   0.001757   0.283868  -0.023489   0.503318
 Mulliken charges:
               1
     1  P    1.227415
     2  O   -0.626153
     3  O   -0.474286
     4  H    0.306729
     5  O   -0.511137
     6  H    0.310463
     7  O   -0.547875
     8  H    0.308696
     9  O   -0.537204
    10  H    0.314299
    11  H    0.229054
 Sum of Mulliken charges =  -0.00000
 Mulliken charges with hydrogens summed into heavy atoms:
               1
     1  P    1.227415
     2  O   -0.626153
     3  O   -0.167557
     5  O   -0.200675
     7  O   -0.239179
     9  O    0.006149
         Mulliken charges condensed to fragments:
      1     -0.006149
      2      0.006149
 Electronic spatial extent (au):  <R**2>=          63921.5109
 Charge=              0.0000 electrons
 Dipole moment (field-independent basis, Debye):
    X=              5.3846    Y=              3.4888    Z=              2.0754  Tot=              6.7434
 Quadrupole moment (field-independent basis, Debye-Ang):
   XX=             70.2384   YY=             27.8277   ZZ=             -9.8866
   XY=             95.3796   XZ=             65.3869   YZ=             48.3712
 Traceless Quadrupole moment (field-independent basis, Debye-Ang):
   XX=             40.8453   YY=             -1.5655   ZZ=            -39.2798
   XY=             95.3796   XZ=             65.3869   YZ=             48.3712
 Octapole moment (field-independent basis, Debye-Ang**2):
  XXX=            452.2289  YYY=           -336.9526  ZZZ=           -555.1827  XYY=            949.4263
  XXY=           1120.6520  XXZ=            831.3102  XZZ=            256.8952  YZZ=             60.4384
  YYZ=            434.5466  XYZ=            979.2324
 Hexadecapole moment (field-independent basis, Debye-Ang**3):
 XXXX=          -2702.9274 YYYY=         -17281.3710 ZZZZ=          -9966.7263 XXXY=           8027.3524
 XXXZ=           7117.8245 YYYX=           4020.7366 YYYZ=           -362.8063 ZZZX=          -2794.7156
 ZZZY=          -5098.6884 XXYY=          10957.1559 XXZZ=           4141.7777 YYZZ=           -560.8227
 XXYZ=          11601.7490 YYXZ=           9778.6698 ZZXY=           4517.3979
 N-N= 3.555446648358D+02 E-N=-2.418893680548D+03  KE= 7.186621634402D+02
 No NMR shielding tensors so no spin-rotation constants.
 Leave Link  601 at Mon Feb 20 01:56:37 2023, MaxMem=  6710886400 cpu:               1.9 elap:               0.1
 (Enter /data0/hywu0/study/g16/l122.exe)
 CPIOFr:  IOpCl= 0 IRwI=-1 IRwCP=  731 ICalc= -1 LCPTot=       62711 Len1MO=      164280 IndFrg=       62711
 CPIOFr:  IOpCl= 0 IRwI=-1 IRwCP=  731 ICalc=  0 LCPTot=       62711 Len1MO=      164280 IndFrg=      226991
 Counterpoise: doing calculation for fragment   1 using the basis set of the full-system, NewBq=T
 Leave Link  122 at Mon Feb 20 01:56:37 2023, MaxMem=  6710886400 cpu:               0.1 elap:               0.0
 (Enter /data0/hywu0/study/g16/l301.exe)
 Basis read from rwf:  (5D, 7F)
 No pseudopotential information found on rwf file.
   200 basis functions,   306 primitive gaussians,   212 cartesian basis functions
    25 alpha electrons       25 beta electrons
       nuclear repulsion energy       279.6951097626 Hartrees.
 IExCor= 4336 DFT=T Ex+Corr=M062X ExCW=0 ScaHFX=  0.540000
 ScaDFX=  1.000000  1.000000  1.000000  1.000000 ScalE2=  1.000000  1.000000
 IRadAn=      5 IRanWt=     -1 IRanGd=            0 ICorTp=0 IEmpDi=131
 NAtoms=   11 NActive=   11 NUniq=   11 SFac= 1.00D+00 NAtFMM=   60 NAOKFM=F Big=F
 Integral buffers will be    131072 words long.
 Raffenetti 2 integral format.
 Two-electron integral symmetry is turned off.
 R6Disp:  Grimme-D3 Dispersion energy=       -0.0000438893 Hartrees.
 Nuclear repulsion after empirical dispersion term =      279.6950658733 Hartrees.
 No density basis found on file   718.
 Leave Link  301 at Mon Feb 20 01:56:37 2023, MaxMem=  6710886400 cpu:               1.2 elap:               0.1
 (Enter /data0/hywu0/study/g16/l302.exe)
 NPDir=0 NMtPBC=     1 NCelOv=     1 NCel=       1 NClECP=     1 NCelD=      1
         NCelK=      1 NCelE2=     1 NClLst=     1 CellRange=     0.0.
 One-electron integrals computed using PRISM.
 NBasis=   200 RedAO= T EigKep=  5.78D-04  NBF=   200
 NBsUse=   200 1.00D-06 EigRej= -1.00D+00 NBFU=   200
 Precomputing XC quadrature grid using
 IXCGrd= 4 IRadAn=           5 IRanWt=          -1 IRanGd=           0 AccXCQ= 0.00D+00.
 Generated NRdTot=       0 NPtTot=           0 NUsed=           0 NTot=          32
 NSgBfM=   212   212   212   212   212 MxSgAt=    11 MxSgA2=    11.
 Leave Link  302 at Mon Feb 20 01:56:38 2023, MaxMem=  6710886400 cpu:               3.3 elap:               0.1
 (Enter /data0/hywu0/study/g16/l303.exe)
 DipDrv:  MaxL=1.
 Leave Link  303 at Mon Feb 20 01:56:38 2023, MaxMem=  6710886400 cpu:               0.6 elap:               0.0
 (Enter /data0/hywu0/study/g16/l401.exe)
 ExpMin= 3.48D-02 ExpMax= 7.75D+04 ExpMxC= 2.65D+03 IAcc=3 IRadAn=         5 AccDes= 0.00D+00
 Harris functional with IExCor= 1009 and IRadAn=       5 diagonalized for initial guess.
 HarFok:  IExCor= 1009 AccDes= 0.00D+00 IRadAn=         5 IDoV= 1 UseB2=F ITyADJ=14
 ICtDFT=  3500011 ScaDFX=  1.000000  1.000000  1.000000  1.000000
 FoFCou: FMM=F IPFlag=           0 FMFlag=      100000 FMFlg1=           0
         NFxFlg=           0 DoJE=T BraDBF=F KetDBF=T FulRan=T
         wScrn=  0.000000 ICntrl=       500 IOpCl=  0 I1Cent=   200000004 NGrid=           0
         NMat0=    1 NMatS0=      1 NMatT0=    0 NMatD0=    1 NMtDS0=    0 NMtDT0=    0
 Symmetry not used in FoFCou.
 Harris En= -643.935869836258    
 JPrj=0 DoOrth=F DoCkMO=F.
 Leave Link  401 at Mon Feb 20 01:56:38 2023, MaxMem=  6710886400 cpu:               8.8 elap:               0.4
 (Enter /data0/hywu0/study/g16/l502.exe)
 Keep R1 ints in memory in canonical form, NReq=227026219.
 FoFCou: FMM=F IPFlag=           0 FMFlag=           0 FMFlg1=           0
         NFxFlg=           0 DoJE=F BraDBF=F KetDBF=F FulRan=T
         wScrn=  0.000000 ICntrl=       600 IOpCl=  0 I1Cent=           0 NGrid=           0
         NMat0=    1 NMatS0=  20100 NMatT0=    0 NMatD0=    1 NMtDS0=    0 NMtDT0=    0
 Symmetry not used in FoFCou.
 Two-electron integral symmetry not used.
 Closed shell SCF:
 Using DIIS extrapolation, IDIIS=  1040.
 NGot=  6710886400 LenX=  6508774801 LenY=  6508729416
 Requested convergence on RMS density matrix=1.00D-08 within 128 cycles.
 Requested convergence on MAX density matrix=1.00D-06.
 Requested convergence on             energy=1.00D-06.
 No special actions if energy rises.

 Cycle   1  Pass 1  IDiag  1:
 E= -643.837090842520    
 DIIS: error= 4.63D-02 at cycle   1 NSaved=   1.
 NSaved= 1 IEnMin= 1 EnMin= -643.837090842520     IErMin= 1 ErrMin= 4.63D-02
 ErrMax= 4.63D-02  0.00D+00 EMaxC= 1.00D-01 BMatC= 5.12D-01 BMatP= 5.12D-01
 IDIUse=3 WtCom= 5.37D-01 WtEn= 4.63D-01
 Coeff-Com:  0.100D+01
 Coeff-En:   0.100D+01
 Coeff:      0.100D+01
 Gap=     0.224 Goal=   None    Shift=    0.000
 GapD=    0.224 DampG=1.000 DampE=0.500 DampFc=0.5000 IDamp=-1.
 Damping current iteration by 5.00D-01
 RMSDP=6.71D-03 MaxDP=2.22D-01              OVMax= 2.81D-01

 Cycle   2  Pass 1  IDiag  1:
 E= -643.953245491648     Delta-E=       -0.116154649128 Rises=F Damp=T
 DIIS: error= 8.78D-03 at cycle   2 NSaved=   2.
 NSaved= 2 IEnMin= 2 EnMin= -643.953245491648     IErMin= 2 ErrMin= 8.78D-03
 ErrMax= 8.78D-03  0.00D+00 EMaxC= 1.00D-01 BMatC= 2.87D-02 BMatP= 5.12D-01
 IDIUse=3 WtCom= 9.12D-01 WtEn= 8.78D-02
 Coeff-Com:  0.815D-01 0.919D+00
 Coeff-En:   0.219D+00 0.781D+00
 Coeff:      0.936D-01 0.906D+00
 Gap=     0.331 Goal=   None    Shift=    0.000
 RMSDP=1.65D-03 MaxDP=7.74D-02 DE=-1.16D-01 OVMax= 1.87D-01

 Cycle   3  Pass 1  IDiag  1:
 E= -644.125964091697     Delta-E=       -0.172718600049 Rises=F Damp=F
 DIIS: error= 7.42D-03 at cycle   3 NSaved=   3.
 NSaved= 3 IEnMin= 3 EnMin= -644.125964091697     IErMin= 3 ErrMin= 7.42D-03
 ErrMax= 7.42D-03  0.00D+00 EMaxC= 1.00D-01 BMatC= 1.10D-02 BMatP= 2.87D-02
 IDIUse=3 WtCom= 9.26D-01 WtEn= 7.42D-02
 Coeff-Com: -0.126D-01 0.343D+00 0.670D+00
 Coeff-En:   0.000D+00 0.000D+00 0.100D+01
 Coeff:     -0.117D-01 0.318D+00 0.694D+00
 Gap=     0.320 Goal=   None    Shift=    0.000
 RMSDP=5.69D-04 MaxDP=1.56D-02 DE=-1.73D-01 OVMax= 3.66D-02

 Cycle   4  Pass 1  IDiag  1:
 E= -644.130945103808     Delta-E=       -0.004981012111 Rises=F Damp=F
 DIIS: error= 4.59D-03 at cycle   4 NSaved=   4.
 NSaved= 4 IEnMin= 4 EnMin= -644.130945103808     IErMin= 4 ErrMin= 4.59D-03
 ErrMax= 4.59D-03  0.00D+00 EMaxC= 1.00D-01 BMatC= 4.17D-03 BMatP= 1.10D-02
 IDIUse=3 WtCom= 9.54D-01 WtEn= 4.59D-02
 Coeff-Com: -0.217D-01 0.487D-01 0.403D+00 0.570D+00
 Coeff-En:   0.000D+00 0.000D+00 0.275D+00 0.725D+00
 Coeff:     -0.207D-01 0.465D-01 0.397D+00 0.577D+00
 Gap=     0.326 Goal=   None    Shift=    0.000
 RMSDP=2.26D-04 MaxDP=6.42D-03 DE=-4.98D-03 OVMax= 1.18D-02

 Cycle   5  Pass 1  IDiag  1:
 E= -644.133710717333     Delta-E=       -0.002765613525 Rises=F Damp=F
 DIIS: error= 2.11D-04 at cycle   5 NSaved=   5.
 NSaved= 5 IEnMin= 5 EnMin= -644.133710717333     IErMin= 5 ErrMin= 2.11D-04
 ErrMax= 2.11D-04  0.00D+00 EMaxC= 1.00D-01 BMatC= 1.84D-05 BMatP= 4.17D-03
 IDIUse=3 WtCom= 9.98D-01 WtEn= 2.11D-03
 Coeff-Com: -0.231D-02-0.399D-03 0.552D-01 0.118D+00 0.830D+00
 Coeff-En:   0.000D+00 0.000D+00 0.000D+00 0.000D+00 0.100D+01
 Coeff:     -0.230D-02-0.399D-03 0.550D-01 0.117D+00 0.830D+00
 Gap=     0.325 Goal=   None    Shift=    0.000
 RMSDP=2.50D-05 MaxDP=7.10D-04 DE=-2.77D-03 OVMax= 8.48D-04

 Cycle   6  Pass 1  IDiag  1:
 E= -644.133722876949     Delta-E=       -0.000012159616 Rises=F Damp=F
 DIIS: error= 6.25D-05 at cycle   6 NSaved=   6.
 NSaved= 6 IEnMin= 6 EnMin= -644.133722876949     IErMin= 6 ErrMin= 6.25D-05
 ErrMax= 6.25D-05  0.00D+00 EMaxC= 1.00D-01 BMatC= 1.69D-06 BMatP= 1.84D-05
 IDIUse=1 WtCom= 1.00D+00 WtEn= 0.00D+00
 Coeff-Com:  0.158D-04-0.179D-02 0.254D-02 0.146D-01 0.256D+00 0.729D+00
 Coeff:      0.158D-04-0.179D-02 0.254D-02 0.146D-01 0.256D+00 0.729D+00
 Gap=     0.326 Goal=   None    Shift=    0.000
 RMSDP=9.43D-06 MaxDP=2.17D-04 DE=-1.22D-05 OVMax= 3.00D-04

 Cycle   7  Pass 1  IDiag  1:
 E= -644.133723977534     Delta-E=       -0.000001100585 Rises=F Damp=F
 DIIS: error= 3.85D-05 at cycle   7 NSaved=   7.
 NSaved= 7 IEnMin= 7 EnMin= -644.133723977534     IErMin= 7 ErrMin= 3.85D-05
 ErrMax= 3.85D-05  0.00D+00 EMaxC= 1.00D-01 BMatC= 4.24D-07 BMatP= 1.69D-06
 IDIUse=1 WtCom= 1.00D+00 WtEn= 0.00D+00
 Coeff-Com:  0.409D-03-0.692D-03-0.913D-02-0.147D-01-0.244D-01 0.334D+00
 Coeff-Com:  0.715D+00
 Coeff:      0.409D-03-0.692D-03-0.913D-02-0.147D-01-0.244D-01 0.334D+00
 Coeff:      0.715D+00
 Gap=     0.326 Goal=   None    Shift=    0.000
 RMSDP=3.98D-06 MaxDP=1.04D-04 DE=-1.10D-06 OVMax= 1.33D-04

 Cycle   8  Pass 1  IDiag  1:
 E= -644.133724273055     Delta-E=       -0.000000295521 Rises=F Damp=F
 DIIS: error= 8.90D-06 at cycle   8 NSaved=   8.
 NSaved= 8 IEnMin= 8 EnMin= -644.133724273055     IErMin= 8 ErrMin= 8.90D-06
 ErrMax= 8.90D-06  0.00D+00 EMaxC= 1.00D-01 BMatC= 2.93D-08 BMatP= 4.24D-07
 IDIUse=1 WtCom= 1.00D+00 WtEn= 0.00D+00
 Coeff-Com:  0.146D-03-0.179D-03-0.373D-02-0.603D-02-0.170D-01 0.940D-01
 Coeff-Com:  0.292D+00 0.640D+00
 Coeff:      0.146D-03-0.179D-03-0.373D-02-0.603D-02-0.170D-01 0.940D-01
 Coeff:      0.292D+00 0.640D+00
 Gap=     0.326 Goal=   None    Shift=    0.000
 RMSDP=7.26D-07 MaxDP=2.69D-05 DE=-2.96D-07 OVMax= 3.55D-05

 Cycle   9  Pass 1  IDiag  1:
 E= -644.133724296060     Delta-E=       -0.000000023005 Rises=F Damp=F
 DIIS: error= 1.39D-06 at cycle   9 NSaved=   9.
 NSaved= 9 IEnMin= 9 EnMin= -644.133724296060     IErMin= 9 ErrMin= 1.39D-06
 ErrMax= 1.39D-06  0.00D+00 EMaxC= 1.00D-01 BMatC= 1.03D-09 BMatP= 2.93D-08
 IDIUse=1 WtCom= 1.00D+00 WtEn= 0.00D+00
 Coeff-Com: -0.287D-04 0.566D-04 0.279D-03 0.605D-03-0.812D-03-0.204D-01
 Coeff-Com: -0.290D-01 0.835D-01 0.966D+00
 Coeff:     -0.287D-04 0.566D-04 0.279D-03 0.605D-03-0.812D-03-0.204D-01
 Coeff:     -0.290D-01 0.835D-01 0.966D+00
 Gap=     0.326 Goal=   None    Shift=    0.000
 RMSDP=3.31D-07 MaxDP=1.03D-05 DE=-2.30D-08 OVMax= 1.45D-05

 Cycle  10  Pass 1  IDiag  1:
 E= -644.133724297377     Delta-E=       -0.000000001316 Rises=F Damp=F
 DIIS: error= 2.98D-07 at cycle  10 NSaved=  10.
 NSaved=10 IEnMin=10 EnMin= -644.133724297377     IErMin=10 ErrMin= 2.98D-07
 ErrMax= 2.98D-07  0.00D+00 EMaxC= 1.00D-01 BMatC= 2.98D-11 BMatP= 1.03D-09
 IDIUse=1 WtCom= 1.00D+00 WtEn= 0.00D+00
 Coeff-Com: -0.524D-05 0.907D-05 0.128D-03 0.218D-03 0.455D-03-0.510D-02
 Coeff-Com: -0.137D-01-0.138D-01 0.831D-01 0.949D+00
 Coeff:     -0.524D-05 0.907D-05 0.128D-03 0.218D-03 0.455D-03-0.510D-02
 Coeff:     -0.137D-01-0.138D-01 0.831D-01 0.949D+00
 Gap=     0.326 Goal=   None    Shift=    0.000
 RMSDP=6.63D-08 MaxDP=1.29D-06 DE=-1.32D-09 OVMax= 3.66D-06

 Cycle  11  Pass 1  IDiag  1:
 E= -644.133724297396     Delta-E=       -0.000000000020 Rises=F Damp=F
 DIIS: error= 3.67D-07 at cycle  11 NSaved=  11.
 NSaved=11 IEnMin=11 EnMin= -644.133724297396     IErMin=10 ErrMin= 2.98D-07
 ErrMax= 3.67D-07  0.00D+00 EMaxC= 1.00D-01 BMatC= 1.93D-11 BMatP= 2.98D-11
 IDIUse=1 WtCom= 1.00D+00 WtEn= 0.00D+00
 Coeff-Com:  0.216D-06-0.891D-06 0.395D-04 0.551D-04 0.306D-03-0.803D-03
 Coeff-Com: -0.436D-02-0.142D-01-0.470D-01 0.504D+00 0.562D+00
 Coeff:      0.216D-06-0.891D-06 0.395D-04 0.551D-04 0.306D-03-0.803D-03
 Coeff:     -0.436D-02-0.142D-01-0.470D-01 0.504D+00 0.562D+00
 Gap=     0.326 Goal=   None    Shift=    0.000
 RMSDP=1.98D-08 MaxDP=6.27D-07 DE=-1.96D-11 OVMax= 8.90D-07

 Cycle  12  Pass 1  IDiag  1:
 E= -644.133724297425     Delta-E=       -0.000000000029 Rises=F Damp=F
 DIIS: error= 5.42D-08 at cycle  12 NSaved=  12.
 NSaved=12 IEnMin=12 EnMin= -644.133724297425     IErMin=12 ErrMin= 5.42D-08
 ErrMax= 5.42D-08  0.00D+00 EMaxC= 1.00D-01 BMatC= 6.79D-13 BMatP= 1.93D-11
 IDIUse=1 WtCom= 1.00D+00 WtEn= 0.00D+00
 Coeff-Com:  0.787D-06-0.147D-05-0.647D-05-0.137D-04 0.108D-04 0.466D-03
 Coeff-Com:  0.923D-03-0.118D-02-0.237D-01-0.434D-02 0.142D+00 0.886D+00
 Coeff:      0.787D-06-0.147D-05-0.647D-05-0.137D-04 0.108D-04 0.466D-03
 Coeff:      0.923D-03-0.118D-02-0.237D-01-0.434D-02 0.142D+00 0.886D+00
 Gap=     0.326 Goal=   None    Shift=    0.000
 RMSDP=8.05D-09 MaxDP=1.72D-07 DE=-2.91D-11 OVMax= 4.33D-07

 SCF Done:  E(RM062X) =  -644.133724297     A.U. after   12 cycles
            NFock= 12  Conv=0.81D-08     -V/T= 2.0026
 KE= 6.424702336075D+02 PE=-2.086980201608D+03 EE= 5.206811778294D+02
 Leave Link  502 at Mon Feb 20 01:56:48 2023, MaxMem=  6710886400 cpu:             153.2 elap:              10.0
 (Enter /data0/hywu0/study/g16/l601.exe)
 Copying SCF densities to generalized density rwf, IOpCl= 0 IROHF=0.

 **********************************************************************

            Population analysis using the SCF density.

 **********************************************************************

 Alpha  occ. eigenvalues --  -78.16849 -19.69886 -19.69097 -19.68116 -19.57938
 Alpha  occ. eigenvalues --   -6.97637  -5.09556  -5.09541  -5.09288  -1.24611
 Alpha  occ. eigenvalues --   -1.17370  -1.16697  -1.08166  -0.72614  -0.65600
 Alpha  occ. eigenvalues --   -0.63724  -0.59066  -0.53361  -0.51923  -0.50038
 Alpha  occ. eigenvalues --   -0.46290  -0.45340  -0.45033  -0.37780  -0.36761
 Alpha virt. eigenvalues --   -0.04197   0.00747   0.02668   0.04535   0.07581
 Alpha virt. eigenvalues --    0.08029   0.09675   0.12388   0.12586   0.14536
 Alpha virt. eigenvalues --    0.15410   0.17354   0.17719   0.18608   0.19455
 Alpha virt. eigenvalues --    0.20170   0.20631   0.21184   0.21881   0.23966
 Alpha virt. eigenvalues --    0.25715   0.26136   0.26885   0.27956   0.28444
 Alpha virt. eigenvalues --    0.29663   0.29849   0.32076   0.32492   0.35125
 Alpha virt. eigenvalues --    0.35800   0.38157   0.38722   0.40651   0.41835
 Alpha virt. eigenvalues --    0.44553   0.45264   0.47498   0.52670   0.56256
 Alpha virt. eigenvalues --    0.57246   0.61936   0.73121   0.75555   0.76646
 Alpha virt. eigenvalues --    0.77309   0.77921   0.83452   0.86259   0.96248
 Alpha virt. eigenvalues --    0.98217   0.99684   1.00353   1.05402   1.06484
 Alpha virt. eigenvalues --    1.07085   1.13004   1.14471   1.15925   1.19411
 Alpha virt. eigenvalues --    1.20517   1.21223   1.22250   1.25564   1.26486
 Alpha virt. eigenvalues --    1.29728   1.33078   1.34749   1.42631   1.44132
 Alpha virt. eigenvalues --    1.50304   1.52602   1.53713   1.55036   1.58446
 Alpha virt. eigenvalues --    1.59808   1.64328   1.66503   1.68116   1.70328
 Alpha virt. eigenvalues --    1.73007   1.77871   1.80859   1.83051   1.83890
 Alpha virt. eigenvalues --    1.84800   1.87185   1.89590   1.91867   1.96829
 Alpha virt. eigenvalues --    1.99576   2.03730   2.09881   2.11744   2.13514
 Alpha virt. eigenvalues --    2.16350   2.18417   2.20737   2.24472   2.25576
 Alpha virt. eigenvalues --    2.36823   2.42402   2.44031   2.46229   2.50251
 Alpha virt. eigenvalues --    2.57103   2.58337   2.60065   2.62677   2.63506
 Alpha virt. eigenvalues --    2.67345   2.68703   2.70620   2.73483   2.81059
 Alpha virt. eigenvalues --    2.86266   2.87835   2.89738   2.95406   2.99213
 Alpha virt. eigenvalues --    3.49514   3.55772   4.51118   5.00858   5.01648
 Alpha virt. eigenvalues --    5.04222   5.06182   5.06816   5.11804   5.14394
 Alpha virt. eigenvalues --    5.21523   5.26851   5.35992   5.41820   5.44331
 Alpha virt. eigenvalues --    5.52003   6.71767   6.74321   6.75289   6.77261
 Alpha virt. eigenvalues --    6.79386   6.80578   6.83109   6.85510   6.91476
 Alpha virt. eigenvalues --    6.93337   6.94197   6.98123   6.99612   7.01757
 Alpha virt. eigenvalues --    7.11172   7.24686   7.26145   7.28031   7.31712
 Alpha virt. eigenvalues --    7.40837   7.64726   9.86777   9.89069   9.97441
 Alpha virt. eigenvalues --   10.01047  10.17757  12.92793  13.34355  13.78289
 Alpha virt. eigenvalues --   14.23361  14.24331  14.34266  17.75934  49.97794
 Alpha virt. eigenvalues --   49.99491  50.00588  50.10747 137.28827 163.86354
          Condensed to atoms (all electrons):
               1          2          3          4          5          6
     1  P   12.528484   0.545214   0.155516   0.043560   0.238491   0.010990
     2  O    0.545214   8.123183  -0.026842   0.001024  -0.005800  -0.015061
     3  O    0.155516  -0.026842   8.121095   0.216790   0.010523   0.000106
     4  H    0.043560   0.001024   0.216790   0.458404  -0.014148   0.002029
     5  O    0.238491  -0.005800   0.010523  -0.014148   8.024550   0.246904
     6  H    0.010990  -0.015061   0.000106   0.002029   0.246904   0.456280
     7  O    0.229275  -0.011322   0.004465  -0.011909   0.032670  -0.005249
     8  H    0.004869  -0.016953  -0.000069   0.001674  -0.003707  -0.003315
     9  O   -0.000544   0.001104  -0.000104  -0.000023  -0.000437  -0.000490
    10  H    0.001981   0.004438   0.000119   0.000017   0.000567   0.000277
    11  H   -0.000405   0.000802   0.000077  -0.000005  -0.000086  -0.000115
               7          8          9         10         11
     1  P    0.229275   0.004869  -0.000544   0.001981  -0.000405
     2  O   -0.011322  -0.016953   0.001104   0.004438   0.000802
     3  O    0.004465  -0.000069  -0.000104   0.000119   0.000077
     4  H   -0.011909   0.001674  -0.000023   0.000017  -0.000005
     5  O    0.032670  -0.003707  -0.000437   0.000567  -0.000086
     6  H   -0.005249  -0.003315  -0.000490   0.000277  -0.000115
     7  O    8.058771   0.252930  -0.000502  -0.000210   0.000806
     8  H    0.252930   0.449016  -0.000271   0.000318  -0.000442
     9  O   -0.000502  -0.000271   0.005217  -0.003212  -0.001619
    10  H   -0.000210   0.000318  -0.003212   0.003294   0.000426
    11  H    0.000806  -0.000442  -0.001619   0.000426   0.001461
 Mulliken charges:
               1
     1  P    1.242569
     2  O   -0.599788
     3  O   -0.481676
     4  H    0.302588
     5  O   -0.529528
     6  H    0.307642
     7  O   -0.549725
     8  H    0.315950
     9  O    0.000882
    10  H   -0.008015
    11  H   -0.000899
 Sum of Mulliken charges =  -0.00000
 Mulliken charges with hydrogens summed into heavy atoms:
               1
     1  P    1.242569
     2  O   -0.599788
     3  O   -0.179088
     5  O   -0.221886
     7  O   -0.233775
     9  O   -0.008032
         Mulliken charges condensed to fragments:
      1      0.008032
      2     -0.008032
 Electronic spatial extent (au):  <R**2>=          55411.0608
 Charge=              0.0000 electrons
 Dipole moment (field-independent basis, Debye):
    X=              4.9785    Y=              1.0969    Z=              2.5523  Tot=              5.7011
 Quadrupole moment (field-independent basis, Debye-Ang):
   XX=             66.7080   YY=             -7.3792   ZZ=              4.4119
   XY=             67.2309   XZ=             66.1247   YZ=             34.3453
 Traceless Quadrupole moment (field-independent basis, Debye-Ang):
   XX=             45.4611   YY=            -28.6261   ZZ=            -16.8350
   XY=             67.2309   XZ=             66.1247   YZ=             34.3453
 Octapole moment (field-independent basis, Debye-Ang**2):
  XXX=            475.5155  YYY=           -735.9141  ZZZ=           -307.6579  XYY=            558.4081
  XXY=            832.2870  XXZ=            833.1329  XZZ=            365.5699  YZZ=             41.5175
  YYZ=            205.0004  XYZ=            799.0033
 Hexadecapole moment (field-independent basis, Debye-Ang**3):
 XXXX=          -1264.1867 YYYY=         -21503.2141 ZZZZ=          -6551.8941 XXXY=           5486.8829
 XXXZ=           7484.3381 YYYX=           -302.6542 YYYZ=          -3030.3671 ZZZX=           -579.3221
 ZZZY=          -4116.1667 XXYY=           6929.9605 XXZZ=           5152.4634 YYZZ=          -1572.7722
 XXYZ=           9667.8670 YYXZ=           7123.4701 ZZXY=           3992.9455
 N-N= 2.796950658733D+02 E-N=-2.086980206267D+03  KE= 6.424702336075D+02
 No NMR shielding tensors so no spin-rotation constants.
 Leave Link  601 at Mon Feb 20 01:56:48 2023, MaxMem=  6710886400 cpu:               1.9 elap:               0.1
 (Enter /data0/hywu0/study/g16/l122.exe)
 CPIOFr:  IOpCl= 0 IRwI=-1 IRwCP=  731 ICalc=  1 LCPTot=       62711 Len1MO=      164280 IndFrg=      391271
 Counterpoise: doing calculation for fragment   2 using the basis set of the full-system, NewBq=T
 Leave Link  122 at Mon Feb 20 01:56:48 2023, MaxMem=  6710886400 cpu:               0.1 elap:               0.0
 (Enter /data0/hywu0/study/g16/l301.exe)
 Basis read from rwf:  (5D, 7F)
 No pseudopotential information found on rwf file.
   200 basis functions,   306 primitive gaussians,   212 cartesian basis functions
     5 alpha electrons        5 beta electrons
       nuclear repulsion energy         9.0861400280 Hartrees.
 IExCor= 4336 DFT=T Ex+Corr=M062X ExCW=0 ScaHFX=  0.540000
 ScaDFX=  1.000000  1.000000  1.000000  1.000000 ScalE2=  1.000000  1.000000
 IRadAn=      5 IRanWt=     -1 IRanGd=            0 ICorTp=0 IEmpDi=131
 NAtoms=   11 NActive=   11 NUniq=   11 SFac= 1.00D+00 NAtFMM=   60 NAOKFM=F Big=F
 Integral buffers will be    131072 words long.
 Raffenetti 2 integral format.
 Two-electron integral symmetry is turned off.
 R6Disp:  Grimme-D3 Dispersion energy=       -0.0000000070 Hartrees.
 Nuclear repulsion after empirical dispersion term =        9.0861400210 Hartrees.
 No density basis found on file   718.
 Leave Link  301 at Mon Feb 20 01:56:48 2023, MaxMem=  6710886400 cpu:               1.1 elap:               0.1
 (Enter /data0/hywu0/study/g16/l302.exe)
 NPDir=0 NMtPBC=     1 NCelOv=     1 NCel=       1 NClECP=     1 NCelD=      1
         NCelK=      1 NCelE2=     1 NClLst=     1 CellRange=     0.0.
 One-electron integrals computed using PRISM.
 NBasis=   200 RedAO= T EigKep=  5.78D-04  NBF=   200
 NBsUse=   200 1.00D-06 EigRej= -1.00D+00 NBFU=   200
 Precomputing XC quadrature grid using
 IXCGrd= 4 IRadAn=           5 IRanWt=          -1 IRanGd=           0 AccXCQ= 0.00D+00.
 Generated NRdTot=       0 NPtTot=           0 NUsed=           0 NTot=          32
 NSgBfM=   212   212   212   212   212 MxSgAt=    11 MxSgA2=    11.
 Leave Link  302 at Mon Feb 20 01:56:48 2023, MaxMem=  6710886400 cpu:               3.6 elap:               0.2
 (Enter /data0/hywu0/study/g16/l303.exe)
 DipDrv:  MaxL=1.
 Leave Link  303 at Mon Feb 20 01:56:48 2023, MaxMem=  6710886400 cpu:               0.8 elap:               0.1
 (Enter /data0/hywu0/study/g16/l401.exe)
 ExpMin= 3.48D-02 ExpMax= 7.75D+04 ExpMxC= 2.65D+03 IAcc=3 IRadAn=         5 AccDes= 0.00D+00
 Harris functional with IExCor= 1009 and IRadAn=       5 diagonalized for initial guess.
 HarFok:  IExCor= 1009 AccDes= 0.00D+00 IRadAn=         5 IDoV= 1 UseB2=F ITyADJ=14
 ICtDFT=  3500011 ScaDFX=  1.000000  1.000000  1.000000  1.000000
 FoFCou: FMM=F IPFlag=           0 FMFlag=      100000 FMFlg1=           0
         NFxFlg=           0 DoJE=T BraDBF=F KetDBF=T FulRan=T
         wScrn=  0.000000 ICntrl=       500 IOpCl=  0 I1Cent=   200000004 NGrid=           0
         NMat0=    1 NMatS0=      1 NMatT0=    0 NMatD0=    1 NMtDS0=    0 NMtDT0=    0
 Symmetry not used in FoFCou.
 Harris En= -76.4163431434226    
 JPrj=0 DoOrth=F DoCkMO=F.
 Leave Link  401 at Mon Feb 20 01:56:49 2023, MaxMem=  6710886400 cpu:               8.8 elap:               0.4
 (Enter /data0/hywu0/study/g16/l502.exe)
 Keep R1 ints in memory in canonical form, NReq=227026219.
 FoFCou: FMM=F IPFlag=           0 FMFlag=           0 FMFlg1=           0
         NFxFlg=           0 DoJE=F BraDBF=F KetDBF=F FulRan=T
         wScrn=  0.000000 ICntrl=       600 IOpCl=  0 I1Cent=           0 NGrid=           0
         NMat0=    1 NMatS0=  20100 NMatT0=    0 NMatD0=    1 NMtDS0=    0 NMtDT0=    0
 Symmetry not used in FoFCou.
 Two-electron integral symmetry not used.
 Closed shell SCF:
 Using DIIS extrapolation, IDIIS=  1040.
 NGot=  6710886400 LenX=  6508774801 LenY=  6508729416
 Requested convergence on RMS density matrix=1.00D-08 within 128 cycles.
 Requested convergence on MAX density matrix=1.00D-06.
 Requested convergence on             energy=1.00D-06.
 No special actions if energy rises.

 Cycle   1  Pass 1  IDiag  1:
 E= -76.3473038081091    
 DIIS: error= 2.90D-02 at cycle   1 NSaved=   1.
 NSaved= 1 IEnMin= 1 EnMin= -76.3473038081091     IErMin= 1 ErrMin= 2.90D-02
 ErrMax= 2.90D-02  0.00D+00 EMaxC= 1.00D-01 BMatC= 1.19D-01 BMatP= 1.19D-01
 IDIUse=3 WtCom= 7.10D-01 WtEn= 2.90D-01
 Coeff-Com:  0.100D+01
 Coeff-En:   0.100D+01
 Coeff:      0.100D+01
 Gap=     0.267 Goal=   None    Shift=    0.000
 GapD=    0.267 DampG=1.000 DampE=0.500 DampFc=0.5000 IDamp=-1.
 Damping current iteration by 5.00D-01
 RMSDP=1.85D-03 MaxDP=9.91D-02              OVMax= 1.69D-01

 Cycle   2  Pass 1  IDiag  1:
 E= -76.3781090861977     Delta-E=       -0.030805278089 Rises=F Damp=T
 DIIS: error= 5.87D-03 at cycle   2 NSaved=   2.
 NSaved= 2 IEnMin= 2 EnMin= -76.3781090861977     IErMin= 2 ErrMin= 5.87D-03
 ErrMax= 5.87D-03  0.00D+00 EMaxC= 1.00D-01 BMatC= 4.94D-03 BMatP= 1.19D-01
 IDIUse=3 WtCom= 9.41D-01 WtEn= 5.87D-02
 Coeff-Com:  0.864D-01 0.914D+00
 Coeff-En:   0.196D+00 0.804D+00
 Coeff:      0.928D-01 0.907D+00
 Gap=     0.392 Goal=   None    Shift=    0.000
 RMSDP=2.35D-04 MaxDP=1.46D-02 DE=-3.08D-02 OVMax= 1.02D-01

 Cycle   3  Pass 1  IDiag  1:
 E= -76.4220083487083     Delta-E=       -0.043899262511 Rises=F Damp=F
 DIIS: error= 9.80D-04 at cycle   3 NSaved=   3.
 NSaved= 3 IEnMin= 3 EnMin= -76.4220083487083     IErMin= 3 ErrMin= 9.80D-04
 ErrMax= 9.80D-04  0.00D+00 EMaxC= 1.00D-01 BMatC= 1.45D-04 BMatP= 4.94D-03
 IDIUse=3 WtCom= 9.90D-01 WtEn= 9.80D-03
 Coeff-Com: -0.271D-01 0.500D-01 0.977D+00
 Coeff-En:   0.000D+00 0.000D+00 0.100D+01
 Coeff:     -0.268D-01 0.495D-01 0.977D+00
 Gap=     0.394 Goal=   None    Shift=    0.000
 RMSDP=3.16D-05 MaxDP=1.21D-03 DE=-4.39D-02 OVMax= 3.89D-03

 Cycle   4  Pass 1  IDiag  1:
 E= -76.4221249360498     Delta-E=       -0.000116587342 Rises=F Damp=F
 DIIS: error= 1.41D-04 at cycle   4 NSaved=   4.
 NSaved= 4 IEnMin= 4 EnMin= -76.4221249360498     IErMin= 4 ErrMin= 1.41D-04
 ErrMax= 1.41D-04  0.00D+00 EMaxC= 1.00D-01 BMatC= 2.74D-06 BMatP= 1.45D-04
 IDIUse=3 WtCom= 9.99D-01 WtEn= 1.41D-03
 Coeff-Com: -0.289D-02 0.123D-04 0.146D+00 0.857D+00
 Coeff-En:   0.000D+00 0.000D+00 0.000D+00 0.100D+01
 Coeff:     -0.289D-02 0.122D-04 0.145D+00 0.857D+00
 Gap=     0.394 Goal=   None    Shift=    0.000
 RMSDP=4.77D-06 MaxDP=3.29D-04 DE=-1.17D-04 OVMax= 5.19D-04

 Cycle   5  Pass 1  IDiag  1:
 E= -76.4221266887287     Delta-E=       -0.000001752679 Rises=F Damp=F
 DIIS: error= 3.20D-05 at cycle   5 NSaved=   5.
 NSaved= 5 IEnMin= 5 EnMin= -76.4221266887287     IErMin= 5 ErrMin= 3.20D-05
 ErrMax= 3.20D-05  0.00D+00 EMaxC= 1.00D-01 BMatC= 7.80D-08 BMatP= 2.74D-06
 IDIUse=1 WtCom= 1.00D+00 WtEn= 0.00D+00
 Coeff-Com:  0.147D-02-0.231D-02-0.373D-01-0.458D-01 0.108D+01
 Coeff:      0.147D-02-0.231D-02-0.373D-01-0.458D-01 0.108D+01
 Gap=     0.395 Goal=   None    Shift=    0.000
 RMSDP=2.63D-06 MaxDP=9.26D-05 DE=-1.75D-06 OVMax= 2.05D-04

 Cycle   6  Pass 1  IDiag  1:
 E= -76.4221268199843     Delta-E=       -0.000000131256 Rises=F Damp=F
 DIIS: error= 3.70D-06 at cycle   6 NSaved=   6.
 NSaved= 6 IEnMin= 6 EnMin= -76.4221268199843     IErMin= 6 ErrMin= 3.70D-06
 ErrMax= 3.70D-06  0.00D+00 EMaxC= 1.00D-01 BMatC= 1.61D-09 BMatP= 7.80D-08
 IDIUse=1 WtCom= 1.00D+00 WtEn= 0.00D+00
 Coeff-Com: -0.269D-03 0.384D-03 0.371D-02-0.538D-02-0.157D+00 0.116D+01
 Coeff:     -0.269D-03 0.384D-03 0.371D-02-0.538D-02-0.157D+00 0.116D+01
 Gap=     0.395 Goal=   None    Shift=    0.000
 RMSDP=3.48D-07 MaxDP=1.88D-05 DE=-1.31D-07 OVMax= 3.66D-05

 Cycle   7  Pass 1  IDiag  1:
 E= -76.4221268231951     Delta-E=       -0.000000003211 Rises=F Damp=F
 DIIS: error= 4.76D-07 at cycle   7 NSaved=   7.
 NSaved= 7 IEnMin= 7 EnMin= -76.4221268231951     IErMin= 7 ErrMin= 4.76D-07
 ErrMax= 4.76D-07  0.00D+00 EMaxC= 1.00D-01 BMatC= 2.07D-11 BMatP= 1.61D-09
 IDIUse=1 WtCom= 1.00D+00 WtEn= 0.00D+00
 Coeff-Com:  0.238D-04-0.160D-04-0.255D-03 0.175D-02 0.789D-03-0.127D+00
 Coeff-Com:  0.112D+01
 Coeff:      0.238D-04-0.160D-04-0.255D-03 0.175D-02 0.789D-03-0.127D+00
 Coeff:      0.112D+01
 Gap=     0.395 Goal=   None    Shift=    0.000
 RMSDP=4.49D-08 MaxDP=2.27D-06 DE=-3.21D-09 OVMax= 4.71D-06

 Cycle   8  Pass 1  IDiag  1:
 E= -76.4221268232403     Delta-E=       -0.000000000045 Rises=F Damp=F
 DIIS: error= 8.91D-08 at cycle   8 NSaved=   8.
 NSaved= 8 IEnMin= 8 EnMin= -76.4221268232403     IErMin= 8 ErrMin= 8.91D-08
 ErrMax= 8.91D-08  0.00D+00 EMaxC= 1.00D-01 BMatC= 8.26D-13 BMatP= 2.07D-11
 IDIUse=1 WtCom= 1.00D+00 WtEn= 0.00D+00
 Coeff-Com:  0.949D-05-0.123D-04-0.976D-04 0.407D-03 0.374D-02-0.413D-01
 Coeff-Com:  0.118D+00 0.919D+00
 Coeff:      0.949D-05-0.123D-04-0.976D-04 0.407D-03 0.374D-02-0.413D-01
 Coeff:      0.118D+00 0.919D+00
 Gap=     0.395 Goal=   None    Shift=    0.000
 RMSDP=4.96D-09 MaxDP=1.37D-07 DE=-4.52D-11 OVMax= 4.99D-07

 SCF Done:  E(RM062X) =  -76.4221268232     A.U. after    8 cycles
            NFock=  8  Conv=0.50D-08     -V/T= 2.0031
 KE= 7.618771243815D+01 PE=-1.990129839321D+02 EE= 3.731700464968D+01
 Leave Link  502 at Mon Feb 20 01:56:56 2023, MaxMem=  6710886400 cpu:             110.7 elap:               7.1
 (Enter /data0/hywu0/study/g16/l601.exe)
 Copying SCF densities to generalized density rwf, IOpCl= 0 IROHF=0.

 **********************************************************************

            Population analysis using the SCF density.

 **********************************************************************

 Alpha  occ. eigenvalues --  -19.62771  -1.13403  -0.60242  -0.47941  -0.40044
 Alpha virt. eigenvalues --   -0.00583   0.03850   0.04045   0.04413   0.11125
 Alpha virt. eigenvalues --    0.11837   0.12237   0.15270   0.15523   0.17639
 Alpha virt. eigenvalues --    0.17873   0.18001   0.19239   0.19973   0.21538
 Alpha virt. eigenvalues --    0.22780   0.23293   0.24197   0.25684   0.26871
 Alpha virt. eigenvalues --    0.27711   0.29579   0.31054   0.32389   0.33912
 Alpha virt. eigenvalues --    0.35359   0.35847   0.36292   0.38479   0.39285
 Alpha virt. eigenvalues --    0.39738   0.42394   0.44651   0.55382   0.61497
 Alpha virt. eigenvalues --    0.66313   0.69322   0.70483   0.70836   0.71937
 Alpha virt. eigenvalues --    0.73159   0.73731   0.75935   0.77382   0.83789
 Alpha virt. eigenvalues --    0.85034   0.85643   0.93413   0.94731   0.97333
 Alpha virt. eigenvalues --    1.01255   1.02276   1.04696   1.06847   1.08178
 Alpha virt. eigenvalues --    1.10613   1.11404   1.14498   1.17632   1.19460
 Alpha virt. eigenvalues --    1.22081   1.23685   1.26102   1.27782   1.32551
 Alpha virt. eigenvalues --    1.34069   1.41992   1.42146   1.44930   1.53437
 Alpha virt. eigenvalues --    1.74444   1.75736   1.78626   1.85742   1.91302
 Alpha virt. eigenvalues --    1.94243   1.98343   2.01734   2.07540   2.10020
 Alpha virt. eigenvalues --    2.15802   2.19665   2.25817   2.28967   2.30553
 Alpha virt. eigenvalues --    2.33064   2.38648   2.39757   2.42964   2.44756
 Alpha virt. eigenvalues --    2.46405   2.47495   2.51706   2.55331   2.58137
 Alpha virt. eigenvalues --    2.60156   2.61098   2.62008   2.66550   2.67932
 Alpha virt. eigenvalues --    2.71263   2.73706   2.75777   2.80926   2.83802
 Alpha virt. eigenvalues --    2.88420   2.88919   2.90071   2.93071   2.94517
 Alpha virt. eigenvalues --    2.96147   2.99640   3.01125   3.02908   3.05488
 Alpha virt. eigenvalues --    3.08426   3.15023   3.16314   3.22758   3.24133
 Alpha virt. eigenvalues --    3.26001   3.28950   3.35005   3.41746   3.45145
 Alpha virt. eigenvalues --    3.67369   3.74159   3.79829   4.39180   4.44428
 Alpha virt. eigenvalues --    4.51591   4.51904   4.63343   4.70156   4.87903
 Alpha virt. eigenvalues --    4.93111   4.97818   5.06975   5.51433   5.91098
 Alpha virt. eigenvalues --    6.79089   6.80109   6.88124   6.92614   7.10415
 Alpha virt. eigenvalues --    9.86921   9.88390   9.99652  10.02735  10.14027
 Alpha virt. eigenvalues --   10.19602  10.23086  10.27375  10.28826  10.32042
 Alpha virt. eigenvalues --   10.33032  10.35694  10.38763  10.40591  10.41296
 Alpha virt. eigenvalues --   10.46511  10.50368  10.55023  10.67913  10.69510
 Alpha virt. eigenvalues --   10.71321  10.81242  10.88339  12.96339  13.01199
 Alpha virt. eigenvalues --   13.19809  13.22362  13.37623  13.44011  13.47436
 Alpha virt. eigenvalues --   13.54699  13.60957  13.68038  13.88280  13.94126
 Alpha virt. eigenvalues --   14.21363  17.85734  18.16139  18.52734  18.53346
 Alpha virt. eigenvalues --   49.97088  52.83851  52.88382  52.99537  70.66935
 Alpha virt. eigenvalues --  134.29227 138.22316 139.75683 139.77422 484.05883
          Condensed to atoms (all electrons):
               1          2          3          4          5          6
     1  P    0.022474  -0.005115  -0.011425  -0.000418  -0.000552  -0.000137
     2  O   -0.005115   0.006069   0.001655  -0.000459  -0.002130  -0.000220
     3  O   -0.011425   0.001655   0.014480  -0.000120  -0.005455  -0.000146
     4  H   -0.000418  -0.000459  -0.000120   0.000555   0.000244   0.000023
     5  O   -0.000552  -0.002130  -0.005455   0.000244   0.007676   0.000464
     6  H   -0.000137  -0.000220  -0.000146   0.000023   0.000464   0.000122
     7  O   -0.003750   0.001533   0.001318   0.000134  -0.001155  -0.000171
     8  H    0.000252  -0.000124   0.000335   0.000041  -0.000235   0.000034
     9  O    0.007326   0.006937   0.000650  -0.000005  -0.002280  -0.000041
    10  H   -0.001725   0.004870  -0.000004  -0.000007  -0.000413  -0.000055
    11  H    0.002379   0.000833   0.000152  -0.000002  -0.000733  -0.000067
               7          8          9         10         11
     1  P   -0.003750   0.000252   0.007326  -0.001725   0.002379
     2  O    0.001533  -0.000124   0.006937   0.004870   0.000833
     3  O    0.001318   0.000335   0.000650  -0.000004   0.000152
     4  H    0.000134   0.000041  -0.000005  -0.000007  -0.000002
     5  O   -0.001155  -0.000235  -0.002280  -0.000413  -0.000733
     6  H   -0.000171   0.000034  -0.000041  -0.000055  -0.000067
     7  O    0.003025  -0.000588   0.002210   0.002421   0.000497
     8  H   -0.000588   0.000412   0.000006  -0.000142   0.000092
     9  O    0.002210   0.000006   7.907253   0.317808   0.312909
    10  H    0.002421  -0.000142   0.317808   0.398314  -0.025173
    11  H    0.000497   0.000092   0.312909  -0.025173   0.435061
 Mulliken charges:
               1
     1  P   -0.009311
     2  O   -0.013850
     3  O   -0.001442
     4  H    0.000014
     5  O    0.004569
     6  H    0.000194
     7  O   -0.005476
     8  H   -0.000083
     9  O   -0.552771
    10  H    0.304105
    11  H    0.274051
 Sum of Mulliken charges =  -0.00000
 Mulliken charges with hydrogens summed into heavy atoms:
               1
     1  P   -0.009311
     2  O   -0.013850
     3  O   -0.001427
     5  O    0.004763
     7  O   -0.005559
     9  O    0.025386
         Mulliken charges condensed to fragments:
      1     -0.025386
      2      0.025386
 Electronic spatial extent (au):  <R**2>=           8512.4452
 Charge=             -0.0000 electrons
 Dipole moment (field-independent basis, Debye):
    X=              0.6897    Y=              1.9331    Z=             -0.3753  Tot=              2.0864
 Quadrupole moment (field-independent basis, Debye-Ang):
   XX=              9.4372   YY=             25.2062   ZZ=            -12.8880
   XY=             25.8640   XZ=              2.5848   YZ=             11.4278
 Traceless Quadrupole moment (field-independent basis, Debye-Ang):
   XX=              2.1854   YY=             17.9544   ZZ=            -20.1398
   XY=             25.8640   XZ=              2.5848   YZ=             11.4278
 Octapole moment (field-independent basis, Debye-Ang**2):
  XXX=             69.5536  YYY=            231.7912  ZZZ=           -232.9117  XYY=            309.1390
  XXY=            289.6920  XXZ=             56.5744  XZZ=            -75.8282  YZZ=              3.7207
  YYZ=            161.8369  XYZ=            173.1281
 Hexadecapole moment (field-independent basis, Debye-Ang**3):
 XXXX=           -134.5682 YYYY=           1688.6125 ZZZZ=          -3282.0198 XXXY=           2812.0203
 XXXZ=            496.0345 YYYX=           2784.9823 YYYZ=           1481.7567 ZZZX=          -1917.2012
 ZZZY=          -1080.0942 XXYY=           3388.3275 XXZZ=           -476.6721 YYZZ=            527.5763
 XXYZ=           2063.3847 YYXZ=           2128.5964 ZZXY=            526.3305
 N-N= 9.086140021023D+00 E-N=-1.990129859863D+02  KE= 7.618771243815D+01
 No NMR shielding tensors so no spin-rotation constants.
 Leave Link  601 at Mon Feb 20 01:56:56 2023, MaxMem=  6710886400 cpu:               1.9 elap:               0.1
 (Enter /data0/hywu0/study/g16/l122.exe)
 CPIOFr:  IOpCl= 0 IRwI=-1 IRwCP=  731 ICalc=  2 LCPTot=       62711 Len1MO=      164280 IndFrg=      555551
 Counterpoise: doing calculation for fragment   1 using the basis set of the fragment.
 Leave Link  122 at Mon Feb 20 01:56:56 2023, MaxMem=  6710886400 cpu:               0.3 elap:               0.0
 (Enter /data0/hywu0/study/g16/l301.exe)
 Basis read from rwf:  (5D, 7F)
 No pseudopotential information found on rwf file.
   161 basis functions,   248 primitive gaussians,   171 cartesian basis functions
    25 alpha electrons       25 beta electrons
       nuclear repulsion energy       279.6951097626 Hartrees.
 IExCor= 4336 DFT=T Ex+Corr=M062X ExCW=0 ScaHFX=  0.540000
 ScaDFX=  1.000000  1.000000  1.000000  1.000000 ScalE2=  1.000000  1.000000
 IRadAn=      5 IRanWt=     -1 IRanGd=            0 ICorTp=0 IEmpDi=131
 NAtoms=   11 NActive=    8 NUniq=    8 SFac= 1.00D+00 NAtFMM=   60 NAOKFM=F Big=F
 Integral buffers will be    131072 words long.
 Raffenetti 2 integral format.
 Two-electron integral symmetry is turned off.
 R6Disp:  Grimme-D3 Dispersion energy=       -0.0000438893 Hartrees.
 Nuclear repulsion after empirical dispersion term =      279.6950658733 Hartrees.
 No density basis found on file   718.
 Leave Link  301 at Mon Feb 20 01:56:56 2023, MaxMem=  6710886400 cpu:               1.1 elap:               0.1
 (Enter /data0/hywu0/study/g16/l302.exe)
 NPDir=0 NMtPBC=     1 NCelOv=     1 NCel=       1 NClECP=     1 NCelD=      1
         NCelK=      1 NCelE2=     1 NClLst=     1 CellRange=     0.0.
 One-electron integrals computed using PRISM.
 NBasis=   161 RedAO= T EigKep=  6.04D-04  NBF=   161
 NBsUse=   161 1.00D-06 EigRej= -1.00D+00 NBFU=   161
 Precomputing XC quadrature grid using
 IXCGrd= 4 IRadAn=           5 IRanWt=          -1 IRanGd=           0 AccXCQ= 0.00D+00.
 Generated NRdTot=       0 NPtTot=           0 NUsed=           0 NTot=          32
 NSgBfM=   171   171   171   171   171 MxSgAt=     8 MxSgA2=     8.
 Leave Link  302 at Mon Feb 20 01:56:56 2023, MaxMem=  6710886400 cpu:               3.2 elap:               0.1
 (Enter /data0/hywu0/study/g16/l303.exe)
 DipDrv:  MaxL=1.
 Leave Link  303 at Mon Feb 20 01:56:56 2023, MaxMem=  6710886400 cpu:               0.8 elap:               0.1
 (Enter /data0/hywu0/study/g16/l401.exe)
 ExpMin= 3.48D-02 ExpMax= 7.75D+04 ExpMxC= 2.65D+03 IAcc=3 IRadAn=         5 AccDes= 0.00D+00
 Harris functional with IExCor= 1009 and IRadAn=       5 diagonalized for initial guess.
 HarFok:  IExCor= 1009 AccDes= 0.00D+00 IRadAn=         5 IDoV= 1 UseB2=F ITyADJ=14
 ICtDFT=  3500011 ScaDFX=  1.000000  1.000000  1.000000  1.000000
 FoFCou: FMM=F IPFlag=           0 FMFlag=      100000 FMFlg1=           0
         NFxFlg=           0 DoJE=T BraDBF=F KetDBF=T FulRan=T
         wScrn=  0.000000 ICntrl=       500 IOpCl=  0 I1Cent=   200000004 NGrid=           0
         NMat0=    1 NMatS0=      1 NMatT0=    0 NMatD0=    1 NMtDS0=    0 NMtDT0=    0
 Symmetry not used in FoFCou.
 Harris En= -643.935605707781    
 JPrj=0 DoOrth=F DoCkMO=F.
 Leave Link  401 at Mon Feb 20 01:56:57 2023, MaxMem=  6710886400 cpu:               6.4 elap:               0.3
 (Enter /data0/hywu0/study/g16/l502.exe)
 Keep R1 ints in memory in canonical form, NReq=108960467.
 FoFCou: FMM=F IPFlag=           0 FMFlag=           0 FMFlg1=           0
         NFxFlg=           0 DoJE=F BraDBF=F KetDBF=F FulRan=T
         wScrn=  0.000000 ICntrl=       600 IOpCl=  0 I1Cent=           0 NGrid=           0
         NMat0=    1 NMatS0=  13041 NMatT0=    0 NMatD0=    1 NMtDS0=    0 NMtDT0=    0
 Symmetry not used in FoFCou.
 Two-electron integral symmetry not used.
 Closed shell SCF:
 Using DIIS extrapolation, IDIIS=  1040.
 NGot=  6710886400 LenX=  6625782085 LenY=  6625752403
 Requested convergence on RMS density matrix=1.00D-08 within 128 cycles.
 Requested convergence on MAX density matrix=1.00D-06.
 Requested convergence on             energy=1.00D-06.
 No special actions if energy rises.

 Cycle   1  Pass 1  IDiag  1:
 E= -643.836851841532    
 DIIS: error= 4.95D-02 at cycle   1 NSaved=   1.
 NSaved= 1 IEnMin= 1 EnMin= -643.836851841532     IErMin= 1 ErrMin= 4.95D-02
 ErrMax= 4.95D-02  0.00D+00 EMaxC= 1.00D-01 BMatC= 5.12D-01 BMatP= 5.12D-01
 IDIUse=3 WtCom= 5.05D-01 WtEn= 4.95D-01
 Coeff-Com:  0.100D+01
 Coeff-En:   0.100D+01
 Coeff:      0.100D+01
 Gap=     0.224 Goal=   None    Shift=    0.000
 GapD=    0.224 DampG=1.000 DampE=0.500 DampFc=0.5000 IDamp=-1.
 Damping current iteration by 5.00D-01
 RMSDP=8.23D-03 MaxDP=2.19D-01              OVMax= 2.81D-01

 Cycle   2  Pass 1  IDiag  1:
 E= -643.953045282214     Delta-E=       -0.116193440683 Rises=F Damp=T
 DIIS: error= 1.07D-02 at cycle   2 NSaved=   2.
 NSaved= 2 IEnMin= 2 EnMin= -643.953045282214     IErMin= 2 ErrMin= 1.07D-02
 ErrMax= 1.07D-02  0.00D+00 EMaxC= 1.00D-01 BMatC= 2.86D-02 BMatP= 5.12D-01
 IDIUse=3 WtCom= 8.93D-01 WtEn= 1.07D-01
 Coeff-Com:  0.814D-01 0.919D+00
 Coeff-En:   0.219D+00 0.781D+00
 Coeff:      0.960D-01 0.904D+00
 Gap=     0.331 Goal=   None    Shift=    0.000
 RMSDP=2.02D-03 MaxDP=7.64D-02 DE=-1.16D-01 OVMax= 1.86D-01

 Cycle   3  Pass 1  IDiag  1:
 E= -644.125905391381     Delta-E=       -0.172860109166 Rises=F Damp=F
 DIIS: error= 7.51D-03 at cycle   3 NSaved=   3.
 NSaved= 3 IEnMin= 3 EnMin= -644.125905391381     IErMin= 3 ErrMin= 7.51D-03
 ErrMax= 7.51D-03  0.00D+00 EMaxC= 1.00D-01 BMatC= 1.07D-02 BMatP= 2.86D-02
 IDIUse=3 WtCom= 9.25D-01 WtEn= 7.51D-02
 Coeff-Com: -0.107D-01 0.340D+00 0.671D+00
 Coeff-En:   0.000D+00 0.000D+00 0.100D+01
 Coeff:     -0.991D-02 0.314D+00 0.696D+00
 Gap=     0.320 Goal=   None    Shift=    0.000
 RMSDP=6.96D-04 MaxDP=1.53D-02 DE=-1.73D-01 OVMax= 3.62D-02

 Cycle   4  Pass 1  IDiag  1:
 E= -644.130681967654     Delta-E=       -0.004776576273 Rises=F Damp=F
 DIIS: error= 4.34D-03 at cycle   4 NSaved=   4.
 NSaved= 4 IEnMin= 4 EnMin= -644.130681967654     IErMin= 4 ErrMin= 4.34D-03
 ErrMax= 4.34D-03  0.00D+00 EMaxC= 1.00D-01 BMatC= 4.18D-03 BMatP= 1.07D-02
 IDIUse=3 WtCom= 9.57D-01 WtEn= 4.34D-02
 Coeff-Com: -0.206D-01 0.467D-01 0.405D+00 0.569D+00
 Coeff-En:   0.000D+00 0.000D+00 0.281D+00 0.719D+00
 Coeff:     -0.197D-01 0.447D-01 0.399D+00 0.576D+00
 Gap=     0.327 Goal=   None    Shift=    0.000
 RMSDP=2.77D-04 MaxDP=6.39D-03 DE=-4.78D-03 OVMax= 1.18D-02

 Cycle   5  Pass 1  IDiag  1:
 E= -644.133455298507     Delta-E=       -0.002773330853 Rises=F Damp=F
 DIIS: error= 2.50D-04 at cycle   5 NSaved=   5.
 NSaved= 5 IEnMin= 5 EnMin= -644.133455298507     IErMin= 5 ErrMin= 2.50D-04
 ErrMax= 2.50D-04  0.00D+00 EMaxC= 1.00D-01 BMatC= 1.74D-05 BMatP= 4.18D-03
 IDIUse=3 WtCom= 9.98D-01 WtEn= 2.50D-03
 Coeff-Com: -0.220D-02-0.622D-03 0.559D-01 0.116D+00 0.831D+00
 Coeff-En:   0.000D+00 0.000D+00 0.000D+00 0.000D+00 0.100D+01
 Coeff:     -0.219D-02-0.621D-03 0.558D-01 0.116D+00 0.831D+00
 Gap=     0.326 Goal=   None    Shift=    0.000
 RMSDP=3.02D-05 MaxDP=7.22D-04 DE=-2.77D-03 OVMax= 8.24D-04

 Cycle   6  Pass 1  IDiag  1:
 E= -644.133466799329     Delta-E=       -0.000011500822 Rises=F Damp=F
 DIIS: error= 8.45D-05 at cycle   6 NSaved=   6.
 NSaved= 6 IEnMin= 6 EnMin= -644.133466799329     IErMin= 6 ErrMin= 8.45D-05
 ErrMax= 8.45D-05  0.00D+00 EMaxC= 1.00D-01 BMatC= 1.70D-06 BMatP= 1.74D-05
 IDIUse=1 WtCom= 1.00D+00 WtEn= 0.00D+00
 Coeff-Com:  0.651D-05-0.179D-02 0.293D-02 0.146D-01 0.259D+00 0.726D+00
 Coeff:      0.651D-05-0.179D-02 0.293D-02 0.146D-01 0.259D+00 0.726D+00
 Gap=     0.326 Goal=   None    Shift=    0.000
 RMSDP=1.14D-05 MaxDP=2.06D-04 DE=-1.15D-05 OVMax= 2.99D-04

 Cycle   7  Pass 1  IDiag  1:
 E= -644.133467907578     Delta-E=       -0.000001108249 Rises=F Damp=F
 DIIS: error= 4.50D-05 at cycle   7 NSaved=   7.
 NSaved= 7 IEnMin= 7 EnMin= -644.133467907578     IErMin= 7 ErrMin= 4.50D-05
 ErrMax= 4.50D-05  0.00D+00 EMaxC= 1.00D-01 BMatC= 4.18D-07 BMatP= 1.70D-06
 IDIUse=1 WtCom= 1.00D+00 WtEn= 0.00D+00
 Coeff-Com:  0.384D-03-0.648D-03-0.913D-02-0.146D-01-0.244D-01 0.331D+00
 Coeff-Com:  0.717D+00
 Coeff:      0.384D-03-0.648D-03-0.913D-02-0.146D-01-0.244D-01 0.331D+00
 Coeff:      0.717D+00
 Gap=     0.326 Goal=   None    Shift=    0.000
 RMSDP=4.83D-06 MaxDP=1.01D-04 DE=-1.11D-06 OVMax= 1.33D-04

 Cycle   8  Pass 1  IDiag  1:
 E= -644.133468199000     Delta-E=       -0.000000291422 Rises=F Damp=F
 DIIS: error= 1.05D-05 at cycle   8 NSaved=   8.
 NSaved= 8 IEnMin= 8 EnMin= -644.133468199000     IErMin= 8 ErrMin= 1.05D-05
 ErrMax= 1.05D-05  0.00D+00 EMaxC= 1.00D-01 BMatC= 2.95D-08 BMatP= 4.18D-07
 IDIUse=1 WtCom= 1.00D+00 WtEn= 0.00D+00
 Coeff-Com:  0.136D-03-0.160D-03-0.376D-02-0.600D-02-0.172D-01 0.931D-01
 Coeff-Com:  0.294D+00 0.640D+00
 Coeff:      0.136D-03-0.160D-03-0.376D-02-0.600D-02-0.172D-01 0.931D-01
 Coeff:      0.294D+00 0.640D+00
 Gap=     0.326 Goal=   None    Shift=    0.000
 RMSDP=8.89D-07 MaxDP=2.69D-05 DE=-2.91D-07 OVMax= 3.56D-05

 Cycle   9  Pass 1  IDiag  1:
 E= -644.133468222194     Delta-E=       -0.000000023194 Rises=F Damp=F
 DIIS: error= 1.87D-06 at cycle   9 NSaved=   9.
 NSaved= 9 IEnMin= 9 EnMin= -644.133468222194     IErMin= 9 ErrMin= 1.87D-06
 ErrMax= 1.87D-06  0.00D+00 EMaxC= 1.00D-01 BMatC= 1.03D-09 BMatP= 2.95D-08
 IDIUse=1 WtCom= 1.00D+00 WtEn= 0.00D+00
 Coeff-Com: -0.278D-04 0.554D-04 0.271D-03 0.595D-03-0.828D-03-0.200D-01
 Coeff-Com: -0.288D-01 0.823D-01 0.966D+00
 Coeff:     -0.278D-04 0.554D-04 0.271D-03 0.595D-03-0.828D-03-0.200D-01
 Coeff:     -0.288D-01 0.823D-01 0.966D+00
 Gap=     0.326 Goal=   None    Shift=    0.000
 RMSDP=4.00D-07 MaxDP=1.02D-05 DE=-2.32D-08 OVMax= 1.43D-05

 Cycle  10  Pass 1  IDiag  1:
 E= -644.133468223489     Delta-E=       -0.000000001295 Rises=F Damp=F
 DIIS: error= 2.92D-07 at cycle  10 NSaved=  10.
 NSaved=10 IEnMin=10 EnMin= -644.133468223489     IErMin=10 ErrMin= 2.92D-07
 ErrMax= 2.92D-07  0.00D+00 EMaxC= 1.00D-01 BMatC= 2.99D-11 BMatP= 1.03D-09
 IDIUse=1 WtCom= 1.00D+00 WtEn= 0.00D+00
 Coeff-Com: -0.488D-05 0.838D-05 0.128D-03 0.216D-03 0.462D-03-0.507D-02
 Coeff-Com: -0.137D-01-0.137D-01 0.838D-01 0.948D+00
 Coeff:     -0.488D-05 0.838D-05 0.128D-03 0.216D-03 0.462D-03-0.507D-02
 Coeff:     -0.137D-01-0.137D-01 0.838D-01 0.948D+00
 Gap=     0.326 Goal=   None    Shift=    0.000
 RMSDP=8.13D-08 MaxDP=1.29D-06 DE=-1.29D-09 OVMax= 3.64D-06

 Cycle  11  Pass 1  IDiag  1:
 E= -644.133468223525     Delta-E=       -0.000000000036 Rises=F Damp=F
 DIIS: error= 3.49D-07 at cycle  11 NSaved=  11.
 NSaved=11 IEnMin=11 EnMin= -644.133468223525     IErMin=10 ErrMin= 2.92D-07
 ErrMax= 3.49D-07  0.00D+00 EMaxC= 1.00D-01 BMatC= 1.95D-11 BMatP= 2.99D-11
 IDIUse=1 WtCom= 1.00D+00 WtEn= 0.00D+00
 Coeff-Com:  0.335D-06-0.116D-05 0.404D-04 0.549D-04 0.314D-03-0.813D-03
 Coeff-Com: -0.442D-02-0.141D-01-0.474D-01 0.506D+00 0.560D+00
 Coeff:      0.335D-06-0.116D-05 0.404D-04 0.549D-04 0.314D-03-0.813D-03
 Coeff:     -0.442D-02-0.141D-01-0.474D-01 0.506D+00 0.560D+00
 Gap=     0.326 Goal=   None    Shift=    0.000
 RMSDP=2.41D-08 MaxDP=6.29D-07 DE=-3.62D-11 OVMax= 8.91D-07

 Cycle  12  Pass 1  IDiag  1:
 E= -644.133468223532     Delta-E=       -0.000000000008 Rises=F Damp=F
 DIIS: error= 5.17D-08 at cycle  12 NSaved=  12.
 NSaved=12 IEnMin=12 EnMin= -644.133468223532     IErMin=12 ErrMin= 5.17D-08
 ErrMax= 5.17D-08  0.00D+00 EMaxC= 1.00D-01 BMatC= 6.48D-13 BMatP= 1.95D-11
 IDIUse=1 WtCom= 1.00D+00 WtEn= 0.00D+00
 Coeff-Com:  0.752D-06-0.143D-05-0.629D-05-0.133D-04 0.104D-04 0.453D-03
 Coeff-Com:  0.921D-03-0.109D-02-0.233D-01-0.610D-02 0.136D+00 0.893D+00
 Coeff:      0.752D-06-0.143D-05-0.629D-05-0.133D-04 0.104D-04 0.453D-03
 Coeff:      0.921D-03-0.109D-02-0.233D-01-0.610D-02 0.136D+00 0.893D+00
 Gap=     0.326 Goal=   None    Shift=    0.000
 RMSDP=9.82D-09 MaxDP=1.75D-07 DE=-7.73D-12 OVMax= 4.31D-07

 SCF Done:  E(RM062X) =  -644.133468224     A.U. after   12 cycles
            NFock= 12  Conv=0.98D-08     -V/T= 2.0026
 KE= 6.424718658287D+02 PE=-2.086980559140D+03 EE= 5.206801592148D+02
 Leave Link  502 at Mon Feb 20 01:57:03 2023, MaxMem=  6710886400 cpu:             106.0 elap:               6.0
 (Enter /data0/hywu0/study/g16/l601.exe)
 Copying SCF densities to generalized density rwf, IOpCl= 0 IROHF=0.

 **********************************************************************

            Population analysis using the SCF density.

 **********************************************************************

 Alpha  occ. eigenvalues --  -78.16851 -19.69887 -19.69093 -19.68114 -19.57946
 Alpha  occ. eigenvalues --   -6.97639  -5.09557  -5.09543  -5.09290  -1.24614
 Alpha  occ. eigenvalues --   -1.17371  -1.16696  -1.08174  -0.72616  -0.65603
 Alpha  occ. eigenvalues --   -0.63723  -0.59069  -0.53362  -0.51924  -0.50036
 Alpha  occ. eigenvalues --   -0.46289  -0.45339  -0.45037  -0.37783  -0.36766
 Alpha virt. eigenvalues --   -0.04164   0.00879   0.02772   0.04648   0.08010
 Alpha virt. eigenvalues --    0.08827   0.10606   0.12721   0.15856   0.17088
 Alpha virt. eigenvalues --    0.17568   0.18393   0.19453   0.19855   0.21256
 Alpha virt. eigenvalues --    0.22505   0.24273   0.25719   0.25878   0.27456
 Alpha virt. eigenvalues --    0.27952   0.28996   0.30207   0.31999   0.33146
 Alpha virt. eigenvalues --    0.34192   0.36521   0.38158   0.40287   0.42586
 Alpha virt. eigenvalues --    0.44273   0.44801   0.52115   0.55689   0.57282
 Alpha virt. eigenvalues --    0.73501   0.76094   0.76494   0.85775   0.97865
 Alpha virt. eigenvalues --    0.99924   1.00214   1.05134   1.05798   1.11713
 Alpha virt. eigenvalues --    1.14110   1.14969   1.18624   1.19397   1.20098
 Alpha virt. eigenvalues --    1.21497   1.23128   1.26027   1.26835   1.32309
 Alpha virt. eigenvalues --    1.32875   1.42022   1.43003   1.49794   1.51734
 Alpha virt. eigenvalues --    1.52548   1.54929   1.57819   1.59515   1.63577
 Alpha virt. eigenvalues --    1.66457   1.67436   1.70276   1.72700   1.82597
 Alpha virt. eigenvalues --    1.83201   1.84500   1.86888   1.89143   1.96644
 Alpha virt. eigenvalues --    1.99271   2.03425   2.09693   2.11668   2.13644
[...]
 Alpha virt. eigenvalues --    5.13610   5.17239   5.23495   5.34783   5.41630
 Alpha virt. eigenvalues --    5.44108   5.51618   6.71688   6.73920   6.74992
 Alpha virt. eigenvalues --    6.76532   6.79122   6.80469   6.82770   6.85281
 Alpha virt. eigenvalues --    6.91403   6.92663   6.94118   6.97973   6.99424
 Alpha virt. eigenvalues --    7.01616   7.10751   7.24513   7.25663   7.27837
 Alpha virt. eigenvalues --    7.31539   7.40221   7.64184  14.23313  14.23799
 Alpha virt. eigenvalues --   14.33723  49.97260  49.98964  50.00467  50.10471
 Alpha virt. eigenvalues --  163.85501
          Condensed to atoms (all electrons):
               1          2          3          4          5          6
     1  P   12.486558   0.555770   0.170725   0.044471   0.233946   0.003845
     2  O    0.555770   8.136880  -0.035771   0.002373  -0.006480  -0.014691
     3  O    0.170725  -0.035771   8.118051   0.220916   0.006281  -0.000728
     4  H    0.044471   0.002373   0.220916   0.452670  -0.013322   0.001989
     5  O    0.233946  -0.006480   0.006281  -0.013322   8.046296   0.250878
     6  H    0.003845  -0.014691  -0.000728   0.001989   0.250878   0.460078
     7  O    0.225930  -0.007647   0.004997  -0.013456   0.035638  -0.003574
     8  H   -0.001685  -0.015021   0.000130   0.001491  -0.003733  -0.003631
               7          8
     1  P    0.225930  -0.001685
     2  O   -0.007647  -0.015021
     3  O    0.004997   0.000130
     4  H   -0.013456   0.001491
     5  O    0.035638  -0.003733
     6  H   -0.003574  -0.003631
     7  O    8.059701   0.256527
     8  H    0.256527   0.447428
 Mulliken charges:
               1
     1  P    1.280439
     2  O   -0.615413
     3  O   -0.484601
     4  H    0.302869
     5  O   -0.549505
     6  H    0.305833
     7  O   -0.558116
     8  H    0.318494
     9  O    0.000000
    10  H    0.000000
    11  H    0.000000
 Sum of Mulliken charges =  -0.00000
 Mulliken charges with hydrogens summed into heavy atoms:
               1
     1  P    1.280439
     2  O   -0.615413
     3  O   -0.181733
     5  O   -0.243672
     7  O   -0.239622
     9  O    0.000000
         Mulliken charges condensed to fragments:
      1     -0.000000
      2      0.000000
 Electronic spatial extent (au):  <R**2>=          55411.1143
 Charge=             -0.0000 electrons
 Dipole moment (field-independent basis, Debye):
    X=              4.9845    Y=              1.0860    Z=              2.5563  Tot=              5.7061
 Quadrupole moment (field-independent basis, Debye-Ang):
   XX=             66.8183   YY=             -7.6080   ZZ=              4.4583
   XY=             67.1836   XZ=             66.2146   YZ=             34.2974
 Traceless Quadrupole moment (field-independent basis, Debye-Ang):
   XX=             45.5954   YY=            -28.8309   ZZ=            -16.7646
   XY=             67.1836   XZ=             66.2146   YZ=             34.2974
 Octapole moment (field-independent basis, Debye-Ang**2):
  XXX=            477.0509  YYY=           -739.5381  ZZZ=           -307.3104  XYY=            556.7624
  XXY=            832.3215  XXZ=            834.4862  XZZ=            366.4444  YZZ=             41.2305
  YYZ=            203.5306  XYZ=            799.0399
 Hexadecapole moment (field-independent basis, Debye-Ang**3):
 XXXX=          -1245.1201 YYYY=         -21554.7836 ZZZZ=          -6550.3353 XXXY=           5491.2891
 XXXZ=           7502.2022 YYYX=           -332.4355 YYYZ=          -3056.5760 ZZZX=           -572.4007
 ZZZY=          -4119.3484 XXYY=           6918.4737 XXZZ=           5165.2298 YYZZ=          -1584.2835
 XXYZ=           9672.8458 YYXZ=           7114.0836 ZZXY=           3994.3709
 N-N= 2.796950658733D+02 E-N=-2.086980563760D+03  KE= 6.424718658287D+02
 No NMR shielding tensors so no spin-rotation constants.
 Leave Link  601 at Mon Feb 20 01:57:03 2023, MaxMem=  6710886400 cpu:               3.0 elap:               0.1
 (Enter /data0/hywu0/study/g16/l122.exe)
 CPIOFr:  IOpCl= 0 IRwI=-1 IRwCP=  731 ICalc=  3 LCPTot=       62711 Len1MO=      164280 IndFrg=      719831
 Counterpoise: doing calculation for fragment   2 using the basis set of the fragment.
 Leave Link  122 at Mon Feb 20 01:57:03 2023, MaxMem=  6710886400 cpu:               0.3 elap:               0.0
 (Enter /data0/hywu0/study/g16/l301.exe)
 Basis read from rwf:  (5D, 7F)
 No pseudopotential information found on rwf file.
    39 basis functions,    58 primitive gaussians,    41 cartesian basis functions
     5 alpha electrons        5 beta electrons
       nuclear repulsion energy         9.0861400280 Hartrees.
 IExCor= 4336 DFT=T Ex+Corr=M062X ExCW=0 ScaHFX=  0.540000
 ScaDFX=  1.000000  1.000000  1.000000  1.000000 ScalE2=  1.000000  1.000000
 IRadAn=      5 IRanWt=     -1 IRanGd=            0 ICorTp=0 IEmpDi=131
 NAtoms=   11 NActive=    3 NUniq=    3 SFac= 1.00D+00 NAtFMM=   60 NAOKFM=F Big=F
 Integral buffers will be    131072 words long.
 Raffenetti 2 integral format.
 Two-electron integral symmetry is turned off.
 R6Disp:  Grimme-D3 Dispersion energy=       -0.0000000070 Hartrees.
 Nuclear repulsion after empirical dispersion term =        9.0861400210 Hartrees.
 No density basis found on file   718.
 Leave Link  301 at Mon Feb 20 01:57:03 2023, MaxMem=  6710886400 cpu:               1.4 elap:               0.1
 (Enter /data0/hywu0/study/g16/l302.exe)
 NPDir=0 NMtPBC=     1 NCelOv=     1 NCel=       1 NClECP=     1 NCelD=      1
         NCelK=      1 NCelE2=     1 NClLst=     1 CellRange=     0.0.
 One-electron integrals computed using PRISM.
 NBasis=    39 RedAO= T EigKep=  2.97D-03  NBF=    39
 NBsUse=    39 1.00D-06 EigRej= -1.00D+00 NBFU=    39
 Precomputing XC quadrature grid using
 IXCGrd= 4 IRadAn=           5 IRanWt=          -1 IRanGd=           0 AccXCQ= 0.00D+00.
 Generated NRdTot=       0 NPtTot=           0 NUsed=           0 NTot=          32
 NSgBfM=    41    41    41    41    41 MxSgAt=     3 MxSgA2=     3.
 Leave Link  302 at Mon Feb 20 01:57:03 2023, MaxMem=  6710886400 cpu:               2.4 elap:               0.1
 (Enter /data0/hywu0/study/g16/l303.exe)
 DipDrv:  MaxL=1.
 Leave Link  303 at Mon Feb 20 01:57:03 2023, MaxMem=  6710886400 cpu:               0.9 elap:               0.0
 (Enter /data0/hywu0/study/g16/l401.exe)
 ExpMin= 8.45D-02 ExpMax= 8.59D+03 ExpMxC= 1.30D+03 IAcc=3 IRadAn=         5 AccDes= 0.00D+00
 Harris functional with IExCor= 1009 and IRadAn=       5 diagonalized for initial guess.
 HarFok:  IExCor= 1009 AccDes= 0.00D+00 IRadAn=         5 IDoV= 1 UseB2=F ITyADJ=14
 ICtDFT=  3500011 ScaDFX=  1.000000  1.000000  1.000000  1.000000
 FoFCou: FMM=F IPFlag=           0 FMFlag=      100000 FMFlg1=           0
         NFxFlg=           0 DoJE=T BraDBF=F KetDBF=T FulRan=T
         wScrn=  0.000000 ICntrl=       500 IOpCl=  0 I1Cent=   200000004 NGrid=           0
         NMat0=    1 NMatS0=      1 NMatT0=    0 NMatD0=    1 NMtDS0=    0 NMtDT0=    0
 Symmetry not used in FoFCou.
 Harris En= -76.4160211961580    
 JPrj=0 DoOrth=F DoCkMO=F.
 Leave Link  401 at Mon Feb 20 01:57:03 2023, MaxMem=  6710886400 cpu:               2.6 elap:               0.1
 (Enter /data0/hywu0/study/g16/l502.exe)
 Keep R1 ints in memory in canonical form, NReq=21037096.
 FoFCou: FMM=F IPFlag=           0 FMFlag=           0 FMFlg1=           0
         NFxFlg=           0 DoJE=F BraDBF=F KetDBF=F FulRan=T
         wScrn=  0.000000 ICntrl=       600 IOpCl=  0 I1Cent=           0 NGrid=           0
         NMat0=    1 NMatS0=    780 NMatT0=    0 NMatD0=    1 NMtDS0=    0 NMtDT0=    0
 Symmetry not used in FoFCou.
 Two-electron integral symmetry not used.
 Closed shell SCF:
 Using DIIS extrapolation, IDIIS=  1040.
 NGot=  6710886400 LenX=  6710576746 LenY=  6710574624
 Requested convergence on RMS density matrix=1.00D-08 within 128 cycles.
 Requested convergence on MAX density matrix=1.00D-06.
 Requested convergence on             energy=1.00D-06.
 No special actions if energy rises.
 Integral accuracy reduced to 1.0D-05 until final iterations.

 Cycle   1  Pass 0  IDiag  1:
 E= -76.3467387838000    
 DIIS: error= 6.96D-02 at cycle   1 NSaved=   1.
 NSaved= 1 IEnMin= 1 EnMin= -76.3467387838000     IErMin= 1 ErrMin= 6.96D-02
 ErrMax= 6.96D-02  0.00D+00 EMaxC= 1.00D-01 BMatC= 1.20D-01 BMatP= 1.20D-01
 IDIUse=3 WtCom= 3.04D-01 WtEn= 6.96D-01
 Coeff-Com:  0.100D+01
 Coeff-En:   0.100D+01
 Coeff:      0.100D+01
 Gap=     0.325 Goal=   None    Shift=    0.000
 GapD=    0.325 DampG=1.000 DampE=0.500 DampFc=0.5000 IDamp=-1.
 Damping current iteration by 5.00D-01
 RMSDP=8.02D-03 MaxDP=1.00D-01              OVMax= 1.67D-01

 Cycle   2  Pass 0  IDiag  1:
 E= -76.3778666515226     Delta-E=       -0.031127867723 Rises=F Damp=T
 DIIS: error= 1.12D-02 at cycle   2 NSaved=   2.
 NSaved= 2 IEnMin= 2 EnMin= -76.3778666515226     IErMin= 2 ErrMin= 1.12D-02
 ErrMax= 1.12D-02  0.00D+00 EMaxC= 1.00D-01 BMatC= 4.85D-03 BMatP= 1.20D-01
 IDIUse=3 WtCom= 8.88D-01 WtEn= 1.12D-01
 Coeff-Com:  0.838D-01 0.916D+00
 Coeff-En:   0.190D+00 0.810D+00
 Coeff:      0.957D-01 0.904D+00
 Gap=     0.457 Goal=   None    Shift=    0.000
 RMSDP=9.56D-04 MaxDP=1.42D-02 DE=-3.11D-02 OVMax= 1.00D-01

 Cycle   3  Pass 0  IDiag  1:
 E= -76.4215600038066     Delta-E=       -0.043693352284 Rises=F Damp=F
 DIIS: error= 2.15D-03 at cycle   3 NSaved=   3.
 NSaved= 3 IEnMin= 3 EnMin= -76.4215600038066     IErMin= 3 ErrMin= 2.15D-03
 ErrMax= 2.15D-03  0.00D+00 EMaxC= 1.00D-01 BMatC= 8.98D-05 BMatP= 4.85D-03
 IDIUse=3 WtCom= 9.79D-01 WtEn= 2.15D-02
 Coeff-Com: -0.199D-01 0.388D-01 0.981D+00
 Coeff-En:   0.000D+00 0.000D+00 0.100D+01
 Coeff:     -0.195D-01 0.379D-01 0.982D+00
 Gap=     0.461 Goal=   None    Shift=    0.000
 RMSDP=1.14D-04 MaxDP=1.00D-03 DE=-4.37D-02 OVMax= 3.32D-03

 Cycle   4  Pass 0  IDiag  1:
 E= -76.4216368363046     Delta-E=       -0.000076832498 Rises=F Damp=F
 DIIS: error= 4.14D-04 at cycle   4 NSaved=   4.
 NSaved= 4 IEnMin= 4 EnMin= -76.4216368363046     IErMin= 4 ErrMin= 4.14D-04
 ErrMax= 4.14D-04  0.00D+00 EMaxC= 1.00D-01 BMatC= 3.23D-06 BMatP= 8.98D-05
 IDIUse=3 WtCom= 9.96D-01 WtEn= 4.14D-03
 Coeff-Com: -0.184D-02-0.235D-02 0.160D+00 0.844D+00
 Coeff-En:   0.000D+00 0.000D+00 0.000D+00 0.100D+01
 Coeff:     -0.184D-02-0.234D-02 0.159D+00 0.845D+00
 Gap=     0.462 Goal=   None    Shift=    0.000
 RMSDP=2.22D-05 MaxDP=3.56D-04 DE=-7.68D-05 OVMax= 5.40D-04

 Cycle   5  Pass 0  IDiag  1:
 E= -76.4216388486384     Delta-E=       -0.000002012334 Rises=F Damp=F
 DIIS: error= 8.82D-05 at cycle   5 NSaved=   5.
 NSaved= 5 IEnMin= 5 EnMin= -76.4216388486384     IErMin= 5 ErrMin= 8.82D-05
 ErrMax= 8.82D-05  0.00D+00 EMaxC= 1.00D-01 BMatC= 8.17D-08 BMatP= 3.23D-06
 IDIUse=1 WtCom= 1.00D+00 WtEn= 0.00D+00
 Coeff-Com:  0.118D-02-0.180D-02-0.370D-01-0.605D-01 0.110D+01
 Coeff:      0.118D-02-0.180D-02-0.370D-01-0.605D-01 0.110D+01
 Gap=     0.462 Goal=   None    Shift=    0.000
 RMSDP=9.00D-06 MaxDP=1.01D-04 DE=-2.01D-06 OVMax= 2.03D-04

 Initial convergence to 1.0D-05 achieved.  Increase integral accuracy.
 Cycle   6  Pass 1  IDiag  1:
 E= -76.4216309387769     Delta-E=        0.000007909862 Rises=F Damp=F
 DIIS: error= 1.51D-05 at cycle   1 NSaved=   1.
 NSaved= 1 IEnMin= 1 EnMin= -76.4216309387769     IErMin= 1 ErrMin= 1.51D-05
 ErrMax= 1.51D-05  0.00D+00 EMaxC= 1.00D-01 BMatC= 1.29D-08 BMatP= 1.29D-08
 IDIUse=1 WtCom= 1.00D+00 WtEn= 0.00D+00
 Coeff-Com:  0.100D+01
 Coeff:      0.100D+01
 Gap=     0.462 Goal=   None    Shift=    0.000
 RMSDP=9.00D-06 MaxDP=1.01D-04 DE= 7.91D-06 OVMax= 4.70D-05

 Cycle   7  Pass 1  IDiag  1:
 E= -76.4216309490375     Delta-E=       -0.000000010261 Rises=F Damp=F
 DIIS: error= 1.22D-05 at cycle   2 NSaved=   2.
 NSaved= 2 IEnMin= 2 EnMin= -76.4216309490375     IErMin= 2 ErrMin= 1.22D-05
 ErrMax= 1.22D-05  0.00D+00 EMaxC= 1.00D-01 BMatC= 2.27D-09 BMatP= 1.29D-08
 IDIUse=1 WtCom= 1.00D+00 WtEn= 0.00D+00
 Coeff-Com:  0.166D+00 0.834D+00
 Coeff:      0.166D+00 0.834D+00
 Gap=     0.462 Goal=   None    Shift=    0.000
 RMSDP=9.14D-07 MaxDP=1.50D-05 DE=-1.03D-08 OVMax= 2.37D-05

 Cycle   8  Pass 1  IDiag  1:
 E= -76.4216309497858     Delta-E=       -0.000000000748 Rises=F Damp=F
 DIIS: error= 7.34D-06 at cycle   3 NSaved=   3.
 NSaved= 3 IEnMin= 3 EnMin= -76.4216309497858     IErMin= 3 ErrMin= 7.34D-06
 ErrMax= 7.34D-06  0.00D+00 EMaxC= 1.00D-01 BMatC= 1.45D-09 BMatP= 2.27D-09
 IDIUse=1 WtCom= 1.00D+00 WtEn= 0.00D+00
 Coeff-Com: -0.555D-01 0.452D+00 0.604D+00
 Coeff:     -0.555D-01 0.452D+00 0.604D+00
 Gap=     0.462 Goal=   None    Shift=    0.000
 RMSDP=4.30D-07 MaxDP=5.85D-06 DE=-7.48D-10 OVMax= 1.06D-05

 Cycle   9  Pass 1  IDiag  1:
 E= -76.4216309507573     Delta-E=       -0.000000000971 Rises=F Damp=F
 DIIS: error= 5.01D-07 at cycle   4 NSaved=   4.
 NSaved= 4 IEnMin= 4 EnMin= -76.4216309507573     IErMin= 4 ErrMin= 5.01D-07
 ErrMax= 5.01D-07  0.00D+00 EMaxC= 1.00D-01 BMatC= 3.79D-12 BMatP= 1.45D-09
 IDIUse=1 WtCom= 1.00D+00 WtEn= 0.00D+00
 Coeff-Com: -0.212D-02-0.187D-01-0.117D-01 0.103D+01
 Coeff:     -0.212D-02-0.187D-01-0.117D-01 0.103D+01
 Gap=     0.462 Goal=   None    Shift=    0.000
 RMSDP=6.89D-08 MaxDP=6.08D-07 DE=-9.71D-10 OVMax= 1.46D-06

 Cycle  10  Pass 1  IDiag  1:
 E= -76.4216309507645     Delta-E=       -0.000000000007 Rises=F Damp=F
 DIIS: error= 8.92D-08 at cycle   5 NSaved=   5.
 NSaved= 5 IEnMin= 5 EnMin= -76.4216309507645     IErMin= 5 ErrMin= 8.92D-08
 ErrMax= 8.92D-08  0.00D+00 EMaxC= 1.00D-01 BMatC= 2.80D-13 BMatP= 3.79D-12
 IDIUse=1 WtCom= 1.00D+00 WtEn= 0.00D+00
 Coeff-Com:  0.331D-02-0.342D-01-0.421D-01 0.104D+00 0.969D+00
 Coeff:      0.331D-02-0.342D-01-0.421D-01 0.104D+00 0.969D+00
 Gap=     0.462 Goal=   None    Shift=    0.000
 RMSDP=2.20D-08 MaxDP=1.78D-07 DE=-7.20D-12 OVMax= 5.04D-07

 Cycle  11  Pass 1  IDiag  1:
 E= -76.4216309507649     Delta-E=       -0.000000000000 Rises=F Damp=F
 DIIS: error= 1.74D-08 at cycle   6 NSaved=   6.
 NSaved= 6 IEnMin= 6 EnMin= -76.4216309507649     IErMin= 6 ErrMin= 1.74D-08
 ErrMax= 1.74D-08  0.00D+00 EMaxC= 1.00D-01 BMatC= 4.90D-15 BMatP= 2.80D-13
 IDIUse=1 WtCom= 1.00D+00 WtEn= 0.00D+00
 Coeff-Com: -0.146D-03 0.246D-02 0.378D-02-0.339D-01-0.621D-01 0.109D+01
 Coeff:     -0.146D-03 0.246D-02 0.378D-02-0.339D-01-0.621D-01 0.109D+01
 Gap=     0.462 Goal=   None    Shift=    0.000
 RMSDP=3.26D-09 MaxDP=2.33D-08 DE=-4.12D-13 OVMax= 6.12D-08

 SCF Done:  E(RM062X) =  -76.4216309508     A.U. after   11 cycles
            NFock= 11  Conv=0.33D-08     -V/T= 2.0030
 KE= 7.619091944979D+01 PE=-1.990173029101D+02 EE= 3.731861248850D+01
 Leave Link  502 at Mon Feb 20 01:57:04 2023, MaxMem=  6710886400 cpu:               9.7 elap:               0.4
 (Enter /data0/hywu0/study/g16/l601.exe)
 Copying SCF densities to generalized density rwf, IOpCl= 0 IROHF=0.

 **********************************************************************

            Population analysis using the SCF density.

 **********************************************************************

 Alpha  occ. eigenvalues --  -19.62734  -1.13398  -0.60234  -0.47905  -0.40019
 Alpha virt. eigenvalues --    0.06180   0.13301   0.17438   0.17937   0.18878
 Alpha virt. eigenvalues --    0.23500   0.50759   0.53424   0.98270   1.00273
 Alpha virt. eigenvalues --    1.05985   1.16693   1.20370   1.31556   1.34080
 Alpha virt. eigenvalues --    1.71160   1.74465   1.74991   2.07013   2.09972
 Alpha virt. eigenvalues --    2.35741   2.39149   2.55316   2.87361   3.01358
 Alpha virt. eigenvalues --    5.05589   5.49604   5.89549   6.78649   6.79866
 Alpha virt. eigenvalues --    6.87279   6.91990   7.09390  49.95364
          Condensed to atoms (all electrons):
               9         10         11
     9  O    7.919647   0.315836   0.314338
    10  H    0.315836   0.433206  -0.023295
    11  H    0.314338  -0.023295   0.433387
 Mulliken charges:
               1
     1  P    0.000000
     2  O    0.000000
     3  O    0.000000
     4  H    0.000000
     5  O    0.000000
     6  H    0.000000
     7  O    0.000000
     8  H    0.000000
     9  O   -0.549821
    10  H    0.274252
    11  H    0.275569
 Sum of Mulliken charges =  -0.00000
 Mulliken charges with hydrogens summed into heavy atoms:
               1
     1  P    0.000000
     2  O    0.000000
     3  O    0.000000
     5  O    0.000000
     7  O    0.000000
     9  O   -0.000000
         Mulliken charges condensed to fragments:
      1      0.000000
      2     -0.000000
 Electronic spatial extent (au):  <R**2>=           8511.5631
 Charge=             -0.0000 electrons
 Dipole moment (field-independent basis, Debye):
    X=              0.6969    Y=              2.0010    Z=             -0.3830  Tot=              2.1533
 Quadrupole moment (field-independent basis, Debye-Ang):
   XX=              9.5851   YY=             26.3695   ZZ=            -13.0128
   XY=             26.6388   XZ=              2.5565   YZ=             11.8896
 Traceless Quadrupole moment (field-independent basis, Debye-Ang):
   XX=              1.9378   YY=             18.7223   ZZ=            -20.6600
   XY=             26.6388   XZ=              2.5565   YZ=             11.8896
 Octapole moment (field-independent basis, Debye-Ang**2):
  XXX=             71.8095  YYY=            246.9871  ZZZ=           -234.4762  XYY=            321.8832
  XXY=            298.4942  XXZ=             56.7824  XZZ=            -76.7619  YZZ=              6.8178
  YYZ=            170.3143  XYZ=            178.3970
 Hexadecapole moment (field-independent basis, Debye-Ang**3):
 XXXX=           -104.0031 YYYY=           1868.1994 ZZZZ=          -3299.7742 XXXY=           2911.7228
 XXXZ=            503.0675 YYYX=           2949.2680 YYYZ=           1595.2068 ZZZX=          -1930.8768
 ZZZY=          -1060.0164 XXYY=           3528.5378 XXZZ=           -482.8655 YYZZ=            589.9929
 XXYZ=           2123.2834 YYXZ=           2221.1290 ZZXY=            561.7604
 N-N= 9.086140021023D+00 E-N=-1.990173031638D+02  KE= 7.619091944979D+01
 No NMR shielding tensors so no spin-rotation constants.
 Leave Link  601 at Mon Feb 20 01:57:04 2023, MaxMem=  6710886400 cpu:               1.6 elap:               0.1
 (Enter /data0/hywu0/study/g16/l122.exe)
 CPIOFr:  IOpCl= 0 IRwI=-1 IRwCP=  731 ICalc=  4 LCPTot=       62711 Len1MO=      164280 IndFrg=      884111
 Restoring MOs from calculation   1 to rwf.
 CPIOFr:  IOpCl= 0 IRwI=-2 IRwCP=  731 ICalc=  0 LCPTot=       62711 Len1MO=      164280 IndFrg=      226991
 Counterpoise corrected energy =    -720.559245788548
                   BSSE energy =       0.000751946368
              sum of fragments =    -720.555099174297
           complexation energy =      -3.07 kcal/mole (raw)
           complexation energy =      -2.60 kcal/mole (corrected)
 Leave Link  122 at Mon Feb 20 01:57:04 2023, MaxMem=  6710886400 cpu:               0.1 elap:               0.0
 (Enter /data0/hywu0/study/g16/l9999.exe)
 1\1\GINC-LOCALHOST\SP\RM062X\6-311+G(2d,p)\H5O5P1\HYWU0\20-Feb-2023\0\
 \#p M062X/6-311+G(2d,p) nosymm em=GD3 counterpoise=2\\Title Card Requi
 red\\0,1\P,0,10.3185,11.99564,7.360002\O,0,9.310576,10.931324,7.238323
 \O,0,9.917193,13.233943,6.438171\H,0,10.654106,13.949066,6.553961\O,0,
 10.416437,12.637184,8.810619\H,0,10.967946,11.969039,9.439509\O,0,11.7
 91612,11.640117,6.913512\H,0,12.174073,10.901976,7.601031\O,0,10.50986
 ,8.062725,7.800251\H,0,10.053028,8.78874,7.358635\H,0,11.364776,8.4709
 37,8.026094\\Version=ES64L-G16RevA.03\HF=-76.421631\RMSD=3.257e-09\Dip
 ole=2.1236854,1.3950164,0.8151175\Quadrupole=30.2832659,-0.7452352,-29
 .5380307,71.4532878,48.6594199,36.2705399\PG=C01 [X(H5O5P1)]\\@


 THE REASON MAN'S BEST FRIEND IS A DOG IS BECAUSE
 HE WAGS HIS TAIL INSTEAD OF HIS TONGUE.
 Job cpu time:       0 days  0 hours 10 minutes 23.3 seconds.
 Elapsed time:       0 days  0 hours  0 minutes 37.6 seconds.
 File lengths (MBytes):  RWF=     27 Int=      0 D2E=      0 Chk=     10 Scr=      1
 Normal termination of Gaussian 16 at Mon Feb 20 01:57:04 2023.
