 Entering Gaussian System, Link 0=g16
 Initial command:
 /data0/hywu0/study/g16/l1.exe "/data0/hywu0/study/g16/scratch/Gau-3647994.inp" -scrdir="/data0/hywu0/study/g16/scratch/"
 Default is to use a total of  16 processors:
                               16 via shared-memory
                                1 via Linda
 Entering Link 1 = /data0/hywu0/study/g16/l1.exe PID=   3647995.
  
 Copyright (c) 1988,1990,1992,1993,1995,1998,2003,2009,2016,
            Gaussian, Inc.  All Rights Reserved.
  
 This is part of the Gaussian(R) 16 program.  It is based on
 the Gaussian(R) 09 system (copyright 2009, Gaussian, Inc.),
 the Gaussian(R) 03 system (copyright 2003, Gaussian, Inc.),
 the Gaussian(R) 98 system (copyright 1998, Gaussian, Inc.),
 the Gaussian(R) 94 system (copyright 1995, Gaussian, Inc.),
 the Gaussian 92(TM) system (copyright 1992, Gaussian, Inc.),
 the Gaussian 90(TM) system (copyright 1990, Gaussian, Inc.),
 the Gaussian 88(TM) system (copyright 1988, Gaussian, Inc.),
 the Gaussian 86(TM) system (copyright 1986, Carnegie Mellon
 University), and the Gaussian 82(TM) system (copyright 1983,
 Carnegie Mellon University). Gaussian is a federally registered
 trademark of Gaussian, Inc.
  
 This software contains proprietary and confidential information,
 including trade secrets, belonging to Gaussian, Inc.
  
 This software is provided under written license and may be
 used, copied, transmitted, or stored only in accord with that
 written license.
  
 The following legend is applicable only to US Government
 contracts under FAR:
  
                    RESTRICTED RIGHTS LEGEND
  
 Use, reproduction and disclosure by the US Government is
 subject to restrictions as set forth in subparagraphs (a)
 and (c) of the Commercial Computer Software - Restricted
 Rights clause in FAR 52.227-19.
  
 Gaussian, Inc.
 340 Quinnipiac St., Bldg. 40, Wallingford CT 06492
  
  
 ---------------------------------------------------------------
 Warning -- This program may not be used in any manner that
 competes with the business of Gaussian, Inc. or will provide
 assistance to any competitor of Gaussian, Inc.  The licensee
 of this program is prohibited from giving any competitor of
 Gaussian, Inc. access to this program.  By using this program,
 the user acknowledges that Gaussian, Inc. is engaged in the
 business of creating and licensing software in the field of
 computational chemistry and represents and warrants to the
 licensee that it is not a competitor of Gaussian, Inc. and that
 it will not use this program in any manner prohibited above.
 ---------------------------------------------------------------
  

 Cite this work as:
 Gaussian 16, Revision A.03,
 M. J. Frisch, G. W. Trucks, H. B. Schlegel, G. E. Scuseria, 
 M. A. Robb, J. R. Cheeseman, G. Scalmani, V. Barone, 
 G. A. Petersson, H. Nakatsuji, X. Li, M. Caricato, A. V. Marenich, 
 J. Bloino, B. G. Janesko, R. Gomperts, B. Mennucci, H. P. Hratchian, 
 J. V. Ortiz, A. F. Izmaylov, J. L. Sonnenberg, D. Williams-Young, 
 F. Ding, F. Lipparini, F. Egidi, J. Goings, B. Peng, A. Petrone, 
 T. Henderson, D. Ranasinghe, V. G. Zakrzewski, J. Gao, N. Rega, 
 G. Zheng, W. Liang, M. Hada, M. Ehara, K. Toyota, R. Fukuda, 
 J. Hasegawa, M. Ishida, T. Nakajima, Y. Honda, O. Kitao, H. Nakai, 
 T. Vreven, K. Throssell, J. A. Montgomery, Jr., J. E. Peralta, 
 F. Ogliaro, M. J. Bearpark, J. J. Heyd, E. N. Brothers, K. N. Kudin, 
 V. N. Staroverov, T. A. Keith, R. Kobayashi, J. Normand, 
 K. Raghavachari, A. P. Rendell, J. C. Burant, S. S. Iyengar, 
 J. Tomasi, M. Cossi, J. M. Millam, M. Klene, C. Adamo, R. Cammi, 
 J. W. Ochterski, R. L. Martin, K. Morokuma, O. Farkas, 
 J. B. Foresman, and D. J. Fox, Gaussian, Inc., Wallingford CT, 2016.
 
 ******************************************
 Gaussian 16:  ES64L-G16RevA.03 25-Dec-2016
                13-May-2022 
 ******************************************
 %nproc=16
 Will use up to   16 processors via shared memory.
 %mem=40000MB
 ---------------------------------------------------
 #p M062X/6-311+G(2d,p) nosymm em=GD3 counterpoise=6
 ---------------------------------------------------
 1/38=1,62=6,172=1/1;
 2/12=2,15=1,17=6,18=5,40=1/2;
 1/38=1,53=2,62=6,63=1/22;
 3/5=4,6=6,7=112,11=2,25=1,30=1,74=-55,124=31/1,2,3;
 4//1;
 5/5=2,38=5/2;
 6/7=2,8=2,9=2,10=2,28=1/1;
 1/53=2,62=6,63=1/22;
 3/5=7,6=11,7=112,11=2,25=1,30=1,74=-55,82=7,124=31/1,2,3;
 4//1;
 5/5=2,38=5/2;
 6/7=2,8=2,9=2,10=2,28=1/1;
 1/53=2,62=6,63=1/22(-4);
 99/5=1,9=1/99;
 Leave Link    1 at Fri May 13 10:46:08 2022, MaxMem=  5242880000 cpu:               0.4 elap:               0.0
 (Enter /data0/hywu0/study/g16/l101.exe)
 -------------------
 Title Card Required
 -------------------
 Symbolic Z-matrix:
 Charge =  0 Multiplicity = 1 in supermolecule
 Charge =  0 Multiplicity = 1 in fragment      1.
 Charge =  0 Multiplicity = 1 in fragment      2.
 Charge =  0 Multiplicity = 1 in fragment      3.
 Charge =  0 Multiplicity = 1 in fragment      4.
 Charge =  0 Multiplicity = 1 in fragment      5.
 Charge =  0 Multiplicity = 1 in fragment      6.
 C                     11.50458   8.18576   11.44782    
 C                     12.0279   9.4006    11.87496    
 C                     9.78093   9.54845   11.93785    
 N                     10.11574   8.2967    11.50073    
 H                     12.01167   7.30504   11.08105    
 H                     13.05851   9.72076   11.94033    
 H                     8.76743   9.93908   12.04764    
 C                     9.15743   7.28496   11.09516    
 H                     8.54633   6.94773   11.94915    
 H                     8.46706   7.68839   10.31336    
 H                     9.66773   6.40756   10.64532    
 N                     10.9473   10.2332   12.17325    
 C                     11.02957   11.64111   12.56878    
 H                     11.56053   11.69475   13.54836    
 H                     9.99357   12.03231   12.73208    
 C                     11.7632   12.5118   11.52583    
 H                     12.32424   13.304    12.06556    
 H                     12.55397   11.91527   11.01017    
 C                     10.84327   13.16694   10.5002    
 H                     11.42856   13.83908   9.84225    
 H                     10.09554   13.81555   10.99113    
 S                     9.98918   11.95529   9.48273    
 O                     9.332     12.62594   8.35923    
 O                     11.04644   10.99284   9.05832    
 O                     9.02736   11.32921   10.44675    
 P                     11.17419   7.66026   7.66062    
 O                     12.30288   7.44603   8.56389    
 O                     9.81939   7.18637   8.33058    
 H                     8.98478   7.69405   7.95478    
 O                     10.90406   9.12192   7.10425    
 H                     11.04902   9.83492   7.8761     
 O                     11.33447   6.81427   6.32327    
 H                     10.6251   7.13031   5.64819    
 O                     7.52493   8.55191   7.70323    
 H                     7.74413   9.34495   7.17566    
 H                     7.28001   8.89866   8.57335    
 O                     6.99304   9.64034   10.26034    
 H                     7.74318   10.29635   10.2835    
 H                     6.2099    10.17618   10.19616    
 O                     8.45509   10.82619   6.347      
 H                     8.6157    11.59307   6.93332    
 H                     9.31477   10.39922   6.30432    
 O                     13.60379   10.035    9.81179    
 H                     12.77443   10.44571   9.50095    
 H                     13.5871   9.18198   9.3707     
 
 ITRead=  0  0  0  0  0  0  0  0  0  0  0  0  0  0  0  0  0  0  0  0
 ITRead=  0  0  0  0  0  0  0  0  0  0  0  0  0  0  0  0  0  0  0  0
 ITRead=  0  0  0  0  0
 MicOpt= -1 -1 -1 -1 -1 -1 -1 -1 -1 -1 -1 -1 -1 -1 -1 -1 -1 -1 -1 -1
 MicOpt= -1 -1 -1 -1 -1 -1 -1 -1 -1 -1 -1 -1 -1 -1 -1 -1 -1 -1 -1 -1
 MicOpt= -1 -1 -1 -1 -1
 NAtoms=     45 NQM=       45 NQMF=       0 NMMI=      0 NMMIF=      0
                NMic=       0 NMicF=      0.
                    Isotopes and Nuclear Properties:
 (Nuclear quadrupole moments (NQMom) in fm**2, nuclear magnetic moments (NMagM)
  in nuclear magnetons)

  Atom         1           2           3           4           5           6           7           8           9          10
 IAtWgt=          12          12          12          14           1           1           1          12           1           1
 AtmWgt=  12.0000000  12.0000000  12.0000000  14.0030740   1.0078250   1.0078250   1.0078250  12.0000000   1.0078250   1.0078250
 NucSpn=           0           0           0           2           1           1           1           0           1           1
 AtZEff=  -0.0000000  -0.0000000  -0.0000000  -0.0000000  -0.0000000  -0.0000000  -0.0000000  -0.0000000  -0.0000000  -0.0000000
 NQMom=    0.0000000   0.0000000   0.0000000   2.0440000   0.0000000   0.0000000   0.0000000   0.0000000   0.0000000   0.0000000
 NMagM=    0.0000000   0.0000000   0.0000000   0.4037610   2.7928460   2.7928460   2.7928460   0.0000000   2.7928460   2.7928460
 AtZNuc=   6.0000000   6.0000000   6.0000000   7.0000000   1.0000000   1.0000000   1.0000000   6.0000000   1.0000000   1.0000000

  Atom        11          12          13          14          15          16          17          18          19          20
 IAtWgt=           1          14          12           1           1          12           1           1          12           1
 AtmWgt=   1.0078250  14.0030740  12.0000000   1.0078250   1.0078250  12.0000000   1.0078250   1.0078250  12.0000000   1.0078250
 NucSpn=           1           2           0           1           1           0           1           1           0           1
 AtZEff=  -0.0000000  -0.0000000  -0.0000000  -0.0000000  -0.0000000  -0.0000000  -0.0000000  -0.0000000  -0.0000000  -0.0000000
 NQMom=    0.0000000   2.0440000   0.0000000   0.0000000   0.0000000   0.0000000   0.0000000   0.0000000   0.0000000   0.0000000
 NMagM=    2.7928460   0.4037610   0.0000000   2.7928460   2.7928460   0.0000000   2.7928460   2.7928460   0.0000000   2.7928460
 AtZNuc=   1.0000000   7.0000000   6.0000000   1.0000000   1.0000000   6.0000000   1.0000000   1.0000000   6.0000000   1.0000000

  Atom        21          22          23          24          25          26          27          28          29          30
 IAtWgt=           1          32          16          16          16          31          16          16           1          16
 AtmWgt=   1.0078250  31.9720718  15.9949146  15.9949146  15.9949146  30.9737634  15.9949146  15.9949146   1.0078250  15.9949146
 NucSpn=           1           0           0           0           0           1           0           0           1           0
 AtZEff=  -0.0000000  -0.0000000  -0.0000000  -0.0000000  -0.0000000  -0.0000000  -0.0000000  -0.0000000  -0.0000000  -0.0000000
 NQMom=    0.0000000   0.0000000   0.0000000   0.0000000   0.0000000   0.0000000   0.0000000   0.0000000   0.0000000   0.0000000
 NMagM=    2.7928460   0.0000000   0.0000000   0.0000000   0.0000000   1.1316000   0.0000000   0.0000000   2.7928460   0.0000000
 AtZNuc=   1.0000000  16.0000000   8.0000000   8.0000000   8.0000000  15.0000000   8.0000000   8.0000000   1.0000000   8.0000000

  Atom        31          32          33          34          35          36          37          38          39          40
 IAtWgt=           1          16           1          16           1           1          16           1           1          16
 AtmWgt=   1.0078250  15.9949146   1.0078250  15.9949146   1.0078250   1.0078250  15.9949146   1.0078250   1.0078250  15.9949146
 NucSpn=           1           0           1           0           1           1           0           1           1           0
 AtZEff=  -0.0000000  -0.0000000  -0.0000000  -0.0000000  -0.0000000  -0.0000000  -0.0000000  -0.0000000  -0.0000000  -0.0000000
 NQMom=    0.0000000   0.0000000   0.0000000   0.0000000   0.0000000   0.0000000   0.0000000   0.0000000   0.0000000   0.0000000
 NMagM=    2.7928460   0.0000000   2.7928460   0.0000000   2.7928460   2.7928460   0.0000000   2.7928460   2.7928460   0.0000000
 AtZNuc=   1.0000000   8.0000000   1.0000000   8.0000000   1.0000000   1.0000000   8.0000000   1.0000000   1.0000000   8.0000000

  Atom        41          42          43          44          45
 IAtWgt=           1           1          16           1           1
 AtmWgt=   1.0078250   1.0078250  15.9949146   1.0078250   1.0078250
 NucSpn=           1           1           0           1           1
 AtZEff=  -0.0000000  -0.0000000  -0.0000000  -0.0000000  -0.0000000
 NQMom=    0.0000000   0.0000000   0.0000000   0.0000000   0.0000000
 NMagM=    2.7928460   2.7928460   0.0000000   2.7928460   2.7928460
 AtZNuc=   1.0000000   1.0000000   8.0000000   1.0000000   1.0000000
 Leave Link  101 at Fri May 13 10:46:09 2022, MaxMem=  5242880000 cpu:               2.8 elap:               0.2
 (Enter /data0/hywu0/study/g16/l202.exe)
                          Input orientation:                          
 ---------------------------------------------------------------------
 Center     Atomic      Atomic             Coordinates (Angstroms)
 Number     Number       Type             X           Y           Z
 ---------------------------------------------------------------------
      1          6           0       11.504582    8.185756   11.447825
      2          6           0       12.027899    9.400597   11.874956
      3          6           0        9.780929    9.548446   11.937849
      4          7           0       10.115739    8.296700   11.500731
      5          1           0       12.011673    7.305043   11.081049
      6          1           0       13.058507    9.720755   11.940328
      7          1           0        8.767425    9.939079   12.047636
      8          6           0        9.157428    7.284959   11.095159
      9          1           0        8.546333    6.947727   11.949153
     10          1           0        8.467065    7.688388   10.313363
     11          1           0        9.667732    6.407565   10.645318
     12          7           0       10.947301   10.233203   12.173248
     13          6           0       11.029566   11.641112   12.568779
     14          1           0       11.560530   11.694754   13.548361
     15          1           0        9.993573   12.032309   12.732083
     16          6           0       11.763203   12.511803   11.525831
     17          1           0       12.324244   13.303999   12.065561
     18          1           0       12.553972   11.915270   11.010169
     19          6           0       10.843272   13.166937   10.500202
     20          1           0       11.428560   13.839080    9.842245
     21          1           0       10.095537   13.815550   10.991128
     22         16           0        9.989182   11.955293    9.482733
     23          8           0        9.331997   12.625944    8.359235
     24          8           0       11.046444   10.992837    9.058324
     25          8           0        9.027365   11.329214   10.446755
     26         15           0       11.174194    7.660262    7.660620
     27          8           0       12.302876    7.446034    8.563892
     28          8           0        9.819388    7.186369    8.330582
     29          1           0        8.984782    7.694048    7.954780
     30          8           0       10.904060    9.121916    7.104246
     31          1           0       11.049016    9.834924    7.876095
     32          8           0       11.334468    6.814265    6.323275
     33          1           0       10.625100    7.130313    5.648192
     34          8           0        7.524933    8.551909    7.703229
     35          1           0        7.744129    9.344953    7.175664
     36          1           0        7.280006    8.898657    8.573351
     37          8           0        6.993039    9.640335   10.260344
     38          1           0        7.743181   10.296349   10.283504
     39          1           0        6.209901   10.176181   10.196157
     40          8           0        8.455091   10.826190    6.346999
     41          1           0        8.615697   11.593072    6.933316
     42          1           0        9.314774   10.399224    6.304321
     43          8           0       13.603788   10.035001    9.811785
     44          1           0       12.774431   10.445713    9.500946
     45          1           0       13.587104    9.181984    9.370699
 ---------------------------------------------------------------------
                    Distance matrix (angstroms):
                    1          2          3          4          5
     1  C    0.000000
     2  C    1.390014   0.000000
     3  C    2.251228   2.252707   0.000000
     4  N    1.394271   2.239417   1.367493   0.000000
     5  H    1.080426   2.240959   3.277679   2.180386   0.000000
     6  H    2.239077   1.081170   3.282105   3.298645   2.769456
     7  H    3.305441   3.309150   1.091713   2.194189   4.289240
     8  C    2.538689   3.650152   2.494444   1.451368   2.854351
     9  H    3.245810   4.259504   2.878905   2.117509   3.590245
    10  H    3.280379   4.248502   2.797322   2.120852   3.646991
    11  H    2.679552   4.005077   3.398321   2.121620   2.547428
    12  N    2.242507   1.396389   1.372854   2.212198   3.301501
    13  C    3.663559   2.549111   2.517224   3.627795   4.688216
    14  H    4.090043   2.877825   3.219840   4.222201   5.055761
    15  H    4.327636   3.434976   2.616410   3.935216   5.398674
    16  C    4.334473   3.141903   3.588963   4.525689   5.231627
    17  H    5.220139   3.919273   4.537504   5.501779   6.087236
    18  H    3.898979   2.710754   3.761943   4.390863   4.642554
    19  C    5.113461   4.180742   4.035948   5.024895   6.005360
    20  H    5.877392   4.918460   5.051315   5.932289   6.675949
    21  H    5.821388   4.899692   4.382172   5.542365   6.787221
    22  S    4.513029   4.050379   3.444398   4.180148   5.316945
    23  O    5.828789   5.480059   4.741204   5.406071   6.549880
    24  O    3.714742   3.381109   3.461135   3.755092   4.315427
    25  O    4.125539   3.842203   2.441793   3.389921   5.049988
    26  P    3.837737   4.638772   4.878639   4.033836   3.539334
    27  O    3.082455   3.854747   4.707859   3.759285   2.537865
    28  O    3.681828   4.726829   4.311990   3.372018   3.519271
    29  H    4.335035   5.247919   4.465141   3.770414   4.368862
    30  O    4.483715   4.909211   4.980670   4.542192   4.510299
    31  H    3.960373   4.139775   4.264734   4.046619   4.195085
    32  O    5.307630   6.163694   6.435268   5.521681   4.830723
    33  H    5.960134   6.774557   6.791154   5.989334   5.609728
    34  O    5.476648   6.196796   4.900470   4.604175   5.752841
    35  H    5.808279   6.359019   5.183471   5.042774   6.133938
    36  H    5.159251   5.804742   4.242250   4.119865   5.587202
    37  O    4.886710   5.292850   3.254965   3.618725   5.595876
    38  H    4.467481   4.657671   2.729218   3.333057   5.272951
    39  H    5.793282   6.104834   4.022410   4.526581   6.533531
    40  O    6.503054   6.734655   5.886262   5.976372   6.889048
    41  H    6.351083   6.392955   5.530245   5.829020   6.864658
    42  H    6.012515   6.276167   5.716447   5.662581   6.297964
    43  O    3.240833   2.672559   4.401265   4.247436   3.405662
    44  H    3.241953   2.699167   3.962908   3.960561   3.597545
    45  H    3.105450   2.958076   4.605597   4.167870   2.988342
                    6          7          8          9         10
     6  H    0.000000
     7  H    4.297972   0.000000
     8  C    4.676091   2.846694   0.000000
     9  H    5.296176   3.001128   1.102936   0.000000
    10  H    5.278150   2.857189   1.118285   1.797407   0.000000
    11  H    4.914431   3.904951   1.110219   1.802580   1.786702
    12  N    2.184959   2.203213   3.613594   4.075441   4.010839
    13  C    2.863446   2.878505   4.965131   5.345862   5.222771
    14  H    2.954044   3.624363   5.589221   5.846120   6.007138
    15  H    3.919691   2.520619   5.090775   5.344198   5.200969
    16  C    3.104766   3.983199   5.856231   6.440993   5.966568
    17  H    3.659845   4.896322   6.870171   7.395158   7.034424
    18  H    2.436318   4.395407   5.743128   6.451306   5.920716
    19  C    4.342511   4.137966   6.147659   6.786307   5.974594
    20  H    4.900947   5.211084   7.048712   7.761252   6.842764
    21  H    5.142715   4.231680   6.598446   7.105268   6.376002
    22  S    4.522576   3.483753   5.010364   5.765480   4.605786
    23  O    5.928847   4.598074   6.003489   6.763647   5.380166
    24  O    3.737986   3.903885   4.633081   5.565102   4.375809
    25  O    4.589990   2.136086   4.097968   4.656825   3.686101
    26  P    5.110007   5.498314   4.000532   5.079850   3.790301
    27  O    4.140731   5.554382   4.040681   5.081330   4.222894
    28  O    5.472227   4.743472   2.844433   3.843394   2.451983
    29  H    6.048749   4.673209   3.171615   4.087083   2.414742
    30  O    5.328033   5.447024   4.727845   5.810258   4.276959
    31  H    4.535315   4.755866   4.521371   5.584723   4.149020
    32  O    6.555248   7.008743   5.266112   6.280288   4.990681
    33  H    7.226537   7.231390   5.643352   6.637524   5.170337
    34  O    7.066799   4.726722   3.971825   4.652368   2.906214
    35  H    7.147438   5.013605   4.647949   5.401520   3.621049
    36  H    6.738208   3.919892   3.533872   4.099482   2.429301
    37  O    6.294340   2.536160   3.305948   3.537646   2.446561
    38  H    5.597237   2.070961   3.424522   3.825272   2.706725
    39  H    7.081875   3.166247   4.225551   4.353714   3.361196
    40  O    7.327943   5.777697   5.964781   6.814318   5.057469
    41  H    6.950849   5.377265   6.014503   6.836861   5.166562
    42  H    6.800032   5.787659   5.716252   6.660890   4.913213
    43  O    2.219634   5.329037   5.383298   6.299004   5.669576
    44  H    2.560634   4.774768   5.061086   6.008863   5.178442
    45  H    2.678186   5.564934   5.118056   6.086847   5.416110
                   11         12         13         14         15
    11  H    0.000000
    12  N    4.313626   0.000000
    13  C    5.739713   1.464725   0.000000
    14  H    6.321765   2.098361   1.115518   0.000000
    15  H    6.008203   2.111558   1.119368   1.798779   0.000000
    16  C    6.513680   2.505367   1.544042   2.190724   2.194664
    17  H    7.525619   3.367099   2.166705   2.317677   2.737421
    18  H    6.228829   2.600672   2.197326   2.734588   3.087771
    19  C    6.862366   3.378861   2.577180   3.460210   2.643986
    20  H    7.679379   4.320594   3.524805   4.283789   3.697942
    21  H    7.428381   3.867314   2.844218   3.630898   2.494247
    22  S    5.677343   3.335035   3.271817   4.366503   3.250266
    23  O    6.633787   4.783420   4.644555   5.723679   4.462274
    24  O    5.044216   3.207744   3.569851   4.573555   3.960498
    25  O    4.967104   2.805026   2.934123   4.021257   2.578880
    26  P    3.570308   5.199550   6.321243   7.147858   6.799147
    27  O    3.514930   4.757452   5.937939   6.591482   6.613669
    28  O    2.446945   5.032044   6.266704   7.112125   6.548793
    29  H    3.059486   5.300402   6.406984   7.343587   6.531523
    30  O    4.629838   5.189567   6.018573   6.969725   6.400931
    31  H    4.617719   4.316769   5.028317   5.991262   5.433515
    32  O    4.650104   6.786842   7.899224   8.721935   8.372503
    33  H    5.139084   7.232434   8.270757   9.171795   8.637702
    34  O    4.224416   5.875408   6.745310   7.767180   6.595206
    35  H    4.936294   6.002095   6.719534   7.790876   6.569298
    36  H    4.024900   5.309362   6.127292   7.133847   5.871820
    37  O    4.213430   4.432480   5.062167   5.991132   4.564454
    38  H    4.354015   3.720417   4.222700   5.214114   3.751448
    39  H    5.134278   5.133722   5.568171   6.494041   4.918567
    40  O    6.282539   6.364583   6.782519   7.890359   6.677645
    41  H    6.463375   5.894278   6.130866   7.241630   5.976384
    42  H    5.907806   6.094014   6.612581   7.694019   6.666623
    43  O    5.417158   3.559876   4.099662   4.570742   5.054803
    44  H    5.221858   3.244189   3.726276   4.406271   4.548704
    45  H    4.968252   3.990978   4.776612   5.279571   5.686538
                   16         17         18         19         20
    16  C    0.000000
    17  H    1.110698   0.000000
    18  H    1.116725   1.759317   0.000000
    19  C    1.525578   2.159262   2.180191   0.000000
    20  H    2.169818   2.455951   2.516276   1.107811   0.000000
    21  H    2.183294   2.526505   3.107303   1.104905   1.759953
    22  S    2.762445   3.733969   2.985433   1.797997   2.397856
    23  O    3.993885   4.811461   4.232450   2.675886   2.840175
    24  O    2.984894   4.002214   2.633101   2.616678   2.976851
    25  O    3.169816   4.170098   3.619096   2.584105   3.525705
    26  P    6.230910   7.251061   5.588234   6.204531   6.557590
    27  O    5.892906   6.824800   5.101117   6.213572   6.577967
    28  O    6.507556   7.592744   6.084459   6.443817   7.009502
    29  H    6.609296   7.715055   6.316109   6.315510   6.877208
    30  O    5.637364   6.642393   5.077526   5.281894   5.479359
    31  H    4.582174   5.586798   4.051562   4.246243   4.476948
    32  O    7.727376   8.721820   7.033805   7.618690   7.857482
    33  H    8.049991   9.065545   7.440911   7.747931   7.952558
    34  O    6.946652   8.040254   6.894874   6.335054   6.911430
    35  H    6.716089   7.782197   6.666674   5.938417   6.393971
    36  H    6.470782   7.552940   6.546201   5.884542   6.574829
    37  O    5.709750   6.715876   6.054878   5.226734   6.121937
    38  H    4.755228   5.762623   5.127637   4.230579   5.131050
    39  H    6.169467   7.117802   6.628294   5.523151   6.385647
    40  O    6.372221   7.335655   6.303338   5.332129   5.489606
    41  H    5.642876   6.559004   5.677548   4.490191   4.628025
    42  H    6.141821   7.119446   5.910652   5.253757   5.368203
    43  O    3.529909   4.171701   2.464478   4.231240   4.382187
    44  H    3.064550   3.866486   2.118007   3.483238   3.666442
    45  H    4.365650   5.084103   3.350534   4.968324   5.154630
                   21         22         23         24         25
    21  H    0.000000
    22  S    2.397316   0.000000
    23  O    2.987477   1.464211   0.000000
    24  O    3.550727   1.491391   2.468824   0.000000
    25  O    2.760290   1.498801   2.476297   2.473372   0.000000
    26  P    7.081197   4.813693   5.342261   3.616069   5.082581
    27  O    7.164814   5.150812   5.974904   3.795115   5.417862
    28  O    7.148483   4.909065   5.461442   4.065031   4.718967
    29  H    6.922859   4.636989   4.960619   4.043547   4.407515
    30  O    6.147500   3.810804   4.040370   2.709066   4.423405
    31  H    5.143728   2.863651   3.312306   1.654822   3.595590
    32  O    8.505398   6.182406   6.475387   5.002391   6.535333
    33  H    8.574369   6.195848   6.262893   5.169683   6.573411
    34  O    6.717455   4.563133   4.504840   4.493935   4.183020
    35  H    6.330334   4.144479   3.832371   4.143092   4.035347
    36  H    6.160251   4.184451   4.260186   4.336686   3.531361
    37  O    5.252805   3.865305   4.242499   4.438942   2.650574
    38  H    4.291746   2.904798   3.413819   3.591338   1.656077
    39  H    5.382857   4.237591   4.372997   5.035250   3.054568
    40  O    5.761534   3.668942   2.838516   3.754220   4.169956
    41  H    4.857486   2.918423   1.900830   3.283972   3.547301
    42  H    5.852097   3.602566   3.030058   3.306900   4.255261
    43  O    5.290673   4.106236   5.202988   2.832872   4.798106
    44  H    4.555537   3.168087   4.231697   1.865797   3.964295
    45  H    6.023850   4.544099   5.566853   3.135557   5.153612
                   26         27         28         29         30
    26  P    0.000000
    27  O    1.461409   0.000000
    28  O    1.583958   2.507902   0.000000
    29  H    2.209343   3.382643   1.046677   0.000000
    30  O    1.587122   2.625992   2.535105   2.538867   0.000000
    31  H    2.188893   2.784246   2.955230   2.974996   1.060728
    32  O    1.590563   2.521371   2.542284   2.992800   2.473948
    33  H    2.152258   3.378745   2.801344   2.885964   2.482820
    34  O    3.756855   4.979201   2.742771   1.711830   3.478820
    35  H    3.852105   5.129839   3.209364   2.207199   3.168597
    36  H    4.187051   5.228712   3.072349   2.177148   3.916871
    37  O    5.306723   5.990599   4.211197   3.615342   5.052306
    38  H    5.059676   5.645545   4.218592   3.706278   4.634450
    39  H    6.115799   6.873306   5.044576   4.345655   5.718961
    40  O    4.375182   5.580817   4.363967   3.560315   3.078217
    41  H    4.747828   5.783770   4.777055   4.047468   3.372304
    42  H    3.577555   4.770298   3.831815   3.186046   2.190257
    43  O    4.021172   3.154736   4.962897   5.501249   3.931033
    44  H    3.702201   3.177815   4.552511   4.931909   3.315855
    45  H    3.325980   2.305147   4.388622   5.039856   3.512712
                   31         32         33         34         35
    31  H    0.000000
    32  O    3.408389   0.000000
    33  H    3.529614   1.028993   0.000000
    34  O    3.754354   4.408655   3.981852   0.000000
    35  H    3.413642   4.474537   3.941801   0.977390   0.000000
    36  H    3.945656   5.083915   4.782599   0.968161   1.538869
    37  O    4.708870   6.506550   6.384671   2.829562   3.188516
    38  H    4.115468   6.380099   6.309941   3.122262   3.250204
    39  H    5.377376   7.250026   7.032445   3.253038   3.488291
    40  O    3.170046   4.938311   4.342439   2.806583   1.840167
    41  H    3.146579   5.531805   5.060184   3.321326   2.423304
    42  H    2.407593   4.114785   3.582351   2.927977   2.082703
    43  O    3.211508   5.262381   5.886026   6.602882   6.462268
    44  H    2.447501   5.035722   5.518624   5.863063   5.650004
    45  H    3.016962   4.468473   5.180722   6.318811   6.243804
                   36         37         38         39         40
    36  H    0.000000
    37  O    1.865042   0.000000
    38  H    2.256701   0.996797   0.000000
    39  H    2.326089   0.951082   1.540460   0.000000
    40  O    3.170623   4.342593   4.035297   4.503266   0.000000
    41  H    3.425443   4.185130   3.696828   4.294364   0.978606
    42  H    3.397128   4.649353   4.279531   4.983610   0.960821
    43  O    6.543334   6.637693   5.885366   7.405217   6.256181
    44  H    5.782951   5.886409   5.093936   6.606740   5.361795
    45  H    6.363609   6.669576   6.018842   7.489522   6.179299
                   41         42         43         44         45
    41  H    0.000000
    42  H    1.519742   0.000000
    43  O    5.966089   5.552531   0.000000
    44  H    5.020381   4.710605   0.976288   0.000000
    45  H    6.038963   5.397884   0.960455   1.508116   0.000000
 Symmetry turned off by external request.
 Stoichiometry    C7H23N2O11PS
 Framework group  C1[X(C7H23N2O11PS)]
 Deg. of freedom   129
 Full point group                 C1      NOp   1
 Rotational constants (GHZ):           0.2743114           0.2019013           0.1782598
 Leave Link  202 at Fri May 13 10:46:09 2022, MaxMem=  5242880000 cpu:               0.0 elap:               0.0
 (Enter /data0/hywu0/study/g16/l122.exe)
 Counterpoise: doing full-system calculation.
 Leave Link  122 at Fri May 13 10:46:09 2022, MaxMem=  5242880000 cpu:               0.0 elap:               0.0
 (Enter /data0/hywu0/study/g16/l301.exe)
 Standard basis: 6-311+G(2d,p) (5D, 7F)
 Ernie: Thresh=  0.10000D-02 Tol=  0.10000D-05 Strict=F.
   748 basis functions,  1136 primitive gaussians,   792 cartesian basis functions
    99 alpha electrons       99 beta electrons
       nuclear repulsion energy      2780.2638245329 Hartrees.
 IExCor= 4336 DFT=T Ex+Corr=M062X ExCW=0 ScaHFX=  0.540000
 ScaDFX=  1.000000  1.000000  1.000000  1.000000 ScalE2=  1.000000  1.000000
 IRadAn=      5 IRanWt=     -1 IRanGd=            0 ICorTp=0 IEmpDi=131
 NAtoms=   45 NActive=   45 NUniq=   45 SFac= 1.00D+00 NAtFMM=   60 NAOKFM=F Big=F
 Integral buffers will be    131072 words long.
 Raffenetti 2 integral format.
 Two-electron integral symmetry is turned off.
 R6Disp:  Grimme-D3 Dispersion energy=       -0.0047469674 Hartrees.
 Nuclear repulsion after empirical dispersion term =     2780.2590775655 Hartrees.
 Leave Link  301 at Fri May 13 10:46:09 2022, MaxMem=  5242880000 cpu:               0.7 elap:               0.0
 (Enter /data0/hywu0/study/g16/l302.exe)
 NPDir=0 NMtPBC=     1 NCelOv=     1 NCel=       1 NClECP=     1 NCelD=      1
         NCelK=      1 NCelE2=     1 NClLst=     1 CellRange=     0.0.
 One-electron integrals computed using PRISM.
 NBasis=   748 RedAO= T EigKep=  4.15D-06  NBF=   748
 NBsUse=   748 1.00D-06 EigRej= -1.00D+00 NBFU=   748
 Precomputing XC quadrature grid using
 IXCGrd= 4 IRadAn=           5 IRanWt=          -1 IRanGd=           0 AccXCQ= 0.00D+00.
 Generated NRdTot=       0 NPtTot=           0 NUsed=           0 NTot=          32
 NSgBfM=   785   784   784   784   785 MxSgAt=    45 MxSgA2=    45.
 Leave Link  302 at Fri May 13 10:46:10 2022, MaxMem=  5242880000 cpu:              17.1 elap:               1.1
 (Enter /data0/hywu0/study/g16/l303.exe)
 DipDrv:  MaxL=1.
 Leave Link  303 at Fri May 13 10:46:10 2022, MaxMem=  5242880000 cpu:               1.9 elap:               0.1
 (Enter /data0/hywu0/study/g16/l401.exe)
 ExpMin= 3.48D-02 ExpMax= 9.34D+04 ExpMxC= 3.17D+03 IAcc=3 IRadAn=         5 AccDes= 0.00D+00
 Harris functional with IExCor= 1009 and IRadAn=       5 diagonalized for initial guess.
 HarFok:  IExCor= 1009 AccDes= 0.00D+00 IRadAn=         5 IDoV= 1 UseB2=F ITyADJ=14
 ICtDFT=  3500011 ScaDFX=  1.000000  1.000000  1.000000  1.000000
 FoFCou: FMM=F IPFlag=           0 FMFlag=      100000 FMFlg1=           0
         NFxFlg=           0 DoJE=T BraDBF=F KetDBF=T FulRan=T
         wScrn=  0.000000 ICntrl=       500 IOpCl=  0 I1Cent=   200000004 NGrid=           0
         NMat0=    1 NMatS0=      1 NMatT0=    0 NMatD0=    1 NMtDS0=    0 NMtDT0=    0
 Symmetry not used in FoFCou.
 Harris En= -1956.42993651622    
 JPrj=0 DoOrth=F DoCkMO=F.
 Leave Link  401 at Fri May 13 10:46:15 2022, MaxMem=  5242880000 cpu:              87.0 elap:               5.5
 (Enter /data0/hywu0/study/g16/l502.exe)
 Two-electron integral symmetry not used.
 Closed shell SCF:
 Using DIIS extrapolation, IDIIS=  1040.
 NGot=  5242880000 LenX=  5241607273 LenY=  5240979217
 Requested convergence on RMS density matrix=1.00D-08 within 128 cycles.
 Requested convergence on MAX density matrix=1.00D-06.
 Requested convergence on             energy=1.00D-06.
 No special actions if energy rises.
 Fock matrices will be formed incrementally for  20 cycles.

 Cycle   1  Pass 1  IDiag  1:
 FoFJK:  IHMeth= 1 ICntrl=       0 DoSepK=F KAlg= 0 I1Cent=           0 FoldK=F
 IRaf= 820000000 NMat=       1 IRICut=       1 DoRegI=T DoRafI=F ISym2E= 0 IDoP0=0 IntGTp=1.
 FoFCou: FMM=F IPFlag=           0 FMFlag=      100000 FMFlg1=           0
         NFxFlg=           0 DoJE=F BraDBF=F KetDBF=F FulRan=T
         wScrn=  0.000000 ICntrl=         0 IOpCl=  0 I1Cent=           0 NGrid=           0
         NMat0=    1 NMatS0=      1 NMatT0=    0 NMatD0=    1 NMtDS0=    0 NMtDT0=    0
 Symmetry not used in FoFCou.
 E= -1956.26943336672    
 DIIS: error= 2.35D-02 at cycle   1 NSaved=   1.
 NSaved= 1 IEnMin= 1 EnMin= -1956.26943336672     IErMin= 1 ErrMin= 2.35D-02
 ErrMax= 2.35D-02  0.00D+00 EMaxC= 1.00D-01 BMatC= 1.59D+00 BMatP= 1.59D+00
 IDIUse=3 WtCom= 7.65D-01 WtEn= 2.35D-01
 Coeff-Com:  0.100D+01
 Coeff-En:   0.100D+01
 Coeff:      0.100D+01
 Gap=     0.262 Goal=   None    Shift=    0.000
 GapD=    0.262 DampG=1.000 DampE=0.500 DampFc=0.5000 IDamp=-1.
 Damping current iteration by 5.00D-01
 RMSDP=5.39D-03 MaxDP=6.58D-01              OVMax= 2.20D-01

 Cycle   2  Pass 1  IDiag  1:
 RMSU=  2.68D-03    CP:  1.02D+00
 E= -1956.67649044739     Delta-E=       -0.407057080668 Rises=F Damp=T
 DIIS: error= 5.46D-03 at cycle   2 NSaved=   2.
 NSaved= 2 IEnMin= 2 EnMin= -1956.67649044739     IErMin= 2 ErrMin= 5.46D-03
 ErrMax= 5.46D-03  0.00D+00 EMaxC= 1.00D-01 BMatC= 8.65D-02 BMatP= 1.59D+00
 IDIUse=3 WtCom= 9.45D-01 WtEn= 5.46D-02
 Coeff-Com:  0.307D-01 0.969D+00
 Coeff-En:   0.124D+00 0.876D+00
 Coeff:      0.358D-01 0.964D+00
 Gap=     0.358 Goal=   None    Shift=    0.000
 RMSDP=3.56D-03 MaxDP=1.08D+00 DE=-4.07D-01 OVMax= 1.15D-01

 Cycle   3  Pass 1  IDiag  1:
 RMSU=  2.00D-03    CP:  8.39D-01  7.54D-01
 E= -1957.17340749235     Delta-E=       -0.496917044963 Rises=F Damp=F
 DIIS: error= 3.90D-03 at cycle   3 NSaved=   3.
 NSaved= 3 IEnMin= 3 EnMin= -1957.17340749235     IErMin= 3 ErrMin= 3.90D-03
 ErrMax= 3.90D-03  0.00D+00 EMaxC= 1.00D-01 BMatC= 2.65D-02 BMatP= 8.65D-02
 IDIUse=3 WtCom= 9.61D-01 WtEn= 3.90D-02
 Coeff-Com: -0.450D-01 0.308D+00 0.737D+00
 Coeff-En:   0.000D+00 0.000D+00 0.100D+01
 Coeff:     -0.433D-01 0.296D+00 0.747D+00
 Gap=     0.295 Goal=   None    Shift=    0.000
 RMSDP=5.11D-04 MaxDP=6.58D-02 DE=-4.97D-01 OVMax= 3.89D-02

 Cycle   4  Pass 1  IDiag  1:
 RMSU=  4.59D-04    CP:  8.34D-01  8.31D-01  9.71D-01
 E= -1957.18730389415     Delta-E=       -0.013896401794 Rises=F Damp=F
 DIIS: error= 1.76D-03 at cycle   4 NSaved=   4.
 NSaved= 4 IEnMin= 4 EnMin= -1957.18730389415     IErMin= 4 ErrMin= 1.76D-03
 ErrMax= 1.76D-03  0.00D+00 EMaxC= 1.00D-01 BMatC= 8.34D-03 BMatP= 2.65D-02
 IDIUse=3 WtCom= 9.82D-01 WtEn= 1.76D-02
 Coeff-Com: -0.262D-01 0.716D-01 0.405D+00 0.549D+00
 Coeff-En:   0.000D+00 0.000D+00 0.221D+00 0.779D+00
 Coeff:     -0.258D-01 0.704D-01 0.402D+00 0.553D+00
 Gap=     0.292 Goal=   None    Shift=    0.000
 RMSDP=2.17D-04 MaxDP=3.32D-02 DE=-1.39D-02 OVMax= 1.36D-02

 Cycle   5  Pass 1  IDiag  1:
 RMSU=  1.23D-04    CP:  8.31D-01  8.22D-01  1.00D+00  6.51D-01
 E= -1957.19334845169     Delta-E=       -0.006044557540 Rises=F Damp=F
 DIIS: error= 3.00D-04 at cycle   5 NSaved=   5.
 NSaved= 5 IEnMin= 5 EnMin= -1957.19334845169     IErMin= 5 ErrMin= 3.00D-04
 ErrMax= 3.00D-04  0.00D+00 EMaxC= 1.00D-01 BMatC= 2.49D-04 BMatP= 8.34D-03
 IDIUse=3 WtCom= 9.97D-01 WtEn= 3.00D-03
 Coeff-Com: -0.821D-02 0.155D-01 0.132D+00 0.237D+00 0.623D+00
 Coeff-En:   0.000D+00 0.000D+00 0.000D+00 0.000D+00 0.100D+01
 Coeff:     -0.819D-02 0.154D-01 0.132D+00 0.236D+00 0.625D+00
 Gap=     0.291 Goal=   None    Shift=    0.000
 RMSDP=4.78D-05 MaxDP=6.89D-03 DE=-6.04D-03 OVMax= 2.56D-03

 Cycle   6  Pass 1  IDiag  1:
 RMSU=  3.65D-05    CP:  8.30D-01  8.21D-01  1.00D+00  6.86D-01  8.26D-01
 E= -1957.19352155851     Delta-E=       -0.000173106823 Rises=F Damp=F
 DIIS: error= 1.05D-04 at cycle   6 NSaved=   6.
 NSaved= 6 IEnMin= 6 EnMin= -1957.19352155851     IErMin= 6 ErrMin= 1.05D-04
 ErrMax= 1.05D-04  0.00D+00 EMaxC= 1.00D-01 BMatC= 2.63D-05 BMatP= 2.49D-04
 IDIUse=3 WtCom= 9.99D-01 WtEn= 1.05D-03
 Coeff-Com: -0.169D-02 0.158D-02 0.283D-01 0.661D-01 0.296D+00 0.609D+00
 Coeff-En:   0.000D+00 0.000D+00 0.000D+00 0.000D+00 0.000D+00 0.100D+01
 Coeff:     -0.169D-02 0.157D-02 0.283D-01 0.660D-01 0.296D+00 0.610D+00
 Gap=     0.291 Goal=   None    Shift=    0.000
 RMSDP=1.40D-05 MaxDP=1.92D-03 DE=-1.73D-04 OVMax= 1.11D-03

 Cycle   7  Pass 1  IDiag  1:
 RMSU=  1.17D-05    CP:  8.30D-01  8.20D-01  1.00D+00  6.89D-01  8.35D-01
                    CP:  8.19D-01
 E= -1957.19354102318     Delta-E=       -0.000019464671 Rises=F Damp=F
 DIIS: error= 3.10D-05 at cycle   7 NSaved=   7.
 NSaved= 7 IEnMin= 7 EnMin= -1957.19354102318     IErMin= 7 ErrMin= 3.10D-05
 ErrMax= 3.10D-05  0.00D+00 EMaxC= 1.00D-01 BMatC= 2.68D-06 BMatP= 2.63D-05
 IDIUse=1 WtCom= 1.00D+00 WtEn= 0.00D+00
 Coeff-Com:  0.179D-03-0.103D-02-0.311D-02 0.252D-02 0.664D-01 0.272D+00
 Coeff-Com:  0.663D+00
 Coeff:      0.179D-03-0.103D-02-0.311D-02 0.252D-02 0.664D-01 0.272D+00
 Coeff:      0.663D+00
 Gap=     0.291 Goal=   None    Shift=    0.000
 RMSDP=4.67D-06 MaxDP=5.25D-04 DE=-1.95D-05 OVMax= 3.72D-04

 Cycle   8  Pass 1  IDiag  1:
 RMSU=  4.12D-06    CP:  8.30D-01  8.20D-01  1.00D+00  6.90D-01  8.41D-01
                    CP:  8.66D-01  1.01D+00
 E= -1957.19354308041     Delta-E=       -0.000002057231 Rises=F Damp=F
 DIIS: error= 1.71D-05 at cycle   8 NSaved=   8.
 NSaved= 8 IEnMin= 8 EnMin= -1957.19354308041     IErMin= 8 ErrMin= 1.71D-05
 ErrMax= 1.71D-05  0.00D+00 EMaxC= 1.00D-01 BMatC= 3.55D-07 BMatP= 2.68D-06
 IDIUse=1 WtCom= 1.00D+00 WtEn= 0.00D+00
 Coeff-Com:  0.309D-03-0.636D-03-0.580D-02-0.880D-02-0.147D-01 0.216D-01
 Coeff-Com:  0.286D+00 0.722D+00
 Coeff:      0.309D-03-0.636D-03-0.580D-02-0.880D-02-0.147D-01 0.216D-01
 Coeff:      0.286D+00 0.722D+00
 Gap=     0.291 Goal=   None    Shift=    0.000
 RMSDP=3.79D-06 MaxDP=8.58D-04 DE=-2.06D-06 OVMax= 2.11D-04

 Cycle   9  Pass 1  IDiag  1:
 RMSU=  2.07D-06    CP:  8.30D-01  8.20D-01  1.00D+00  6.90D-01  8.55D-01
                    CP:  8.80D-01  1.00D+00  7.90D-01
 E= -1957.19354339102     Delta-E=       -0.000000310602 Rises=F Damp=F
 DIIS: error= 3.80D-06 at cycle   9 NSaved=   9.
 NSaved= 9 IEnMin= 9 EnMin= -1957.19354339102     IErMin= 9 ErrMin= 3.80D-06
 ErrMax= 3.80D-06  0.00D+00 EMaxC= 1.00D-01 BMatC= 4.89D-08 BMatP= 3.55D-07
 IDIUse=1 WtCom= 1.00D+00 WtEn= 0.00D+00
 Coeff-Com:  0.119D-03-0.188D-03-0.246D-02-0.428D-02-0.125D-01-0.132D-01
 Coeff-Com:  0.750D-01 0.344D+00 0.614D+00
 Coeff:      0.119D-03-0.188D-03-0.246D-02-0.428D-02-0.125D-01-0.132D-01
 Coeff:      0.750D-01 0.344D+00 0.614D+00
 Gap=     0.291 Goal=   None    Shift=    0.000
 RMSDP=7.15D-07 MaxDP=5.48D-05 DE=-3.11D-07 OVMax= 5.74D-05

 Cycle  10  Pass 1  IDiag  1:
 RMSU=  4.92D-07    CP:  8.30D-01  8.20D-01  1.00D+00  6.91D-01  8.53D-01
                    CP:  8.83D-01  1.03D+00  8.47D-01  9.05D-01
 E= -1957.19354343431     Delta-E=       -0.000000043298 Rises=F Damp=F
 DIIS: error= 1.71D-06 at cycle  10 NSaved=  10.
 NSaved=10 IEnMin=10 EnMin= -1957.19354343431     IErMin=10 ErrMin= 1.71D-06
 ErrMax= 1.71D-06  0.00D+00 EMaxC= 1.00D-01 BMatC= 3.78D-09 BMatP= 4.89D-08
 IDIUse=1 WtCom= 1.00D+00 WtEn= 0.00D+00
 Coeff-Com:  0.115D-05 0.120D-04-0.165D-03-0.404D-03-0.261D-02-0.735D-02
 Coeff-Com: -0.102D-01 0.294D-01 0.213D+00 0.778D+00
 Coeff:      0.115D-05 0.120D-04-0.165D-03-0.404D-03-0.261D-02-0.735D-02
 Coeff:     -0.102D-01 0.294D-01 0.213D+00 0.778D+00
 Gap=     0.291 Goal=   None    Shift=    0.000
 RMSDP=2.54D-07 MaxDP=1.80D-05 DE=-4.33D-08 OVMax= 3.49D-05

 Cycle  11  Pass 1  IDiag  1:
 RMSU=  2.11D-07    CP:  8.30D-01  8.20D-01  1.00D+00  6.91D-01  8.53D-01
                    CP:  8.84D-01  1.03D+00  8.63D-01  9.46D-01  1.05D+00
 E= -1957.19354343867     Delta-E=       -0.000000004352 Rises=F Damp=F
 DIIS: error= 5.58D-07 at cycle  11 NSaved=  11.
 NSaved=11 IEnMin=11 EnMin= -1957.19354343867     IErMin=11 ErrMin= 5.58D-07
 ErrMax= 5.58D-07  0.00D+00 EMaxC= 1.00D-01 BMatC= 6.66D-10 BMatP= 3.78D-09
 IDIUse=1 WtCom= 1.00D+00 WtEn= 0.00D+00
 Coeff-Com: -0.159D-04 0.316D-04 0.276D-03 0.422D-03 0.529D-03-0.136D-02
 Coeff-Com: -0.150D-01-0.373D-01-0.474D-02 0.322D+00 0.735D+00
 Coeff:     -0.159D-04 0.316D-04 0.276D-03 0.422D-03 0.529D-03-0.136D-02
 Coeff:     -0.150D-01-0.373D-01-0.474D-02 0.322D+00 0.735D+00
 Gap=     0.291 Goal=   None    Shift=    0.000
 RMSDP=1.54D-07 MaxDP=3.09D-05 DE=-4.35D-09 OVMax= 1.50D-05

 Cycle  12  Pass 1  IDiag  1:
 RMSU=  6.62D-08    CP:  8.30D-01  8.20D-01  1.00D+00  6.91D-01  8.53D-01
                    CP:  8.84D-01  1.03D+00  8.61D-01  9.84D-01  1.15D+00
                    CP:  9.63D-01
 E= -1957.19354343959     Delta-E=       -0.000000000928 Rises=F Damp=F
 DIIS: error= 2.31D-07 at cycle  12 NSaved=  12.
 NSaved=12 IEnMin=12 EnMin= -1957.19354343959     IErMin=12 ErrMin= 2.31D-07
 ErrMax= 2.31D-07  0.00D+00 EMaxC= 1.00D-01 BMatC= 7.60D-11 BMatP= 6.66D-10
 IDIUse=1 WtCom= 1.00D+00 WtEn= 0.00D+00
 Coeff-Com: -0.551D-05 0.991D-05 0.122D-03 0.203D-03 0.489D-03 0.376D-03
 Coeff-Com: -0.457D-02-0.173D-01-0.257D-01 0.416D-01 0.286D+00 0.719D+00
 Coeff:     -0.551D-05 0.991D-05 0.122D-03 0.203D-03 0.489D-03 0.376D-03
 Coeff:     -0.457D-02-0.173D-01-0.257D-01 0.416D-01 0.286D+00 0.719D+00
 Gap=     0.291 Goal=   None    Shift=    0.000
 RMSDP=3.07D-08 MaxDP=2.23D-06 DE=-9.28D-10 OVMax= 4.63D-06

 Cycle  13  Pass 1  IDiag  1:
 RMSU=  2.47D-08    CP:  8.30D-01  8.20D-01  1.00D+00  6.91D-01  8.53D-01
                    CP:  8.84D-01  1.03D+00  8.62D-01  9.88D-01  1.16D+00
                    CP:  1.02D+00  1.03D+00
 E= -1957.19354343952     Delta-E=        0.000000000075 Rises=F Damp=F
 DIIS: error= 6.46D-08 at cycle  13 NSaved=  13.
 NSaved=13 IEnMin=12 EnMin= -1957.19354343959     IErMin=13 ErrMin= 6.46D-08
 ErrMax= 6.46D-08  0.00D+00 EMaxC= 1.00D-01 BMatC= 1.37D-11 BMatP= 7.60D-11
 IDIUse=1 WtCom= 1.00D+00 WtEn= 0.00D+00
 Coeff-Com:  0.245D-06-0.812D-06 0.965D-05 0.206D-04 0.111D-03 0.343D-03
 Coeff-Com:  0.318D-03-0.133D-02-0.102D-01-0.324D-01 0.124D-01 0.328D+00
 Coeff-Com:  0.703D+00
 Coeff:      0.245D-06-0.812D-06 0.965D-05 0.206D-04 0.111D-03 0.343D-03
 Coeff:      0.318D-03-0.133D-02-0.102D-01-0.324D-01 0.124D-01 0.328D+00
 Coeff:      0.703D+00
 Gap=     0.291 Goal=   None    Shift=    0.000
 RMSDP=1.47D-08 MaxDP=1.41D-06 DE= 7.46D-11 OVMax= 2.46D-06

 Cycle  14  Pass 1  IDiag  1:
 RMSU=  8.70D-09    CP:  8.30D-01  8.20D-01  1.00D+00  6.91D-01  8.53D-01
                    CP:  8.84D-01  1.03D+00  8.62D-01  9.87D-01  1.17D+00
                    CP:  1.05D+00  1.15D+00  9.47D-01
 E= -1957.19354343946     Delta-E=        0.000000000062 Rises=F Damp=F
 DIIS: error= 2.73D-08 at cycle  14 NSaved=  14.
 NSaved=14 IEnMin=12 EnMin= -1957.19354343959     IErMin=14 ErrMin= 2.73D-08
 ErrMax= 2.73D-08  0.00D+00 EMaxC= 1.00D-01 BMatC= 1.97D-12 BMatP= 1.37D-11
 IDIUse=1 WtCom= 1.00D+00 WtEn= 0.00D+00
 Coeff-Com:  0.793D-06-0.159D-05-0.102D-04-0.150D-04-0.935D-05 0.110D-03
 Coeff-Com:  0.688D-03 0.154D-02-0.157D-02-0.213D-01-0.323D-01 0.607D-01
 Coeff-Com:  0.336D+00 0.657D+00
 Coeff:      0.793D-06-0.159D-05-0.102D-04-0.150D-04-0.935D-05 0.110D-03
 Coeff:      0.688D-03 0.154D-02-0.157D-02-0.213D-01-0.323D-01 0.607D-01
 Coeff:      0.336D+00 0.657D+00
 Gap=     0.291 Goal=   None    Shift=    0.000
 RMSDP=4.93D-09 MaxDP=8.04D-07 DE= 6.18D-11 OVMax= 6.12D-07

 SCF Done:  E(RM062X) =  -1957.19354344     A.U. after   14 cycles
            NFock= 14  Conv=0.49D-08     -V/T= 2.0030
 KE= 1.951325377616D+03 PE=-1.017968941519D+04 EE= 3.490911416568D+03
 Leave Link  502 at Fri May 13 10:53:07 2022, MaxMem=  5242880000 cpu:            6557.9 elap:             411.3
 (Enter /data0/hywu0/study/g16/l601.exe)
 Copying SCF densities to generalized density rwf, IOpCl= 0 IROHF=0.

 **********************************************************************

            Population analysis using the SCF density.

 **********************************************************************

 Alpha  occ. eigenvalues --  -90.11984 -78.14713 -19.65578 -19.65106 -19.63421
 Alpha  occ. eigenvalues --  -19.63412 -19.63264 -19.62357 -19.62048 -19.61078
 Alpha  occ. eigenvalues --  -19.60854 -19.59699 -19.57689 -14.86792 -14.86709
 Alpha  occ. eigenvalues --  -10.67269 -10.63591 -10.61570 -10.61404 -10.60275
 Alpha  occ. eigenvalues --  -10.59702 -10.59096  -8.45449  -6.95447  -6.37736
 Alpha  occ. eigenvalues --   -6.37705  -6.37642  -5.07370  -5.07318  -5.07179
 Alpha  occ. eigenvalues --   -1.26382  -1.21493  -1.19428  -1.14708  -1.14158
 Alpha  occ. eigenvalues --   -1.13421  -1.12756  -1.12574  -1.11958  -1.11136
 Alpha  occ. eigenvalues --   -1.10925  -1.08392  -1.08165  -0.94581  -0.90609
 Alpha  occ. eigenvalues --   -0.87193  -0.82737  -0.77175  -0.73455  -0.71263
 Alpha  occ. eigenvalues --   -0.70254  -0.69167  -0.65953  -0.63929  -0.62704
 Alpha  occ. eigenvalues --   -0.61987  -0.61748  -0.60806  -0.60040  -0.59005
 Alpha  occ. eigenvalues --   -0.58641  -0.58060  -0.57621  -0.57169  -0.56061
 Alpha  occ. eigenvalues --   -0.55759  -0.55266  -0.54040  -0.53115  -0.52752
 Alpha  occ. eigenvalues --   -0.51430  -0.50959  -0.50117  -0.49269  -0.48692
 Alpha  occ. eigenvalues --   -0.48361  -0.47538  -0.46935  -0.46753  -0.46139
 Alpha  occ. eigenvalues --   -0.45891  -0.45258  -0.44924  -0.44195  -0.43779
 Alpha  occ. eigenvalues --   -0.42650  -0.41221  -0.40866  -0.40287  -0.40059
 Alpha  occ. eigenvalues --   -0.39528  -0.38865  -0.38618  -0.38038  -0.37929
 Alpha  occ. eigenvalues --   -0.37296  -0.36778  -0.36363  -0.31681
 Alpha virt. eigenvalues --   -0.02590  -0.00508   0.00237   0.00748   0.01161
 Alpha virt. eigenvalues --    0.01408   0.02349   0.02753   0.03209   0.03523
 Alpha virt. eigenvalues --    0.04439   0.04923   0.05018   0.05258   0.05785
 Alpha virt. eigenvalues --    0.06492   0.06912   0.07478   0.07709   0.08235
 Alpha virt. eigenvalues --    0.08636   0.08965   0.09389   0.09877   0.10149
 Alpha virt. eigenvalues --    0.10971   0.11613   0.11817   0.11922   0.12207
 Alpha virt. eigenvalues --    0.12728   0.13021   0.13346   0.13502   0.13667
 Alpha virt. eigenvalues --    0.14119   0.14842   0.14991   0.15341   0.15530
 Alpha virt. eigenvalues --    0.15811   0.16167   0.16355   0.16688   0.17136
 Alpha virt. eigenvalues --    0.17475   0.17773   0.17934   0.18403   0.18596
 Alpha virt. eigenvalues --    0.19087   0.19192   0.19637   0.19726   0.20129
 Alpha virt. eigenvalues --    0.20262   0.20500   0.21355   0.21379   0.21853
 Alpha virt. eigenvalues --    0.22133   0.22362   0.22714   0.22959   0.23350
 Alpha virt. eigenvalues --    0.23534   0.24155   0.24358   0.25046   0.25298
 Alpha virt. eigenvalues --    0.25514   0.25705   0.25747   0.26266   0.26654
 Alpha virt. eigenvalues --    0.26937   0.27159   0.27404   0.27694   0.28391
 Alpha virt. eigenvalues --    0.28598   0.29086   0.29386   0.29536   0.30065
 Alpha virt. eigenvalues --    0.30391   0.30650   0.30974   0.31561   0.31932
 Alpha virt. eigenvalues --    0.32019   0.32412   0.32754   0.32898   0.33075
 Alpha virt. eigenvalues --    0.33262   0.33434   0.33883   0.34092   0.34627
 Alpha virt. eigenvalues --    0.34976   0.35173   0.35697   0.35912   0.36034
 Alpha virt. eigenvalues --    0.36608   0.36938   0.37738   0.38275   0.38373
 Alpha virt. eigenvalues --    0.38833   0.39456   0.40059   0.40481   0.41453
 Alpha virt. eigenvalues --    0.41902   0.42165   0.42967   0.43117   0.43337
 Alpha virt. eigenvalues --    0.43896   0.44810   0.44956   0.45454   0.45872
 Alpha virt. eigenvalues --    0.45964   0.46394   0.47042   0.47920   0.48172
 Alpha virt. eigenvalues --    0.49013   0.49545   0.50990   0.51294   0.51893
 Alpha virt. eigenvalues --    0.52176   0.53218   0.53913   0.54767   0.55129
 Alpha virt. eigenvalues --    0.55930   0.56525   0.57452   0.58264   0.58350
 Alpha virt. eigenvalues --    0.58708   0.59228   0.59601   0.59773   0.61007
 Alpha virt. eigenvalues --    0.61472   0.62194   0.62338   0.62589   0.63071
 Alpha virt. eigenvalues --    0.63776   0.64971   0.65324   0.65825   0.66043
 Alpha virt. eigenvalues --    0.66844   0.67099   0.67889   0.68360   0.68593
 Alpha virt. eigenvalues --    0.68833   0.69432   0.69958   0.70958   0.71542
 Alpha virt. eigenvalues --    0.72479   0.73068   0.73272   0.73578   0.74280
 Alpha virt. eigenvalues --    0.74610   0.75305   0.76546   0.77644   0.77863
 Alpha virt. eigenvalues --    0.78167   0.78810   0.79298   0.79504   0.80622
 Alpha virt. eigenvalues --    0.81661   0.82487   0.82557   0.83184   0.83586
 Alpha virt. eigenvalues --    0.84801   0.85229   0.85339   0.87180   0.87704
 Alpha virt. eigenvalues --    0.88874   0.90474   0.90739   0.92457   0.92978
 Alpha virt. eigenvalues --    0.94015   0.94685   0.95734   0.95964   0.97474
 Alpha virt. eigenvalues --    0.98044   0.99800   1.00523   1.02039   1.03670
 Alpha virt. eigenvalues --    1.05167   1.05630   1.06480   1.07651   1.07926
 Alpha virt. eigenvalues --    1.08603   1.09309   1.10157   1.10394   1.11404
 Alpha virt. eigenvalues --    1.12147   1.12267   1.13387   1.14201   1.14836
 Alpha virt. eigenvalues --    1.15128   1.15629   1.16068   1.17065   1.17758
 Alpha virt. eigenvalues --    1.17828   1.18437   1.18646   1.19306   1.19784
 Alpha virt. eigenvalues --    1.20584   1.21095   1.21570   1.22133   1.22383
 Alpha virt. eigenvalues --    1.22873   1.23488   1.23690   1.24795   1.25310
 Alpha virt. eigenvalues --    1.25496   1.26328   1.26797   1.27381   1.27617
 Alpha virt. eigenvalues --    1.28029   1.28483   1.28930   1.29807   1.30061
 Alpha virt. eigenvalues --    1.30640   1.30977   1.31176   1.31549   1.32470
 Alpha virt. eigenvalues --    1.33157   1.33668   1.33848   1.34317   1.35029
 Alpha virt. eigenvalues --    1.35340   1.35907   1.36883   1.37258   1.37777
 Alpha virt. eigenvalues --    1.38348   1.39383   1.40385   1.40580   1.40961
 Alpha virt. eigenvalues --    1.41226   1.42279   1.42671   1.43211   1.43526
 Alpha virt. eigenvalues --    1.44070   1.45034   1.45914   1.46670   1.46828
 Alpha virt. eigenvalues --    1.47507   1.48639   1.49230   1.50038   1.50694
 Alpha virt. eigenvalues --    1.51205   1.51830   1.52053   1.53033   1.53367
 Alpha virt. eigenvalues --    1.53988   1.54870   1.55148   1.55704   1.57181
 Alpha virt. eigenvalues --    1.57430   1.58400   1.59269   1.59699   1.61269
 Alpha virt. eigenvalues --    1.61762   1.62470   1.63514   1.65198   1.66457
 Alpha virt. eigenvalues --    1.66956   1.67815   1.69130   1.70080   1.70839
 Alpha virt. eigenvalues --    1.71424   1.72764   1.73056   1.74399   1.74731
 Alpha virt. eigenvalues --    1.75728   1.76817   1.77761   1.78578   1.79419
 Alpha virt. eigenvalues --    1.79620   1.80155   1.80855   1.81506   1.82417
 Alpha virt. eigenvalues --    1.83822   1.84152   1.85493   1.85657   1.86113
 Alpha virt. eigenvalues --    1.87816   1.88836   1.88875   1.89673   1.90107
 Alpha virt. eigenvalues --    1.90689   1.91387   1.92251   1.93237   1.93538
 Alpha virt. eigenvalues --    1.94431   1.95408   1.97282   1.98690   1.99059
 Alpha virt. eigenvalues --    1.99496   2.00140   2.01485   2.02516   2.03388
 Alpha virt. eigenvalues --    2.04023   2.05341   2.05749   2.06832   2.07894
 Alpha virt. eigenvalues --    2.08659   2.09286   2.10261   2.10413   2.10842
 Alpha virt. eigenvalues --    2.11124   2.11883   2.12751   2.13296   2.14476
 Alpha virt. eigenvalues --    2.15839   2.17241   2.18085   2.19075   2.20144
 Alpha virt. eigenvalues --    2.20683   2.21464   2.22215   2.23310   2.24297
 Alpha virt. eigenvalues --    2.24639   2.25826   2.26317   2.27638   2.28005
 Alpha virt. eigenvalues --    2.28750   2.29071   2.30232   2.30916   2.32913
 Alpha virt. eigenvalues --    2.33860   2.34364   2.34600   2.35746   2.36639
 Alpha virt. eigenvalues --    2.36995   2.38889   2.39787   2.41111   2.41612
 Alpha virt. eigenvalues --    2.42600   2.43735   2.44632   2.44908   2.45927
 Alpha virt. eigenvalues --    2.46936   2.47986   2.50105   2.50818   2.52710
 Alpha virt. eigenvalues --    2.53808   2.54395   2.56588   2.57822   2.61934
 Alpha virt. eigenvalues --    2.62681   2.65339   2.65987   2.67344   2.68660
 Alpha virt. eigenvalues --    2.68928   2.70500   2.70843   2.71962   2.72550
 Alpha virt. eigenvalues --    2.73758   2.74974   2.75643   2.76054   2.78269
 Alpha virt. eigenvalues --    2.79403   2.81176   2.82304   2.84727   2.85634
 Alpha virt. eigenvalues --    2.86187   2.87528   2.88402   2.89680   2.90492
 Alpha virt. eigenvalues --    2.92064   2.92393   2.93873   2.94585   2.96111
 Alpha virt. eigenvalues --    2.96469   2.98629   2.99994   3.00315   3.00617
 Alpha virt. eigenvalues --    3.03080   3.05187   3.05944   3.07220   3.08293
 Alpha virt. eigenvalues --    3.09919   3.11825   3.12336   3.15386   3.17228
 Alpha virt. eigenvalues --    3.18744   3.20400   3.21821   3.22201   3.23877
 Alpha virt. eigenvalues --    3.26572   3.27943   3.29294   3.31279   3.32539
 Alpha virt. eigenvalues --    3.34181   3.34829   3.36478   3.38217   3.41180
 Alpha virt. eigenvalues --    3.42587   3.45866   3.47025   3.47853   3.49129
 Alpha virt. eigenvalues --    3.50146   3.51000   3.53156   3.54679   3.55695
 Alpha virt. eigenvalues --    3.56152   3.58572   3.59351   3.62268   3.63047
 Alpha virt. eigenvalues --    3.63301   3.65583   3.67064   3.68178   3.68881
 Alpha virt. eigenvalues --    3.71216   3.71871   3.74107   3.82918   3.84629
 Alpha virt. eigenvalues --    3.87465   3.89464   3.92195   3.94003   3.97610
 Alpha virt. eigenvalues --    4.04556   4.06540   4.08573   4.14267   4.15751
 Alpha virt. eigenvalues --    4.16990   4.18616   4.20297   4.23582   4.36870
 Alpha virt. eigenvalues --    4.47629   4.55070   4.96311   5.01333   5.03746
 Alpha virt. eigenvalues --    5.06201   5.07343   5.10775   5.12250   5.13147
 Alpha virt. eigenvalues --    5.15119   5.16000   5.17610   5.19007   5.19391
 Alpha virt. eigenvalues --    5.20288   5.21408   5.22388   5.24151   5.25511
 Alpha virt. eigenvalues --    5.26439   5.28104   5.29136   5.30198   5.32334
 Alpha virt. eigenvalues --    5.33222   5.35332   5.37789   5.40384   5.40689
 Alpha virt. eigenvalues --    5.44663   5.46452   5.49550   5.53011   5.54402
 Alpha virt. eigenvalues --    5.56635   5.57689   5.58561   5.61759   5.63211
 Alpha virt. eigenvalues --    5.63579   5.64689   5.66731   5.68118   5.85352
 Alpha virt. eigenvalues --    5.97214   5.97427   5.98575   6.00084   6.76291
 Alpha virt. eigenvalues --    6.77129   6.77849   6.78546   6.78876   6.79596
 Alpha virt. eigenvalues --    6.80365   6.80514   6.81245   6.81772   6.81976
 Alpha virt. eigenvalues --    6.83055   6.83633   6.85083   6.85820   6.85966
 Alpha virt. eigenvalues --    6.87427   6.87799   6.88492   6.89020   6.89726
 Alpha virt. eigenvalues --    6.90926   6.91607   6.93743   6.94311   6.94524
 Alpha virt. eigenvalues --    6.96176   6.96292   6.96753   6.97948   6.98595
 Alpha virt. eigenvalues --    6.99589   7.00410   7.00757   7.02016   7.03846
 Alpha virt. eigenvalues --    7.05067   7.08142   7.11615   7.14901   7.15661
 Alpha virt. eigenvalues --    7.17140   7.18960   7.20014   7.21915   7.23796
 Alpha virt. eigenvalues --    7.26953   7.28285   7.31271   7.33758   7.37348
 Alpha virt. eigenvalues --    7.38337   7.40198   7.42438   7.45485   7.71742
 Alpha virt. eigenvalues --    8.61745  14.29199  14.32691  14.41665  17.74437
 Alpha virt. eigenvalues --   17.76191  17.84286  23.91324  23.95419  23.98912
 Alpha virt. eigenvalues --   24.02068  24.05857  24.11647  24.18511  35.60697
 Alpha virt. eigenvalues --   35.70257  50.04228  50.05077  50.05625  50.06955
 Alpha virt. eigenvalues --   50.08026  50.08418  50.09207  50.12048  50.12684
 Alpha virt. eigenvalues --   50.14357  50.16956 163.97999 189.93824
          Condensed to atoms (all electrons):
               1          2          3          4          5          6
     1  C   12.590031  -5.582867  -1.279767  -0.360775   0.292041   0.006478
     2  C   -5.582867  11.746387  -0.185840   0.574432   0.073725   0.365744
     3  C   -1.279767  -0.185840   9.157000  -0.510408   0.004559   0.003558
     4  N   -0.360775   0.574432  -0.510408   6.649160  -0.025550   0.009035
     5  H    0.292041   0.073725   0.004559  -0.025550   0.436935  -0.001214
     6  H    0.006478   0.365744   0.003558   0.009035  -0.001214   0.438885
     7  H    0.030912   0.002160   0.271106   0.001202   0.000018  -0.000001
     8  C   -0.062507  -0.081110  -0.368969   0.211080  -0.002646   0.001708
     9  H    0.014396  -0.001328  -0.023480  -0.051801   0.000035   0.000005
    10  H   -0.056394   0.014518   0.082556  -0.041232   0.000576  -0.000009
    11  H   -0.004124   0.018420   0.004885  -0.058447   0.001492  -0.000028
    12  N    0.737302  -0.465055  -0.199756  -0.006866  -0.002187  -0.037421
    13  C   -0.351914   0.384411  -0.255534  -0.011935   0.002445   0.001016
    14  H    0.006233  -0.015845  -0.003234  -0.003443  -0.000012   0.000356
    15  H   -0.004839  -0.000574  -0.021099   0.010180   0.000018  -0.000026
    16  C    0.186805  -0.479999   0.248458  -0.021168  -0.001533   0.002049
    17  H    0.004439   0.002561  -0.003662  -0.000235  -0.000002  -0.000192
    18  H   -0.003017  -0.008334  -0.014828   0.002702   0.000003   0.002148
    19  C   -0.060744   0.075416   0.235527  -0.041281  -0.000226  -0.001850
    20  H    0.000138   0.000669   0.000346  -0.000015  -0.000000  -0.000003
    21  H    0.000804  -0.003650  -0.002683   0.000549  -0.000000   0.000019
    22  S    0.034589   0.077250  -0.395153   0.076346   0.001274   0.003522
    23  O   -0.019607   0.032078  -0.025198   0.004600   0.000027   0.000032
    24  O    0.152346  -0.124655  -0.036114  -0.025641  -0.001127  -0.001034
    25  O    0.082457  -0.090615  -0.260851   0.070855  -0.000251  -0.000122
    26  P   -0.171162   0.142051  -0.011098   0.020680   0.006681   0.000777
    27  O    0.129149  -0.061653  -0.041296   0.013178  -0.012114  -0.001330
    28  O   -0.085118   0.017358   0.060460  -0.003456   0.001306  -0.000072
    29  H    0.001768   0.004147  -0.012233   0.004705   0.000014  -0.000008
    30  O    0.077064  -0.063516   0.005999  -0.009924  -0.000968   0.000205
    31  H   -0.017887   0.013207   0.011855  -0.002782   0.000244  -0.000174
    32  O   -0.000258   0.002444  -0.003449  -0.001062   0.000194  -0.000001
    33  H   -0.001763   0.000775   0.000707  -0.000255   0.000010   0.000000
    34  O    0.008135  -0.001082   0.003277   0.002794  -0.000011   0.000001
    35  H   -0.001390   0.000720  -0.001429  -0.000787   0.000003  -0.000000
    36  H   -0.001366  -0.002839   0.027554  -0.011679  -0.000001   0.000001
    37  O    0.011077   0.010883  -0.107721   0.024072  -0.000001  -0.000014
    38  H    0.002453  -0.020704   0.113103  -0.031533  -0.000012   0.000013
    39  H   -0.001616   0.000695   0.007203  -0.001331   0.000001  -0.000000
    40  O    0.004320  -0.001934  -0.013987   0.002417  -0.000012   0.000001
    41  H   -0.000888   0.000153   0.003117  -0.000293   0.000001   0.000000
    42  H   -0.003061   0.002383   0.001291  -0.000044   0.000006  -0.000001
    43  O    0.208381  -0.243222   0.024362  -0.032320  -0.010962  -0.023661
    44  H   -0.045981   0.055507   0.002818  -0.000440   0.001243   0.001728
    45  H   -0.036828   0.039109   0.004187   0.001090   0.001458   0.001129
               7          8          9         10         11         12
     1  C    0.030912  -0.062507   0.014396  -0.056394  -0.004124   0.737302
     2  C    0.002160  -0.081110  -0.001328   0.014518   0.018420  -0.465055
     3  C    0.271106  -0.368969  -0.023480   0.082556   0.004885  -0.199756
     4  N    0.001202   0.211080  -0.051801  -0.041232  -0.058447  -0.006866
     5  H    0.000018  -0.002646   0.000035   0.000576   0.001492  -0.002187
     6  H   -0.000001   0.001708   0.000005  -0.000009  -0.000028  -0.037421
     7  H    0.436065   0.015278   0.000846  -0.001034   0.000013  -0.004676
     8  C    0.015278   5.620072   0.430346   0.345488   0.419372  -0.015875
     9  H    0.000846   0.430346   0.491641  -0.028483  -0.017106  -0.005695
    10  H   -0.001034   0.345488  -0.028483   0.494309  -0.018124   0.002375
    11  H    0.000013   0.419372  -0.017106  -0.018124   0.451442  -0.002344
    12  N   -0.004676  -0.015875  -0.005695   0.002375  -0.002344   6.572251
    13  C    0.003622  -0.018034  -0.000348   0.000392   0.000845   0.014767
    14  H    0.000311  -0.000387  -0.000013   0.000005  -0.000002  -0.051710
    15  H    0.003746   0.001569  -0.000004  -0.000005  -0.000000  -0.049330
    16  C   -0.002406  -0.006110   0.000117   0.000608  -0.000083   0.062574
    17  H   -0.000010   0.000082  -0.000000   0.000000  -0.000000  -0.001063
    18  H    0.000151   0.000280   0.000000  -0.000007  -0.000001  -0.004710
    19  C   -0.011112  -0.006874  -0.000117  -0.000039   0.000002   0.023604
    20  H    0.000016  -0.000009   0.000000   0.000000  -0.000000   0.000133
    21  H    0.000164   0.000074   0.000000  -0.000000  -0.000000   0.000544
    22  S    0.020830   0.002025   0.000418   0.003319  -0.000203  -0.032845
    23  O    0.000132   0.000032  -0.000002   0.000158   0.000004  -0.016218
    24  O    0.001803  -0.003699  -0.000020  -0.000784   0.000062   0.079961
    25  O   -0.007189   0.022324  -0.000000  -0.005526   0.000050   0.054624
    26  P    0.000709  -0.000474   0.000303  -0.000391  -0.001376  -0.007560
    27  O   -0.000012  -0.017137  -0.000056  -0.000036  -0.002483  -0.001358
    28  O   -0.000474   0.000950   0.003435   0.009660  -0.008646  -0.015973
    29  H    0.000117   0.003539  -0.000629  -0.000821  -0.000494   0.002505
    30  O   -0.000090   0.001395   0.000037   0.000855  -0.000003   0.001658
    31  H   -0.000009   0.002193   0.000000   0.000052  -0.000082   0.000136
    32  O    0.000006   0.003289   0.000004  -0.000251   0.000114   0.000102
    33  H   -0.000000   0.000149   0.000000   0.000023   0.000033  -0.000010
    34  O   -0.000261  -0.030501   0.000618   0.005602   0.001021  -0.001106
    35  H    0.000013   0.004281  -0.000024  -0.000503  -0.000074   0.000107
    36  H    0.000067  -0.005377  -0.000097   0.008800  -0.000065  -0.000127
    37  O    0.004049   0.011174   0.000424  -0.018567   0.000299   0.014060
    38  H   -0.001702  -0.022145   0.000227   0.009652   0.000052  -0.007081
    39  H   -0.000318  -0.002165  -0.000035   0.002149   0.000009   0.000229
    40  O    0.000120  -0.000079  -0.000002   0.000053   0.000000   0.000905
    41  H   -0.000021   0.000248   0.000000   0.000015  -0.000000  -0.000167
    42  H   -0.000011   0.000158   0.000000  -0.000003  -0.000004  -0.000097
    43  O   -0.000231  -0.011801   0.000008   0.000051  -0.000003   0.034396
    44  H    0.000021   0.002597  -0.000002  -0.000010  -0.000012  -0.003846
    45  H    0.000006   0.000509  -0.000001  -0.000002   0.000027  -0.004303
              13         14         15         16         17         18
     1  C   -0.351914   0.006233  -0.004839   0.186805   0.004439  -0.003017
     2  C    0.384411  -0.015845  -0.000574  -0.479999   0.002561  -0.008334
     3  C   -0.255534  -0.003234  -0.021099   0.248458  -0.003662  -0.014828
     4  N   -0.011935  -0.003443   0.010180  -0.021168  -0.000235   0.002702
     5  H    0.002445  -0.000012   0.000018  -0.001533  -0.000002   0.000003
     6  H    0.001016   0.000356  -0.000026   0.002049  -0.000192   0.002148
     7  H    0.003622   0.000311   0.003746  -0.002406  -0.000010   0.000151
     8  C   -0.018034  -0.000387   0.001569  -0.006110   0.000082   0.000280
     9  H   -0.000348  -0.000013  -0.000004   0.000117  -0.000000   0.000000
    10  H    0.000392   0.000005  -0.000005   0.000608   0.000000  -0.000007
    11  H    0.000845  -0.000002  -0.000000  -0.000083  -0.000000  -0.000001
    12  N    0.014767  -0.051710  -0.049330   0.062574  -0.001063  -0.004710
    13  C    6.346344   0.459465   0.464851  -0.496877  -0.023957  -0.001790
    14  H    0.459465   0.503170  -0.023616  -0.068452  -0.006759  -0.000801
    15  H    0.464851  -0.023616   0.459971  -0.043897   0.000665   0.003254
    16  C   -0.496877  -0.068452  -0.043897   6.569837   0.413166   0.407784
    17  H   -0.023957  -0.006759   0.000665   0.413166   0.505567  -0.027887
    18  H   -0.001790  -0.000801   0.003254   0.407784  -0.027887   0.469694
    19  C    0.080717   0.007926  -0.017135  -0.686076  -0.029227  -0.040642
    20  H    0.012952  -0.000039  -0.000050  -0.081965  -0.004846  -0.003596
    21  H   -0.011219  -0.000021   0.001754  -0.023201  -0.004878   0.004418
    22  S   -0.164970   0.006212   0.012734   0.200663  -0.001919   0.007985
    23  O   -0.004297   0.000052   0.000172  -0.026746  -0.000454   0.000874
    24  O    0.044190   0.000449   0.000734  -0.001490  -0.000120   0.006230
    25  O    0.026650   0.000949   0.000474  -0.037221   0.000942  -0.000918
    26  P    0.000005   0.000019   0.000104  -0.004365  -0.000027   0.000210
    27  O   -0.001970  -0.000000  -0.000001   0.002322  -0.000003  -0.000233
    28  O   -0.000618  -0.000002   0.000000  -0.000042  -0.000000   0.000027
    29  H    0.000300   0.000000   0.000001  -0.000536   0.000000  -0.000002
    30  O   -0.005015   0.000002   0.000001   0.006126  -0.000012   0.000129
    31  H    0.005059  -0.000002  -0.000005  -0.001589   0.000023   0.000084
    32  O    0.000113   0.000000  -0.000000  -0.000071   0.000000  -0.000002
    33  H    0.000001  -0.000000  -0.000000  -0.000012  -0.000000   0.000000
    34  O    0.000125  -0.000001   0.000001   0.001556   0.000000   0.000002
    35  H    0.000711   0.000000  -0.000001  -0.001293  -0.000000   0.000001
    36  H   -0.000181   0.000000  -0.000005   0.000450  -0.000000  -0.000001
    37  O    0.007681   0.000023   0.000449  -0.010648  -0.000002   0.000062
    38  H   -0.012651  -0.000009  -0.000580   0.012719   0.000012  -0.000115
    39  H   -0.001171   0.000000   0.000016   0.001123  -0.000000  -0.000001
    40  O   -0.003671   0.000000   0.000008   0.006788  -0.000000  -0.000024
    41  H    0.001212  -0.000000  -0.000005  -0.002026   0.000000   0.000007
    42  H    0.000711   0.000000  -0.000000  -0.001054  -0.000000   0.000001
    43  O    0.000007   0.000090  -0.000273  -0.010942   0.000498   0.007538
    44  H   -0.007398  -0.000034   0.000088   0.014357  -0.000035   0.002685
    45  H    0.000809  -0.000000   0.000005   0.001499  -0.000001  -0.000601
              19         20         21         22         23         24
     1  C   -0.060744   0.000138   0.000804   0.034589  -0.019607   0.152346
     2  C    0.075416   0.000669  -0.003650   0.077250   0.032078  -0.124655
     3  C    0.235527   0.000346  -0.002683  -0.395153  -0.025198  -0.036114
     4  N   -0.041281  -0.000015   0.000549   0.076346   0.004600  -0.025641
     5  H   -0.000226  -0.000000  -0.000000   0.001274   0.000027  -0.001127
     6  H   -0.001850  -0.000003   0.000019   0.003522   0.000032  -0.001034
     7  H   -0.011112   0.000016   0.000164   0.020830   0.000132   0.001803
     8  C   -0.006874  -0.000009   0.000074   0.002025   0.000032  -0.003699
     9  H   -0.000117   0.000000   0.000000   0.000418  -0.000002  -0.000020
    10  H   -0.000039   0.000000  -0.000000   0.003319   0.000158  -0.000784
    11  H    0.000002  -0.000000  -0.000000  -0.000203   0.000004   0.000062
    12  N    0.023604   0.000133   0.000544  -0.032845  -0.016218   0.079961
    13  C    0.080717   0.012952  -0.011219  -0.164970  -0.004297   0.044190
    14  H    0.007926  -0.000039  -0.000021   0.006212   0.000052   0.000449
    15  H   -0.017135  -0.000050   0.001754   0.012734   0.000172   0.000734
    16  C   -0.686076  -0.081965  -0.023201   0.200663  -0.026746  -0.001490
    17  H   -0.029227  -0.004846  -0.004878  -0.001919  -0.000454  -0.000120
    18  H   -0.040642  -0.003596   0.004418   0.007985   0.000874   0.006230
    19  C    7.364603   0.455212   0.401674  -0.794473  -0.151333  -0.167849
    20  H    0.455212   0.446052  -0.023991  -0.048183   0.012998   0.005809
    21  H    0.401674  -0.023991   0.452520  -0.024927   0.003100  -0.001909
    22  S   -0.794473  -0.048183  -0.024927  14.877887   0.501845   0.198375
    23  O   -0.151333   0.012998   0.003100   0.501845   8.299785  -0.080031
    24  O   -0.167849   0.005809  -0.001909   0.198375  -0.080031   8.589700
    25  O   -0.135273  -0.000203   0.013922   0.267201  -0.068016  -0.017590
    26  P    0.007305   0.000041   0.000055  -0.011141   0.002091   0.018190
    27  O   -0.000394  -0.000011   0.000002  -0.002267  -0.000486   0.006172
    28  O   -0.002238  -0.000000   0.000001  -0.002608   0.000231  -0.001387
    29  H    0.002475  -0.000001  -0.000001   0.002141   0.000688  -0.000593
    30  O   -0.011675   0.000037   0.000011  -0.015342  -0.003920   0.052103
    31  H    0.014003  -0.000126   0.000062   0.035414   0.004585   0.004853
    32  O   -0.000206   0.000001  -0.000000   0.000324   0.000130   0.001968
    33  H    0.000038   0.000000  -0.000000  -0.000398   0.000027   0.000004
    34  O   -0.014495   0.000010   0.000017  -0.012180  -0.003199   0.000883
    35  H    0.006471  -0.000003  -0.000005   0.006521  -0.001660  -0.001911
    36  H    0.003374  -0.000002  -0.000007   0.009036   0.001244  -0.000636
    37  O   -0.010320   0.000022   0.000174  -0.027960  -0.002039   0.002863
    38  H    0.004287   0.000032  -0.000163   0.062531   0.005295  -0.007355
    39  H    0.001820  -0.000002  -0.000001  -0.000640   0.000448  -0.000097
    40  O   -0.035562   0.000046   0.000094   0.018930  -0.001368   0.011038
    41  H    0.022926  -0.000040  -0.000068   0.008687   0.020774  -0.001432
    42  H    0.006182  -0.000003  -0.000013  -0.011586   0.000317   0.002750
    43  O    0.019997   0.000099  -0.000083  -0.040604  -0.002882   0.009125
    44  H   -0.016163   0.000095  -0.000024   0.020815   0.003614   0.033778
    45  H   -0.001245   0.000007   0.000002   0.000869   0.000218  -0.001515
              25         26         27         28         29         30
     1  C    0.082457  -0.171162   0.129149  -0.085118   0.001768   0.077064
     2  C   -0.090615   0.142051  -0.061653   0.017358   0.004147  -0.063516
     3  C   -0.260851  -0.011098  -0.041296   0.060460  -0.012233   0.005999
     4  N    0.070855   0.020680   0.013178  -0.003456   0.004705  -0.009924
     5  H   -0.000251   0.006681  -0.012114   0.001306   0.000014  -0.000968
     6  H   -0.000122   0.000777  -0.001330  -0.000072  -0.000008   0.000205
     7  H   -0.007189   0.000709  -0.000012  -0.000474   0.000117  -0.000090
     8  C    0.022324  -0.000474  -0.017137   0.000950   0.003539   0.001395
     9  H   -0.000000   0.000303  -0.000056   0.003435  -0.000629   0.000037
    10  H   -0.005526  -0.000391  -0.000036   0.009660  -0.000821   0.000855
    11  H    0.000050  -0.001376  -0.002483  -0.008646  -0.000494  -0.000003
    12  N    0.054624  -0.007560  -0.001358  -0.015973   0.002505   0.001658
    13  C    0.026650   0.000005  -0.001970  -0.000618   0.000300  -0.005015
    14  H    0.000949   0.000019  -0.000000  -0.000002   0.000000   0.000002
    15  H    0.000474   0.000104  -0.000001   0.000000   0.000001   0.000001
    16  C   -0.037221  -0.004365   0.002322  -0.000042  -0.000536   0.006126
    17  H    0.000942  -0.000027  -0.000003  -0.000000   0.000000  -0.000012
    18  H   -0.000918   0.000210  -0.000233   0.000027  -0.000002   0.000129
    19  C   -0.135273   0.007305  -0.000394  -0.002238   0.002475  -0.011675
    20  H   -0.000203   0.000041  -0.000011  -0.000000  -0.000001   0.000037
    21  H    0.013922   0.000055   0.000002   0.000001  -0.000001   0.000011
    22  S    0.267201  -0.011141  -0.002267  -0.002608   0.002141  -0.015342
    23  O   -0.068016   0.002091  -0.000486   0.000231   0.000688  -0.003920
    24  O   -0.017590   0.018190   0.006172  -0.001387  -0.000593   0.052103
    25  O    8.773010  -0.003738   0.002304  -0.000169   0.000090  -0.001617
    26  P   -0.003738  12.708591   0.471302   0.135985   0.109405   0.197705
    27  O    0.002304   0.471302   8.336337  -0.067173   0.017200  -0.053587
    28  O   -0.000169   0.135985  -0.067173   8.362922   0.081491   0.041338
    29  H    0.000090   0.109405   0.017200   0.081491   0.480294  -0.039268
    30  O   -0.001617   0.197705  -0.053587   0.041338  -0.039268   8.315688
    31  H   -0.003832   0.020061   0.005514  -0.015930   0.000932   0.139501
    32  O   -0.000078   0.180743  -0.044629   0.000023   0.007540   0.014963
    33  H   -0.000020   0.016621  -0.004626  -0.001255  -0.004179  -0.008469
    34  O    0.003054  -0.056213   0.000535   0.132715  -0.172344   0.051574
    35  H    0.001103   0.024725   0.000369  -0.032134   0.051658  -0.017541
    36  H   -0.006329   0.007232  -0.000188  -0.030173   0.048495  -0.002717
    37  O    0.026268   0.001309   0.000365  -0.001413  -0.003581  -0.003606
    38  H   -0.008479  -0.001014   0.000109  -0.000162   0.000233   0.001612
    39  H    0.004302   0.000046   0.000011   0.000076   0.000133   0.000165
    40  O   -0.002247  -0.021927  -0.000753   0.004001  -0.009754   0.037321
    41  H   -0.000628   0.001879   0.000039  -0.000146   0.000205  -0.007116
    42  H   -0.001158   0.014579   0.000780  -0.003999   0.004495   0.013393
    43  O    0.003662  -0.030433   0.003423  -0.000410  -0.000059   0.007149
    44  H   -0.005189   0.013145  -0.006405  -0.001523   0.000197  -0.006868
    45  H   -0.000095   0.010021   0.025827   0.000560  -0.000050  -0.003052
              31         32         33         34         35         36
     1  C   -0.017887  -0.000258  -0.001763   0.008135  -0.001390  -0.001366
     2  C    0.013207   0.002444   0.000775  -0.001082   0.000720  -0.002839
     3  C    0.011855  -0.003449   0.000707   0.003277  -0.001429   0.027554
     4  N   -0.002782  -0.001062  -0.000255   0.002794  -0.000787  -0.011679
     5  H    0.000244   0.000194   0.000010  -0.000011   0.000003  -0.000001
     6  H   -0.000174  -0.000001   0.000000   0.000001  -0.000000   0.000001
     7  H   -0.000009   0.000006  -0.000000  -0.000261   0.000013   0.000067
     8  C    0.002193   0.003289   0.000149  -0.030501   0.004281  -0.005377
     9  H    0.000000   0.000004   0.000000   0.000618  -0.000024  -0.000097
    10  H    0.000052  -0.000251   0.000023   0.005602  -0.000503   0.008800
    11  H   -0.000082   0.000114   0.000033   0.001021  -0.000074  -0.000065
    12  N    0.000136   0.000102  -0.000010  -0.001106   0.000107  -0.000127
    13  C    0.005059   0.000113   0.000001   0.000125   0.000711  -0.000181
    14  H   -0.000002   0.000000  -0.000000  -0.000001   0.000000   0.000000
    15  H   -0.000005  -0.000000  -0.000000   0.000001  -0.000001  -0.000005
    16  C   -0.001589  -0.000071  -0.000012   0.001556  -0.001293   0.000450
    17  H    0.000023   0.000000  -0.000000   0.000000  -0.000000  -0.000000
    18  H    0.000084  -0.000002   0.000000   0.000002   0.000001  -0.000001
    19  C    0.014003  -0.000206   0.000038  -0.014495   0.006471   0.003374
    20  H   -0.000126   0.000001   0.000000   0.000010  -0.000003  -0.000002
    21  H    0.000062  -0.000000  -0.000000   0.000017  -0.000005  -0.000007
    22  S    0.035414   0.000324  -0.000398  -0.012180   0.006521   0.009036
    23  O    0.004585   0.000130   0.000027  -0.003199  -0.001660   0.001244
    24  O    0.004853   0.001968   0.000004   0.000883  -0.001911  -0.000636
    25  O   -0.003832  -0.000078  -0.000020   0.003054   0.001103  -0.006329
    26  P    0.020061   0.180743   0.016621  -0.056213   0.024725   0.007232
    27  O    0.005514  -0.044629  -0.004626   0.000535   0.000369  -0.000188
    28  O   -0.015930   0.000023  -0.001255   0.132715  -0.032134  -0.030173
    29  H    0.000932   0.007540  -0.004179  -0.172344   0.051658   0.048495
    30  O    0.139501   0.014963  -0.008469   0.051574  -0.017541  -0.002717
    31  H    0.321951   0.004089   0.000499  -0.008257   0.002641   0.000388
    32  O    0.004089   8.024172   0.241665  -0.009662   0.000381   0.000963
    33  H    0.000499   0.241665   0.450409  -0.000304  -0.000310  -0.000061
    34  O   -0.008257  -0.009662  -0.000304   8.407580   0.160534   0.184032
    35  H    0.002641   0.000381  -0.000310   0.160534   0.418993   0.021815
    36  H    0.000388   0.000963  -0.000061   0.184032   0.021815   0.418249
    37  O    0.000305  -0.000107  -0.000008   0.048183   0.000017  -0.063912
    38  H    0.000477   0.000000  -0.000003  -0.009009  -0.003214   0.016016
    39  H   -0.000102  -0.000002  -0.000000  -0.005378  -0.000739   0.001461
    40  O   -0.022470   0.002791  -0.000140   0.089466  -0.068521  -0.009450
    41  H    0.005819  -0.000273  -0.000000  -0.015989   0.016646   0.000111
    42  H    0.009447  -0.002118  -0.000184  -0.029136   0.026090   0.001095
[...]
    X=              1.8124    Y=              0.5936    Z=              0.9585  Tot=              2.1345
 Quadrupole moment (field-independent basis, Debye-Ang):
   XX=             24.9942   YY=              7.3032   ZZ=              5.3761
   XY=             23.8897   XZ=             19.7058   YZ=             15.4611
 Traceless Quadrupole moment (field-independent basis, Debye-Ang):
   XX=             12.4364   YY=             -5.2546   ZZ=             -7.1817
   XY=             23.8897   XZ=             19.7058   YZ=             15.4611
 Octapole moment (field-independent basis, Debye-Ang**2):
  XXX=            245.2387  YYY=             28.7610  ZZZ=            -13.8004  XYY=            257.9809
  XXY=            299.5590  XXZ=            228.5295  XZZ=            119.3757  YZZ=             99.1988
  YYZ=            187.6413  XYZ=            251.7302
 Hexadecapole moment (field-independent basis, Debye-Ang**3):
 XXXX=           1948.6337 YYYY=           -884.4243 ZZZZ=           -676.7616 XXXY=           2832.6366
 XXXZ=           2149.4821 YYYX=           2281.0395 YYYZ=           1876.4903 ZZZX=            352.1921
 ZZZY=            168.7617 XXYY=           3158.7847 XXZZ=           1400.3601 YYZZ=           1297.7811
 XXYZ=           2755.0206 YYXZ=           2847.3413 ZZXY=           1611.1010
 N-N= 9.080212719543D+00 E-N=-1.990066467214D+02  KE= 7.618771300717D+01
 No NMR shielding tensors so no spin-rotation constants.
 Leave Link  601 at Fri May 13 11:22:23 2022, MaxMem=  5242880000 cpu:               1.0 elap:               0.1
 (Enter /data0/hywu0/study/g16/l122.exe)
 CPIOFr:  IOpCl= 0 IRwI=-1 IRwCP=  731 ICalc= 11 LCPTot=      856928 Len1MO=     2253616 IndFrg=    27900320
 Counterpoise: doing calculation for fragment   6 using the basis set of the fragment.
 Leave Link  122 at Fri May 13 11:22:23 2022, MaxMem=  5242880000 cpu:               0.3 elap:               0.0
 (Enter /data0/hywu0/study/g16/l301.exe)
 Basis read from rwf:  (5D, 7F)
 No pseudopotential information found on rwf file.
    39 basis functions,    58 primitive gaussians,    41 cartesian basis functions
     5 alpha electrons        5 beta electrons
       nuclear repulsion energy         9.0948473585 Hartrees.
 IExCor= 4336 DFT=T Ex+Corr=M062X ExCW=0 ScaHFX=  0.540000
 ScaDFX=  1.000000  1.000000  1.000000  1.000000 ScalE2=  1.000000  1.000000
 IRadAn=      5 IRanWt=     -1 IRanGd=            0 ICorTp=0 IEmpDi=131
 NAtoms=   45 NActive=    3 NUniq=    3 SFac= 1.00D+00 NAtFMM=   60 NAOKFM=F Big=F
 Integral buffers will be    131072 words long.
 Raffenetti 2 integral format.
 Two-electron integral symmetry is turned off.
 R6Disp:  Grimme-D3 Dispersion energy=       -0.0000000071 Hartrees.
 Nuclear repulsion after empirical dispersion term =        9.0948473514 Hartrees.
 No density basis found on file   718.
 Leave Link  301 at Fri May 13 11:22:23 2022, MaxMem=  5242880000 cpu:               0.7 elap:               0.1
 (Enter /data0/hywu0/study/g16/l302.exe)
 NPDir=0 NMtPBC=     1 NCelOv=     1 NCel=       1 NClECP=     1 NCelD=      1
         NCelK=      1 NCelE2=     1 NClLst=     1 CellRange=     0.0.
 One-electron integrals computed using PRISM.
 NBasis=    39 RedAO= T EigKep=  2.97D-03  NBF=    39
 NBsUse=    39 1.00D-06 EigRej= -1.00D+00 NBFU=    39
 Precomputing XC quadrature grid using
 IXCGrd= 4 IRadAn=           5 IRanWt=          -1 IRanGd=           0 AccXCQ= 0.00D+00.
 Generated NRdTot=       0 NPtTot=           0 NUsed=           0 NTot=          32
 NSgBfM=    41    41    41    41    41 MxSgAt=     3 MxSgA2=     3.
 Leave Link  302 at Fri May 13 11:22:23 2022, MaxMem=  5242880000 cpu:               1.6 elap:               0.1
 (Enter /data0/hywu0/study/g16/l303.exe)
 DipDrv:  MaxL=1.
 Leave Link  303 at Fri May 13 11:22:23 2022, MaxMem=  5242880000 cpu:               0.4 elap:               0.0
 (Enter /data0/hywu0/study/g16/l401.exe)
 ExpMin= 8.45D-02 ExpMax= 8.59D+03 ExpMxC= 1.30D+03 IAcc=3 IRadAn=         5 AccDes= 0.00D+00
 Harris functional with IExCor= 1009 and IRadAn=       5 diagonalized for initial guess.
 HarFok:  IExCor= 1009 AccDes= 0.00D+00 IRadAn=         5 IDoV= 1 UseB2=F ITyADJ=14
 ICtDFT=  3500011 ScaDFX=  1.000000  1.000000  1.000000  1.000000
 FoFCou: FMM=F IPFlag=           0 FMFlag=      100000 FMFlg1=           0
         NFxFlg=           0 DoJE=T BraDBF=F KetDBF=T FulRan=T
         wScrn=  0.000000 ICntrl=       500 IOpCl=  0 I1Cent=   200000004 NGrid=           0
         NMat0=    1 NMatS0=      1 NMatT0=    0 NMatD0=    1 NMtDS0=    0 NMtDT0=    0
 Symmetry not used in FoFCou.
 Harris En= -76.4161300555427    
 JPrj=0 DoOrth=F DoCkMO=F.
 Leave Link  401 at Fri May 13 11:22:23 2022, MaxMem=  5242880000 cpu:               1.7 elap:               0.1
 (Enter /data0/hywu0/study/g16/l502.exe)
 Keep R1 ints in memory in canonical form, NReq=14137198.
 FoFCou: FMM=F IPFlag=           0 FMFlag=           0 FMFlg1=           0
         NFxFlg=           0 DoJE=F BraDBF=F KetDBF=F FulRan=T
         wScrn=  0.000000 ICntrl=       600 IOpCl=  0 I1Cent=           0 NGrid=           0
         NMat0=    1 NMatS0=    780 NMatT0=    0 NMatD0=    1 NMtDS0=    0 NMtDT0=    0
 Symmetry not used in FoFCou.
 Two-electron integral symmetry not used.
 Closed shell SCF:
 Using DIIS extrapolation, IDIIS=  1040.
 NGot=  5242880000 LenX=  5242569620 LenY=  5242567498
 Requested convergence on RMS density matrix=1.00D-08 within 128 cycles.
 Requested convergence on MAX density matrix=1.00D-06.
 Requested convergence on             energy=1.00D-06.
 No special actions if energy rises.
 Integral accuracy reduced to 1.0D-05 until final iterations.

 Cycle   1  Pass 0  IDiag  1:
 E= -76.3465727310539    
 DIIS: error= 6.98D-02 at cycle   1 NSaved=   1.
 NSaved= 1 IEnMin= 1 EnMin= -76.3465727310539     IErMin= 1 ErrMin= 6.98D-02
 ErrMax= 6.98D-02  0.00D+00 EMaxC= 1.00D-01 BMatC= 1.20D-01 BMatP= 1.20D-01
 IDIUse=3 WtCom= 3.02D-01 WtEn= 6.98D-01
 Coeff-Com:  0.100D+01
 Coeff-En:   0.100D+01
 Coeff:      0.100D+01
 Gap=     0.325 Goal=   None    Shift=    0.000
 GapD=    0.325 DampG=1.000 DampE=0.500 DampFc=0.5000 IDamp=-1.
 Damping current iteration by 5.00D-01
 RMSDP=8.01D-03 MaxDP=1.00D-01              OVMax= 1.67D-01

 Cycle   2  Pass 0  IDiag  1:
 E= -76.3778055406657     Delta-E=       -0.031232809612 Rises=F Damp=T
 DIIS: error= 1.13D-02 at cycle   2 NSaved=   2.
 NSaved= 2 IEnMin= 2 EnMin= -76.3778055406657     IErMin= 2 ErrMin= 1.13D-02
 ErrMax= 1.13D-02  0.00D+00 EMaxC= 1.00D-01 BMatC= 4.84D-03 BMatP= 1.20D-01
 IDIUse=3 WtCom= 8.87D-01 WtEn= 1.13D-01
 Coeff-Com:  0.833D-01 0.917D+00
 Coeff-En:   0.189D+00 0.811D+00
 Coeff:      0.952D-01 0.905D+00
 Gap=     0.457 Goal=   None    Shift=    0.000
 RMSDP=9.52D-04 MaxDP=1.41D-02 DE=-3.12D-02 OVMax= 1.00D-01

 Cycle   3  Pass 0  IDiag  1:
 E= -76.4215659518397     Delta-E=       -0.043760411174 Rises=F Damp=F
 DIIS: error= 2.15D-03 at cycle   3 NSaved=   3.
 NSaved= 3 IEnMin= 3 EnMin= -76.4215659518397     IErMin= 3 ErrMin= 2.15D-03
 ErrMax= 2.15D-03  0.00D+00 EMaxC= 1.00D-01 BMatC= 9.00D-05 BMatP= 4.84D-03
 IDIUse=3 WtCom= 9.78D-01 WtEn= 2.15D-02
 Coeff-Com: -0.200D-01 0.388D-01 0.981D+00
 Coeff-En:   0.000D+00 0.000D+00 0.100D+01
 Coeff:     -0.195D-01 0.380D-01 0.982D+00
 Gap=     0.462 Goal=   None    Shift=    0.000
 RMSDP=1.14D-04 MaxDP=9.70D-04 DE=-4.38D-02 OVMax= 3.32D-03

 Cycle   4  Pass 0  IDiag  1:
 E= -76.4216429195976     Delta-E=       -0.000076967758 Rises=F Damp=F
 DIIS: error= 4.13D-04 at cycle   4 NSaved=   4.
 NSaved= 4 IEnMin= 4 EnMin= -76.4216429195976     IErMin= 4 ErrMin= 4.13D-04
 ErrMax= 4.13D-04  0.00D+00 EMaxC= 1.00D-01 BMatC= 3.23D-06 BMatP= 9.00D-05
 IDIUse=3 WtCom= 9.96D-01 WtEn= 4.13D-03
 Coeff-Com: -0.184D-02-0.233D-02 0.160D+00 0.844D+00
 Coeff-En:   0.000D+00 0.000D+00 0.000D+00 0.100D+01
 Coeff:     -0.184D-02-0.232D-02 0.159D+00 0.845D+00
 Gap=     0.462 Goal=   None    Shift=    0.000
 RMSDP=2.22D-05 MaxDP=3.55D-04 DE=-7.70D-05 OVMax= 5.38D-04

 Cycle   5  Pass 0  IDiag  1:
 E= -76.4216449288538     Delta-E=       -0.000002009256 Rises=F Damp=F
 DIIS: error= 8.80D-05 at cycle   5 NSaved=   5.
 NSaved= 5 IEnMin= 5 EnMin= -76.4216449288538     IErMin= 5 ErrMin= 8.80D-05
 ErrMax= 8.80D-05  0.00D+00 EMaxC= 1.00D-01 BMatC= 8.16D-08 BMatP= 3.23D-06
 IDIUse=1 WtCom= 1.00D+00 WtEn= 0.00D+00
 Coeff-Com:  0.118D-02-0.180D-02-0.369D-01-0.606D-01 0.110D+01
 Coeff:      0.118D-02-0.180D-02-0.369D-01-0.606D-01 0.110D+01
 Gap=     0.462 Goal=   None    Shift=    0.000
 RMSDP=8.96D-06 MaxDP=1.01D-04 DE=-2.01D-06 OVMax= 2.02D-04

 Initial convergence to 1.0D-05 achieved.  Increase integral accuracy.
 Cycle   6  Pass 1  IDiag  1:
 E= -76.4216282878924     Delta-E=        0.000016640961 Rises=F Damp=F
 DIIS: error= 1.65D-05 at cycle   1 NSaved=   1.
 NSaved= 1 IEnMin= 1 EnMin= -76.4216282878924     IErMin= 1 ErrMin= 1.65D-05
 ErrMax= 1.65D-05  0.00D+00 EMaxC= 1.00D-01 BMatC= 1.43D-08 BMatP= 1.43D-08
 IDIUse=1 WtCom= 1.00D+00 WtEn= 0.00D+00
 Coeff-Com:  0.100D+01
 Coeff:      0.100D+01
 Gap=     0.462 Goal=   None    Shift=    0.000
 RMSDP=8.96D-06 MaxDP=1.01D-04 DE= 1.66D-05 OVMax= 4.75D-05

 Cycle   7  Pass 1  IDiag  1:
 E= -76.4216282991770     Delta-E=       -0.000000011285 Rises=F Damp=F
 DIIS: error= 1.12D-05 at cycle   2 NSaved=   2.
 NSaved= 2 IEnMin= 2 EnMin= -76.4216282991770     IErMin= 2 ErrMin= 1.12D-05
 ErrMax= 1.12D-05  0.00D+00 EMaxC= 1.00D-01 BMatC= 1.93D-09 BMatP= 1.43D-08
 IDIUse=1 WtCom= 1.00D+00 WtEn= 0.00D+00
 Coeff-Com:  0.116D+00 0.884D+00
 Coeff:      0.116D+00 0.884D+00
 Gap=     0.462 Goal=   None    Shift=    0.000
 RMSDP=9.06D-07 MaxDP=1.41D-05 DE=-1.13D-08 OVMax= 2.36D-05

 Cycle   8  Pass 1  IDiag  1:
 E= -76.4216282996403     Delta-E=       -0.000000000463 Rises=F Damp=F
 DIIS: error= 7.73D-06 at cycle   3 NSaved=   3.
 NSaved= 3 IEnMin= 3 EnMin= -76.4216282996403     IErMin= 3 ErrMin= 7.73D-06
 ErrMax= 7.73D-06  0.00D+00 EMaxC= 1.00D-01 BMatC= 1.56D-09 BMatP= 1.93D-09
 IDIUse=1 WtCom= 1.00D+00 WtEn= 0.00D+00
 Coeff-Com: -0.447D-01 0.486D+00 0.559D+00
 Coeff:     -0.447D-01 0.486D+00 0.559D+00
 Gap=     0.462 Goal=   None    Shift=    0.000
 RMSDP=4.36D-07 MaxDP=6.03D-06 DE=-4.63D-10 OVMax= 1.03D-05

 Cycle   9  Pass 1  IDiag  1:
 E= -76.4216283006702     Delta-E=       -0.000000001030 Rises=F Damp=F
 DIIS: error= 5.05D-07 at cycle   4 NSaved=   4.
 NSaved= 4 IEnMin= 4 EnMin= -76.4216283006702     IErMin= 4 ErrMin= 5.05D-07
 ErrMax= 5.05D-07  0.00D+00 EMaxC= 1.00D-01 BMatC= 3.49D-12 BMatP= 1.56D-09
 IDIUse=1 WtCom= 1.00D+00 WtEn= 0.00D+00
 Coeff-Com: -0.364D-02-0.118D-01-0.540D-02 0.102D+01
 Coeff:     -0.364D-02-0.118D-01-0.540D-02 0.102D+01
 Gap=     0.462 Goal=   None    Shift=    0.000
 RMSDP=7.21D-08 MaxDP=6.59D-07 DE=-1.03D-09 OVMax= 1.46D-06

 Cycle  10  Pass 1  IDiag  1:
 E= -76.4216283006775     Delta-E=       -0.000000000007 Rises=F Damp=F
 DIIS: error= 9.83D-08 at cycle   5 NSaved=   5.
 NSaved= 5 IEnMin= 5 EnMin= -76.4216283006775     IErMin= 5 ErrMin= 9.83D-08
 ErrMax= 9.83D-08  0.00D+00 EMaxC= 1.00D-01 BMatC= 2.44D-13 BMatP= 3.49D-12
 IDIUse=1 WtCom= 1.00D+00 WtEn= 0.00D+00
 Coeff-Com:  0.250D-02-0.309D-01-0.334D-01 0.337D-01 0.103D+01
 Coeff:      0.250D-02-0.309D-01-0.334D-01 0.337D-01 0.103D+01
 Gap=     0.462 Goal=   None    Shift=    0.000
 RMSDP=2.25D-08 MaxDP=1.77D-07 DE=-7.29D-12 OVMax= 4.92D-07

 Cycle  11  Pass 1  IDiag  1:
 E= -76.4216283006781     Delta-E=       -0.000000000001 Rises=F Damp=F
 DIIS: error= 2.33D-08 at cycle   6 NSaved=   6.
 NSaved= 6 IEnMin= 6 EnMin= -76.4216283006781     IErMin= 6 ErrMin= 2.33D-08
 ErrMax= 2.33D-08  0.00D+00 EMaxC= 1.00D-01 BMatC= 6.46D-15 BMatP= 2.44D-13
 IDIUse=1 WtCom= 1.00D+00 WtEn= 0.00D+00
 Coeff-Com:  0.103D-04 0.126D-02 0.258D-02-0.323D-01-0.233D-01 0.105D+01
 Coeff:      0.103D-04 0.126D-02 0.258D-02-0.323D-01-0.233D-01 0.105D+01
 Gap=     0.462 Goal=   None    Shift=    0.000
 RMSDP=2.73D-09 MaxDP=2.03D-08 DE=-5.68D-13 OVMax= 5.91D-08

 SCF Done:  E(RM062X) =  -76.4216283007     A.U. after   11 cycles
            NFock= 11  Conv=0.27D-08     -V/T= 2.0030
 KE= 7.619405820379D+01 PE=-1.990366676577D+02 EE= 3.732613380180D+01
 Leave Link  502 at Fri May 13 11:22:24 2022, MaxMem=  5242880000 cpu:               6.6 elap:               0.4
 (Enter /data0/hywu0/study/g16/l601.exe)
 Copying SCF densities to generalized density rwf, IOpCl= 0 IROHF=0.

 **********************************************************************

            Population analysis using the SCF density.

 **********************************************************************

 Alpha  occ. eigenvalues --  -19.62703  -1.13419  -0.60344  -0.47848  -0.40019
 Alpha virt. eigenvalues --    0.06204   0.13315   0.17429   0.17938   0.18888
 Alpha virt. eigenvalues --    0.23462   0.50785   0.53554   0.98186   1.00267
 Alpha virt. eigenvalues --    1.05992   1.16983   1.20315   1.31702   1.34013
 Alpha virt. eigenvalues --    1.70965   1.74402   1.75173   2.07121   2.09969
 Alpha virt. eigenvalues --    2.36138   2.39201   2.55198   2.87572   3.01519
 Alpha virt. eigenvalues --    5.05610   5.49408   5.90299   6.78587   6.79918
 Alpha virt. eigenvalues --    6.87304   6.91852   7.09368  49.95517
          Condensed to atoms (all electrons):
              43         44         45
    43  O    7.918459   0.314847   0.317455
    44  H    0.314847   0.432146  -0.023526
    45  H    0.317455  -0.023526   0.431842
 Mulliken charges:
               1
     1  C    0.000000
     2  C    0.000000
     3  C    0.000000
     4  N    0.000000
     5  H    0.000000
     6  H    0.000000
     7  H    0.000000
     8  C    0.000000
     9  H    0.000000
    10  H    0.000000
    11  H    0.000000
    12  N    0.000000
    13  C    0.000000
    14  H    0.000000
    15  H    0.000000
    16  C    0.000000
    17  H    0.000000
    18  H    0.000000
    19  C    0.000000
    20  H    0.000000
    21  H    0.000000
    22  S    0.000000
    23  O    0.000000
    24  O    0.000000
    25  O    0.000000
    26  P    0.000000
    27  O    0.000000
    28  O    0.000000
    29  H    0.000000
    30  O    0.000000
    31  H    0.000000
    32  O    0.000000
    33  H    0.000000
    34  O    0.000000
    35  H    0.000000
    36  H    0.000000
    37  O    0.000000
    38  H    0.000000
    39  H    0.000000
    40  O    0.000000
    41  H    0.000000
    42  H    0.000000
    43  O   -0.550762
    44  H    0.276533
    45  H    0.274229
 Sum of Mulliken charges =   0.00000
 Mulliken charges with hydrogens summed into heavy atoms:
               1
     1  C    0.000000
     2  C    0.000000
     3  C    0.000000
     4  N    0.000000
     8  C    0.000000
    12  N    0.000000
    13  C    0.000000
    16  C    0.000000
    19  C    0.000000
    22  S    0.000000
    23  O    0.000000
    24  O    0.000000
    25  O    0.000000
    26  P    0.000000
    27  O    0.000000
    28  O    0.000000
    30  O    0.000000
    32  O    0.000000
    34  O    0.000000
    37  O    0.000000
    40  O    0.000000
    43  O    0.000000
         Mulliken charges condensed to fragments:
      1      0.000000
      2      0.000000
      3      0.000000
      4      0.000000
      5      0.000000
      6      0.000000
 Electronic spatial extent (au):  <R**2>=          13557.5275
 Charge=              0.0000 electrons
 Dipole moment (field-independent basis, Debye):
    X=             -1.4895    Y=             -0.7897    Z=             -1.3294  Tot=              2.1470
 Quadrupole moment (field-independent basis, Debye-Ang):
   XX=            -46.3831   YY=            -21.0247   ZZ=            -33.0551
   XY=            -26.6694   XZ=            -32.0170   YZ=            -20.4055
 Traceless Quadrupole moment (field-independent basis, Debye-Ang):
   XX=            -12.8955   YY=             12.4629   ZZ=              0.4326
   XY=            -26.6694   XZ=            -32.0170   YZ=            -20.4055
 Octapole moment (field-independent basis, Debye-Ang**2):
  XXX=          -1066.0046  YYY=           -394.9269  ZZZ=           -588.2859  XYY=           -455.5814
  XXY=           -637.4609  XXZ=           -682.6471  XZZ=           -579.4641  YZZ=           -394.3897
  YYZ=           -326.8678  XYZ=           -426.7971
 Hexadecapole moment (field-independent basis, Debye-Ang**3):
 XXXX=         -21510.8341 YYYY=          -6347.8519 ZZZZ=          -9025.4209 XXXY=         -13198.0463
 XXXZ=         -13431.0408 YYYX=          -7171.2935 YYYZ=          -5024.1801 ZZZX=          -9206.6202
 ZZZY=          -6453.9800 XXYY=          -9081.1142 XXZZ=         -10216.7403 YYZZ=          -5095.4819
 XXYZ=          -8406.1942 YYXZ=          -6037.4557 ZZXY=          -6757.8312
 N-N= 9.094847351403D+00 E-N=-1.990366680267D+02  KE= 7.619405820379D+01
 No NMR shielding tensors so no spin-rotation constants.
 Leave Link  601 at Fri May 13 11:22:24 2022, MaxMem=  5242880000 cpu:               1.0 elap:               0.1
 (Enter /data0/hywu0/study/g16/l122.exe)
 CPIOFr:  IOpCl= 0 IRwI=-1 IRwCP=  731 ICalc= 12 LCPTot=      856928 Len1MO=     2253616 IndFrg=    30153936
 Restoring MOs from calculation   1 to rwf.
 CPIOFr:  IOpCl= 0 IRwI=-2 IRwCP=  731 ICalc=  0 LCPTot=      856928 Len1MO=     2253616 IndFrg=     3110544
 Counterpoise corrected energy =   -1957.182856952795
                   BSSE energy =       0.010686486662
              sum of fragments =   -1957.042310504452
           complexation energy =     -94.90 kcal/mole (raw)
           complexation energy =     -88.19 kcal/mole (corrected)
 Leave Link  122 at Fri May 13 11:22:24 2022, MaxMem=  5242880000 cpu:               0.5 elap:               0.0
 (Enter /data0/hywu0/study/g16/l9999.exe)
 1\1\GINC-LOCALHOST\SP\RM062X\6-311+G(2d,p)\C7H23N2O11P1S1\HYWU0\13-May
 -2022\0\\#p M062X/6-311+G(2d,p) nosymm em=GD3 counterpoise=6\\Title Ca
 rd Required\\0,1\C,0,11.504582,8.185756,11.447825\C,0,12.027899,9.4005
 97,11.874956\C,0,9.780929,9.548446,11.937849\N,0,10.115739,8.2967,11.5
 00731\H,0,12.011673,7.305043,11.081049\H,0,13.058507,9.720755,11.94032
 8\H,0,8.767425,9.939079,12.047636\C,0,9.157428,7.284959,11.095159\H,0,
 8.546333,6.947727,11.949153\H,0,8.467065,7.688388,10.313363\H,0,9.6677
 32,6.407565,10.645318\N,0,10.947301,10.233203,12.173248\C,0,11.029566,
 11.641112,12.568779\H,0,11.56053,11.694754,13.548361\H,0,9.993573,12.0
 32309,12.732083\C,0,11.763203,12.511803,11.525831\H,0,12.324244,13.303
 999,12.065561\H,0,12.553972,11.91527,11.010169\C,0,10.843272,13.166937
 ,10.500202\H,0,11.42856,13.83908,9.842245\H,0,10.095537,13.81555,10.99
 1128\S,0,9.989182,11.955293,9.482733\O,0,9.331997,12.625944,8.359235\O
 ,0,11.046444,10.992837,9.058324\O,0,9.027365,11.329214,10.446755\P,0,1
 1.174194,7.660262,7.66062\O,0,12.302876,7.446034,8.563892\O,0,9.819388
 ,7.186369,8.330582\H,0,8.984782,7.694048,7.95478\O,0,10.90406,9.121916
 ,7.104246\H,0,11.049016,9.834924,7.876095\O,0,11.334468,6.814265,6.323
 275\H,0,10.6251,7.130313,5.648192\O,0,7.524933,8.551909,7.703229\H,0,7
 .744129,9.344953,7.175664\H,0,7.280006,8.898657,8.573351\O,0,6.993039,
 9.640335,10.260344\H,0,7.743181,10.296349,10.283504\H,0,6.209901,10.17
 6181,10.196157\O,0,8.455091,10.82619,6.346999\H,0,8.615697,11.593072,6
 .933316\H,0,9.314774,10.399224,6.304321\O,0,13.603788,10.035001,9.8117
 85\H,0,12.774431,10.445713,9.500946\H,0,13.587104,9.181984,9.370699\\V
 ersion=ES64L-G16RevA.03\HF=-76.4216283\RMSD=2.729e-09\Dipole=-0.465431
 4,1.2591003,3.5606043\Quadrupole=-80.9510918,-3.7091561,84.6602479,21.
 9191465,59.4526403,94.4356214\PG=C01 [X(C7H23N2O11P1S1)]\\@


 ACCORDING TO HEN3RY, LIFE IS MUCH LIKE A SEWER........
 YOU GET OUT OF IT JUST WHAT YOU PUT INTO IT...........
                         TOM LEHRER - (THE 3 IS SILENT)
 Job cpu time:       0 days  9 hours 37 minutes  6.1 seconds.
 Elapsed time:       0 days  0 hours 36 minutes 14.6 seconds.
 File lengths (MBytes):  RWF=    579 Int=      0 D2E=      0 Chk=    261 Scr=      1
 Normal termination of Gaussian 16 at Fri May 13 11:22:24 2022.
