          39
 Energy =    -1277.95179330 a.u.  Frame:     1 Step:     1 Geom:     1
C           6.98998900      8.51850500      9.27731800
H           6.73838600      7.79124600      8.49191600
H           6.14907400      8.58903000      9.98035600
H           7.08667900      9.51746500      8.76560600
C           8.14559200      6.82925500     10.65877700
H           9.13621600      6.46690200     11.03724000
H           7.46103300      6.87856200     11.51795900
H           7.77860200      6.05465900      9.96771200
C           9.38728600      8.09442300      8.94232800
H          10.39034500      7.99571900      9.41768300
H           9.24597300      7.26245100      8.24254800
H           9.42528000      9.04396100      8.35073700
C           8.58955300      9.26801200     11.00005000
H           7.71265200      9.39701800     11.66732200
H           8.67165400     10.23825400     10.42338200
C           9.85562700      8.99896600     11.82144300
H          10.55270000      8.32280400     11.26344300
H           9.60314300      8.45766700     12.75378400
C          10.60237900     10.28721400     12.16382900
H          11.53786500     10.05853500     12.71148600
H          10.00665400     10.92993500     12.84463400
N           8.28805700      8.16887000      9.97508200
C          10.93665200     11.08429100     10.90626000
O          10.53695500     12.25992500     10.83659000
O          11.57196600     10.49054500      9.97124800
P           9.46802900     11.86158100      7.82234500
O           8.51120900     10.87979500      8.40545500
O          10.95044900     11.25005400      7.57801200
H          11.50507800     11.00966600      8.46594700
O           9.02199000     12.37636700      6.33311100
H           9.56047100     13.12627400      5.95535800
O           9.70701800     13.26108400      8.59469500
H          10.14480600     13.19222600      9.56490200
O          12.45529700      8.01295500     10.03428000
H          12.09959800      8.96364400     10.15284000
H          13.26795500      8.12117800      9.55219100
O          11.12297100      6.20107100     10.88842400
H          11.46387000      6.28946100      9.98353000
H          11.79096100      6.65044300     11.43019600
          39
 Energy =    -1277.95114420 a.u.  Frame:     2 Step:     2 Geom:     2
C           6.99889900      8.49145400      9.22692300
H           6.70419600      7.75016700      8.46952000
H           6.17688000      8.61217100      9.94551300
H           7.12466000      9.46902400      8.68390000
C           8.14165300      6.79969000     10.62943400
H           9.13678200      6.41437600     10.96343000
H           7.50001000      6.89456400     11.51762100
H           7.71371200      6.02443800      9.97430500
C           9.36658700      7.97668800      8.84682900
H          10.38823100      7.97208000      9.29633200
H           9.24947500      7.06192500      8.25297200
H           9.34296500      8.85474900      8.14892300
C           8.65135700      9.23475600     10.89364500
H           7.78593600      9.41532500     11.56526500
H           8.76326300     10.18557500     10.29063200
C           9.91430200      8.95565000     11.71512200
H          10.68754600      8.44392800     11.08634000
H           9.69960300      8.25678600     12.54593600
C          10.51314700     10.24797200     12.27418000
H          11.42044900     10.02670600     12.86941000
H           9.80997900     10.75763500     12.96310900
N           8.30092300      8.11722400      9.90589900
C          10.86745400     11.18847600     11.12810000
O          10.13444500     12.20103400     10.97728900
O          11.81973800     10.87778800     10.35887000
P           9.79442700     11.69057600      7.81318800
O           8.73669100     10.71240800      8.19094600
O          11.28831100     11.02133500      7.89662500
H          11.83563500     11.26040500      8.77562600
O           9.66984100     12.16762300      6.25059400
H          10.25204200     12.92908100      5.98002300
O           9.93622300     13.07057800      8.60860000
H          10.09259300     12.98600800      9.71799500
O          12.36718800      8.59219500      9.51956700
H          12.51278000      9.26292600     10.24083400
H          12.14396000      9.13832100      8.74621700
O          11.22055400      6.33719700     10.59243000
H          11.66393600      7.02877400     10.03469000
H          11.92364400      5.82241000     10.97318200
          39
 Energy =    -1277.97748040 a.u.  Frame:     3 Step:     3 Geom:     3
C           7.34246700      8.16320600      8.85193600
H           7.35794000      7.45226200      8.01090700
H           6.41930500      8.01232100      9.42892300
H           7.29976800      9.18580500      8.40681700
C           8.53034800      6.65233700     10.35373200
H           9.46715600      6.45878800     10.92518900
H           7.68149800      6.55591800     11.04470900
H           8.47061300      5.85378300      9.59669600
C           9.78725000      8.13224900      8.84650200
H          10.64981200      8.55688500      9.41016400
H          10.10459800      7.15977100      8.44139400
H           9.61814500      8.82892400      8.00072500
C           8.53817400      9.09094800     10.78410200
H           7.54247300      9.08760400     11.27287400
H           8.62225700     10.08425800     10.26326900
C           9.64925100      8.93065900     11.83181500
H          10.49546000      8.32463000     11.43481400
H           9.27827800      8.37205100     12.71085800
C          10.19691800     10.28791900     12.27137500
H          11.07241900     10.16010200     12.93500100
H           9.44932700     10.86092200     12.84954400
N           8.56655200      8.00903500      9.71364800
C          10.63175000     11.10306700     11.04666700
O          10.21587300     12.25728400     10.94270900
O          11.34536800     10.50343800     10.19503400
P           9.42830800     11.90539100      7.59526700
O           8.28292300     11.04773700      7.92136000
O          10.82151600     11.13608700      7.59750000
H          11.11355400     10.96125900      8.60220700
O           9.30742100     12.43986800      6.09870100
H          10.13453000     13.03396700      5.92113700
O           9.62538400     13.21948600      8.45053700
H           9.87357500     12.92488700      9.44898800
O          12.88894800      8.48398400     10.77943600
H          12.30141500      9.29259300     10.62575200
H          13.68080400      8.67882000     10.29321700
O          11.46259000      6.22653600     10.28943300
H          12.00098300      7.03733800     10.44627800
H          12.04506600      5.50789200     10.51080400
          39
 Energy =    -1277.97888830 a.u.  Frame:     4 Step:     4 Geom:     4
C           7.00269300      8.56209600      9.34231500
H           6.80029500      7.83263100      8.54233300
H           6.16545300      8.55103900     10.05439600
H           7.02385500      9.56877100      8.86091600
C           8.19872500      6.95554000     10.73646800
H           9.18307400      6.64833300     11.15913900
H           7.47311900      7.00630500     11.56021800
H           7.90211100      6.14952500     10.04622900
C           9.39176800      8.19082900      8.98007300
H          10.38195200      8.48594200      9.39004300
H           9.49645500      7.17283200      8.57490300
H           9.19854200      8.88774700      8.13876200
C           8.58991400      9.38421200     11.02296200
H           7.68628600      9.54170000     11.64702300
H           8.72875800     10.33638100     10.44035900
C           9.81031100      9.10540300     11.91122200
H          10.52285500      8.41067000     11.41171900
H           9.50665800      8.59160400     12.84206700
C          10.55529000     10.39604500     12.25071800
H          11.49665700     10.17432300     12.78697300
H           9.96070100     11.04562300     12.91853300
N           8.31282800      8.27070400     10.02289000
C          10.89481900     11.15722000     10.96257100
O          10.50732500     12.32343000     10.86434000
O          11.49638800     10.51028200     10.06351500
P           9.38806900     11.94466600      7.62403500
O           8.20685700     11.21215000      8.09623300
O          10.69122200     11.03783200      7.51114600
H          11.09335200     10.89493400      8.48130600
O           9.15999600     12.44673400      6.12866700
H          10.01552600     12.95290100      5.84509300
O           9.79975300     13.25377400      8.40560600
H          10.10648300     12.96457200      9.39260700
O          12.76641500      8.26321900     10.41781400
H          12.29099500      9.15542700     10.35658000
H          13.49315300      8.34888800      9.81339200
O          11.03783700      6.16819600     10.26654800
H          11.68160600      6.91381000     10.29908100
H          11.56192300      5.39373000     10.44122900
          39
 Energy =    -1277.97877320 a.u.  Frame:     5 Step:     5 Geom:     5
C           7.17102300      8.25426300      9.05873300
H           7.11550700      7.55432700      8.20981300
H           6.29096400      8.10669900      9.70026800
H           7.10959600      9.28277900      8.62991300
C           8.42023200      6.73634500     10.50650500
H           9.40128000      6.51390400     10.98646000
H           7.64306000      6.69745200     11.28247300
H           8.24518100      5.92395700      9.78303000
C           9.60752500      8.12703200      8.86657800
H          10.51861000      8.55089300      9.34218800
H           9.86995600      7.12973100      8.48270700
H           9.38825700      8.79092600      8.00261700
C           8.54353500      9.18397400     10.86402700
H           7.58823500      9.23302600     11.42580100
H           8.62260300     10.15828300     10.30689600
C           9.72265300      9.00900100     11.83092300
H          10.54020400      8.41303300     11.36599400
H           9.41425200      8.43384300     12.72346100
C          10.29590100     10.36023800     12.25705100
H          11.22508300     10.22398600     12.84076900
H           9.59483000     10.91291000     12.90821600
N           8.45281700      8.07383000      9.82696500
C          10.61547800     11.20168600     11.01410000
O          10.05310400     12.29297500     10.90015600
O          11.38491900     10.68330700     10.16158200
P           9.39834400     11.86572800      7.53404500
O           8.41966100     10.80426100      7.80768900
O          10.91114900     11.38359000      7.56888700
H          11.16966300     11.16731400      8.57865500
O           9.21202900     12.40626700      6.04604100
H           9.91790800     13.14825100      5.90360500
O           9.30726700     13.16917900      8.42395000
H           9.61444300     12.90887100      9.41571400
O          12.84521000      8.55556100     10.52334100
H          12.28587100      9.39744400     10.46276200
H          13.58473200      8.73124400      9.95474900
O          11.37787700      6.27878800     10.26094300
H          11.92659800      7.09423700     10.33253600
H          11.97445800      5.57087900     10.47986900
          39
 Energy =    -1277.97798520 a.u.  Frame:     6 Step:     6 Geom:     6
C           7.21045600      8.13749800      9.03331700
H           7.17938800      7.42328500      8.19461900
H           6.34273900      7.95582000      9.68406900
H           7.09751900      9.15425500      8.59565700
C           8.54353000      6.67817100     10.45841900
H           9.53135300      6.50356100     10.94444700
H           7.76330500      6.58649700     11.22670600
H           8.42488000      5.86447400      9.72476100
C           9.64761200      8.14818700      8.82599900
H          10.56335700      8.53834700      9.32234900
H           9.91064400      7.18043500      8.37262400
H           9.41685100      8.86997400      8.01527900
C           8.55037700      9.12998700     10.83655000
H           7.58206200      9.15994400     11.37670500
H           8.62934200     10.10937800     10.28751500
C           9.71015500      8.96825400     11.82926500
H          10.55325200      8.39927000     11.37489200
H           9.39419800      8.37421500     12.70661100
C          10.23890000     10.32716400     12.28549300
H          11.13268100     10.20467200     12.92505100
H           9.49363200     10.87270300     12.89216300
N           8.50461700      8.02238500      9.79321300
C          10.62672600     11.17219200     11.06470100
O          10.13570500     12.29767700     10.96343900
O          11.37985200     10.62460400     10.21495700
P           9.44110700     11.96374300      7.59436000
O           8.28166300     11.11766200      7.89529100
O          10.82424300     11.17573800      7.60775300
H          11.12549300     11.03222400      8.61309900
O           9.34987400     12.51267900      6.10037200
H          10.18574800     13.09866800      5.94034700
O           9.64461800     13.26880100      8.46191800
H           9.85367800     12.96558300      9.46820500
O          12.88323200      8.53512300     10.59678600
H          12.30482400      9.36410700     10.53069400
H          13.64137300      8.74363400     10.06452100
O          11.44899500      6.28204300     10.13153200
H          11.98981700      7.09382700     10.27916100
H          12.05221700      5.56323600     10.28717400
          39
 Energy =    -1277.97901460 a.u.  Frame:     7 Step:     7 Geom:     7
C           7.15405700      8.32993200      8.96338600
H           7.10777100      7.60024800      8.13968100
H           6.23798600      8.24770800      9.56513400
H           7.15801100      9.34270000      8.49429800
C           8.28380200      6.78999800     10.47806100
H           9.19047900      6.57826000     11.08198600
H           7.41282000      6.74820700     11.14824900
H           8.20736600      5.97267200      9.74185300
C           9.59180300      8.15210000      8.90088500
H          10.49664000      8.51809400      9.43372900
H           9.83046800      7.15468200      8.50119600
H           9.44917500      8.84920100      8.04938700
C           8.45223300      9.23299500     10.84158100
H           7.47519300      9.29564500     11.36302800
H           8.56884100     10.20791000     10.29201900
C           9.58877100      9.03943200     11.85548600
H          10.41366100      8.42516400     11.42615200
H           9.23359800      8.47644200     12.73831800
C          10.16961700     10.38240300     12.29764100
H          11.06338400     10.23148300     12.93142100
H           9.44839500     10.95794200     12.90558800
N           8.38822000      8.12534300      9.79986300
C          10.57663800     11.20411800     11.06734000
O          10.09350000     12.33112300     10.94130600
O          11.33349800     10.63630600     10.23444200
P           9.41240400     11.93161000      7.58198100
O           8.25905100     11.08114500      7.90058400
O          10.80089500     11.15505900      7.61248500
H          11.09327500     11.01922500      8.62277600
O           9.31307900     12.44781600      6.07730900
H          10.14478500     13.03650100      5.90342100
O           9.60056100     13.25348400      8.42573100
H           9.81583900     12.96873300      9.43766900
O          12.79428000      8.54575700     10.76965600
H          12.22927300      9.37367700     10.63060400
H          13.59965300      8.73891900     10.30544300
O          11.40168300      6.27896000     10.20545500
H          11.92203300      7.09335800     10.39092000
H          12.00727700      5.56566400     10.37395100
          39
 Energy =    -1277.97813910 a.u.  Frame:     8 Step:     8 Geom:     8
C           6.95279600      8.44576900      9.49809900
H           6.74402700      7.73637300      8.68072800
H           6.16433800      8.35066100     10.25859000
H           6.88267200      9.46802000      9.06345600
C           8.30266300      6.88816000     10.80078600
H           9.32533800      6.61502500     11.15070100
H           7.63744000      6.91185500     11.67508800
H           7.98702400      6.07267100     10.13026600
C           9.32890000      8.17346500      8.97365000
H          10.32745000      8.52449900      9.31631000
H           9.45926900      7.16007300      8.56535800
H           9.04306800      8.85602400      8.14382800
C           8.62091600      9.33412400     11.06203600
H           7.74711100      9.48218300     11.72885000
H           8.71756600     10.28137600     10.46124600
C           9.88763800      9.08171700     11.89161000
H          10.60048300      8.42132900     11.34707200
H           9.64316200      8.54245100     12.82528900
C          10.60247500     10.39148600     12.22034200
H          11.57223200     10.19488200     12.71381200
H          10.01517400     11.01289800     12.92004700
N           8.31828700      8.20671500     10.08533000
C          10.86055300     11.17567100     10.92636500
O          10.38458900     12.30909000     10.83779600
O          11.49019400     10.57281100     10.01679700
P           9.41913200     11.90940500      7.53797000
O           8.36266000     10.95875900      7.90655800
O          10.87571600     11.28081600      7.46050800
H          11.19319500     11.05266000      8.45014000
O           9.17128200     12.45374600      6.05980000
H           9.93429800     13.11867100      5.85014300
O           9.53244800     13.22600800      8.40739400
H           9.88874400     12.94765800      9.37609300
O          12.79428000      8.33126000     10.24036200
H          12.30420300      9.21741300     10.23600200
H          13.47165300      8.44328100      9.58436200
O          11.11948400      6.19828300     10.14572000
H          11.74060600      6.96410800     10.15523000
H          11.67694900      5.43862200     10.27629200
          39
 Energy =    -1277.97364840 a.u.  Frame:     9 Step:     9 Geom:     9
C           6.63593400      8.36422000     10.20911900
H           6.37865400      7.82772200      9.27914500
H           5.99691200      7.98124100     11.01860800
H           6.39070600      9.43443800     10.05295100
C           8.38507900      6.74683200     10.74473800
H           9.42944700      6.59546200     11.10301600
H           7.70480700      6.30142300     11.48201000
H           8.32208300      6.18106500      9.79800000
C           8.88743700      8.73246100      9.36763500
H           9.94468000      8.92614500      9.64134800
H           8.90088500      8.03465000      8.51579000
H           8.47910400      9.70820400      9.02811800
C           8.39490700      8.98901900     11.79832000
H           7.72156700      8.63452600     12.60263300
H           8.12876700     10.06947900     11.59399700
C           9.86135200      8.90746200     12.25056600
H          10.48885200      8.32914500     11.53384900
H           9.93468600      8.35203500     13.20503000
C          10.47042200     10.30055500     12.41636700
H          11.50659800     10.23256400     12.79824100
H           9.90870600     10.91251000     13.14161900
N           8.09881200      8.20183000     10.53125300
C          10.47239300     11.00857400     11.05211100
O           9.36581700     11.39660700     10.62976900
O          11.55920200     11.08752200     10.45135900
P          10.37151800     11.59543600      7.25646300
O          10.50105700     10.14525900      7.06999100
O          11.57351200     12.31691300      7.99893100
H          11.63314800     11.91175500      8.98379200
O          10.27439300     12.34671800      5.85663100
H          10.17040500     13.35512900      6.06156600
O           9.04989100     12.04802400      8.01547900
H           9.18853600     11.89707400      9.06017300
O          12.35057200      8.78623200      9.10987600
H          12.23697300      9.57070700      9.69021700
H          12.02786900      9.10935700      8.25518800
O          10.93537300      6.58139400      9.68125300
H          11.45920200      7.39938100      9.48188000
H          11.52976200      5.87094500      9.46298700
          39
 Energy =    -1277.97541550 a.u.  Frame:    10 Step:    10 Geom:    10
C           7.24116800      8.43645100      8.91583800
H           7.19215700      7.76394200      8.04508600
H           6.29871900      8.36432900      9.47601800
H           7.31482300      9.47516000      8.50891000
C           8.23124100      6.76218000     10.39306400
H           9.09621200      6.48665500     11.03936600
H           7.32494500      6.72308300     11.01393900
H           8.16263000      5.98498000      9.61471900
C           9.67855000      8.12048800      8.95047300
H          10.34880000      7.27956500      9.19190500
H           9.45605000      8.09444900      7.86923700
H          10.27630700      9.04724600      9.10958700
C           8.48555000      9.17582800     10.88274000
H           7.52436800      9.17093500     11.43670700
H           8.54405900     10.17965300     10.37778500
C           9.66025000      8.98362000     11.84954800
H          10.47281400      8.38676400     11.38364300
H           9.34681600      8.39650400     12.73327600
C          10.24271400     10.32448000     12.29632200
H          11.16323200     10.17252400     12.88858600
H           9.53888200     10.87620900     12.94533800
N           8.42776100      8.12058200      9.78654300
C          10.58167500     11.17831800     11.06568300
O           9.90795800     12.19723700     10.88120100
O          11.48134800     10.75125200     10.29915900
P           9.69871700     11.74185800      7.45531200
O           8.88972500     10.52217200      7.58388400
O          11.25508100     11.53958400      7.69124700
H          11.40961800     11.29833600      8.71806900
O           9.61135100     12.30033700      5.96513000
H          10.19841700     13.15099600      5.92681500
O           9.25626900     12.97211200      8.34752800
H           9.52640400     12.75807400      9.35952900
O          12.53414500      8.34150800     10.14918200
H          12.14599900      9.25925500     10.28562900
H          13.33157700      8.48777900      9.65939700
O          11.22230800      6.05954500     11.11564400
H          11.73515700      6.82439100     10.79120400
H          11.85622000      5.51163500     11.56677900
          39
 Energy =    -1277.97803760 a.u.  Frame:    11 Step:    11 Geom:    11
C           6.82873800      8.67009300      9.44586700
H           6.58232300      7.98610400      8.61727600
H           6.02140700      8.62883600     10.19118600
H           6.84239700      9.69868200      9.02079200
C           8.02723900      7.00823600     10.76378300
H           8.99979500      6.68334800     11.18885600
H           7.30224200      7.06962300     11.58859900
H           7.71295200      6.21080300     10.07004400
C           9.18635200      8.21774400      8.95975700
H          10.20120600      8.50450100      9.31553400
H           9.25837600      7.19617700      8.55716100
H           8.96104700      8.91383000      8.12232600
C           8.53504700      9.41868300     11.04273100
H           7.67240800      9.61561500     11.71129700
H           8.69218700     10.36372500     10.45085900
C           9.78363500      9.07677300     11.86806600
H          10.45498800      8.37993700     11.31428500
H           9.50650100      8.54320600     12.79583300
C          10.57834600     10.33594500     12.21210800
H          11.53642100     10.07273800     12.69783700
H          10.03302200     10.98231000     12.92275000
N           8.16189600      8.32379800     10.05389100
C          10.87759600     11.11859600     10.92599500
O          10.44980500     12.27138800     10.84189100
O          11.48580700     10.49369300     10.01670200
P           9.53974300     11.95511400      7.51233100
O           8.43448000     11.04563500      7.83898000
O          10.97110000     11.27007500      7.45903500
H          11.25128100     11.00710500      8.45174200
O           9.35075300     12.53429400      6.03843800
H          10.14657000     13.16865100      5.85815100
O           9.68357100     13.25242900      8.40665500
H          10.00901200     12.94628900      9.37714500
O          12.72001400      8.22295100     10.33559000
H          12.25218100      9.11872900     10.28049000
H          13.45715800      8.31611200      9.74421200
O          10.99330100      6.16344600      9.96481400
H          11.63055400      6.90524900     10.08065000
H          11.52856600      5.37955100     10.01636200
          39
 Energy =    -1277.97410590 a.u.  Frame:    12 Step:    12 Geom:    12
C           7.22936400      8.38695500      9.01526600
H           7.19026900      7.74862700      8.11743000
H           6.30647200      8.24289900      9.59448200
H           7.24124600      9.44095400      8.65139900
C           8.34395400      6.70117900     10.38812700
H           9.20464700      6.46719200     11.05085100
H           7.42468600      6.56690800     10.97686700
H           8.35620700      5.95416700      9.57691100
C           9.67823200      8.20047500      8.97712100
H          10.44290000      7.44798200      9.23489200
H           9.44016900      8.10343900      7.90349500
H          10.17264500      9.19303500      9.08933100
C           8.48403200      9.09850500     10.98676400
H           7.57269100      8.96410800     11.60511100
H           8.39925300     10.12461500     10.53367600
C           9.74120900      8.99538500     11.85937600
H          10.56139400      8.45909700     11.33476300
H           9.54061500      8.38722300     12.76177400
C          10.25199500     10.37744100     12.26857600
H          11.21996400     10.29452200     12.79599900
H           9.55573300     10.87712300     12.96578400
N           8.45321200      8.09472600      9.84217900
C          10.44089500     11.25107100     11.01946000
O           9.63133500     12.16727300     10.83981900
O          11.36919600     10.93710600     10.23413600
P           9.57095100     11.81317500      7.35156900
O           8.94400000     10.48717300      7.32773900
O          11.12604000     11.83255700      7.66671000
H          11.27013700     11.54757700      8.68264000
O           9.47438400     12.48799600      5.91036700
H           9.92815200     13.41427900      5.97786000
O           8.89572100     12.88320700      8.30633900
H           9.19975100     12.68511300      9.30721800
O          12.58325100      8.61941000      9.98977600
H          12.14261700      9.50419200     10.16869500
H          13.28219500      8.81824000      9.38142200
O          11.59223300      6.22478500     11.02513800
H          11.99725300      7.03736100     10.66809600
H          12.31100800      5.75294900     11.43285800
