          39
 G =       -0.564817 Gcorr = 0.237022 a.u. Nimag =   0 Frame:     1 Step:     1 Geom:     1
C           7.21481500      8.27843100      9.28810600
H           7.10730600      7.51041400      8.50603100
H           6.35825600      8.21083600      9.97361000
H           7.16032000      9.26835000      8.77559300
C           8.50520300      6.82934800     10.76809000
H           8.30718800      5.98048800     10.09406900
H           9.49887700      6.62651800     11.23018100
H           7.75074600      6.83540000     11.56707700
C           9.63895600      8.12123300      9.01316900
H          10.58313400      8.51838800      9.44499800
H           9.85070800      7.10658100      8.64292700
H           9.41144400      8.77364600      8.14518900
C           8.66099400      9.29090900     10.99205100
H           7.72571700      9.38103000     11.58195000
H           8.73172600     10.23539900     10.38525400
C           9.87045500      9.15127300     11.92681500
H          10.66080100      8.51249100     11.47162300
H           9.58341000      8.63706800     12.86273100
C          10.48123300     10.51440000     12.25042600
H          11.41987100     10.39600800     12.82300900
H           9.80669600     11.12400500     12.87874500
N           8.52209200      8.12918900     10.01842100
C          10.79383000     11.26818500     10.95114700
O          10.30523200     12.39051200     10.80522100
O          11.48241800     10.65490900     10.09172800
P           9.33611100     11.82027000      7.54409500
O           8.21201600     10.99406100      8.00082800
O          10.72080800     11.03668800      7.50075100
H          11.10048100     10.95799500      8.48714000
O           9.11458000     12.25707500      6.02740700
H           9.93085600     12.82957700      5.75456700
O           9.59716400     13.18329900      8.29781100
H           9.89611900     12.95121500      9.30206300
O          12.94173200      8.54668500     10.55388100
H          12.38638300      9.38734900     10.45112500
H          13.67646400      8.68471100      9.96888300
O          11.41934700      6.29690900     10.41289900
H          11.99057000      7.09961000     10.44238700
H          12.00595200      5.57956200     10.62802300
          39
 G =       -0.564644 Gcorr = 0.237195 a.u. Nimag =   0 Frame:     2 Step:     2 Geom:     2
C           7.33807100      8.13950400      9.18732400
H           7.29077900      7.36352800      8.40715100
H           6.46217700      8.03837800      9.84361900
H           7.25864600      9.12346300      8.66662100
C           8.63774100      6.75579500     10.72078000
H           9.62219300      6.59922500     11.21910500
H           7.85578000      6.73337000     11.49258200
H           8.50099900      5.89528000     10.04632100
C           9.77468700      8.08528300      8.99620200
H          10.68598000      8.52397600      9.45748800
H          10.04133200      7.07878300      8.63952400
H           9.54983600      8.72363700      8.11712400
C           8.68021800      9.22300100     10.93220000
H           7.72220900      9.27620600     11.48913400
H           8.73142800     10.16611700     10.32130300
C           9.86169600      9.14097500     11.90870900
H          10.69370400      8.53387300     11.48551700
H           9.56480600      8.62072900     12.83814500
C          10.40233500     10.53103500     12.24256300
H          11.32509700     10.45651100     12.84742800
H           9.68126700     11.11480900     12.84311300
N           8.62468900      8.05084300      9.96280900
C          10.72665100     11.28996300     10.94911600
O          10.19726100     12.39015500     10.77925400
O          11.46843400     10.70107800     10.11730900
P           9.36291800     11.75989600      7.49114000
O           8.25947300     10.89016000      7.91630500
O          10.77957000     11.03459900      7.50031500
H          11.12899800     10.97882400      8.49953600
O           9.17480100     12.17769100      5.96464700
H           9.97397300     12.78427800      5.71573600
O           9.54132700     13.13746400      8.24274100
H           9.81518500     12.92450800      9.25810600
O          13.00088000      8.66038100     10.64456900
H          12.41554000      9.47656400     10.51577300
H          13.75092100      8.82592400     10.08695800
O          11.58135100      6.34622400     10.46704100
H          12.11699400      7.17247100     10.51015900
H          12.19006700      5.65551400     10.70655100
          39
 G =       -0.562407 Gcorr = 0.238918 a.u. Nimag =   0 Frame:     3 Step:     4 Geom:     4
C           7.14286400      8.22688100      9.41980400
H           7.02791100      7.48920200      8.60893500
H           6.32265800      8.09148300     10.13954400
H           7.02639800      9.23331600      8.95885000
C           8.52454000      6.79173300     10.82591100
H           9.54366400      6.59678300     11.23376300
H           7.81402600      6.78504000     11.66414200
H           8.30124200      5.94414000     10.15808100
C           9.55696200      8.11240400      9.02779600
H          10.50950000      8.53634300      9.41560300
H           9.77738600      7.10355500      8.64792900
H           9.27101600      8.75983300      8.17037800
C           8.65826600      9.25832800     11.05003900
H           7.74131900      9.35683300     11.66619600
H           8.72189900     10.19897400     10.43466900
C           9.89235800      9.11032300     11.95087700
H          10.67749400      8.49148700     11.45965800
H           9.63521200      8.57248500     12.88199000
C          10.49651900     10.47270200     12.28798900
H          11.44894400     10.35340400     12.83691700
H           9.83053000     11.06446000     12.94138000
N           8.48768000      8.09495600     10.08356400
C          10.77075500     11.24888100     10.99253800
O          10.22551400     12.34551900     10.85433800
O          11.48758600     10.67365800     10.13079000
P           9.46799600     11.81948900      7.51813200
O           8.45937300     10.80626500      7.85253800
O          10.96536200     11.29000000      7.53093000
H          11.24390000     11.10310400      8.54082300
O           9.26380300     12.31794800      6.01728400
H           9.99114400     13.02874200      5.83273900
O           9.44632100     13.15693700      8.36250400
H           9.76487100     12.92133900      9.35529800
O          12.93336400      8.53775700     10.48108500
H          12.38259400      9.38601800     10.42742500
H          13.63508200      8.68299900      9.85788600
O          11.41614000      6.29516100     10.33505500
H          11.98184500      7.10282900     10.36379500
H          12.01598300      5.57870200     10.51284300
          39
 G =       -0.561851 Gcorr = 0.239264 a.u. Nimag =   0 Frame:     4 Step:     5 Geom:     5
C           7.23099800      8.40212700      9.25478100
H           7.08432900      7.70279300      8.41674000
H           6.36914100      8.33260300      9.93269900
H           7.23230800      9.42896300      8.81260500
C           8.43194300      6.79001100     10.64194400
H           9.37749700      6.54730100     11.17946600
H           7.61355400      6.75793700     11.37513200
H           8.27817100      5.98760200      9.90232200
C           9.65824900      8.12217800      8.98591300
H          10.36792900      7.29780400      9.16300600
H           9.29982900      8.06059000      7.94327500
H          10.25561500      9.06107100      9.04069400
C           8.70277300      9.22145400     11.02303000
H           7.82005400      9.22111200     11.69504600
H           8.67895800     10.20946700     10.48512300
C           9.99403300      9.07601900     11.83727800
H          10.75111000      8.47597300     11.28920200
H           9.80586800      8.51295400     12.77077400
C          10.60502500     10.43811600     12.16621300
H          11.59594800     10.31734100     12.64026400
H           9.97990200     11.00039200     12.88319300
N           8.52464100      8.13110800      9.97511700
C          10.76965600     11.25733400     10.87776700
O          10.06035800     12.26077300     10.75087000
O          11.57163900     10.81845800     10.01540900
P           9.42239900     11.69510900      7.39627400
O           8.65754300     10.46969800      7.66472500
O          10.99940400     11.52119200      7.43647600
H          11.28779500     11.31436300      8.44190300
O           9.13528500     12.20374600      5.91336800
H           9.69797200     13.06023300      5.77385600
O           9.07696900     12.94760400      8.30032100
H           9.47754500     12.76909000      9.27546700
O          12.64037500      8.41999500      9.80548100
H          12.25548200      9.33589700      9.96168700
H          13.36629600      8.56136800      9.21373900
O          11.50166300      6.15201700     10.99562600
H          11.95499900      6.91073900     10.58047200
H          12.19676600      5.63748400     11.39275500
          39
 G =       -0.561607 Gcorr = 0.239498 a.u. Nimag =   0 Frame:     5 Step:     6 Geom:     6
C           7.09107100      8.63380900      9.47400800
H           6.84140900      7.99552600      8.61184800
H           6.26834700      8.59371600     10.20076900
H           7.14502000      9.68004600      9.08180800
C           8.24069800      6.86902600     10.71048200
H           9.17701700      6.55015400     11.21637800
H           7.43572100      6.85509500     11.45987500
H           8.02036600      6.10957600      9.94198600
C           9.46690600      8.17794600      9.03700700
H          10.16092700      7.33276000      9.17774800
H           9.04000400      8.12058200      8.02042800
H          10.09520600      9.09849000      9.04523100
C           8.73028100      9.24931600     11.17715000
H           7.91878000      9.24458400     11.93360500
H           8.69562600     10.26645400     10.69774400
C          10.08874000      9.01166000     11.84812400
H          10.75460200      8.39153100     11.21005700
H           9.96711400      8.42800400     12.78009400
C          10.80156900     10.33026100     12.15124400
H          11.83010400     10.14346100     12.51001000
H          10.28717700     10.89425300     12.95016300
N           8.40063000      8.22929700     10.09628200
C          10.86800000     11.18968600     10.88031600
O          10.17179000     12.21001300     10.84877500
O          11.57983300     10.76594400      9.93551500
P           9.27664600     11.79696200      7.51632400
O           8.50401200     10.57360100      7.77135600
O          10.84867500     11.59780800      7.44079200
H          11.20026300     11.33646600      8.41365300
O           8.90002600     12.38976900      6.08562400
H           9.47203600     13.24083600      5.95105100
O           9.01501800     13.00495400      8.50616900
H           9.48874000     12.78021100      9.43644400
O          12.52573100      8.34313200      9.55876100
H          12.20513000      9.27035000      9.77812200
H          13.16278600      8.46468700      8.86860500
O          11.49025500      6.06162600     10.79754600
H          11.90431600      6.82831600     10.35922200
H          12.21943900      5.53010800     11.09970000
          39
 G =       -0.562438 Gcorr = 0.238886 a.u. Nimag =   0 Frame:     6 Step:     7 Geom:     7
C           6.95279600      8.44576900      9.49809900
H           6.74402700      7.73637300      8.68072800
H           6.16433800      8.35066100     10.25859000
H           6.88267200      9.46802000      9.06345600
C           8.30266300      6.88816000     10.80078600
H           9.32533800      6.61502500     11.15070100
H           7.63744000      6.91185500     11.67508800
H           7.98702400      6.07267100     10.13026600
C           9.32890000      8.17346500      8.97365000
H          10.32745000      8.52449900      9.31631000
H           9.45926900      7.16007300      8.56535800
H           9.04306800      8.85602400      8.14382800
C           8.62091600      9.33412400     11.06203600
H           7.74711100      9.48218300     11.72885000
H           8.71756600     10.28137600     10.46124600
C           9.88763800      9.08171700     11.89161000
H          10.60048300      8.42132900     11.34707200
H           9.64316200      8.54245100     12.82528900
C          10.60247500     10.39148600     12.22034200
H          11.57223200     10.19488200     12.71381200
H          10.01517400     11.01289800     12.92004700
N           8.31828700      8.20671500     10.08533000
C          10.86055300     11.17567100     10.92636500
O          10.38458900     12.30909000     10.83779600
O          11.49019400     10.57281100     10.01679700
P           9.41913200     11.90940500      7.53797000
O           8.36266000     10.95875900      7.90655800
O          10.87571600     11.28081600      7.46050800
H          11.19319500     11.05266000      8.45014000
O           9.17128200     12.45374600      6.05980000
H           9.93429800     13.11867100      5.85014300
O           9.53244800     13.22600800      8.40739400
H           9.88874400     12.94765800      9.37609300
O          12.79428000      8.33126000     10.24036200
H          12.30420300      9.21741300     10.23600200
H          13.47165300      8.44328100      9.58436200
O          11.11948400      6.19828300     10.14572000
H          11.74060600      6.96410800     10.15523000
H          11.67694900      5.43862200     10.27629200
          39
 G =       -0.562408 Gcorr = 0.238915 a.u. Nimag =   0 Frame:     7 Step:     8 Geom:     8
C           6.91001300      8.55864300      9.53668400
H           6.66858100      7.83985500      8.73668000
H           6.12947200      8.50291400     10.30917300
H           6.86509700      9.57372800      9.08223400
C           8.23026600      6.98552200     10.85109000
H           9.24951700      6.68699100     11.19025100
H           7.58019800      7.04615800     11.73495500
H           7.87868000      6.16811300     10.20110500
C           9.26949600      8.20534000      8.98681900
H          10.28289100      8.53072000      9.31022000
H           9.36299400      7.18124300      8.59543300
H           8.99373900      8.88197000      8.14877000
C           8.62476800      9.42515600     11.06195300
H           7.76473400      9.61194900     11.73695200
H           8.74170800     10.35780200     10.44220100
C           9.89422400      9.14987300     11.87997800
H          10.57959800      8.45802500     11.33926400
H           9.64603100      8.63575100     12.82680000
C          10.65258100     10.44320900     12.17452900
H          11.62260500     10.22654500     12.65898700
H          10.09385200     11.09502200     12.86996400
N           8.27546300      8.28956300     10.11071400
C          10.91627800     11.19472000     10.86251500
O          10.47339300     12.34023100     10.75857800
O          11.51454600     10.55587800      9.95637200
P           9.45334900     11.90915200      7.47952900
O           8.37191600     11.00041400      7.88008000
O          10.88707700     11.23061300      7.39339700
H          11.21184900     11.00996700      8.38174900
O           9.20281200     12.43427200      5.99481600
H           9.98510900     13.06831400      5.76191800
O           9.62272100     13.23682800      8.32217400
H           9.98255900     12.96457800      9.29177000
O          12.75871500      8.28446100     10.21455700
H          12.29390500      9.18415300     10.19474200
H          13.43214600      8.36215600      9.54961900
O          11.01912700      6.20454800     10.17082000
H          11.66167400      6.95274900     10.15755700
H          11.55632900      5.43288600     10.31507000
          39
 G =       -0.571592 Gcorr = 0.222994 a.u. Nimag =   0 Frame:     8 Step:     9 Geom:     9
C           6.98998900      8.51850500      9.27731800
H           6.73838600      7.79124600      8.49191600
H           6.14907400      8.58903000      9.98035600
H           7.08667900      9.51746500      8.76560600
C           8.14559200      6.82925500     10.65877700
H           9.13621600      6.46690200     11.03724000
H           7.46103300      6.87856200     11.51795900
H           7.77860200      6.05465900      9.96771200
C           9.38728600      8.09442300      8.94232800
H          10.39034500      7.99571900      9.41768300
H           9.24597300      7.26245100      8.24254800
H           9.42528000      9.04396100      8.35073700
C           8.58955300      9.26801200     11.00005000
H           7.71265200      9.39701800     11.66732200
H           8.67165400     10.23825400     10.42338200
C           9.85562700      8.99896600     11.82144300
H          10.55270000      8.32280400     11.26344300
H           9.60314300      8.45766700     12.75378400
C          10.60237900     10.28721400     12.16382900
H          11.53786500     10.05853500     12.71148600
H          10.00665400     10.92993500     12.84463400
N           8.28805700      8.16887000      9.97508200
C          10.93665200     11.08429100     10.90626000
O          10.53695500     12.25992500     10.83659000
O          11.57196600     10.49054500      9.97124800
P           9.46802900     11.86158100      7.82234500
O           8.51120900     10.87979500      8.40545500
O          10.95044900     11.25005400      7.57801200
H          11.50507800     11.00966600      8.46594700
O           9.02199000     12.37636700      6.33311100
H           9.56047100     13.12627400      5.95535800
O           9.70701800     13.26108400      8.59469500
H          10.14480600     13.19222600      9.56490200
O          12.45529700      8.01295500     10.03428000
H          12.09959800      8.96364400     10.15284000
H          13.26795500      8.12117800      9.55219100
O          11.12297100      6.20107100     10.88842400
H          11.46387000      6.28946100      9.98353000
H          11.79096100      6.65044300     11.43019600
          39
 G =       -0.560112 Gcorr = 0.240818 a.u. Nimag =   0 Frame:     9 Step:    10 Geom:    10
C           6.82873800      8.67009300      9.44586700
H           6.58232300      7.98610400      8.61727600
H           6.02140700      8.62883600     10.19118600
H           6.84239700      9.69868200      9.02079200
C           8.02723900      7.00823600     10.76378300
H           8.99979500      6.68334800     11.18885600
H           7.30224200      7.06962300     11.58859900
H           7.71295200      6.21080300     10.07004400
C           9.18635200      8.21774400      8.95975700
H          10.20120600      8.50450100      9.31553400
H           9.25837600      7.19617700      8.55716100
H           8.96104700      8.91383000      8.12232600
C           8.53504700      9.41868300     11.04273100
H           7.67240800      9.61561500     11.71129700
H           8.69218700     10.36372500     10.45085900
C           9.78363500      9.07677300     11.86806600
H          10.45498800      8.37993700     11.31428500
H           9.50650100      8.54320600     12.79583300
C          10.57834600     10.33594500     12.21210800
H          11.53642100     10.07273800     12.69783700
H          10.03302200     10.98231000     12.92275000
N           8.16189600      8.32379800     10.05389100
C          10.87759600     11.11859600     10.92599500
O          10.44980500     12.27138800     10.84189100
O          11.48580700     10.49369300     10.01670200
P           9.53974300     11.95511400      7.51233100
O           8.43448000     11.04563500      7.83898000
O          10.97110000     11.27007500      7.45903500
H          11.25128100     11.00710500      8.45174200
O           9.35075300     12.53429400      6.03843800
H          10.14657000     13.16865100      5.85815100
O           9.68357100     13.25242900      8.40665500
H          10.00901200     12.94628900      9.37714500
O          12.72001400      8.22295100     10.33559000
H          12.25218100      9.11872900     10.28049000
H          13.45715800      8.31611200      9.74421200
O          10.99330100      6.16344600      9.96481400
H          11.63055400      6.90524900     10.08065000
H          11.52856600      5.37955100     10.01636200
          39
 G =       -0.570922 Gcorr = 0.223450 a.u. Nimag =   0 Frame:    10 Step:    11 Geom:    11
C           6.99889900      8.49145400      9.22692300
H           6.70419600      7.75016700      8.46952000
H           6.17688000      8.61217100      9.94551300
H           7.12466000      9.46902400      8.68390000
C           8.14165300      6.79969000     10.62943400
H           9.13678200      6.41437600     10.96343000
H           7.50001000      6.89456400     11.51762100
H           7.71371200      6.02443800      9.97430500
C           9.36658700      7.97668800      8.84682900
H          10.38823100      7.97208000      9.29633200
H           9.24947500      7.06192500      8.25297200
H           9.34296500      8.85474900      8.14892300
C           8.65135700      9.23475600     10.89364500
H           7.78593600      9.41532500     11.56526500
H           8.76326300     10.18557500     10.29063200
C           9.91430200      8.95565000     11.71512200
H          10.68754600      8.44392800     11.08634000
H           9.69960300      8.25678600     12.54593600
C          10.51314700     10.24797200     12.27418000
H          11.42044900     10.02670600     12.86941000
H           9.80997900     10.75763500     12.96310900
N           8.30092300      8.11722400      9.90589900
C          10.86745400     11.18847600     11.12810000
O          10.13444500     12.20103400     10.97728900
O          11.81973800     10.87778800     10.35887000
P           9.79442700     11.69057600      7.81318800
O           8.73669100     10.71240800      8.19094600
O          11.28831100     11.02133500      7.89662500
H          11.83563500     11.26040500      8.77562600
O           9.66984100     12.16762300      6.25059400
H          10.25204200     12.92908100      5.98002300
O           9.93622300     13.07057800      8.60860000
H          10.09259300     12.98600800      9.71799500
O          12.36718800      8.59219500      9.51956700
H          12.51278000      9.26292600     10.24083400
H          12.14396000      9.13832100      8.74621700
O          11.22055400      6.33719700     10.59243000
H          11.66393600      7.02877400     10.03469000
H          11.92364400      5.82241000     10.97318200
          39
 G =       -0.564842 Gcorr = 0.236998 a.u. Nimag =   0 Frame:    11 Step:    12 Geom:    12
C           7.00269300      8.56209600      9.34231500
H           6.80029500      7.83263100      8.54233300
H           6.16545300      8.55103900     10.05439600
H           7.02385500      9.56877100      8.86091600
C           8.19872500      6.95554000     10.73646800
H           9.18307400      6.64833300     11.15913900
H           7.47311900      7.00630500     11.56021800
H           7.90211100      6.14952500     10.04622900
C           9.39176800      8.19082900      8.98007300
H          10.38195200      8.48594200      9.39004300
H           9.49645500      7.17283200      8.57490300
H           9.19854200      8.88774700      8.13876200
C           8.58991400      9.38421200     11.02296200
H           7.68628600      9.54170000     11.64702300
H           8.72875800     10.33638100     10.44035900
C           9.81031100      9.10540300     11.91122200
H          10.52285500      8.41067000     11.41171900
H           9.50665800      8.59160400     12.84206700
C          10.55529000     10.39604500     12.25071800
H          11.49665700     10.17432300     12.78697300
H           9.96070100     11.04562300     12.91853300
N           8.31282800      8.27070400     10.02289000
C          10.89481900     11.15722000     10.96257100
O          10.50732500     12.32343000     10.86434000
O          11.49638800     10.51028200     10.06351500
P           9.38806900     11.94466600      7.62403500
O           8.20685700     11.21215000      8.09623300
O          10.69122200     11.03783200      7.51114600
H          11.09335200     10.89493400      8.48130600
O           9.15999600     12.44673400      6.12866700
H          10.01552600     12.95290100      5.84509300
O           9.79975300     13.25377400      8.40560600
H          10.10648300     12.96457200      9.39260700
O          12.76641500      8.26321900     10.41781400
H          12.29099500      9.15542700     10.35658000
H          13.49315300      8.34888800      9.81339200
O          11.03783700      6.16819600     10.26654800
H          11.68160600      6.91381000     10.29908100
H          11.56192300      5.39373000     10.44122900
          39
 G =       -0.562185 Gcorr = 0.237245 a.u. Nimag =   0 Frame:    12 Step:    13 Geom:    13
C           6.63593400      8.36422000     10.20911900
H           6.37865400      7.82772200      9.27914500
H           5.99691200      7.98124100     11.01860800
H           6.39070600      9.43443800     10.05295100
C           8.38507900      6.74683200     10.74473800
H           9.42944700      6.59546200     11.10301600
H           7.70480700      6.30142300     11.48201000
H           8.32208300      6.18106500      9.79800000
C           8.88743700      8.73246100      9.36763500
H           9.94468000      8.92614500      9.64134800
H           8.90088500      8.03465000      8.51579000
H           8.47910400      9.70820400      9.02811800
C           8.39490700      8.98901900     11.79832000
H           7.72156700      8.63452600     12.60263300
H           8.12876700     10.06947900     11.59399700
C           9.86135200      8.90746200     12.25056600
H          10.48885200      8.32914500     11.53384900
H           9.93468600      8.35203500     13.20503000
C          10.47042200     10.30055500     12.41636700
H          11.50659800     10.23256400     12.79824100
H           9.90870600     10.91251000     13.14161900
N           8.09881200      8.20183000     10.53125300
C          10.47239300     11.00857400     11.05211100
O           9.36581700     11.39660700     10.62976900
O          11.55920200     11.08752200     10.45135900
P          10.37151800     11.59543600      7.25646300
O          10.50105700     10.14525900      7.06999100
O          11.57351200     12.31691300      7.99893100
H          11.63314800     11.91175500      8.98379200
O          10.27439300     12.34671800      5.85663100
H          10.17040500     13.35512900      6.06156600
O           9.04989100     12.04802400      8.01547900
H           9.18853600     11.89707400      9.06017300
O          12.35057200      8.78623200      9.10987600
H          12.23697300      9.57070700      9.69021700
H          12.02786900      9.10935700      8.25518800
O          10.93537300      6.58139400      9.68125300
H          11.45920200      7.39938100      9.48188000
H          11.52976200      5.87094500      9.46298700
          39
 G =       -0.564709 Gcorr = 0.236712 a.u. Nimag =   0 Frame:    13 Step:    14 Geom:    14
C           7.07017700      8.42282300      9.27209900
H           6.92712400      7.70125900      8.45201100
H           6.21542800      8.35490200      9.95957400
H           7.05449300      9.43882900      8.81059500
C           8.28843800      6.87242100     10.71176600
H           9.27590000      6.60004100     11.15118900
H           7.55085200      6.91091200     11.52548100
H           8.02388300      6.05079100     10.02698200
C           9.48065700      8.12706800      8.96890100
H          10.43986600      8.50442300      9.38533100
H           9.65807300      7.10263200      8.60865700
H           9.26226700      8.77594300      8.09335000
C           8.58857100      9.31662200     10.97584500
H           7.66758900      9.44773100     11.58018600
H           8.70334800     10.26492300     10.38131500
C           9.80033200      9.09445000     11.89130400
H          10.55323700      8.43062800     11.40943400
H           9.49986400      8.57025500     12.81729600
C          10.48081200     10.41746100     12.24157600
H          11.42696200     10.23840400     12.78503200
H           9.85036100     11.03643100     12.90516700
N           8.37416000      8.18210400      9.98441500
C          10.79234700     11.19511100     10.95573900
O          10.29723400     12.31733900     10.83022900
O          11.48287600     10.59939600     10.08645400
P           9.44892000     11.82616200      7.51629100
O           8.42008100     10.83939700      7.87306800
O          10.92826100     11.24874900      7.49564200
H          11.22178400     11.04685600      8.49873900
O           9.22301600     12.33024000      6.02100900
H           9.96548800     13.02111600      5.81971000
O           9.48447700     13.16017600      8.36383400
H           9.82407300     12.91210700      9.34817200
O          12.81850200      8.39212000     10.45529800
H          12.31300300      9.26699400     10.39032500
H          13.54093400      8.50008800      9.84912600
O          11.19459200      6.21096100     10.34231000
H          11.79797600      6.98988200     10.35909000
H          11.75406100      5.47227700     10.55747400
          39
 G =       -0.561965 Gcorr = 0.239149 a.u. Nimag =   0 Frame:    14 Step:    15 Geom:    15
C           7.24116800      8.43645100      8.91583800
H           7.19215700      7.76394200      8.04508600
H           6.29871900      8.36432900      9.47601800
H           7.31482300      9.47516000      8.50891000
C           8.23124100      6.76218000     10.39306400
H           9.09621200      6.48665500     11.03936600
H           7.32494500      6.72308300     11.01393900
H           8.16263000      5.98498000      9.61471900
C           9.67855000      8.12048800      8.95047300
H          10.34880000      7.27956500      9.19190500
H           9.45605000      8.09444900      7.86923700