 Entering Gaussian System, Link 0=g16
 Initial command:
 /data0/home/software/g16/l1.exe "/data0/home/software/g16/scratch/Gau-2527975.inp" -scrdir="/data0/home/software/g16/scratch/"
 Default is to use a total of  22 processors:
                               22 via shared-memory
                                1 via Linda
 Entering Link 1 = /data0/home/software/g16/l1.exe PID=   2527976.
  
 Copyright (c) 1988,1990,1992,1993,1995,1998,2003,2009,2016,
            Gaussian, Inc.  All Rights Reserved.
  
 This is part of the Gaussian(R) 16 program.  It is based on
 the Gaussian(R) 09 system (copyright 2009, Gaussian, Inc.),
 the Gaussian(R) 03 system (copyright 2003, Gaussian, Inc.),
 the Gaussian(R) 98 system (copyright 1998, Gaussian, Inc.),
 the Gaussian(R) 94 system (copyright 1995, Gaussian, Inc.),
 the Gaussian 92(TM) system (copyright 1992, Gaussian, Inc.),
 the Gaussian 90(TM) system (copyright 1990, Gaussian, Inc.),
 the Gaussian 88(TM) system (copyright 1988, Gaussian, Inc.),
 the Gaussian 86(TM) system (copyright 1986, Carnegie Mellon
 University), and the Gaussian 82(TM) system (copyright 1983,
 Carnegie Mellon University). Gaussian is a federally registered
 trademark of Gaussian, Inc.
  
 This software contains proprietary and confidential information,
 including trade secrets, belonging to Gaussian, Inc.
  
 This software is provided under written license and may be
 used, copied, transmitted, or stored only in accord with that
 written license.
  
 The following legend is applicable only to US Government
 contracts under FAR:
  
                    RESTRICTED RIGHTS LEGEND
  
 Use, reproduction and disclosure by the US Government is
 subject to restrictions as set forth in subparagraphs (a)
 and (c) of the Commercial Computer Software - Restricted
 Rights clause in FAR 52.227-19.
  
 Gaussian, Inc.
 340 Quinnipiac St., Bldg. 40, Wallingford CT 06492
  
  
 ---------------------------------------------------------------
 Warning -- This program may not be used in any manner that
 competes with the business of Gaussian, Inc. or will provide
 assistance to any competitor of Gaussian, Inc.  The licensee
 of this program is prohibited from giving any competitor of
 Gaussian, Inc. access to this program.  By using this program,
 the user acknowledges that Gaussian, Inc. is engaged in the
 business of creating and licensing software in the field of
 computational chemistry and represents and warrants to the
 licensee that it is not a competitor of Gaussian, Inc. and that
 it will not use this program in any manner prohibited above.
 ---------------------------------------------------------------
  

 Cite this work as:
 Gaussian 16, Revision A.03,
 M. J. Frisch, G. W. Trucks, H. B. Schlegel, G. E. Scuseria, 
 M. A. Robb, J. R. Cheeseman, G. Scalmani, V. Barone, 
 G. A. Petersson, H. Nakatsuji, X. Li, M. Caricato, A. V. Marenich, 
 J. Bloino, B. G. Janesko, R. Gomperts, B. Mennucci, H. P. Hratchian, 
 J. V. Ortiz, A. F. Izmaylov, J. L. Sonnenberg, D. Williams-Young, 
 F. Ding, F. Lipparini, F. Egidi, J. Goings, B. Peng, A. Petrone, 
 T. Henderson, D. Ranasinghe, V. G. Zakrzewski, J. Gao, N. Rega, 
 G. Zheng, W. Liang, M. Hada, M. Ehara, K. Toyota, R. Fukuda, 
 J. Hasegawa, M. Ishida, T. Nakajima, Y. Honda, O. Kitao, H. Nakai, 
 T. Vreven, K. Throssell, J. A. Montgomery, Jr., J. E. Peralta, 
 F. Ogliaro, M. J. Bearpark, J. J. Heyd, E. N. Brothers, K. N. Kudin, 
 V. N. Staroverov, T. A. Keith, R. Kobayashi, J. Normand, 
 K. Raghavachari, A. P. Rendell, J. C. Burant, S. S. Iyengar, 
 J. Tomasi, M. Cossi, J. M. Millam, M. Klene, C. Adamo, R. Cammi, 
 J. W. Ochterski, R. L. Martin, K. Morokuma, O. Farkas, 
 J. B. Foresman, and D. J. Fox, Gaussian, Inc., Wallingford CT, 2016.
 
 ******************************************
 Gaussian 16:  ES64L-G16RevA.03 25-Dec-2016
                11-Oct-2023 
 ******************************************
 %mem=50GB
 %nprocshared=24
 Will use up to   24 processors via shared memory.
 ----------------------------------------
 #p opt freq b3lyp/6-311+g(2d,p) em=gd3bj
 ----------------------------------------
 1/18=20,19=15,26=3,38=1/1,3;
 2/9=110,12=2,17=6,18=5,40=1/2;
 3/5=4,6=6,7=112,11=2,25=1,30=1,71=1,74=-5,124=41/1,2,3;
 4//1;
 5/5=2,38=5/2;
 6/7=2,8=2,9=2,10=2,28=1/1;
 7//1,2,3,16;
 1/18=20,19=15,26=3/3(2);
 2/9=110/2;
 99//99;
 2/9=110/2;
 3/5=4,6=6,7=112,11=2,25=1,30=1,71=1,74=-5,124=41/1,2,3;
 4/5=5,16=3,69=1/1;
 5/5=2,38=5/2;
 7//1,2,3,16;
 1/18=20,19=15,26=3/3(-5);
 2/9=110/2;
 6/7=2,8=2,9=2,10=2,19=2,28=1/1;
 99/9=1/99;
 Leave Link    1 at Wed Oct 11 20:27:58 2023, MaxMem=  6710886400 cpu:               0.7 elap:               0.0
 (Enter /data0/home/software/g16/l101.exe)
 -------------------
 Title Card Required
 -------------------
 Symbolic Z-matrix:
 Charge =  0 Multiplicity = 1
 C                    -2.2763    0.98864   0.5067 
 C                    -1.2105    1.79439   0.27897 
 C                    -0.83637  -0.12464  -0.74292 
 N                    -2.0293   -0.20093  -0.1537 
 H                    -3.18058   1.15718   1.06364 
 H                    -1.00912   2.80045   0.6007 
 H                    -0.30024  -0.9338   -1.23671 
 C                    -2.73291  -1.46548   0.04339 
 H                    -2.77212  -2.0099   -0.89793 
 H                    -2.18076  -2.0501    0.78055 
 H                    -3.74508  -1.26037   0.38554 
 N                    -0.32352   1.08555  -0.51236 
 C                     1.07538   1.48218  -0.77179 
 H                     1.05229   2.54371  -1.02047 
 H                     1.41112   0.92372  -1.64487 
 C                     1.99251   1.21394   0.44127 
 H                     2.80455   1.94568   0.40154 
 H                     1.42351   1.41731   1.3519 
 C                     2.57855  -0.20995   0.50186 
 H                     2.99446  -0.37711   1.49705 
 H                     3.37327  -0.31591  -0.23854 
 C                     1.46794  -1.2369    0.20073 
 O                     1.45542  -1.71     -0.96646 
 O                     0.57567  -1.37579   1.07532 
 
 ITRead=  0  0  0  0  0  0  0  0  0  0  0  0  0  0  0  0  0  0  0  0
 ITRead=  0  0  0  0
 MicOpt= -1 -1 -1 -1 -1 -1 -1 -1 -1 -1 -1 -1 -1 -1 -1 -1 -1 -1 -1 -1
 MicOpt= -1 -1 -1 -1
 NAtoms=     24 NQM=       24 NQMF=       0 NMMI=      0 NMMIF=      0
                NMic=       0 NMicF=      0.
                    Isotopes and Nuclear Properties:
 (Nuclear quadrupole moments (NQMom) in fm**2, nuclear magnetic moments (NMagM)
  in nuclear magnetons)

  Atom         1           2           3           4           5           6           7           8           9          10
 IAtWgt=          12          12          12          14           1           1           1          12           1           1
 AtmWgt=  12.0000000  12.0000000  12.0000000  14.0030740   1.0078250   1.0078250   1.0078250  12.0000000   1.0078250   1.0078250
 NucSpn=           0           0           0           2           1           1           1           0           1           1
 AtZEff=  -0.0000000  -0.0000000  -0.0000000  -0.0000000  -0.0000000  -0.0000000  -0.0000000  -0.0000000  -0.0000000  -0.0000000
 NQMom=    0.0000000   0.0000000   0.0000000   2.0440000   0.0000000   0.0000000   0.0000000   0.0000000   0.0000000   0.0000000
 NMagM=    0.0000000   0.0000000   0.0000000   0.4037610   2.7928460   2.7928460   2.7928460   0.0000000   2.7928460   2.7928460
 AtZNuc=   6.0000000   6.0000000   6.0000000   7.0000000   1.0000000   1.0000000   1.0000000   6.0000000   1.0000000   1.0000000

  Atom        11          12          13          14          15          16          17          18          19          20
 IAtWgt=           1          14          12           1           1          12           1           1          12           1
 AtmWgt=   1.0078250  14.0030740  12.0000000   1.0078250   1.0078250  12.0000000   1.0078250   1.0078250  12.0000000   1.0078250
 NucSpn=           1           2           0           1           1           0           1           1           0           1
 AtZEff=  -0.0000000  -0.0000000  -0.0000000  -0.0000000  -0.0000000  -0.0000000  -0.0000000  -0.0000000  -0.0000000  -0.0000000
 NQMom=    0.0000000   2.0440000   0.0000000   0.0000000   0.0000000   0.0000000   0.0000000   0.0000000   0.0000000   0.0000000
 NMagM=    2.7928460   0.4037610   0.0000000   2.7928460   2.7928460   0.0000000   2.7928460   2.7928460   0.0000000   2.7928460
 AtZNuc=   1.0000000   7.0000000   6.0000000   1.0000000   1.0000000   6.0000000   1.0000000   1.0000000   6.0000000   1.0000000

  Atom        21          22          23          24
 IAtWgt=           1          12          16          16
 AtmWgt=   1.0078250  12.0000000  15.9949146  15.9949146
 NucSpn=           1           0           0           0
 AtZEff=  -0.0000000  -0.0000000  -0.0000000  -0.0000000
 NQMom=    0.0000000   0.0000000   0.0000000   0.0000000
 NMagM=    2.7928460   0.0000000   0.0000000   0.0000000
 AtZNuc=   1.0000000   6.0000000   8.0000000   8.0000000
 Leave Link  101 at Wed Oct 11 20:27:59 2023, MaxMem=  6710886400 cpu:               7.9 elap:               0.3
 (Enter /data0/home/software/g16/l103.exe)

 GradGradGradGradGradGradGradGradGradGradGradGradGradGradGradGradGradGrad
 Berny optimization.
 Initialization pass.
                           ----------------------------
                           !    Initial Parameters    !
                           ! (Angstroms and Degrees)  !
 --------------------------                            --------------------------
 ! Name  Definition              Value          Derivative Info.                !
 --------------------------------------------------------------------------------
 ! R1    R(1,2)                  1.3554         estimate D2E/DX2                !
 ! R2    R(1,4)                  1.3828         estimate D2E/DX2                !
 ! R3    R(1,5)                  1.0753         estimate D2E/DX2                !
 ! R4    R(2,6)                  1.0753         estimate D2E/DX2                !
 ! R5    R(2,12)                 1.384          estimate D2E/DX2                !
 ! R6    R(3,4)                  1.3327         estimate D2E/DX2                !
 ! R7    R(3,7)                  1.089          estimate D2E/DX2                !
 ! R8    R(3,12)                 1.3344         estimate D2E/DX2                !
 ! R9    R(4,8)                  1.4605         estimate D2E/DX2                !
 ! R10   R(8,9)                  1.0881         estimate D2E/DX2                !
 ! R11   R(8,10)                 1.0909         estimate D2E/DX2                !
 ! R12   R(8,11)                 1.0879         estimate D2E/DX2                !
 ! R13   R(12,13)                1.477          estimate D2E/DX2                !
 ! R14   R(13,14)                1.0905         estimate D2E/DX2                !
 ! R15   R(13,15)                1.0894         estimate D2E/DX2                !
 ! R16   R(13,16)                1.5442         estimate D2E/DX2                !
 ! R17   R(16,17)                1.0938         estimate D2E/DX2                !
 ! R18   R(16,18)                1.0929         estimate D2E/DX2                !
 ! R19   R(16,19)                1.541          estimate D2E/DX2                !
 ! R20   R(19,20)                1.0915         estimate D2E/DX2                !
 ! R21   R(19,21)                1.0913         estimate D2E/DX2                !
 ! R22   R(19,22)                1.5423         estimate D2E/DX2                !
 ! R23   R(22,23)                1.2595         estimate D2E/DX2                !
 ! R24   R(22,24)                1.2571         estimate D2E/DX2                !
 ! A1    A(2,1,4)              106.9            estimate D2E/DX2                !
 ! A2    A(2,1,5)              130.9294         estimate D2E/DX2                !
 ! A3    A(4,1,5)              122.1667         estimate D2E/DX2                !
 ! A4    A(1,2,6)              130.7842         estimate D2E/DX2                !
 ! A5    A(1,2,12)             107.1911         estimate D2E/DX2                !
 ! A6    A(6,2,12)             122.0232         estimate D2E/DX2                !
 ! A7    A(4,3,7)              126.7698         estimate D2E/DX2                !
 ! A8    A(4,3,12)             108.6347         estimate D2E/DX2                !
 ! A9    A(7,3,12)             124.2615         estimate D2E/DX2                !
 ! A10   A(1,4,3)              108.7712         estimate D2E/DX2                !
 ! A11   A(1,4,8)              126.466          estimate D2E/DX2                !
 ! A12   A(3,4,8)              122.7153         estimate D2E/DX2                !
 ! A13   A(4,8,9)              109.5012         estimate D2E/DX2                !
 ! A14   A(4,8,10)             108.1412         estimate D2E/DX2                !
 ! A15   A(4,8,11)             109.1118         estimate D2E/DX2                !
 ! A16   A(9,8,10)             109.5528         estimate D2E/DX2                !
 ! A17   A(9,8,11)             109.443          estimate D2E/DX2                !
 ! A18   A(10,8,11)            111.064          estimate D2E/DX2                !
 ! A19   A(2,12,3)             108.48           estimate D2E/DX2                !
 ! A20   A(2,12,13)            124.7429         estimate D2E/DX2                !
 ! A21   A(3,12,13)            125.2522         estimate D2E/DX2                !
 ! A22   A(12,13,14)           106.3436         estimate D2E/DX2                !
 ! A23   A(12,13,15)           107.1569         estimate D2E/DX2                !
 ! A24   A(12,13,16)           112.2029         estimate D2E/DX2                !
 ! A25   A(14,13,15)           108.8301         estimate D2E/DX2                !
 ! A26   A(14,13,16)           111.1492         estimate D2E/DX2                !
 ! A27   A(15,13,16)           110.9451         estimate D2E/DX2                !
 ! A28   A(13,16,17)           107.2286         estimate D2E/DX2                !
 ! A29   A(13,16,18)           108.2409         estimate D2E/DX2                !
 ! A30   A(13,16,19)           114.6617         estimate D2E/DX2                !
 ! A31   A(17,16,18)           106.9958         estimate D2E/DX2                !
 ! A32   A(17,16,19)           109.7089         estimate D2E/DX2                !
 ! A33   A(18,16,19)           109.7062         estimate D2E/DX2                !
 ! A34   A(16,19,20)           108.8011         estimate D2E/DX2                !
 ! A35   A(16,19,21)           109.8761         estimate D2E/DX2                !
 ! A36   A(16,19,22)           109.4955         estimate D2E/DX2                !
 ! A37   A(20,19,21)           109.0395         estimate D2E/DX2                !
 ! A38   A(20,19,22)           110.5137         estimate D2E/DX2                !
 ! A39   A(21,19,22)           109.1033         estimate D2E/DX2                !
 ! A40   A(19,22,23)           115.9892         estimate D2E/DX2                !
 ! A41   A(19,22,24)           116.6687         estimate D2E/DX2                !
 ! A42   A(23,22,24)           126.5964         estimate D2E/DX2                !
 ! D1    D(4,1,2,6)            179.2986         estimate D2E/DX2                !
 ! D2    D(4,1,2,12)            -0.2538         estimate D2E/DX2                !
 ! D3    D(5,1,2,6)              0.0188         estimate D2E/DX2                !
 ! D4    D(5,1,2,12)          -179.5337         estimate D2E/DX2                !
 ! D5    D(2,1,4,3)              1.1196         estimate D2E/DX2                !
 ! D6    D(2,1,4,8)            165.0598         estimate D2E/DX2                !
 ! D7    D(5,1,4,3)           -179.5231         estimate D2E/DX2                !
 ! D8    D(5,1,4,8)            -15.5829         estimate D2E/DX2                !
 ! D9    D(1,2,12,3)            -0.695          estimate D2E/DX2                !
 ! D10   D(1,2,12,13)         -167.1967         estimate D2E/DX2                !
 ! D11   D(6,2,12,3)           179.7047         estimate D2E/DX2                !
 ! D12   D(6,2,12,13)           13.203          estimate D2E/DX2                !
 ! D13   D(7,3,4,1)            171.9771         estimate D2E/DX2                !
 ! D14   D(7,3,4,8)              7.3098         estimate D2E/DX2                !
 ! D15   D(12,3,4,1)            -1.5698         estimate D2E/DX2                !
 ! D16   D(12,3,4,8)          -166.2371         estimate D2E/DX2                !
 ! D17   D(4,3,12,2)             1.4052         estimate D2E/DX2                !
 ! D18   D(4,3,12,13)          167.821          estimate D2E/DX2                !
 ! D19   D(7,3,12,2)          -172.3412         estimate D2E/DX2                !
 ! D20   D(7,3,12,13)           -5.9253         estimate D2E/DX2                !
 ! D21   D(1,4,8,9)            147.4077         estimate D2E/DX2                !
 ! D22   D(1,4,8,10)           -93.2749         estimate D2E/DX2                !
 ! D23   D(1,4,8,11)            27.6429         estimate D2E/DX2                !
 ! D24   D(3,4,8,9)            -50.7306         estimate D2E/DX2                !
 ! D25   D(3,4,8,10)            68.5869         estimate D2E/DX2                !
 ! D26   D(3,4,8,11)          -170.4954         estimate D2E/DX2                !
 ! D27   D(2,12,13,14)         -46.5667         estimate D2E/DX2                !
 ! D28   D(2,12,13,15)        -162.8336         estimate D2E/DX2                !
 ! D29   D(2,12,13,16)          75.1548         estimate D2E/DX2                !
 ! D30   D(3,12,13,14)         149.1626         estimate D2E/DX2                !
 ! D31   D(3,12,13,15)          32.8957         estimate D2E/DX2                !
 ! D32   D(3,12,13,16)         -89.1159         estimate D2E/DX2                !
 ! D33   D(12,13,16,17)       -151.5123         estimate D2E/DX2                !
 ! D34   D(12,13,16,18)        -36.398          estimate D2E/DX2                !
 ! D35   D(12,13,16,19)         86.4214         estimate D2E/DX2                !
 ! D36   D(14,13,16,17)        -32.5798         estimate D2E/DX2                !
 ! D37   D(14,13,16,18)         82.5345         estimate D2E/DX2                !
 ! D38   D(14,13,16,19)       -154.6462         estimate D2E/DX2                !
 ! D39   D(15,13,16,17)         88.6607         estimate D2E/DX2                !
 ! D40   D(15,13,16,18)       -156.225          estimate D2E/DX2                !
 ! D41   D(15,13,16,19)        -33.4056         estimate D2E/DX2                !
 ! D42   D(13,16,19,20)       -165.986          estimate D2E/DX2                !
 ! D43   D(13,16,19,21)         74.7053         estimate D2E/DX2                !
 ! D44   D(13,16,19,22)        -45.1069         estimate D2E/DX2                !
 ! D45   D(17,16,19,20)         73.3056         estimate D2E/DX2                !
 ! D46   D(17,16,19,21)        -46.0031         estimate D2E/DX2                !
 ! D47   D(17,16,19,22)       -165.8153         estimate D2E/DX2                !
 ! D48   D(18,16,19,20)        -43.9598         estimate D2E/DX2                !
 ! D49   D(18,16,19,21)       -163.2685         estimate D2E/DX2                !
 ! D50   D(18,16,19,22)         76.9193         estimate D2E/DX2                !
 ! D51   D(16,19,22,23)        100.9279         estimate D2E/DX2                !
 ! D52   D(16,19,22,24)        -69.8429         estimate D2E/DX2                !
 ! D53   D(20,19,22,23)       -139.2377         estimate D2E/DX2                !
 ! D54   D(20,19,22,24)         49.9915         estimate D2E/DX2                !
 ! D55   D(21,19,22,23)        -19.3571         estimate D2E/DX2                !
 ! D56   D(21,19,22,24)        169.8721         estimate D2E/DX2                !
 --------------------------------------------------------------------------------
 Trust Radius=3.00D-01 FncErr=1.00D-07 GrdErr=1.00D-06 EigMax=2.50D+02 EigMin=1.00D-04
 Number of steps in this run=    132 maximum allowed number of steps=    144.
 GradGradGradGradGradGradGradGradGradGradGradGradGradGradGradGradGradGrad

 Leave Link  103 at Wed Oct 11 20:27:59 2023, MaxMem=  6710886400 cpu:               0.2 elap:               0.0
 (Enter /data0/home/software/g16/l202.exe)
                          Input orientation:                          
 ---------------------------------------------------------------------
 Center     Atomic      Atomic             Coordinates (Angstroms)
 Number     Number       Type             X           Y           Z
 ---------------------------------------------------------------------
      1          6           0       -2.276304    0.988644    0.506695
      2          6           0       -1.210495    1.794390    0.278967
      3          6           0       -0.836365   -0.124641   -0.742919
      4          7           0       -2.029304   -0.200927   -0.153695
      5          1           0       -3.180581    1.157180    1.063642
      6          1           0       -1.009116    2.800449    0.600701
      7          1           0       -0.300242   -0.933801   -1.236712
      8          6           0       -2.732912   -1.465480    0.043390
      9          1           0       -2.772117   -2.009901   -0.897934
     10          1           0       -2.180759   -2.050102    0.780549
     11          1           0       -3.745076   -1.260373    0.385540
     12          7           0       -0.323521    1.085553   -0.512364
     13          6           0        1.075380    1.482177   -0.771789
     14          1           0        1.052291    2.543714   -1.020470
     15          1           0        1.411120    0.923718   -1.644868
     16          6           0        1.992509    1.213942    0.441270
     17          1           0        2.804554    1.945679    0.401543
     18          1           0        1.423509    1.417313    1.351896
     19          6           0        2.578545   -0.209945    0.501855
     20          1           0        2.994460   -0.377111    1.497048
     21          1           0        3.373274   -0.315905   -0.238541
     22          6           0        1.467936   -1.236904    0.200727
     23          8           0        1.455421   -1.710003   -0.966461
     24          8           0        0.575665   -1.375791    1.075316
 ---------------------------------------------------------------------
                    Distance matrix (angstroms):
                    1          2          3          4          5
     1  C    0.000000
     2  C    1.355373   0.000000
     3  C    2.207796   2.206106   0.000000
     4  N    1.382824   2.199758   1.332707   0.000000
     5  H    1.075319   2.214270   3.225225   2.156804   0.000000
     6  H    2.212971   1.075277   3.223555   3.258551   2.762229
     7  H    3.261914   3.250980   1.089036   2.167876   4.237946
     8  C    2.538871   3.605552   2.452146   1.460480   2.849503
     9  H    3.348147   4.277428   2.706542   2.092379   3.747669
    10  H    3.052557   3.996638   2.799241   2.077306   3.371416
    11  H    2.688875   3.970773   3.320227   2.087360   2.573527
    12  N    2.204821   1.383972   1.334441   2.166419   3.263697
    13  C    3.621033   2.535111   2.497492   3.585239   4.646249
    14  H    3.978696   2.714816   3.280880   4.216703   4.917642
    15  H    4.269723   3.366315   2.638893   3.914708   5.336127
    16  C    4.275255   3.259217   3.346137   4.304744   5.210703
    17  H    5.171276   4.019768   4.341925   5.318119   6.073051
    18  H    3.819259   2.869031   3.445708   4.099686   4.620433
    19  C    5.000620   4.292303   3.635705   4.654256   5.945769
    20  H    5.534170   4.886797   4.444819   5.290954   6.377540
    21  H    5.845935   5.072682   4.244059   5.404467   6.842417
    22  C    4.366465   4.045844   2.727160   3.664635   5.299526
    23  O    4.835148   4.575912   2.795644   3.883453   5.816749
    24  O    3.748014   3.724861   2.620150   3.110729   4.530504
                    6          7          8          9         10
     6  H    0.000000
     7  H    4.221755   0.000000
     8  C    4.634676   2.799862   0.000000
     9  H    5.337935   2.717154   1.088128   0.000000
    10  H    4.993289   2.975200   1.090898   1.780063   0.000000
    11  H    4.901229   3.821679   1.087939   1.776442   1.796327
    12  N    2.156345   2.145463   3.552717   3.965617   3.866948
    13  C    2.822533   2.818766   4.884290   5.197476   5.048682
    14  H    2.635054   3.737542   5.615443   5.947817   5.899104
    15  H    3.797663   2.558462   5.072621   5.163671   5.256220
    16  C    3.398849   3.561619   5.446762   5.906631   5.308979
    17  H    3.913358   4.540379   6.513663   6.959491   6.400254
    18  H    2.897417   3.898711   5.224798   5.866073   5.033900
    19  C    4.684395   3.440058   5.477055   5.816256   5.110266
    20  H    5.189311   4.317222   6.008366   6.454096   5.485906
    21  H    5.442548   3.856535   6.219848   6.408608   5.907052
    22  C    4.753523   2.298816   4.210003   4.447767   3.782917
    23  O    5.373464   1.938525   4.315290   4.238716   4.048397
    24  O    4.491967   2.511582   3.466929   3.937443   2.852973
                   11         12         13         14         15
    11  H    0.000000
    12  N    4.244601   0.000000
    13  C    5.665491   1.477002   0.000000
    14  H    6.281932   2.068155   1.090521   0.000000
    15  H    5.956439   2.077916   1.089433   1.772856   0.000000
    16  C    6.248618   2.507967   1.544211   2.188375   2.184998
    17  H    7.292234   3.370444   2.140464   2.334565   2.678406
    18  H    5.900688   2.576363   2.153007   2.652301   3.037167
    19  C    6.411327   3.336007   2.597104   3.497079   2.693788
    20  H    6.887449   4.145615   3.505345   4.317538   3.751101
    21  H    7.207802   3.962998   2.966103   3.765076   2.713756
    22  C    5.216340   3.018547   2.914325   3.994641   2.842136
    23  O    5.392146   3.344544   3.220612   4.273118   2.720052
    24  O    4.376976   3.063899   3.439403   4.470124   3.658569
                   16         17         18         19         20
    16  C    0.000000
    17  H    1.093816   0.000000
    18  H    1.092868   1.757733   0.000000
    19  C    1.540962   2.169760   2.169020   0.000000
    20  H    2.156391   2.575179   2.389333   1.091485   0.000000
    21  H    2.170043   2.418246   3.055343   1.091333   1.777503
    22  C    2.517873   3.457703   2.893446   1.542328   2.179442
    23  O    3.289320   4.129843   3.893058   2.380658   3.195953
    24  O    3.019301   4.056363   2.932024   2.387380   2.650620
                   21         22         23         24
    21  H    0.000000
    22  C    2.161367   0.000000
    23  O    2.480229   1.259487   0.000000
    24  O    3.267445   1.257117   2.248226   0.000000
 Stoichiometry    C8H12N2O2
 Framework group  C1[X(C8H12N2O2)]
 Deg. of freedom    66
 Full point group                 C1      NOp   1
 Largest Abelian subgroup         C1      NOp   1
 Largest concise Abelian subgroup C1      NOp   1
                         Standard orientation:                         
 ---------------------------------------------------------------------
 Center     Atomic      Atomic             Coordinates (Angstroms)
 Number     Number       Type             X           Y           Z
 ---------------------------------------------------------------------
      1          6           0        2.276304    0.988644   -0.506695
      2          6           0        1.210495    1.794390   -0.278967
      3          6           0        0.836365   -0.124641    0.742919
      4          7           0        2.029304   -0.200927    0.153695
      5          1           0        3.180581    1.157180   -1.063642
      6          1           0        1.009116    2.800449   -0.600701
      7          1           0        0.300242   -0.933801    1.236712
      8          6           0        2.732912   -1.465480   -0.043390
      9          1           0        2.772117   -2.009901    0.897934
     10          1           0        2.180759   -2.050102   -0.780549
     11          1           0        3.745076   -1.260373   -0.385540
     12          7           0        0.323521    1.085553    0.512364
     13          6           0       -1.075380    1.482177    0.771789
     14          1           0       -1.052291    2.543714    1.020470
     15          1           0       -1.411120    0.923718    1.644868
     16          6           0       -1.992509    1.213942   -0.441270
     17          1           0       -2.804554    1.945679   -0.401543
     18          1           0       -1.423509    1.417313   -1.351896
     19          6           0       -2.578545   -0.209945   -0.501855
     20          1           0       -2.994460   -0.377111   -1.497048
     21          1           0       -3.373274   -0.315905    0.238541
     22          6           0       -1.467936   -1.236904   -0.200727
     23          8           0       -1.455421   -1.710003    0.966461
     24          8           0       -0.575665   -1.375791   -1.075316
 ---------------------------------------------------------------------
 Rotational constants (GHZ):           1.4892740           0.8567545           0.6465521
 Leave Link  202 at Wed Oct 11 20:27:59 2023, MaxMem=  6710886400 cpu:               0.1 elap:               0.0
 (Enter /data0/home/software/g16/l301.exe)
 Standard basis: 6-311+G(2d,p) (5D, 7F)
 Ernie: Thresh=  0.10000D-02 Tol=  0.10000D-05 Strict=F.
 There are   420 symmetry adapted cartesian basis functions of A   symmetry.
 There are   396 symmetry adapted basis functions of A   symmetry.
   396 basis functions,   600 primitive gaussians,   420 cartesian basis functions
    45 alpha electrons       45 beta electrons
       nuclear repulsion energy       751.1524377706 Hartrees.
 IExCor=  402 DFT=T Ex+Corr=B3LYP ExCW=0 ScaHFX=  0.200000
 ScaDFX=  0.800000  0.720000  1.000000  0.810000 ScalE2=  1.000000  1.000000
 IRadAn=      5 IRanWt=     -1 IRanGd=            0 ICorTp=0 IEmpDi=141
 NAtoms=   24 NActive=   24 NUniq=   24 SFac= 1.00D+00 NAtFMM=   60 NAOKFM=F Big=F
 Integral buffers will be    131072 words long.
 Raffenetti 2 integral format.
 Two-electron integral symmetry is turned on.
 R6Disp:  Grimme-D3(BJ) Dispersion energy=       -0.0447784245 Hartrees.
 Nuclear repulsion after empirical dispersion term =      751.1076593460 Hartrees.
 Leave Link  301 at Wed Oct 11 20:27:59 2023, MaxMem=  6710886400 cpu:               1.1 elap:               0.1
 (Enter /data0/home/software/g16/l302.exe)
 NPDir=0 NMtPBC=     1 NCelOv=     1 NCel=       1 NClECP=     1 NCelD=      1
         NCelK=      1 NCelE2=     1 NClLst=     1 CellRange=     0.0.
 One-electron integrals computed using PRISM.
 One-electron integral symmetry used in STVInt
 NBasis=   396 RedAO= T EigKep=  1.21D-05  NBF=   396
 NBsUse=   396 1.00D-06 EigRej= -1.00D+00 NBFU=   396
 Precomputing XC quadrature grid using
 IXCGrd= 4 IRadAn=           5 IRanWt=          -1 IRanGd=           0 AccXCQ= 0.00D+00.
 Generated NRdTot=       0 NPtTot=           0 NUsed=           0 NTot=          32
 NSgBfM=   420   420   420   420   420 MxSgAt=    24 MxSgA2=    24.
 Leave Link  302 at Wed Oct 11 20:27:59 2023, MaxMem=  6710886400 cpu:               7.2 elap:               0.3
 (Enter /data0/home/software/g16/l303.exe)
 DipDrv:  MaxL=1.
 Leave Link  303 at Wed Oct 11 20:27:59 2023, MaxMem=  6710886400 cpu:               0.9 elap:               0.1
 (Enter /data0/home/software/g16/l401.exe)
 ExpMin= 4.38D-02 ExpMax= 8.59D+03 ExpMxC= 1.30D+03 IAcc=3 IRadAn=         5 AccDes= 0.00D+00
 Harris functional with IExCor=  402 and IRadAn=       5 diagonalized for initial guess.
 HarFok:  IExCor=  402 AccDes= 0.00D+00 IRadAn=         5 IDoV= 1 UseB2=F ITyADJ=14
 ICtDFT=  3500011 ScaDFX=  1.000000  1.000000  1.000000  1.000000
 FoFCou: FMM=F IPFlag=           0 FMFlag=      100000 FMFlg1=           0
         NFxFlg=           0 DoJE=T BraDBF=F KetDBF=T FulRan=T
         wScrn=  0.000000 ICntrl=       500 IOpCl=  0 I1Cent=   200000004 NGrid=           0
         NMat0=    1 NMatS0=      1 NMatT0=    0 NMatD0=    1 NMtDS0=    0 NMtDT0=    0
 Petite list used in FoFCou.
 Harris En= -572.274831976179    
 JPrj=0 DoOrth=F DoCkMO=F.
 Leave Link  401 at Wed Oct 11 20:28:00 2023, MaxMem=  6710886400 cpu:              30.5 elap:               1.3
 (Enter /data0/home/software/g16/l502.exe)
 Integral symmetry usage will be decided dynamically.
 Closed shell SCF:
 Using DIIS extrapolation, IDIIS=  1040.
 NGot=  6710886400 LenX=  6710519556 LenY=  6710342715
 Requested convergence on RMS density matrix=1.00D-08 within 128 cycles.
 Requested convergence on MAX density matrix=1.00D-06.
 Requested convergence on             energy=1.00D-06.
 No special actions if energy rises.
 Fock matrices will be formed incrementally for  20 cycles.

 Cycle   1  Pass 1  IDiag  1:
 FoFJK:  IHMeth= 1 ICntrl=       0 DoSepK=F KAlg= 0 I1Cent=           0 FoldK=F
 IRaf= 930000000 NMat=       1 IRICut=       1 DoRegI=T DoRafI=F ISym2E= 0 IDoP0=0 IntGTp=1.
 FoFCou: FMM=F IPFlag=           0 FMFlag=      100000 FMFlg1=           0
         NFxFlg=           0 DoJE=F BraDBF=F KetDBF=F FulRan=T
         wScrn=  0.000000 ICntrl=         0 IOpCl=  0 I1Cent=           0 NGrid=           0
         NMat0=    1 NMatS0=      1 NMatT0=    0 NMatD0=    1 NMtDS0=    0 NMtDT0=    0
 Symmetry not used in FoFCou.
 E= -571.881601295689    
 DIIS: error= 2.05D-02 at cycle   1 NSaved=   1.
 NSaved= 1 IEnMin= 1 EnMin= -571.881601295689     IErMin= 1 ErrMin= 2.05D-02
 ErrMax= 2.05D-02  0.00D+00 EMaxC= 1.00D-01 BMatC= 4.32D-01 BMatP= 4.32D-01
 IDIUse=3 WtCom= 7.95D-01 WtEn= 2.05D-01
 Coeff-Com:  0.100D+01
 Coeff-En:   0.100D+01
 Coeff:      0.100D+01
 Gap=     0.237 Goal=   None    Shift=    0.000
 GapD=    0.237 DampG=1.000 DampE=0.500 DampFc=0.5000 IDamp=-1.
 Damping current iteration by 5.00D-01
 RMSDP=2.29D-01 MaxDP=4.33D+01              OVMax= 9.28D-01

 Cycle   2  Pass 1  IDiag  1:
 RMSU=  1.13D-01    CP:  2.81D+00
 E= -571.501988839588     Delta-E=        0.379612456100 Rises=F Damp=T
 DIIS: error= 2.00D-02 at cycle   2 NSaved=   2.
 NSaved= 2 IEnMin= 1 EnMin= -571.881601295689     IErMin= 2 ErrMin= 2.00D-02
 ErrMax= 2.00D-02  0.00D+00 EMaxC= 1.00D-01 BMatC= 2.29D-01 BMatP= 4.32D-01
 IDIUse=3 WtCom= 8.00D-01 WtEn= 2.00D-01
 Coeff-Com:  0.395D+00 0.605D+00
 Coeff-En:   0.738D+00 0.262D+00
 Coeff:      0.464D+00 0.536D+00
 Gap=     0.059 Goal=   None    Shift=    0.000
 RMSDP=1.15D-01 MaxDP=2.16D+01 DE= 3.80D-01 OVMax= 8.38D-01

 Cycle   3  Pass 1  IDiag  1:
 RMSU=  2.23D-03    CP:  9.46D-01  3.77D-04
 E= -572.105233072884     Delta-E=       -0.603244233296 Rises=F Damp=F
 DIIS: error= 9.82D-03 at cycle   3 NSaved=   3.
 NSaved= 3 IEnMin= 3 EnMin= -572.105233072884     IErMin= 3 ErrMin= 9.82D-03
 ErrMax= 9.82D-03  0.00D+00 EMaxC= 1.00D-01 BMatC= 1.16D-01 BMatP= 2.29D-01
 IDIUse=3 WtCom= 9.02D-01 WtEn= 9.82D-02
 Coeff-Com:  0.142D+00 0.389D+00 0.469D+00
 Coeff-En:   0.000D+00 0.111D-01 0.989D+00
 Coeff:      0.128D+00 0.352D+00 0.520D+00
 Gap=     0.315 Goal=   None    Shift=    0.000
 RMSDP=1.31D-03 MaxDP=6.62D-02 DE=-6.03D-01 OVMax= 6.26D-02

 Cycle   4  Pass 1  IDiag  1:
 RMSU=  1.22D-03    CP:  9.30D-01  7.18D-04  7.91D-01
 E= -572.211293567314     Delta-E=       -0.106060494430 Rises=F Damp=F
 DIIS: error= 3.54D-03 at cycle   4 NSaved=   4.
 NSaved= 4 IEnMin= 4 EnMin= -572.211293567314     IErMin= 4 ErrMin= 3.54D-03
 ErrMax= 3.54D-03  0.00D+00 EMaxC= 1.00D-01 BMatC= 1.40D-02 BMatP= 1.16D-01
 IDIUse=3 WtCom= 9.65D-01 WtEn= 3.54D-02
 Coeff-Com: -0.351D-01 0.177D+00 0.159D+00 0.698D+00
 Coeff-En:   0.000D+00 0.000D+00 0.000D+00 0.100D+01
 Coeff:     -0.339D-01 0.171D+00 0.154D+00 0.709D+00
 Gap=     0.185 Goal=   None    Shift=    0.000
 RMSDP=7.38D-04 MaxDP=7.25D-02 DE=-1.06D-01 OVMax= 2.82D-02

 Cycle   5  Pass 1  IDiag  1:
 RMSU=  6.63D-04    CP:  9.28D-01  1.21D-03  8.92D-01  1.19D+00
 E= -572.220607259317     Delta-E=       -0.009313692002 Rises=F Damp=F
 DIIS: error= 2.51D-03 at cycle   5 NSaved=   5.
 NSaved= 5 IEnMin= 5 EnMin= -572.220607259317     IErMin= 5 ErrMin= 2.51D-03
 ErrMax= 2.51D-03  0.00D+00 EMaxC= 1.00D-01 BMatC= 6.34D-03 BMatP= 1.40D-02
 IDIUse=3 WtCom= 9.75D-01 WtEn= 2.51D-02
 Coeff-Com: -0.523D-01 0.920D-01-0.486D-03 0.447D+00 0.514D+00
 Coeff-En:   0.000D+00 0.000D+00 0.000D+00 0.128D-01 0.987D+00
 Coeff:     -0.510D-01 0.897D-01-0.474D-03 0.436D+00 0.526D+00
 Gap=     0.180 Goal=   None    Shift=    0.000
 RMSDP=3.11D-04 MaxDP=3.47D-02 DE=-9.31D-03 OVMax= 2.72D-02

 Cycle   6  Pass 1  IDiag  1:
 RMSU=  2.28D-04    CP:  9.29D-01  1.94D-03  9.28D-01  1.31D+00  1.12D+00
 E= -572.225048049417     Delta-E=       -0.004440790100 Rises=F Damp=F
 DIIS: error= 1.44D-03 at cycle   6 NSaved=   6.
 NSaved= 6 IEnMin= 6 EnMin= -572.225048049417     IErMin= 6 ErrMin= 1.44D-03
 ErrMax= 1.44D-03  0.00D+00 EMaxC= 1.00D-01 BMatC= 1.32D-03 BMatP= 6.34D-03
 IDIUse=3 WtCom= 9.86D-01 WtEn= 1.44D-02
 Coeff-Com: -0.303D-01 0.337D-01-0.582D-01 0.110D+00 0.356D+00 0.589D+00
 Coeff-En:   0.000D+00 0.000D+00 0.000D+00 0.000D+00 0.000D+00 0.100D+01
 Coeff:     -0.299D-01 0.332D-01-0.574D-01 0.108D+00 0.351D+00 0.595D+00
 Gap=     0.170 Goal=   None    Shift=    0.000
 RMSDP=2.01D-04 MaxDP=1.82D-02 DE=-4.44D-03 OVMax= 1.26D-02

 Cycle   7  Pass 1  IDiag  1:
 RMSU=  1.16D-04    CP:  9.30D-01  2.26D-03  9.38D-01  1.41D+00  1.28D+00
                    CP:  9.15D-01
 E= -572.226079718722     Delta-E=       -0.001031669305 Rises=F Damp=F
 DIIS: error= 4.98D-04 at cycle   7 NSaved=   7.
 NSaved= 7 IEnMin= 7 EnMin= -572.226079718722     IErMin= 7 ErrMin= 4.98D-04
 ErrMax= 4.98D-04  0.00D+00 EMaxC= 1.00D-01 BMatC= 2.19D-04 BMatP= 1.32D-03
 IDIUse=3 WtCom= 9.95D-01 WtEn= 4.98D-03
 Coeff-Com: -0.941D-02 0.754D-02-0.427D-01-0.266D-01 0.109D+00 0.390D+00
 Coeff-Com:  0.573D+00
 Coeff-En:   0.000D+00 0.000D+00 0.000D+00 0.000D+00 0.000D+00 0.000D+00
 Coeff-En:   0.100D+01
 Coeff:     -0.936D-02 0.750D-02-0.424D-01-0.265D-01 0.108D+00 0.388D+00
 Coeff:      0.575D+00
 Gap=     0.165 Goal=   None    Shift=    0.000
 RMSDP=8.93D-05 MaxDP=5.11D-03 DE=-1.03D-03 OVMax= 4.70D-03

 Cycle   8  Pass 1  IDiag  1:
 RMSU=  3.93D-05    CP:  9.30D-01  2.46D-03  9.41D-01  1.45D+00  1.36D+00
                    CP:  1.02D+00  9.61D-01
 E= -572.226275524403     Delta-E=       -0.000195805681 Rises=F Damp=F
 DIIS: error= 1.38D-04 at cycle   8 NSaved=   8.
 NSaved= 8 IEnMin= 8 EnMin= -572.226275524403     IErMin= 8 ErrMin= 1.38D-04
 ErrMax= 1.38D-04  0.00D+00 EMaxC= 1.00D-01 BMatC= 1.58D-05 BMatP= 2.19D-04
 IDIUse=3 WtCom= 9.99D-01 WtEn= 1.38D-03
 Coeff-Com: -0.148D-02 0.198D-02-0.139D-01-0.234D-01 0.936D-02 0.113D+00
 Coeff-Com:  0.291D+00 0.623D+00
 Coeff-En:   0.000D+00 0.000D+00 0.000D+00 0.000D+00 0.000D+00 0.000D+00
 Coeff-En:   0.000D+00 0.100D+01
 Coeff:     -0.148D-02 0.198D-02-0.139D-01-0.234D-01 0.935D-02 0.113D+00
 Coeff:      0.290D+00 0.624D+00
 Gap=     0.165 Goal=   None    Shift=    0.000
 RMSDP=2.58D-05 MaxDP=3.24D-03 DE=-1.96D-04 OVMax= 1.78D-03

 Cycle   9  Pass 1  IDiag  1:
 RMSU=  1.38D-05    CP:  9.31D-01  2.52D-03  9.41D-01  1.46D+00  1.38D+00
                    CP:  1.05D+00  1.01D+00  8.53D-01
 E= -572.226288732138     Delta-E=       -0.000013207735 Rises=F Damp=F
 DIIS: error= 4.58D-05 at cycle   9 NSaved=   9.
 NSaved= 9 IEnMin= 9 EnMin= -572.226288732138     IErMin= 9 ErrMin= 4.58D-05
 ErrMax= 4.58D-05  0.00D+00 EMaxC= 1.00D-01 BMatC= 1.91D-06 BMatP= 1.58D-05
 IDIUse=1 WtCom= 1.00D+00 WtEn= 0.00D+00
 Coeff-Com: -0.770D-04 0.619D-03-0.364D-02-0.973D-02-0.525D-02 0.216D-01
 Coeff-Com:  0.962D-01 0.335D+00 0.566D+00
 Coeff:     -0.770D-04 0.619D-03-0.364D-02-0.973D-02-0.525D-02 0.216D-01
 Coeff:      0.962D-01 0.335D+00 0.566D+00
 Gap=     0.165 Goal=   None    Shift=    0.000
 RMSDP=5.83D-06 MaxDP=3.32D-04 DE=-1.32D-05 OVMax= 4.11D-04

 Cycle  10  Pass 1  IDiag  1:
 RMSU=  3.55D-06    CP:  9.31D-01  2.53D-03  9.41D-01  1.46D+00  1.38D+00
                    CP:  1.06D+00  1.03D+00  8.88D-01  7.61D-01
 E= -572.226290389791     Delta-E=       -0.000001657653 Rises=F Damp=F
 DIIS: error= 1.24D-05 at cycle  10 NSaved=  10.
 NSaved=10 IEnMin=10 EnMin= -572.226290389791     IErMin=10 ErrMin= 1.24D-05
 ErrMax= 1.24D-05  0.00D+00 EMaxC= 1.00D-01 BMatC= 1.34D-07 BMatP= 1.91D-06
 IDIUse=1 WtCom= 1.00D+00 WtEn= 0.00D+00
 Coeff-Com:  0.432D-04 0.112D-03-0.585D-03-0.253D-02-0.349D-02-0.128D-02
 Coeff-Com:  0.174D-01 0.104D+00 0.265D+00 0.622D+00
 Coeff:      0.432D-04 0.112D-03-0.585D-03-0.253D-02-0.349D-02-0.128D-02
 Coeff:      0.174D-01 0.104D+00 0.265D+00 0.622D+00
 Gap=     0.165 Goal=   None    Shift=    0.000
 RMSDP=2.65D-06 MaxDP=2.54D-04 DE=-1.66D-06 OVMax= 1.22D-04

 Cycle  11  Pass 1  IDiag  1:
 RMSU=  1.21D-06    CP:  9.31D-01  2.53D-03  9.41D-01  1.46D+00  1.38D+00
                    CP:  1.06D+00  1.03D+00  8.99D-01  7.78D-01  9.17D-01
 E= -572.226290521533     Delta-E=       -0.000000131742 Rises=F Damp=F
 DIIS: error= 5.01D-06 at cycle  11 NSaved=  11.
 NSaved=11 IEnMin=11 EnMin= -572.226290521533     IErMin=11 ErrMin= 5.01D-06
 ErrMax= 5.01D-06  0.00D+00 EMaxC= 1.00D-01 BMatC= 1.73D-08 BMatP= 1.34D-07
 IDIUse=1 WtCom= 1.00D+00 WtEn= 0.00D+00
 Coeff-Com: -0.315D-05 0.425D-04 0.524D-04-0.191D-03-0.106D-02-0.289D-02
 Coeff-Com: -0.120D-02 0.179D-01 0.719D-01 0.326D+00 0.589D+00
 Coeff:     -0.315D-05 0.425D-04 0.524D-04-0.191D-03-0.106D-02-0.289D-02
 Coeff:     -0.120D-02 0.179D-01 0.719D-01 0.326D+00 0.589D+00
 Gap=     0.165 Goal=   None    Shift=    0.000
 RMSDP=4.49D-07 MaxDP=1.70D-05 DE=-1.32D-07 OVMax= 4.17D-05

 Cycle  12  Pass 1  IDiag  1:
 RMSU=  3.25D-07    CP:  9.31D-01  2.53D-03  9.41D-01  1.46D+00  1.38D+00
                    CP:  1.06D+00  1.04D+00  9.02D-01  7.84D-01  9.38D-01
                    CP:  8.23D-01
 E= -572.226290534505     Delta-E=       -0.000000012972 Rises=F Damp=F
 DIIS: error= 2.17D-06 at cycle  12 NSaved=  12.
 NSaved=12 IEnMin=12 EnMin= -572.226290534505     IErMin=12 ErrMin= 2.17D-06
 ErrMax= 2.17D-06  0.00D+00 EMaxC= 1.00D-01 BMatC= 2.65D-09 BMatP= 1.73D-08
 IDIUse=1 WtCom= 1.00D+00 WtEn= 0.00D+00
 Coeff-Com: -0.302D-05 0.179D-04 0.773D-04 0.493D-04-0.430D-03-0.176D-02
 Coeff-Com: -0.202D-02 0.335D-02 0.235D-01 0.150D+00 0.365D+00 0.461D+00
 Coeff:     -0.302D-05 0.179D-04 0.773D-04 0.493D-04-0.430D-03-0.176D-02
 Coeff:     -0.202D-02 0.335D-02 0.235D-01 0.150D+00 0.365D+00 0.461D+00
 Gap=     0.165 Goal=   None    Shift=    0.000
 RMSDP=1.89D-07 MaxDP=1.33D-05 DE=-1.30D-08 OVMax= 1.94D-05

 Cycle  13  Pass 1  IDiag  1:
 RMSU=  1.13D-07    CP:  9.31D-01  2.53D-03  9.41D-01  1.46D+00  1.38D+00
                    CP:  1.06D+00  1.04D+00  9.03D-01  7.88D-01  9.53D-01
                    CP:  8.22D-01  7.36D-01
 E= -572.226290536859     Delta-E=       -0.000000002355 Rises=F Damp=F
 DIIS: error= 5.66D-07 at cycle  13 NSaved=  13.
 NSaved=13 IEnMin=13 EnMin= -572.226290536859     IErMin=13 ErrMin= 5.66D-07
 ErrMax= 5.66D-07  0.00D+00 EMaxC= 1.00D-01 BMatC= 2.24D-10 BMatP= 2.65D-09
 IDIUse=1 WtCom= 1.00D+00 WtEn= 0.00D+00
 Coeff-Com: -0.432D-06 0.207D-05 0.404D-04 0.566D-04-0.111D-03-0.679D-03
 Coeff-Com: -0.110D-02-0.745D-03 0.318D-02 0.414D-01 0.129D+00 0.262D+00
 Coeff-Com:  0.567D+00
 Coeff:     -0.432D-06 0.207D-05 0.404D-04 0.566D-04-0.111D-03-0.679D-03
 Coeff:     -0.110D-02-0.745D-03 0.318D-02 0.414D-01 0.129D+00 0.262D+00
 Coeff:      0.567D+00
 Gap=     0.165 Goal=   None    Shift=    0.000
 RMSDP=9.54D-08 MaxDP=9.11D-06 DE=-2.35D-09 OVMax= 5.48D-06

 Cycle  14  Pass 1  IDiag  1:
 RMSU=  4.15D-08    CP:  9.31D-01  2.53D-03  9.41D-01  1.46D+00  1.38D+00
                    CP:  1.06D+00  1.04D+00  9.03D-01  7.89D-01  9.55D-01
                    CP:  8.38D-01  7.97D-01  8.30D-01
 E= -572.226290537059     Delta-E=       -0.000000000200 Rises=F Damp=F
 DIIS: error= 1.80D-07 at cycle  14 NSaved=  14.
 NSaved=14 IEnMin=14 EnMin= -572.226290537059     IErMin=14 ErrMin= 1.80D-07
 ErrMax= 1.80D-07  0.00D+00 EMaxC= 1.00D-01 BMatC= 2.04D-11 BMatP= 2.24D-10
 IDIUse=1 WtCom= 1.00D+00 WtEn= 0.00D+00
 Coeff-Com:  0.356D-07-0.149D-06 0.105D-04 0.205D-04 0.164D-05-0.111D-03
 Coeff-Com: -0.271D-03-0.658D-03-0.125D-02 0.199D-02 0.175D-01 0.716D-01
 Coeff-Com:  0.287D+00 0.624D+00
 Coeff:      0.356D-07-0.149D-06 0.105D-04 0.205D-04 0.164D-05-0.111D-03
 Coeff:     -0.271D-03-0.658D-03-0.125D-02 0.199D-02 0.175D-01 0.716D-01
 Coeff:      0.287D+00 0.624D+00
 Gap=     0.165 Goal=   None    Shift=    0.000
 RMSDP=2.12D-08 MaxDP=1.55D-06 DE=-2.00D-10 OVMax= 1.40D-06

 Cycle  15  Pass 1  IDiag  1:
 RMSU=  1.18D-08    CP:  9.31D-01  2.53D-03  9.41D-01  1.46D+00  1.38D+00
                    CP:  1.06D+00  1.04D+00  9.03D-01  7.89D-01  9.56D-01
                    CP:  8.42D-01  7.99D-01  8.70D-01  8.11D-01
 E= -572.226290537093     Delta-E=       -0.000000000034 Rises=F Damp=F
 DIIS: error= 3.68D-08 at cycle  15 NSaved=  15.
 NSaved=15 IEnMin=15 EnMin= -572.226290537093     IErMin=15 ErrMin= 3.68D-08
 ErrMax= 3.68D-08  0.00D+00 EMaxC= 1.00D-01 BMatC= 1.15D-12 BMatP= 2.04D-11
 IDIUse=1 WtCom= 1.00D+00 WtEn= 0.00D+00
 Coeff-Com:  0.302D-06-0.216D-06 0.112D-05 0.247D-05 0.104D-04 0.153D-04
 Coeff-Com: -0.670D-05-0.127D-03-0.630D-03-0.217D-02-0.425D-02 0.367D-02
 Coeff-Com:  0.503D-01 0.198D+00 0.755D+00
 Coeff:      0.302D-06-0.216D-06 0.112D-05 0.247D-05 0.104D-04 0.153D-04
 Coeff:     -0.670D-05-0.127D-03-0.630D-03-0.217D-02-0.425D-02 0.367D-02
 Coeff:      0.503D-01 0.198D+00 0.755D+00
 Gap=     0.165 Goal=   None    Shift=    0.000
 RMSDP=7.09D-09 MaxDP=5.92D-07 DE=-3.37D-11 OVMax= 4.87D-07

 SCF Done:  E(RB3LYP) =  -572.226290537     A.U. after   15 cycles
            NFock= 15  Conv=0.71D-08     -V/T= 2.0040
 KE= 5.699303298590D+02 PE=-2.837769122488D+03 EE= 9.445048427460D+02
 Leave Link  502 at Wed Oct 11 20:28:45 2023, MaxMem=  6710886400 cpu:            1056.6 elap:              44.2
 (Enter /data0/home/software/g16/l601.exe)
 Copying SCF densities to generalized density rwf, IOpCl= 0 IROHF=0.

 **********************************************************************

            Population analysis using the SCF density.

 **********************************************************************

 Orbital symmetries:
       Occupied  (A) (A) (A) (A) (A) (A) (A) (A) (A) (A) (A) (A)
                 (A) (A) (A) (A) (A) (A) (A) (A) (A) (A) (A) (A)
                 (A) (A) (A) (A) (A) (A) (A) (A) (A) (A) (A) (A)
                 (A) (A) (A) (A) (A) (A) (A) (A) (A)
       Virtual   (A) (A) (A) (A) (A) (A) (A) (A) (A) (A) (A) (A)
                 (A) (A) (A) (A) (A) (A) (A) (A) (A) (A) (A) (A)
                 (A) (A) (A) (A) (A) (A) (A) (A) (A) (A) (A) (A)
                 (A) (A) (A) (A) (A) (A) (A) (A) (A) (A) (A) (A)
                 (A) (A) (A) (A) (A) (A) (A) (A) (A) (A) (A) (A)
                 (A) (A) (A) (A) (A) (A) (A) (A) (A) (A) (A) (A)
                 (A) (A) (A) (A) (A) (A) (A) (A) (A) (A) (A) (A)
                 (A) (A) (A) (A) (A) (A) (A) (A) (A) (A) (A) (A)
                 (A) (A) (A) (A) (A) (A) (A) (A) (A) (A) (A) (A)
                 (A) (A) (A) (A) (A) (A) (A) (A) (A) (A) (A) (A)
                 (A) (A) (A) (A) (A) (A) (A) (A) (A) (A) (A) (A)
                 (A) (A) (A) (A) (A) (A) (A) (A) (A) (A) (A) (A)
                 (A) (A) (A) (A) (A) (A) (A) (A) (A) (A) (A) (A)
                 (A) (A) (A) (A) (A) (A) (A) (A) (A) (A) (A) (A)
                 (A) (A) (A) (A) (A) (A) (A) (A) (A) (A) (A) (A)
                 (A) (A) (A) (A) (A) (A) (A) (A) (A) (A) (A) (A)
                 (A) (A) (A) (A) (A) (A) (A) (A) (A) (A) (A) (A)
                 (A) (A) (A) (A) (A) (A) (A) (A) (A) (A) (A) (A)
                 (A) (A) (A) (A) (A) (A) (A) (A) (A) (A) (A) (A)
                 (A) (A) (A) (A) (A) (A) (A) (A) (A) (A) (A) (A)
                 (A) (A) (A) (A) (A) (A) (A) (A) (A) (A) (A) (A)
                 (A) (A) (A) (A) (A) (A) (A) (A) (A) (A) (A) (A)
                 (A) (A) (A) (A) (A) (A) (A) (A) (A) (A) (A) (A)
                 (A) (A) (A) (A) (A) (A) (A) (A) (A) (A) (A) (A)
                 (A) (A) (A) (A) (A) (A) (A) (A) (A) (A) (A) (A)
                 (A) (A) (A) (A) (A) (A) (A) (A) (A) (A) (A) (A)
                 (A) (A) (A) (A) (A) (A) (A) (A) (A) (A) (A) (A)
                 (A) (A) (A) (A) (A) (A) (A) (A) (A) (A) (A) (A)
                 (A) (A) (A) (A) (A) (A) (A) (A) (A) (A) (A) (A)
                 (A) (A) (A)
 The electronic state is 1-A.
 Alpha  occ. eigenvalues --  -19.02973 -19.02932 -14.41961 -14.41635 -10.27586
 Alpha  occ. eigenvalues --  -10.24815 -10.24630 -10.23873 -10.23663 -10.21834
 Alpha  occ. eigenvalues --  -10.17958 -10.14294  -1.09281  -0.99495  -0.97541
 Alpha  occ. eigenvalues --   -0.90388  -0.82984  -0.79987  -0.76211  -0.71069
 Alpha  occ. eigenvalues --   -0.66661  -0.63761  -0.61415  -0.57501  -0.52474
 Alpha  occ. eigenvalues --   -0.50976  -0.49577  -0.49043  -0.48071  -0.47632
 Alpha  occ. eigenvalues --   -0.45896  -0.44526  -0.43714  -0.42132  -0.40937
 Alpha  occ. eigenvalues --   -0.38337  -0.37514  -0.37144  -0.33710  -0.33383
 Alpha  occ. eigenvalues --   -0.31657  -0.28472  -0.22412  -0.20717  -0.20080
 Alpha virt. eigenvalues --   -0.03629  -0.02231  -0.01339  -0.00420   0.00822
 Alpha virt. eigenvalues --    0.01676   0.02664   0.03270   0.03528   0.04604
 Alpha virt. eigenvalues --    0.05161   0.05682   0.06439   0.06905   0.07476
 Alpha virt. eigenvalues --    0.07918   0.08227   0.08638   0.09649   0.10333
 Alpha virt. eigenvalues --    0.10826   0.11543   0.11743   0.12272   0.12841
 Alpha virt. eigenvalues --    0.13632   0.13959   0.14150   0.14484   0.15549
 Alpha virt. eigenvalues --    0.15719   0.16301   0.16446   0.16870   0.17232
 Alpha virt. eigenvalues --    0.17886   0.18288   0.18805   0.18885   0.19520
 Alpha virt. eigenvalues --    0.20526   0.20876   0.21420   0.22155   0.22708
 Alpha virt. eigenvalues --    0.22888   0.23217   0.23474   0.24751   0.25038
 Alpha virt. eigenvalues --    0.26320   0.27102   0.27309   0.28157   0.28746
 Alpha virt. eigenvalues --    0.28946   0.30209   0.31014   0.31664   0.32047
 Alpha virt. eigenvalues --    0.33278   0.33733   0.34327   0.35293   0.36157
 Alpha virt. eigenvalues --    0.37138   0.37807   0.38827   0.39649   0.40436
 Alpha virt. eigenvalues --    0.41544   0.41813   0.43336   0.43813   0.44305
 Alpha virt. eigenvalues --    0.45940   0.46702   0.47216   0.49066   0.49636
 Alpha virt. eigenvalues --    0.49983   0.50370   0.52594   0.52977   0.53366
 Alpha virt. eigenvalues --    0.54194   0.54385   0.56308   0.58249   0.58663
 Alpha virt. eigenvalues --    0.59414   0.60252   0.60999   0.61796   0.62077
 Alpha virt. eigenvalues --    0.62509   0.63521   0.63866   0.65564   0.66422
 Alpha virt. eigenvalues --    0.67361   0.68400   0.68918   0.69791   0.70830
 Alpha virt. eigenvalues --    0.71349   0.72185   0.72790   0.74058   0.74659
 Alpha virt. eigenvalues --    0.75769   0.76323   0.77345   0.77915   0.79118
 Alpha virt. eigenvalues --    0.80068   0.81836   0.83337   0.84799   0.86303
 Alpha virt. eigenvalues --    0.87158   0.88608   0.90780   0.91426   0.92313
 Alpha virt. eigenvalues --    0.93844   0.95912   0.97776   0.98718   0.99097
 Alpha virt. eigenvalues --    1.02598   1.03387   1.03972   1.06237   1.06783
 Alpha virt. eigenvalues --    1.09308   1.11378   1.12160   1.13224   1.14589
 Alpha virt. eigenvalues --    1.14807   1.17542   1.18720   1.19327   1.19842
 Alpha virt. eigenvalues --    1.20074   1.21549   1.21964   1.22745   1.24426
 Alpha virt. eigenvalues --    1.25196   1.27197   1.27893   1.29373   1.30687
 Alpha virt. eigenvalues --    1.31094   1.33066   1.33694   1.34773   1.35389
 Alpha virt. eigenvalues --    1.37811   1.38232   1.39326   1.39586   1.40711
 Alpha virt. eigenvalues --    1.42888   1.44331   1.45114   1.46060   1.48125
 Alpha virt. eigenvalues --    1.49341   1.50878   1.52917   1.54118   1.55451
 Alpha virt. eigenvalues --    1.60161   1.62927   1.65426   1.69035   1.71361
 Alpha virt. eigenvalues --    1.73089   1.74983   1.75793   1.77319   1.78103
 Alpha virt. eigenvalues --    1.78536   1.81331   1.82066   1.83539   1.85174
 Alpha virt. eigenvalues --    1.86206   1.88346   1.90615   1.92533   1.95156
 Alpha virt. eigenvalues --    1.97248   1.99575   2.00509   2.01286   2.03034
 Alpha virt. eigenvalues --    2.06807   2.09102   2.14337   2.14951   2.17235
 Alpha virt. eigenvalues --    2.18032   2.20175   2.20989   2.22163   2.27146
 Alpha virt. eigenvalues --    2.29138   2.30794   2.32150   2.33242   2.34382
 Alpha virt. eigenvalues --    2.35962   2.36065   2.37792   2.40592   2.42725
 Alpha virt. eigenvalues --    2.44140   2.45739   2.49303   2.52537   2.55636
 Alpha virt. eigenvalues --    2.59044   2.60122   2.64705   2.67881   2.68865
 Alpha virt. eigenvalues --    2.71449   2.74968   2.75573   2.76227   2.77610
 Alpha virt. eigenvalues --    2.80442   2.83749   2.85554   2.86493   2.89704
 Alpha virt. eigenvalues --    2.91490   2.92096   2.93831   2.95880   2.99179
 Alpha virt. eigenvalues --    3.01659   3.06400   3.07110   3.11196   3.12769
 Alpha virt. eigenvalues --    3.15499   3.19197   3.22003   3.23235   3.24651
 Alpha virt. eigenvalues --    3.27114   3.28623   3.31260   3.33637   3.34816
 Alpha virt. eigenvalues --    3.36062   3.37966   3.39726   3.41756   3.45107
 Alpha virt. eigenvalues --    3.45666   3.47439   3.49794   3.50256   3.51439
 Alpha virt. eigenvalues --    3.52861   3.54128   3.55360   3.58102   3.59378
 Alpha virt. eigenvalues --    3.59997   3.61184   3.62635   3.62855   3.64600
 Alpha virt. eigenvalues --    3.66340   3.67030   3.68084   3.69850   3.72126
 Alpha virt. eigenvalues --    3.72905   3.76006   3.79350   3.82489   3.85709
 Alpha virt. eigenvalues --    3.86594   3.88895   3.90492   3.94283   3.95902
 Alpha virt. eigenvalues --    3.97272   4.01215   4.03032   4.07148   4.12913
 Alpha virt. eigenvalues --    4.20161   4.22507   4.24274   4.27824   4.32707
 Alpha virt. eigenvalues --    4.35112   4.42489   4.50925   4.57515   4.97487
 Alpha virt. eigenvalues --    5.00037   5.01215   5.08717   5.09589   5.13910
 Alpha virt. eigenvalues --    5.19848   5.21303   5.23980   5.29359   5.32610
 Alpha virt. eigenvalues --    5.35020   5.37308   5.49651   5.54816   5.64138
 Alpha virt. eigenvalues --    5.65527   5.87563   5.88503   6.15699   6.92780
 Alpha virt. eigenvalues --    6.94779   6.95625   7.00008   7.14489   7.19325
 Alpha virt. eigenvalues --    7.21842   7.32043   7.37476   7.43820  23.84248
 Alpha virt. eigenvalues --   23.93372  23.99024  24.00735  24.00991  24.11156
 Alpha virt. eigenvalues --   24.17067  24.18582  35.52979  35.61842  50.11259
 Alpha virt. eigenvalues --   50.12169
          Condensed to atoms (all electrons):
               1          2          3          4          5          6
     1  C    5.299034   0.338732  -0.278416   0.440998   0.392600  -0.035592
     2  C    0.338732   5.360121  -0.397289  -0.049940  -0.017689   0.405621
     3  C   -0.278416  -0.397289   7.519465  -0.074244   0.010165   0.006104
     4  N    0.440998  -0.049940  -0.074244   6.202576  -0.034609   0.012693
     5  H    0.392600  -0.017689   0.010165  -0.034609   0.520199  -0.001534
     6  H   -0.035592   0.405621   0.006104   0.012693  -0.001534   0.518645
     7  H    0.007972   0.008329   0.345397  -0.025228  -0.000041  -0.000030
     8  C   -0.081663   0.020811  -0.174968   0.296563  -0.003819   0.001091
     9  H    0.007364  -0.002996  -0.019288  -0.035584   0.000005   0.000014
    10  H   -0.010911   0.001140  -0.019801  -0.008166   0.000203  -0.000001
    11  H   -0.009537   0.014506   0.026993  -0.060065   0.002769  -0.000015
    12  N   -0.062969   0.370568   0.259565   0.036739   0.009050  -0.032513
    13  C   -0.044603   0.134084  -0.624445   0.105615   0.001308   0.002579
    14  H    0.006012  -0.016897   0.026171  -0.001575  -0.000011   0.000964
    15  H   -0.002590   0.006936  -0.015810  -0.000389   0.000014   0.000041
    16  C    0.078104  -0.139126   0.089540  -0.032264  -0.000722  -0.001358
    17  H   -0.000024   0.002023  -0.007022  -0.000239  -0.000001  -0.000100
    18  H    0.001066   0.009560  -0.012939   0.001194   0.000025  -0.000120
    19  C   -0.051602   0.013468   0.304188  -0.024021   0.000068  -0.001249
    20  H   -0.000930   0.001631   0.000785   0.000487   0.000001   0.000002
    21  H    0.001274  -0.001469  -0.000135  -0.000356   0.000000  -0.000005
    22  C    0.039372   0.026973  -0.452575   0.062985   0.000279   0.000535
    23  O    0.006742   0.003861  -0.124837   0.024012   0.000017  -0.000006
    24  O    0.008106  -0.001888   0.026047  -0.012064  -0.000114   0.000119
               7          8          9         10         11         12
     1  C    0.007972  -0.081663   0.007364  -0.010911  -0.009537  -0.062969
     2  C    0.008329   0.020811  -0.002996   0.001140   0.014506   0.370568
     3  C    0.345397  -0.174968  -0.019288  -0.019801   0.026993   0.259565
     4  N   -0.025228   0.296563  -0.035584  -0.008166  -0.060065   0.036739
     5  H   -0.000041  -0.003819   0.000005   0.000203   0.002769   0.009050
     6  H   -0.000030   0.001091   0.000014  -0.000001  -0.000015  -0.032513
     7  H    0.414726  -0.003635   0.001362  -0.000007  -0.000126  -0.030677
     8  C   -0.003635   4.961387   0.416598   0.418487   0.390404   0.009529
     9  H    0.001362   0.416598   0.527575  -0.026408  -0.020975  -0.001286
    10  H   -0.000007   0.418487  -0.026408   0.448033  -0.025883   0.006504
    11  H   -0.000126   0.390404  -0.020975  -0.025883   0.559454  -0.004917
    12  N   -0.030677   0.009529  -0.001286   0.006504  -0.004917   6.122093
    13  C    0.008908   0.025927  -0.001439   0.002089   0.000243   0.142137
    14  H   -0.000069  -0.000186  -0.000006   0.000003  -0.000002  -0.046953
    15  H    0.001909  -0.000140  -0.000020   0.000008  -0.000001  -0.058862
    16  C    0.008856  -0.002617   0.000802  -0.000578  -0.000464   0.051789
    17  H   -0.000025   0.000014  -0.000001   0.000001  -0.000000  -0.004464
    18  H    0.000548   0.000259  -0.000002   0.000003   0.000001   0.005912
    19  C   -0.012926  -0.003589  -0.000788  -0.000020   0.000208  -0.031058
    20  H   -0.000286   0.000167   0.000000   0.000007   0.000000  -0.001512
    21  H    0.000614  -0.000123   0.000000  -0.000004  -0.000000   0.000495
    22  C    0.008848   0.002990   0.003197  -0.001545  -0.000503   0.043023
    23  O    0.036633   0.010222  -0.000388   0.000426  -0.000028  -0.012957
    24  O   -0.023586  -0.005906  -0.001509   0.007733   0.000449  -0.003581
              13         14         15         16         17         18
     1  C   -0.044603   0.006012  -0.002590   0.078104  -0.000024   0.001066
     2  C    0.134084  -0.016897   0.006936  -0.139126   0.002023   0.009560
     3  C   -0.624445   0.026171  -0.015810   0.089540  -0.007022  -0.012939
     4  N    0.105615  -0.001575  -0.000389  -0.032264  -0.000239   0.001194
     5  H    0.001308  -0.000011   0.000014  -0.000722  -0.000001   0.000025
     6  H    0.002579   0.000964   0.000041  -0.001358  -0.000100  -0.000120
     7  H    0.008908  -0.000069   0.001909   0.008856  -0.000025   0.000548
     8  C    0.025927  -0.000186  -0.000140  -0.002617   0.000014   0.000259
     9  H   -0.001439  -0.000006  -0.000020   0.000802  -0.000001  -0.000002
    10  H    0.002089   0.000003   0.000008  -0.000578   0.000001   0.000003
    11  H    0.000243  -0.000002  -0.000001  -0.000464  -0.000000   0.000001
    12  N    0.142137  -0.046953  -0.058862   0.051789  -0.004464   0.005912
    13  C    6.228269   0.379133   0.510458  -0.380328  -0.014976  -0.068650
    14  H    0.379133   0.586524  -0.024414  -0.036130  -0.010390  -0.000485
    15  H    0.510458  -0.024414   0.486605  -0.082599   0.000084   0.006272
    16  C   -0.380328  -0.036130  -0.082599   5.647170   0.432036   0.457684
    17  H   -0.014976  -0.010390   0.000084   0.432036   0.609114  -0.038015
    18  H   -0.068650  -0.000485   0.006272   0.457684  -0.038015   0.569149
    19  C   -0.081772   0.009801   0.004913  -0.095621  -0.079559  -0.046745
    20  H    0.038558  -0.000291  -0.000241  -0.059244  -0.000319  -0.011051
    21  H   -0.032443  -0.000127   0.003190  -0.021570  -0.011115   0.007376
    22  C   -0.043143   0.002880  -0.008317   0.064633   0.022350   0.011456
    23  O    0.042273   0.001221   0.000634  -0.032495  -0.002026  -0.000141
    24  O   -0.027877  -0.000797  -0.000247   0.064900  -0.000140  -0.005868
              19         20         21         22         23         24
     1  C   -0.051602  -0.000930   0.001274   0.039372   0.006742   0.008106
     2  C    0.013468   0.001631  -0.001469   0.026973   0.003861  -0.001888
     3  C    0.304188   0.000785  -0.000135  -0.452575  -0.124837   0.026047
     4  N   -0.024021   0.000487  -0.000356   0.062985   0.024012  -0.012064
     5  H    0.000068   0.000001   0.000000   0.000279   0.000017  -0.000114
     6  H   -0.001249   0.000002  -0.000005   0.000535  -0.000006   0.000119
     7  H   -0.012926  -0.000286   0.000614   0.008848   0.036633  -0.023586
     8  C   -0.003589   0.000167  -0.000123   0.002990   0.010222  -0.005906
     9  H   -0.000788   0.000000   0.000000   0.003197  -0.000388  -0.001509
    10  H   -0.000020   0.000007  -0.000004  -0.001545   0.000426   0.007733
    11  H    0.000208   0.000000  -0.000000  -0.000503  -0.000028   0.000449
    12  N   -0.031058  -0.001512   0.000495   0.043023  -0.012957  -0.003581
    13  C   -0.081772   0.038558  -0.032443  -0.043143   0.042273  -0.027877
    14  H    0.009801  -0.000291  -0.000127   0.002880   0.001221  -0.000797
    15  H    0.004913  -0.000241   0.003190  -0.008317   0.000634  -0.000247
    16  C   -0.095621  -0.059244  -0.021570   0.064633  -0.032495   0.064900
    17  H   -0.079559  -0.000319  -0.011115   0.022350  -0.002026  -0.000140
    18  H   -0.046745  -0.011051   0.007376   0.011456  -0.000141  -0.005868
    19  C    5.845792   0.440545   0.453816  -0.054381  -0.136674  -0.122013
    20  H    0.440545   0.594806  -0.045557  -0.077054   0.009603  -0.005672
    21  H    0.453816  -0.045557   0.580931  -0.052486  -0.013143   0.006587
    22  C   -0.054381  -0.077054  -0.052486   4.992050   0.488284   0.403919
    23  O   -0.136674   0.009603  -0.013143   0.488284   8.375610  -0.050779
    24  O   -0.122013  -0.005672   0.006587   0.403919  -0.050779   8.313175
 Mulliken charges:
               1
     1  C   -0.048538
     2  C   -0.091069
     3  C   -0.412650
     4  N    0.174881
     5  H    0.121836
     6  H    0.124115
     7  H    0.252530
     8  C   -0.277804
     9  H    0.153771
    10  H    0.208689
    11  H    0.127491
    12  N    0.234346
    13  C   -0.301902
    14  H    0.125625
    15  H    0.172564
    16  C   -0.010397
    17  H    0.102795
    18  H    0.113511
    19  C   -0.330780
    20  H    0.115563
    21  H    0.124248
    22  C    0.516231
    23  O   -0.626064
    24  O   -0.568993
 Sum of Mulliken charges =  -0.00000
 Mulliken charges with hydrogens summed into heavy atoms:
               1
     1  C    0.073298
     2  C    0.033047
     3  C   -0.160120
     4  N    0.174881
     8  C    0.212147
    12  N    0.234346
    13  C   -0.003714
    16  C    0.205910
    19  C   -0.090969
    22  C    0.516231
    23  O   -0.626064
    24  O   -0.568993
 Electronic spatial extent (au):  <R**2>=           1890.7623
 Charge=              0.0000 electrons
 Dipole moment (field-independent basis, Debye):
    X=              5.9105    Y=              6.3452    Z=              0.4367  Tot=              8.6825
 Quadrupole moment (field-independent basis, Debye-Ang):
   XX=            -60.0084   YY=            -73.4388   ZZ=            -76.4502
   XY=            -10.3987   XZ=             -0.2288   YZ=             -0.4246
 Traceless Quadrupole moment (field-independent basis, Debye-Ang):
   XX=              9.9574   YY=             -3.4730   ZZ=             -6.4844
   XY=            -10.3987   XZ=             -0.2288   YZ=             -0.4246
 Octapole moment (field-independent basis, Debye-Ang**2):
  XXX=             39.5722  YYY=             24.0301  ZZZ=              5.1460  XYY=             20.1218
  XXY=             -2.8776  XXZ=            -15.9472  XZZ=              7.2315  YZZ=              7.4077
  YYZ=             -5.4248  XYZ=            -12.7269
 Hexadecapole moment (field-independent basis, Debye-Ang**3):
 XXXX=          -1362.0917 YYYY=           -769.6127 ZZZZ=           -286.8389 XXXY=            -35.3538
 XXXZ=            -27.4965 YYYX=            -32.5059 YYYZ=              1.9951 ZZZX=              0.1835
 ZZZY=             -1.7277 XXYY=           -364.1074 XXZZ=           -290.9817 YYZZ=           -189.0606
 XXYZ=              3.6173 YYXZ=              1.7815 ZZXY=            -13.5958
 N-N= 7.511076593460D+02 E-N=-2.837769127492D+03  KE= 5.699303298590D+02
 No NMR shielding tensors so no spin-rotation constants.
 Leave Link  601 at Wed Oct 11 20:28:45 2023, MaxMem=  6710886400 cpu:               3.6 elap:               0.2
 (Enter /data0/home/software/g16/l701.exe)
 ... and contract with generalized density number  0.
 Compute integral first derivatives.
 R6Disp: Adding Grimme-D3(BJ) dispersion energy 1st derivatives to the gradient.
 Leave Link  701 at Wed Oct 11 20:28:45 2023, MaxMem=  6710886400 cpu:               4.1 elap:               0.2
 (Enter /data0/home/software/g16/l702.exe)
 L702 exits ... SP integral derivatives will be done elsewhere.
 Leave Link  702 at Wed Oct 11 20:28:45 2023, MaxMem=  6710886400 cpu:               0.4 elap:               0.0
 (Enter /data0/home/software/g16/l703.exe)
 Integral derivatives from FoFJK, PRISM(SPDF).
 Compute integral first derivatives, UseDBF=F ICtDFT=           0.
 Calling FoFJK, ICntrl=      2127 FMM=F ISym2X=0 I1Cent= 0 IOpClX= 0 NMat=1 NMatS=1 NMatT=0.
 FoFJK:  IHMeth= 1 ICntrl=    2127 DoSepK=F KAlg= 0 I1Cent=           0 FoldK=F
 IRaf=         0 NMat=       1 IRICut=       1 DoRegI=T DoRafI=F ISym2E= 0 IDoP0=0 IntGTp=1.
 FoFCou: FMM=F IPFlag=           0 FMFlag=      100000 FMFlg1=         800
         NFxFlg=           0 DoJE=F BraDBF=F KetDBF=F FulRan=T
         wScrn=  0.000000 ICntrl=      2127 IOpCl=  0 I1Cent=           0 NGrid=           0
         NMat0=    1 NMatS0=      1 NMatT0=    0 NMatD0=    1 NMtDS0=    0 NMtDT0=    0
 Symmetry not used in FoFCou.
 Leave Link  703 at Wed Oct 11 20:28:54 2023, MaxMem=  6710886400 cpu:             223.3 elap:               9.4
 (Enter /data0/home/software/g16/l716.exe)
 Dipole        = 2.32537720D+00 2.49638844D+00 1.71805725D-01
 ***** Axes restored to original set *****
 -------------------------------------------------------------------
 Center     Atomic                   Forces (Hartrees/Bohr)
 Number     Number              X              Y              Z
 -------------------------------------------------------------------
      1        6          -0.000744194    0.000512106    0.000635808
      2        6           0.000085958    0.000991367    0.000510448
      3        6           0.001732870   -0.001882911   -0.000758681
      4        7          -0.000200711   -0.000377394   -0.000039105
      5        1           0.000170739   -0.000025246   -0.000107875
      6        1          -0.000069546   -0.000178059   -0.000064895
      7        1           0.000357478    0.000009578    0.000224377
      8        6           0.000029843    0.000121913    0.000012368
      9        1           0.000060242    0.000209456    0.000165324
     10        1          -0.000217476    0.000075363   -0.000155084
     11        1           0.000277547    0.000102743   -0.000069858
     12        7           0.000634833    0.000020852    0.000061505
     13        6           0.000079025   -0.000260413    0.000472799
     14        1           0.000027308   -0.000271822    0.000168674
     15        1          -0.000245202    0.000196262    0.000254507
     16        6          -0.000504433   -0.000245237   -0.000401743
     17        1          -0.000211887   -0.000156830   -0.000103134
     18        1           0.000139020   -0.000054991   -0.000223262
     19        6          -0.000701841    0.000064316   -0.000270523
     20        1          -0.000026064    0.000163204   -0.000157859
     21        1          -0.000131963    0.000044479    0.000189023
     22        6          -0.000352353    0.000930164   -0.000279929
     23        8          -0.000423370    0.000074854    0.000383534
     24        8           0.000234178   -0.000063756   -0.000446418
 -------------------------------------------------------------------
 Cartesian Forces:  Max     0.001882911 RMS     0.000444636
 Leave Link  716 at Wed Oct 11 20:28:54 2023, MaxMem=  6710886400 cpu:               0.5 elap:               0.0
 (Enter /data0/home/software/g16/l103.exe)

 GradGradGradGradGradGradGradGradGradGradGradGradGradGradGradGradGradGrad
 Berny optimization.
 FormGI is forming the generalized inverse of G from B-inverse, IUseBI=4.
 Internal  Forces:  Max     0.003453568 RMS     0.000706131
 Search for a local minimum.
 Step number   1 out of a maximum of  132
 All quantities printed in internal units (Hartrees-Bohrs-Radians)
 RMS Force = .70613D-03 SwitMx=.10000D-02 MixMth= 2
 Mixed Optimization -- En-DIIS/RFO-DIIS
 Second derivative matrix not updated -- first step.
 ITU=  0
     Eigenvalues ---    0.00230   0.00230   0.00230   0.00374   0.00673
     Eigenvalues ---    0.00892   0.01626   0.01824   0.02156   0.02211
     Eigenvalues ---    0.02437   0.02457   0.02589   0.03265   0.04159
     Eigenvalues ---    0.04331   0.04701   0.05191   0.05411   0.07665
     Eigenvalues ---    0.07760   0.08586   0.08660   0.09448   0.12385
     Eigenvalues ---    0.12394   0.12750   0.15848   0.15998   0.15999
     Eigenvalues ---    0.16000   0.16000   0.16000   0.21964   0.21970
     Eigenvalues ---    0.22007   0.22691   0.23315   0.23595   0.23964
     Eigenvalues ---    0.25000   0.25000   0.28149   0.28314   0.28434
     Eigenvalues ---    0.34375   0.34483   0.34642   0.34659   0.34709
     Eigenvalues ---    0.34752   0.34878   0.34915   0.34924   0.35030
     Eigenvalues ---    0.35052   0.36566   0.36571   0.36904   0.43235
     Eigenvalues ---    0.46539   0.49976   0.56535   0.57161   0.79828
     Eigenvalues ---    0.80662
 RFO step:  Lambda=-7.82823854D-04 EMin= 2.30000000D-03
 Linear search not attempted -- first point.
 Iteration  1 RMS(Cart)=  0.11821727 RMS(Int)=  0.00280857
 Iteration  2 RMS(Cart)=  0.00518684 RMS(Int)=  0.00003386
 Iteration  3 RMS(Cart)=  0.00000836 RMS(Int)=  0.00003347
 Iteration  4 RMS(Cart)=  0.00000000 RMS(Int)=  0.00003347
 ITry= 1 IFail=0 DXMaxC= 6.04D-01 DCOld= 1.00D+10 DXMaxT= 3.00D-01 DXLimC= 3.00D+00 Rises=F
 Variable       Old X    -DE/DX   Delta X   Delta X   Delta X     New X
                                 (Linear)    (Quad)   (Total)
    R1        2.56128   0.00014   0.00000   0.00018   0.00018   2.56146
    R2        2.61316   0.00101   0.00000   0.00200   0.00200   2.61516
    R3        2.03206  -0.00020   0.00000  -0.00056  -0.00056   2.03150
    R4        2.03198  -0.00020   0.00000  -0.00054  -0.00054   2.03144
    R5        2.61533   0.00051   0.00000   0.00107   0.00107   2.61640
    R6        2.51845   0.00072   0.00000   0.00126   0.00126   2.51971
    R7        2.05798   0.00007   0.00000   0.00019   0.00019   2.05817
    R8        2.52173   0.00036   0.00000   0.00070   0.00070   2.52243
    R9        2.75991  -0.00052   0.00000  -0.00141  -0.00141   2.75850
   R10        2.05626  -0.00025   0.00000  -0.00071  -0.00071   2.05555
   R11        2.06150  -0.00026   0.00000  -0.00073  -0.00073   2.06077
   R12        2.05591  -0.00026   0.00000  -0.00074  -0.00074   2.05516
   R13        2.79113  -0.00182   0.00000  -0.00520  -0.00520   2.78593
   R14        2.06079  -0.00030   0.00000  -0.00087  -0.00087   2.05991
   R15        2.05873  -0.00038   0.00000  -0.00109  -0.00109   2.05764
   R16        2.91814  -0.00234   0.00000  -0.00827  -0.00827   2.90986
   R17        2.06701  -0.00026   0.00000  -0.00075  -0.00075   2.06626
   R18        2.06522  -0.00027   0.00000  -0.00078  -0.00078   2.06444
   R19        2.91200  -0.00168   0.00000  -0.00588  -0.00588   2.90612
   R20        2.06261  -0.00018   0.00000  -0.00052  -0.00052   2.06209
   R21        2.06232  -0.00023   0.00000  -0.00066  -0.00066   2.06166
   R22        2.91458  -0.00017   0.00000  -0.00060  -0.00060   2.91398
   R23        2.38009  -0.00038   0.00000  -0.00047  -0.00047   2.37961
   R24        2.37561  -0.00047   0.00000  -0.00058  -0.00058   2.37503
    A1        1.86576  -0.00006   0.00000  -0.00032  -0.00033   1.86543
    A2        2.28515   0.00002   0.00000   0.00013   0.00013   2.28528
    A3        2.13221   0.00004   0.00000   0.00021   0.00021   2.13243
    A4        2.28261   0.00018   0.00000   0.00072   0.00071   2.28333
    A5        1.87084  -0.00041   0.00000  -0.00179  -0.00180   1.86904
    A6        2.12971   0.00023   0.00000   0.00104   0.00104   2.13075
    A7        2.21255   0.00076   0.00000   0.00360   0.00360   2.21615
    A8        1.89603  -0.00100   0.00000  -0.00398  -0.00398   1.89205
    A9        2.16877   0.00024   0.00000   0.00048   0.00048   2.16925
   A10        1.89842   0.00046   0.00000   0.00219   0.00218   1.90059
   A11        2.20725  -0.00049   0.00000  -0.00206  -0.00205   2.20520
   A12        2.14179   0.00003   0.00000   0.00022   0.00022   2.14201
   A13        1.91116  -0.00015   0.00000  -0.00095  -0.00096   1.91020
   A14        1.88742   0.00023   0.00000   0.00160   0.00161   1.88903
   A15        1.90436  -0.00025   0.00000  -0.00172  -0.00172   1.90264
   A16        1.91206   0.00002   0.00000   0.00049   0.00049   1.91255
   A17        1.91014   0.00013   0.00000   0.00047   0.00047   1.91061
   A18        1.93843   0.00001   0.00000   0.00008   0.00008   1.93852
   A19        1.89333   0.00101   0.00000   0.00366   0.00363   1.89696
   A20        2.17717   0.00064   0.00000   0.00180   0.00178   2.17895
   A21        2.18606  -0.00171   0.00000  -0.00801  -0.00802   2.17804
   A22        1.85605   0.00120   0.00000   0.01218   0.01222   1.86826
   A23        1.87024   0.00025   0.00000  -0.00816  -0.00828   1.86196
   A24        1.95831  -0.00233   0.00000  -0.01169  -0.01176   1.94655
   A25        1.89944  -0.00028   0.00000   0.00246   0.00249   1.90194
   A26        1.93992   0.00085   0.00000   0.01010   0.01014   1.95006
   A27        1.93636   0.00035   0.00000  -0.00455  -0.00469   1.93167
   A28        1.87149   0.00098   0.00000   0.00722   0.00729   1.87878
   A29        1.88916   0.00110   0.00000  -0.00030  -0.00043   1.88873
   A30        2.00122  -0.00345   0.00000  -0.01737  -0.01741   1.98382
   A31        1.86743  -0.00049   0.00000   0.00364   0.00364   1.87107
   A32        1.91478   0.00143   0.00000   0.01169   0.01174   1.92652
   A33        1.91473   0.00060   0.00000  -0.00348  -0.00359   1.91114
   A34        1.89894   0.00060   0.00000   0.00233   0.00233   1.90127
   A35        1.91770   0.00057   0.00000   0.00130   0.00129   1.91899
   A36        1.91106  -0.00235   0.00000  -0.01165  -0.01165   1.89941
   A37        1.90310  -0.00032   0.00000   0.00186   0.00185   1.90495
   A38        1.92883   0.00080   0.00000   0.00411   0.00410   1.93293
   A39        1.90421   0.00070   0.00000   0.00212   0.00210   1.90632
   A40        2.02439   0.00046   0.00000   0.00056   0.00046   2.02486
   A41        2.03625  -0.00000   0.00000  -0.00128  -0.00137   2.03488
   A42        2.20952  -0.00047   0.00000  -0.00315  -0.00325   2.20628
    D1        3.12935   0.00005   0.00000   0.00041   0.00041   3.12976
    D2       -0.00443   0.00015   0.00000   0.00592   0.00592   0.00149
    D3        0.00033   0.00002   0.00000  -0.00093  -0.00093  -0.00060
    D4       -3.13345   0.00012   0.00000   0.00458   0.00458  -3.12887
    D5        0.01954   0.00002   0.00000   0.00067   0.00067   0.02021
    D6        2.88084   0.00007   0.00000   0.00217   0.00218   2.88301
    D7       -3.13327   0.00005   0.00000   0.00186   0.00186  -3.13141
    D8       -0.27197   0.00010   0.00000   0.00337   0.00337  -0.26860
    D9       -0.01213  -0.00027   0.00000  -0.01049  -0.01050  -0.02263
   D10       -2.91813   0.00021   0.00000   0.00174   0.00178  -2.91635
   D11        3.13644  -0.00018   0.00000  -0.00556  -0.00558   3.13086
   D12        0.23044   0.00030   0.00000   0.00667   0.00670   0.23713
   D13        3.00157  -0.00016   0.00000  -0.00627  -0.00626   2.99531
   D14        0.12758  -0.00010   0.00000  -0.00725  -0.00724   0.12034
   D15       -0.02740  -0.00017   0.00000  -0.00721  -0.00720  -0.03459
   D16       -2.90139  -0.00011   0.00000  -0.00819  -0.00818  -2.90957
   D17        0.02452   0.00028   0.00000   0.01093   0.01094   0.03546
   D18        2.92903   0.00019   0.00000   0.00029   0.00031   2.92934
   D19       -3.00792   0.00022   0.00000   0.00977   0.00977  -2.99815
   D20       -0.10342   0.00013   0.00000  -0.00087  -0.00085  -0.10427
   D21        2.57275  -0.00010   0.00000  -0.00123  -0.00123   2.57152
   D22       -1.62795  -0.00002   0.00000  -0.00024  -0.00024  -1.62819
   D23        0.48246  -0.00002   0.00000  -0.00018  -0.00019   0.48227
   D24       -0.88542  -0.00000   0.00000   0.00068   0.00068  -0.88473
   D25        1.19707   0.00008   0.00000   0.00167   0.00168   1.19874
   D26       -2.97571   0.00008   0.00000   0.00173   0.00173  -2.97398
   D27       -0.81274   0.00025   0.00000   0.03569   0.03569  -0.77705
   D28       -2.84198  -0.00013   0.00000   0.03081   0.03087  -2.81111
   D29        1.31170   0.00070   0.00000   0.04922   0.04918   1.36088
   D30        2.60338   0.00038   0.00000   0.04809   0.04808   2.65146
   D31        0.57414  -0.00000   0.00000   0.04322   0.04326   0.61740
   D32       -1.55537   0.00083   0.00000   0.06163   0.06158  -1.49379
   D33       -2.64439  -0.00092   0.00000  -0.12175  -0.12173  -2.76612
   D34       -0.63526  -0.00044   0.00000  -0.11398  -0.11397  -0.74923
   D35        1.50834  -0.00121   0.00000  -0.13068  -0.13064   1.37770
   D36       -0.56863  -0.00038   0.00000  -0.10723  -0.10724  -0.67586
   D37        1.44050   0.00011   0.00000  -0.09945  -0.09947   1.34103
   D38       -2.69909  -0.00066   0.00000  -0.11615  -0.11614  -2.81522
   D39        1.54742   0.00009   0.00000  -0.10033  -0.10036   1.44706
   D40       -2.72664   0.00057   0.00000  -0.09255  -0.09259  -2.81923
   D41       -0.58304  -0.00020   0.00000  -0.10925  -0.10926  -0.69230
   D42       -2.89700   0.00031   0.00000   0.01366   0.01362  -2.88339
   D43        1.30385  -0.00000   0.00000   0.00921   0.00917   1.31303
   D44       -0.78726   0.00024   0.00000   0.01303   0.01299  -0.77428
   D45        1.27942   0.00036   0.00000   0.00752   0.00753   1.28696
   D46       -0.80291   0.00004   0.00000   0.00308   0.00309  -0.79981
   D47       -2.89402   0.00029   0.00000   0.00689   0.00690  -2.88712
   D48       -0.76724  -0.00024   0.00000  -0.00173  -0.00170  -0.76894
   D49       -2.84957  -0.00056   0.00000  -0.00617  -0.00614  -2.85572
   D50        1.34249  -0.00031   0.00000  -0.00236  -0.00233   1.34016
   D51        1.76152  -0.00014   0.00000  -0.03305  -0.03304   1.72848
   D52       -1.21899  -0.00003   0.00000  -0.00902  -0.00902  -1.22801
   D53       -2.43016  -0.00038   0.00000  -0.03501  -0.03501  -2.46516
   D54        0.87252  -0.00027   0.00000  -0.01097  -0.01098   0.86153
   D55       -0.33785   0.00016   0.00000  -0.02886  -0.02885  -0.36669
   D56        2.96483   0.00027   0.00000  -0.00482  -0.00482   2.96001
         Item               Value     Threshold  Converged?
 Maximum Force            0.003454     0.000450     NO 
 RMS     Force            0.000706     0.000300     NO 
 Maximum Displacement     0.603887     0.001800     NO 
 RMS     Displacement     0.118139     0.001200     NO 
 Predicted change in Energy=-4.408467D-04
[...]
 54,0.00011462,-0.00005840,0.00023698,-0.00020062,0.00030457,-0.0000207
 0,0.00029736,-0.00054053,-0.00019618,0.00020506,-0.00009137,0.00052234
 ,0.00004762,0.00004308,-0.00002100,-0.00002933,-0.00006437,-0.00004733
 ,-0.00003932,0.00001990,-0.00000383,-0.03657979,-0.00358844,-0.0232198
 5,-0.09519229,0.01244513,-0.03118505,-0.00227918,0.00077836,-0.0033435
 0,0.00824233,-0.00241389,0.00581267,0.52651716,-0.00093248,-0.00111022
 ,0.00008409,0.00106893,-0.00023922,-0.00097974,-0.00069828,0.00122257,
 -0.00204676,-0.00180325,-0.00035857,0.00203464,0.00003063,-0.00006892,
 0.00003980,-0.00005077,0.00006882,0.00008138,-0.00082399,0.00053426,-0
 .00028211,0.00029555,0.00052478,0.00024429,-0.00000967,-0.00000422,-0.
 00004654,-0.00011599,-0.00014626,0.00006150,-0.00001978,-0.00007335,0.
 00003380,-0.01052128,0.00179595,-0.01098728,0.00897912,-0.08195568,0.0
 1237169,0.01800841,-0.00355068,0.02615023,-0.00792563,0.00455689,-0.01
 092080,0.05547871,0.48338349,0.00090922,0.00205127,-0.00028660,0.00043
 478,0.00052505,0.00121162,-0.00122483,-0.00163288,0.00167215,0.0028507
 6,-0.00039825,-0.00173652,-0.00008042,0.00018313,-0.00022486,0.0001445
 3,-0.00029195,0.00043899,0.00060600,-0.00053682,-0.00017495,-0.0002187
 0,-0.00043219,-0.00016042,0.00001603,0.00001396,0.00004051,0.00005528,
 0.00014199,0.00000116,0.00003364,0.00005683,-0.00001567,-0.00308529,-0
 .00436326,0.00687591,-0.03497356,0.01159291,-0.13559141,-0.00341852,-0
 .00009573,-0.00431077,-0.01680480,0.00568280,-0.02216756,-0.06680068,0
 .01714674,0.50726334,-0.00023268,-0.00040934,0.00000185,0.00059451,-0.
 00049305,-0.00087330,0.00054703,0.00164198,-0.00042558,-0.00094441,-0.
 00015547,0.00058479,-0.00000119,-0.00003478,0.00001675,-0.00005312,-0.
 00004523,0.00005551,-0.00028787,0.00022783,0.00002187,0.00020453,0.000
 17817,0.00014155,-0.00001300,-0.00000992,-0.00001985,-0.00007752,-0.00
 007322,0.00000674,-0.00001638,-0.00002398,0.00001514,-0.00331330,-0.00
 051956,-0.00366111,-0.01533518,-0.01160463,0.00207297,0.00031995,0.000
 48175,0.00043344,-0.00008023,0.00000145,-0.00039263,-0.18845521,-0.126
 32537,0.00830946,0.20786718,0.00011207,0.00004018,-0.00000489,-0.00014
 845,0.00018598,0.00035004,0.00051215,-0.00101444,0.00025598,-0.0001038
 8,0.00030967,-0.00013409,0.00001245,0.00002450,-0.00000679,-0.00000688
 ,-0.00000964,0.00000436,0.00038149,-0.00026330,-0.00007898,0.00002846,
 0.00004567,-0.00007750,0.00001534,-0.00000475,0.00001357,0.00011402,0.
 00001906,0.00000500,-0.00001168,0.00003145,-0.00000964,0.00295691,0.00
 152875,0.00138453,0.00383043,0.00166079,0.00003336,0.00062023,0.001336
 87,-0.00033387,-0.00023177,-0.00003568,-0.00013693,-0.12988317,-0.1567
 0414,0.00783459,0.13572474,0.17411597,-0.00042804,-0.00075330,0.000048
 60,0.00037144,-0.00005326,-0.00042782,-0.00001969,0.00066310,-0.000516
 55,-0.00087517,0.00002329,0.00083808,0.00001329,-0.00004576,0.00004568
 ,-0.00004038,0.00011577,-0.00008891,-0.00032155,0.00024596,-0.00004807
 ,0.00007810,0.00016859,0.00011039,0.00000115,0.00000013,-0.00001750,-0
 .00005030,-0.00005520,0.00000321,-0.00001486,-0.00002953,0.00001006,-0
 .00327098,-0.00038518,-0.00400622,-0.02102853,-0.01509981,0.00013328,-
 0.00005515,-0.00012727,0.00184646,0.00063080,-0.00019499,-0.00039003,0
 .01055378,0.00830083,-0.04931750,-0.00690004,-0.01085342,0.05037868,-0
 .00015937,0.00003794,0.00004211,-0.00019252,0.00034733,0.00009918,-0.0
 0018165,-0.00031737,0.00002514,0.00026528,-0.00002233,-0.00011184,-0.0
 0003183,0.00004100,-0.00007558,-0.00016913,0.00005930,-0.00011422,-0.0
 0007789,0.00011745,-0.00002074,-0.00001733,-0.00004572,-0.00000389,0.0
 0000067,0.00000777,-0.00000010,-0.00002195,0.00000514,0.00000418,0.000
 01298,0.00000256,0.00000417,0.00230853,-0.00019004,-0.00086979,0.00725
 249,-0.00426951,-0.02078852,0.00022847,0.00004909,0.00066821,-0.002415
 40,0.00053654,-0.00348746,-0.11563571,0.02234427,0.11405016,-0.0121391
 1,0.00412910,0.02042886,0.12883124,0.00000486,-0.00012415,-0.00004146,
 -0.00010219,0.00033533,0.00010990,-0.00016219,0.00001107,-0.00023036,0
 .00012236,0.00011064,0.00002327,0.00000921,0.00000174,0.00003137,0.000
 19420,-0.00004475,0.00005886,0.00011641,-0.00007667,0.00001342,-0.0000
 4420,-0.00005278,-0.00003043,0.00000319,0.00000024,0.00000565,-0.00002
 332,-0.00000315,-0.00001205,0.00000823,0.00000269,-0.00000016,0.000280
 91,0.00040582,-0.00057226,-0.00374996,0.00042246,0.00315255,-0.0001499
 1,-0.00006651,-0.00018126,0.00061114,-0.00000969,0.00000811,0.02198332
 ,-0.05342989,-0.03615178,-0.01011787,0.00375709,0.01884632,-0.02922549
 ,0.05788339,-0.00047016,-0.00049303,0.00021376,-0.00018899,-0.00012989
 ,0.00034861,-0.00004168,-0.00036826,0.00004356,-0.00005154,0.00053897,
 0.00023605,-0.00000901,-0.00002113,0.00001738,-0.00018532,0.00031622,-
 0.00018902,0.00017088,-0.00001900,-0.00007821,-0.00017335,-0.00003394,
 -0.00007874,0.00001862,0.00001595,0.00000491,0.00006210,0.00004032,-0.
 00001378,0.00000091,-0.00000320,0.00000102,0.00240656,0.00018303,0.001
 90089,0.01112363,-0.00486105,-0.02622047,-0.00041460,0.00028884,-0.000
 19109,-0.00306875,0.00190741,-0.00248488,0.11000014,-0.03891269,-0.227
 86197,0.00055255,0.00074562,-0.00001250,-0.11847462,0.03965080,0.25066
 705,0.00004743,0.00017793,-0.00026635,-0.00008891,-0.00009228,-0.00011
 883,-0.00048652,0.00030877,0.00066907,0.00115890,-0.00003296,-0.000446
 73,-0.00000024,-0.00001191,-0.00001538,0.00005451,-0.00008557,0.000011
 60,-0.00006432,-0.00021548,0.00015976,-0.00021641,-0.00046548,0.000137
 43,0.00002776,0.00002634,0.00000887,0.00018589,0.00007811,-0.00007097,
 -0.00000610,0.00008518,-0.00004320,-0.00057341,-0.00024140,0.00073715,
 -0.00635274,0.01717424,-0.00167832,-0.00075935,0.00043163,-0.00171581,
 0.00142706,-0.00048566,0.00102017,-0.09060880,0.03730012,0.00156246,0.
 01055132,-0.02183402,0.00096265,-0.00864547,0.01835409,-0.00069831,0.5
 0813671,-0.00006882,0.00004464,0.00014663,0.00037154,-0.00009050,-0.00
 007077,-0.00037154,0.00096633,0.00053873,0.00044513,0.00034423,-0.0003
 8390,-0.00000210,0.00001920,0.00001660,-0.00002146,0.00001190,0.000050
 65,0.00106355,-0.00103421,-0.00002637,0.00008643,-0.00005941,0.0000123
 9,0.00002881,0.00000752,-0.00000276,0.00005320,0.00011408,-0.00007096,
 -0.00001600,0.00003306,-0.00000435,-0.00214529,-0.00041490,0.00002959,
 0.00667798,-0.00514601,0.00782143,0.00008278,0.00113506,-0.00108933,-0
 .00065827,0.00005346,-0.00086647,0.02299048,-0.15154946,-0.00287008,0.
 01159048,-0.02496727,-0.00115698,0.00433526,-0.00778644,-0.00018941,-0
 .01136791,0.38533928,-0.00032476,-0.00034615,0.00013634,0.00039221,-0.
 00032353,-0.00036639,-0.00056922,0.00176711,-0.00035745,0.00050533,0.0
 0026124,0.00021510,-0.00000287,-0.00003102,0.00004004,-0.00009517,0.00
 012535,-0.00015191,0.00052237,-0.00091843,0.00002766,-0.00004823,-0.00
 029586,0.00001319,0.00002788,0.00000753,0.00001082,-0.00032535,-0.0000
 1155,-0.00008247,0.00003192,-0.00002627,0.00004961,-0.00024763,-0.0007
 7180,0.00052437,-0.00956964,0.02754264,-0.00390729,-0.00390820,0.00144
 563,-0.00395456,-0.00004001,0.00068319,0.00155703,0.00147612,-0.000609
 88,-0.07498144,0.00031918,0.00097191,0.00031597,0.00991615,-0.02509020
 ,0.00136671,-0.02927484,0.00036701,0.61316246,-0.00004726,-0.00008513,
 0.00002547,0.00009341,-0.00003498,-0.00002483,0.00008315,0.00020312,-0
 .00019614,-0.00015761,0.00000731,0.00014399,-0.00001255,0.00000379,-0.
 00000615,-0.00000417,0.00001526,-0.00002792,0.00016641,-0.00013949,0.0
 0000803,0.00002013,0.00004102,-0.00000934,0.00000833,-0.00000584,0.000
 00884,-0.00001645,-0.00002434,-0.00000932,-0.00000898,-0.00000152,0.00
 000454,0.00042349,-0.00027161,0.00008068,0.00004481,0.00323938,-0.0000
 7196,-0.00055816,0.00016828,-0.00068428,-0.00005295,-0.00009757,0.0000
 7505,-0.00665508,0.00302858,-0.01134461,0.00019447,0.00016489,0.000208
 03,0.00036859,-0.00042210,-0.00033046,-0.08743665,0.01534404,-0.087549
 32,0.08943757,0.00012027,0.00012114,-0.00003767,-0.00017123,0.00020739
 ,0.00020882,-0.00017258,-0.00051749,0.00002824,0.00024931,0.00009618,-
 0.00006318,0.00000930,0.00002338,0.00000380,-0.00000166,0.00000126,0.0
 0004652,0.00029500,-0.00032871,-0.00005480,-0.00003695,-0.00005835,-0.
 00002964,0.00001908,0.00000338,0.00001297,0.00002211,0.00000843,-0.000
 00355,0.00000407,0.00001539,0.00000187,0.00025174,0.00018451,-0.000102
 98,0.00096471,-0.00613158,-0.00027234,0.00109651,-0.00043407,0.0012609
 2,-0.00015521,0.00001813,-0.00035827,0.01435238,-0.00616312,0.02854891
 ,-0.00082632,0.00068714,0.00004894,0.00002928,0.00191733,-0.00007046,0
 .01268763,-0.04738480,0.03507966,-0.01857145,0.05719545,-0.00002524,0.
 00000225,0.00002858,-0.00003823,-0.00002767,0.00000373,0.00010529,-0.0
 0000300,-0.00011958,-0.00018349,0.00001392,0.00007551,-0.00000234,-0.0
 0000244,0.00000488,0.00000662,-0.00000534,-0.00000241,0.00024788,-0.00
 021669,-0.00003577,0.00003497,0.00006598,-0.00001896,0.00001046,-0.000
 00531,0.00000657,0.00000487,-0.00001939,-0.00000189,-0.00001029,0.0000
 0274,0.00000515,0.00003178,0.00014931,0.00001189,0.00055784,-0.0001925
 3,0.00102617,-0.00011676,-0.00010742,0.00011686,0.00020117,-0.00020947
 ,0.00034688,0.00086497,-0.00102112,0.00018843,-0.00003536,0.00051030,-
 0.00018920,-0.00006244,0.00012312,0.00125126,-0.09111071,0.03856713,-0
 .26570855,0.09923148,-0.03940261,0.28601847,0.00011615,0.00009395,-0.0
 0002440,-0.00009288,0.00004728,0.00000983,0.00035116,-0.00041237,0.000
 36614,-0.00019368,-0.00011588,-0.00013555,0.00001108,0.00000289,-0.000
 00229,0.00001672,-0.00002337,0.00002947,-0.00020854,0.00019086,0.00005
 170,0.00003254,0.00006678,0.00003551,-0.00000188,-0.00000282,-0.000000
 66,0.00014713,0.00000370,0.00001566,-0.00002152,0.00002377,-0.00001821
 ,0.00026712,0.00000992,-0.00016531,-0.00006538,-0.00018252,0.00094523,
 0.00009325,-0.00003761,-0.00019353,-0.00043149,0.00009482,-0.00052410,
 -0.00844563,0.00116014,0.00745032,0.00109051,0.00014186,-0.00043031,0.
 00018827,0.00163727,-0.00025220,-0.18195716,0.01823630,0.12453872,0.01
 067824,-0.00194736,-0.00828990,0.19581507,0.00000633,-0.00007289,0.000
 04949,-0.00008062,0.00000159,0.00006392,0.00024635,-0.00046637,0.00036
 951,-0.00010102,0.00009752,-0.00007794,-0.00000218,0.00000113,-0.00000
 152,-0.00006682,0.00007450,-0.00004377,-0.00001131,0.00004211,-0.00001
 677,-0.00004726,-0.00001004,0.00001686,0.00000646,0.00000828,0.0000011
 6,0.00013204,0.00002501,0.00000126,-0.00001711,0.00002456,-0.00001863,
 -0.00005099,0.00031231,-0.00004936,-0.00077325,0.00049407,-0.00118938,
 -0.00020674,0.00005525,0.00007411,0.00004341,0.00028667,0.00066184,0.0
 2360225,-0.00709194,-0.02267749,-0.00047464,0.00163310,-0.00020029,0.0
 0289123,-0.00554869,0.00064602,0.01851181,-0.04682116,-0.01537324,-0.0
 0455842,0.00011838,0.00339013,-0.01993856,0.05667140,-0.00000667,0.000
 00185,-0.00003997,-0.00002390,0.00000377,-0.00006148,-0.00009075,0.000
 12357,-0.00008274,0.00009643,0.00001089,0.00002220,-0.00000077,0.00000
 133,0.00000068,0.00000673,0.00000085,-0.00000418,0.00003015,-0.0000266
 2,0.00002183,-0.00002861,-0.00003637,-0.00000751,-0.00000231,0.0000013
 7,0.00000105,-0.00002833,-0.00000537,0.00000100,0.00000784,-0.00000603
 ,0.00000261,-0.00004515,-0.00006058,0.00004196,-0.00017470,-0.00024126
 ,0.00106412,0.00013223,-0.00006637,0.00003678,0.00034813,-0.00009824,0
 .00002820,-0.00218961,0.00031850,0.00138650,-0.00011847,-0.00078805,0.
 00048807,-0.00070819,0.00040612,0.00122985,0.12893526,-0.01453754,-0.1
 7517093,0.02067053,-0.00250824,-0.01793724,-0.14080799,0.01817101,0.18
 504500,-0.00143899,-0.00057317,0.00010983,0.00077000,-0.00040475,-0.00
 095939,-0.01501347,0.01137867,-0.01289838,0.00041831,0.00014201,0.0031
 1131,-0.00005674,-0.00003469,0.00012692,0.00029425,-0.00011719,-0.0000
 3508,-0.00150296,-0.00017326,-0.00652058,-0.00074227,0.00001403,-0.000
 80321,-0.00001433,-0.00000748,0.00000918,-0.00118183,-0.00033432,0.000
 19892,0.00019539,-0.00028081,0.00019779,-0.00061269,-0.00187873,0.0023
 4728,0.00417294,0.00377187,-0.00353169,-0.00139445,0.00019545,-0.00031
 873,-0.00001257,-0.00029591,0.00064177,0.01897516,-0.00114200,0.004200
 30,-0.00309363,0.00746774,0.00018626,-0.00093275,0.00300961,0.00133154
 ,-0.11454543,-0.02281382,-0.01307468,-0.00637081,-0.00685337,0.0011163
 6,-0.01506943,-0.01372385,-0.00409498,0.54026196,-0.00010387,-0.000889
 70,-0.00065931,0.00073015,-0.00069470,-0.00109179,0.00838988,0.0008587
 5,0.00168779,-0.00217711,-0.00178899,0.00094008,-0.00008739,-0.0001830
 0,-0.00016911,0.00016359,-0.00012125,-0.00001433,-0.00383517,0.0040424
 3,0.00124940,-0.00013694,0.00052724,0.00010156,-0.00022621,-0.00002221
 ,-0.00008596,0.00022272,-0.00009495,0.00027445,-0.00000499,-0.00009643
 ,-0.00008756,0.00239164,-0.00222672,0.00173210,0.00004441,-0.00015137,
 0.00143638,-0.00093966,0.00039135,-0.00129008,0.00025890,0.00030518,0.
 00026813,-0.01847226,-0.03590012,-0.00455578,0.00165175,-0.00250711,-0
 .00055465,-0.00080296,0.00153420,0.00037141,-0.02302479,-0.10352786,0.
 00065291,0.00747184,0.00655084,0.00028809,0.00603671,0.00362551,0.0002
 3028,0.10124590,0.38073479,0.00285478,-0.00065499,-0.00063463,-0.00001
 682,-0.00133402,0.00034341,0.01102455,-0.01050350,0.01371861,-0.005733
 06,-0.00312189,-0.00566087,0.00006975,-0.00028798,-0.00035326,0.000172
 00,-0.00016060,-0.00009622,-0.02545006,0.01406072,-0.00161286,0.000682
 29,0.00124442,0.00116362,-0.00044557,-0.00003399,-0.00028645,0.0025889
 5,0.00055844,0.00060610,-0.00022258,0.00025200,-0.00049133,-0.00005541
 ,0.00669635,-0.00600300,-0.00240693,0.00073470,0.00513569,0.00042615,-
 0.00091109,-0.00149642,-0.00004161,0.00319548,-0.00220313,0.00532231,0
 .00019147,0.00061063,-0.00020392,0.00254896,-0.00051498,-0.00017577,-0
 .00220204,-0.00114578,-0.01773936,-0.00426981,-0.07113013,-0.02069324,
 -0.02113911,-0.00803547,0.01978083,0.01655652,-0.00057433,-0.14265316,
 0.11504692,0.75134199,-0.00062756,0.00089231,0.00094086,-0.00096474,0.
 00149729,0.00150446,-0.01325006,0.00564886,-0.00092586,0.00094232,0.00
 349089,0.00099689,0.00009351,0.00034788,0.00029886,-0.00027295,0.00013
 973,0.00019603,0.00567103,-0.00615534,0.00096656,0.00039850,0.00031768
 ,-0.00030892,0.00024332,0.00001712,0.00010959,-0.00001401,-0.00001194,
 -0.00022411,-0.00014802,0.00007236,0.00009596,-0.00011889,0.00000926,0
 .00078454,-0.00234259,-0.00084808,0.00026877,0.00049086,0.00009974,0.0
 0031028,-0.00027429,0.00022397,0.00006714,-0.00436274,-0.00044092,-0.0
 0317473,0.00095936,-0.00186916,0.00021824,0.00049614,-0.00109067,-0.00
 020184,0.00293245,-0.02286416,-0.02377548,-0.00183684,-0.00338621,-0.0
 0308167,0.00344500,0.00156271,-0.00167526,-0.10341732,-0.01931656,-0.0
 0567171,0.09415670,0.00047042,0.00003982,-0.00042153,0.00012797,0.0002
 2990,-0.00018812,0.00450427,-0.00011433,0.00028999,0.00247454,-0.00084
 577,-0.00079586,-0.00002974,-0.00006172,-0.00010802,-0.00006761,0.0000
 8215,-0.00005864,0.00144199,-0.00411660,-0.00101971,-0.00066933,-0.001
 26819,-0.00003260,0.00026273,-0.00001686,0.00016938,-0.00012446,-0.000
 00772,-0.00029778,0.00007457,0.00017192,0.00003695,-0.00128403,0.00051
 810,0.00020713,0.00003769,-0.00151881,0.00131826,0.00036256,-0.0004457
 5,-0.00052432,0.00014411,-0.00004029,-0.00107538,0.00024686,0.00341295
 ,0.00028983,0.00006291,-0.00025115,0.00040552,0.00000830,-0.00004347,-
 0.00019059,-0.01748396,-0.00418222,-0.03789307,-0.00448123,-0.00593641
 ,-0.00224703,0.00052998,0.00030622,-0.00044254,-0.02469065,-0.15377756
 ,-0.14740202,0.02388693,0.13915740,-0.00174412,0.00087087,0.00106466,-
 0.00022143,0.00090776,0.00029795,-0.01001093,0.00595688,-0.00582996,0.
 00269965,0.00257377,0.00243013,-0.00006634,0.00030109,0.00017704,-0.00
 021961,0.00018127,0.00000558,0.01211335,-0.00748165,-0.00500687,-0.000
 38717,-0.00033084,-0.00089189,0.00031113,0.00000838,0.00015403,-0.0013
 8764,-0.00034461,-0.00029520,0.00007842,-0.00013780,0.00028288,-0.0006
 8109,-0.00207892,0.00260861,0.00122807,0.00072472,-0.00306308,-0.00007
 106,0.00050411,0.00111032,0.00003692,-0.00167485,0.00125231,-0.0056954
 2,0.00188298,-0.00268393,0.00061358,-0.00207317,0.00077898,0.00020703,
 0.00042544,0.00045980,-0.00607533,-0.02536837,-0.02352486,-0.00192959,
 -0.00230076,0.00063445,-0.00190593,-0.00011399,0.00180384,-0.02633035,
 -0.15147288,-0.40147988,-0.01690699,0.20154654,0.52026349,0.00249792,0
 .00023947,0.00005997,-0.00146847,0.00024609,0.00234501,0.00534655,-0.0
 0847764,0.00982815,-0.00470930,0.00011214,-0.00644100,0.00008018,0.000
 01460,-0.00016896,-0.00018042,0.00005474,-0.00006910,-0.00796815,0.004
 88025,-0.00072930,0.00087407,0.00115088,0.00093042,-0.00007968,-0.0000
 1109,-0.00009768,0.00225127,0.00088109,-0.00012532,-0.00036460,0.00044
 379,-0.00044229,0.00070223,0.00499803,-0.00630620,-0.00423640,-0.00234
 981,0.00261375,0.00111367,-0.00026759,0.00000194,0.00011533,0.00091113
 ,-0.00075948,-0.00527474,0.00311497,0.00050320,0.00171397,-0.00212287,
 -0.00021761,0.00066742,-0.00124689,-0.00110610,-0.03278049,-0.02097662
 ,0.03107553,0.00163891,0.00202091,0.00054275,-0.00576465,-0.00694981,-
 0.00023162,-0.29968834,-0.05947959,0.17858760,0.01780080,0.01419518,0.
 05634484,0.32771293,-0.00050321,-0.00059190,-0.00111868,-0.00001595,0.
 00086290,0.00010733,-0.00221400,-0.00209176,-0.00126132,0.00320742,0.0
 0085477,0.00204601,0.00004588,-0.00002529,0.00013091,0.00001297,0.0000
 5007,-0.00002661,0.00097530,-0.00101369,0.00084422,-0.00124870,-0.0018
 9174,0.00050542,0.00025912,0.00009546,0.00013129,0.00060755,0.00002817
 ,-0.00054846,-0.00006700,0.00036241,-0.00015631,0.00155783,-0.00224701
 ,0.00332517,0.00109209,0.00069841,-0.00129276,-0.00002733,0.00003657,0
 .00022262,-0.00008783,-0.00030319,0.00025171,0.00083201,0.00284608,-0.
 00006179,-0.00044767,0.00038126,0.00069119,-0.00006814,0.00080417,0.00
 058805,-0.02979444,0.00489545,0.01278683,-0.00099383,-0.00019381,0.000
 34703,-0.00561575,-0.00376653,-0.00045234,-0.05390127,-0.09658834,0.03
 093506,0.01777630,0.02870838,-0.02250595,0.06861865,0.06808914,-0.0006
 0895,0.00185197,0.00121317,-0.00126079,0.00070371,0.00115633,-0.000602
 53,0.00137848,-0.00371217,-0.00064474,0.00027972,0.00031406,-0.0001898
 9,0.00025273,-0.00013601,-0.00015595,0.00012210,-0.00006804,0.00773216
 ,-0.00434320,-0.00268484,0.00080352,0.00068675,-0.00046065,0.00023576,
 -0.00016409,0.00030301,-0.00131374,-0.00065078,-0.00070877,0.00002192,
 -0.00013320,0.00022005,0.00014279,-0.00058133,-0.00063248,-0.00059907,
 0.00007785,-0.00135266,-0.00018092,0.00033377,0.00042824,0.00016015,-0
 .00104304,0.00064334,-0.00016243,-0.00313502,-0.00017563,-0.00051512,-
 0.00016089,0.00053182,-0.00055201,0.00165707,0.00053559,0.01504971,0.0
 0335693,0.00191668,0.00242053,0.00110299,0.00233025,-0.00047305,-0.000
 23944,0.00270470,0.19764277,0.03570197,-0.27120129,0.04918837,-0.01156
 638,-0.09054839,-0.26613849,-0.02548864,0.35938371\\0.00000047,-0.0000
 0574,-0.00000009,0.00000479,-0.00000194,0.00000075,0.00000665,0.000005
 57,-0.00001395,-0.00000608,0.00000377,0.00000197,0.00000028,0.00000062
 ,-0.00000007,-0.00000145,0.00000025,-0.00000165,0.00000159,-0.00000120
 ,0.00000645,-0.00000049,-0.00000439,0.00000130,-0.00000073,0.00000096,
 0.00000002,-0.00000058,0.00000137,0.00000019,0.00000029,0.00000041,-0.
 00000019,0.00000127,0.00000136,0.00000755,-0.00000224,-0.00000002,0.00
 000105,0.00000052,-0.00000078,-0.00000158,-0.00000006,-0.00000124,0.00
 000090,-0.00000155,-0.00000390,-0.00000566,0.00000059,0.00000088,0.000
 00198,0.00000142,0.00000176,0.00000072,-0.00000005,0.00000352,-0.00000
 071,-0.00000012,-0.00000086,0.,-0.00000086,-0.00000040,0.00000046,-0.0
 0000846,-0.00000354,0.00000699,-0.00000022,0.00000231,-0.00000228,0.00
 000500,0.00000122,-0.00000416\\\@


 The chemist is a guest at the physicist's table and
 frequently dines well.
                   -- Richard Bersohn
 Job cpu time:       0 days  2 hours 23 minutes  8.7 seconds.
 Elapsed time:       0 days  0 hours  6 minutes  0.8 seconds.
 File lengths (MBytes):  RWF=    316 Int=      0 D2E=      0 Chk=     14 Scr=      1
 Normal termination of Gaussian 16 at Wed Oct 11 20:45:44 2023.
