 Entering Gaussian System, Link 0=g16
 Initial command:
 /data0/home/software/g16/l1.exe "/data0/home/software/g16/scratch/Gau-2534103.inp" -scrdir="/data0/home/software/g16/scratch/"
 Default is to use a total of  22 processors:
                               22 via shared-memory
                                1 via Linda
 Entering Link 1 = /data0/home/software/g16/l1.exe PID=   2534104.
  
 Copyright (c) 1988,1990,1992,1993,1995,1998,2003,2009,2016,
            Gaussian, Inc.  All Rights Reserved.
  
 This is part of the Gaussian(R) 16 program.  It is based on
 the Gaussian(R) 09 system (copyright 2009, Gaussian, Inc.),
 the Gaussian(R) 03 system (copyright 2003, Gaussian, Inc.),
 the Gaussian(R) 98 system (copyright 1998, Gaussian, Inc.),
 the Gaussian(R) 94 system (copyright 1995, Gaussian, Inc.),
 the Gaussian 92(TM) system (copyright 1992, Gaussian, Inc.),
 the Gaussian 90(TM) system (copyright 1990, Gaussian, Inc.),
 the Gaussian 88(TM) system (copyright 1988, Gaussian, Inc.),
 the Gaussian 86(TM) system (copyright 1986, Carnegie Mellon
 University), and the Gaussian 82(TM) system (copyright 1983,
 Carnegie Mellon University). Gaussian is a federally registered
 trademark of Gaussian, Inc.
  
 This software contains proprietary and confidential information,
 including trade secrets, belonging to Gaussian, Inc.
  
 This software is provided under written license and may be
 used, copied, transmitted, or stored only in accord with that
 written license.
  
 The following legend is applicable only to US Government
 contracts under FAR:
  
                    RESTRICTED RIGHTS LEGEND
  
 Use, reproduction and disclosure by the US Government is
 subject to restrictions as set forth in subparagraphs (a)
 and (c) of the Commercial Computer Software - Restricted
 Rights clause in FAR 52.227-19.
  
 Gaussian, Inc.
 340 Quinnipiac St., Bldg. 40, Wallingford CT 06492
  
  
 ---------------------------------------------------------------
 Warning -- This program may not be used in any manner that
 competes with the business of Gaussian, Inc. or will provide
 assistance to any competitor of Gaussian, Inc.  The licensee
 of this program is prohibited from giving any competitor of
 Gaussian, Inc. access to this program.  By using this program,
 the user acknowledges that Gaussian, Inc. is engaged in the
 business of creating and licensing software in the field of
 computational chemistry and represents and warrants to the
 licensee that it is not a competitor of Gaussian, Inc. and that
 it will not use this program in any manner prohibited above.
 ---------------------------------------------------------------
  

 Cite this work as:
 Gaussian 16, Revision A.03,
 M. J. Frisch, G. W. Trucks, H. B. Schlegel, G. E. Scuseria, 
 M. A. Robb, J. R. Cheeseman, G. Scalmani, V. Barone, 
 G. A. Petersson, H. Nakatsuji, X. Li, M. Caricato, A. V. Marenich, 
 J. Bloino, B. G. Janesko, R. Gomperts, B. Mennucci, H. P. Hratchian, 
 J. V. Ortiz, A. F. Izmaylov, J. L. Sonnenberg, D. Williams-Young, 
 F. Ding, F. Lipparini, F. Egidi, J. Goings, B. Peng, A. Petrone, 
 T. Henderson, D. Ranasinghe, V. G. Zakrzewski, J. Gao, N. Rega, 
 G. Zheng, W. Liang, M. Hada, M. Ehara, K. Toyota, R. Fukuda, 
 J. Hasegawa, M. Ishida, T. Nakajima, Y. Honda, O. Kitao, H. Nakai, 
 T. Vreven, K. Throssell, J. A. Montgomery, Jr., J. E. Peralta, 
 F. Ogliaro, M. J. Bearpark, J. J. Heyd, E. N. Brothers, K. N. Kudin, 
 V. N. Staroverov, T. A. Keith, R. Kobayashi, J. Normand, 
 K. Raghavachari, A. P. Rendell, J. C. Burant, S. S. Iyengar, 
 J. Tomasi, M. Cossi, J. M. Millam, M. Klene, C. Adamo, R. Cammi, 
 J. W. Ochterski, R. L. Martin, K. Morokuma, O. Farkas, 
 J. B. Foresman, and D. J. Fox, Gaussian, Inc., Wallingford CT, 2016.
 
 ******************************************
 Gaussian 16:  ES64L-G16RevA.03 25-Dec-2016
                11-Oct-2023 
 ******************************************
 %mem=50GB
 %nprocshared=24
 Will use up to   24 processors via shared memory.
 ---------------
 #p M052X/6-31G*
 ---------------
 1/38=1,172=1/1;
 2/12=2,17=6,18=5,40=1/2;
 3/5=1,6=6,7=1,11=2,25=1,30=1,74=-38/1,2,3;
 4//1;
 5/5=2,38=5/2;
 6/7=2,8=2,9=2,10=2,28=1/1;
 99/5=1,9=1/99;
 Leave Link    1 at Wed Oct 11 21:02:45 2023, MaxMem=  6710886400 cpu:               0.6 elap:               0.0
 (Enter /data0/home/software/g16/l101.exe)
 -------------------
 Title Card Required
 -------------------
 Symbolic Z-matrix:
 Charge =  0 Multiplicity = 1
 C                     2.28026   0.99216  -0.50005 
 C                     1.21211   1.79557  -0.27462 
 C                     0.82861  -0.1347    0.72955 
 N                     2.02744  -0.2031    0.14955 
 H                     3.18937   1.16493  -1.04716 
 H                     1.01278   2.80425  -0.58833 
 H                     0.28721  -0.94652   1.21508 
 C                     2.74655  -1.45867  -0.03918 
 H                     2.75235  -2.01585   0.89494 
 H                     2.23119  -2.03873  -0.80523 
 H                     3.76956  -1.24087  -0.33753 
 N                     0.32      1.0793    0.50495 
 C                    -1.07429   1.48187   0.76903 
 H                    -1.04552   2.5442    1.01198 
 H                    -1.40736   0.93048   1.64699 
 C                    -1.99739   1.2134   -0.43582 
 H                    -2.80956   1.94417  -0.39028 
 H                    -1.43519   1.41699  -1.35016 
 C                    -2.58239  -0.20942  -0.49126 
 H                    -3.00785  -0.37568  -1.48232 
 H                    -3.37052  -0.31584   0.25566 
 C                    -1.47015  -1.23499  -0.20136 
 O                    -1.44824  -1.71316   0.96385 
 O                    -0.58405  -1.37137  -1.08172 
 
 ITRead=  0  0  0  0  0  0  0  0  0  0  0  0  0  0  0  0  0  0  0  0
 ITRead=  0  0  0  0
 MicOpt= -1 -1 -1 -1 -1 -1 -1 -1 -1 -1 -1 -1 -1 -1 -1 -1 -1 -1 -1 -1
 MicOpt= -1 -1 -1 -1
 NAtoms=     24 NQM=       24 NQMF=       0 NMMI=      0 NMMIF=      0
                NMic=       0 NMicF=      0.
                    Isotopes and Nuclear Properties:
 (Nuclear quadrupole moments (NQMom) in fm**2, nuclear magnetic moments (NMagM)
  in nuclear magnetons)

  Atom         1           2           3           4           5           6           7           8           9          10
 IAtWgt=          12          12          12          14           1           1           1          12           1           1
 AtmWgt=  12.0000000  12.0000000  12.0000000  14.0030740   1.0078250   1.0078250   1.0078250  12.0000000   1.0078250   1.0078250
 NucSpn=           0           0           0           2           1           1           1           0           1           1
 AtZEff=  -0.0000000  -0.0000000  -0.0000000  -0.0000000  -0.0000000  -0.0000000  -0.0000000  -0.0000000  -0.0000000  -0.0000000
 NQMom=    0.0000000   0.0000000   0.0000000   2.0440000   0.0000000   0.0000000   0.0000000   0.0000000   0.0000000   0.0000000
 NMagM=    0.0000000   0.0000000   0.0000000   0.4037610   2.7928460   2.7928460   2.7928460   0.0000000   2.7928460   2.7928460
 AtZNuc=   6.0000000   6.0000000   6.0000000   7.0000000   1.0000000   1.0000000   1.0000000   6.0000000   1.0000000   1.0000000

  Atom        11          12          13          14          15          16          17          18          19          20
 IAtWgt=           1          14          12           1           1          12           1           1          12           1
 AtmWgt=   1.0078250  14.0030740  12.0000000   1.0078250   1.0078250  12.0000000   1.0078250   1.0078250  12.0000000   1.0078250
 NucSpn=           1           2           0           1           1           0           1           1           0           1
 AtZEff=  -0.0000000  -0.0000000  -0.0000000  -0.0000000  -0.0000000  -0.0000000  -0.0000000  -0.0000000  -0.0000000  -0.0000000
 NQMom=    0.0000000   2.0440000   0.0000000   0.0000000   0.0000000   0.0000000   0.0000000   0.0000000   0.0000000   0.0000000
 NMagM=    2.7928460   0.4037610   0.0000000   2.7928460   2.7928460   0.0000000   2.7928460   2.7928460   0.0000000   2.7928460
 AtZNuc=   1.0000000   7.0000000   6.0000000   1.0000000   1.0000000   6.0000000   1.0000000   1.0000000   6.0000000   1.0000000

  Atom        21          22          23          24
 IAtWgt=           1          12          16          16
 AtmWgt=   1.0078250  12.0000000  15.9949146  15.9949146
 NucSpn=           1           0           0           0
 AtZEff=  -0.0000000  -0.0000000  -0.0000000  -0.0000000
 NQMom=    0.0000000   0.0000000   0.0000000   0.0000000
 NMagM=    2.7928460   0.0000000   0.0000000   0.0000000
 AtZNuc=   1.0000000   6.0000000   8.0000000   8.0000000
 Leave Link  101 at Wed Oct 11 21:02:45 2023, MaxMem=  6710886400 cpu:               2.1 elap:               0.1
 (Enter /data0/home/software/g16/l202.exe)
                          Input orientation:                          
 ---------------------------------------------------------------------
 Center     Atomic      Atomic             Coordinates (Angstroms)
 Number     Number       Type             X           Y           Z
 ---------------------------------------------------------------------
      1          6           0        2.280261    0.992161   -0.500051
      2          6           0        1.212106    1.795567   -0.274616
      3          6           0        0.828608   -0.134699    0.729553
      4          7           0        2.027440   -0.203095    0.149554
      5          1           0        3.189366    1.164927   -1.047163
      6          1           0        1.012783    2.804245   -0.588326
      7          1           0        0.287209   -0.946520    1.215076
      8          6           0        2.746551   -1.458666   -0.039183
      9          1           0        2.752345   -2.015848    0.894935
     10          1           0        2.231190   -2.038728   -0.805230
     11          1           0        3.769560   -1.240870   -0.337528
     12          7           0        0.319996    1.079305    0.504949
     13          6           0       -1.074292    1.481869    0.769027
     14          1           0       -1.045517    2.544198    1.011981
     15          1           0       -1.407357    0.930475    1.646988
     16          6           0       -1.997392    1.213395   -0.435815
     17          1           0       -2.809558    1.944166   -0.390280
     18          1           0       -1.435188    1.416991   -1.350164
     19          6           0       -2.582385   -0.209421   -0.491258
     20          1           0       -3.007845   -0.375681   -1.482323
     21          1           0       -3.370523   -0.315843    0.255660
     22          6           0       -1.470151   -1.234993   -0.201361
     23          8           0       -1.448244   -1.713160    0.963853
     24          8           0       -0.584050   -1.371372   -1.081720
 ---------------------------------------------------------------------
                    Distance matrix (angstroms):
                    1          2          3          4          5
     1  C    0.000000
     2  C    1.355447   0.000000
     3  C    2.211116   2.209378   0.000000
     4  N    1.383670   2.199850   1.333520   0.000000
     5  H    1.075012   2.214519   3.227836   2.157241   0.000000
     6  H    2.213129   1.074977   3.226161   3.258541   2.763224
     7  H    3.266864   3.254790   1.089908   2.171732   4.242458
     8  C    2.537002   3.605549   2.454047   1.459178   2.845233
     9  H    3.349174   4.273999   2.695707   2.089774   3.752341
    10  H    3.046610   4.002737   2.819241   2.079104   3.352617
    11  H    2.689024   3.970451   3.318354   2.085475   2.574503
    12  N    2.204599   1.384418   1.335267   2.164768   3.263383
    13  C    3.619862   2.532827   2.497174   3.583796   4.645189
    14  H    3.969365   2.704190   3.281554   4.211231   4.906801
    15  H    4.267565   3.361924   2.641178   3.914731   5.333224
    16  C    4.283852   3.265852   3.340915   4.306782   5.222888
    17  H    5.179249   4.026070   4.337275   5.319652   6.084883
    18  H    3.835066   2.882410   3.443506   4.106534   4.641319
    19  C    5.008912   4.297100   3.623650   4.654156   5.959108
    20  H    5.549767   4.897026   4.434957   5.295933   6.400645
    21  H    5.849216   5.073434   4.229668   5.400183   6.849976
    22  C    4.372073   4.047736   2.713216   3.663482   5.309058
    23  O    4.833583   4.574105   2.780376   3.876049   5.816786
    24  O    3.758844   3.729222   2.608768   3.114609   4.546721
                    6          7          8          9         10
     6  H    0.000000
     7  H    4.224566   0.000000
     8  C    4.634643   2.807814   0.000000
     9  H    5.334739   2.706076   1.087686   0.000000
    10  H    4.998595   3.008923   1.090365   1.778395   0.000000
    11  H    4.901599   3.824133   1.087654   1.776030   1.794967
    12  N    2.156530   2.146933   3.553244   3.955804   3.884760
    13  C    2.819037   2.819524   4.888639   5.185849   5.079281
    14  H    2.620154   3.741994   5.613167   5.935611   5.919652
    15  H    3.790082   2.565387   5.079972   5.152623   5.297977
    16  C    3.408110   3.551067   5.459141   5.895669   5.347306
    17  H    3.922913   4.530254   6.524790   6.947536   6.437761
    18  H    2.915036   3.890153   5.241662   5.861765   5.067670
    19  C    4.692210   3.418985   5.492044   5.800349   5.159016
    20  H    5.203519   4.296417   6.030637   6.443702   5.538201
    21  H    5.446158   3.833697   6.229893   6.386564   5.955922
    22  C    4.757115   2.275483   4.225743   4.431825   3.835436
    23  O    5.373347   1.913804   4.320550   4.212044   4.095593
    24  O    4.497676   2.492963   3.491047   3.931163   2.906439
                   11         12         13         14         15
    11  H    0.000000
    12  N    4.241753   0.000000
    13  C    5.665746   1.475071   0.000000
    14  H    6.271593   2.065822   1.090136   0.000000
    15  H    5.954285   2.076091   1.088937   1.771515   0.000000
    16  C    6.268238   2.504656   1.541375   2.184769   2.183175
    17  H    7.309722   3.368015   2.137489   2.331998   2.672863
    18  H    5.931194   2.576072   2.150680   2.646161   3.036510
    19  C    6.436981   3.328222   2.592899   3.493438   2.692982
    20  H    6.927649   4.140140   3.501099   4.312537   3.749692
    21  H    7.224149   3.953291   2.961079   3.762647   2.709820
    22  C    5.241483   3.009896   2.911992   3.991841   2.847734
    23  O    5.398345   3.336934   3.222733   4.276634   2.730778
    24  O    4.418684   3.056245   3.436071   4.464104   3.663630
                   16         17         18         19         20
    16  C    0.000000
    17  H    1.093487   0.000000
    18  H    1.092501   1.757323   0.000000
    19  C    1.539382   2.167889   2.167717   0.000000
    20  H    2.154381   2.571685   2.388386   1.091269   0.000000
    21  H    2.168455   2.416518   3.053998   1.091042   1.776429
    22  C    2.515463   3.454961   2.890327   1.540423   2.178023
    23  O    3.290191   4.130725   3.892646   2.380096   3.194524
    24  O    3.015916   4.052625   2.927707   2.385816   2.650786
                   21         22         23         24
    21  H    0.000000
    22  C    2.159889   0.000000
    23  O    2.479756   1.259701   0.000000
    24  O    3.266062   1.256506   2.246780   0.000000
 Stoichiometry    C8H12N2O2
 Framework group  C1[X(C8H12N2O2)]
 Deg. of freedom    66
 Full point group                 C1      NOp   1
 Largest Abelian subgroup         C1      NOp   1
 Largest concise Abelian subgroup C1      NOp   1
                         Standard orientation:                         
 ---------------------------------------------------------------------
 Center     Atomic      Atomic             Coordinates (Angstroms)
 Number     Number       Type             X           Y           Z
 ---------------------------------------------------------------------
      1          6           0        2.280261    0.992161   -0.500051
      2          6           0        1.212106    1.795567   -0.274616
      3          6           0        0.828608   -0.134699    0.729553
      4          7           0        2.027440   -0.203095    0.149554
      5          1           0        3.189366    1.164927   -1.047163
      6          1           0        1.012783    2.804245   -0.588326
      7          1           0        0.287209   -0.946520    1.215076
      8          6           0        2.746551   -1.458666   -0.039183
      9          1           0        2.752345   -2.015848    0.894935
     10          1           0        2.231190   -2.038728   -0.805230
     11          1           0        3.769560   -1.240870   -0.337528
     12          7           0        0.319996    1.079305    0.504949
     13          6           0       -1.074292    1.481869    0.769027
     14          1           0       -1.045517    2.544198    1.011981
     15          1           0       -1.407357    0.930475    1.646988
     16          6           0       -1.997392    1.213395   -0.435815
     17          1           0       -2.809558    1.944166   -0.390280
     18          1           0       -1.435188    1.416991   -1.350164
     19          6           0       -2.582385   -0.209421   -0.491258
     20          1           0       -3.007845   -0.375681   -1.482323
     21          1           0       -3.370523   -0.315843    0.255660
     22          6           0       -1.470151   -1.234993   -0.201361
     23          8           0       -1.448244   -1.713160    0.963853
     24          8           0       -0.584050   -1.371372   -1.081720
 ---------------------------------------------------------------------
 Rotational constants (GHZ):           1.4939980           0.8554139           0.6454746
 Leave Link  202 at Wed Oct 11 21:02:45 2023, MaxMem=  6710886400 cpu:               0.1 elap:               0.0
 (Enter /data0/home/software/g16/l301.exe)
 Standard basis: 6-31G(d) (6D, 7F)
 Ernie: Thresh=  0.10000D-02 Tol=  0.10000D-05 Strict=F.
 There are   204 symmetry adapted cartesian basis functions of A   symmetry.
 There are   204 symmetry adapted basis functions of A   symmetry.
   204 basis functions,   384 primitive gaussians,   204 cartesian basis functions
    45 alpha electrons       45 beta electrons
       nuclear repulsion energy       751.3398677109 Hartrees.
 IExCor= 3428 DFT=T Ex+Corr=M052X ExCW=0 ScaHFX=  0.560000
 ScaDFX=  0.440000  0.440000  1.000000  1.000000 ScalE2=  1.000000  1.000000
 IRadAn=      5 IRanWt=     -1 IRanGd=            0 ICorTp=0 IEmpDi=  4
 NAtoms=   24 NActive=   24 NUniq=   24 SFac= 1.00D+00 NAtFMM=   60 NAOKFM=F Big=F
 Integral buffers will be    131072 words long.
 Raffenetti 2 integral format.
 Two-electron integral symmetry is turned on.
 Leave Link  301 at Wed Oct 11 21:02:45 2023, MaxMem=  6710886400 cpu:               1.1 elap:               0.1
 (Enter /data0/home/software/g16/l302.exe)
 NPDir=0 NMtPBC=     1 NCelOv=     1 NCel=       1 NClECP=     1 NCelD=      1
         NCelK=      1 NCelE2=     1 NClLst=     1 CellRange=     0.0.
 One-electron integrals computed using PRISM.
 One-electron integral symmetry used in STVInt
 NBasis=   204 RedAO= T EigKep=  1.35D-03  NBF=   204
 NBsUse=   204 1.00D-06 EigRej= -1.00D+00 NBFU=   204
 Precomputing XC quadrature grid using
 IXCGrd= 4 IRadAn=           5 IRanWt=          -1 IRanGd=           0 AccXCQ= 0.00D+00.
 Generated NRdTot=       0 NPtTot=           0 NUsed=           0 NTot=          32
 NSgBfM=   204   204   204   204   204 MxSgAt=    24 MxSgA2=    24.
 Leave Link  302 at Wed Oct 11 21:02:45 2023, MaxMem=  6710886400 cpu:               3.8 elap:               0.2
 (Enter /data0/home/software/g16/l303.exe)
 DipDrv:  MaxL=1.
 Leave Link  303 at Wed Oct 11 21:02:45 2023, MaxMem=  6710886400 cpu:               0.6 elap:               0.0
 (Enter /data0/home/software/g16/l401.exe)
 ExpMin= 1.61D-01 ExpMax= 5.48D+03 ExpMxC= 8.25D+02 IAcc=3 IRadAn=         5 AccDes= 0.00D+00
 Harris functional with IExCor= 1009 and IRadAn=       5 diagonalized for initial guess.
 HarFok:  IExCor= 1009 AccDes= 0.00D+00 IRadAn=         5 IDoV= 1 UseB2=F ITyADJ=14
 ICtDFT=  3500011 ScaDFX=  1.000000  1.000000  1.000000  1.000000
 FoFCou: FMM=F IPFlag=           0 FMFlag=      100000 FMFlg1=           0
         NFxFlg=           0 DoJE=T BraDBF=F KetDBF=T FulRan=T
         wScrn=  0.000000 ICntrl=       500 IOpCl=  0 I1Cent=   200000004 NGrid=           0
         NMat0=    1 NMatS0=      1 NMatT0=    0 NMatD0=    1 NMtDS0=    0 NMtDT0=    0
 Petite list used in FoFCou.
 Harris En= -571.512173877205    
 JPrj=0 DoOrth=F DoCkMO=F.
 Leave Link  401 at Wed Oct 11 21:02:46 2023, MaxMem=  6710886400 cpu:              14.1 elap:               0.6
 (Enter /data0/home/software/g16/l502.exe)
 Integral symmetry usage will be decided dynamically.
 Closed shell SCF:
 Using DIIS extrapolation, IDIIS=  1040.
 NGot=  6710886400 LenX=  6710795856 LenY=  6710753799
 Requested convergence on RMS density matrix=1.00D-08 within 128 cycles.
 Requested convergence on MAX density matrix=1.00D-06.
 Requested convergence on             energy=1.00D-06.
 No special actions if energy rises.
 Fock matrices will be formed incrementally for  20 cycles.
 Integral accuracy reduced to 1.0D-05 until final iterations.

 Cycle   1  Pass 0  IDiag  1:
 FoFJK:  IHMeth= 1 ICntrl=       0 DoSepK=F KAlg= 0 I1Cent=           0 FoldK=F
 IRaf= 940000000 NMat=       1 IRICut=       1 DoRegI=T DoRafI=F ISym2E= 0 IDoP0=0 IntGTp=1.
 FoFCou: FMM=F IPFlag=           0 FMFlag=      100000 FMFlg1=           0
         NFxFlg=           0 DoJE=F BraDBF=F KetDBF=F FulRan=T
         wScrn=  0.000000 ICntrl=         0 IOpCl=  0 I1Cent=           0 NGrid=           0
         NMat0=    1 NMatS0=      1 NMatT0=    0 NMatD0=    1 NMtDS0=    0 NMtDT0=    0
 Symmetry not used in FoFCou.
 E= -571.641072943080    
 DIIS: error= 2.62D-02 at cycle   1 NSaved=   1.
 NSaved= 1 IEnMin= 1 EnMin= -571.641072943080     IErMin= 1 ErrMin= 2.62D-02
 ErrMax= 2.62D-02  0.00D+00 EMaxC= 1.00D-01 BMatC= 3.37D-01 BMatP= 3.37D-01
 IDIUse=3 WtCom= 7.38D-01 WtEn= 2.62D-01
 Coeff-Com:  0.100D+01
 Coeff-En:   0.100D+01
 Coeff:      0.100D+01
 Gap=     0.450 Goal=   None    Shift=    0.000
 GapD=    0.450 DampG=2.000 DampE=0.500 DampFc=1.0000 IDamp=-1.
 RMSDP=5.96D-03 MaxDP=1.63D-01              OVMax= 1.74D-01

 Cycle   2  Pass 0  IDiag  1:
 RMSU=  5.95D-03    CP:  9.86D-01
 E= -571.707606825114     Delta-E=       -0.066533882034 Rises=F Damp=F
 DIIS: error= 2.97D-02 at cycle   2 NSaved=   2.
 NSaved= 2 IEnMin= 2 EnMin= -571.707606825114     IErMin= 1 ErrMin= 2.62D-02
 ErrMax= 2.97D-02  0.00D+00 EMaxC= 1.00D-01 BMatC= 2.87D-01 BMatP= 3.37D-01
 IDIUse=3 WtCom= 7.03D-01 WtEn= 2.97D-01
 Coeff-Com:  0.478D+00 0.522D+00
 Coeff-En:   0.424D+00 0.576D+00
 Coeff:      0.462D+00 0.538D+00
 Gap=     0.300 Goal=   None    Shift=    0.000
 RMSDP=3.09D-03 MaxDP=9.80D-02 DE=-6.65D-02 OVMax= 9.92D-02

 Cycle   3  Pass 0  IDiag  1:
 RMSU=  1.17D-03    CP:  9.90D-01  5.20D-01
 E= -571.920630483726     Delta-E=       -0.213023658612 Rises=F Damp=F
 DIIS: error= 5.38D-03 at cycle   3 NSaved=   3.
 NSaved= 3 IEnMin= 3 EnMin= -571.920630483726     IErMin= 3 ErrMin= 5.38D-03
 ErrMax= 5.38D-03  0.00D+00 EMaxC= 1.00D-01 BMatC= 1.00D-02 BMatP= 2.87D-01
 IDIUse=3 WtCom= 9.46D-01 WtEn= 5.38D-02
 Coeff-Com:  0.106D+00 0.196D+00 0.698D+00
 Coeff-En:   0.000D+00 0.000D+00 0.100D+01
 Coeff:      0.100D+00 0.185D+00 0.714D+00
 Gap=     0.281 Goal=   None    Shift=    0.000
 RMSDP=5.43D-04 MaxDP=1.81D-02 DE=-2.13D-01 OVMax= 1.88D-02

 Cycle   4  Pass 0  IDiag  1:
 RMSU=  4.02D-04    CP:  9.92D-01  5.58D-01  7.63D-01
 E= -571.926796416062     Delta-E=       -0.006165932336 Rises=F Damp=F
 DIIS: error= 1.97D-03 at cycle   4 NSaved=   4.
 NSaved= 4 IEnMin= 4 EnMin= -571.926796416062     IErMin= 4 ErrMin= 1.97D-03
 ErrMax= 1.97D-03  0.00D+00 EMaxC= 1.00D-01 BMatC= 1.63D-03 BMatP= 1.00D-02
 IDIUse=3 WtCom= 9.80D-01 WtEn= 1.97D-02
 Coeff-Com:  0.345D-02 0.313D-01 0.332D+00 0.633D+00
 Coeff-En:   0.000D+00 0.000D+00 0.983D-01 0.902D+00
 Coeff:      0.338D-02 0.307D-01 0.327D+00 0.639D+00
 Gap=     0.281 Goal=   None    Shift=    0.000
 RMSDP=1.97D-04 MaxDP=5.57D-03 DE=-6.17D-03 OVMax= 6.90D-03

 Cycle   5  Pass 0  IDiag  1:
 RMSU=  9.84D-05    CP:  9.91D-01  5.56D-01  8.43D-01  6.55D-01
 E= -571.928110287989     Delta-E=       -0.001313871926 Rises=F Damp=F
 DIIS: error= 3.10D-04 at cycle   5 NSaved=   5.
 NSaved= 5 IEnMin= 5 EnMin= -571.928110287989     IErMin= 5 ErrMin= 3.10D-04
 ErrMax= 3.10D-04  0.00D+00 EMaxC= 1.00D-01 BMatC= 6.28D-05 BMatP= 1.63D-03
 IDIUse=3 WtCom= 9.97D-01 WtEn= 3.10D-03
 Coeff-Com: -0.261D-02 0.500D-02 0.105D+00 0.266D+00 0.626D+00
 Coeff-En:   0.000D+00 0.000D+00 0.000D+00 0.000D+00 0.100D+01
 Coeff:     -0.260D-02 0.499D-02 0.105D+00 0.265D+00 0.627D+00
 Gap=     0.283 Goal=   None    Shift=    0.000
 RMSDP=4.89D-05 MaxDP=1.48D-03 DE=-1.31D-03 OVMax= 2.77D-03

 Cycle   6  Pass 0  IDiag  1:
 RMSU=  3.95D-05    CP:  9.91D-01  5.56D-01  8.47D-01  7.05D-01  7.98D-01
 E= -571.928156608543     Delta-E=       -0.000046320555 Rises=F Damp=F
 DIIS: error= 1.59D-04 at cycle   6 NSaved=   6.
 NSaved= 6 IEnMin= 6 EnMin= -571.928156608543     IErMin= 6 ErrMin= 1.59D-04
 ErrMax= 1.59D-04  0.00D+00 EMaxC= 1.00D-01 BMatC= 1.14D-05 BMatP= 6.28D-05
 IDIUse=3 WtCom= 9.98D-01 WtEn= 1.59D-03
 Coeff-Com: -0.169D-02-0.109D-02 0.143D-01 0.607D-01 0.327D+00 0.601D+00
 Coeff-En:   0.000D+00 0.000D+00 0.000D+00 0.000D+00 0.383D-01 0.962D+00
 Coeff:     -0.169D-02-0.109D-02 0.143D-01 0.606D-01 0.326D+00 0.602D+00
 Gap=     0.282 Goal=   None    Shift=    0.000
 RMSDP=2.00D-05 MaxDP=6.04D-04 DE=-4.63D-05 OVMax= 1.08D-03

 Cycle   7  Pass 0  IDiag  1:
 RMSU=  1.45D-05    CP:  9.91D-01  5.56D-01  8.50D-01  7.12D-01  8.84D-01
                    CP:  7.50D-01
 E= -571.928166134727     Delta-E=       -0.000009526183 Rises=F Damp=F
 DIIS: error= 4.47D-05 at cycle   7 NSaved=   7.
 NSaved= 7 IEnMin= 7 EnMin= -571.928166134727     IErMin= 7 ErrMin= 4.47D-05
 ErrMax= 4.47D-05  0.00D+00 EMaxC= 1.00D-01 BMatC= 1.01D-06 BMatP= 1.14D-05
 IDIUse=1 WtCom= 1.00D+00 WtEn= 0.00D+00
 Coeff-Com: -0.347D-03-0.134D-02-0.101D-01-0.156D-01 0.403D-01 0.256D+00
 Coeff-Com:  0.731D+00
 Coeff:     -0.347D-03-0.134D-02-0.101D-01-0.156D-01 0.403D-01 0.256D+00
 Coeff:      0.731D+00
 Gap=     0.282 Goal=   None    Shift=    0.000
 RMSDP=7.32D-06 MaxDP=1.56D-04 DE=-9.53D-06 OVMax= 3.23D-04

 Initial convergence to 1.0D-05 achieved.  Increase integral accuracy.
 Cycle   8  Pass 1  IDiag  1:
 E= -571.928198708235     Delta-E=       -0.000032573508 Rises=F Damp=F
 DIIS: error= 2.49D-05 at cycle   1 NSaved=   1.
 NSaved= 1 IEnMin= 1 EnMin= -571.928198708235     IErMin= 1 ErrMin= 2.49D-05
 ErrMax= 2.49D-05  0.00D+00 EMaxC= 1.00D-01 BMatC= 2.29D-07 BMatP= 2.29D-07
 IDIUse=1 WtCom= 1.00D+00 WtEn= 0.00D+00
 Coeff-Com:  0.100D+01
 Coeff:      0.100D+01
 Gap=     0.282 Goal=   None    Shift=    0.000
 RMSDP=7.32D-06 MaxDP=1.56D-04 DE=-3.26D-05 OVMax= 1.47D-04

 Cycle   9  Pass 1  IDiag  1:
 RMSU=  7.25D-06    CP:  1.00D+00
 E= -571.928198875676     Delta-E=       -0.000000167441 Rises=F Damp=F
 DIIS: error= 1.19D-05 at cycle   2 NSaved=   2.
 NSaved= 2 IEnMin= 2 EnMin= -571.928198875676     IErMin= 2 ErrMin= 1.19D-05
 ErrMax= 1.19D-05  0.00D+00 EMaxC= 1.00D-01 BMatC= 9.03D-08 BMatP= 2.29D-07
 IDIUse=1 WtCom= 1.00D+00 WtEn= 0.00D+00
 Coeff-Com:  0.344D+00 0.656D+00
 Coeff:      0.344D+00 0.656D+00
 Gap=     0.282 Goal=   None    Shift=    0.000
 RMSDP=2.11D-06 MaxDP=5.78D-05 DE=-1.67D-07 OVMax= 1.20D-04

 Cycle  10  Pass 1  IDiag  1:
 RMSU=  2.11D-06    CP:  1.00D+00  9.95D-01
 E= -571.928198932200     Delta-E=       -0.000000056524 Rises=F Damp=F
 DIIS: error= 8.58D-06 at cycle   3 NSaved=   3.
 NSaved= 3 IEnMin= 3 EnMin= -571.928198932200     IErMin= 3 ErrMin= 8.58D-06
 ErrMax= 8.58D-06  0.00D+00 EMaxC= 1.00D-01 BMatC= 3.16D-08 BMatP= 9.03D-08
 IDIUse=1 WtCom= 1.00D+00 WtEn= 0.00D+00
 Coeff-Com: -0.131D-01 0.363D+00 0.651D+00
 Coeff:     -0.131D-01 0.363D+00 0.651D+00
 Gap=     0.282 Goal=   None    Shift=    0.000
 RMSDP=9.31D-07 MaxDP=2.76D-05 DE=-5.65D-08 OVMax= 5.47D-05

 Cycle  11  Pass 1  IDiag  1:
 RMSU=  6.26D-07    CP:  1.00D+00  1.04D+00  7.18D-01
 E= -571.928198955745     Delta-E=       -0.000000023545 Rises=F Damp=F
 DIIS: error= 2.12D-06 at cycle   4 NSaved=   4.
 NSaved= 4 IEnMin= 4 EnMin= -571.928198955745     IErMin= 4 ErrMin= 2.12D-06
 ErrMax= 2.12D-06  0.00D+00 EMaxC= 1.00D-01 BMatC= 2.34D-09 BMatP= 3.16D-08
 IDIUse=1 WtCom= 1.00D+00 WtEn= 0.00D+00
 Coeff-Com: -0.293D-01 0.143D+00 0.325D+00 0.562D+00
 Coeff:     -0.293D-01 0.143D+00 0.325D+00 0.562D+00
 Gap=     0.282 Goal=   None    Shift=    0.000
 RMSDP=2.66D-07 MaxDP=7.06D-06 DE=-2.35D-08 OVMax= 1.54D-05

 Cycle  12  Pass 1  IDiag  1:
 RMSU=  2.16D-07    CP:  1.00D+00  1.05D+00  7.50D-01  8.00D-01
 E= -571.928198957877     Delta-E=       -0.000000002131 Rises=F Damp=F
 DIIS: error= 6.46D-07 at cycle   5 NSaved=   5.
 NSaved= 5 IEnMin= 5 EnMin= -571.928198957877     IErMin= 5 ErrMin= 6.46D-07
 ErrMax= 6.46D-07  0.00D+00 EMaxC= 1.00D-01 BMatC= 1.09D-10 BMatP= 2.34D-09
 IDIUse=1 WtCom= 1.00D+00 WtEn= 0.00D+00
 Coeff-Com: -0.599D-02-0.129D-02 0.626D-02 0.145D+00 0.856D+00
 Coeff:     -0.599D-02-0.129D-02 0.626D-02 0.145D+00 0.856D+00
 Gap=     0.282 Goal=   None    Shift=    0.000
 RMSDP=1.07D-07 MaxDP=2.83D-06 DE=-2.13D-09 OVMax= 6.17D-06

 Cycle  13  Pass 1  IDiag  1:
 RMSU=  6.15D-08    CP:  1.00D+00  1.06D+00  7.53D-01  9.21D-01  1.15D+00
 E= -571.928198958067     Delta-E=       -0.000000000191 Rises=F Damp=F
 DIIS: error= 2.66D-07 at cycle   6 NSaved=   6.
 NSaved= 6 IEnMin= 6 EnMin= -571.928198958067     IErMin= 6 ErrMin= 2.66D-07
 ErrMax= 2.66D-07  0.00D+00 EMaxC= 1.00D-01 BMatC= 3.90D-11 BMatP= 1.09D-10
 IDIUse=1 WtCom= 1.00D+00 WtEn= 0.00D+00
 Coeff-Com:  0.225D-02-0.274D-01-0.599D-01-0.335D-01 0.421D+00 0.698D+00
 Coeff:      0.225D-02-0.274D-01-0.599D-01-0.335D-01 0.421D+00 0.698D+00
 Gap=     0.282 Goal=   None    Shift=    0.000
 RMSDP=4.41D-08 MaxDP=1.11D-06 DE=-1.91D-10 OVMax= 2.63D-06

 Cycle  14  Pass 1  IDiag  1:
 RMSU=  2.27D-08    CP:  1.00D+00  1.06D+00  7.57D-01  9.56D-01  1.28D+00
                    CP:  8.64D-01
 E= -571.928198958087     Delta-E=       -0.000000000020 Rises=F Damp=F
 DIIS: error= 7.61D-08 at cycle   7 NSaved=   7.
 NSaved= 7 IEnMin= 7 EnMin= -571.928198958087     IErMin= 7 ErrMin= 7.61D-08
 ErrMax= 7.61D-08  0.00D+00 EMaxC= 1.00D-01 BMatC= 2.49D-12 BMatP= 3.90D-11
 IDIUse=1 WtCom= 1.00D+00 WtEn= 0.00D+00
 Coeff-Com:  0.139D-02-0.114D-01-0.266D-01-0.254D-01 0.115D+00 0.288D+00
 Coeff-Com:  0.660D+00
 Coeff:      0.139D-02-0.114D-01-0.266D-01-0.254D-01 0.115D+00 0.288D+00
 Coeff:      0.660D+00
 Gap=     0.282 Goal=   None    Shift=    0.000
 RMSDP=1.18D-08 MaxDP=2.70D-07 DE=-2.00D-11 OVMax= 6.70D-07

 Cycle  15  Pass 1  IDiag  1:
 RMSU=  8.39D-09    CP:  1.00D+00  1.06D+00  7.57D-01  9.64D-01  1.30D+00
                    CP:  9.40D-01  9.36D-01
 E= -571.928198958092     Delta-E=       -0.000000000005 Rises=F Damp=F
 DIIS: error= 2.64D-08 at cycle   8 NSaved=   8.
 NSaved= 8 IEnMin= 8 EnMin= -571.928198958092     IErMin= 8 ErrMin= 2.64D-08
 ErrMax= 2.64D-08  0.00D+00 EMaxC= 1.00D-01 BMatC= 4.51D-13 BMatP= 2.49D-12
 IDIUse=1 WtCom= 1.00D+00 WtEn= 0.00D+00
 Coeff-Com:  0.270D-03-0.513D-03-0.235D-02-0.526D-02-0.135D-01 0.130D-01
 Coeff-Com:  0.306D+00 0.703D+00
 Coeff:      0.270D-03-0.513D-03-0.235D-02-0.526D-02-0.135D-01 0.130D-01
 Coeff:      0.306D+00 0.703D+00
 Gap=     0.282 Goal=   None    Shift=    0.000
 RMSDP=4.60D-09 MaxDP=1.71D-07 DE=-4.55D-12 OVMax= 3.24D-07

 SCF Done:  E(RM052X) =  -571.928198958     A.U. after   15 cycles
            NFock= 15  Conv=0.46D-08     -V/T= 2.0091
 KE= 5.667623476150D+02 PE=-2.834870069246D+03 EE= 9.448396549620D+02
 Leave Link  502 at Wed Oct 11 21:02:59 2023, MaxMem=  6710886400 cpu:             316.8 elap:              13.3
 (Enter /data0/home/software/g16/l601.exe)
 Copying SCF densities to generalized density rwf, IOpCl= 0 IROHF=0.

 **********************************************************************

            Population analysis using the SCF density.

 **********************************************************************

 Orbital symmetries:
       Occupied  (A) (A) (A) (A) (A) (A) (A) (A) (A) (A) (A) (A)
                 (A) (A) (A) (A) (A) (A) (A) (A) (A) (A) (A) (A)
                 (A) (A) (A) (A) (A) (A) (A) (A) (A) (A) (A) (A)
                 (A) (A) (A) (A) (A) (A) (A) (A) (A)
       Virtual   (A) (A) (A) (A) (A) (A) (A) (A) (A) (A) (A) (A)
                 (A) (A) (A) (A) (A) (A) (A) (A) (A) (A) (A) (A)
                 (A) (A) (A) (A) (A) (A) (A) (A) (A) (A) (A) (A)
                 (A) (A) (A) (A) (A) (A) (A) (A) (A) (A) (A) (A)
                 (A) (A) (A) (A) (A) (A) (A) (A) (A) (A) (A) (A)
                 (A) (A) (A) (A) (A) (A) (A) (A) (A) (A) (A) (A)
                 (A) (A) (A) (A) (A) (A) (A) (A) (A) (A) (A) (A)
                 (A) (A) (A) (A) (A) (A) (A) (A) (A) (A) (A) (A)
                 (A) (A) (A) (A) (A) (A) (A) (A) (A) (A) (A) (A)
                 (A) (A) (A) (A) (A) (A) (A) (A) (A) (A) (A) (A)
                 (A) (A) (A) (A) (A) (A) (A) (A) (A) (A) (A) (A)
                 (A) (A) (A) (A) (A) (A) (A) (A) (A) (A) (A) (A)
                 (A) (A) (A) (A) (A) (A) (A) (A) (A) (A) (A) (A)
                 (A) (A) (A)
 The electronic state is 1-A.
 Alpha  occ. eigenvalues --  -19.56803 -19.56724 -14.90675 -14.90315 -10.68066
 Alpha  occ. eigenvalues --  -10.65130 -10.64928 -10.63930 -10.63602 -10.61023
 Alpha  occ. eigenvalues --  -10.57603 -10.53426  -1.21008  -1.09530  -1.08261
 Alpha  occ. eigenvalues --   -0.99161  -0.93191  -0.90048  -0.85871  -0.80179
 Alpha  occ. eigenvalues --   -0.75115  -0.72003  -0.69578  -0.65250  -0.60115
 Alpha  occ. eigenvalues --   -0.57998  -0.56599  -0.55786  -0.54848  -0.54263
 Alpha  occ. eigenvalues --   -0.52506  -0.51257  -0.50229  -0.48473  -0.47185
 Alpha  occ. eigenvalues --   -0.44185  -0.43336  -0.42926  -0.39181  -0.38736
 Alpha  occ. eigenvalues --   -0.36753  -0.33145  -0.26458  -0.25267  -0.25117
 Alpha virt. eigenvalues --    0.03056   0.04625   0.12381   0.13000   0.14758
 Alpha virt. eigenvalues --    0.16168   0.17457   0.17852   0.18393   0.19154
 Alpha virt. eigenvalues --    0.19511   0.20659   0.22148   0.23219   0.24072
 Alpha virt. eigenvalues --    0.24958   0.26336   0.28280   0.28624   0.30205
 Alpha virt. eigenvalues --    0.33155   0.35544   0.36212   0.39194   0.45262
 Alpha virt. eigenvalues --    0.47086   0.50089   0.50885   0.51553   0.54333
 Alpha virt. eigenvalues --    0.55808   0.57021   0.59013   0.60350   0.61194
 Alpha virt. eigenvalues --    0.62967   0.64594   0.66405   0.68753   0.69711
 Alpha virt. eigenvalues --    0.71218   0.72589   0.74483   0.76429   0.77842
 Alpha virt. eigenvalues --    0.79442   0.80952   0.82424   0.84399   0.85796
 Alpha virt. eigenvalues --    0.86806   0.87845   0.88508   0.90034   0.91809
 Alpha virt. eigenvalues --    0.94286   0.95703   0.96251   0.98273   0.98765
 Alpha virt. eigenvalues --    0.98885   1.00665   1.01534   1.03010   1.04138
 Alpha virt. eigenvalues --    1.06855   1.07982   1.09361   1.12512   1.13538
 Alpha virt. eigenvalues --    1.18451   1.19026   1.20958   1.23866   1.25862
 Alpha virt. eigenvalues --    1.28649   1.29777   1.32566   1.34280   1.36595
 Alpha virt. eigenvalues --    1.37300   1.40635   1.41551   1.42964   1.49006
 Alpha virt. eigenvalues --    1.54565   1.58414   1.60306   1.63149   1.65498
 Alpha virt. eigenvalues --    1.68994   1.71136   1.75079   1.80737   1.80997
 Alpha virt. eigenvalues --    1.86317   1.90006   1.90306   1.92790   1.93668
 Alpha virt. eigenvalues --    1.97388   1.97978   1.99301   2.00317   2.01920
 Alpha virt. eigenvalues --    2.02788   2.04254   2.07358   2.08830   2.10959
 Alpha virt. eigenvalues --    2.11513   2.12637   2.14248   2.15490   2.19798
 Alpha virt. eigenvalues --    2.20917   2.22546   2.26139   2.29015   2.30602
 Alpha virt. eigenvalues --    2.31148   2.34536   2.37421   2.38613   2.39599
 Alpha virt. eigenvalues --    2.43241   2.45983   2.48809   2.53839   2.54269
 Alpha virt. eigenvalues --    2.56934   2.63313   2.64896   2.71096   2.73393
 Alpha virt. eigenvalues --    2.76316   2.77988   2.80122   2.82770   2.86179
 Alpha virt. eigenvalues --    2.93775   3.04997   3.07690   3.09935   3.10950
 Alpha virt. eigenvalues --    3.16382   3.25307   3.95325   4.04338   4.07022
 Alpha virt. eigenvalues --    4.16875   4.21698   4.28247   4.31886   4.39560
 Alpha virt. eigenvalues --    4.43798   4.53813   4.57456   4.68761
          Condensed to atoms (all electrons):
               1          2          3          4          5          6
     1  C    4.826688   0.629710  -0.093369   0.373867   0.377541  -0.029384
     2  C    0.629710   4.831206  -0.088504  -0.060721  -0.028634   0.377675
     3  C   -0.093369  -0.088504   4.961194   0.322394   0.005235   0.005543
     4  N    0.373867  -0.060721   0.322394   6.762034  -0.038483   0.002600
     5  H    0.377541  -0.028634   0.005235  -0.038483   0.455312  -0.000221
     6  H   -0.029384   0.377675   0.005543   0.002600  -0.000221   0.454113
     7  H    0.001663   0.002092   0.274007  -0.024379  -0.000040  -0.000047
     8  C   -0.037610   0.005657  -0.048167   0.258682  -0.002350  -0.000076
     9  H    0.002861  -0.000242  -0.002901  -0.031059   0.000008   0.000002
    10  H    0.000382  -0.000004  -0.000100  -0.040095   0.000090   0.000000
    11  H   -0.003559   0.000206   0.004233  -0.033154   0.002105  -0.000002
    12  N   -0.055695   0.374892   0.396127  -0.038201   0.002607  -0.038623
    13  C    0.004737  -0.042971  -0.043561   0.006899  -0.000071  -0.001797
    14  H    0.000174  -0.004608   0.003146  -0.000092  -0.000001   0.001883
    15  H   -0.000267   0.003111   0.000582   0.000365   0.000002   0.000024
    16  C    0.000029   0.000776  -0.000346  -0.000733  -0.000001   0.000282
    17  H    0.000001   0.000104  -0.000011  -0.000003  -0.000000  -0.000032
    18  H   -0.000107   0.004653   0.000185  -0.000056   0.000006   0.000469
    19  C    0.000001  -0.000114  -0.006534  -0.000044   0.000000  -0.000003
    20  H   -0.000001  -0.000017   0.000087   0.000008   0.000000   0.000000
    21  H    0.000000   0.000002   0.000236   0.000001  -0.000000   0.000000
    22  C   -0.000114  -0.000098   0.001883  -0.001469   0.000002   0.000005
    23  O   -0.000031  -0.000156  -0.034904   0.001579   0.000000   0.000000
    24  O    0.001416   0.001975   0.038948  -0.015370  -0.000000   0.000005
               7          8          9         10         11         12
     1  C    0.001663  -0.037610   0.002861   0.000382  -0.003559  -0.055695
     2  C    0.002092   0.005657  -0.000242  -0.000004   0.000206   0.374892
     3  C    0.274007  -0.048167  -0.002901  -0.000100   0.004233   0.396127
     4  N   -0.024379   0.258682  -0.031059  -0.040095  -0.033154  -0.038201
     5  H   -0.000040  -0.002350   0.000008   0.000090   0.002105   0.002607
     6  H   -0.000047  -0.000076   0.000002   0.000000  -0.000002  -0.038623
     7  H    0.379654  -0.000257   0.000614   0.000965   0.000020  -0.027433
     8  C   -0.000257   5.052314   0.385335   0.373760   0.377971   0.003900
     9  H    0.000614   0.385335   0.474664  -0.023106  -0.024038   0.000096
    10  H    0.000965   0.373760  -0.023106   0.437048  -0.021582  -0.000012
    11  H    0.000020   0.377971  -0.024038  -0.021582   0.504126  -0.000174
    12  N   -0.027433   0.003900   0.000096  -0.000012  -0.000174   6.731770
    13  C    0.000401  -0.000058   0.000001  -0.000006   0.000002   0.242011
    14  H    0.000010   0.000003  -0.000000   0.000000  -0.000000  -0.042061
    15  H    0.000615  -0.000001  -0.000001   0.000000  -0.000000  -0.036105
    16  C   -0.000655   0.000002   0.000001  -0.000004   0.000000  -0.053914
    17  H    0.000025  -0.000000  -0.000000   0.000000   0.000000   0.004412
    18  H    0.000056   0.000000   0.000000  -0.000003  -0.000000  -0.006941
    19  C    0.007383  -0.000003  -0.000001   0.000054   0.000000  -0.001559
    20  H   -0.000106   0.000000   0.000000  -0.000001  -0.000000  -0.000186
    21  H   -0.000150  -0.000000   0.000000  -0.000001  -0.000000   0.000026
    22  C   -0.006327   0.000349  -0.000045   0.000305   0.000001  -0.005067
    23  O    0.068497  -0.000022  -0.000009  -0.000049  -0.000000  -0.004246
    24  O   -0.011695  -0.001743  -0.000107   0.008804   0.000061  -0.007862
              13         14         15         16         17         18
     1  C    0.004737   0.000174  -0.000267   0.000029   0.000001  -0.000107
     2  C   -0.042971  -0.004608   0.003111   0.000776   0.000104   0.004653
     3  C   -0.043561   0.003146   0.000582  -0.000346  -0.000011   0.000185
     4  N    0.006899  -0.000092   0.000365  -0.000733  -0.000003  -0.000056
     5  H   -0.000071  -0.000001   0.000002  -0.000001  -0.000000   0.000006
     6  H   -0.001797   0.001883   0.000024   0.000282  -0.000032   0.000469
     7  H    0.000401   0.000010   0.000615  -0.000655   0.000025   0.000056
     8  C   -0.000058   0.000003  -0.000001   0.000002  -0.000000   0.000000
     9  H    0.000001  -0.000000  -0.000001   0.000001  -0.000000   0.000000
    10  H   -0.000006   0.000000   0.000000  -0.000004   0.000000  -0.000003
    11  H    0.000002  -0.000000  -0.000000   0.000000   0.000000  -0.000000
    12  N    0.242011  -0.042061  -0.036105  -0.053914   0.004412  -0.006941
    13  C    5.100801   0.387122   0.383430   0.314784  -0.041093  -0.042915
    14  H    0.387122   0.530740  -0.022686  -0.041044  -0.005326  -0.000238
    15  H    0.383430  -0.022686   0.460025  -0.038157  -0.000041   0.003749
    16  C    0.314784  -0.041044  -0.038157   5.151557   0.380687   0.378692
    17  H   -0.041093  -0.005326  -0.000041   0.380687   0.556749  -0.028048
    18  H   -0.042915  -0.000238   0.003749   0.378692  -0.028048   0.537080
    19  C   -0.034889   0.004013  -0.003949   0.329988  -0.034160  -0.032893
    20  H    0.005808  -0.000095   0.000233  -0.031457  -0.002122  -0.006068
    21  H   -0.004935  -0.000113   0.003148  -0.033640  -0.005396   0.005022
    22  C   -0.006719   0.000274  -0.002365  -0.028638   0.003517  -0.002027
    23  O    0.008241   0.000156   0.008846  -0.007991  -0.000194   0.000188
    24  O   -0.007365  -0.000065   0.000117   0.010705   0.000120   0.005022
              19         20         21         22         23         24
     1  C    0.000001  -0.000001   0.000000  -0.000114  -0.000031   0.001416
     2  C   -0.000114  -0.000017   0.000002  -0.000098  -0.000156   0.001975
     3  C   -0.006534   0.000087   0.000236   0.001883  -0.034904   0.038948
     4  N   -0.000044   0.000008   0.000001  -0.001469   0.001579  -0.015370
     5  H    0.000000   0.000000  -0.000000   0.000002   0.000000  -0.000000
     6  H   -0.000003   0.000000   0.000000   0.000005   0.000000   0.000005
     7  H    0.007383  -0.000106  -0.000150  -0.006327   0.068497  -0.011695
     8  C   -0.000003   0.000000  -0.000000   0.000349  -0.000022  -0.001743
     9  H   -0.000001   0.000000   0.000000  -0.000045  -0.000009  -0.000107
    10  H    0.000054  -0.000001  -0.000001   0.000305  -0.000049   0.008804
    11  H    0.000000  -0.000000  -0.000000   0.000001  -0.000000   0.000061
    12  N   -0.001559  -0.000186   0.000026  -0.005067  -0.004246  -0.007862
    13  C   -0.034889   0.005808  -0.004935  -0.006719   0.008241  -0.007365
    14  H    0.004013  -0.000095  -0.000113   0.000274   0.000156  -0.000065
    15  H   -0.003949   0.000233   0.003148  -0.002365   0.008846   0.000117
    16  C    0.329988  -0.031457  -0.033640  -0.028638  -0.007991   0.010705
    17  H   -0.034160  -0.002122  -0.005396   0.003517  -0.000194   0.000120
    18  H   -0.032893  -0.006068   0.005022  -0.002027   0.000188   0.005022
    19  C    5.397920   0.353704   0.344940   0.291627  -0.122077  -0.138693
    20  H    0.353704   0.549071  -0.026823  -0.019720   0.003578   0.004176
    21  H    0.344940  -0.026823   0.562758  -0.022616   0.008913   0.004528
    22  C    0.291627  -0.019720  -0.022616   4.409834   0.421230   0.449636
    23  O   -0.122077   0.003578   0.008913   0.421230   8.367447  -0.097322
    24  O   -0.138693   0.004176   0.004528   0.449636  -0.097322   8.367711
 Mulliken charges:
               1
     1  C    0.001065
     2  C   -0.005992
     3  C    0.304597
     4  N   -0.444570
     5  H    0.226892
     6  H    0.227581
     7  H    0.335087
     8  C   -0.367686
     9  H    0.217928
    10  H    0.263553
    11  H    0.193783
    12  N   -0.437762
    13  C   -0.227855
    14  H    0.188808
    15  H    0.239325
    16  C   -0.330923
    17  H    0.170810
    18  H    0.184174
    19  C   -0.354713
    20  H    0.169930
    21  H    0.164099
    22  C    0.516543
    23  O   -0.621674
    24  O   -0.613000
 Sum of Mulliken charges =  -0.00000
 Mulliken charges with hydrogens summed into heavy atoms:
               1
     1  C    0.227957
     2  C    0.221589
     3  C    0.639684
     4  N   -0.444570
     8  C    0.307579
    12  N   -0.437762
    13  C    0.200277
    16  C    0.024062
    19  C   -0.020684
    22  C    0.516543
    23  O   -0.621674
    24  O   -0.613000
 Electronic spatial extent (au):  <R**2>=           1886.9776
 Charge=             -0.0000 electrons
 Dipole moment (field-independent basis, Debye):
    X=              6.2008    Y=              6.3318    Z=              0.4986  Tot=              8.8764
 Quadrupole moment (field-independent basis, Debye-Ang):
   XX=            -57.8586   YY=            -70.5955   ZZ=            -74.2772
   XY=            -10.2650   XZ=             -0.5822   YZ=             -0.6720
 Traceless Quadrupole moment (field-independent basis, Debye-Ang):
   XX=              9.7185   YY=             -3.0184   ZZ=             -6.7001
   XY=            -10.2650   XZ=             -0.5822   YZ=             -0.6720
 Octapole moment (field-independent basis, Debye-Ang**2):
  XXX=             40.4151  YYY=             21.0544  ZZZ=              4.3157  XYY=             20.2309
  XXY=             -3.4095  XXZ=            -15.7646  XZZ=              5.7960  YZZ=              5.7589
  YYZ=             -5.3533  XYZ=            -12.3508
 Hexadecapole moment (field-independent basis, Debye-Ang**3):
 XXXX=          -1318.8853 YYYY=           -725.2672 ZZZZ=           -261.8356 XXXY=            -29.9897
 XXXZ=            -29.7914 YYYX=            -27.0133 YYYZ=              0.3259 ZZZX=             -1.7264
 ZZZY=             -2.1522 XXYY=           -348.6059 XXZZ=           -281.0111 YYZZ=           -177.6584
 XXYZ=              1.6210 YYXZ=              0.3637 ZZXY=            -11.7874
 N-N= 7.513398677109D+02 E-N=-2.834870069476D+03  KE= 5.667623476150D+02
 No NMR shielding tensors so no spin-rotation constants.
 Leave Link  601 at Wed Oct 11 21:02:59 2023, MaxMem=  6710886400 cpu:               2.3 elap:               0.1
 (Enter /data0/home/software/g16/l9999.exe)
 1\1\GINC-LOCALHOST\SP\RM052X\6-31G(d)\C8H12N2O2\WUHANYU\11-Oct-2023\0\
 \#p M052X/6-31G*\\Title Card Required\\0,1\C,0,2.280261,0.992161,-0.50
 0051\C,0,1.212106,1.795567,-0.274616\C,0,0.828608,-0.134699,0.729553\N
 ,0,2.02744,-0.203095,0.149554\H,0,3.189366,1.164927,-1.047163\H,0,1.01
 2783,2.804245,-0.588326\H,0,0.287209,-0.94652,1.215076\C,0,2.746551,-1
 .458666,-0.039183\H,0,2.752345,-2.015848,0.894935\H,0,2.23119,-2.03872
 8,-0.80523\H,0,3.76956,-1.24087,-0.337528\N,0,0.319996,1.079305,0.5049
 49\C,0,-1.074292,1.481869,0.769027\H,0,-1.045517,2.544198,1.011981\H,0
 ,-1.407357,0.930475,1.646988\C,0,-1.997392,1.213395,-0.435815\H,0,-2.8
 09558,1.944166,-0.39028\H,0,-1.435188,1.416991,-1.350164\C,0,-2.582385
 ,-0.209421,-0.491258\H,0,-3.007845,-0.375681,-1.482323\H,0,-3.370523,-
 0.315843,0.25566\C,0,-1.470151,-1.234993,-0.201361\O,0,-1.448244,-1.71
 316,0.963853\O,0,-0.58405,-1.371372,-1.08172\\Version=ES64L-G16RevA.03
 \State=1-A\HF=-571.928199\RMSD=4.598e-09\Dipole=2.4395997,2.4911153,0.
 1961645\Quadrupole=7.225453,-2.2441126,-4.9813404,-7.6317943,-0.432879
 6,-0.4995905\PG=C01 [X(C8H12N2O2)]\\@


 NO MATTER HOW THIN YOU SLICE IT, IT'S STILL BALONEY

                                   -- ALFRED E. SMITH
 Job cpu time:       0 days  0 hours  5 minutes 42.0 seconds.
 Elapsed time:       0 days  0 hours  0 minutes 14.5 seconds.
 File lengths (MBytes):  RWF=     25 Int=      0 D2E=      0 Chk=      4 Scr=      1
 Normal termination of Gaussian 16 at Wed Oct 11 21:02:59 2023.
