 Entering Gaussian System, Link 0=g16
 Initial command:
 /data0/home/software/g16/l1.exe "/data0/home/software/g16/scratch/Gau-347065.inp" -scrdir="/data0/home/software/g16/scratch/"
 Default is to use a total of  22 processors:
                               22 via shared-memory
                                1 via Linda
 Entering Link 1 = /data0/home/software/g16/l1.exe PID=    347066.
  
 Copyright (c) 1988,1990,1992,1993,1995,1998,2003,2009,2016,
            Gaussian, Inc.  All Rights Reserved.
  
 This is part of the Gaussian(R) 16 program.  It is based on
 the Gaussian(R) 09 system (copyright 2009, Gaussian, Inc.),
 the Gaussian(R) 03 system (copyright 2003, Gaussian, Inc.),
 the Gaussian(R) 98 system (copyright 1998, Gaussian, Inc.),
 the Gaussian(R) 94 system (copyright 1995, Gaussian, Inc.),
 the Gaussian 92(TM) system (copyright 1992, Gaussian, Inc.),
 the Gaussian 90(TM) system (copyright 1990, Gaussian, Inc.),
 the Gaussian 88(TM) system (copyright 1988, Gaussian, Inc.),
 the Gaussian 86(TM) system (copyright 1986, Carnegie Mellon
 University), and the Gaussian 82(TM) system (copyright 1983,
 Carnegie Mellon University). Gaussian is a federally registered
 trademark of Gaussian, Inc.
  
 This software contains proprietary and confidential information,
 including trade secrets, belonging to Gaussian, Inc.
  
 This software is provided under written license and may be
 used, copied, transmitted, or stored only in accord with that
 written license.
  
 The following legend is applicable only to US Government
 contracts under FAR:
  
                    RESTRICTED RIGHTS LEGEND
  
 Use, reproduction and disclosure by the US Government is
 subject to restrictions as set forth in subparagraphs (a)
 and (c) of the Commercial Computer Software - Restricted
 Rights clause in FAR 52.227-19.
  
 Gaussian, Inc.
 340 Quinnipiac St., Bldg. 40, Wallingford CT 06492
  
  
 ---------------------------------------------------------------
 Warning -- This program may not be used in any manner that
 competes with the business of Gaussian, Inc. or will provide
 assistance to any competitor of Gaussian, Inc.  The licensee
 of this program is prohibited from giving any competitor of
 Gaussian, Inc. access to this program.  By using this program,
 the user acknowledges that Gaussian, Inc. is engaged in the
 business of creating and licensing software in the field of
 computational chemistry and represents and warrants to the
 licensee that it is not a competitor of Gaussian, Inc. and that
 it will not use this program in any manner prohibited above.
 ---------------------------------------------------------------
  

 Cite this work as:
 Gaussian 16, Revision A.03,
 M. J. Frisch, G. W. Trucks, H. B. Schlegel, G. E. Scuseria, 
 M. A. Robb, J. R. Cheeseman, G. Scalmani, V. Barone, 
 G. A. Petersson, H. Nakatsuji, X. Li, M. Caricato, A. V. Marenich, 
 J. Bloino, B. G. Janesko, R. Gomperts, B. Mennucci, H. P. Hratchian, 
 J. V. Ortiz, A. F. Izmaylov, J. L. Sonnenberg, D. Williams-Young, 
 F. Ding, F. Lipparini, F. Egidi, J. Goings, B. Peng, A. Petrone, 
 T. Henderson, D. Ranasinghe, V. G. Zakrzewski, J. Gao, N. Rega, 
 G. Zheng, W. Liang, M. Hada, M. Ehara, K. Toyota, R. Fukuda, 
 J. Hasegawa, M. Ishida, T. Nakajima, Y. Honda, O. Kitao, H. Nakai, 
 T. Vreven, K. Throssell, J. A. Montgomery, Jr., J. E. Peralta, 
 F. Ogliaro, M. J. Bearpark, J. J. Heyd, E. N. Brothers, K. N. Kudin, 
 V. N. Staroverov, T. A. Keith, R. Kobayashi, J. Normand, 
 K. Raghavachari, A. P. Rendell, J. C. Burant, S. S. Iyengar, 
 J. Tomasi, M. Cossi, J. M. Millam, M. Klene, C. Adamo, R. Cammi, 
 J. W. Ochterski, R. L. Martin, K. Morokuma, O. Farkas, 
 J. B. Foresman, and D. J. Fox, Gaussian, Inc., Wallingford CT, 2016.
 
 ******************************************
 Gaussian 16:  ES64L-G16RevA.03 25-Dec-2016
                20-Feb-2023 
 ******************************************
 %nproc=24
 Will use up to   24 processors via shared memory.
 %mem=50GB
 ---------------------------------------------------
 #p M062X/6-311+G(2d,p) nosymm em=GD3 counterpoise=2
 ---------------------------------------------------
 1/38=1,62=2,172=1/1;
 2/12=2,15=1,17=6,18=5,40=1/2;
 1/38=1,53=2,62=2,63=1/22;
 3/5=4,6=6,7=112,11=2,25=1,30=1,74=-55,124=31/1,2,3;
 4//1;
 5/5=2,38=5/2;
 6/7=2,8=2,9=2,10=2,28=1/1;
 1/53=2,62=2,63=1/22;
 3/5=7,6=11,7=112,11=2,25=1,30=1,74=-55,82=7,124=31/1,2,3;
 4//1;
 5/5=2,38=5/2;
 6/7=2,8=2,9=2,10=2,28=1/1;
 1/53=2,62=2,63=1/22(-4);
 99/5=1,9=1/99;
 Leave Link    1 at Mon Feb 20 00:31:31 2023, MaxMem=  6710886400 cpu:               0.7 elap:               0.0
 (Enter /data0/home/software/g16/l101.exe)
 -------------------
 Title Card Required
 -------------------
 Symbolic Z-matrix:
 Charge =  0 Multiplicity = 1 in supermolecule
 Charge =  0 Multiplicity = 1 in fragment      1.
 Charge =  0 Multiplicity = 1 in fragment      2.
 O                     11.101    15.0383   12.28057    
 H                     11.4385   15.71674   11.64326    
 H                     11.17454   14.21565   11.80568    
 O                     12.77373   15.15883   14.51086    
 H                     13.60813   15.22179   14.03477    
 H                     12.12472   15.00322   13.80236    
 
 ITRead=  0  0  0  0  0  0
 MicOpt= -1 -1 -1 -1 -1 -1
 NAtoms=      6 NQM=        6 NQMF=       0 NMMI=      0 NMMIF=      0
                NMic=       0 NMicF=      0.
                    Isotopes and Nuclear Properties:
 (Nuclear quadrupole moments (NQMom) in fm**2, nuclear magnetic moments (NMagM)
  in nuclear magnetons)

  Atom         1           2           3           4           5           6
 IAtWgt=          16           1           1          16           1           1
 AtmWgt=  15.9949146   1.0078250   1.0078250  15.9949146   1.0078250   1.0078250
 NucSpn=           0           1           1           0           1           1
 AtZEff=  -0.0000000  -0.0000000  -0.0000000  -0.0000000  -0.0000000  -0.0000000
 NQMom=    0.0000000   0.0000000   0.0000000   0.0000000   0.0000000   0.0000000
 NMagM=    0.0000000   2.7928460   2.7928460   0.0000000   2.7928460   2.7928460
 AtZNuc=   8.0000000   1.0000000   1.0000000   8.0000000   1.0000000   1.0000000
 Leave Link  101 at Mon Feb 20 00:31:31 2023, MaxMem=  6710886400 cpu:               1.9 elap:               0.1
 (Enter /data0/home/software/g16/l202.exe)
                          Input orientation:                          
 ---------------------------------------------------------------------
 Center     Atomic      Atomic             Coordinates (Angstroms)
 Number     Number       Type             X           Y           Z
 ---------------------------------------------------------------------
      1          8           0       11.100997   15.038299   12.280570
      2          1           0       11.438500   15.716736   11.643264
      3          1           0       11.174540   14.215646   11.805682
      4          8           0       12.773726   15.158833   14.510860
      5          1           0       13.608127   15.221788   14.034773
      6          1           0       12.124724   15.003221   13.802359
 ---------------------------------------------------------------------
                    Distance matrix (angstroms):
                    1          2          3          4          5
     1  O    0.000000
     2  H    0.990123   0.000000
     3  H    0.952725   1.532751   0.000000
     4  O    2.790474   3.212038   3.281004   0.000000
     5  H    3.065387   3.266737   3.450147   0.962729   0.000000
     6  H    1.834418   2.375226   2.347305   0.973341   1.517324
                    6
     6  H    0.000000
 Symmetry turned off by external request.
 Stoichiometry    H4O2
 Framework group  C1[X(H4O2)]
 Deg. of freedom    12
 Full point group                 C1      NOp   1
 Rotational constants (GHZ):         199.9515285           7.0506711           6.9970941
 Leave Link  202 at Mon Feb 20 00:31:31 2023, MaxMem=  6710886400 cpu:               0.1 elap:               0.0
 (Enter /data0/home/software/g16/l122.exe)
 Counterpoise: doing full-system calculation.
 Leave Link  122 at Mon Feb 20 00:31:31 2023, MaxMem=  6710886400 cpu:               0.1 elap:               0.0
 (Enter /data0/home/software/g16/l301.exe)
 Standard basis: 6-311+G(2d,p) (5D, 7F)
 Ernie: Thresh=  0.10000D-02 Tol=  0.10000D-05 Strict=F.
    78 basis functions,   116 primitive gaussians,    82 cartesian basis functions
    10 alpha electrons       10 beta electrons
       nuclear repulsion energy        37.3572570111 Hartrees.
 IExCor= 4336 DFT=T Ex+Corr=M062X ExCW=0 ScaHFX=  0.540000
 ScaDFX=  1.000000  1.000000  1.000000  1.000000 ScalE2=  1.000000  1.000000
 IRadAn=      5 IRanWt=     -1 IRanGd=            0 ICorTp=0 IEmpDi=131
 NAtoms=    6 NActive=    6 NUniq=    6 SFac= 1.00D+00 NAtFMM=   60 NAOKFM=F Big=F
 Integral buffers will be    131072 words long.
 Raffenetti 2 integral format.
 Two-electron integral symmetry is turned off.
 R6Disp:  Grimme-D3 Dispersion energy=       -0.0000218444 Hartrees.
 Nuclear repulsion after empirical dispersion term =       37.3572351667 Hartrees.
 Leave Link  301 at Mon Feb 20 00:31:31 2023, MaxMem=  6710886400 cpu:               1.1 elap:               0.1
 (Enter /data0/home/software/g16/l302.exe)
 NPDir=0 NMtPBC=     1 NCelOv=     1 NCel=       1 NClECP=     1 NCelD=      1
         NCelK=      1 NCelE2=     1 NClLst=     1 CellRange=     0.0.
 One-electron integrals computed using PRISM.
 NBasis=    78 RedAO= T EigKep=  1.80D-03  NBF=    78
 NBsUse=    78 1.00D-06 EigRej= -1.00D+00 NBFU=    78
 Precomputing XC quadrature grid using
 IXCGrd= 4 IRadAn=           5 IRanWt=          -1 IRanGd=           0 AccXCQ= 0.00D+00.
 Generated NRdTot=       0 NPtTot=           0 NUsed=           0 NTot=          32
 NSgBfM=    82    82    82    82    82 MxSgAt=     6 MxSgA2=     6.
 Leave Link  302 at Mon Feb 20 00:31:31 2023, MaxMem=  6710886400 cpu:               2.6 elap:               0.1
 (Enter /data0/home/software/g16/l303.exe)
 DipDrv:  MaxL=1.
 Leave Link  303 at Mon Feb 20 00:31:31 2023, MaxMem=  6710886400 cpu:               0.4 elap:               0.0
 (Enter /data0/home/software/g16/l401.exe)
 ExpMin= 8.45D-02 ExpMax= 8.59D+03 ExpMxC= 1.30D+03 IAcc=3 IRadAn=         5 AccDes= 0.00D+00
 Harris functional with IExCor= 1009 and IRadAn=       5 diagonalized for initial guess.
 HarFok:  IExCor= 1009 AccDes= 0.00D+00 IRadAn=         5 IDoV= 1 UseB2=F ITyADJ=14
 ICtDFT=  3500011 ScaDFX=  1.000000  1.000000  1.000000  1.000000
 FoFCou: FMM=F IPFlag=           0 FMFlag=      100000 FMFlg1=           0
         NFxFlg=           0 DoJE=T BraDBF=F KetDBF=T FulRan=T
         wScrn=  0.000000 ICntrl=       500 IOpCl=  0 I1Cent=   200000004 NGrid=           0
         NMat0=    1 NMatS0=      1 NMatT0=    0 NMatD0=    1 NMtDS0=    0 NMtDT0=    0
 Symmetry not used in FoFCou.
 Harris En= -152.835418873395    
 JPrj=0 DoOrth=F DoCkMO=F.
 Leave Link  401 at Mon Feb 20 00:31:32 2023, MaxMem=  6710886400 cpu:               3.7 elap:               0.2
 (Enter /data0/home/software/g16/l502.exe)
 Keep R1 ints in memory in canonical form, NReq=26476721.
 FoFCou: FMM=F IPFlag=           0 FMFlag=           0 FMFlg1=           0
         NFxFlg=           0 DoJE=F BraDBF=F KetDBF=F FulRan=T
         wScrn=  0.000000 ICntrl=       600 IOpCl=  0 I1Cent=           0 NGrid=           0
         NMat0=    1 NMatS0=   3081 NMatT0=    0 NMatD0=    1 NMtDS0=    0 NMtDT0=    0
 Symmetry not used in FoFCou.
 Two-electron integral symmetry not used.
 Closed shell SCF:
 Using DIIS extrapolation, IDIIS=  1040.
 NGot=  6710886400 LenX=  6706122419 LenY=  6706115254
 Requested convergence on RMS density matrix=1.00D-08 within 128 cycles.
 Requested convergence on MAX density matrix=1.00D-06.
 Requested convergence on             energy=1.00D-06.
 No special actions if energy rises.
 Integral accuracy reduced to 1.0D-05 until final iterations.

 Cycle   1  Pass 0  IDiag  1:
 E= -152.708703319159    
 DIIS: error= 5.08D-02 at cycle   1 NSaved=   1.
 NSaved= 1 IEnMin= 1 EnMin= -152.708703319159     IErMin= 1 ErrMin= 5.08D-02
 ErrMax= 5.08D-02  0.00D+00 EMaxC= 1.00D-01 BMatC= 2.29D-01 BMatP= 2.29D-01
 IDIUse=3 WtCom= 4.92D-01 WtEn= 5.08D-01
 Coeff-Com:  0.100D+01
 Coeff-En:   0.100D+01
 Coeff:      0.100D+01
 Gap=     0.262 Goal=   None    Shift=    0.000
 GapD=    0.262 DampG=1.000 DampE=0.500 DampFc=0.5000 IDamp=-1.
 Damping current iteration by 5.00D-01
 RMSDP=7.05D-03 MaxDP=1.05D-01              OVMax= 1.83D-01

 Cycle   2  Pass 0  IDiag  1:
 E= -152.769249208905     Delta-E=       -0.060545889746 Rises=F Damp=T
 DIIS: error= 1.11D-02 at cycle   2 NSaved=   2.
 NSaved= 2 IEnMin= 2 EnMin= -152.769249208905     IErMin= 2 ErrMin= 1.11D-02
 ErrMax= 1.11D-02  0.00D+00 EMaxC= 1.00D-01 BMatC= 8.75D-03 BMatP= 2.29D-01
 IDIUse=3 WtCom= 8.89D-01 WtEn= 1.11D-01
 Coeff-Com:  0.672D-01 0.933D+00
 Coeff-En:   0.164D+00 0.836D+00
 Coeff:      0.780D-01 0.922D+00
 Gap=     0.397 Goal=   None    Shift=    0.000
 RMSDP=9.10D-04 MaxDP=1.73D-02 DE=-6.05D-02 OVMax= 1.08D-01

 Cycle   3  Pass 0  IDiag  1:
 E= -152.849922220941     Delta-E=       -0.080673012036 Rises=F Damp=F
 DIIS: error= 1.93D-03 at cycle   3 NSaved=   3.
 NSaved= 3 IEnMin= 3 EnMin= -152.849922220941     IErMin= 3 ErrMin= 1.93D-03
 ErrMax= 1.93D-03  0.00D+00 EMaxC= 1.00D-01 BMatC= 2.36D-04 BMatP= 8.75D-03
 IDIUse=3 WtCom= 9.81D-01 WtEn= 1.93D-02
 Coeff-Com: -0.239D-01 0.464D-01 0.978D+00
 Coeff-En:   0.000D+00 0.000D+00 0.100D+01
 Coeff:     -0.234D-01 0.455D-01 0.978D+00
 Gap=     0.400 Goal=   None    Shift=    0.000
 RMSDP=1.29D-04 MaxDP=1.70D-03 DE=-8.07D-02 OVMax= 4.20D-03

 Cycle   4  Pass 0  IDiag  1:
 E= -152.850093612461     Delta-E=       -0.000171391520 Rises=F Damp=F
 DIIS: error= 7.77D-04 at cycle   4 NSaved=   4.
 NSaved= 4 IEnMin= 4 EnMin= -152.850093612461     IErMin= 4 ErrMin= 7.77D-04
 ErrMax= 7.77D-04  0.00D+00 EMaxC= 1.00D-01 BMatC= 3.94D-05 BMatP= 2.36D-04
 IDIUse=3 WtCom= 9.92D-01 WtEn= 7.77D-03
 Coeff-Com: -0.988D-02 0.118D-01 0.424D+00 0.574D+00
 Coeff-En:   0.000D+00 0.000D+00 0.000D+00 0.100D+01
 Coeff:     -0.980D-02 0.117D-01 0.421D+00 0.577D+00
 Gap=     0.402 Goal=   None    Shift=    0.000
 RMSDP=4.39D-05 MaxDP=9.90D-04 DE=-1.71D-04 OVMax= 1.38D-03

 Cycle   5  Pass 0  IDiag  1:
 E= -152.850117279270     Delta-E=       -0.000023666809 Rises=F Damp=F
 DIIS: error= 2.37D-04 at cycle   5 NSaved=   5.
 NSaved= 5 IEnMin= 5 EnMin= -152.850117279270     IErMin= 5 ErrMin= 2.37D-04
 ErrMax= 2.37D-04  0.00D+00 EMaxC= 1.00D-01 BMatC= 3.20D-06 BMatP= 3.94D-05
 IDIUse=3 WtCom= 9.98D-01 WtEn= 2.37D-03
 Coeff-Com:  0.518D-03-0.324D-02 0.858D-02 0.200D+00 0.794D+00
 Coeff-En:   0.000D+00 0.000D+00 0.000D+00 0.000D+00 0.100D+01
 Coeff:      0.517D-03-0.324D-02 0.856D-02 0.199D+00 0.795D+00
 Gap=     0.402 Goal=   None    Shift=    0.000
 RMSDP=1.70D-05 MaxDP=3.48D-04 DE=-2.37D-05 OVMax= 6.26D-04

 Cycle   6  Pass 0  IDiag  1:
 E= -152.850119654177     Delta-E=       -0.000002374907 Rises=F Damp=F
 DIIS: error= 3.44D-05 at cycle   6 NSaved=   6.
 NSaved= 6 IEnMin= 6 EnMin= -152.850119654177     IErMin= 6 ErrMin= 3.44D-05
 ErrMax= 3.44D-05  0.00D+00 EMaxC= 1.00D-01 BMatC= 7.63D-08 BMatP= 3.20D-06
 IDIUse=1 WtCom= 1.00D+00 WtEn= 0.00D+00
 Coeff-Com:  0.720D-03-0.105D-02-0.247D-01-0.230D-01 0.980D-01 0.950D+00
 Coeff:      0.720D-03-0.105D-02-0.247D-01-0.230D-01 0.980D-01 0.950D+00
 Gap=     0.403 Goal=   None    Shift=    0.000
 RMSDP=6.01D-06 MaxDP=1.12D-04 DE=-2.37D-06 OVMax= 1.13D-04

 Initial convergence to 1.0D-05 achieved.  Increase integral accuracy.
 Cycle   7  Pass 1  IDiag  1:
 E= -152.850126837276     Delta-E=       -0.000007183098 Rises=F Damp=F
 DIIS: error= 1.21D-05 at cycle   1 NSaved=   1.
 NSaved= 1 IEnMin= 1 EnMin= -152.850126837276     IErMin= 1 ErrMin= 1.21D-05
 ErrMax= 1.21D-05  0.00D+00 EMaxC= 1.00D-01 BMatC= 2.34D-08 BMatP= 2.34D-08
 IDIUse=1 WtCom= 1.00D+00 WtEn= 0.00D+00
 Coeff-Com:  0.100D+01
 Coeff:      0.100D+01
 Gap=     0.403 Goal=   None    Shift=    0.000
 RMSDP=6.01D-06 MaxDP=1.12D-04 DE=-7.18D-06 OVMax= 3.18D-05

 Cycle   8  Pass 1  IDiag  1:
 E= -152.850126855320     Delta-E=       -0.000000018044 Rises=F Damp=F
 DIIS: error= 3.02D-06 at cycle   2 NSaved=   2.
 NSaved= 2 IEnMin= 2 EnMin= -152.850126855320     IErMin= 2 ErrMin= 3.02D-06
 ErrMax= 3.02D-06  0.00D+00 EMaxC= 1.00D-01 BMatC= 5.59D-10 BMatP= 2.34D-08
 IDIUse=1 WtCom= 1.00D+00 WtEn= 0.00D+00
 Coeff-Com: -0.464D-01 0.105D+01
 Coeff:     -0.464D-01 0.105D+01
 Gap=     0.403 Goal=   None    Shift=    0.000
 RMSDP=4.83D-07 MaxDP=7.48D-06 DE=-1.80D-08 OVMax= 1.05D-05

 Cycle   9  Pass 1  IDiag  1:
 E= -152.850126855634     Delta-E=       -0.000000000315 Rises=F Damp=F
 DIIS: error= 2.36D-06 at cycle   3 NSaved=   3.
 NSaved= 3 IEnMin= 3 EnMin= -152.850126855634     IErMin= 3 ErrMin= 2.36D-06
 ErrMax= 2.36D-06  0.00D+00 EMaxC= 1.00D-01 BMatC= 3.98D-10 BMatP= 5.59D-10
 IDIUse=1 WtCom= 1.00D+00 WtEn= 0.00D+00
 Coeff-Com: -0.427D-01 0.495D+00 0.548D+00
 Coeff:     -0.427D-01 0.495D+00 0.548D+00
 Gap=     0.403 Goal=   None    Shift=    0.000
 RMSDP=1.30D-07 MaxDP=3.21D-06 DE=-3.15D-10 OVMax= 4.05D-06

 Cycle  10  Pass 1  IDiag  1:
 E= -152.850126855892     Delta-E=       -0.000000000258 Rises=F Damp=F
 DIIS: error= 5.55D-07 at cycle   4 NSaved=   4.
 NSaved= 4 IEnMin= 4 EnMin= -152.850126855892     IErMin= 4 ErrMin= 5.55D-07
 ErrMax= 5.55D-07  0.00D+00 EMaxC= 1.00D-01 BMatC= 1.25D-11 BMatP= 3.98D-10
 IDIUse=1 WtCom= 1.00D+00 WtEn= 0.00D+00
 Coeff-Com: -0.615D-02 0.376D-01 0.151D+00 0.818D+00
 Coeff:     -0.615D-02 0.376D-01 0.151D+00 0.818D+00
 Gap=     0.403 Goal=   None    Shift=    0.000
 RMSDP=5.41D-08 MaxDP=8.93D-07 DE=-2.58D-10 OVMax= 1.18D-06

 Cycle  11  Pass 1  IDiag  1:
 E= -152.850126855903     Delta-E=       -0.000000000011 Rises=F Damp=F
 DIIS: error= 8.72D-08 at cycle   5 NSaved=   5.
 NSaved= 5 IEnMin= 5 EnMin= -152.850126855903     IErMin= 5 ErrMin= 8.72D-08
 ErrMax= 8.72D-08  0.00D+00 EMaxC= 1.00D-01 BMatC= 4.78D-13 BMatP= 1.25D-11
 IDIUse=1 WtCom= 1.00D+00 WtEn= 0.00D+00
 Coeff-Com:  0.256D-02-0.367D-01-0.321D-01 0.609D-01 0.101D+01
 Coeff:      0.256D-02-0.367D-01-0.321D-01 0.609D-01 0.101D+01
 Gap=     0.403 Goal=   None    Shift=    0.000
 RMSDP=2.64D-08 MaxDP=5.01D-07 DE=-1.11D-11 OVMax= 5.47D-07

 Cycle  12  Pass 1  IDiag  1:
 E= -152.850126855904     Delta-E=       -0.000000000001 Rises=F Damp=F
 DIIS: error= 2.90D-08 at cycle   6 NSaved=   6.
 NSaved= 6 IEnMin= 6 EnMin= -152.850126855904     IErMin= 6 ErrMin= 2.90D-08
 ErrMax= 2.90D-08  0.00D+00 EMaxC= 1.00D-01 BMatC= 6.02D-14 BMatP= 4.78D-13
 IDIUse=1 WtCom= 1.00D+00 WtEn= 0.00D+00
 Coeff-Com:  0.957D-03-0.119D-01-0.152D-01-0.119D-01 0.279D+00 0.759D+00
 Coeff:      0.957D-03-0.119D-01-0.152D-01-0.119D-01 0.279D+00 0.759D+00
 Gap=     0.403 Goal=   None    Shift=    0.000
 RMSDP=3.54D-09 MaxDP=5.24D-08 DE=-1.14D-12 OVMax= 1.00D-07

 SCF Done:  E(RM062X) =  -152.850126856     A.U. after   12 cycles
            NFock= 12  Conv=0.35D-08     -V/T= 2.0029
 KE= 1.524061672727D+02 PE=-4.364058183624D+02 EE= 9.379228906713D+01
 Leave Link  502 at Mon Feb 20 00:31:33 2023, MaxMem=  6710886400 cpu:              23.3 elap:               1.1
 (Enter /data0/home/software/g16/l601.exe)
 Copying SCF densities to generalized density rwf, IOpCl= 0 IROHF=0.

 **********************************************************************

            Population analysis using the SCF density.

 **********************************************************************

 Alpha  occ. eigenvalues --  -19.66036 -19.59130  -1.16748  -1.10125  -0.63828
 Alpha  occ. eigenvalues --   -0.58263  -0.50945  -0.45984  -0.41946  -0.36958
 Alpha virt. eigenvalues --    0.03295   0.09702   0.11106   0.14682   0.16089
 Alpha virt. eigenvalues --    0.16968   0.19843   0.21705   0.22469   0.24267
 Alpha virt. eigenvalues --    0.30556   0.33376   0.47736   0.51399   0.55114
 Alpha virt. eigenvalues --    0.64323   0.93994   0.96975   1.02459   1.04884
 Alpha virt. eigenvalues --    1.07965   1.09183   1.14683   1.17537   1.22414
 Alpha virt. eigenvalues --    1.24878   1.31772   1.35615   1.36771   1.48693
 Alpha virt. eigenvalues --    1.66422   1.70820   1.72390   1.75656   1.78353
 Alpha virt. eigenvalues --    1.98670   2.04499   2.10180   2.11423   2.23199
 Alpha virt. eigenvalues --    2.35395   2.37762   2.47578   2.53027   2.54724
 Alpha virt. eigenvalues --    2.61613   2.86223   2.92868   2.99517   3.10983
 Alpha virt. eigenvalues --    5.07751   5.09791   5.47721   5.53036   5.87888
 Alpha virt. eigenvalues --    5.95921   6.77005   6.79401   6.81771   6.83974
 Alpha virt. eigenvalues --    6.87044   6.88611   6.95543   6.97730   7.06592
 Alpha virt. eigenvalues --    7.18702  49.94308  50.02127
          Condensed to atoms (all electrons):
               1          2          3          4          5          6
     1  O    8.042303   0.311546   0.305839   0.025197   0.005145  -0.063315
     2  H    0.311546   0.405270  -0.019090  -0.003810  -0.001240   0.001794
     3  H    0.305839  -0.019090   0.416861  -0.005217  -0.000960   0.003792
     4  O    0.025197  -0.003810  -0.005217   8.004970   0.309970   0.317827
     5  H    0.005145  -0.001240  -0.000960   0.309970   0.464521  -0.035101
     6  H   -0.063315   0.001794   0.003792   0.317827  -0.035101   0.361322
 Mulliken charges:
               1
     1  O   -0.626716
     2  H    0.305530
     3  H    0.298775
     4  O   -0.648937
     5  H    0.257665
     6  H    0.413682
 Sum of Mulliken charges =  -0.00000
 Mulliken charges with hydrogens summed into heavy atoms:
               1
     1  O   -0.022410
     4  O    0.022410
         Mulliken charges condensed to fragments:
      1     -0.022410
      2      0.022410
 Electronic spatial extent (au):  <R**2>=          39347.7363
 Charge=             -0.0000 electrons
 Dipole moment (field-independent basis, Debye):
    X=              0.6010    Y=             -0.4485    Z=             -4.4759  Tot=              4.5383
 Quadrupole moment (field-independent basis, Debye-Ang):
   XX=              1.5141   YY=            -25.6358   ZZ=           -132.0910
   XY=              4.6980   XZ=            -46.4831   YZ=            -73.4038
 Traceless Quadrupole moment (field-independent basis, Debye-Ang):
   XX=             53.5850   YY=             26.4351   ZZ=            -80.0201
   XY=              4.6980   XZ=            -46.4831   YZ=            -73.4038
 Octapole moment (field-independent basis, Debye-Ang**2):
  XXX=           -194.8336  YYY=           -855.3675  ZZZ=          -2913.4834  XYY=           -142.3633
  XXY=            -17.6725  XXZ=           -641.3740  XZZ=          -1503.9809  YZZ=          -2070.1662
  YYZ=          -1362.4619  XYZ=           -759.0263
 Hexadecapole moment (field-independent basis, Debye-Ang**3):
 XXXX=          -6570.6993 YYYY=         -22782.8780 ZZZZ=         -57035.0996 XXXY=          -3285.2951
 XXXZ=         -10643.0422 YYYX=          -7604.5940 YYYZ=         -26931.9579 ZZZX=         -34184.7739
 ZZZY=         -44980.5924 XXYY=          -2684.1269 XXZZ=         -19353.5338 YYZZ=         -34700.7370
 XXYZ=         -10217.9982 YYXZ=         -14357.0248 ZZXY=         -23456.6470
 N-N= 3.735723516666D+01 E-N=-4.364058171884D+02  KE= 1.524061672727D+02
 No NMR shielding tensors so no spin-rotation constants.
 Leave Link  601 at Mon Feb 20 00:31:33 2023, MaxMem=  6710886400 cpu:               1.8 elap:               0.1
 (Enter /data0/home/software/g16/l122.exe)
 CPIOFr:  IOpCl= 0 IRwI=-1 IRwCP=  731 ICalc= -1 LCPTot=       10496 Len1MO=       26312 IndFrg=       10496
 CPIOFr:  IOpCl= 0 IRwI=-1 IRwCP=  731 ICalc=  0 LCPTot=       10496 Len1MO=       26312 IndFrg=       36808
 Counterpoise: doing calculation for fragment   1 using the basis set of the full-system, NewBq=T
 Leave Link  122 at Mon Feb 20 00:31:33 2023, MaxMem=  6710886400 cpu:               0.1 elap:               0.0
 (Enter /data0/home/software/g16/l301.exe)
 Basis read from rwf:  (5D, 7F)
 No pseudopotential information found on rwf file.
    78 basis functions,   116 primitive gaussians,    82 cartesian basis functions
     5 alpha electrons        5 beta electrons
       nuclear repulsion energy         9.0643768651 Hartrees.
 IExCor= 4336 DFT=T Ex+Corr=M062X ExCW=0 ScaHFX=  0.540000
 ScaDFX=  1.000000  1.000000  1.000000  1.000000 ScalE2=  1.000000  1.000000
 IRadAn=      5 IRanWt=     -1 IRanGd=            0 ICorTp=0 IEmpDi=131
 NAtoms=    6 NActive=    6 NUniq=    6 SFac= 1.00D+00 NAtFMM=   60 NAOKFM=F Big=F
 Integral buffers will be    131072 words long.
 Raffenetti 2 integral format.
 Two-electron integral symmetry is turned off.
 R6Disp:  Grimme-D3 Dispersion energy=       -0.0000000080 Hartrees.
 Nuclear repulsion after empirical dispersion term =        9.0643768571 Hartrees.
 No density basis found on file   718.
 Leave Link  301 at Mon Feb 20 00:31:33 2023, MaxMem=  6710886400 cpu:               1.2 elap:               0.1
 (Enter /data0/home/software/g16/l302.exe)
 NPDir=0 NMtPBC=     1 NCelOv=     1 NCel=       1 NClECP=     1 NCelD=      1
         NCelK=      1 NCelE2=     1 NClLst=     1 CellRange=     0.0.
 One-electron integrals computed using PRISM.
 NBasis=    78 RedAO= T EigKep=  1.80D-03  NBF=    78
 NBsUse=    78 1.00D-06 EigRej= -1.00D+00 NBFU=    78
 Precomputing XC quadrature grid using
 IXCGrd= 4 IRadAn=           5 IRanWt=          -1 IRanGd=           0 AccXCQ= 0.00D+00.
 Generated NRdTot=       0 NPtTot=           0 NUsed=           0 NTot=          32
 NSgBfM=    82    82    82    82    82 MxSgAt=     6 MxSgA2=     6.
 Leave Link  302 at Mon Feb 20 00:31:33 2023, MaxMem=  6710886400 cpu:               2.4 elap:               0.1
 (Enter /data0/home/software/g16/l303.exe)
 DipDrv:  MaxL=1.
 Leave Link  303 at Mon Feb 20 00:31:33 2023, MaxMem=  6710886400 cpu:               0.4 elap:               0.0
 (Enter /data0/home/software/g16/l401.exe)
 ExpMin= 8.45D-02 ExpMax= 8.59D+03 ExpMxC= 1.30D+03 IAcc=3 IRadAn=         5 AccDes= 0.00D+00
 Harris functional with IExCor= 1009 and IRadAn=       5 diagonalized for initial guess.
 HarFok:  IExCor= 1009 AccDes= 0.00D+00 IRadAn=         5 IDoV= 1 UseB2=F ITyADJ=14
 ICtDFT=  3500011 ScaDFX=  1.000000  1.000000  1.000000  1.000000
 FoFCou: FMM=F IPFlag=           0 FMFlag=      100000 FMFlg1=           0
         NFxFlg=           0 DoJE=T BraDBF=F KetDBF=T FulRan=T
         wScrn=  0.000000 ICntrl=       500 IOpCl=  0 I1Cent=   200000004 NGrid=           0
         NMat0=    1 NMatS0=      1 NMatT0=    0 NMatD0=    1 NMtDS0=    0 NMtDT0=    0
 Symmetry not used in FoFCou.
 Harris En= -76.4162939158556    
 JPrj=0 DoOrth=F DoCkMO=F.
 Leave Link  401 at Mon Feb 20 00:31:33 2023, MaxMem=  6710886400 cpu:               3.6 elap:               0.2
 (Enter /data0/home/software/g16/l502.exe)
 Keep R1 ints in memory in canonical form, NReq=26476721.
 FoFCou: FMM=F IPFlag=           0 FMFlag=           0 FMFlg1=           0
         NFxFlg=           0 DoJE=F BraDBF=F KetDBF=F FulRan=T
         wScrn=  0.000000 ICntrl=       600 IOpCl=  0 I1Cent=           0 NGrid=           0
         NMat0=    1 NMatS0=   3081 NMatT0=    0 NMatD0=    1 NMtDS0=    0 NMtDT0=    0
 Symmetry not used in FoFCou.
 Two-electron integral symmetry not used.
 Closed shell SCF:
 Using DIIS extrapolation, IDIIS=  1040.
 NGot=  6710886400 LenX=  6706122419 LenY=  6706115254
 Requested convergence on RMS density matrix=1.00D-08 within 128 cycles.
 Requested convergence on MAX density matrix=1.00D-06.
 Requested convergence on             energy=1.00D-06.
 No special actions if energy rises.
 Integral accuracy reduced to 1.0D-05 until final iterations.

 Cycle   1  Pass 0  IDiag  1:
 E= -76.3469969953474    
 DIIS: error= 4.88D-02 at cycle   1 NSaved=   1.
 NSaved= 1 IEnMin= 1 EnMin= -76.3469969953474     IErMin= 1 ErrMin= 4.88D-02
 ErrMax= 4.88D-02  0.00D+00 EMaxC= 1.00D-01 BMatC= 1.20D-01 BMatP= 1.20D-01
 IDIUse=3 WtCom= 5.12D-01 WtEn= 4.88D-01
 Coeff-Com:  0.100D+01
 Coeff-En:   0.100D+01
 Coeff:      0.100D+01
 Gap=     0.315 Goal=   None    Shift=    0.000
 GapD=    0.315 DampG=1.000 DampE=0.500 DampFc=0.5000 IDamp=-1.
 Damping current iteration by 5.00D-01
 RMSDP=5.83D-03 MaxDP=9.97D-02              OVMax= 1.72D-01

 Cycle   2  Pass 0  IDiag  1:
 E= -76.3778276876897     Delta-E=       -0.030830692342 Rises=F Damp=T
 DIIS: error= 8.61D-03 at cycle   2 NSaved=   2.
 NSaved= 2 IEnMin= 2 EnMin= -76.3778276876897     IErMin= 2 ErrMin= 8.61D-03
 ErrMax= 8.61D-03  0.00D+00 EMaxC= 1.00D-01 BMatC= 5.00D-03 BMatP= 1.20D-01
 IDIUse=3 WtCom= 9.14D-01 WtEn= 8.61D-02
 Coeff-Com:  0.877D-01 0.912D+00
 Coeff-En:   0.197D+00 0.803D+00
 Coeff:      0.971D-01 0.903D+00
 Gap=     0.446 Goal=   None    Shift=    0.000
 RMSDP=8.67D-04 MaxDP=1.48D-02 DE=-3.08D-02 OVMax= 1.03D-01

 Cycle   3  Pass 0  IDiag  1:
 E= -76.4219650394483     Delta-E=       -0.044137351759 Rises=F Damp=F
 DIIS: error= 1.87D-03 at cycle   3 NSaved=   3.
 NSaved= 3 IEnMin= 3 EnMin= -76.4219650394483     IErMin= 3 ErrMin= 1.87D-03
 ErrMax= 1.87D-03  0.00D+00 EMaxC= 1.00D-01 BMatC= 1.18D-04 BMatP= 5.00D-03
 IDIUse=3 WtCom= 9.81D-01 WtEn= 1.87D-02
 Coeff-Com: -0.237D-01 0.446D-01 0.979D+00
 Coeff-En:   0.000D+00 0.000D+00 0.100D+01
 Coeff:     -0.233D-01 0.438D-01 0.979D+00
 Gap=     0.449 Goal=   None    Shift=    0.000
 RMSDP=7.68D-05 MaxDP=1.15D-03 DE=-4.41D-02 OVMax= 3.63D-03

 Cycle   4  Pass 0  IDiag  1:
 E= -76.4220620635742     Delta-E=       -0.000097024126 Rises=F Damp=F
 DIIS: error= 2.05D-04 at cycle   4 NSaved=   4.
 NSaved= 4 IEnMin= 4 EnMin= -76.4220620635742     IErMin= 4 ErrMin= 2.05D-04
 ErrMax= 2.05D-04  0.00D+00 EMaxC= 1.00D-01 BMatC= 3.05D-06 BMatP= 1.18D-04
 IDIUse=3 WtCom= 9.98D-01 WtEn= 2.05D-03
 Coeff-Com: -0.231D-02-0.116D-02 0.152D+00 0.851D+00
 Coeff-En:   0.000D+00 0.000D+00 0.000D+00 0.100D+01
 Coeff:     -0.230D-02-0.116D-02 0.152D+00 0.851D+00
 Gap=     0.449 Goal=   None    Shift=    0.000
 RMSDP=1.83D-05 MaxDP=3.42D-04 DE=-9.70D-05 OVMax= 5.47D-04

 Cycle   5  Pass 0  IDiag  1:
 E= -76.4220640145609     Delta-E=       -0.000001950987 Rises=F Damp=F
 DIIS: error= 3.92D-05 at cycle   5 NSaved=   5.
 NSaved= 5 IEnMin= 5 EnMin= -76.4220640145609     IErMin= 5 ErrMin= 3.92D-05
 ErrMax= 3.92D-05  0.00D+00 EMaxC= 1.00D-01 BMatC= 8.02D-08 BMatP= 3.05D-06
 IDIUse=1 WtCom= 1.00D+00 WtEn= 0.00D+00
 Coeff-Com:  0.131D-02-0.202D-02-0.368D-01-0.555D-01 0.109D+01
 Coeff:      0.131D-02-0.202D-02-0.368D-01-0.555D-01 0.109D+01
 Gap=     0.450 Goal=   None    Shift=    0.000
 RMSDP=1.20D-05 MaxDP=1.77D-04 DE=-1.95D-06 OVMax= 2.19D-04

 Cycle   6  Pass 0  IDiag  1:
 E= -76.4220641546450     Delta-E=       -0.000000140084 Rises=F Damp=F
 DIIS: error= 6.99D-06 at cycle   6 NSaved=   6.
 NSaved= 6 IEnMin= 6 EnMin= -76.4220641546450     IErMin= 6 ErrMin= 6.99D-06
 ErrMax= 6.99D-06  0.00D+00 EMaxC= 1.00D-01 BMatC= 1.96D-09 BMatP= 8.02D-08
 IDIUse=1 WtCom= 1.00D+00 WtEn= 0.00D+00
 Coeff-Com: -0.251D-03 0.367D-03 0.310D-02-0.606D-02-0.148D+00 0.115D+01
 Coeff:     -0.251D-03 0.367D-03 0.310D-02-0.606D-02-0.148D+00 0.115D+01
 Gap=     0.450 Goal=   None    Shift=    0.000
 RMSDP=1.70D-06 MaxDP=2.61D-05 DE=-1.40D-07 OVMax= 4.06D-05

 Initial convergence to 1.0D-05 achieved.  Increase integral accuracy.
 Cycle   7  Pass 1  IDiag  1:
 E= -76.4220676909115     Delta-E=       -0.000003536267 Rises=F Damp=F
 DIIS: error= 8.04D-06 at cycle   1 NSaved=   1.
 NSaved= 1 IEnMin= 1 EnMin= -76.4220676909115     IErMin= 1 ErrMin= 8.04D-06
 ErrMax= 8.04D-06  0.00D+00 EMaxC= 1.00D-01 BMatC= 1.06D-08 BMatP= 1.06D-08
 IDIUse=1 WtCom= 1.00D+00 WtEn= 0.00D+00
 Coeff-Com:  0.100D+01
 Coeff:      0.100D+01
 Gap=     0.450 Goal=   None    Shift=    0.000
 RMSDP=1.70D-06 MaxDP=2.61D-05 DE=-3.54D-06 OVMax= 2.34D-05

 Cycle   8  Pass 1  IDiag  1:
 E= -76.4220676981763     Delta-E=       -0.000000007265 Rises=F Damp=F
 DIIS: error= 2.21D-06 at cycle   2 NSaved=   2.
 NSaved= 2 IEnMin= 2 EnMin= -76.4220676981763     IErMin= 2 ErrMin= 2.21D-06
 ErrMax= 2.21D-06  0.00D+00 EMaxC= 1.00D-01 BMatC= 2.38D-10 BMatP= 1.06D-08
 IDIUse=1 WtCom= 1.00D+00 WtEn= 0.00D+00
 Coeff-Com: -0.320D-01 0.103D+01
 Coeff:     -0.320D-01 0.103D+01
 Gap=     0.450 Goal=   None    Shift=    0.000
 RMSDP=2.93D-07 MaxDP=4.25D-06 DE=-7.26D-09 OVMax= 7.13D-06

 Cycle   9  Pass 1  IDiag  1:
 E= -76.4220676982440     Delta-E=       -0.000000000068 Rises=F Damp=F
 DIIS: error= 1.96D-06 at cycle   3 NSaved=   3.
 NSaved= 3 IEnMin= 3 EnMin= -76.4220676982440     IErMin= 3 ErrMin= 1.96D-06
 ErrMax= 1.96D-06  0.00D+00 EMaxC= 1.00D-01 BMatC= 2.04D-10 BMatP= 2.38D-10
 IDIUse=1 WtCom= 1.00D+00 WtEn= 0.00D+00
 Coeff-Com: -0.344D-01 0.510D+00 0.524D+00
 Coeff:     -0.344D-01 0.510D+00 0.524D+00
 Gap=     0.450 Goal=   None    Shift=    0.000
 RMSDP=1.12D-07 MaxDP=2.53D-06 DE=-6.77D-11 OVMax= 3.45D-06

 Cycle  10  Pass 1  IDiag  1:
 E= -76.4220676983738     Delta-E=       -0.000000000130 Rises=F Damp=F
 DIIS: error= 2.58D-07 at cycle   4 NSaved=   4.
 NSaved= 4 IEnMin= 4 EnMin= -76.4220676983738     IErMin= 4 ErrMin= 2.58D-07
 ErrMax= 2.58D-07  0.00D+00 EMaxC= 1.00D-01 BMatC= 4.36D-12 BMatP= 2.04D-10
 IDIUse=1 WtCom= 1.00D+00 WtEn= 0.00D+00
 Coeff-Com: -0.876D-02 0.904D-01 0.161D+00 0.758D+00
 Coeff:     -0.876D-02 0.904D-01 0.161D+00 0.758D+00
 Gap=     0.450 Goal=   None    Shift=    0.000
 RMSDP=1.69D-08 MaxDP=2.70D-07 DE=-1.30D-10 OVMax= 6.28D-07

 Cycle  11  Pass 1  IDiag  1:
 E= -76.4220676983770     Delta-E=       -0.000000000003 Rises=F Damp=F
 DIIS: error= 3.52D-08 at cycle   5 NSaved=   5.
 NSaved= 5 IEnMin= 5 EnMin= -76.4220676983770     IErMin= 5 ErrMin= 3.52D-08
 ErrMax= 3.52D-08  0.00D+00 EMaxC= 1.00D-01 BMatC= 1.04D-13 BMatP= 4.36D-12
 IDIUse=1 WtCom= 1.00D+00 WtEn= 0.00D+00
 Coeff-Com:  0.175D-02-0.277D-01-0.330D-01 0.556D-02 0.105D+01
 Coeff:      0.175D-02-0.277D-01-0.330D-01 0.556D-02 0.105D+01
 Gap=     0.450 Goal=   None    Shift=    0.000
 RMSDP=1.01D-08 MaxDP=1.87D-07 DE=-3.14D-12 OVMax= 2.97D-07

 Cycle  12  Pass 1  IDiag  1:
 E= -76.4220676983773     Delta-E=       -0.000000000000 Rises=F Damp=F
 DIIS: error= 5.87D-09 at cycle   6 NSaved=   6.
 NSaved= 6 IEnMin= 6 EnMin= -76.4220676983773     IErMin= 6 ErrMin= 5.87D-09
 ErrMax= 5.87D-09  0.00D+00 EMaxC= 1.00D-01 BMatC= 2.58D-15 BMatP= 1.04D-13
 IDIUse=1 WtCom= 1.00D+00 WtEn= 0.00D+00
 Coeff-Com:  0.180D-03-0.114D-02-0.185D-02-0.227D-01-0.849D-01 0.111D+01
 Coeff:      0.180D-03-0.114D-02-0.185D-02-0.227D-01-0.849D-01 0.111D+01
 Gap=     0.450 Goal=   None    Shift=    0.000
 RMSDP=2.68D-09 MaxDP=4.99D-08 DE=-3.41D-13 OVMax= 8.45D-08

 SCF Done:  E(RM062X) =  -76.4220676984     A.U. after   12 cycles
            NFock= 12  Conv=0.27D-08     -V/T= 2.0032
 KE= 7.617614239552D+01 PE=-1.989675386787D+02 EE= 3.730495172768D+01
 Leave Link  502 at Mon Feb 20 00:31:34 2023, MaxMem=  6710886400 cpu:              23.0 elap:               1.1
 (Enter /data0/home/software/g16/l601.exe)
 Copying SCF densities to generalized density rwf, IOpCl= 0 IROHF=0.

 **********************************************************************

            Population analysis using the SCF density.

 **********************************************************************

 Alpha  occ. eigenvalues --  -19.62730  -1.13170  -0.60550  -0.47513  -0.39989
 Alpha virt. eigenvalues --    0.04972   0.09605   0.12779   0.15089   0.16161
 Alpha virt. eigenvalues --    0.17516   0.20379   0.22344   0.22605   0.28995
 Alpha virt. eigenvalues --    0.32153   0.37132   0.50475   0.53977   0.59931
 Alpha virt. eigenvalues --    0.74695   0.75682   0.85873   0.95540   0.98587
 Alpha virt. eigenvalues --    1.01788   1.06149   1.09439   1.19806   1.21066
 Alpha virt. eigenvalues --    1.41615   1.56487   1.68443   1.74130   1.75685
 Alpha virt. eigenvalues --    1.78960   1.82134   1.90340   2.05440   2.09829
 Alpha virt. eigenvalues --    2.12188   2.24814   2.38611   2.40707   2.46053
 Alpha virt. eigenvalues --    2.49784   2.53258   2.57041   2.64129   2.67116
 Alpha virt. eigenvalues --    2.78352   2.84642   2.89994   3.02727   3.04266
 Alpha virt. eigenvalues --    3.44123   3.61753   4.53070   5.06032   5.12005
 Alpha virt. eigenvalues --    5.51599   5.91189   6.81236   6.83404   6.91368
 Alpha virt. eigenvalues --    6.97670   7.10106   9.64608   9.75592   9.79299
 Alpha virt. eigenvalues --    9.81621   9.97076  12.78847  13.14855  13.65978
 Alpha virt. eigenvalues --   17.64995  49.98004 135.69269
          Condensed to atoms (all electrons):
               1          2          3          4          5          6
     1  O    8.025759   0.312944   0.311942   0.060710  -0.004024  -0.114623
     2  H    0.312944   0.426283  -0.021209  -0.003588   0.000585   0.006037
     3  H    0.311942  -0.021209   0.431266  -0.003994   0.000415   0.007870
     4  O    0.060710  -0.003588  -0.003994   0.025597  -0.002973  -0.032822
     5  H   -0.004024   0.000585   0.000415  -0.002973   0.001242   0.001908
     6  H   -0.114623   0.006037   0.007870  -0.032822   0.001908   0.051502
 Mulliken charges:
               1
     1  O   -0.592707
     2  H    0.278949
     3  H    0.273711
     4  O   -0.042929
     5  H    0.002849
     6  H    0.080128
 Sum of Mulliken charges =   0.00000
 Mulliken charges with hydrogens summed into heavy atoms:
               1
     1  O   -0.040047
     4  O    0.040047
         Mulliken charges condensed to fragments:
      1     -0.040047
      2      0.040047
 Electronic spatial extent (au):  <R**2>=          17830.8081
 Charge=              0.0000 electrons
 Dipole moment (field-independent basis, Debye):
    X=              0.7141    Y=             -0.2729    Z=             -1.8898  Tot=              2.0386
 Quadrupole moment (field-independent basis, Debye-Ang):
   XX=              8.3830   YY=            -12.7025   ZZ=            -52.4799
   XY=              8.1936   XZ=            -12.8556   YZ=            -31.8811
 Traceless Quadrupole moment (field-independent basis, Debye-Ang):
   XX=             27.3162   YY=              6.2306   ZZ=            -33.5468
   XY=              8.1936   XZ=            -12.8556   YZ=            -31.8811
 Octapole moment (field-independent basis, Debye-Ang**2):
  XXX=             14.5916  YYY=           -388.2997  ZZZ=          -1077.5289  XYY=             35.2552
  XXY=            103.3923  XXZ=           -143.8651  XZZ=           -490.6034  YZZ=           -832.8498
  YYZ=           -587.4460  XYZ=           -226.0573
 Hexadecapole moment (field-independent basis, Debye-Ang**3):
 XXXX=          -1650.5244 YYYY=          -9839.9910 ZZZZ=         -19450.6496 XXXY=             31.9075
 XXXZ=          -2630.9013 YYYX=          -1543.7906 YYYZ=         -11304.0905 ZZZX=         -10925.8439
 ZZZY=         -16751.3662 XXYY=            662.1063 XXZZ=          -5544.0965 YYZZ=         -13879.1096
 XXYZ=          -2461.2061 YYXZ=          -4510.5167 ZZXY=          -7795.2406
 N-N= 9.064376857128D+00 E-N=-1.989675386103D+02  KE= 7.617614239552D+01
 No NMR shielding tensors so no spin-rotation constants.
 Leave Link  601 at Mon Feb 20 00:31:34 2023, MaxMem=  6710886400 cpu:               1.8 elap:               0.1
 (Enter /data0/home/software/g16/l122.exe)
 CPIOFr:  IOpCl= 0 IRwI=-1 IRwCP=  731 ICalc=  1 LCPTot=       10496 Len1MO=       26312 IndFrg=       63120
 Counterpoise: doing calculation for fragment   2 using the basis set of the full-system, NewBq=T
 Leave Link  122 at Mon Feb 20 00:31:34 2023, MaxMem=  6710886400 cpu:               0.1 elap:               0.0
 (Enter /data0/home/software/g16/l301.exe)
 Basis read from rwf:  (5D, 7F)
 No pseudopotential information found on rwf file.
    78 basis functions,   116 primitive gaussians,    82 cartesian basis functions
     5 alpha electrons        5 beta electrons
       nuclear repulsion energy         9.0954348208 Hartrees.
 IExCor= 4336 DFT=T Ex+Corr=M062X ExCW=0 ScaHFX=  0.540000
 ScaDFX=  1.000000  1.000000  1.000000  1.000000 ScalE2=  1.000000  1.000000
 IRadAn=      5 IRanWt=     -1 IRanGd=            0 ICorTp=0 IEmpDi=131
 NAtoms=    6 NActive=    6 NUniq=    6 SFac= 1.00D+00 NAtFMM=   60 NAOKFM=F Big=F
 Integral buffers will be    131072 words long.
 Raffenetti 2 integral format.
 Two-electron integral symmetry is turned off.
 R6Disp:  Grimme-D3 Dispersion energy=       -0.0000000074 Hartrees.
 Nuclear repulsion after empirical dispersion term =        9.0954348134 Hartrees.
 No density basis found on file   718.
 Leave Link  301 at Mon Feb 20 00:31:34 2023, MaxMem=  6710886400 cpu:               1.3 elap:               0.1
 (Enter /data0/home/software/g16/l302.exe)
 NPDir=0 NMtPBC=     1 NCelOv=     1 NCel=       1 NClECP=     1 NCelD=      1
         NCelK=      1 NCelE2=     1 NClLst=     1 CellRange=     0.0.
 One-electron integrals computed using PRISM.
 NBasis=    78 RedAO= T EigKep=  1.80D-03  NBF=    78
 NBsUse=    78 1.00D-06 EigRej= -1.00D+00 NBFU=    78
 Precomputing XC quadrature grid using
 IXCGrd= 4 IRadAn=           5 IRanWt=          -1 IRanGd=           0 AccXCQ= 0.00D+00.
 Generated NRdTot=       0 NPtTot=           0 NUsed=           0 NTot=          32
 NSgBfM=    82    82    82    82    82 MxSgAt=     6 MxSgA2=     6.
 Leave Link  302 at Mon Feb 20 00:31:35 2023, MaxMem=  6710886400 cpu:               2.6 elap:               0.1
 (Enter /data0/home/software/g16/l303.exe)
 DipDrv:  MaxL=1.
 Leave Link  303 at Mon Feb 20 00:31:35 2023, MaxMem=  6710886400 cpu:               0.4 elap:               0.0
 (Enter /data0/home/software/g16/l401.exe)
 ExpMin= 8.45D-02 ExpMax= 8.59D+03 ExpMxC= 1.30D+03 IAcc=3 IRadAn=         5 AccDes= 0.00D+00
 Harris functional with IExCor= 1009 and IRadAn=       5 diagonalized for initial guess.
 HarFok:  IExCor= 1009 AccDes= 0.00D+00 IRadAn=         5 IDoV= 1 UseB2=F ITyADJ=14
 ICtDFT=  3500011 ScaDFX=  1.000000  1.000000  1.000000  1.000000
 FoFCou: FMM=F IPFlag=           0 FMFlag=      100000 FMFlg1=           0
         NFxFlg=           0 DoJE=T BraDBF=F KetDBF=T FulRan=T
         wScrn=  0.000000 ICntrl=       500 IOpCl=  0 I1Cent=   200000004 NGrid=           0
         NMat0=    1 NMatS0=      1 NMatT0=    0 NMatD0=    1 NMtDS0=    0 NMtDT0=    0
 Symmetry not used in FoFCou.
 Harris En= -76.4166503364776    
 JPrj=0 DoOrth=F DoCkMO=F.
 Leave Link  401 at Mon Feb 20 00:31:35 2023, MaxMem=  6710886400 cpu:               3.6 elap:               0.2
 (Enter /data0/home/software/g16/l502.exe)
 Keep R1 ints in memory in canonical form, NReq=26476721.
 FoFCou: FMM=F IPFlag=           0 FMFlag=           0 FMFlg1=           0
         NFxFlg=           0 DoJE=F BraDBF=F KetDBF=F FulRan=T
         wScrn=  0.000000 ICntrl=       600 IOpCl=  0 I1Cent=           0 NGrid=           0
         NMat0=    1 NMatS0=   3081 NMatT0=    0 NMatD0=    1 NMtDS0=    0 NMtDT0=    0
 Symmetry not used in FoFCou.
 Two-electron integral symmetry not used.
 Closed shell SCF:
 Using DIIS extrapolation, IDIIS=  1040.
 NGot=  6710886400 LenX=  6706122419 LenY=  6706115254
 Requested convergence on RMS density matrix=1.00D-08 within 128 cycles.
 Requested convergence on MAX density matrix=1.00D-06.
 Requested convergence on             energy=1.00D-06.
 No special actions if energy rises.
 Integral accuracy reduced to 1.0D-05 until final iterations.

 Cycle   1  Pass 0  IDiag  1:
 E= -76.3470059968593    
 DIIS: error= 4.53D-02 at cycle   1 NSaved=   1.
 NSaved= 1 IEnMin= 1 EnMin= -76.3470059968593     IErMin= 1 ErrMin= 4.53D-02
 ErrMax= 4.53D-02  0.00D+00 EMaxC= 1.00D-01 BMatC= 1.20D-01 BMatP= 1.20D-01
 IDIUse=3 WtCom= 5.47D-01 WtEn= 4.53D-01
 Coeff-Com:  0.100D+01
 Coeff-En:   0.100D+01
 Coeff:      0.100D+01
 Gap=     0.295 Goal=   None    Shift=    0.000
 GapD=    0.295 DampG=1.000 DampE=0.500 DampFc=0.5000 IDamp=-1.
 Damping current iteration by 5.00D-01
 RMSDP=4.36D-03 MaxDP=9.95D-02              OVMax= 1.69D-01

 Cycle   2  Pass 0  IDiag  1:
 E= -76.3780740637060     Delta-E=       -0.031068066847 Rises=F Damp=T
 DIIS: error= 7.20D-03 at cycle   2 NSaved=   2.
 NSaved= 2 IEnMin= 2 EnMin= -76.3780740637060     IErMin= 2 ErrMin= 7.20D-03
 ErrMax= 7.20D-03  0.00D+00 EMaxC= 1.00D-01 BMatC= 4.92D-03 BMatP= 1.20D-01
 IDIUse=3 WtCom= 9.28D-01 WtEn= 7.20D-02
 Coeff-Com:  0.848D-01 0.915D+00
 Coeff-En:   0.193D+00 0.807D+00
 Coeff:      0.926D-01 0.907D+00
 Gap=     0.423 Goal=   None    Shift=    0.000
 RMSDP=5.58D-04 MaxDP=1.44D-02 DE=-3.11D-02 OVMax= 1.02D-01

 Cycle   3  Pass 0  IDiag  1:
 E= -76.4220407765715     Delta-E=       -0.043966712866 Rises=F Damp=F
 DIIS: error= 1.44D-03 at cycle   3 NSaved=   3.
 NSaved= 3 IEnMin= 3 EnMin= -76.4220407765715     IErMin= 3 ErrMin= 1.44D-03
 ErrMax= 1.44D-03  0.00D+00 EMaxC= 1.00D-01 BMatC= 1.31D-04 BMatP= 4.92D-03
 IDIUse=3 WtCom= 9.86D-01 WtEn= 1.44D-02
 Coeff-Com: -0.253D-01 0.479D-01 0.977D+00
 Coeff-En:   0.000D+00 0.000D+00 0.100D+01
 Coeff:     -0.250D-01 0.472D-01 0.978D+00
 Gap=     0.425 Goal=   None    Shift=    0.000
 RMSDP=7.68D-05 MaxDP=1.19D-03 DE=-4.40D-02 OVMax= 3.75D-03

 Cycle   4  Pass 0  IDiag  1:
 E= -76.4221473174794     Delta-E=       -0.000106540908 Rises=F Damp=F
 DIIS: error= 2.53D-04 at cycle   4 NSaved=   4.
 NSaved= 4 IEnMin= 4 EnMin= -76.4221473174794     IErMin= 4 ErrMin= 2.53D-04
 ErrMax= 2.53D-04  0.00D+00 EMaxC= 1.00D-01 BMatC= 2.97D-06 BMatP= 1.31D-04
 IDIUse=3 WtCom= 9.97D-01 WtEn= 2.53D-03
 Coeff-Com: -0.267D-02-0.516D-03 0.152D+00 0.851D+00
 Coeff-En:   0.000D+00 0.000D+00 0.000D+00 0.100D+01
 Coeff:     -0.266D-02-0.515D-03 0.152D+00 0.851D+00
 Gap=     0.425 Goal=   None    Shift=    0.000
 RMSDP=1.17D-05 MaxDP=3.39D-04 DE=-1.07D-04 OVMax= 5.24D-04

 Cycle   5  Pass 0  IDiag  1:
 E= -76.4221491808008     Delta-E=       -0.000001863321 Rises=F Damp=F
 DIIS: error= 5.59D-05 at cycle   5 NSaved=   5.
 NSaved= 5 IEnMin= 5 EnMin= -76.4221491808008     IErMin= 5 ErrMin= 5.59D-05
 ErrMax= 5.59D-05  0.00D+00 EMaxC= 1.00D-01 BMatC= 7.99D-08 BMatP= 2.97D-06
 IDIUse=1 WtCom= 1.00D+00 WtEn= 0.00D+00
 Coeff-Com:  0.139D-02-0.216D-02-0.367D-01-0.542D-01 0.109D+01
 Coeff:      0.139D-02-0.216D-02-0.367D-01-0.542D-01 0.109D+01
 Gap=     0.425 Goal=   None    Shift=    0.000
 RMSDP=6.28D-06 MaxDP=9.57D-05 DE=-1.86D-06 OVMax= 2.04D-04

 Initial convergence to 1.0D-05 achieved.  Increase integral accuracy.
 Cycle   6  Pass 1  IDiag  1:
 E= -76.4221523665847     Delta-E=       -0.000003185784 Rises=F Damp=F
 DIIS: error= 9.04D-06 at cycle   1 NSaved=   1.
 NSaved= 1 IEnMin= 1 EnMin= -76.4221523665847     IErMin= 1 ErrMin= 9.04D-06
 ErrMax= 9.04D-06  0.00D+00 EMaxC= 1.00D-01 BMatC= 8.78D-09 BMatP= 8.78D-09
 IDIUse=1 WtCom= 1.00D+00 WtEn= 0.00D+00
 Coeff-Com:  0.100D+01
 Coeff:      0.100D+01
 Gap=     0.425 Goal=   None    Shift=    0.000
 RMSDP=6.28D-06 MaxDP=9.57D-05 DE=-3.19D-06 OVMax= 3.38D-05

 Cycle   7  Pass 1  IDiag  1:
 E= -76.4221523739548     Delta-E=       -0.000000007370 Rises=F Damp=F
 DIIS: error= 4.78D-06 at cycle   2 NSaved=   2.
 NSaved= 2 IEnMin= 2 EnMin= -76.4221523739548     IErMin= 2 ErrMin= 4.78D-06
 ErrMax= 4.78D-06  0.00D+00 EMaxC= 1.00D-01 BMatC= 6.21D-10 BMatP= 8.78D-09
 IDIUse=1 WtCom= 1.00D+00 WtEn= 0.00D+00
 Coeff-Com:  0.347D-01 0.965D+00
 Coeff:      0.347D-01 0.965D+00
 Gap=     0.425 Goal=   None    Shift=    0.000
 RMSDP=3.23D-07 MaxDP=8.53D-06 DE=-7.37D-09 OVMax= 1.61D-05

 Cycle   8  Pass 1  IDiag  1:
 E= -76.4221523741326     Delta-E=       -0.000000000178 Rises=F Damp=F
 DIIS: error= 2.94D-06 at cycle   3 NSaved=   3.
 NSaved= 3 IEnMin= 3 EnMin= -76.4221523741326     IErMin= 3 ErrMin= 2.94D-06
 ErrMax= 2.94D-06  0.00D+00 EMaxC= 1.00D-01 BMatC= 5.94D-10 BMatP= 6.21D-10
 IDIUse=1 WtCom= 1.00D+00 WtEn= 0.00D+00
 Coeff-Com: -0.539D-01 0.513D+00 0.541D+00
 Coeff:     -0.539D-01 0.513D+00 0.541D+00
 Gap=     0.425 Goal=   None    Shift=    0.000
 RMSDP=1.45D-07 MaxDP=3.73D-06 DE=-1.78D-10 OVMax= 6.76D-06

 Cycle   9  Pass 1  IDiag  1:
 E= -76.4221523745267     Delta-E=       -0.000000000394 Rises=F Damp=F
 DIIS: error= 4.29D-07 at cycle   4 NSaved=   4.
 NSaved= 4 IEnMin= 4 EnMin= -76.4221523745267     IErMin= 4 ErrMin= 4.29D-07
 ErrMax= 4.29D-07  0.00D+00 EMaxC= 1.00D-01 BMatC= 3.82D-12 BMatP= 5.94D-10
 IDIUse=1 WtCom= 1.00D+00 WtEn= 0.00D+00
 Coeff-Com: -0.930D-03-0.422D-01 0.136D-01 0.103D+01
 Coeff:     -0.930D-03-0.422D-01 0.136D-01 0.103D+01
 Gap=     0.425 Goal=   None    Shift=    0.000
 RMSDP=3.41D-08 MaxDP=4.93D-07 DE=-3.94D-10 OVMax= 1.43D-06

 Cycle  10  Pass 1  IDiag  1:
 E= -76.4221523745327     Delta-E=       -0.000000000006 Rises=F Damp=F
 DIIS: error= 7.19D-08 at cycle   5 NSaved=   5.
 NSaved= 5 IEnMin= 5 EnMin= -76.4221523745327     IErMin= 5 ErrMin= 7.19D-08
 ErrMax= 7.19D-08  0.00D+00 EMaxC= 1.00D-01 BMatC= 2.24D-13 BMatP= 3.82D-12
 IDIUse=1 WtCom= 1.00D+00 WtEn= 0.00D+00
 Coeff-Com:  0.290D-02-0.396D-01-0.327D-01 0.165D+00 0.904D+00
 Coeff:      0.290D-02-0.396D-01-0.327D-01 0.165D+00 0.904D+00
 Gap=     0.425 Goal=   None    Shift=    0.000
 RMSDP=8.33D-09 MaxDP=1.41D-07 DE=-5.97D-12 OVMax= 3.63D-07

 SCF Done:  E(RM062X) =  -76.4221523745     A.U. after   10 cycles
            NFock= 10  Conv=0.83D-08     -V/T= 2.0030
 KE= 7.619037746752D+01 PE=-1.990353704529D+02 EE= 3.732740579747D+01
 Leave Link  502 at Mon Feb 20 00:31:36 2023, MaxMem=  6710886400 cpu:              19.6 elap:               0.9
 (Enter /data0/home/software/g16/l601.exe)
 Copying SCF densities to generalized density rwf, IOpCl= 0 IROHF=0.

 **********************************************************************

            Population analysis using the SCF density.

 **********************************************************************

 Alpha  occ. eigenvalues --  -19.62694  -1.13374  -0.60535  -0.47706  -0.40018
 Alpha virt. eigenvalues --    0.02529   0.09405   0.12245   0.12638   0.16362
 Alpha virt. eigenvalues --    0.18501   0.20754   0.21134   0.24053   0.26209
 Alpha virt. eigenvalues --    0.28442   0.34304   0.50153   0.54650   0.62198
 Alpha virt. eigenvalues --    0.69745   0.70751   0.81601   0.93459   0.99057
 Alpha virt. eigenvalues --    1.04332   1.04685   1.07186   1.19972   1.21812
 Alpha virt. eigenvalues --    1.33136   1.40287   1.66328   1.71181   1.73754
 Alpha virt. eigenvalues --    1.75898   1.80482   2.02173   2.05919   2.09179
 Alpha virt. eigenvalues --    2.22004   2.25618   2.38249   2.41632   2.43952
 Alpha virt. eigenvalues --    2.50398   2.55048   2.57946   2.60315   2.62636
 Alpha virt. eigenvalues --    2.68340   2.84657   2.93547   2.99758   3.12555
 Alpha virt. eigenvalues --    3.45055   3.50288   4.43265   5.00987   5.07077
 Alpha virt. eigenvalues --    5.50131   5.94827   6.78594   6.80457   6.89591
 Alpha virt. eigenvalues --    6.92223   7.13120   9.77228   9.78237   9.86757
 Alpha virt. eigenvalues --    9.93100  10.04854  12.81902  13.18918  13.61105
 Alpha virt. eigenvalues --   17.56466  49.98173 135.34457
          Condensed to atoms (all electrons):
               1          2          3          4          5          6
     1  O    0.024117  -0.008031  -0.009675   0.021500   0.005527   0.012543
     2  H   -0.008031   0.003882   0.002411  -0.003533  -0.001164  -0.001382
     3  H   -0.009675   0.002411   0.005570  -0.003628  -0.000889  -0.002303
     4  O    0.021500  -0.003533  -0.003628   7.943188   0.317640   0.316975
     5  H    0.005527  -0.001164  -0.000889   0.317640   0.438057  -0.032370
     6  H    0.012543  -0.001382  -0.002303   0.316975  -0.032370   0.357947
 Mulliken charges:
               1
     1  O   -0.045981
     2  H    0.007817
     3  H    0.008515
     4  O   -0.592142
     5  H    0.273199
     6  H    0.348591
 Sum of Mulliken charges =  -0.00000
 Mulliken charges with hydrogens summed into heavy atoms:
               1
     1  O   -0.029648
     4  O    0.029648
         Mulliken charges condensed to fragments:
      1     -0.029648
      2      0.029648
 Electronic spatial extent (au):  <R**2>=          21497.8573
 Charge=             -0.0000 electrons
 Dipole moment (field-independent basis, Debye):
    X=              0.3449    Y=             -0.1624    Z=             -2.0539  Tot=              2.0890
 Quadrupole moment (field-independent basis, Debye-Ang):
   XX=              4.2801   YY=            -12.5766   ZZ=            -65.4656
   XY=              3.5987   XZ=            -21.0581   YZ=            -33.2787
 Traceless Quadrupole moment (field-independent basis, Debye-Ang):
   XX=             28.8674   YY=             12.0108   ZZ=            -40.8782
   XY=              3.5987   XZ=            -21.0581   YZ=            -33.2787
 Octapole moment (field-independent basis, Debye-Ang**2):
  XXX=             -4.3582  YYY=           -459.8433  ZZZ=          -1551.5854  XYY=            -67.9632
  XXY=             49.7492  XXZ=           -269.3101  XZZ=           -758.9110  YZZ=          -1020.4706
  YYZ=           -647.4671  XYZ=           -340.3341
 Hexadecapole moment (field-independent basis, Debye-Ang**3):
 XXXX=          -1544.0851 YYYY=         -12813.2923 ZZZZ=         -32461.5784 XXXY=           -186.7985
 XXXZ=          -4287.0425 YYYX=          -4368.7499 YYYZ=         -13656.0606 ZZZX=         -18670.3384
 ZZZY=         -23885.2802 XXYY=           -728.2267 XXZZ=          -9683.1954 YYZZ=         -17493.4361
 XXYZ=          -4272.3395 YYXZ=          -6891.8990 ZZXY=         -11774.9949
 N-N= 9.095434813409D+00 E-N=-1.990353700446D+02  KE= 7.619037746752D+01
 No NMR shielding tensors so no spin-rotation constants.
 Leave Link  601 at Mon Feb 20 00:31:36 2023, MaxMem=  6710886400 cpu:               1.8 elap:               0.1
 (Enter /data0/home/software/g16/l122.exe)
 CPIOFr:  IOpCl= 0 IRwI=-1 IRwCP=  731 ICalc=  2 LCPTot=       10496 Len1MO=       26312 IndFrg=       89432
 Counterpoise: doing calculation for fragment   1 using the basis set of the fragment.
 Leave Link  122 at Mon Feb 20 00:31:36 2023, MaxMem=  6710886400 cpu:               0.1 elap:               0.0
 (Enter /data0/home/software/g16/l301.exe)
 Basis read from rwf:  (5D, 7F)
 No pseudopotential information found on rwf file.
    39 basis functions,    58 primitive gaussians,    41 cartesian basis functions
     5 alpha electrons        5 beta electrons
       nuclear repulsion energy         9.0643768651 Hartrees.
 IExCor= 4336 DFT=T Ex+Corr=M062X ExCW=0 ScaHFX=  0.540000
 ScaDFX=  1.000000  1.000000  1.000000  1.000000 ScalE2=  1.000000  1.000000
 IRadAn=      5 IRanWt=     -1 IRanGd=            0 ICorTp=0 IEmpDi=131
 NAtoms=    6 NActive=    3 NUniq=    3 SFac= 1.00D+00 NAtFMM=   60 NAOKFM=F Big=F
 Integral buffers will be    131072 words long.
 Raffenetti 2 integral format.
 Two-electron integral symmetry is turned off.
 R6Disp:  Grimme-D3 Dispersion energy=       -0.0000000080 Hartrees.
 Nuclear repulsion after empirical dispersion term =        9.0643768571 Hartrees.
 No density basis found on file   718.
 Leave Link  301 at Mon Feb 20 00:31:36 2023, MaxMem=  6710886400 cpu:               1.2 elap:               0.1
 (Enter /data0/home/software/g16/l302.exe)
 NPDir=0 NMtPBC=     1 NCelOv=     1 NCel=       1 NClECP=     1 NCelD=      1
         NCelK=      1 NCelE2=     1 NClLst=     1 CellRange=     0.0.
 One-electron integrals computed using PRISM.
 NBasis=    39 RedAO= T EigKep=  3.09D-03  NBF=    39
 NBsUse=    39 1.00D-06 EigRej= -1.00D+00 NBFU=    39
 Precomputing XC quadrature grid using
 IXCGrd= 4 IRadAn=           5 IRanWt=          -1 IRanGd=           0 AccXCQ= 0.00D+00.
 Generated NRdTot=       0 NPtTot=           0 NUsed=           0 NTot=          32
 NSgBfM=    41    41    41    41    41 MxSgAt=     3 MxSgA2=     3.
 Leave Link  302 at Mon Feb 20 00:31:36 2023, MaxMem=  6710886400 cpu:               2.2 elap:               0.1
 (Enter /data0/home/software/g16/l303.exe)
 DipDrv:  MaxL=1.
 Leave Link  303 at Mon Feb 20 00:31:36 2023, MaxMem=  6710886400 cpu:               0.4 elap:               0.0
 (Enter /data0/home/software/g16/l401.exe)
 ExpMin= 8.45D-02 ExpMax= 8.59D+03 ExpMxC= 1.30D+03 IAcc=3 IRadAn=         5 AccDes= 0.00D+00
 Harris functional with IExCor= 1009 and IRadAn=       5 diagonalized for initial guess.
 HarFok:  IExCor= 1009 AccDes= 0.00D+00 IRadAn=         5 IDoV= 1 UseB2=F ITyADJ=14
 ICtDFT=  3500011 ScaDFX=  1.000000  1.000000  1.000000  1.000000
 FoFCou: FMM=F IPFlag=           0 FMFlag=      100000 FMFlg1=           0
         NFxFlg=           0 DoJE=T BraDBF=F KetDBF=T FulRan=T
         wScrn=  0.000000 ICntrl=       500 IOpCl=  0 I1Cent=   200000004 NGrid=           0
         NMat0=    1 NMatS0=      1 NMatT0=    0 NMatD0=    1 NMtDS0=    0 NMtDT0=    0
 Symmetry not used in FoFCou.
 Harris En= -76.4157612066862    
 JPrj=0 DoOrth=F DoCkMO=F.
 Leave Link  401 at Mon Feb 20 00:31:36 2023, MaxMem=  6710886400 cpu:               2.9 elap:               0.1
 (Enter /data0/home/software/g16/l502.exe)
 Keep R1 ints in memory in canonical form, NReq=21036027.
 FoFCou: FMM=F IPFlag=           0 FMFlag=           0 FMFlg1=           0
         NFxFlg=           0 DoJE=F BraDBF=F KetDBF=F FulRan=T
         wScrn=  0.000000 ICntrl=       600 IOpCl=  0 I1Cent=           0 NGrid=           0
         NMat0=    1 NMatS0=    780 NMatT0=    0 NMatD0=    1 NMtDS0=    0 NMtDT0=    0
 Symmetry not used in FoFCou.
 Two-electron integral symmetry not used.
 Closed shell SCF:
 Using DIIS extrapolation, IDIIS=  1040.
 NGot=  6710886400 LenX=  6710576925 LenY=  6710574803
 Requested convergence on RMS density matrix=1.00D-08 within 128 cycles.
 Requested convergence on MAX density matrix=1.00D-06.
 Requested convergence on             energy=1.00D-06.
 No special actions if energy rises.
 Integral accuracy reduced to 1.0D-05 until final iterations.

 Cycle   1  Pass 0  IDiag  1:
 E= -76.3459603129779    
 DIIS: error= 6.98D-02 at cycle   1 NSaved=   1.
 NSaved= 1 IEnMin= 1 EnMin= -76.3459603129779     IErMin= 1 ErrMin= 6.98D-02
 ErrMax= 6.98D-02  0.00D+00 EMaxC= 1.00D-01 BMatC= 1.20D-01 BMatP= 1.20D-01
 IDIUse=3 WtCom= 3.02D-01 WtEn= 6.98D-01
 Coeff-Com:  0.100D+01
 Coeff-En:   0.100D+01
 Coeff:      0.100D+01
 Gap=     0.324 Goal=   None    Shift=    0.000
 GapD=    0.324 DampG=1.000 DampE=0.500 DampFc=0.5000 IDamp=-1.
 Damping current iteration by 5.00D-01
 RMSDP=7.92D-03 MaxDP=1.01D-01              OVMax= 1.68D-01

 Cycle   2  Pass 0  IDiag  1:
 E= -76.3771453272452     Delta-E=       -0.031185014267 Rises=F Damp=T
 DIIS: error= 1.11D-02 at cycle   2 NSaved=   2.
 NSaved= 2 IEnMin= 2 EnMin= -76.3771453272452     IErMin= 2 ErrMin= 1.11D-02
 ErrMax= 1.11D-02  0.00D+00 EMaxC= 1.00D-01 BMatC= 4.90D-03 BMatP= 1.20D-01
 IDIUse=3 WtCom= 8.89D-01 WtEn= 1.11D-01
 Coeff-Com:  0.844D-01 0.916D+00
 Coeff-En:   0.191D+00 0.809D+00
 Coeff:      0.962D-01 0.904D+00
 Gap=     0.456 Goal=   None    Shift=    0.000
 RMSDP=9.52D-04 MaxDP=1.42D-02 DE=-3.12D-02 OVMax= 1.01D-01

 Cycle   3  Pass 0  IDiag  1:
 E= -76.4210654085340     Delta-E=       -0.043920081289 Rises=F Damp=F
 DIIS: error= 2.20D-03 at cycle   3 NSaved=   3.
 NSaved= 3 IEnMin= 3 EnMin= -76.4210654085340     IErMin= 3 ErrMin= 2.20D-03
 ErrMax= 2.20D-03  0.00D+00 EMaxC= 1.00D-01 BMatC= 9.42D-05 BMatP= 4.90D-03
 IDIUse=3 WtCom= 9.78D-01 WtEn= 2.20D-02
 Coeff-Com: -0.201D-01 0.408D-01 0.979D+00
 Coeff-En:   0.000D+00 0.000D+00 0.100D+01
 Coeff:     -0.197D-01 0.399D-01 0.980D+00
 Gap=     0.460 Goal=   None    Shift=    0.000
 RMSDP=1.16D-04 MaxDP=1.05D-03 DE=-4.39D-02 OVMax= 3.37D-03

 Cycle   4  Pass 0  IDiag  1:
 E= -76.4211456320429     Delta-E=       -0.000080223509 Rises=F Damp=F
 DIIS: error= 4.21D-04 at cycle   4 NSaved=   4.
 NSaved= 4 IEnMin= 4 EnMin= -76.4211456320429     IErMin= 4 ErrMin= 4.21D-04
 ErrMax= 4.21D-04  0.00D+00 EMaxC= 1.00D-01 BMatC= 3.42D-06 BMatP= 9.42D-05
 IDIUse=3 WtCom= 9.96D-01 WtEn= 4.21D-03
 Coeff-Com: -0.202D-02-0.212D-02 0.165D+00 0.839D+00
 Coeff-En:   0.000D+00 0.000D+00 0.000D+00 0.100D+01
 Coeff:     -0.201D-02-0.211D-02 0.164D+00 0.840D+00
 Gap=     0.461 Goal=   None    Shift=    0.000
 RMSDP=2.24D-05 MaxDP=3.57D-04 DE=-8.02D-05 OVMax= 5.44D-04

 Cycle   5  Pass 0  IDiag  1:
 E= -76.4211477462198     Delta-E=       -0.000002114177 Rises=F Damp=F
 DIIS: error= 9.16D-05 at cycle   5 NSaved=   5.
 NSaved= 5 IEnMin= 5 EnMin= -76.4211477462198     IErMin= 5 ErrMin= 9.16D-05
 ErrMax= 9.16D-05  0.00D+00 EMaxC= 1.00D-01 BMatC= 8.69D-08 BMatP= 3.42D-06
 IDIUse=1 WtCom= 1.00D+00 WtEn= 0.00D+00
 Coeff-Com:  0.120D-02-0.184D-02-0.371D-01-0.698D-01 0.111D+01
 Coeff:      0.120D-02-0.184D-02-0.371D-01-0.698D-01 0.111D+01
 Gap=     0.461 Goal=   None    Shift=    0.000
 RMSDP=9.18D-06 MaxDP=1.04D-04 DE=-2.11D-06 OVMax= 2.09D-04

 Initial convergence to 1.0D-05 achieved.  Increase integral accuracy.
 Cycle   6  Pass 1  IDiag  1:
 E= -76.4211496056102     Delta-E=       -0.000001859390 Rises=F Damp=F
 DIIS: error= 1.17D-05 at cycle   1 NSaved=   1.
 NSaved= 1 IEnMin= 1 EnMin= -76.4211496056102     IErMin= 1 ErrMin= 1.17D-05
 ErrMax= 1.17D-05  0.00D+00 EMaxC= 1.00D-01 BMatC= 1.05D-08 BMatP= 1.05D-08
 IDIUse=1 WtCom= 1.00D+00 WtEn= 0.00D+00
 Coeff-Com:  0.100D+01
 Coeff:      0.100D+01
 Gap=     0.461 Goal=   None    Shift=    0.000
 RMSDP=9.18D-06 MaxDP=1.04D-04 DE=-1.86D-06 OVMax= 3.83D-05

 Cycle   7  Pass 1  IDiag  1:
 E= -76.4211496143213     Delta-E=       -0.000000008711 Rises=F Damp=F
 DIIS: error= 8.89D-06 at cycle   2 NSaved=   2.
 NSaved= 2 IEnMin= 2 EnMin= -76.4211496143213     IErMin= 2 ErrMin= 8.89D-06
 ErrMax= 8.89D-06  0.00D+00 EMaxC= 1.00D-01 BMatC= 8.85D-10 BMatP= 1.05D-08
 IDIUse=1 WtCom= 1.00D+00 WtEn= 0.00D+00
 Coeff-Com:  0.569D-01 0.943D+00
 Coeff:      0.569D-01 0.943D+00
 Gap=     0.461 Goal=   None    Shift=    0.000
 RMSDP=6.88D-07 MaxDP=1.04D-05 DE=-8.71D-09 OVMax= 1.90D-05

 Cycle   8  Pass 1  IDiag  1:
 E= -76.4211496145473     Delta-E=       -0.000000000226 Rises=F Damp=F
 DIIS: error= 5.44D-06 at cycle   3 NSaved=   3.
 NSaved= 3 IEnMin= 3 EnMin= -76.4211496145473     IErMin= 3 ErrMin= 5.44D-06
 ErrMax= 5.44D-06  0.00D+00 EMaxC= 1.00D-01 BMatC= 8.34D-10 BMatP= 8.85D-10
 IDIUse=1 WtCom= 1.00D+00 WtEn= 0.00D+00
 Coeff-Com: -0.571D-01 0.509D+00 0.548D+00
 Coeff:     -0.571D-01 0.509D+00 0.548D+00
 Gap=     0.461 Goal=   None    Shift=    0.000
 RMSDP=3.38D-07 MaxDP=4.34D-06 DE=-2.26D-10 OVMax= 7.97D-06

 Cycle   9  Pass 1  IDiag  1:
 E= -76.4211496151023     Delta-E=       -0.000000000555 Rises=F Damp=F
 DIIS: error= 6.20D-07 at cycle   4 NSaved=   4.
 NSaved= 4 IEnMin= 4 EnMin= -76.4211496151023     IErMin= 4 ErrMin= 6.20D-07
 ErrMax= 6.20D-07  0.00D+00 EMaxC= 1.00D-01 BMatC= 3.21D-12 BMatP= 8.34D-10
 IDIUse=1 WtCom= 1.00D+00 WtEn= 0.00D+00
 Coeff-Com:  0.615D-02-0.106D+00-0.653D-01 0.117D+01
 Coeff:      0.615D-02-0.106D+00-0.653D-01 0.117D+01
 Gap=     0.461 Goal=   None    Shift=    0.000
 RMSDP=7.32D-08 MaxDP=5.06D-07 DE=-5.55D-10 OVMax= 1.61D-06

 Cycle  10  Pass 1  IDiag  1:
 E= -76.4211496151088     Delta-E=       -0.000000000006 Rises=F Damp=F
 DIIS: error= 5.86D-08 at cycle   5 NSaved=   5.
 NSaved= 5 IEnMin= 5 EnMin= -76.4211496151088     IErMin= 5 ErrMin= 5.86D-08
 ErrMax= 5.86D-08  0.00D+00 EMaxC= 1.00D-01 BMatC= 1.15D-13 BMatP= 3.21D-12
 IDIUse=1 WtCom= 1.00D+00 WtEn= 0.00D+00
 Coeff-Com:  0.297D-02-0.348D-01-0.319D-01 0.172D+00 0.891D+00
 Coeff:      0.297D-02-0.348D-01-0.319D-01 0.172D+00 0.891D+00
 Gap=     0.461 Goal=   None    Shift=    0.000
 RMSDP=1.19D-08 MaxDP=9.65D-08 DE=-6.45D-12 OVMax= 2.44D-07

 Cycle  11  Pass 1  IDiag  1:
 E= -76.4211496151089     Delta-E=       -0.000000000000 Rises=F Damp=F
 DIIS: error= 6.39D-09 at cycle   6 NSaved=   6.
 NSaved= 6 IEnMin= 6 EnMin= -76.4211496151089     IErMin= 6 ErrMin= 6.39D-09
 ErrMax= 6.39D-09  0.00D+00 EMaxC= 1.00D-01 BMatC= 2.18D-15 BMatP= 1.15D-13
 IDIUse=1 WtCom= 1.00D+00 WtEn= 0.00D+00
 Coeff-Com: -0.471D-04 0.193D-02 0.476D-03-0.277D-01 0.109D-01 0.101D+01
 Coeff:     -0.471D-04 0.193D-02 0.476D-03-0.277D-01 0.109D-01 0.101D+01
 Gap=     0.461 Goal=   None    Shift=    0.000
 RMSDP=1.68D-09 MaxDP=1.48D-08 DE=-5.68D-14 OVMax= 4.10D-08

 SCF Done:  E(RM062X) =  -76.4211496151     A.U. after   11 cycles
            NFock= 11  Conv=0.17D-08     -V/T= 2.0031
 KE= 7.618156400911D+01 PE=-1.989739855702D+02 EE= 3.730689508888D+01
 Leave Link  502 at Mon Feb 20 00:31:37 2023, MaxMem=  6710886400 cpu:               8.8 elap:               0.4
 (Enter /data0/home/software/g16/l601.exe)
 Copying SCF densities to generalized density rwf, IOpCl= 0 IROHF=0.

 **********************************************************************

            Population analysis using the SCF density.

 **********************************************************************

 Alpha  occ. eigenvalues --  -19.62668  -1.13174  -0.60555  -0.47456  -0.39949
 Alpha virt. eigenvalues --    0.06156   0.13254   0.17413   0.17952   0.18935
 Alpha virt. eigenvalues --    0.23324   0.50268   0.53667   0.97937   1.00416
 Alpha virt. eigenvalues --    1.06016   1.18435   1.19818   1.32317   1.34103
 Alpha virt. eigenvalues --    1.69405   1.73771   1.75601   2.06549   2.09804
 Alpha virt. eigenvalues --    2.35404   2.41073   2.54317   2.87356   3.01040
 Alpha virt. eigenvalues --    5.05645   5.47118   5.90950   6.78311   6.80249
 Alpha virt. eigenvalues --    6.87207   6.91371   7.09873  49.95454
          Condensed to atoms (all electrons):
               1          2          3
     1  O    7.920131   0.315673   0.321943
     2  H    0.315673   0.426683  -0.024030
     3  H    0.321943  -0.024030   0.426015
 Mulliken charges:
               1
     1  O   -0.557747
     2  H    0.281675
     3  H    0.276072
     4  O    0.000000
     5  H    0.000000
     6  H    0.000000
 Sum of Mulliken charges =  -0.00000
 Mulliken charges with hydrogens summed into heavy atoms:
               1
     1  O   -0.000000
     4  O    0.000000
         Mulliken charges condensed to fragments:
      1     -0.000000
      2      0.000000
 Electronic spatial extent (au):  <R**2>=          17832.2227
 Charge=             -0.0000 electrons
 Dipole moment (field-independent basis, Debye):
    X=              0.7263    Y=             -0.2782    Z=             -1.9734  Tot=              2.1212
 Quadrupole moment (field-independent basis, Debye-Ang):
   XX=              8.6952   YY=            -12.8433   ZZ=            -54.5540
   XY=              8.3150   XZ=            -13.6460   YZ=            -33.2008
 Traceless Quadrupole moment (field-independent basis, Debye-Ang):
   XX=             28.2625   YY=              6.7241   ZZ=            -34.9866
   XY=              8.3150   XZ=            -13.6460   YZ=            -33.2008
 Octapole moment (field-independent basis, Debye-Ang**2):
  XXX=             20.5678  YYY=           -391.0492  ZZZ=          -1116.2653  XYY=             36.3736
  XXY=            107.3299  XXZ=           -150.6980  XZZ=           -512.1255  YZZ=           -864.7672
  YYZ=           -608.0125  XYZ=           -238.6756
 Hexadecapole moment (field-independent basis, Debye-Ang**3):
 XXXX=          -1548.6254 YYYY=          -9886.7293 ZZZZ=         -20096.1474 XXXY=            112.5768
 XXXZ=          -2679.2121 YYYX=          -1534.1319 YYYZ=         -11621.0975 ZZZX=         -11340.1291
 ZZZY=         -17342.3828 XXYY=            712.9436 XXZZ=          -5762.1931 YYZZ=         -14367.6187
 XXYZ=          -2572.6869 YYXZ=          -4708.5446 ZZXY=          -8127.3694
 N-N= 9.064376857128D+00 E-N=-1.989739854843D+02  KE= 7.618156400911D+01
 No NMR shielding tensors so no spin-rotation constants.
 Leave Link  601 at Mon Feb 20 00:31:37 2023, MaxMem=  6710886400 cpu:               1.8 elap:               0.1
 (Enter /data0/home/software/g16/l122.exe)
 CPIOFr:  IOpCl= 0 IRwI=-1 IRwCP=  731 ICalc=  3 LCPTot=       10496 Len1MO=       26312 IndFrg=      115744
 Counterpoise: doing calculation for fragment   2 using the basis set of the fragment.
 Leave Link  122 at Mon Feb 20 00:31:37 2023, MaxMem=  6710886400 cpu:               0.1 elap:               0.0
 (Enter /data0/home/software/g16/l301.exe)
 Basis read from rwf:  (5D, 7F)
 No pseudopotential information found on rwf file.
    39 basis functions,    58 primitive gaussians,    41 cartesian basis functions
     5 alpha electrons        5 beta electrons
       nuclear repulsion energy         9.0954348208 Hartrees.
 IExCor= 4336 DFT=T Ex+Corr=M062X ExCW=0 ScaHFX=  0.540000
 ScaDFX=  1.000000  1.000000  1.000000  1.000000 ScalE2=  1.000000  1.000000
 IRadAn=      5 IRanWt=     -1 IRanGd=            0 ICorTp=0 IEmpDi=131
 NAtoms=    6 NActive=    3 NUniq=    3 SFac= 1.00D+00 NAtFMM=   60 NAOKFM=F Big=F
 Integral buffers will be    131072 words long.
 Raffenetti 2 integral format.
 Two-electron integral symmetry is turned off.
 R6Disp:  Grimme-D3 Dispersion energy=       -0.0000000074 Hartrees.
 Nuclear repulsion after empirical dispersion term =        9.0954348134 Hartrees.
 No density basis found on file   718.
 Leave Link  301 at Mon Feb 20 00:31:37 2023, MaxMem=  6710886400 cpu:               1.3 elap:               0.1
 (Enter /data0/home/software/g16/l302.exe)
 NPDir=0 NMtPBC=     1 NCelOv=     1 NCel=       1 NClECP=     1 NCelD=      1
         NCelK=      1 NCelE2=     1 NClLst=     1 CellRange=     0.0.
 One-electron integrals computed using PRISM.
 NBasis=    39 RedAO= T EigKep=  3.01D-03  NBF=    39
 NBsUse=    39 1.00D-06 EigRej= -1.00D+00 NBFU=    39
 Precomputing XC quadrature grid using
 IXCGrd= 4 IRadAn=           5 IRanWt=          -1 IRanGd=           0 AccXCQ= 0.00D+00.
 Generated NRdTot=       0 NPtTot=           0 NUsed=           0 NTot=          32
 NSgBfM=    41    41    41    41    41 MxSgAt=     3 MxSgA2=     3.
 Leave Link  302 at Mon Feb 20 00:31:37 2023, MaxMem=  6710886400 cpu:               2.3 elap:               0.1
 (Enter /data0/home/software/g16/l303.exe)
 DipDrv:  MaxL=1.
 Leave Link  303 at Mon Feb 20 00:31:37 2023, MaxMem=  6710886400 cpu:               0.4 elap:               0.0
 (Enter /data0/home/software/g16/l401.exe)
 ExpMin= 8.45D-02 ExpMax= 8.59D+03 ExpMxC= 1.30D+03 IAcc=3 IRadAn=         5 AccDes= 0.00D+00
 Harris functional with IExCor= 1009 and IRadAn=       5 diagonalized for initial guess.
 HarFok:  IExCor= 1009 AccDes= 0.00D+00 IRadAn=         5 IDoV= 1 UseB2=F ITyADJ=14
 ICtDFT=  3500011 ScaDFX=  1.000000  1.000000  1.000000  1.000000
 FoFCou: FMM=F IPFlag=           0 FMFlag=      100000 FMFlg1=           0
         NFxFlg=           0 DoJE=T BraDBF=F KetDBF=T FulRan=T
         wScrn=  0.000000 ICntrl=       500 IOpCl=  0 I1Cent=   200000004 NGrid=           0
         NMat0=    1 NMatS0=      1 NMatT0=    0 NMatD0=    1 NMtDS0=    0 NMtDT0=    0
 Symmetry not used in FoFCou.
 Harris En= -76.4163866401667    
 JPrj=0 DoOrth=F DoCkMO=F.
 Leave Link  401 at Mon Feb 20 00:31:37 2023, MaxMem=  6710886400 cpu:               2.9 elap:               0.1
 (Enter /data0/home/software/g16/l502.exe)
 Keep R1 ints in memory in canonical form, NReq=21036027.
 FoFCou: FMM=F IPFlag=           0 FMFlag=           0 FMFlg1=           0
         NFxFlg=           0 DoJE=F BraDBF=F KetDBF=F FulRan=T
         wScrn=  0.000000 ICntrl=       600 IOpCl=  0 I1Cent=           0 NGrid=           0
         NMat0=    1 NMatS0=    780 NMatT0=    0 NMatD0=    1 NMtDS0=    0 NMtDT0=    0
 Symmetry not used in FoFCou.
 Two-electron integral symmetry not used.
 Closed shell SCF:
 Using DIIS extrapolation, IDIIS=  1040.
 NGot=  6710886400 LenX=  6710576925 LenY=  6710574803
 Requested convergence on RMS density matrix=1.00D-08 within 128 cycles.
 Requested convergence on MAX density matrix=1.00D-06.
 Requested convergence on             energy=1.00D-06.
 No special actions if energy rises.
 Integral accuracy reduced to 1.0D-05 until final iterations.

 Cycle   1  Pass 0  IDiag  1:
 E= -76.3466153841240    
 DIIS: error= 6.99D-02 at cycle   1 NSaved=   1.
 NSaved= 1 IEnMin= 1 EnMin= -76.3466153841240     IErMin= 1 ErrMin= 6.99D-02
 ErrMax= 6.99D-02  0.00D+00 EMaxC= 1.00D-01 BMatC= 1.20D-01 BMatP= 1.20D-01
 IDIUse=3 WtCom= 3.01D-01 WtEn= 6.99D-01
 Coeff-Com:  0.100D+01
 Coeff-En:   0.100D+01
 Coeff:      0.100D+01
 Gap=     0.325 Goal=   None    Shift=    0.000
 GapD=    0.325 DampG=1.000 DampE=0.500 DampFc=0.5000 IDamp=-1.
 Damping current iteration by 5.00D-01
 RMSDP=7.96D-03 MaxDP=1.01D-01              OVMax= 1.68D-01

 Cycle   2  Pass 0  IDiag  1:
 E= -76.3779105717376     Delta-E=       -0.031295187614 Rises=F Damp=T
 DIIS: error= 1.14D-02 at cycle   2 NSaved=   2.
 NSaved= 2 IEnMin= 2 EnMin= -76.3779105717376     IErMin= 2 ErrMin= 1.14D-02
 ErrMax= 1.14D-02  0.00D+00 EMaxC= 1.00D-01 BMatC= 4.84D-03 BMatP= 1.20D-01
 IDIUse=3 WtCom= 8.86D-01 WtEn= 1.14D-01
 Coeff-Com:  0.829D-01 0.917D+00
 Coeff-En:   0.188D+00 0.812D+00
 Coeff:      0.949D-01 0.905D+00
 Gap=     0.457 Goal=   None    Shift=    0.000
 RMSDP=9.47D-04 MaxDP=1.41D-02 DE=-3.13D-02 OVMax= 1.00D-01

 Cycle   3  Pass 0  IDiag  1:
 E= -76.4217198270437     Delta-E=       -0.043809255306 Rises=F Damp=F
 DIIS: error= 2.16D-03 at cycle   3 NSaved=   3.
 NSaved= 3 IEnMin= 3 EnMin= -76.4217198270437     IErMin= 3 ErrMin= 2.16D-03
 ErrMax= 2.16D-03  0.00D+00 EMaxC= 1.00D-01 BMatC= 9.04D-05 BMatP= 4.84D-03
 IDIUse=3 WtCom= 9.78D-01 WtEn= 2.16D-02
 Coeff-Com: -0.199D-01 0.393D-01 0.981D+00
 Coeff-En:   0.000D+00 0.000D+00 0.100D+01
 Coeff:     -0.195D-01 0.384D-01 0.981D+00
 Gap=     0.462 Goal=   None    Shift=    0.000
 RMSDP=1.14D-04 MaxDP=1.04D-03 DE=-4.38D-02 OVMax= 3.31D-03

 Cycle   4  Pass 0  IDiag  1:
 E= -76.4217969858777     Delta-E=       -0.000077158834 Rises=F Damp=F
 DIIS: error= 4.13D-04 at cycle   4 NSaved=   4.
 NSaved= 4 IEnMin= 4 EnMin= -76.4217969858777     IErMin= 4 ErrMin= 4.13D-04
 ErrMax= 4.13D-04  0.00D+00 EMaxC= 1.00D-01 BMatC= 3.27D-06 BMatP= 9.04D-05
 IDIUse=3 WtCom= 9.96D-01 WtEn= 4.13D-03
 Coeff-Com: -0.188D-02-0.226D-02 0.162D+00 0.842D+00
 Coeff-En:   0.000D+00 0.000D+00 0.000D+00 0.100D+01
 Coeff:     -0.187D-02-0.225D-02 0.161D+00 0.843D+00
 Gap=     0.462 Goal=   None    Shift=    0.000
 RMSDP=2.21D-05 MaxDP=3.54D-04 DE=-7.72D-05 OVMax= 5.36D-04

 Cycle   5  Pass 0  IDiag  1:
 E= -76.4217990062608     Delta-E=       -0.000002020383 Rises=F Damp=F
 DIIS: error= 8.86D-05 at cycle   5 NSaved=   5.
 NSaved= 5 IEnMin= 5 EnMin= -76.4217990062608     IErMin= 5 ErrMin= 8.86D-05
 ErrMax= 8.86D-05  0.00D+00 EMaxC= 1.00D-01 BMatC= 8.21D-08 BMatP= 3.27D-06
 IDIUse=1 WtCom= 1.00D+00 WtEn= 0.00D+00
 Coeff-Com:  0.118D-02-0.179D-02-0.367D-01-0.640D-01 0.110D+01
 Coeff:      0.118D-02-0.179D-02-0.367D-01-0.640D-01 0.110D+01
 Gap=     0.462 Goal=   None    Shift=    0.000
 RMSDP=8.96D-06 MaxDP=1.02D-04 DE=-2.02D-06 OVMax= 2.02D-04

 Initial convergence to 1.0D-05 achieved.  Increase integral accuracy.
 Cycle   6  Pass 1  IDiag  1:
 E= -76.4218024807349     Delta-E=       -0.000003474474 Rises=F Damp=F
 DIIS: error= 1.22D-05 at cycle   1 NSaved=   1.
 NSaved= 1 IEnMin= 1 EnMin= -76.4218024807349     IErMin= 1 ErrMin= 1.22D-05
 ErrMax= 1.22D-05  0.00D+00 EMaxC= 1.00D-01 BMatC= 8.61D-09 BMatP= 8.61D-09
 IDIUse=1 WtCom= 1.00D+00 WtEn= 0.00D+00
 Coeff-Com:  0.100D+01
 Coeff:      0.100D+01
 Gap=     0.462 Goal=   None    Shift=    0.000
 RMSDP=8.96D-06 MaxDP=1.02D-04 DE=-3.47D-06 OVMax= 3.42D-05

 Cycle   7  Pass 1  IDiag  1:
 E= -76.4218024878705     Delta-E=       -0.000000007136 Rises=F Damp=F
 DIIS: error= 7.94D-06 at cycle   2 NSaved=   2.
 NSaved= 2 IEnMin= 2 EnMin= -76.4218024878705     IErMin= 2 ErrMin= 7.94D-06
 ErrMax= 7.94D-06  0.00D+00 EMaxC= 1.00D-01 BMatC= 7.68D-10 BMatP= 8.61D-09
 IDIUse=1 WtCom= 1.00D+00 WtEn= 0.00D+00
 Coeff-Com:  0.665D-01 0.933D+00
 Coeff:      0.665D-01 0.933D+00
 Gap=     0.462 Goal=   None    Shift=    0.000
 RMSDP=5.89D-07 MaxDP=9.48D-06 DE=-7.14D-09 OVMax= 1.67D-05

 Cycle   8  Pass 1  IDiag  1:
 E= -76.4218024880671     Delta-E=       -0.000000000197 Rises=F Damp=F
 DIIS: error= 4.97D-06 at cycle   3 NSaved=   3.
 NSaved= 3 IEnMin= 3 EnMin= -76.4218024880671     IErMin= 3 ErrMin= 4.97D-06
 ErrMax= 4.97D-06  0.00D+00 EMaxC= 1.00D-01 BMatC= 6.88D-10 BMatP= 7.68D-10
 IDIUse=1 WtCom= 1.00D+00 WtEn= 0.00D+00
 Coeff-Com: -0.544D-01 0.500D+00 0.554D+00
 Coeff:     -0.544D-01 0.500D+00 0.554D+00
 Gap=     0.462 Goal=   None    Shift=    0.000
 RMSDP=3.07D-07 MaxDP=3.97D-06 DE=-1.97D-10 OVMax= 7.23D-06

 Cycle   9  Pass 1  IDiag  1:
 E= -76.4218024885238     Delta-E=       -0.000000000457 Rises=F Damp=F
 DIIS: error= 5.85D-07 at cycle   4 NSaved=   4.
 NSaved= 4 IEnMin= 4 EnMin= -76.4218024885238     IErMin= 4 ErrMin= 5.85D-07
 ErrMax= 5.85D-07  0.00D+00 EMaxC= 1.00D-01 BMatC= 3.11D-12 BMatP= 6.88D-10
 IDIUse=1 WtCom= 1.00D+00 WtEn= 0.00D+00
 Coeff-Com:  0.106D-02-0.574D-01-0.146D-01 0.107D+01
 Coeff:      0.106D-02-0.574D-01-0.146D-01 0.107D+01
 Gap=     0.462 Goal=   None    Shift=    0.000
 RMSDP=5.68D-08 MaxDP=4.74D-07 DE=-4.57D-10 OVMax= 1.36D-06

 Cycle  10  Pass 1  IDiag  1:
 E= -76.4218024885289     Delta-E=       -0.000000000005 Rises=F Damp=F
 DIIS: error= 7.80D-08 at cycle   5 NSaved=   5.
 NSaved= 5 IEnMin= 5 EnMin= -76.4218024885289     IErMin= 5 ErrMin= 7.80D-08
 ErrMax= 7.80D-08  0.00D+00 EMaxC= 1.00D-01 BMatC= 1.89D-13 BMatP= 3.11D-12
 IDIUse=1 WtCom= 1.00D+00 WtEn= 0.00D+00
 Coeff-Com:  0.276D-02-0.369D-01-0.331D-01 0.181D+00 0.886D+00
 Coeff:      0.276D-02-0.369D-01-0.331D-01 0.181D+00 0.886D+00
 Gap=     0.462 Goal=   None    Shift=    0.000
 RMSDP=1.32D-08 MaxDP=1.18D-07 DE=-5.07D-12 OVMax= 3.14D-07

 Cycle  11  Pass 1  IDiag  1:
 E= -76.4218024885292     Delta-E=       -0.000000000000 Rises=F Damp=F
 DIIS: error= 8.55D-09 at cycle   6 NSaved=   6.
 NSaved= 6 IEnMin= 6 EnMin= -76.4218024885292     IErMin= 6 ErrMin= 8.55D-09
 ErrMax= 8.55D-09  0.00D+00 EMaxC= 1.00D-01 BMatC= 2.83D-15 BMatP= 1.89D-13
 IDIUse=1 WtCom= 1.00D+00 WtEn= 0.00D+00
 Coeff-Com:  0.127D-03 0.333D-03-0.146D-02-0.291D-01 0.201D-02 0.103D+01
 Coeff:      0.127D-03 0.333D-03-0.146D-02-0.291D-01 0.201D-02 0.103D+01
 Gap=     0.462 Goal=   None    Shift=    0.000
 RMSDP=2.22D-09 MaxDP=2.15D-08 DE=-2.56D-13 OVMax= 5.65D-08

 SCF Done:  E(RM062X) =  -76.4218024885     A.U. after   11 cycles
            NFock= 11  Conv=0.22D-08     -V/T= 2.0030
 KE= 7.619336827959D+01 PE=-1.990394779795D+02 EE= 3.732887239795D+01
 Leave Link  502 at Mon Feb 20 00:31:37 2023, MaxMem=  6710886400 cpu:               8.8 elap:               0.4
 (Enter /data0/home/software/g16/l601.exe)
 Copying SCF densities to generalized density rwf, IOpCl= 0 IROHF=0.

 **********************************************************************

            Population analysis using the SCF density.

 **********************************************************************

 Alpha  occ. eigenvalues --  -19.62660  -1.13366  -0.60528  -0.47679  -0.39999
 Alpha virt. eigenvalues --    0.06233   0.13313   0.17415   0.17943   0.18906
 Alpha virt. eigenvalues --    0.23382   0.51029   0.53359   0.98087   1.00233
 Alpha virt. eigenvalues --    1.06013   1.17698   1.20116   1.32020   1.33969
 Alpha virt. eigenvalues --    1.70371   1.74306   1.75349   2.07593   2.09420
 Alpha virt. eigenvalues --    2.36282   2.39901   2.54816   2.87973   3.01211
 Alpha virt. eigenvalues --    5.05635   5.48723   5.91152   6.78453   6.80075
 Alpha virt. eigenvalues --    6.87314   6.91593   7.09493  49.95594
          Condensed to atoms (all electrons):
               4          5          6
     4  O    7.917472   0.318989   0.317224
     5  H    0.318989   0.428884  -0.023929
     6  H    0.317224  -0.023929   0.429074
 Mulliken charges:
               1
     1  O    0.000000
     2  H    0.000000
     3  H    0.000000
     4  O   -0.553686
     5  H    0.276055
     6  H    0.277630
 Sum of Mulliken charges =  -0.00000
 Mulliken charges with hydrogens summed into heavy atoms:
               1
     1  O    0.000000
     4  O   -0.000000
         Mulliken charges condensed to fragments:
      1      0.000000
      2     -0.000000
 Electronic spatial extent (au):  <R**2>=          21499.0239
 Charge=             -0.0000 electrons
 Dipole moment (field-independent basis, Debye):
    X=              0.3351    Y=             -0.1634    Z=             -2.0999  Tot=              2.1328
 Quadrupole moment (field-independent basis, Debye-Ang):
   XX=              4.0379   YY=            -12.6142   ZZ=            -66.7549
   XY=              3.4369   XZ=            -21.7639   YZ=            -33.9867
 Traceless Quadrupole moment (field-independent basis, Debye-Ang):
   XX=             29.1483   YY=             12.4962   ZZ=            -41.6445
   XY=              3.4369   XZ=            -21.7639   YZ=            -33.9867
 Octapole moment (field-independent basis, Debye-Ang**2):
  XXX=             -8.9154  YYY=           -460.9016  ZZZ=          -1578.8634  XYY=            -70.7696
  XXY=             45.8799  XXZ=           -279.7866  XZZ=           -776.7844  YZZ=          -1040.1285
  YYZ=           -658.5363  XYZ=           -351.1931
 Hexadecapole moment (field-independent basis, Debye-Ang**3):
 XXXX=          -1620.9276 YYYY=         -12838.8844 ZZZZ=         -32977.7530 XXXY=           -258.5165
 XXXZ=          -4439.3986 YYYX=          -4418.8118 YYYZ=         -13831.6365 ZZZX=         -19034.8185
 ZZZY=         -24299.7939 XXYY=           -791.9760 XXZZ=          -9929.2628 YYZZ=         -17796.2897
 XXYZ=          -4433.3287 YYXZ=          -7061.4874 ZZXY=         -12047.5836
 N-N= 9.095434813409D+00 E-N=-1.990394778994D+02  KE= 7.619336827959D+01
 No NMR shielding tensors so no spin-rotation constants.
 Leave Link  601 at Mon Feb 20 00:31:37 2023, MaxMem=  6710886400 cpu:               1.8 elap:               0.1
 (Enter /data0/home/software/g16/l122.exe)
 CPIOFr:  IOpCl= 0 IRwI=-1 IRwCP=  731 ICalc=  4 LCPTot=       10496 Len1MO=       26312 IndFrg=      142056
 Restoring MOs from calculation   1 to rwf.
 CPIOFr:  IOpCl= 0 IRwI=-2 IRwCP=  731 ICalc=  0 LCPTot=       10496 Len1MO=       26312 IndFrg=       36808
 Counterpoise corrected energy =    -152.848858886632
                   BSSE energy =       0.001267969272
              sum of fragments =    -152.842952103638
           complexation energy =      -4.50 kcal/mole (raw)
           complexation energy =      -3.71 kcal/mole (corrected)
 Leave Link  122 at Mon Feb 20 00:31:38 2023, MaxMem=  6710886400 cpu:               0.1 elap:               0.0
 (Enter /data0/home/software/g16/l9999.exe)
 1\1\GINC-LOCALHOST\SP\RM062X\6-311+G(2d,p)\H4O2\WUHANYU\20-Feb-2023\0\
 \#p M062X/6-311+G(2d,p) nosymm em=GD3 counterpoise=2\\Title Card Requi
 red\\0,1\O,0,11.100997,15.038299,12.28057\H,0,11.4385,15.716736,11.643
 264\H,0,11.17454,14.215646,11.805682\O,0,12.773726,15.158833,14.51086\
 H,0,13.608127,15.221788,14.034773\H,0,12.124724,15.003221,13.802359\\V
 ersion=ES64L-G16RevA.03\HF=-76.4218025\RMSD=2.220e-09\Dipole=0.2374628
 ,-0.1789097,-1.8119413\Quadrupole=40.7515557,20.3816031,-61.1331588,3.
 4628351,-35.6714888,-56.0815032\PG=C01 [X(H4O2)]\\@


 SUCCESS IS COUNTED SWEETEST
 BY THOSE WHO NE'ER SUCCEED.
 TO COMPREHEND NECTAR
 REQUIRES SOREST NEED.
           EMILY DICKINSON
 Job cpu time:       0 days  0 hours  2 minutes 13.3 seconds.
 Elapsed time:       0 days  0 hours  0 minutes  6.5 seconds.
 File lengths (MBytes):  RWF=     10 Int=      0 D2E=      0 Chk=      3 Scr=      1
 Normal termination of Gaussian 16 at Mon Feb 20 00:31:38 2023.
